 Entering Gaussian System, Link 0=g16
 Input=BE_24NO2_reduced_sp.gjf
 Output=BE_24NO2_reduced_sp.log
 Initial command:
 /public/software/gauss/g16/l1.exe "/public/home/baiding/1028_sp/tmp_BE_24NO2_reduced_sp_1538822/Gau-31432.inp" -scrdir="/public/home/baiding/1028_sp/tmp_BE_24NO2_reduced_sp_1538822/"
 Entering Link 1 = /public/software/gauss/g16/l1.exe PID=     31433.
  
 Copyright (c) 1988,1990,1992,1993,1995,1998,2003,2009,2016,
            Gaussian, Inc.  All Rights Reserved.
  
 This is part of the Gaussian(R) 16 program.  It is based on
 the Gaussian(R) 09 system (copyright 2009, Gaussian, Inc.),
 the Gaussian(R) 03 system (copyright 2003, Gaussian, Inc.),
 the Gaussian(R) 98 system (copyright 1998, Gaussian, Inc.),
 the Gaussian(R) 94 system (copyright 1995, Gaussian, Inc.),
 the Gaussian 92(TM) system (copyright 1992, Gaussian, Inc.),
 the Gaussian 90(TM) system (copyright 1990, Gaussian, Inc.),
 the Gaussian 88(TM) system (copyright 1988, Gaussian, Inc.),
 the Gaussian 86(TM) system (copyright 1986, Carnegie Mellon
 University), and the Gaussian 82(TM) system (copyright 1983,
 Carnegie Mellon University). Gaussian is a federally registered
 trademark of Gaussian, Inc.
  
 This software contains proprietary and confidential information,
 including trade secrets, belonging to Gaussian, Inc.
  
 This software is provided under written license and may be
 used, copied, transmitted, or stored only in accord with that
 written license.
  
 The following legend is applicable only to US Government
 contracts under FAR:
  
                    RESTRICTED RIGHTS LEGEND
  
 Use, reproduction and disclosure by the US Government is
 subject to restrictions as set forth in subparagraphs (a)
 and (c) of the Commercial Computer Software - Restricted
 Rights clause in FAR 52.227-19.
  
 Gaussian, Inc.
 340 Quinnipiac St., Bldg. 40, Wallingford CT 06492
  
  
 ---------------------------------------------------------------
 Warning -- This program may not be used in any manner that
 competes with the business of Gaussian, Inc. or will provide
 assistance to any competitor of Gaussian, Inc.  The licensee
 of this program is prohibited from giving any competitor of
 Gaussian, Inc. access to this program.  By using this program,
 the user acknowledges that Gaussian, Inc. is engaged in the
 business of creating and licensing software in the field of
 computational chemistry and represents and warrants to the
 licensee that it is not a competitor of Gaussian, Inc. and that
 it will not use this program in any manner prohibited above.
 ---------------------------------------------------------------
  

 Cite this work as:
 Gaussian 16, Revision A.03,
 M. J. Frisch, G. W. Trucks, H. B. Schlegel, G. E. Scuseria, 
 M. A. Robb, J. R. Cheeseman, G. Scalmani, V. Barone, 
 G. A. Petersson, H. Nakatsuji, X. Li, M. Caricato, A. V. Marenich, 
 J. Bloino, B. G. Janesko, R. Gomperts, B. Mennucci, H. P. Hratchian, 
 J. V. Ortiz, A. F. Izmaylov, J. L. Sonnenberg, D. Williams-Young, 
 F. Ding, F. Lipparini, F. Egidi, J. Goings, B. Peng, A. Petrone, 
 T. Henderson, D. Ranasinghe, V. G. Zakrzewski, J. Gao, N. Rega, 
 G. Zheng, W. Liang, M. Hada, M. Ehara, K. Toyota, R. Fukuda, 
 J. Hasegawa, M. Ishida, T. Nakajima, Y. Honda, O. Kitao, H. Nakai, 
 T. Vreven, K. Throssell, J. A. Montgomery, Jr., J. E. Peralta, 
 F. Ogliaro, M. J. Bearpark, J. J. Heyd, E. N. Brothers, K. N. Kudin, 
 V. N. Staroverov, T. A. Keith, R. Kobayashi, J. Normand, 
 K. Raghavachari, A. P. Rendell, J. C. Burant, S. S. Iyengar, 
 J. Tomasi, M. Cossi, J. M. Millam, M. Klene, C. Adamo, R. Cammi, 
 J. W. Ochterski, R. L. Martin, K. Morokuma, O. Farkas, 
 J. B. Foresman, and D. J. Fox, Gaussian, Inc., Wallingford CT, 2016.
 
 ******************************************
 Gaussian 16:  ES64L-G16RevA.03 25-Dec-2016
                28-Oct-2025 
 ******************************************
 %nprocshared=64
 Will use up to   64 processors via shared memory.
 %mem=230GB
 %chk=BE_24NO2_reduced_sp.chk
 ----------------------------------------------
 #p M062X/DEF2TZVPP scrf=(solvent=water) em=GD3
 ----------------------------------------------
 1/38=1,172=1/1;
 2/12=2,17=6,18=5,40=1/2;
 3/5=44,7=202,11=2,25=1,30=1,70=2201,72=1,74=-55,124=31/1,2,3;
 4//1;
 5/5=2,38=5,53=1/2;
 6/7=2,8=2,9=2,10=2,28=1/1;
 99/5=1,9=1/99;
 Leave Link    1 at Tue Oct 28 13:53:54 2025, MaxMem= 30870077440 cpu:              15.4 elap:               0.2
 (Enter /public/software/gauss/g16/l101.exe)
 ---------------------------------------
 Energy calculation for BE_24NO2_reduced
 ---------------------------------------
 Symbolic Z-matrix:
 Charge = -1 Multiplicity = 2
 B                    -2.97475   0.45359  -1.61961 
 N                    -3.56217   1.88462  -1.50427 
 C                    -2.86521   3.08139  -1.57918 
 C                    -3.80847   4.12054  -1.64968 
 C                    -5.09492   3.58332  -1.56109 
 C                    -4.92273   2.17326  -1.45791 
 C                    -5.86831   1.08583  -1.38652 
 C                    -7.0449    1.22462  -0.54768 
 O                    -7.4352    2.31568  -0.08403 
 C                    -7.80958  -0.03435  -0.07458 
 C                    -8.25632   0.10065   1.35998 
 C                    -7.52705  -0.33801   2.48372 
 N                    -6.18966  -0.92504   2.35102 
 O                    -5.83048  -1.74332   3.20171 
 O                    -5.47793  -0.56126   1.41257 
 C                    -8.01111  -0.24426   3.78528 
 C                    -9.2526    0.34334   3.97601 
 C                    -10.0162   0.811     2.90649 
 C                    -9.51207   0.67411   1.6209 
 N                    -9.76809   0.46871   5.33655 
 O                    -10.87856   0.98352   5.49254 
 O                    -9.07236   0.05458   6.26786 
 C                    -5.46164  -0.178    -1.95387 
 N                    -4.11551  -0.51463  -2.01367 
 C                    -4.00027  -1.73338  -2.66643 
 C                    -5.28396  -2.12422  -3.075 
 C                    -6.21177  -1.17093  -2.63587 
 C                    -7.67399  -1.17429  -2.97854 
 C                    -2.82865  -2.55718  -2.83869 
 C                    -1.63647  -2.50166  -2.19219 
 C                    -0.5066   -3.40425  -2.39934 
 C                    -0.43926  -4.362    -3.43678 
 C                     0.65327  -5.20469  -3.57101 
 C                     1.73112  -5.12317  -2.67413 
 O                     2.76414  -5.9995   -2.91809 
 C                     3.89977  -6.02356  -2.04478 
 C                     3.6276   -6.87733  -0.81097 
 O                     4.82759  -6.90381  -0.04948 
 C                     4.70808  -7.70258   1.12563 
 C                     6.0206   -7.68773   1.875 
 O                     7.00799  -8.35669   1.08826 
 C                     8.33195  -8.27228   1.61488 
 C                     8.56731  -9.28313   2.7426 
 O                     9.89489  -9.20271   3.25947 
 C                     10.85958  -9.90084   2.47579 
 C                     1.6969   -4.17967  -1.64162 
 C                     0.59162  -3.33726  -1.52136 
 C                    -6.35071   4.39329  -1.71227 
 C                    -1.44579   3.31763  -1.51262 
 C                    -0.44319   2.49073  -1.1158 
 C                     0.97682   2.82687  -1.05819 
 C                     1.88412   1.86459  -0.56256 
 C                     3.24671   2.11611  -0.48243 
 C                     3.7594    3.35247  -0.89929 
 O                     5.12446   3.49101  -0.79668 
 C                     5.75281   4.71065  -1.21093 
 C                     5.71867   5.75515  -0.09978 
 O                     6.45167   6.87877  -0.57766 
 C                     6.38882   8.02686   0.26938 
 C                     7.19233   7.88266   1.55888 
 O                     8.55151   7.5038    1.35052 
 C                     9.37379   8.53978   0.81422 
 C                     10.81466   8.08266   0.84262 
 O                     11.24198   7.94985   2.19401 
 C                     12.58942   7.5072    2.28537 
 C                     2.88333   4.33004  -1.39208 
 C                     1.51914   4.06116  -1.4696 
 F                    -2.38782   0.05847  -0.38921 
 F                    -1.99167   0.43996  -2.61837 
 H                    -3.55996   5.1697   -1.75291 
 H                    -8.71264  -0.12028  -0.68573 
 H                    -7.21931  -0.93592  -0.22054 
 H                    -7.42719  -0.6044    4.62062 
 H                    -10.98354   1.26411   3.08139 
 H                    -10.10857   1.01083   0.7807 
 H                    -5.5051   -3.02412  -3.63566 
 H                    -8.27235  -1.77938  -2.28713 
 H                    -8.0943   -0.16458  -2.97914 
 H                    -7.8211   -1.59603  -3.97812 
 H                    -2.99673  -3.36489  -3.54925 
 H                    -1.49118  -1.75473  -1.41898 
 H                    -1.24869  -4.44365  -4.15543 
 H                     0.69718  -5.93397  -4.37403 
 H                     4.7048   -6.47287  -2.63111 
 H                     4.20667  -5.01122  -1.76473 
 H                     2.80132  -6.46049  -0.21734 
 H                     3.33887  -7.89194  -1.12267 
 H                     3.91873  -7.30652   1.78158 
 H                     4.43778  -8.73478   0.85757 
 H                     6.3318   -6.65082   2.06811 
 H                     5.87276  -8.18356   2.84377 
 H                     9.00309  -8.47824   0.77582 
 H                     8.5419   -7.25639   1.97797 
 H                     7.90097  -9.07189   3.58452 
 H                     8.34979  -10.29865   2.38211 
 H                     11.81453  -9.82008   3.00119 
 H                     10.59632  -10.96305   2.37598 
 H                     10.97565  -9.47318   1.47207 
 H                     2.50948  -4.0921   -0.93039 
 H                     0.57551  -2.6098   -0.71394 
 H                    -6.77026   4.70394  -0.75058 
 H                    -6.13224   5.29982  -2.28667 
 H                    -7.13421   3.84024  -2.23619 
 H                    -1.19529   4.34438  -1.77406 
 H                    -0.68806   1.48881  -0.78182 
 H                     1.50412   0.89971  -0.23751 
 H                     3.93194   1.36453  -0.10311 
 H                     6.78984   4.44174  -1.4262 
 H                     5.3031    5.09648  -2.1309 
 H                     4.68594   6.04469   0.13977 
 H                     6.17041   5.32918   0.80582 
 H                     6.77305   8.85419  -0.33429 
 H                     5.34609   8.25909   0.53295 
 H                     7.13149   8.83251   2.1116 
 H                     6.76412   7.10086   2.19304 
 H                     9.10318   8.77001  -0.22523 
 H                     9.25803   9.45948   1.40673 
 H                     10.91444   7.1221    0.31398 
 H                     11.43349   8.82238   0.31174 
 H                     12.83721   7.43229   3.34704 
 H                     12.72315   6.52159   1.8168 
 H                     13.28059   8.21572   1.80624 
 H                     3.24795   5.29742  -1.71569 
 H                     0.86889   4.83633  -1.86288 
 
 ITRead=  0  0  0  0  0  0  0  0  0  0  0  0  0  0  0  0  0  0  0  0
 ITRead=  0  0  0  0  0  0  0  0  0  0  0  0  0  0  0  0  0  0  0  0
 ITRead=  0  0  0  0  0  0  0  0  0  0  0  0  0  0  0  0  0  0  0  0
 ITRead=  0  0  0  0  0  0  0  0  0  0  0  0  0  0  0  0  0  0  0  0
 ITRead=  0  0  0  0  0  0  0  0  0  0  0  0  0  0  0  0  0  0  0  0
 ITRead=  0  0  0  0  0  0  0  0  0  0  0  0  0  0  0  0  0  0  0  0
 ITRead=  0  0  0  0
 MicOpt= -1 -1 -1 -1 -1 -1 -1 -1 -1 -1 -1 -1 -1 -1 -1 -1 -1 -1 -1 -1
 MicOpt= -1 -1 -1 -1 -1 -1 -1 -1 -1 -1 -1 -1 -1 -1 -1 -1 -1 -1 -1 -1
 MicOpt= -1 -1 -1 -1 -1 -1 -1 -1 -1 -1 -1 -1 -1 -1 -1 -1 -1 -1 -1 -1
 MicOpt= -1 -1 -1 -1 -1 -1 -1 -1 -1 -1 -1 -1 -1 -1 -1 -1 -1 -1 -1 -1
 MicOpt= -1 -1 -1 -1 -1 -1 -1 -1 -1 -1 -1 -1 -1 -1 -1 -1 -1 -1 -1 -1
 MicOpt= -1 -1 -1 -1 -1 -1 -1 -1 -1 -1 -1 -1 -1 -1 -1 -1 -1 -1 -1 -1
 MicOpt= -1 -1 -1 -1
 NAtoms=    124 NQM=      124 NQMF=       0 NMMI=      0 NMMIF=      0
                NMic=       0 NMicF=      0.
                    Isotopes and Nuclear Properties:
 (Nuclear quadrupole moments (NQMom) in fm**2, nuclear magnetic moments (NMagM)
  in nuclear magnetons)

  Atom         1           2           3           4           5           6           7           8           9          10
 IAtWgt=          11          14          12          12          12          12          12          12          16          12
 AtmWgt=  11.0093053  14.0030740  12.0000000  12.0000000  12.0000000  12.0000000  12.0000000  12.0000000  15.9949146  12.0000000
 NucSpn=           3           2           0           0           0           0           0           0           0           0
 AtZEff=  -0.0000000  -0.0000000  -0.0000000  -0.0000000  -0.0000000  -0.0000000  -0.0000000  -0.0000000  -0.0000000  -0.0000000
 NQMom=    4.0590000   2.0440000   0.0000000   0.0000000   0.0000000   0.0000000   0.0000000   0.0000000   0.0000000   0.0000000
 NMagM=    2.6886370   0.4037610   0.0000000   0.0000000   0.0000000   0.0000000   0.0000000   0.0000000   0.0000000   0.0000000
 AtZNuc=   5.0000000   7.0000000   6.0000000   6.0000000   6.0000000   6.0000000   6.0000000   6.0000000   8.0000000   6.0000000

  Atom        11          12          13          14          15          16          17          18          19          20
 IAtWgt=          12          12          14          16          16          12          12          12          12          14
 AtmWgt=  12.0000000  12.0000000  14.0030740  15.9949146  15.9949146  12.0000000  12.0000000  12.0000000  12.0000000  14.0030740
 NucSpn=           0           0           2           0           0           0           0           0           0           2
 AtZEff=  -0.0000000  -0.0000000  -0.0000000  -0.0000000  -0.0000000  -0.0000000  -0.0000000  -0.0000000  -0.0000000  -0.0000000
 NQMom=    0.0000000   0.0000000   2.0440000   0.0000000   0.0000000   0.0000000   0.0000000   0.0000000   0.0000000   2.0440000
 NMagM=    0.0000000   0.0000000   0.4037610   0.0000000   0.0000000   0.0000000   0.0000000   0.0000000   0.0000000   0.4037610
 AtZNuc=   6.0000000   6.0000000   7.0000000   8.0000000   8.0000000   6.0000000   6.0000000   6.0000000   6.0000000   7.0000000

  Atom        21          22          23          24          25          26          27          28          29          30
 IAtWgt=          16          16          12          14          12          12          12          12          12          12
 AtmWgt=  15.9949146  15.9949146  12.0000000  14.0030740  12.0000000  12.0000000  12.0000000  12.0000000  12.0000000  12.0000000
 NucSpn=           0           0           0           2           0           0           0           0           0           0
 AtZEff=  -0.0000000  -0.0000000  -0.0000000  -0.0000000  -0.0000000  -0.0000000  -0.0000000  -0.0000000  -0.0000000  -0.0000000
 NQMom=    0.0000000   0.0000000   0.0000000   2.0440000   0.0000000   0.0000000   0.0000000   0.0000000   0.0000000   0.0000000
 NMagM=    0.0000000   0.0000000   0.0000000   0.4037610   0.0000000   0.0000000   0.0000000   0.0000000   0.0000000   0.0000000
 AtZNuc=   8.0000000   8.0000000   6.0000000   7.0000000   6.0000000   6.0000000   6.0000000   6.0000000   6.0000000   6.0000000

  Atom        31          32          33          34          35          36          37          38          39          40
 IAtWgt=          12          12          12          12          16          12          12          16          12          12
 AtmWgt=  12.0000000  12.0000000  12.0000000  12.0000000  15.9949146  12.0000000  12.0000000  15.9949146  12.0000000  12.0000000
 NucSpn=           0           0           0           0           0           0           0           0           0           0
 AtZEff=  -0.0000000  -0.0000000  -0.0000000  -0.0000000  -0.0000000  -0.0000000  -0.0000000  -0.0000000  -0.0000000  -0.0000000
 NQMom=    0.0000000   0.0000000   0.0000000   0.0000000   0.0000000   0.0000000   0.0000000   0.0000000   0.0000000   0.0000000
 NMagM=    0.0000000   0.0000000   0.0000000   0.0000000   0.0000000   0.0000000   0.0000000   0.0000000   0.0000000   0.0000000
 AtZNuc=   6.0000000   6.0000000   6.0000000   6.0000000   8.0000000   6.0000000   6.0000000   8.0000000   6.0000000   6.0000000

  Atom        41          42          43          44          45          46          47          48          49          50
 IAtWgt=          16          12          12          16          12          12          12          12          12          12
 AtmWgt=  15.9949146  12.0000000  12.0000000  15.9949146  12.0000000  12.0000000  12.0000000  12.0000000  12.0000000  12.0000000
 NucSpn=           0           0           0           0           0           0           0           0           0           0
 AtZEff=  -0.0000000  -0.0000000  -0.0000000  -0.0000000  -0.0000000  -0.0000000  -0.0000000  -0.0000000  -0.0000000  -0.0000000
 NQMom=    0.0000000   0.0000000   0.0000000   0.0000000   0.0000000   0.0000000   0.0000000   0.0000000   0.0000000   0.0000000
 NMagM=    0.0000000   0.0000000   0.0000000   0.0000000   0.0000000   0.0000000   0.0000000   0.0000000   0.0000000   0.0000000
 AtZNuc=   8.0000000   6.0000000   6.0000000   8.0000000   6.0000000   6.0000000   6.0000000   6.0000000   6.0000000   6.0000000

  Atom        51          52          53          54          55          56          57          58          59          60
 IAtWgt=          12          12          12          12          16          12          12          16          12          12
 AtmWgt=  12.0000000  12.0000000  12.0000000  12.0000000  15.9949146  12.0000000  12.0000000  15.9949146  12.0000000  12.0000000
 NucSpn=           0           0           0           0           0           0           0           0           0           0
 AtZEff=  -0.0000000  -0.0000000  -0.0000000  -0.0000000  -0.0000000  -0.0000000  -0.0000000  -0.0000000  -0.0000000  -0.0000000
 NQMom=    0.0000000   0.0000000   0.0000000   0.0000000   0.0000000   0.0000000   0.0000000   0.0000000   0.0000000   0.0000000
 NMagM=    0.0000000   0.0000000   0.0000000   0.0000000   0.0000000   0.0000000   0.0000000   0.0000000   0.0000000   0.0000000
 AtZNuc=   6.0000000   6.0000000   6.0000000   6.0000000   8.0000000   6.0000000   6.0000000   8.0000000   6.0000000   6.0000000

  Atom        61          62          63          64          65          66          67          68          69          70
 IAtWgt=          16          12          12          16          12          12          12          19          19           1
 AtmWgt=  15.9949146  12.0000000  12.0000000  15.9949146  12.0000000  12.0000000  12.0000000  18.9984033  18.9984033   1.0078250
 NucSpn=           0           0           0           0           0           0           0           1           1           1
 AtZEff=  -0.0000000  -0.0000000  -0.0000000  -0.0000000  -0.0000000  -0.0000000  -0.0000000  -0.0000000  -0.0000000  -0.0000000
 NQMom=    0.0000000   0.0000000   0.0000000   0.0000000   0.0000000   0.0000000   0.0000000   0.0000000   0.0000000   0.0000000
 NMagM=    0.0000000   0.0000000   0.0000000   0.0000000   0.0000000   0.0000000   0.0000000   2.6288670   2.6288670   2.7928460
 AtZNuc=   8.0000000   6.0000000   6.0000000   8.0000000   6.0000000   6.0000000   6.0000000   9.0000000   9.0000000   1.0000000

  Atom        71          72          73          74          75          76          77          78          79          80
 IAtWgt=           1           1           1           1           1           1           1           1           1           1
 AtmWgt=   1.0078250   1.0078250   1.0078250   1.0078250   1.0078250   1.0078250   1.0078250   1.0078250   1.0078250   1.0078250
 NucSpn=           1           1           1           1           1           1           1           1           1           1
 AtZEff=  -0.0000000  -0.0000000  -0.0000000  -0.0000000  -0.0000000  -0.0000000  -0.0000000  -0.0000000  -0.0000000  -0.0000000
 NQMom=    0.0000000   0.0000000   0.0000000   0.0000000   0.0000000   0.0000000   0.0000000   0.0000000   0.0000000   0.0000000
 NMagM=    2.7928460   2.7928460   2.7928460   2.7928460   2.7928460   2.7928460   2.7928460   2.7928460   2.7928460   2.7928460
 AtZNuc=   1.0000000   1.0000000   1.0000000   1.0000000   1.0000000   1.0000000   1.0000000   1.0000000   1.0000000   1.0000000

  Atom        81          82          83          84          85          86          87          88          89          90
 IAtWgt=           1           1           1           1           1           1           1           1           1           1
 AtmWgt=   1.0078250   1.0078250   1.0078250   1.0078250   1.0078250   1.0078250   1.0078250   1.0078250   1.0078250   1.0078250
 NucSpn=           1           1           1           1           1           1           1           1           1           1
 AtZEff=  -0.0000000  -0.0000000  -0.0000000  -0.0000000  -0.0000000  -0.0000000  -0.0000000  -0.0000000  -0.0000000  -0.0000000
 NQMom=    0.0000000   0.0000000   0.0000000   0.0000000   0.0000000   0.0000000   0.0000000   0.0000000   0.0000000   0.0000000
 NMagM=    2.7928460   2.7928460   2.7928460   2.7928460   2.7928460   2.7928460   2.7928460   2.7928460   2.7928460   2.7928460
 AtZNuc=   1.0000000   1.0000000   1.0000000   1.0000000   1.0000000   1.0000000   1.0000000   1.0000000   1.0000000   1.0000000

  Atom        91          92          93          94          95          96          97          98          99         100
 IAtWgt=           1           1           1           1           1           1           1           1           1           1
 AtmWgt=   1.0078250   1.0078250   1.0078250   1.0078250   1.0078250   1.0078250   1.0078250   1.0078250   1.0078250   1.0078250
 NucSpn=           1           1           1           1           1           1           1           1           1           1
 AtZEff=  -0.0000000  -0.0000000  -0.0000000  -0.0000000  -0.0000000  -0.0000000  -0.0000000  -0.0000000  -0.0000000  -0.0000000
 NQMom=    0.0000000   0.0000000   0.0000000   0.0000000   0.0000000   0.0000000   0.0000000   0.0000000   0.0000000   0.0000000
 NMagM=    2.7928460   2.7928460   2.7928460   2.7928460   2.7928460   2.7928460   2.7928460   2.7928460   2.7928460   2.7928460
 AtZNuc=   1.0000000   1.0000000   1.0000000   1.0000000   1.0000000   1.0000000   1.0000000   1.0000000   1.0000000   1.0000000

  Atom       101         102         103         104         105         106         107         108         109         110
 IAtWgt=           1           1           1           1           1           1           1           1           1           1
 AtmWgt=   1.0078250   1.0078250   1.0078250   1.0078250   1.0078250   1.0078250   1.0078250   1.0078250   1.0078250   1.0078250
 NucSpn=           1           1           1           1           1           1           1           1           1           1
 AtZEff=  -0.0000000  -0.0000000  -0.0000000  -0.0000000  -0.0000000  -0.0000000  -0.0000000  -0.0000000  -0.0000000  -0.0000000
 NQMom=    0.0000000   0.0000000   0.0000000   0.0000000   0.0000000   0.0000000   0.0000000   0.0000000   0.0000000   0.0000000
 NMagM=    2.7928460   2.7928460   2.7928460   2.7928460   2.7928460   2.7928460   2.7928460   2.7928460   2.7928460   2.7928460
 AtZNuc=   1.0000000   1.0000000   1.0000000   1.0000000   1.0000000   1.0000000   1.0000000   1.0000000   1.0000000   1.0000000

  Atom       111         112         113         114         115         116         117         118         119         120
 IAtWgt=           1           1           1           1           1           1           1           1           1           1
 AtmWgt=   1.0078250   1.0078250   1.0078250   1.0078250   1.0078250   1.0078250   1.0078250   1.0078250   1.0078250   1.0078250
 NucSpn=           1           1           1           1           1           1           1           1           1           1
 AtZEff=  -0.0000000  -0.0000000  -0.0000000  -0.0000000  -0.0000000  -0.0000000  -0.0000000  -0.0000000  -0.0000000  -0.0000000
 NQMom=    0.0000000   0.0000000   0.0000000   0.0000000   0.0000000   0.0000000   0.0000000   0.0000000   0.0000000   0.0000000
 NMagM=    2.7928460   2.7928460   2.7928460   2.7928460   2.7928460   2.7928460   2.7928460   2.7928460   2.7928460   2.7928460
 AtZNuc=   1.0000000   1.0000000   1.0000000   1.0000000   1.0000000   1.0000000   1.0000000   1.0000000   1.0000000   1.0000000

  Atom       121         122         123         124
 IAtWgt=           1           1           1           1
 AtmWgt=   1.0078250   1.0078250   1.0078250   1.0078250
 NucSpn=           1           1           1           1
 AtZEff=  -0.0000000  -0.0000000  -0.0000000  -0.0000000
 NQMom=    0.0000000   0.0000000   0.0000000   0.0000000
 NMagM=    2.7928460   2.7928460   2.7928460   2.7928460
 AtZNuc=   1.0000000   1.0000000   1.0000000   1.0000000
 Leave Link  101 at Tue Oct 28 13:53:54 2025, MaxMem= 30870077440 cpu:               4.5 elap:               0.1
 (Enter /public/software/gauss/g16/l202.exe)
 Stoichiometry    C49H55BF2N4O13(1-,2)
 Framework group  C1[X(C49H55BF2N4O13)]
 Deg. of freedom   366
 Full point group                 C1      NOp   1
 Largest Abelian subgroup         C1      NOp   1
 Largest concise Abelian subgroup C1      NOp   1
                         Standard orientation:                         
 ---------------------------------------------------------------------
 Center     Atomic      Atomic             Coordinates (Angstroms)
 Number     Number       Type             X           Y           Z
 ---------------------------------------------------------------------
      1          5           0        2.974750   -0.453589   -1.619605
      2          7           0        3.562173   -1.884617   -1.504271
      3          6           0        2.865207   -3.081394   -1.579178
      4          6           0        3.808466   -4.120540   -1.649675
      5          6           0        5.094919   -3.583318   -1.561089
      6          6           0        4.922728   -2.173259   -1.457911
      7          6           0        5.868313   -1.085825   -1.386522
      8          6           0        7.044898   -1.224621   -0.547682
      9          8           0        7.435204   -2.315684   -0.084027
     10          6           0        7.809580    0.034350   -0.074575
     11          6           0        8.256318   -0.100648    1.359975
     12          6           0        7.527052    0.338012    2.483715
     13          7           0        6.189657    0.925036    2.351022
     14          8           0        5.830478    1.743320    3.201709
     15          8           0        5.477927    0.561262    1.412568
     16          6           0        8.011108    0.244261    3.785282
     17          6           0        9.252599   -0.343335    3.976007
     18          6           0       10.016204   -0.811004    2.906487
     19          6           0        9.512070   -0.674108    1.620902
     20          7           0        9.768089   -0.468710    5.336550
     21          8           0       10.878557   -0.983517    5.492540
     22          8           0        9.072360   -0.054575    6.267857
     23          6           0        5.461645    0.177999   -1.953870
     24          7           0        4.115510    0.514633   -2.013672
     25          6           0        4.000271    1.733376   -2.666433
     26          6           0        5.283957    2.124218   -3.074999
     27          6           0        6.211771    1.170933   -2.635872
     28          6           0        7.673993    1.174289   -2.978535
     29          6           0        2.828646    2.557184   -2.838688
     30          6           0        1.636472    2.501663   -2.192191
     31          6           0        0.506600    3.404253   -2.399341
     32          6           0        0.439258    4.361998   -3.436775
     33          6           0       -0.653268    5.204690   -3.571010
     34          6           0       -1.731124    5.123169   -2.674128
     35          8           0       -2.764136    5.999502   -2.918086
     36          6           0       -3.899768    6.023563   -2.044775
     37          6           0       -3.627601    6.877326   -0.810967
     38          8           0       -4.827588    6.903805   -0.049482
     39          6           0       -4.708076    7.702580    1.125625
     40          6           0       -6.020599    7.687732    1.874998
     41          8           0       -7.007992    8.356694    1.088260
     42          6           0       -8.331948    8.272283    1.614877
     43          6           0       -8.567306    9.283135    2.742595
     44          8           0       -9.894895    9.202711    3.259474
     45          6           0      -10.859582    9.900839    2.475791
     46          6           0       -1.696904    4.179672   -1.641624
     47          6           0       -0.591617    3.337263   -1.521357
     48          6           0        6.350713   -4.393290   -1.712270
     49          6           0        1.445787   -3.317627   -1.512615
     50          6           0        0.443194   -2.490727   -1.115801
     51          6           0       -0.976815   -2.826874   -1.058186
     52          6           0       -1.884124   -1.864585   -0.562556
     53          6           0       -3.246712   -2.116109   -0.482432
     54          6           0       -3.759396   -3.352474   -0.899287
     55          8           0       -5.124458   -3.491012   -0.796684
     56          6           0       -5.752808   -4.710645   -1.210932
     57          6           0       -5.718667   -5.755152   -0.099782
     58          8           0       -6.451674   -6.878773   -0.577657
     59          6           0       -6.388821   -8.026863    0.269382
     60          6           0       -7.192327   -7.882655    1.558883
     61          8           0       -8.551509   -7.503799    1.350522
     62          6           0       -9.373790   -8.539776    0.814220
     63          6           0      -10.814657   -8.082662    0.842616
     64          8           0      -11.241975   -7.949854    2.194012
     65          6           0      -12.589423   -7.507198    2.285374
     66          6           0       -2.883330   -4.330035   -1.392084
     67          6           0       -1.519136   -4.061160   -1.469603
     68          9           0        2.387824   -0.058472   -0.389206
     69          9           0        1.991674   -0.439964   -2.618371
     70          1           0        3.559958   -5.169696   -1.752909
     71          1           0        8.712639    0.120278   -0.685729
     72          1           0        7.219312    0.935924   -0.220538
     73          1           0        7.427185    0.604404    4.620615
     74          1           0       10.983542   -1.264105    3.081387
     75          1           0       10.108570   -1.010825    0.780696
     76          1           0        5.505096    3.024117   -3.635655
     77          1           0        8.272347    1.779381   -2.287133
     78          1           0        8.094301    0.164580   -2.979144
     79          1           0        7.821099    1.596026   -3.978117
     80          1           0        2.996729    3.364887   -3.549248
     81          1           0        1.491175    1.754728   -1.418977
     82          1           0        1.248688    4.443650   -4.155430
     83          1           0       -0.697179    5.933965   -4.374031
     84          1           0       -4.704795    6.472865   -2.631114
     85          1           0       -4.206666    5.011218   -1.764727
     86          1           0       -2.801321    6.460492   -0.217344
     87          1           0       -3.338867    7.891940   -1.122669
     88          1           0       -3.918733    7.306524    1.781583
     89          1           0       -4.437776    8.734782    0.857573
     90          1           0       -6.331798    6.650824    2.068106
     91          1           0       -5.872762    8.183559    2.843774
     92          1           0       -9.003093    8.478242    0.775817
     93          1           0       -8.541901    7.256394    1.977967
     94          1           0       -7.900972    9.071886    3.584518
     95          1           0       -8.349786   10.298648    2.382105
     96          1           0      -11.814528    9.820080    3.001193
     97          1           0      -10.596318   10.963054    2.375983
     98          1           0      -10.975649    9.473179    1.472066
     99          1           0       -2.509475    4.092104   -0.930385
    100          1           0       -0.575510    2.609796   -0.713943
    101          1           0        6.770259   -4.703939   -0.750583
    102          1           0        6.132238   -5.299820   -2.286667
    103          1           0        7.134211   -3.840242   -2.236187
    104          1           0        1.195292   -4.344381   -1.774061
    105          1           0        0.688056   -1.488812   -0.781817
    106          1           0       -1.504120   -0.899708   -0.237508
    107          1           0       -3.931942   -1.364531   -0.103114
    108          1           0       -6.789840   -4.441736   -1.426200
    109          1           0       -5.303099   -5.096482   -2.130896
    110          1           0       -4.685940   -6.044688    0.139770
    111          1           0       -6.170411   -5.329184    0.805815
    112          1           0       -6.773048   -8.854187   -0.334294
    113          1           0       -5.346087   -8.259093    0.532950
    114          1           0       -7.131492   -8.832512    2.111599
    115          1           0       -6.764125   -7.100859    2.193037
    116          1           0       -9.103178   -8.770009   -0.225226
    117          1           0       -9.258032   -9.459480    1.406729
    118          1           0      -10.914441   -7.122101    0.313978
    119          1           0      -11.433486   -8.822376    0.311737
    120          1           0      -12.837214   -7.432293    3.347037
    121          1           0      -12.723148   -6.521592    1.816801
    122          1           0      -13.280593   -8.215720    1.806236
    123          1           0       -3.247946   -5.297423   -1.715687
    124          1           0       -0.868891   -4.836334   -1.862882
 ---------------------------------------------------------------------
 Rotational constants (GHZ):           0.0183086           0.0112943           0.0081479
 Leave Link  202 at Tue Oct 28 13:53:54 2025, MaxMem= 30870077440 cpu:               0.2 elap:               0.0
 (Enter /public/software/gauss/g16/l301.exe)
 Standard basis: def2TZVPP (5D, 7F)
 Ernie: Thresh=  0.10000D-02 Tol=  0.10000D-05 Strict=F.
 There are  3309 symmetry adapted cartesian basis functions of A   symmetry.
 There are  2909 symmetry adapted basis functions of A   symmetry.
  2909 basis functions,  4454 primitive gaussians,  3309 cartesian basis functions
   253 alpha electrons      252 beta electrons
       nuclear repulsion energy      9543.5425440593 Hartrees.
 IExCor= 4336 DFT=T Ex+Corr=M062X ExCW=0 ScaHFX=  0.540000
 ScaDFX=  1.000000  1.000000  1.000000  1.000000 ScalE2=  1.000000  1.000000
 IRadAn=      5 IRanWt=     -1 IRanGd=            0 ICorTp=0 IEmpDi=131
 NAtoms=  124 NActive=  124 NUniq=  124 SFac= 1.00D+00 NAtFMM=   60 NAOKFM=T Big=T
 Integral buffers will be    131072 words long.
 Raffenetti 2 integral format.
 Two-electron integral symmetry is turned on.
 R6Disp:  Grimme-D3 Dispersion energy=       -0.0102180569 Hartrees.
 Nuclear repulsion after empirical dispersion term =     9543.5323260024 Hartrees.
 ------------------------------------------------------------------------------
 Polarizable Continuum Model (PCM)
 =================================
 Model                : PCM.
 Atomic radii         : UFF (Universal Force Field).
 Polarization charges : Total charges.
 Charge compensation  : None.
 Solution method      : On-the-fly selection.
 Cavity type          : Scaled VdW (van der Waals Surface) (Alpha=1.100).
 Cavity algorithm     : GePol (No added spheres)
                        Default sphere list used, NSphG=  124.
                        Lebedev-Laikov grids with approx.  5.0 points / Ang**2.
                        Smoothing algorithm: York/Karplus (Gamma=1.0000).
                        Polarization charges: spherical gaussians, with
                                              point-specific exponents (IZeta= 3).
                        Self-potential: point-specific (ISelfS= 7).
                        Self-field    : sphere-specific E.n sum rule (ISelfD= 2).
 Solvent              : Water, Eps=  78.355300 Eps(inf)=   1.777849
 ------------------------------------------------------------------------------
 GePol: Number of generator spheres                  =     124
 GePol: Total number of spheres                      =     124
 GePol: Number of exposed spheres                    =     124 (100.00%)
 GePol: Number of points                             =    8736
 GePol: Average weight of points                     =       0.13
 GePol: Minimum weight of points                     =   0.27D-11
 GePol: Maximum weight of points                     =    0.20577
 GePol: Number of points with low weight             =     575
 GePol: Fraction of low-weight points (<1% of avg)   =       6.58%
 GePol: Cavity surface area                          =   1120.655 Ang**2
 GePol: Cavity volume                                =   1270.829 Ang**3
 Leave Link  301 at Tue Oct 28 13:53:54 2025, MaxMem= 30870077440 cpu:               5.4 elap:               0.1
 (Enter /public/software/gauss/g16/l302.exe)
 NPDir=0 NMtPBC=     1 NCelOv=     1 NCel=       1 NClECP=     1 NCelD=      1
         NCelK=      1 NCelE2=     1 NClLst=     1 CellRange=     0.0.
 One-electron integrals computed using PRISM.
 One-electron integral symmetry used in STVInt
   1 Symmetry operations used in ECPInt.
 ECPInt:  NShTT=  593505 NPrTT= 1658793 LenC2=  243479 LenP2D=  451726.
 LDataN:  DoStor=T MaxTD1= 6 Len=  172
 Number of processors reduced to  58 by ecpmxn.
 NBasis=  2909 RedAO= T EigKep=  5.47D-06  NBF=  2909
 NBsUse=  2909 1.00D-06 EigRej= -1.00D+00 NBFU=  2909
 Precomputing XC quadrature grid using
 IXCGrd= 4 IRadAn=           5 IRanWt=          -1 IRanGd=           0 AccXCQ= 0.00D+00.
 Generated NRdTot=       0 NPtTot=           0 NUsed=           0 NTot=          32
 NSgBfM=  2565  2565  2565  2565  2565 MxSgAt=   124 MxSgA2=   124.
 Leave Link  302 at Tue Oct 28 13:54:25 2025, MaxMem= 30870077440 cpu:            1957.1 elap:              30.7
 (Enter /public/software/gauss/g16/l303.exe)
 DipDrv:  MaxL=1.
 Leave Link  303 at Tue Oct 28 13:54:26 2025, MaxMem= 30870077440 cpu:              58.1 elap:               1.0
 (Enter /public/software/gauss/g16/l401.exe)
 ExpMin= 6.06D-02 ExpMax= 3.55D+04 ExpMxC= 1.21D+03 IAcc=3 IRadAn=         5 AccDes= 0.00D+00
 Harris functional with IExCor= 1009 and IRadAn=       5 diagonalized for initial guess.
 HarFok:  IExCor= 1009 AccDes= 0.00D+00 IRadAn=         5 IDoV= 1 UseB2=F ITyADJ=14
 ICtDFT=  3500011 ScaDFX=  1.000000  1.000000  1.000000  1.000000
 FoFCou: FMM=F IPFlag=           0 FMFlag=      100000 FMFlg1=        2001
         NFxFlg=           0 DoJE=T BraDBF=F KetDBF=T FulRan=T
         wScrn=  0.000000 ICntrl=       500 IOpCl=  0 I1Cent=   200000004 NGrid=           0
         NMat0=    1 NMatS0=      1 NMatT0=    0 NMatD0=    1 NMtDS0=    0 NMtDT0=    0
 Petite list used in FoFCou.
 Harris En= -3320.20680246406    
 JPrj=0 DoOrth=F DoCkMO=F.
 Initial guess <Sx>= 0.0000 <Sy>= 0.0000 <Sz>= 0.5000 <S**2>= 0.7500 S= 0.5000
 Leave Link  401 at Tue Oct 28 13:54:51 2025, MaxMem= 30870077440 cpu:            1572.1 elap:              24.7
 (Enter /public/software/gauss/g16/l502.exe)
 Integral symmetry usage will be decided dynamically.
 UHF open shell SCF:
 Using DIIS extrapolation, IDIIS=  1040.
 NGot= 30870077440 LenX= 30847938834 LenY= 30836986044
 Requested convergence on RMS density matrix=1.00D-08 within 128 cycles.
 Requested convergence on MAX density matrix=1.00D-06.
 Requested convergence on             energy=1.00D-06.
 No special actions if energy rises.
 Fock matrices will be formed incrementally for  20 cycles.

 Cycle   1  Pass 1  IDiag  1:
 FoFJK:  IHMeth= 1 ICntrl=       0 DoSepK=F KAlg= 0 I1Cent=           0 FoldK=F
 IRaf= 370000000 NMat=       1 IRICut=       1 DoRegI=T DoRafI=F ISym2E= 0 IDoP0=0 IntGTp=1.
 FoFCou: FMM=T IPFlag=           0 FMFlag=      100000 FMFlg1=        2001
         NFxFlg=           0 DoJE=F BraDBF=F KetDBF=F FulRan=T
         wScrn=  0.000000 ICntrl=         0 IOpCl=  1 I1Cent=           0 NGrid=           0
         NMat0=    1 NMatS0=      1 NMatT0=    0 NMatD0=    1 NMtDS0=    0 NMtDT0=    0
 Symmetry not used in FoFCou.
 FMM levels:  10  Number of levels for PrismC:   9
 Inv3:  Mode=1 IEnd=   228953088.
 Iteration    1 A*A^-1 deviation from unit magnitude is 1.83D-14 for   8729.
 Iteration    1 A*A^-1 deviation from orthogonality  is 7.66D-15 for   8051    260.
 Iteration    1 A^-1*A deviation from unit magnitude is 1.90D-14 for   2294.
 Iteration    1 A^-1*A deviation from orthogonality  is 6.51D-14 for   7438   7417.
 E= -3320.14505604640    
 DIIS: error= 1.78D-02 at cycle   1 NSaved=   1.
 NSaved= 1 IEnMin= 1 EnMin= -3320.14505604640     IErMin= 1 ErrMin= 1.78D-02
 ErrMax= 1.78D-02  0.00D+00 EMaxC= 1.00D-01 BMatC= 8.99D+00 BMatP= 8.99D+00
 IDIUse=3 WtCom= 8.22D-01 WtEn= 1.78D-01
 Coeff-Com:  0.100D+01
 Coeff-En:   0.100D+01
 Coeff:      0.100D+01
 Gap=     0.063 Goal=   None    Shift=    0.000
 Gap=     0.104 Goal=   None    Shift=    0.000
 GapD=    0.063 DampG=0.500 DampE=0.500 DampFc=0.2500 IDamp=-1.
 Damping current iteration by 2.50D-01
 RMSDP=1.44D-03 MaxDP=8.22D-01              OVMax= 2.59D-01

 Cycle   2  Pass 1  IDiag  1:
 RMSU=  3.60D-04    CP:  1.00D+00
 E= -3320.71164447352     Delta-E=       -0.566588427115 Rises=F Damp=T
 DIIS: error= 9.32D-03 at cycle   2 NSaved=   2.
 NSaved= 2 IEnMin= 2 EnMin= -3320.71164447352     IErMin= 2 ErrMin= 9.32D-03
 ErrMax= 9.32D-03  0.00D+00 EMaxC= 1.00D-01 BMatC= 3.16D+00 BMatP= 8.99D+00
 IDIUse=3 WtCom= 9.07D-01 WtEn= 9.32D-02
 Coeff-Com: -0.113D+01 0.213D+01
 Coeff-En:   0.000D+00 0.100D+01
 Coeff:     -0.102D+01 0.202D+01
 Gap=     0.126 Goal=   None    Shift=    0.000
 Gap=     0.138 Goal=   None    Shift=    0.000
 RMSDP=6.07D-04 MaxDP=2.22D-01 DE=-5.67D-01 OVMax= 1.89D-01

 Cycle   3  Pass 1  IDiag  1:
 RMSU=  4.59D-04    CP:  9.88D-01  2.10D+00
 E= -3321.73084656454     Delta-E=       -1.019202091024 Rises=F Damp=F
 DIIS: error= 5.62D-03 at cycle   3 NSaved=   3.
 NSaved= 3 IEnMin= 3 EnMin= -3321.73084656454     IErMin= 3 ErrMin= 5.62D-03
 ErrMax= 5.62D-03  0.00D+00 EMaxC= 1.00D-01 BMatC= 3.79D-01 BMatP= 3.16D+00
 IDIUse=3 WtCom= 9.44D-01 WtEn= 5.62D-02
 Coeff-Com: -0.517D+00 0.861D+00 0.655D+00
 Coeff-En:   0.000D+00 0.000D+00 0.100D+01
 Coeff:     -0.488D+00 0.813D+00 0.675D+00
 Gap=     0.118 Goal=   None    Shift=    0.000
 Gap=     0.111 Goal=   None    Shift=    0.000
 RMSDP=1.57D-04 MaxDP=8.11D-02 DE=-1.02D+00 OVMax= 5.91D-02

 Cycle   4  Pass 1  IDiag  1:
 RMSU=  1.47D-04    CP:  9.90D-01  2.18D+00  8.98D-01
 E= -3321.79016626686     Delta-E=       -0.059319702321 Rises=F Damp=F
 DIIS: error= 1.73D-03 at cycle   4 NSaved=   4.
 NSaved= 4 IEnMin= 4 EnMin= -3321.79016626686     IErMin= 4 ErrMin= 1.73D-03
 ErrMax= 1.73D-03  0.00D+00 EMaxC= 1.00D-01 BMatC= 6.35D-02 BMatP= 3.79D-01
 IDIUse=3 WtCom= 9.83D-01 WtEn= 1.73D-02
 Coeff-Com: -0.904D-01 0.136D+00 0.318D+00 0.637D+00
 Coeff-En:   0.000D+00 0.000D+00 0.117D+00 0.883D+00
 Coeff:     -0.888D-01 0.134D+00 0.315D+00 0.641D+00
 Gap=     0.117 Goal=   None    Shift=    0.000
 Gap=     0.114 Goal=   None    Shift=    0.000
 RMSDP=7.00D-05 MaxDP=4.24D-02 DE=-5.93D-02 OVMax= 2.70D-02

 Cycle   5  Pass 1  IDiag  1:
 RMSU=  4.56D-05    CP:  9.88D-01  2.11D+00  9.43D-01  7.06D-01
 E= -3321.80245948082     Delta-E=       -0.012293213957 Rises=F Damp=F
 DIIS: error= 3.13D-04 at cycle   5 NSaved=   5.
 NSaved= 5 IEnMin= 5 EnMin= -3321.80245948082     IErMin= 5 ErrMin= 3.13D-04
 ErrMax= 3.13D-04  0.00D+00 EMaxC= 1.00D-01 BMatC= 2.82D-03 BMatP= 6.35D-02
 IDIUse=3 WtCom= 9.97D-01 WtEn= 3.13D-03
 Coeff-Com: -0.204D-01 0.282D-01 0.117D+00 0.289D+00 0.586D+00
 Coeff-En:   0.000D+00 0.000D+00 0.000D+00 0.000D+00 0.100D+01
 Coeff:     -0.203D-01 0.281D-01 0.117D+00 0.288D+00 0.587D+00
 Gap=     0.119 Goal=   None    Shift=    0.000
 Gap=     0.115 Goal=   None    Shift=    0.000
 RMSDP=2.21D-05 MaxDP=1.99D-02 DE=-1.23D-02 OVMax= 7.88D-03

 Cycle   6  Pass 1  IDiag  1:
 RMSU=  1.79D-05    CP:  9.89D-01  2.14D+00  9.37D-01  7.58D-01  9.73D-01
 E= -3321.80305810352     Delta-E=       -0.000598622701 Rises=F Damp=F
 DIIS: error= 1.46D-04 at cycle   6 NSaved=   6.
 NSaved= 6 IEnMin= 6 EnMin= -3321.80305810352     IErMin= 6 ErrMin= 1.46D-04
 ErrMax= 1.46D-04  0.00D+00 EMaxC= 1.00D-01 BMatC= 4.55D-04 BMatP= 2.82D-03
 IDIUse=3 WtCom= 9.99D-01 WtEn= 1.46D-03
 Coeff-Com:  0.184D-02-0.375D-02 0.173D-01 0.604D-01 0.293D+00 0.631D+00
 Coeff-En:   0.000D+00 0.000D+00 0.000D+00 0.000D+00 0.000D+00 0.100D+01
 Coeff:      0.183D-02-0.374D-02 0.173D-01 0.603D-01 0.292D+00 0.632D+00
 Gap=     0.120 Goal=   None    Shift=    0.000
 Gap=     0.116 Goal=   None    Shift=    0.000
 RMSDP=1.01D-05 MaxDP=3.71D-03 DE=-5.99D-04 OVMax= 9.28D-03

 Cycle   7  Pass 1  IDiag  1:
 RMSU=  6.81D-06    CP:  9.89D-01  2.13D+00  9.43D-01  7.56D-01  1.10D+00
                    CP:  1.05D+00
 E= -3321.80321399334     Delta-E=       -0.000155889822 Rises=F Damp=F
 DIIS: error= 6.75D-05 at cycle   7 NSaved=   7.
 NSaved= 7 IEnMin= 7 EnMin= -3321.80321399334     IErMin= 7 ErrMin= 6.75D-05
 ErrMax= 6.75D-05  0.00D+00 EMaxC= 1.00D-01 BMatC= 7.81D-05 BMatP= 4.55D-04
 IDIUse=1 WtCom= 1.00D+00 WtEn= 0.00D+00
 Coeff-Com:  0.475D-02-0.702D-02-0.160D-01-0.332D-01-0.323D-03 0.253D+00
 Coeff-Com:  0.799D+00
 Coeff:      0.475D-02-0.702D-02-0.160D-01-0.332D-01-0.323D-03 0.253D+00
 Coeff:      0.799D+00
 Gap=     0.121 Goal=   None    Shift=    0.000
 Gap=     0.118 Goal=   None    Shift=    0.000
 RMSDP=8.39D-06 MaxDP=7.34D-03 DE=-1.56D-04 OVMax= 6.95D-03

 Cycle   8  Pass 1  IDiag  1:
 RMSU=  4.51D-06    CP:  9.89D-01  2.13D+00  9.47D-01  7.73D-01  1.16D+00
                    CP:  1.35D+00  1.41D+00
 E= -3321.80327498402     Delta-E=       -0.000060990673 Rises=F Damp=F
 DIIS: error= 5.44D-05 at cycle   8 NSaved=   8.
 NSaved= 8 IEnMin= 8 EnMin= -3321.80327498402     IErMin= 8 ErrMin= 5.44D-05
 ErrMax= 5.44D-05  0.00D+00 EMaxC= 1.00D-01 BMatC= 2.74D-05 BMatP= 7.81D-05
 IDIUse=1 WtCom= 1.00D+00 WtEn= 0.00D+00
 Coeff-Com:  0.168D-02-0.218D-02-0.120D-01-0.328D-01-0.885D-01-0.760D-01
 Coeff-Com:  0.376D+00 0.834D+00
 Coeff:      0.168D-02-0.218D-02-0.120D-01-0.328D-01-0.885D-01-0.760D-01
 Coeff:      0.376D+00 0.834D+00
 Gap=     0.121 Goal=   None    Shift=    0.000
 Gap=     0.119 Goal=   None    Shift=    0.000
 RMSDP=5.68D-06 MaxDP=4.06D-03 DE=-6.10D-05 OVMax= 5.74D-03

 Cycle   9  Pass 1  IDiag  1:
 RMSU=  1.88D-06    CP:  9.89D-01  2.13D+00  9.49D-01  7.80D-01  1.20D+00
                    CP:  1.51D+00  1.88D+00  1.44D+00
 E= -3321.80330262294     Delta-E=       -0.000027638920 Rises=F Damp=F
 DIIS: error= 4.19D-05 at cycle   9 NSaved=   9.
 NSaved= 9 IEnMin= 9 EnMin= -3321.80330262294     IErMin= 9 ErrMin= 4.19D-05
 ErrMax= 4.19D-05  0.00D+00 EMaxC= 1.00D-01 BMatC= 8.89D-06 BMatP= 2.74D-05
 IDIUse=1 WtCom= 1.00D+00 WtEn= 0.00D+00
 Coeff-Com: -0.616D-03 0.105D-02-0.418D-03-0.498D-02-0.427D-01-0.115D+00
 Coeff-Com: -0.649D-01 0.392D+00 0.835D+00
 Coeff:     -0.616D-03 0.105D-02-0.418D-03-0.498D-02-0.427D-01-0.115D+00
 Coeff:     -0.649D-01 0.392D+00 0.835D+00
 Gap=     0.121 Goal=   None    Shift=    0.000
 Gap=     0.119 Goal=   None    Shift=    0.000
 RMSDP=3.61D-06 MaxDP=2.67D-03 DE=-2.76D-05 OVMax= 3.43D-03

 Cycle  10  Pass 1  IDiag  1:
 RMSU=  1.13D-06    CP:  9.89D-01  2.13D+00  9.51D-01  7.83D-01  1.21D+00
                    CP:  1.60D+00  2.16D+00  1.87D+00  1.29D+00
 E= -3321.80331148000     Delta-E=       -0.000008857069 Rises=F Damp=F
 DIIS: error= 2.96D-05 at cycle  10 NSaved=  10.
 NSaved=10 IEnMin=10 EnMin= -3321.80331148000     IErMin=10 ErrMin= 2.96D-05
 ErrMax= 2.96D-05  0.00D+00 EMaxC= 1.00D-01 BMatC= 3.63D-06 BMatP= 8.89D-06
 IDIUse=1 WtCom= 1.00D+00 WtEn= 0.00D+00
 Coeff-Com: -0.101D-02 0.147D-02 0.448D-02 0.999D-02 0.846D-02-0.392D-01
 Coeff-Com: -0.185D+00-0.924D-01 0.519D+00 0.774D+00
 Coeff:     -0.101D-02 0.147D-02 0.448D-02 0.999D-02 0.846D-02-0.392D-01
 Coeff:     -0.185D+00-0.924D-01 0.519D+00 0.774D+00
 Gap=     0.121 Goal=   None    Shift=    0.000
 Gap=     0.119 Goal=   None    Shift=    0.000
 RMSDP=2.09D-06 MaxDP=1.51D-03 DE=-8.86D-06 OVMax= 1.79D-03

 Cycle  11  Pass 1  IDiag  1:
 RMSU=  5.78D-07    CP:  9.89D-01  2.13D+00  9.52D-01  7.85D-01  1.22D+00
                    CP:  1.64D+00  2.31D+00  2.12D+00  1.72D+00  1.32D+00
 E= -3321.80331409514     Delta-E=       -0.000002615132 Rises=F Damp=F
 DIIS: error= 7.85D-06 at cycle  11 NSaved=  11.
 NSaved=11 IEnMin=11 EnMin= -3321.80331409514     IErMin=11 ErrMin= 7.85D-06
 ErrMax= 7.85D-06  0.00D+00 EMaxC= 1.00D-01 BMatC= 4.95D-07 BMatP= 3.63D-06
 IDIUse=1 WtCom= 1.00D+00 WtEn= 0.00D+00
 Coeff-Com: -0.273D-03 0.371D-03 0.180D-02 0.501D-02 0.117D-01 0.631D-02
 Coeff-Com: -0.589D-01-0.114D+00 0.455D-01 0.311D+00 0.791D+00
 Coeff:     -0.273D-03 0.371D-03 0.180D-02 0.501D-02 0.117D-01 0.631D-02
 Coeff:     -0.589D-01-0.114D+00 0.455D-01 0.311D+00 0.791D+00
 Gap=     0.121 Goal=   None    Shift=    0.000
 Gap=     0.119 Goal=   None    Shift=    0.000
 RMSDP=7.16D-07 MaxDP=2.61D-04 DE=-2.62D-06 OVMax= 4.00D-04

 Cycle  12  Pass 1  IDiag  1:
 RMSU=  2.66D-07    CP:  9.89D-01  2.13D+00  9.52D-01  7.84D-01  1.22D+00
                    CP:  1.64D+00  2.35D+00  2.19D+00  1.84D+00  1.62D+00
                    CP:  1.35D+00
 E= -3321.80331443761     Delta-E=       -0.000000342470 Rises=F Damp=F
 DIIS: error= 2.78D-06 at cycle  12 NSaved=  12.
 NSaved=12 IEnMin=12 EnMin= -3321.80331443761     IErMin=12 ErrMin= 2.78D-06
 ErrMax= 2.78D-06  0.00D+00 EMaxC= 1.00D-01 BMatC= 1.01D-07 BMatP= 4.95D-07
 IDIUse=1 WtCom= 1.00D+00 WtEn= 0.00D+00
 Coeff-Com:  0.984D-04-0.151D-03-0.244D-03-0.184D-03 0.248D-02 0.853D-02
 Coeff-Com:  0.159D-01-0.201D-01-0.884D-01-0.497D-01 0.291D+00 0.840D+00
 Coeff:      0.984D-04-0.151D-03-0.244D-03-0.184D-03 0.248D-02 0.853D-02
 Coeff:      0.159D-01-0.201D-01-0.884D-01-0.497D-01 0.291D+00 0.840D+00
 Gap=     0.121 Goal=   None    Shift=    0.000
 Gap=     0.119 Goal=   None    Shift=    0.000
 RMSDP=3.49D-07 MaxDP=1.36D-04 DE=-3.42D-07 OVMax= 1.90D-04

 Cycle  13  Pass 1  IDiag  1:
 RMSU=  1.21D-07    CP:  9.89D-01  2.13D+00  9.52D-01  7.84D-01  1.22D+00
                    CP:  1.63D+00  2.36D+00  2.20D+00  1.90D+00  1.76D+00
                    CP:  1.63D+00  1.45D+00
 E= -3321.80331451932     Delta-E=       -0.000000081709 Rises=F Damp=F
 DIIS: error= 1.36D-06 at cycle  13 NSaved=  13.
 NSaved=13 IEnMin=13 EnMin= -3321.80331451932     IErMin=13 ErrMin= 1.36D-06
 ErrMax= 1.36D-06  0.00D+00 EMaxC= 1.00D-01 BMatC= 2.69D-08 BMatP= 1.01D-07
 IDIUse=1 WtCom= 1.00D+00 WtEn= 0.00D+00
 Coeff-Com:  0.984D-04-0.140D-03-0.499D-03-0.122D-02-0.145D-02 0.175D-02
 Coeff-Com:  0.200D-01 0.180D-01-0.456D-01-0.896D-01-0.621D-01 0.336D+00
 Coeff-Com:  0.825D+00
 Coeff:      0.984D-04-0.140D-03-0.499D-03-0.122D-02-0.145D-02 0.175D-02
 Coeff:      0.200D-01 0.180D-01-0.456D-01-0.896D-01-0.621D-01 0.336D+00
 Coeff:      0.825D+00
 Gap=     0.121 Goal=   None    Shift=    0.000
 Gap=     0.119 Goal=   None    Shift=    0.000
 RMSDP=2.07D-07 MaxDP=1.59D-04 DE=-8.17D-08 OVMax= 1.11D-04

 Cycle  14  Pass 1  IDiag  1:
 RMSU=  6.25D-08    CP:  9.89D-01  2.13D+00  9.52D-01  7.84D-01  1.22D+00
                    CP:  1.63D+00  2.36D+00  2.19D+00  1.91D+00  1.82D+00
                    CP:  1.78D+00  1.81D+00  1.42D+00
 E= -3321.80331454195     Delta-E=       -0.000000022634 Rises=F Damp=F
 DIIS: error= 9.32D-07 at cycle  14 NSaved=  14.
 NSaved=14 IEnMin=14 EnMin= -3321.80331454195     IErMin=14 ErrMin= 9.32D-07
 ErrMax= 9.32D-07  0.00D+00 EMaxC= 1.00D-01 BMatC= 6.96D-09 BMatP= 2.69D-08
 IDIUse=1 WtCom= 1.00D+00 WtEn= 0.00D+00
 Coeff-Com:  0.176D-04-0.232D-04-0.134D-03-0.438D-03-0.103D-02-0.128D-02
 Coeff-Com:  0.460D-02 0.112D-01 0.116D-02-0.230D-01-0.886D-01-0.512D-01
 Coeff-Com:  0.325D+00 0.824D+00
 Coeff:      0.176D-04-0.232D-04-0.134D-03-0.438D-03-0.103D-02-0.128D-02
 Coeff:      0.460D-02 0.112D-01 0.116D-02-0.230D-01-0.886D-01-0.512D-01
 Coeff:      0.325D+00 0.824D+00
 Gap=     0.121 Goal=   None    Shift=    0.000
 Gap=     0.119 Goal=   None    Shift=    0.000
 RMSDP=1.12D-07 MaxDP=1.07D-04 DE=-2.26D-08 OVMax= 5.84D-05

 Cycle  15  Pass 1  IDiag  1:
 RMSU=  3.34D-08    CP:  9.89D-01  2.13D+00  9.52D-01  7.84D-01  1.22D+00
                    CP:  1.63D+00  2.36D+00  2.19D+00  1.92D+00  1.84D+00
                    CP:  1.84D+00  1.99D+00  1.78D+00  1.34D+00
 E= -3321.80331454859     Delta-E=       -0.000000006641 Rises=F Damp=F
 DIIS: error= 7.79D-07 at cycle  15 NSaved=  15.
 NSaved=15 IEnMin=15 EnMin= -3321.80331454859     IErMin=15 ErrMin= 7.79D-07
 ErrMax= 7.79D-07  0.00D+00 EMaxC= 1.00D-01 BMatC= 3.25D-09 BMatP= 6.96D-09
 IDIUse=1 WtCom= 1.00D+00 WtEn= 0.00D+00
 Coeff-Com: -0.179D-04 0.267D-04 0.720D-04 0.987D-04-0.167D-03-0.138D-02
 Coeff-Com: -0.326D-02 0.836D-03 0.142D-01 0.144D-01-0.329D-01-0.127D+00
 Coeff-Com: -0.549D-01 0.483D+00 0.707D+00
 Coeff:     -0.179D-04 0.267D-04 0.720D-04 0.987D-04-0.167D-03-0.138D-02
 Coeff:     -0.326D-02 0.836D-03 0.142D-01 0.144D-01-0.329D-01-0.127D+00
 Coeff:     -0.549D-01 0.483D+00 0.707D+00
 Gap=     0.121 Goal=   None    Shift=    0.000
 Gap=     0.119 Goal=   None    Shift=    0.000
 RMSDP=5.35D-08 MaxDP=4.92D-05 DE=-6.64D-09 OVMax= 3.38D-05

 Cycle  16  Pass 1  IDiag  1:
 RMSU=  1.88D-08    CP:  9.89D-01  2.13D+00  9.52D-01  7.84D-01  1.22D+00
                    CP:  1.63D+00  2.36D+00  2.18D+00  1.92D+00  1.84D+00
                    CP:  1.86D+00  2.08D+00  1.96D+00  1.68D+00  1.25D+00
 E= -3321.80331455110     Delta-E=       -0.000000002514 Rises=F Damp=F
 DIIS: error= 5.24D-07 at cycle  16 NSaved=  16.
 NSaved=16 IEnMin=16 EnMin= -3321.80331455110     IErMin=16 ErrMin= 5.24D-07
 ErrMax= 5.24D-07  0.00D+00 EMaxC= 1.00D-01 BMatC= 8.74D-10 BMatP= 3.25D-09
 IDIUse=1 WtCom= 1.00D+00 WtEn= 0.00D+00
 Coeff-Com: -0.121D-04 0.172D-04 0.740D-04 0.180D-03 0.267D-03-0.212D-03
 Coeff-Com: -0.286D-02-0.357D-02 0.568D-02 0.146D-01 0.155D-01-0.384D-01
 Coeff-Com: -0.135D+00-0.661D-01 0.330D+00 0.880D+00
 Coeff:     -0.121D-04 0.172D-04 0.740D-04 0.180D-03 0.267D-03-0.212D-03
 Coeff:     -0.286D-02-0.357D-02 0.568D-02 0.146D-01 0.155D-01-0.384D-01
 Coeff:     -0.135D+00-0.661D-01 0.330D+00 0.880D+00
 Gap=     0.121 Goal=   None    Shift=    0.000
 Gap=     0.119 Goal=   None    Shift=    0.000
 RMSDP=3.27D-08 MaxDP=3.04D-05 DE=-2.51D-09 OVMax= 2.33D-05

 Cycle  17  Pass 1  IDiag  1:
 RMSU=  1.02D-08    CP:  9.89D-01  2.13D+00  9.52D-01  7.84D-01  1.22D+00
                    CP:  1.63D+00  2.36D+00  2.18D+00  1.91D+00  1.85D+00
                    CP:  1.87D+00  2.12D+00  2.07D+00  1.89D+00  1.69D+00
                    CP:  1.36D+00
 E= -3321.80331455243     Delta-E=       -0.000000001330 Rises=F Damp=F
 DIIS: error= 3.81D-07 at cycle  17 NSaved=  17.
 NSaved=17 IEnMin=17 EnMin= -3321.80331455243     IErMin=17 ErrMin= 3.81D-07
 ErrMax= 3.81D-07  0.00D+00 EMaxC= 1.00D-01 BMatC= 2.68D-10 BMatP= 8.74D-10
 IDIUse=1 WtCom= 1.00D+00 WtEn= 0.00D+00
 Coeff-Com:  0.183D-05-0.279D-05 0.232D-06 0.259D-04 0.140D-03 0.363D-03
 Coeff-Com:  0.194D-03-0.136D-02-0.280D-02 0.312D-04 0.151D-01 0.291D-01
 Coeff-Com: -0.228D-01-0.171D+00-0.116D+00 0.267D+00 0.100D+01
 Coeff:      0.183D-05-0.279D-05 0.232D-06 0.259D-04 0.140D-03 0.363D-03
 Coeff:      0.194D-03-0.136D-02-0.280D-02 0.312D-04 0.151D-01 0.291D-01
 Coeff:     -0.228D-01-0.171D+00-0.116D+00 0.267D+00 0.100D+01
 Gap=     0.121 Goal=   None    Shift=    0.000
 Gap=     0.119 Goal=   None    Shift=    0.000
 RMSDP=1.84D-08 MaxDP=1.12D-05 DE=-1.33D-09 OVMax= 1.50D-05

 Cycle  18  Pass 1  IDiag  1:
 RMSU=  6.11D-09    CP:  9.89D-01  2.13D+00  9.52D-01  7.84D-01  1.22D+00
                    CP:  1.63D+00  2.36D+00  2.18D+00  1.91D+00  1.85D+00
                    CP:  1.87D+00  2.12D+00  2.10D+00  1.98D+00  1.92D+00
                    CP:  1.83D+00  1.80D+00
 E= -3321.80331455337     Delta-E=       -0.000000000939 Rises=F Damp=F
 DIIS: error= 3.07D-07 at cycle  18 NSaved=  18.
 NSaved=18 IEnMin=18 EnMin= -3321.80331455337     IErMin=18 ErrMin= 3.07D-07
 ErrMax= 3.07D-07  0.00D+00 EMaxC= 1.00D-01 BMatC= 1.21D-10 BMatP= 2.68D-10
 IDIUse=1 WtCom= 1.00D+00 WtEn= 0.00D+00
 Coeff-Com:  0.480D-05-0.698D-05-0.288D-04-0.585D-04-0.566D-04 0.203D-03
 Coeff-Com:  0.113D-02 0.896D-03-0.331D-02-0.586D-02-0.290D-03 0.270D-01
 Coeff-Com:  0.464D-01-0.393D-01-0.179D+00-0.247D+00 0.395D+00 0.100D+01
 Coeff:      0.480D-05-0.698D-05-0.288D-04-0.585D-04-0.566D-04 0.203D-03
 Coeff:      0.113D-02 0.896D-03-0.331D-02-0.586D-02-0.290D-03 0.270D-01
 Coeff:      0.464D-01-0.393D-01-0.179D+00-0.247D+00 0.395D+00 0.100D+01
 Gap=     0.121 Goal=   None    Shift=    0.000
 Gap=     0.119 Goal=   None    Shift=    0.000
 RMSDP=1.30D-08 MaxDP=2.20D-06 DE=-9.39D-10 OVMax= 1.26D-05

 Cycle  19  Pass 1  IDiag  1:
 RMSU=  4.02D-09    CP:  9.89D-01  2.13D+00  9.52D-01  7.84D-01  1.22D+00
                    CP:  1.63D+00  2.36D+00  2.18D+00  1.91D+00  1.85D+00
                    CP:  1.87D+00  2.12D+00  2.12D+00  2.02D+00  2.06D+00
                    CP:  2.14D+00  2.56D+00  1.79D+00
 E= -3321.80331455249     Delta-E=        0.000000000884 Rises=F Damp=F
 DIIS: error= 2.38D-07 at cycle  19 NSaved=  19.
 NSaved=19 IEnMin=18 EnMin= -3321.80331455337     IErMin=19 ErrMin= 2.38D-07
 ErrMax= 2.38D-07  0.00D+00 EMaxC= 1.00D-01 BMatC= 5.21D-11 BMatP= 1.21D-10
 IDIUse=1 WtCom= 1.00D+00 WtEn= 0.00D+00
 Coeff-Com:  0.704D-06-0.104D-05-0.100D-04-0.279D-04-0.680D-04-0.458D-04
 Coeff-Com:  0.304D-03 0.836D-03-0.829D-04-0.211D-02-0.542D-02-0.170D-02
 Coeff-Com:  0.234D-01 0.495D-01-0.159D-01-0.178D+00-0.256D+00 0.331D+00
 Coeff-Com:  0.105D+01
 Coeff:      0.704D-06-0.104D-05-0.100D-04-0.279D-04-0.680D-04-0.458D-04
 Coeff:      0.304D-03 0.836D-03-0.829D-04-0.211D-02-0.542D-02-0.170D-02
 Coeff:      0.234D-01 0.495D-01-0.159D-01-0.178D+00-0.256D+00 0.331D+00
 Coeff:      0.105D+01
 Gap=     0.121 Goal=   None    Shift=    0.000
 Gap=     0.119 Goal=   None    Shift=    0.000
 RMSDP=9.99D-09 MaxDP=2.17D-06 DE= 8.84D-10 OVMax= 1.03D-05

 Cycle  20  Pass 1  IDiag  1:
 RMSU=  2.56D-09    CP:  9.89D-01  2.13D+00  9.52D-01  7.84D-01  1.22D+00
                    CP:  1.63D+00  2.36D+00  2.18D+00  1.91D+00  1.85D+00
                    CP:  1.87D+00  2.12D+00  2.12D+00  2.04D+00  2.12D+00
                    CP:  2.32D+00  3.00D+00  2.67D+00  1.88D+00
 E= -3321.80331455321     Delta-E=       -0.000000000719 Rises=F Damp=F
 DIIS: error= 1.81D-07 at cycle  20 NSaved=  20.
 NSaved=20 IEnMin=18 EnMin= -3321.80331455337     IErMin=20 ErrMin= 1.81D-07
 ErrMax= 1.81D-07  0.00D+00 EMaxC= 1.00D-01 BMatC= 2.60D-11 BMatP= 5.21D-11
 IDIUse=1 WtCom= 1.00D+00 WtEn= 0.00D+00
 Coeff-Com: -0.239D-05 0.344D-05 0.110D-04 0.190D-04-0.178D-05-0.129D-03
 Coeff-Com: -0.502D-03-0.865D-04 0.176D-02 0.213D-02-0.203D-02-0.149D-01
 Coeff-Com: -0.148D-01 0.411D-01 0.875D-01 0.574D-01-0.321D+00-0.384D+00
 Coeff-Com:  0.455D+00 0.109D+01
 Coeff:     -0.239D-05 0.344D-05 0.110D-04 0.190D-04-0.178D-05-0.129D-03
 Coeff:     -0.502D-03-0.865D-04 0.176D-02 0.213D-02-0.203D-02-0.149D-01
 Coeff:     -0.148D-01 0.411D-01 0.875D-01 0.574D-01-0.321D+00-0.384D+00
 Coeff:      0.455D+00 0.109D+01
 Gap=     0.121 Goal=   None    Shift=    0.000
 Gap=     0.119 Goal=   None    Shift=    0.000
 RMSDP=8.55D-09 MaxDP=1.61D-06 DE=-7.19D-10 OVMax= 9.20D-06

 Cycle  21  Pass 1  IDiag  1:
 Restarting incremental Fock formation.
 E= -3321.80331455332     Delta-E=       -0.000000000116 Rises=F Damp=F
 DIIS: error= 1.25D-07 at cycle  21 NSaved=  20.
 NSaved=20 IEnMin=17 EnMin= -3321.80331455337     IErMin=20 ErrMin= 1.25D-07
 ErrMax= 1.25D-07  0.00D+00 EMaxC= 1.00D-01 BMatC= 1.10D-11 BMatP= 2.60D-11
 IDIUse=1 WtCom= 1.00D+00 WtEn= 0.00D+00
 Coeff-Com:  0.355D-08 0.374D-05 0.881D-05 0.200D-04-0.898D-06-0.157D-03
 Coeff-Com: -0.292D-03 0.251D-03 0.994D-03 0.159D-02-0.170D-02-0.107D-01
 Coeff-Com: -0.999D-02 0.224D-01 0.748D-01 0.247D-01-0.202D+00-0.290D+00
 Coeff-Com:  0.237D+00 0.115D+01
 Coeff:      0.355D-08 0.374D-05 0.881D-05 0.200D-04-0.898D-06-0.157D-03
 Coeff:     -0.292D-03 0.251D-03 0.994D-03 0.159D-02-0.170D-02-0.107D-01
 Coeff:     -0.999D-02 0.224D-01 0.748D-01 0.247D-01-0.202D+00-0.290D+00
 Coeff:      0.237D+00 0.115D+01
 Gap=     0.121 Goal=   None    Shift=    0.000
 Gap=     0.119 Goal=   None    Shift=    0.000
 RMSDP=7.78D-09 MaxDP=1.12D-06 DE=-1.16D-10 OVMax= 6.37D-06

 Cycle  22  Pass 1  IDiag  1:
 RMSU=  7.78D-09    CP:  1.00D+00
 E= -3321.80331455411     Delta-E=       -0.000000000782 Rises=F Damp=F
 DIIS: error= 8.47D-08 at cycle  22 NSaved=  20.
 NSaved=20 IEnMin=20 EnMin= -3321.80331455411     IErMin=20 ErrMin= 8.47D-08
 ErrMax= 8.47D-08  0.00D+00 EMaxC= 1.00D-01 BMatC= 6.22D-12 BMatP= 1.10D-11
 IDIUse=1 WtCom= 1.00D+00 WtEn= 0.00D+00
 Coeff-Com:  0.188D-05 0.670D-05 0.278D-04 0.475D-04 0.350D-04-0.249D-03
 Coeff-Com: -0.458D-03 0.619D-04 0.217D-02 0.514D-02-0.157D-02-0.271D-01
 Coeff-Com: -0.276D-01 0.201D-01 0.185D+00 0.810D-01-0.418D+00-0.491D+00
 Coeff-Com:  0.588D+00 0.108D+01
 Coeff:      0.188D-05 0.670D-05 0.278D-04 0.475D-04 0.350D-04-0.249D-03
 Coeff:     -0.458D-03 0.619D-04 0.217D-02 0.514D-02-0.157D-02-0.271D-01
 Coeff:     -0.276D-01 0.201D-01 0.185D+00 0.810D-01-0.418D+00-0.491D+00
 Coeff:      0.588D+00 0.108D+01
 Gap=     0.121 Goal=   None    Shift=    0.000
 Gap=     0.119 Goal=   None    Shift=    0.000
 RMSDP=5.86D-09 MaxDP=1.24D-06 DE=-7.82D-10 OVMax= 6.06D-06

 Cycle  23  Pass 1  IDiag  1:
 RMSU=  2.12D-09    CP:  1.00D+00  1.70D+00
 E= -3321.80331455310     Delta-E=        0.000000001008 Rises=F Damp=F
 DIIS: error= 4.62D-08 at cycle  23 NSaved=  20.
 NSaved=20 IEnMin=19 EnMin= -3321.80331455411     IErMin=20 ErrMin= 4.62D-08
 ErrMax= 4.62D-08  0.00D+00 EMaxC= 1.00D-01 BMatC= 2.19D-12 BMatP= 6.22D-12
 IDIUse=1 WtCom= 1.00D+00 WtEn= 0.00D+00
 Coeff-Com:  0.132D-05 0.857D-05 0.180D-04 0.496D-04-0.324D-04-0.221D-03
 Coeff-Com: -0.193D-03 0.269D-03 0.210D-02 0.249D-02-0.594D-02-0.161D-01
 Coeff-Com: -0.178D-01 0.585D-01 0.990D-01-0.407D-01-0.253D+00-0.283D+00
 Coeff-Com:  0.368D+00 0.109D+01
 Coeff:      0.132D-05 0.857D-05 0.180D-04 0.496D-04-0.324D-04-0.221D-03
 Coeff:     -0.193D-03 0.269D-03 0.210D-02 0.249D-02-0.594D-02-0.161D-01
 Coeff:     -0.178D-01 0.585D-01 0.990D-01-0.407D-01-0.253D+00-0.283D+00
 Coeff:      0.368D+00 0.109D+01
 Gap=     0.121 Goal=   None    Shift=    0.000
 Gap=     0.119 Goal=   None    Shift=    0.000
 RMSDP=3.87D-09 MaxDP=8.64D-07 DE= 1.01D-09 OVMax= 3.70D-06

 Cycle  24  Pass 1  IDiag  1:
 RMSU=  1.60D-09    CP:  1.00D+00  1.77D+00  2.64D+00
 E= -3321.80331455368     Delta-E=       -0.000000000582 Rises=F Damp=F
 DIIS: error= 2.30D-08 at cycle  24 NSaved=  20.
 NSaved=20 IEnMin=18 EnMin= -3321.80331455411     IErMin=20 ErrMin= 2.30D-08
 ErrMax= 2.30D-08  0.00D+00 EMaxC= 1.00D-01 BMatC= 8.36D-13 BMatP= 2.19D-12
 IDIUse=1 WtCom= 1.00D+00 WtEn= 0.00D+00
 Coeff-Com: -0.350D-05-0.106D-04-0.989D-05 0.496D-04 0.998D-04-0.912D-05
 Coeff-Com: -0.589D-03-0.112D-02 0.122D-02 0.716D-02 0.362D-02-0.139D-01
 Coeff-Com: -0.415D-01 0.841D-02 0.137D+00 0.838D-01-0.343D+00-0.248D+00
 Coeff-Com:  0.413D+00 0.994D+00
 Coeff:     -0.350D-05-0.106D-04-0.989D-05 0.496D-04 0.998D-04-0.912D-05
 Coeff:     -0.589D-03-0.112D-02 0.122D-02 0.716D-02 0.362D-02-0.139D-01
 Coeff:     -0.415D-01 0.841D-02 0.137D+00 0.838D-01-0.343D+00-0.248D+00
 Coeff:      0.413D+00 0.994D+00
 Gap=     0.121 Goal=   None    Shift=    0.000
 Gap=     0.119 Goal=   None    Shift=    0.000
 RMSDP=2.39D-09 MaxDP=3.77D-07 DE=-5.82D-10 OVMax= 1.90D-06

 Error on total polarization charges =  0.03121
 SCF Done:  E(UM062X) =  -3321.80331455     A.U. after   24 cycles
            NFock= 24  Conv=0.24D-08     -V/T= 2.0053
 <Sx>= 0.0000 <Sy>= 0.0000 <Sz>= 0.5000 <S**2>= 0.7757 S= 0.5128
 <L.S>= 0.000000000000E+00
 KE= 3.304199093678D+03 PE=-2.688977601094D+04 EE= 1.072024127670D+04
 Annihilation of the first spin contaminant:
 S**2 before annihilation     0.7757,   after     0.7505
 Leave Link  502 at Tue Oct 28 15:06:21 2025, MaxMem= 30870077440 cpu:          271054.0 elap:            4290.3
 (Enter /public/software/gauss/g16/l601.exe)
 Copying SCF densities to generalized density rwf, IOpCl= 1 IROHF=0.
 Hyperfine terms turned off by default for NAtoms > 100.

 **********************************************************************

            Population analysis using the SCF density.

 **********************************************************************

 Orbital symmetries:
 Alpha Orbitals:
       Occupied  (A) (A) (A) (A) (A) (A) (A) (A) (A) (A) (A) (A)
                 (A) (A) (A) (A) (A) (A) (A) (A) (A) (A) (A) (A)
                 (A) (A) (A) (A) (A) (A) (A) (A) (A) (A) (A) (A)
                 (A) (A) (A) (A) (A) (A) (A) (A) (A) (A) (A) (A)
                 (A) (A) (A) (A) (A) (A) (A) (A) (A) (A) (A) (A)
                 (A) (A) (A) (A) (A) (A) (A) (A) (A) (A) (A) (A)
                 (A) (A) (A) (A) (A) (A) (A) (A) (A) (A) (A) (A)
                 (A) (A) (A) (A) (A) (A) (A) (A) (A) (A) (A) (A)
                 (A) (A) (A) (A) (A) (A) (A) (A) (A) (A) (A) (A)
                 (A) (A) (A) (A) (A) (A) (A) (A) (A) (A) (A) (A)
                 (A) (A) (A) (A) (A) (A) (A) (A) (A) (A) (A) (A)
                 (A) (A) (A) (A) (A) (A) (A) (A) (A) (A) (A) (A)
                 (A) (A) (A) (A) (A) (A) (A) (A) (A) (A) (A) (A)
                 (A) (A) (A) (A) (A) (A) (A) (A) (A) (A) (A) (A)
                 (A) (A) (A) (A) (A) (A) (A) (A) (A) (A) (A) (A)
                 (A) (A) (A) (A) (A) (A) (A) (A) (A) (A) (A) (A)
                 (A) (A) (A) (A) (A) (A) (A) (A) (A) (A) (A) (A)
                 (A) (A) (A) (A) (A) (A) (A) (A) (A) (A) (A) (A)
                 (A) (A) (A) (A) (A) (A) (A) (A) (A) (A) (A) (A)
                 (A) (A) (A) (A) (A) (A) (A) (A) (A) (A) (A) (A)
                 (A) (A) (A) (A) (A) (A) (A) (A) (A) (A) (A) (A)
                 (A)
       Virtual   (A) (A) (A) (A) (A) (A) (A) (A) (A) (A) (A) (A)
                 (A) (A) (A) (A) (A) (A) (A) (A) (A) (A) (A) (A)
                 (A) (A) (A) (A) (A) (A) (A) (A) (A) (A) (A) (A)
                 (A) (A) (A) (A) (A) (A) (A) (A) (A) (A) (A) (A)
                 (A) (A) (A) (A) (A) (A) (A) (A) (A) (A) (A) (A)
                 (A) (A) (A) (A) (A) (A) (A) (A) (A) (A) (A) (A)
                 (A) (A) (A) (A) (A) (A) (A) (A) (A) (A) (A) (A)
                 (A) (A) (A) (A) (A) (A) (A) (A) (A) (A) (A) (A)
                 (A) (A) (A) (A) (A) (A) (A) (A) (A) (A) (A) (A)
                 (A) (A) (A) (A) (A) (A) (A) (A) (A) (A) (A) (A)
                 (A) (A) (A) (A) (A) (A) (A) (A) (A) (A) (A) (A)
                 (A) (A) (A) (A) (A) (A) (A) (A) (A) (A) (A) (A)
                 (A) (A) (A) (A) (A) (A) (A) (A) (A) (A) (A) (A)
                 (A) (A) (A) (A) (A) (A) (A) (A) (A) (A) (A) (A)
                 (A) (A) (A) (A) (A) (A) (A) (A) (A) (A) (A) (A)
                 (A) (A) (A) (A) (A) (A) (A) (A) (A) (A) (A) (A)
                 (A) (A) (A) (A) (A) (A) (A) (A) (A) (A) (A) (A)
                 (A) (A) (A) (A) (A) (A) (A) (A) (A) (A) (A) (A)
                 (A) (A) (A) (A) (A) (A) (A) (A) (A) (A) (A) (A)
                 (A) (A) (A) (A) (A) (A) (A) (A) (A) (A) (A) (A)
                 (A) (A) (A) (A) (A) (A) (A) (A) (A) (A) (A) (A)
                 (A) (A) (A) (A) (A) (A) (A) (A) (A) (A) (A) (A)
                 (A) (A) (A) (A) (A) (A) (A) (A) (A) (A) (A) (A)
                 (A) (A) (A) (A) (A) (A) (A) (A) (A) (A) (A) (A)
                 (A) (A) (A) (A) (A) (A) (A) (A) (A) (A) (A) (A)
                 (A) (A) (A) (A) (A) (A) (A) (A) (A) (A) (A) (A)
                 (A) (A) (A) (A) (A) (A) (A) (A) (A) (A) (A) (A)
                 (A) (A) (A) (A) (A) (A) (A) (A) (A) (A) (A) (A)
                 (A) (A) (A) (A) (A) (A) (A) (A) (A) (A) (A) (A)
                 (A) (A) (A) (A) (A) (A) (A) (A) (A) (A) (A) (A)
                 (A) (A) (A) (A) (A) (A) (A) (A) (A) (A) (A) (A)
                 (A) (A) (A) (A) (A) (A) (A) (A) (A) (A) (A) (A)
                 (A) (A) (A) (A) (A) (A) (A) (A) (A) (A) (A) (A)
                 (A) (A) (A) (A) (A) (A) (A) (A) (A) (A) (A) (A)
                 (A) (A) (A) (A) (A) (A) (A) (A) (A) (A) (A) (A)
                 (A) (A) (A) (A) (A) (A) (A) (A) (A) (A) (A) (A)
                 (A) (A) (A) (A) (A) (A) (A) (A) (A) (A) (A) (A)
                 (A) (A) (A) (A) (A) (A) (A) (A) (A) (A) (A) (A)
                 (A) (A) (A) (A) (A) (A) (A) (A) (A) (A) (A) (A)
                 (A) (A) (A) (A) (A) (A) (A) (A) (A) (A) (A) (A)
                 (A) (A) (A) (A) (A) (A) (A) (A) (A) (A) (A) (A)
                 (A) (A) (A) (A) (A) (A) (A) (A) (A) (A) (A) (A)
                 (A) (A) (A) (A) (A) (A) (A) (A) (A) (A) (A) (A)
                 (A) (A) (A) (A) (A) (A) (A) (A) (A) (A) (A) (A)
                 (A) (A) (A) (A) (A) (A) (A) (A) (A) (A) (A) (A)
                 (A) (A) (A) (A) (A) (A) (A) (A) (A) (A) (A) (A)
                 (A) (A) (A) (A) (A) (A) (A) (A) (A) (A) (A) (A)
                 (A) (A) (A) (A) (A) (A) (A) (A) (A) (A) (A) (A)
                 (A) (A) (A) (A) (A) (A) (A) (A) (A) (A) (A) (A)
                 (A) (A) (A) (A) (A) (A) (A) (A) (A) (A) (A) (A)
                 (A) (A) (A) (A) (A) (A) (A) (A) (A) (A) (A) (A)
                 (A) (A) (A) (A) (A) (A) (A) (A) (A) (A) (A) (A)
                 (A) (A) (A) (A) (A) (A) (A) (A) (A) (A) (A) (A)
                 (A) (A) (A) (A) (A) (A) (A) (A) (A) (A) (A) (A)
                 (A) (A) (A) (A) (A) (A) (A) (A) (A) (A) (A) (A)
                 (A) (A) (A) (A) (A) (A) (A) (A) (A) (A) (A) (A)
                 (A) (A) (A) (A) (A) (A) (A) (A) (A) (A) (A) (A)
                 (A) (A) (A) (A) (A) (A) (A) (A) (A) (A) (A) (A)
                 (A) (A) (A) (A) (A) (A) (A) (A) (A) (A) (A) (A)
                 (A) (A) (A) (A) (A) (A) (A) (A) (A) (A) (A) (A)
                 (A) (A) (A) (A) (A) (A) (A) (A) (A) (A) (A) (A)
                 (A) (A) (A) (A) (A) (A) (A) (A) (A) (A) (A) (A)
                 (A) (A) (A) (A) (A) (A) (A) (A) (A) (A) (A) (A)
                 (A) (A) (A) (A) (A) (A) (A) (A) (A) (A) (A) (A)
                 (A) (A) (A) (A) (A) (A) (A) (A) (A) (A) (A) (A)
                 (A) (A) (A) (A) (A) (A) (A) (A) (A) (A) (A) (A)
                 (A) (A) (A) (A) (A) (A) (A) (A) (A) (A) (A) (A)
                 (A) (A) (A) (A) (A) (A) (A) (A) (A) (A) (A) (A)
                 (A) (A) (A) (A) (A) (A) (A) (A) (A) (A) (A) (A)
                 (A) (A) (A) (A) (A) (A) (A) (A) (A) (A) (A) (A)
                 (A) (A) (A) (A) (A) (A) (A) (A) (A) (A) (A) (A)
                 (A) (A) (A) (A) (A) (A) (A) (A) (A) (A) (A) (A)
                 (A) (A) (A) (A) (A) (A) (A) (A) (A) (A) (A) (A)
                 (A) (A) (A) (A) (A) (A) (A) (A) (A) (A) (A) (A)
                 (A) (A) (A) (A) (A) (A) (A) (A) (A) (A) (A) (A)
                 (A) (A) (A) (A) (A) (A) (A) (A) (A) (A) (A) (A)
                 (A) (A) (A) (A) (A) (A) (A) (A) (A) (A) (A) (A)
                 (A) (A) (A) (A) (A) (A) (A) (A) (A) (A) (A) (A)
                 (A) (A) (A) (A) (A) (A) (A) (A) (A) (A) (A) (A)
                 (A) (A) (A) (A) (A) (A) (A) (A) (A) (A) (A) (A)
                 (A) (A) (A) (A) (A) (A) (A) (A) (A) (A) (A) (A)
                 (A) (A) (A) (A) (A) (A) (A) (A) (A) (A) (A) (A)
                 (A) (A) (A) (A) (A) (A) (A) (A) (A) (A) (A) (A)
                 (A) (A) (A) (A) (A) (A) (A) (A) (A) (A) (A) (A)
                 (A) (A) (A) (A) (A) (A) (A) (A) (A) (A) (A) (A)
                 (A) (A) (A) (A) (A) (A) (A) (A) (A) (A) (A) (A)
                 (A) (A) (A) (A) (A) (A) (A) (A) (A) (A) (A) (A)
                 (A) (A) (A) (A) (A) (A) (A) (A) (A) (A) (A) (A)
                 (A) (A) (A) (A) (A) (A) (A) (A) (A) (A) (A) (A)
                 (A) (A) (A) (A) (A) (A) (A) (A) (A) (A) (A) (A)
                 (A) (A) (A) (A) (A) (A) (A) (A) (A) (A) (A) (A)
                 (A) (A) (A) (A) (A) (A) (A) (A) (A) (A) (A) (A)
                 (A) (A) (A) (A) (A) (A) (A) (A) (A) (A) (A) (A)
                 (A) (A) (A) (A) (A) (A) (A) (A) (A) (A) (A) (A)
                 (A) (A) (A) (A) (A) (A) (A) (A) (A) (A) (A) (A)
                 (A) (A) (A) (A) (A) (A) (A) (A) (A) (A) (A) (A)
                 (A) (A) (A) (A) (A) (A) (A) (A) (A) (A) (A) (A)
                 (A) (A) (A) (A) (A) (A) (A) (A) (A) (A) (A) (A)
                 (A) (A) (A) (A) (A) (A) (A) (A) (A) (A) (A) (A)
                 (A) (A) (A) (A) (A) (A) (A) (A) (A) (A) (A) (A)
                 (A) (A) (A) (A) (A) (A) (A) (A) (A) (A) (A) (A)
                 (A) (A) (A) (A) (A) (A) (A) (A) (A) (A) (A) (A)
                 (A) (A) (A) (A) (A) (A) (A) (A) (A) (A) (A) (A)
                 (A) (A) (A) (A) (A) (A) (A) (A) (A) (A) (A) (A)
                 (A) (A) (A) (A) (A) (A) (A) (A) (A) (A) (A) (A)
                 (A) (A) (A) (A) (A) (A) (A) (A) (A) (A) (A) (A)
                 (A) (A) (A) (A) (A) (A) (A) (A) (A) (A) (A) (A)
                 (A) (A) (A) (A) (A) (A) (A) (A) (A) (A) (A) (A)
                 (A) (A) (A) (A) (A) (A) (A) (A) (A) (A) (A) (A)
                 (A) (A) (A) (A) (A) (A) (A) (A) (A) (A) (A) (A)
                 (A) (A) (A) (A) (A) (A) (A) (A) (A) (A) (A) (A)
                 (A) (A) (A) (A) (A) (A) (A) (A) (A) (A) (A) (A)
                 (A) (A) (A) (A) (A) (A) (A) (A) (A) (A) (A) (A)
                 (A) (A) (A) (A) (A) (A) (A) (A) (A) (A) (A) (A)
                 (A) (A) (A) (A) (A) (A) (A) (A) (A) (A) (A) (A)
                 (A) (A) (A) (A) (A) (A) (A) (A) (A) (A) (A) (A)
                 (A) (A) (A) (A) (A) (A) (A) (A) (A) (A) (A) (A)
                 (A) (A) (A) (A) (A) (A) (A) (A) (A) (A) (A) (A)
                 (A) (A) (A) (A) (A) (A) (A) (A) (A) (A) (A) (A)
                 (A) (A) (A) (A) (A) (A) (A) (A) (A) (A) (A) (A)
                 (A) (A) (A) (A) (A) (A) (A) (A) (A) (A) (A) (A)
                 (A) (A) (A) (A) (A) (A) (A) (A) (A) (A) (A) (A)
                 (A) (A) (A) (A) (A) (A) (A) (A) (A) (A) (A) (A)
                 (A) (A) (A) (A) (A) (A) (A) (A) (A) (A) (A) (A)
                 (A) (A) (A) (A) (A) (A) (A) (A) (A) (A) (A) (A)
                 (A) (A) (A) (A) (A) (A) (A) (A) (A) (A) (A) (A)
                 (A) (A) (A) (A) (A) (A) (A) (A) (A) (A) (A) (A)
                 (A) (A) (A) (A) (A) (A) (A) (A) (A) (A) (A) (A)
                 (A) (A) (A) (A) (A) (A) (A) (A) (A) (A) (A) (A)
                 (A) (A) (A) (A) (A) (A) (A) (A) (A) (A) (A) (A)
                 (A) (A) (A) (A) (A) (A) (A) (A) (A) (A) (A) (A)
                 (A) (A) (A) (A) (A) (A) (A) (A) (A) (A) (A) (A)
                 (A) (A) (A) (A) (A) (A) (A) (A) (A) (A) (A) (A)
                 (A) (A) (A) (A) (A) (A) (A) (A) (A) (A) (A) (A)
                 (A) (A) (A) (A) (A) (A) (A) (A) (A) (A) (A) (A)
                 (A) (A) (A) (A) (A) (A) (A) (A) (A) (A) (A) (A)
                 (A) (A) (A) (A) (A) (A) (A) (A) (A) (A) (A) (A)
                 (A) (A) (A) (A) (A) (A) (A) (A) (A) (A) (A) (A)
                 (A) (A) (A) (A) (A) (A) (A) (A) (A) (A) (A) (A)
                 (A) (A) (A) (A) (A) (A) (A) (A) (A) (A) (A) (A)
                 (A) (A) (A) (A) (A) (A) (A) (A) (A) (A) (A) (A)
                 (A) (A) (A) (A) (A) (A) (A) (A) (A) (A) (A) (A)
                 (A) (A) (A) (A) (A) (A) (A) (A) (A) (A) (A) (A)
                 (A) (A) (A) (A) (A) (A) (A) (A) (A) (A) (A) (A)
                 (A) (A) (A) (A) (A) (A) (A) (A) (A) (A) (A) (A)
                 (A) (A) (A) (A) (A) (A) (A) (A) (A) (A) (A) (A)
                 (A) (A) (A) (A) (A) (A) (A) (A) (A) (A) (A) (A)
                 (A) (A) (A) (A) (A) (A) (A) (A) (A) (A) (A) (A)
                 (A) (A) (A) (A) (A) (A) (A) (A) (A) (A) (A) (A)
                 (A) (A) (A) (A) (A) (A) (A) (A) (A) (A) (A) (A)
                 (A) (A) (A) (A) (A) (A) (A) (A) (A) (A) (A) (A)
                 (A) (A) (A) (A) (A) (A) (A) (A) (A) (A) (A) (A)
                 (A) (A) (A) (A) (A) (A) (A) (A) (A) (A) (A) (A)
                 (A) (A) (A) (A) (A) (A) (A) (A) (A) (A) (A) (A)
                 (A) (A) (A) (A) (A) (A) (A) (A) (A) (A) (A) (A)
                 (A) (A) (A) (A) (A) (A) (A) (A) (A) (A) (A) (A)
                 (A) (A) (A) (A) (A) (A) (A) (A) (A) (A) (A) (A)
                 (A) (A) (A) (A) (A) (A) (A) (A) (A) (A) (A) (A)
                 (A) (A) (A) (A) (A) (A) (A) (A) (A) (A) (A) (A)
                 (A) (A) (A) (A) (A) (A) (A) (A) (A) (A) (A) (A)
                 (A) (A) (A) (A) (A) (A) (A) (A) (A) (A) (A) (A)
                 (A) (A) (A) (A) (A) (A) (A) (A) (A) (A) (A) (A)
                 (A) (A) (A) (A) (A) (A) (A) (A) (A) (A) (A) (A)
                 (A) (A) (A) (A) (A) (A) (A) (A) (A) (A) (A) (A)
                 (A) (A) (A) (A) (A) (A) (A) (A) (A) (A) (A) (A)
                 (A) (A) (A) (A) (A) (A) (A) (A) (A) (A) (A) (A)
                 (A) (A) (A) (A) (A) (A) (A) (A) (A) (A) (A) (A)
                 (A) (A) (A) (A) (A) (A) (A) (A) (A) (A) (A) (A)
                 (A) (A) (A) (A) (A) (A) (A) (A) (A) (A) (A) (A)
                 (A) (A) (A) (A) (A) (A) (A) (A) (A) (A) (A) (A)
                 (A) (A) (A) (A) (A) (A) (A) (A) (A) (A) (A) (A)
                 (A) (A) (A) (A) (A) (A) (A) (A) (A) (A) (A) (A)
                 (A) (A) (A) (A) (A) (A) (A) (A) (A) (A) (A) (A)
                 (A) (A) (A) (A) (A) (A) (A) (A) (A) (A) (A) (A)
                 (A) (A) (A) (A) (A) (A) (A) (A) (A) (A) (A) (A)
                 (A) (A) (A) (A) (A) (A) (A) (A) (A) (A) (A) (A)
                 (A) (A) (A) (A) (A) (A) (A) (A) (A) (A) (A) (A)
                 (A) (A) (A) (A) (A) (A) (A) (A) (A) (A) (A) (A)
                 (A) (A) (A) (A) (A) (A) (A) (A) (A) (A) (A) (A)
                 (A) (A) (A) (A) (A) (A) (A) (A) (A) (A) (A) (A)
                 (A) (A) (A) (A) (A) (A) (A) (A) (A) (A) (A) (A)
                 (A) (A) (A) (A) (A) (A) (A) (A) (A) (A) (A) (A)
                 (A) (A) (A) (A) (A) (A) (A) (A) (A) (A) (A) (A)
                 (A) (A) (A) (A) (A) (A) (A) (A) (A) (A) (A) (A)
                 (A) (A) (A) (A) (A) (A) (A) (A) (A) (A) (A) (A)
                 (A) (A) (A) (A) (A) (A) (A) (A) (A) (A) (A) (A)
                 (A) (A) (A) (A) (A) (A) (A) (A) (A) (A) (A) (A)
                 (A) (A) (A) (A) (A) (A) (A) (A) (A) (A) (A) (A)
                 (A) (A) (A) (A) (A) (A) (A) (A) (A) (A) (A) (A)
                 (A) (A) (A) (A) (A) (A) (A) (A) (A) (A) (A) (A)
                 (A) (A) (A) (A) (A) (A) (A) (A) (A) (A) (A) (A)
                 (A) (A) (A) (A) (A) (A) (A) (A) (A) (A) (A) (A)
                 (A) (A) (A) (A) (A) (A) (A) (A) (A) (A) (A) (A)
                 (A) (A) (A) (A) (A) (A) (A) (A) (A) (A) (A) (A)
                 (A) (A) (A) (A) (A) (A) (A) (A) (A) (A) (A) (A)
                 (A) (A) (A) (A) (A) (A) (A) (A) (A) (A) (A) (A)
                 (A) (A) (A) (A) (A) (A) (A) (A) (A) (A) (A) (A)
                 (A) (A) (A) (A) (A) (A) (A) (A) (A) (A) (A) (A)
                 (A) (A) (A) (A) (A) (A) (A) (A) (A) (A) (A) (A)
                 (A) (A) (A) (A) (A) (A) (A) (A) (A) (A) (A) (A)
                 (A) (A) (A) (A) (A) (A) (A) (A) (A) (A) (A) (A)
                 (A) (A) (A) (A) (A) (A) (A) (A) (A) (A) (A) (A)
                 (A) (A) (A) (A) (A) (A) (A) (A) (A) (A) (A) (A)
[...]
  Beta virt. eigenvalues --    5.11894   5.12155   5.12637   5.13333   5.13670
  Beta virt. eigenvalues --    5.13759   5.13911   5.14030   5.14177   5.14328
  Beta virt. eigenvalues --    5.14567   5.14770   5.15023   5.15491   5.15713
  Beta virt. eigenvalues --    5.15934   5.16563   5.16924   5.17110   5.17533
  Beta virt. eigenvalues --    5.17960   5.18271   5.18343   5.19292   5.19663
  Beta virt. eigenvalues --    5.19758   5.19801   5.20572   5.21405   5.22257
  Beta virt. eigenvalues --    5.22819   5.23233   5.23747   5.23893   5.24087
  Beta virt. eigenvalues --    5.24608   5.25005   5.25348   5.25508   5.25759
  Beta virt. eigenvalues --    5.25800   5.26016   5.26227   5.26760   5.26919
  Beta virt. eigenvalues --    5.27146   5.27475   5.27611   5.27985   5.28218
  Beta virt. eigenvalues --    5.28695   5.29071   5.29164   5.29344   5.29644
  Beta virt. eigenvalues --    5.30073   5.30204   5.30344   5.30396   5.30566
  Beta virt. eigenvalues --    5.30789   5.30881   5.31144   5.31314   5.31384
  Beta virt. eigenvalues --    5.32472   5.32853   5.33082   5.33179   5.33485
  Beta virt. eigenvalues --    5.33571   5.34144   5.34997   5.35082   5.35304
  Beta virt. eigenvalues --    5.35401   5.35982   5.36345   5.36774   5.37251
  Beta virt. eigenvalues --    5.37318   5.37355   5.37991   5.38316   5.38586
  Beta virt. eigenvalues --    5.38650   5.38778   5.39234   5.39739   5.40175
  Beta virt. eigenvalues --    5.40252   5.40341   5.40802   5.41080   5.41214
  Beta virt. eigenvalues --    5.41571   5.42111   5.42469   5.42576   5.42974
  Beta virt. eigenvalues --    5.43180   5.43749   5.43974   5.44067   5.44602
  Beta virt. eigenvalues --    5.45480   5.45739   5.46158   5.46474   5.47354
  Beta virt. eigenvalues --    5.47699   5.48265   5.48588   5.49296   5.50047
  Beta virt. eigenvalues --    5.50127   5.50230   5.50876   5.50912   5.51167
  Beta virt. eigenvalues --    5.51598   5.51924   5.52432   5.52491   5.52809
  Beta virt. eigenvalues --    5.53067   5.54968   5.55888   5.55916   5.56366
  Beta virt. eigenvalues --    5.56556   5.57487   5.57881   5.57936   5.58145
  Beta virt. eigenvalues --    5.59099   5.59324   5.59816   5.59877   5.60306
  Beta virt. eigenvalues --    5.60581   5.60656   5.60849   5.61397   5.61448
  Beta virt. eigenvalues --    5.61466   5.61908   5.62260   5.62685   5.63276
  Beta virt. eigenvalues --    5.63669   5.63898   5.64162   5.64863   5.65107
  Beta virt. eigenvalues --    5.65141   5.65327   5.65639   5.65925   5.66155
  Beta virt. eigenvalues --    5.66963   5.67474   5.67724   5.67859   5.68114
  Beta virt. eigenvalues --    5.68477   5.68764   5.69239   5.69573   5.69612
  Beta virt. eigenvalues --    5.70070   5.70172   5.70549   5.72308   5.72783
  Beta virt. eigenvalues --    5.74807   5.75005   5.77484   5.78908   5.80037
  Beta virt. eigenvalues --    5.81726   5.82994   5.83347   5.84809   5.85103
  Beta virt. eigenvalues --    5.85590   5.86037   5.86508   5.87432   5.88046
  Beta virt. eigenvalues --    5.91737   5.91872   5.92430   5.93150   5.93741
  Beta virt. eigenvalues --    5.94145   5.96377   5.96546   5.97117   5.98215
  Beta virt. eigenvalues --    5.99083   6.00048   6.01038   6.01293   6.02294
  Beta virt. eigenvalues --    6.02909   6.03179   6.04281   6.04348   6.05438
  Beta virt. eigenvalues --    6.06222   6.06674   6.07045   6.07972   6.09353
  Beta virt. eigenvalues --    6.09506   6.11184   6.12533   6.12804   6.17235
  Beta virt. eigenvalues --    6.17708   6.21488   6.21936   6.22005   6.24258
  Beta virt. eigenvalues --    6.24506   6.25357   6.25972   6.26057   6.26394
  Beta virt. eigenvalues --    6.27403   6.27797   6.28048   6.28796   6.29024
  Beta virt. eigenvalues --    6.29499   6.30759   6.31004   6.31595   6.32424
  Beta virt. eigenvalues --    6.34621   6.35066   6.35621   6.36192   6.39988
  Beta virt. eigenvalues --    6.40882   6.43102   6.43375   6.43818   6.44213
  Beta virt. eigenvalues --    6.46018   6.46028   6.49026   6.52132   6.57877
  Beta virt. eigenvalues --    6.68853   6.69651   6.70612   6.70754   6.72079
  Beta virt. eigenvalues --    6.73331   6.74027   6.74392   6.75479   6.75585
  Beta virt. eigenvalues --    6.76314   6.77097   6.77260   6.80645   6.81917
  Beta virt. eigenvalues --    6.83035   6.83157   6.84046   6.84263   6.84320
  Beta virt. eigenvalues --    6.84551   6.85671   6.86046   6.86413   6.87539
  Beta virt. eigenvalues --    6.87693   6.88315   6.90508   6.95875   6.96006
  Beta virt. eigenvalues --    6.96574   6.97935   6.97989   6.98116   6.98711
  Beta virt. eigenvalues --    6.99147   6.99962   7.00460   7.00688   7.01867
  Beta virt. eigenvalues --    7.02129   7.02920   7.05727   7.08099   7.08543
  Beta virt. eigenvalues --    7.11271   7.12258   7.16195   7.18586   7.20617
  Beta virt. eigenvalues --    7.23437   7.24501   7.25037   7.27236   7.28579
  Beta virt. eigenvalues --    7.28685   7.28807   7.29243   7.29783   7.30664
  Beta virt. eigenvalues --    7.30871   7.33523   7.33589   7.34099   7.34646
  Beta virt. eigenvalues --    7.34727   7.34780   7.35510   7.36216   7.37119
  Beta virt. eigenvalues --    7.39694   7.39798   7.41767   7.45137   7.47459
  Beta virt. eigenvalues --    7.47586   7.47682   7.50937   8.47840   8.49687
  Beta virt. eigenvalues --    8.56016   8.64111   8.84793   8.87927   8.94064
  Beta virt. eigenvalues --    8.94404   8.97475   9.01679  15.86668  22.82015
  Beta virt. eigenvalues --   22.84110  22.85863  22.89034  22.93343  23.02186
  Beta virt. eigenvalues --   23.10840  23.11963  23.12645  23.17342  23.18430
  Beta virt. eigenvalues --   23.19036  23.24128  23.24522  23.26880  23.27981
  Beta virt. eigenvalues --   23.28324  23.28696  23.30731  23.31842  23.32998
  Beta virt. eigenvalues --   23.33746  23.35321  23.36185  23.36805  23.37461
  Beta virt. eigenvalues --   23.37919  23.38318  23.40791  23.41432  23.43009
  Beta virt. eigenvalues --   23.44449  23.45747  23.46040  23.49862  23.52645
  Beta virt. eigenvalues --   23.53356  23.54363  23.54442  23.57682  23.60867
  Beta virt. eigenvalues --   23.62562  23.69040  23.70308  23.82283  23.87701
  Beta virt. eigenvalues --   23.99682  24.09579  24.09870  32.59065  32.62240
  Beta virt. eigenvalues --   33.11886  33.25852  44.15784  44.21117  44.23255
  Beta virt. eigenvalues --   44.26578  44.27187  44.29891  44.32400  44.43985
  Beta virt. eigenvalues --   44.46569  44.46999  44.47236  44.61820  44.62605
  Beta virt. eigenvalues --   57.43879  57.56769
          Condensed to atoms (all electrons):
          Atomic-Atomic Spin Densities.
 Mulliken charges and spin densities:
               1          2
     1  B    0.350484  -0.000812
     2  N   -0.120436   0.008351
     3  C   -0.032315   0.151878
     4  C   -0.125208  -0.045225
     5  C   -0.042202   0.138600
     6  C    0.109388  -0.031460
     7  C   -0.175759   0.355400
     8  C    0.240329   0.006887
     9  O   -0.440048   0.172889
    10  C   -0.461399   0.016269
    11  C    0.121241  -0.005599
    12  C   -0.028503   0.002946
    13  N    0.477946   0.000506
    14  O   -0.352906  -0.001054
    15  O   -0.320044   0.000210
    16  C    0.012612  -0.000323
    17  C   -0.057012   0.000377
    18  C   -0.087991   0.000084
    19  C   -0.124713   0.000183
    20  N    0.498831   0.000018
    21  O   -0.361420   0.000032
    22  O   -0.363133   0.000204
    23  C    0.085511  -0.069280
    24  N   -0.117477   0.006763
    25  C   -0.051841   0.111866
    26  C   -0.115337  -0.035123
    27  C   -0.047066   0.114957
    28  C   -0.429530  -0.009200
    29  C   -0.096155  -0.055524
    30  C   -0.110738   0.078902
    31  C    0.016083  -0.019272
    32  C   -0.160814   0.019950
    33  C   -0.194432  -0.010504
    34  C    0.200391   0.020613
    35  O   -0.309718   0.002882
    36  C   -0.125882  -0.000074
    37  C   -0.068815  -0.000007
    38  O   -0.334785  -0.000004
    39  C   -0.070946   0.000012
    40  C   -0.067389   0.000001
    41  O   -0.343115  -0.000000
    42  C   -0.081399   0.000000
    43  C   -0.061460  -0.000000
    44  O   -0.360203   0.000000
    45  C   -0.194264   0.000000
    46  C   -0.164065  -0.011857
    47  C   -0.167098   0.020738
    48  C   -0.396999  -0.003674
    49  C   -0.089862  -0.078832
    50  C   -0.113105   0.110834
    51  C    0.026073  -0.026591
    52  C   -0.134211   0.026209
    53  C   -0.194250  -0.016367
    54  C    0.206925   0.029480
    55  O   -0.307906   0.004176
    56  C   -0.132432  -0.000115
    57  C   -0.073820   0.000003
    58  O   -0.337145  -0.000010
    59  C   -0.112032   0.000032
    60  C   -0.107635  -0.000015
    61  O   -0.332554  -0.000000
    62  C   -0.063091   0.000001
    63  C   -0.061022   0.000000
    64  O   -0.343243   0.000000
    65  C   -0.203028   0.000000
    66  C   -0.157870  -0.015511
    67  C   -0.209627   0.031732
    68  F   -0.359148   0.000167
    69  F   -0.342427   0.000090
    70  H    0.148890   0.000077
    71  H    0.189644  -0.003052
    72  H    0.207650  -0.003266
    73  H    0.206659  -0.000020
    74  H    0.198819   0.000012
    75  H    0.156264   0.000050
    76  H    0.152029   0.000318
    77  H    0.135277   0.004381
    78  H    0.141208  -0.001916
    79  H    0.135824   0.002559
    80  H    0.095025   0.003446
    81  H    0.098679  -0.004425
    82  H    0.148432  -0.000622
    83  H    0.153524   0.000123
    84  H    0.154459   0.000028
    85  H    0.142161   0.000147
    86  H    0.134934   0.000072
    87  H    0.125214   0.000002
    88  H    0.117290  -0.000004
    89  H    0.123300  -0.000002
    90  H    0.123067  -0.000000
    91  H    0.117276   0.000000
    92  H    0.130197   0.000000
    93  H    0.118160  -0.000000
    94  H    0.125769   0.000000
    95  H    0.116117   0.000000
    96  H    0.137019   0.000000
    97  H    0.119786  -0.000000
    98  H    0.119932  -0.000000
    99  H    0.153066   0.000146
   100  H    0.137297  -0.000525
   101  H    0.133165   0.004816
   102  H    0.116224   0.001067
   103  H    0.127642   0.001618
   104  H    0.094727   0.004876
   105  H    0.100698  -0.006573
   106  H    0.140897  -0.000672
   107  H    0.154723   0.000274
   108  H    0.155874   0.000060
   109  H    0.145587   0.000188
   110  H    0.137672   0.000077
   111  H    0.128238   0.000016
   112  H    0.144566   0.000005
   113  H    0.135272  -0.000008
   114  H    0.135484  -0.000000
   115  H    0.143291  -0.000000
   116  H    0.114499  -0.000001
   117  H    0.119571  -0.000000
   118  H    0.116906   0.000000
   119  H    0.112073  -0.000000
   120  H    0.136051   0.000000
   121  H    0.119683  -0.000000
   122  H    0.118144   0.000000
   123  H    0.147839   0.000117
   124  H    0.149423  -0.001199
 Sum of Mulliken charges =  -1.00000   1.00000
 Mulliken charges and spin densities with hydrogens summed into heavy atoms:
               1          2
     1  B    0.350484  -0.000812
     2  N   -0.120436   0.008351
     3  C   -0.032315   0.151878
     4  C    0.023682  -0.045149
     5  C   -0.042202   0.138600
     6  C    0.109388  -0.031460
     7  C   -0.175759   0.355400
     8  C    0.240329   0.006887
     9  O   -0.440048   0.172889
    10  C   -0.064105   0.009951
    11  C    0.121241  -0.005599
    12  C   -0.028503   0.002946
    13  N    0.477946   0.000506
    14  O   -0.352906  -0.001054
    15  O   -0.320044   0.000210
    16  C    0.219271  -0.000344
    17  C   -0.057012   0.000377
    18  C    0.110828   0.000096
    19  C    0.031551   0.000234
    20  N    0.498831   0.000018
    21  O   -0.361420   0.000032
    22  O   -0.363133   0.000204
    23  C    0.085511  -0.069280
    24  N   -0.117477   0.006763
    25  C   -0.051841   0.111866
    26  C    0.036692  -0.034805
    27  C   -0.047066   0.114957
    28  C   -0.017221  -0.004175
    29  C   -0.001130  -0.052078
    30  C   -0.012059   0.074477
    31  C    0.016083  -0.019272
    32  C   -0.012381   0.019327
    33  C   -0.040908  -0.010381
    34  C    0.200391   0.020613
    35  O   -0.309718   0.002882
    36  C    0.170738   0.000101
    37  C    0.191332   0.000068
    38  O   -0.334785  -0.000004
    39  C    0.169644   0.000005
    40  C    0.172954   0.000001
    41  O   -0.343115  -0.000000
    42  C    0.166958   0.000000
    43  C    0.180426  -0.000000
    44  O   -0.360203   0.000000
    45  C    0.182472   0.000000
    46  C   -0.010999  -0.011711
    47  C   -0.029801   0.020213
    48  C   -0.019968   0.003827
    49  C    0.004865  -0.073957
    50  C   -0.012408   0.104261
    51  C    0.026073  -0.026591
    52  C    0.006686   0.025537
    53  C   -0.039527  -0.016093
    54  C    0.206925   0.029480
    55  O   -0.307906   0.004176
    56  C    0.169029   0.000133
    57  C    0.192090   0.000096
    58  O   -0.337145  -0.000010
    59  C    0.167806   0.000028
    60  C    0.171141  -0.000016
    61  O   -0.332554  -0.000000
    62  C    0.170980   0.000000
    63  C    0.167957   0.000000
    64  O   -0.343243   0.000000
    65  C    0.170849   0.000000
    66  C   -0.010031  -0.015394
    67  C   -0.060204   0.030533
    68  F   -0.359148   0.000167
    69  F   -0.342427   0.000090
 Electronic spatial extent (au):  <R**2>=         130301.3535
 Charge=             -1.0000 electrons
 Dipole moment (field-independent basis, Debye):
    X=            -16.3057    Y=              1.2041    Z=              0.2546  Tot=             16.3521
 Quadrupole moment (field-independent basis, Debye-Ang):
   XX=           -450.5573   YY=           -360.1536   ZZ=           -475.6608
   XY=             38.8038   XZ=            -37.1357   YZ=             12.9808
 Traceless Quadrupole moment (field-independent basis, Debye-Ang):
   XX=            -21.7667   YY=             68.6370   ZZ=            -46.8703
   XY=             38.8038   XZ=            -37.1357   YZ=             12.9808
 Octapole moment (field-independent basis, Debye-Ang**2):
  XXX=           -951.4758  YYY=           -226.0141  ZZZ=           -183.8290  XYY=           -574.7412
  XXY=             69.5718  XXZ=           -659.0712  XZZ=           -384.8603  YZZ=             35.9686
  YYZ=              6.9178  XYZ=           -101.4529
 Hexadecapole moment (field-independent basis, Debye-Ang**3):
 XXXX=         -93803.7891 YYYY=         -50679.0149 ZZZZ=         -15569.9804 XXXY=           3592.3443
 XXXZ=          -4037.0908 YYYX=           1222.5433 YYYZ=           1091.9578 ZZZX=          -2383.7959
 ZZZY=           -164.1858 XXYY=         -22437.6126 XXZZ=         -24279.2591 YYZZ=         -12398.8851
 XXYZ=            577.0647 YYXZ=            516.9740 ZZXY=            502.0192
 N-N= 9.543532326002D+03 E-N=-2.688977600920D+04  KE= 3.304199093678D+03
 Leave Link  601 at Tue Oct 28 15:06:26 2025, MaxMem= 30870077440 cpu:             277.5 elap:               5.0
 (Enter /public/software/gauss/g16/l9999.exe)
 1\1\GINC-CU031\SP\UM062X\def2TZVPP\C49H55B1F2N4O13(1-,2)\BAIDING\28-Oc
 t-2025\0\\#p M062X/DEF2TZVPP scrf=(solvent=water) em=GD3\\Energy calcu
 lation for BE_24NO2_reduced\\-1,2\B,0,-2.97475,0.453589,-1.619605\N,0,
 -3.562173,1.884617,-1.504271\C,0,-2.865207,3.081394,-1.579178\C,0,-3.8
 08466,4.12054,-1.649675\C,0,-5.094919,3.583318,-1.561089\C,0,-4.922728
 ,2.173259,-1.457911\C,0,-5.868313,1.085825,-1.386522\C,0,-7.044898,1.2
 24621,-0.547682\O,0,-7.435204,2.315684,-0.084027\C,0,-7.80958,-0.03435
 ,-0.074575\C,0,-8.256318,0.100648,1.359975\C,0,-7.527052,-0.338012,2.4
 83715\N,0,-6.189657,-0.925036,2.351022\O,0,-5.830478,-1.74332,3.201709
 \O,0,-5.477927,-0.561262,1.412568\C,0,-8.011108,-0.244261,3.785282\C,0
 ,-9.252599,0.343335,3.976007\C,0,-10.016204,0.811004,2.906487\C,0,-9.5
 1207,0.674108,1.620902\N,0,-9.768089,0.46871,5.33655\O,0,-10.878557,0.
 983517,5.49254\O,0,-9.07236,0.054575,6.267857\C,0,-5.461645,-0.177999,
 -1.95387\N,0,-4.11551,-0.514633,-2.013672\C,0,-4.000271,-1.733376,-2.6
 66433\C,0,-5.283957,-2.124218,-3.074999\C,0,-6.211771,-1.170933,-2.635
 872\C,0,-7.673993,-1.174289,-2.978535\C,0,-2.828646,-2.557184,-2.83868
 8\C,0,-1.636472,-2.501663,-2.192191\C,0,-0.5066,-3.404253,-2.399341\C,
 0,-0.439258,-4.361998,-3.436775\C,0,0.653268,-5.20469,-3.57101\C,0,1.7
 31124,-5.123169,-2.674128\O,0,2.764136,-5.999502,-2.918086\C,0,3.89976
 8,-6.023563,-2.044775\C,0,3.627601,-6.877326,-0.810967\O,0,4.827588,-6
 .903805,-0.049482\C,0,4.708076,-7.70258,1.125625\C,0,6.020599,-7.68773
 2,1.874998\O,0,7.007992,-8.356694,1.08826\C,0,8.331948,-8.272283,1.614
 877\C,0,8.567306,-9.283135,2.742595\O,0,9.894895,-9.202711,3.259474\C,
 0,10.859582,-9.900839,2.475791\C,0,1.696904,-4.179672,-1.641624\C,0,0.
 591617,-3.337263,-1.521357\C,0,-6.350713,4.39329,-1.71227\C,0,-1.44578
 7,3.317627,-1.512615\C,0,-0.443194,2.490727,-1.115801\C,0,0.976815,2.8
 26874,-1.058186\C,0,1.884124,1.864585,-0.562556\C,0,3.246712,2.116109,
 -0.482432\C,0,3.759396,3.352474,-0.899287\O,0,5.124458,3.491012,-0.796
 684\C,0,5.752808,4.710645,-1.210932\C,0,5.718667,5.755152,-0.099782\O,
 0,6.451674,6.878773,-0.577657\C,0,6.388821,8.026863,0.269382\C,0,7.192
 327,7.882655,1.558883\O,0,8.551509,7.503799,1.350522\C,0,9.37379,8.539
 776,0.81422\C,0,10.814657,8.082662,0.842616\O,0,11.241975,7.949854,2.1
 94012\C,0,12.589423,7.507198,2.285374\C,0,2.88333,4.330035,-1.392084\C
 ,0,1.519136,4.06116,-1.469603\F,0,-2.387824,0.058472,-0.389206\F,0,-1.
 991674,0.439964,-2.618371\H,0,-3.559958,5.169696,-1.752909\H,0,-8.7126
 39,-0.120278,-0.685729\H,0,-7.219312,-0.935924,-0.220538\H,0,-7.427185
 ,-0.604404,4.620615\H,0,-10.983542,1.264105,3.081387\H,0,-10.10857,1.0
 10825,0.780696\H,0,-5.505096,-3.024117,-3.635655\H,0,-8.272347,-1.7793
 81,-2.287133\H,0,-8.094301,-0.16458,-2.979144\H,0,-7.821099,-1.596026,
 -3.978117\H,0,-2.996729,-3.364887,-3.549248\H,0,-1.491175,-1.754728,-1
 .418977\H,0,-1.248688,-4.44365,-4.15543\H,0,0.697179,-5.933965,-4.3740
 31\H,0,4.704795,-6.472865,-2.631114\H,0,4.206666,-5.011218,-1.764727\H
 ,0,2.801321,-6.460492,-0.217344\H,0,3.338867,-7.89194,-1.122669\H,0,3.
 918733,-7.306524,1.781583\H,0,4.437776,-8.734782,0.857573\H,0,6.331798
 ,-6.650824,2.068106\H,0,5.872762,-8.183559,2.843774\H,0,9.003093,-8.47
 8242,0.775817\H,0,8.541901,-7.256394,1.977967\H,0,7.900972,-9.071886,3
 .584518\H,0,8.349786,-10.298648,2.382105\H,0,11.814528,-9.82008,3.0011
 93\H,0,10.596318,-10.963054,2.375983\H,0,10.975649,-9.473179,1.472066\
 H,0,2.509475,-4.092104,-0.930385\H,0,0.57551,-2.609796,-0.713943\H,0,-
 6.770259,4.703939,-0.750583\H,0,-6.132238,5.29982,-2.286667\H,0,-7.134
 211,3.840242,-2.236187\H,0,-1.195292,4.344381,-1.774061\H,0,-0.688056,
 1.488812,-0.781817\H,0,1.50412,0.899708,-0.237508\H,0,3.931942,1.36453
 1,-0.103114\H,0,6.78984,4.441736,-1.4262\H,0,5.303099,5.096482,-2.1308
 96\H,0,4.68594,6.044688,0.13977\H,0,6.170411,5.329184,0.805815\H,0,6.7
 73048,8.854187,-0.334294\H,0,5.346087,8.259093,0.53295\H,0,7.131492,8.
 832512,2.111599\H,0,6.764125,7.100859,2.193037\H,0,9.103178,8.770009,-
 0.225226\H,0,9.258032,9.45948,1.406729\H,0,10.914441,7.122101,0.313978
 \H,0,11.433486,8.822376,0.311737\H,0,12.837214,7.432293,3.347037\H,0,1
 2.723148,6.521592,1.816801\H,0,13.280593,8.21572,1.806236\H,0,3.247946
 ,5.297423,-1.715687\H,0,0.868891,4.836334,-1.862882\\Version=ES64L-G16
 RevA.03\State=2-A\HF=-3321.8033146\S2=0.775724\S2-1=0.\S2A=0.75054\RMS
 D=2.392e-09\Dipole=6.4151464,-0.4737099,0.1001591\Quadrupole=-16.18301
 16,51.0299178,-34.8469062,28.8496824,27.6095059,-9.6508845\PG=C01 [X(C
 49H55B1F2N4O13)]\\@


 CHINESE FORTUNE COOKIE OF JAN 1 1967 SAY....
 ALL THINGS ARE DIFFICULT BEFORE THEY ARE EASY.
 WE LEARN SO LITTLE AND FORGET SO MUCH.
 YOU WILL OVERCOME OBSTACLES TO ACHIEVE SUCCESS.
 AH SO.
 Job cpu time:       3 days  4 hours 23 minutes  4.5 seconds.
 Elapsed time:       0 days  1 hours 12 minutes 32.8 seconds.
 File lengths (MBytes):  RWF=   9044 Int=      0 D2E=      0 Chk=    586 Scr=      1
 Normal termination of Gaussian 16 at Tue Oct 28 15:06:28 2025.
