 Entering Gaussian System, Link 0=g16
 Input=BE_23NO2_sp.gjf
 Output=BE_23NO2_sp.log
 Initial command:
 /public/software/gauss/g16/l1.exe "/public/home/baiding/1024_sp/tmp_BE_23NO2_sp_1526250/Gau-2911817.inp" -scrdir="/public/home/baiding/1024_sp/tmp_BE_23NO2_sp_1526250/"
 Entering Link 1 = /public/software/gauss/g16/l1.exe PID=   2911818.
  
 Copyright (c) 1988,1990,1992,1993,1995,1998,2003,2009,2016,
            Gaussian, Inc.  All Rights Reserved.
  
 This is part of the Gaussian(R) 16 program.  It is based on
 the Gaussian(R) 09 system (copyright 2009, Gaussian, Inc.),
 the Gaussian(R) 03 system (copyright 2003, Gaussian, Inc.),
 the Gaussian(R) 98 system (copyright 1998, Gaussian, Inc.),
 the Gaussian(R) 94 system (copyright 1995, Gaussian, Inc.),
 the Gaussian 92(TM) system (copyright 1992, Gaussian, Inc.),
 the Gaussian 90(TM) system (copyright 1990, Gaussian, Inc.),
 the Gaussian 88(TM) system (copyright 1988, Gaussian, Inc.),
 the Gaussian 86(TM) system (copyright 1986, Carnegie Mellon
 University), and the Gaussian 82(TM) system (copyright 1983,
 Carnegie Mellon University). Gaussian is a federally registered
 trademark of Gaussian, Inc.
  
 This software contains proprietary and confidential information,
 including trade secrets, belonging to Gaussian, Inc.
  
 This software is provided under written license and may be
 used, copied, transmitted, or stored only in accord with that
 written license.
  
 The following legend is applicable only to US Government
 contracts under FAR:
  
                    RESTRICTED RIGHTS LEGEND
  
 Use, reproduction and disclosure by the US Government is
 subject to restrictions as set forth in subparagraphs (a)
 and (c) of the Commercial Computer Software - Restricted
 Rights clause in FAR 52.227-19.
  
 Gaussian, Inc.
 340 Quinnipiac St., Bldg. 40, Wallingford CT 06492
  
  
 ---------------------------------------------------------------
 Warning -- This program may not be used in any manner that
 competes with the business of Gaussian, Inc. or will provide
 assistance to any competitor of Gaussian, Inc.  The licensee
 of this program is prohibited from giving any competitor of
 Gaussian, Inc. access to this program.  By using this program,
 the user acknowledges that Gaussian, Inc. is engaged in the
 business of creating and licensing software in the field of
 computational chemistry and represents and warrants to the
 licensee that it is not a competitor of Gaussian, Inc. and that
 it will not use this program in any manner prohibited above.
 ---------------------------------------------------------------
  

 Cite this work as:
 Gaussian 16, Revision A.03,
 M. J. Frisch, G. W. Trucks, H. B. Schlegel, G. E. Scuseria, 
 M. A. Robb, J. R. Cheeseman, G. Scalmani, V. Barone, 
 G. A. Petersson, H. Nakatsuji, X. Li, M. Caricato, A. V. Marenich, 
 J. Bloino, B. G. Janesko, R. Gomperts, B. Mennucci, H. P. Hratchian, 
 J. V. Ortiz, A. F. Izmaylov, J. L. Sonnenberg, D. Williams-Young, 
 F. Ding, F. Lipparini, F. Egidi, J. Goings, B. Peng, A. Petrone, 
 T. Henderson, D. Ranasinghe, V. G. Zakrzewski, J. Gao, N. Rega, 
 G. Zheng, W. Liang, M. Hada, M. Ehara, K. Toyota, R. Fukuda, 
 J. Hasegawa, M. Ishida, T. Nakajima, Y. Honda, O. Kitao, H. Nakai, 
 T. Vreven, K. Throssell, J. A. Montgomery, Jr., J. E. Peralta, 
 F. Ogliaro, M. J. Bearpark, J. J. Heyd, E. N. Brothers, K. N. Kudin, 
 V. N. Staroverov, T. A. Keith, R. Kobayashi, J. Normand, 
 K. Raghavachari, A. P. Rendell, J. C. Burant, S. S. Iyengar, 
 J. Tomasi, M. Cossi, J. M. Millam, M. Klene, C. Adamo, R. Cammi, 
 J. W. Ochterski, R. L. Martin, K. Morokuma, O. Farkas, 
 J. B. Foresman, and D. J. Fox, Gaussian, Inc., Wallingford CT, 2016.
 
 ******************************************
 Gaussian 16:  ES64L-G16RevA.03 25-Dec-2016
                24-Oct-2025 
 ******************************************
 %nprocshared=64
 Will use up to   64 processors via shared memory.
 %mem=230GB
 %chk=BE_23NO2_sp.chk
 ----------------------------------------------
 #p M062X/DEF2TZVPP scrf=(solvent=water) em=GD3
 ----------------------------------------------
 1/38=1,172=1/1;
 2/12=2,17=6,18=5,40=1/2;
 3/5=44,7=202,11=2,25=1,30=1,70=2201,72=1,74=-55,124=31/1,2,3;
 4//1;
 5/5=2,38=5,53=1/2;
 6/7=2,8=2,9=2,10=2,28=1/1;
 99/5=1,9=1/99;
 Leave Link    1 at Fri Oct 24 17:12:00 2025, MaxMem= 30870077440 cpu:              18.4 elap:               0.3
 (Enter /public/software/gauss/g16/l101.exe)
 -------------------------------
 Energy calculation for BE_23NO2
 -------------------------------
 Symbolic Z-matrix:
 Charge =  0 Multiplicity = 1
 B                     1.17837  -0.81873  -0.53612 
 N                     2.71447  -0.61622  -0.62455 
 C                     3.4185    0.56092  -0.59045 
 C                     4.80169   0.25124  -0.60926 
 C                     4.96207  -1.1213   -0.65195 
 C                     3.63785  -1.67044  -0.64243 
 C                     3.2063   -3.00693  -0.6444 
 C                     4.2384   -4.11401  -0.56606 
 O                     4.69662  -4.61861  -1.57655 
 C                     4.62402  -4.5426    0.8439 
 C                     5.74297  -5.54686   0.9087 
 C                     5.56479  -6.83954   0.39192 
 C                     6.59767  -7.76222   0.44997 
 C                     7.82657  -7.41806   1.03256 
 C                     8.0142   -6.1398    1.54043 
 C                     6.97656  -5.20975   1.47079 
 N                     8.89507  -8.39315   1.24735 
 O                     10.05623  -7.98695   1.19157 
 O                     8.5758   -9.55246   1.51236 
 N                     6.38142  -9.04619  -0.22463 
 O                     5.27138  -9.5661   -0.11478 
 O                     7.30378  -9.50585  -0.8966 
 C                     1.84962  -3.34405  -0.68709 
 N                     0.88704  -2.33653  -0.67284 
 C                    -0.34865  -2.91352  -0.73145 
 C                    -0.17983  -4.32337  -0.79696 
 C                     1.17135  -4.61113  -0.77357 
 C                     1.75594  -5.98697  -0.87642 
 C                    -1.5667   -2.14879  -0.73499 
 C                    -2.80268  -2.71097  -0.68316 
 C                    -4.08024  -2.01616  -0.68399 
 C                    -4.21214  -0.60796  -0.70559 
 C                    -5.45856  -0.00718  -0.70511 
 C                    -6.62753  -0.7895   -0.68252 
 O                    -7.79951  -0.0817   -0.69756 
 C                    -9.05807  -0.77073  -0.70442 
 C                    -9.48792  -1.14711   0.70927 
 O                    -10.78404  -1.72284   0.60798 
 C                    -11.30737  -2.11523   1.87674 
 C                    -12.70537  -2.68575   1.71825 
 O                    -13.71985  -1.70657   1.49432 
 C                    -13.85122  -1.26937   0.13868 
 C                    -15.10846  -0.43214  -0.01784 
 O                    -16.32536  -1.17673  -0.03046 
 C                    -16.83621  -1.50762   1.25825 
 C                    -6.52629  -2.18612  -0.65559 
 C                    -5.26516  -2.77686  -0.6571 
 C                     6.27983  -1.83023  -0.73998 
 C                     2.95382   1.92351  -0.51837 
 C                     1.70065   2.43409  -0.63924 
 C                     1.33679   3.84115  -0.53354 
 C                    -0.00644   4.20923  -0.76883 
 C                    -0.42403   5.52874  -0.68842 
 C                     0.49544   6.53738  -0.36369 
 O                    -0.02312   7.80432  -0.29684 
 C                     0.81544   8.90938   0.06892 
 C                     1.56976   9.4544   -1.13898 
 O                     2.26851   10.61297  -0.70126 
 C                     3.02434   11.22336  -1.74688 
 C                     3.72767   12.46615  -1.23197 
 O                     4.86702   12.20922  -0.41288 
 C                     4.57986   11.88656   0.94831 
 C                     5.88477   12.03952   1.72645 
 O                     5.71625   11.73772   3.1089 
 C                     5.79026   10.3449   3.40306 
 C                     1.83711   6.20118  -0.12406 
 C                     2.24052   4.87292  -0.20833 
 F                     0.6869   -0.33272   0.68104 
 F                     0.53343  -0.14886  -1.59416 
 H                     5.59228   0.98994  -0.60937 
 H                     4.86753  -3.64247   1.41702 
 H                     3.7099   -4.94569   1.30013 
 H                     4.631    -7.12486  -0.07771 
 H                     8.95568  -5.8906    2.01453 
 H                     7.1299   -4.21558   1.8767 
 H                    -0.97851  -5.04721  -0.87872 
 H                     2.3182   -6.26703   0.02095 
 H                     0.95366  -6.71783  -1.00294 
 H                     2.43462  -6.0769   -1.72965 
 H                    -1.46024  -1.07214  -0.79165 
 H                    -2.87835  -3.79543  -0.6332 
 H                    -3.33078   0.02476  -0.72077 
 H                    -5.55617   1.07349  -0.72339 
 H                    -9.77096  -0.05869  -1.12651 
 H                    -9.02323  -1.64831  -1.3567 
 H                    -8.78344  -1.8602    1.16058 
 H                    -9.50692  -0.24677   1.3405 
 H                    -10.66049  -2.88436   2.32677 
 H                    -11.33279  -1.25451   2.5613 
 H                    -12.71355  -3.43907   0.91778 
 H                    -12.96976  -3.18376   2.65673 
 H                    -12.98794  -0.65924  -0.15698 
 H                    -13.8975  -2.137    -0.53572 
 H                    -15.1407   0.34258   0.76227 
 H                    -15.05298   0.06896  -0.99032 
 H                    -16.23101  -2.26811   1.76355 
 H                    -16.89379  -0.61986   1.90351 
 H                    -17.846   -1.8997    1.10856 
 H                    -7.40755  -2.815    -0.62833 
 H                    -5.19439  -3.86093  -0.63505 
 H                     6.46711  -2.48072   0.12088 
 H                     6.34788  -2.45134  -1.63817 
 H                     7.08773  -1.09542  -0.77627 
 H                     3.77854   2.61429  -0.35928 
 H                     0.87503   1.76892  -0.85917 
 H                    -0.72944   3.43764  -1.01852 
 H                    -1.45899   5.80065  -0.8689 
 H                     0.13273   9.67325   0.44812 
 H                     1.50182   8.63327   0.87506 
 H                     2.26947   8.70755  -1.5396 
 H                     0.85516   9.70824  -1.93577 
 H                     3.76343   10.51396  -2.14786 
 H                     2.35549   11.51507  -2.57146 
 H                     4.10195   13.02022  -2.09901 
 H                     3.00968   13.1065  -0.70001 
 H                     3.82442   12.57404   1.35473 
 H                     4.189     10.86617   1.03596 
 H                     6.66419   11.40501   1.28108 
 H                     6.22077   13.0799   1.66834 
 H                     6.76058   9.92664   3.10127 
 H                     5.68047   10.24156   4.4855 
 H                     4.99386   9.7707    2.91322 
 H                     2.56887   6.96015   0.12395 
 H                     3.2828    4.64191  -0.01348 
 
 ITRead=  0  0  0  0  0  0  0  0  0  0  0  0  0  0  0  0  0  0  0  0
 ITRead=  0  0  0  0  0  0  0  0  0  0  0  0  0  0  0  0  0  0  0  0
 ITRead=  0  0  0  0  0  0  0  0  0  0  0  0  0  0  0  0  0  0  0  0
 ITRead=  0  0  0  0  0  0  0  0  0  0  0  0  0  0  0  0  0  0  0  0
 ITRead=  0  0  0  0  0  0  0  0  0  0  0  0  0  0  0  0  0  0  0  0
 ITRead=  0  0  0  0  0  0  0  0  0  0  0  0  0  0  0  0  0  0  0  0
 ITRead=  0  0  0  0
 MicOpt= -1 -1 -1 -1 -1 -1 -1 -1 -1 -1 -1 -1 -1 -1 -1 -1 -1 -1 -1 -1
 MicOpt= -1 -1 -1 -1 -1 -1 -1 -1 -1 -1 -1 -1 -1 -1 -1 -1 -1 -1 -1 -1
 MicOpt= -1 -1 -1 -1 -1 -1 -1 -1 -1 -1 -1 -1 -1 -1 -1 -1 -1 -1 -1 -1
 MicOpt= -1 -1 -1 -1 -1 -1 -1 -1 -1 -1 -1 -1 -1 -1 -1 -1 -1 -1 -1 -1
 MicOpt= -1 -1 -1 -1 -1 -1 -1 -1 -1 -1 -1 -1 -1 -1 -1 -1 -1 -1 -1 -1
 MicOpt= -1 -1 -1 -1 -1 -1 -1 -1 -1 -1 -1 -1 -1 -1 -1 -1 -1 -1 -1 -1
 MicOpt= -1 -1 -1 -1
 NAtoms=    124 NQM=      124 NQMF=       0 NMMI=      0 NMMIF=      0
                NMic=       0 NMicF=      0.
                    Isotopes and Nuclear Properties:
 (Nuclear quadrupole moments (NQMom) in fm**2, nuclear magnetic moments (NMagM)
  in nuclear magnetons)

  Atom         1           2           3           4           5           6           7           8           9          10
 IAtWgt=          11          14          12          12          12          12          12          12          16          12
 AtmWgt=  11.0093053  14.0030740  12.0000000  12.0000000  12.0000000  12.0000000  12.0000000  12.0000000  15.9949146  12.0000000
 NucSpn=           3           2           0           0           0           0           0           0           0           0
 AtZEff=  -0.0000000  -0.0000000  -0.0000000  -0.0000000  -0.0000000  -0.0000000  -0.0000000  -0.0000000  -0.0000000  -0.0000000
 NQMom=    4.0590000   2.0440000   0.0000000   0.0000000   0.0000000   0.0000000   0.0000000   0.0000000   0.0000000   0.0000000
 NMagM=    2.6886370   0.4037610   0.0000000   0.0000000   0.0000000   0.0000000   0.0000000   0.0000000   0.0000000   0.0000000
 AtZNuc=   5.0000000   7.0000000   6.0000000   6.0000000   6.0000000   6.0000000   6.0000000   6.0000000   8.0000000   6.0000000

  Atom        11          12          13          14          15          16          17          18          19          20
 IAtWgt=          12          12          12          12          12          12          14          16          16          14
 AtmWgt=  12.0000000  12.0000000  12.0000000  12.0000000  12.0000000  12.0000000  14.0030740  15.9949146  15.9949146  14.0030740
 NucSpn=           0           0           0           0           0           0           2           0           0           2
 AtZEff=  -0.0000000  -0.0000000  -0.0000000  -0.0000000  -0.0000000  -0.0000000  -0.0000000  -0.0000000  -0.0000000  -0.0000000
 NQMom=    0.0000000   0.0000000   0.0000000   0.0000000   0.0000000   0.0000000   2.0440000   0.0000000   0.0000000   2.0440000
 NMagM=    0.0000000   0.0000000   0.0000000   0.0000000   0.0000000   0.0000000   0.4037610   0.0000000   0.0000000   0.4037610
 AtZNuc=   6.0000000   6.0000000   6.0000000   6.0000000   6.0000000   6.0000000   7.0000000   8.0000000   8.0000000   7.0000000

  Atom        21          22          23          24          25          26          27          28          29          30
 IAtWgt=          16          16          12          14          12          12          12          12          12          12
 AtmWgt=  15.9949146  15.9949146  12.0000000  14.0030740  12.0000000  12.0000000  12.0000000  12.0000000  12.0000000  12.0000000
 NucSpn=           0           0           0           2           0           0           0           0           0           0
 AtZEff=  -0.0000000  -0.0000000  -0.0000000  -0.0000000  -0.0000000  -0.0000000  -0.0000000  -0.0000000  -0.0000000  -0.0000000
 NQMom=    0.0000000   0.0000000   0.0000000   2.0440000   0.0000000   0.0000000   0.0000000   0.0000000   0.0000000   0.0000000
 NMagM=    0.0000000   0.0000000   0.0000000   0.4037610   0.0000000   0.0000000   0.0000000   0.0000000   0.0000000   0.0000000
 AtZNuc=   8.0000000   8.0000000   6.0000000   7.0000000   6.0000000   6.0000000   6.0000000   6.0000000   6.0000000   6.0000000

  Atom        31          32          33          34          35          36          37          38          39          40
 IAtWgt=          12          12          12          12          16          12          12          16          12          12
 AtmWgt=  12.0000000  12.0000000  12.0000000  12.0000000  15.9949146  12.0000000  12.0000000  15.9949146  12.0000000  12.0000000
 NucSpn=           0           0           0           0           0           0           0           0           0           0
 AtZEff=  -0.0000000  -0.0000000  -0.0000000  -0.0000000  -0.0000000  -0.0000000  -0.0000000  -0.0000000  -0.0000000  -0.0000000
 NQMom=    0.0000000   0.0000000   0.0000000   0.0000000   0.0000000   0.0000000   0.0000000   0.0000000   0.0000000   0.0000000
 NMagM=    0.0000000   0.0000000   0.0000000   0.0000000   0.0000000   0.0000000   0.0000000   0.0000000   0.0000000   0.0000000
 AtZNuc=   6.0000000   6.0000000   6.0000000   6.0000000   8.0000000   6.0000000   6.0000000   8.0000000   6.0000000   6.0000000

  Atom        41          42          43          44          45          46          47          48          49          50
 IAtWgt=          16          12          12          16          12          12          12          12          12          12
 AtmWgt=  15.9949146  12.0000000  12.0000000  15.9949146  12.0000000  12.0000000  12.0000000  12.0000000  12.0000000  12.0000000
 NucSpn=           0           0           0           0           0           0           0           0           0           0
 AtZEff=  -0.0000000  -0.0000000  -0.0000000  -0.0000000  -0.0000000  -0.0000000  -0.0000000  -0.0000000  -0.0000000  -0.0000000
 NQMom=    0.0000000   0.0000000   0.0000000   0.0000000   0.0000000   0.0000000   0.0000000   0.0000000   0.0000000   0.0000000
 NMagM=    0.0000000   0.0000000   0.0000000   0.0000000   0.0000000   0.0000000   0.0000000   0.0000000   0.0000000   0.0000000
 AtZNuc=   8.0000000   6.0000000   6.0000000   8.0000000   6.0000000   6.0000000   6.0000000   6.0000000   6.0000000   6.0000000

  Atom        51          52          53          54          55          56          57          58          59          60
 IAtWgt=          12          12          12          12          16          12          12          16          12          12
 AtmWgt=  12.0000000  12.0000000  12.0000000  12.0000000  15.9949146  12.0000000  12.0000000  15.9949146  12.0000000  12.0000000
 NucSpn=           0           0           0           0           0           0           0           0           0           0
 AtZEff=  -0.0000000  -0.0000000  -0.0000000  -0.0000000  -0.0000000  -0.0000000  -0.0000000  -0.0000000  -0.0000000  -0.0000000
 NQMom=    0.0000000   0.0000000   0.0000000   0.0000000   0.0000000   0.0000000   0.0000000   0.0000000   0.0000000   0.0000000
 NMagM=    0.0000000   0.0000000   0.0000000   0.0000000   0.0000000   0.0000000   0.0000000   0.0000000   0.0000000   0.0000000
 AtZNuc=   6.0000000   6.0000000   6.0000000   6.0000000   8.0000000   6.0000000   6.0000000   8.0000000   6.0000000   6.0000000

  Atom        61          62          63          64          65          66          67          68          69          70
 IAtWgt=          16          12          12          16          12          12          12          19          19           1
 AtmWgt=  15.9949146  12.0000000  12.0000000  15.9949146  12.0000000  12.0000000  12.0000000  18.9984033  18.9984033   1.0078250
 NucSpn=           0           0           0           0           0           0           0           1           1           1
 AtZEff=  -0.0000000  -0.0000000  -0.0000000  -0.0000000  -0.0000000  -0.0000000  -0.0000000  -0.0000000  -0.0000000  -0.0000000
 NQMom=    0.0000000   0.0000000   0.0000000   0.0000000   0.0000000   0.0000000   0.0000000   0.0000000   0.0000000   0.0000000
 NMagM=    0.0000000   0.0000000   0.0000000   0.0000000   0.0000000   0.0000000   0.0000000   2.6288670   2.6288670   2.7928460
 AtZNuc=   8.0000000   6.0000000   6.0000000   8.0000000   6.0000000   6.0000000   6.0000000   9.0000000   9.0000000   1.0000000

  Atom        71          72          73          74          75          76          77          78          79          80
 IAtWgt=           1           1           1           1           1           1           1           1           1           1
 AtmWgt=   1.0078250   1.0078250   1.0078250   1.0078250   1.0078250   1.0078250   1.0078250   1.0078250   1.0078250   1.0078250
 NucSpn=           1           1           1           1           1           1           1           1           1           1
 AtZEff=  -0.0000000  -0.0000000  -0.0000000  -0.0000000  -0.0000000  -0.0000000  -0.0000000  -0.0000000  -0.0000000  -0.0000000
 NQMom=    0.0000000   0.0000000   0.0000000   0.0000000   0.0000000   0.0000000   0.0000000   0.0000000   0.0000000   0.0000000
 NMagM=    2.7928460   2.7928460   2.7928460   2.7928460   2.7928460   2.7928460   2.7928460   2.7928460   2.7928460   2.7928460
 AtZNuc=   1.0000000   1.0000000   1.0000000   1.0000000   1.0000000   1.0000000   1.0000000   1.0000000   1.0000000   1.0000000

  Atom        81          82          83          84          85          86          87          88          89          90
 IAtWgt=           1           1           1           1           1           1           1           1           1           1
 AtmWgt=   1.0078250   1.0078250   1.0078250   1.0078250   1.0078250   1.0078250   1.0078250   1.0078250   1.0078250   1.0078250
 NucSpn=           1           1           1           1           1           1           1           1           1           1
 AtZEff=  -0.0000000  -0.0000000  -0.0000000  -0.0000000  -0.0000000  -0.0000000  -0.0000000  -0.0000000  -0.0000000  -0.0000000
 NQMom=    0.0000000   0.0000000   0.0000000   0.0000000   0.0000000   0.0000000   0.0000000   0.0000000   0.0000000   0.0000000
 NMagM=    2.7928460   2.7928460   2.7928460   2.7928460   2.7928460   2.7928460   2.7928460   2.7928460   2.7928460   2.7928460
 AtZNuc=   1.0000000   1.0000000   1.0000000   1.0000000   1.0000000   1.0000000   1.0000000   1.0000000   1.0000000   1.0000000

  Atom        91          92          93          94          95          96          97          98          99         100
 IAtWgt=           1           1           1           1           1           1           1           1           1           1
 AtmWgt=   1.0078250   1.0078250   1.0078250   1.0078250   1.0078250   1.0078250   1.0078250   1.0078250   1.0078250   1.0078250
 NucSpn=           1           1           1           1           1           1           1           1           1           1
 AtZEff=  -0.0000000  -0.0000000  -0.0000000  -0.0000000  -0.0000000  -0.0000000  -0.0000000  -0.0000000  -0.0000000  -0.0000000
 NQMom=    0.0000000   0.0000000   0.0000000   0.0000000   0.0000000   0.0000000   0.0000000   0.0000000   0.0000000   0.0000000
 NMagM=    2.7928460   2.7928460   2.7928460   2.7928460   2.7928460   2.7928460   2.7928460   2.7928460   2.7928460   2.7928460
 AtZNuc=   1.0000000   1.0000000   1.0000000   1.0000000   1.0000000   1.0000000   1.0000000   1.0000000   1.0000000   1.0000000

  Atom       101         102         103         104         105         106         107         108         109         110
 IAtWgt=           1           1           1           1           1           1           1           1           1           1
 AtmWgt=   1.0078250   1.0078250   1.0078250   1.0078250   1.0078250   1.0078250   1.0078250   1.0078250   1.0078250   1.0078250
 NucSpn=           1           1           1           1           1           1           1           1           1           1
 AtZEff=  -0.0000000  -0.0000000  -0.0000000  -0.0000000  -0.0000000  -0.0000000  -0.0000000  -0.0000000  -0.0000000  -0.0000000
 NQMom=    0.0000000   0.0000000   0.0000000   0.0000000   0.0000000   0.0000000   0.0000000   0.0000000   0.0000000   0.0000000
 NMagM=    2.7928460   2.7928460   2.7928460   2.7928460   2.7928460   2.7928460   2.7928460   2.7928460   2.7928460   2.7928460
 AtZNuc=   1.0000000   1.0000000   1.0000000   1.0000000   1.0000000   1.0000000   1.0000000   1.0000000   1.0000000   1.0000000

  Atom       111         112         113         114         115         116         117         118         119         120
 IAtWgt=           1           1           1           1           1           1           1           1           1           1
 AtmWgt=   1.0078250   1.0078250   1.0078250   1.0078250   1.0078250   1.0078250   1.0078250   1.0078250   1.0078250   1.0078250
 NucSpn=           1           1           1           1           1           1           1           1           1           1
 AtZEff=  -0.0000000  -0.0000000  -0.0000000  -0.0000000  -0.0000000  -0.0000000  -0.0000000  -0.0000000  -0.0000000  -0.0000000
 NQMom=    0.0000000   0.0000000   0.0000000   0.0000000   0.0000000   0.0000000   0.0000000   0.0000000   0.0000000   0.0000000
 NMagM=    2.7928460   2.7928460   2.7928460   2.7928460   2.7928460   2.7928460   2.7928460   2.7928460   2.7928460   2.7928460
 AtZNuc=   1.0000000   1.0000000   1.0000000   1.0000000   1.0000000   1.0000000   1.0000000   1.0000000   1.0000000   1.0000000

  Atom       121         122         123         124
 IAtWgt=           1           1           1           1
 AtmWgt=   1.0078250   1.0078250   1.0078250   1.0078250
 NucSpn=           1           1           1           1
 AtZEff=  -0.0000000  -0.0000000  -0.0000000  -0.0000000
 NQMom=    0.0000000   0.0000000   0.0000000   0.0000000
 NMagM=    2.7928460   2.7928460   2.7928460   2.7928460
 AtZNuc=   1.0000000   1.0000000   1.0000000   1.0000000
 Leave Link  101 at Fri Oct 24 17:12:00 2025, MaxMem= 30870077440 cpu:               4.7 elap:               0.1
 (Enter /public/software/gauss/g16/l202.exe)
 Stoichiometry    C49H55BF2N4O13
 Framework group  C1[X(C49H55BF2N4O13)]
 Deg. of freedom   366
 Full point group                 C1      NOp   1
 Largest Abelian subgroup         C1      NOp   1
 Largest concise Abelian subgroup C1      NOp   1
                         Standard orientation:                         
 ---------------------------------------------------------------------
 Center     Atomic      Atomic             Coordinates (Angstroms)
 Number     Number       Type             X           Y           Z
 ---------------------------------------------------------------------
      1          5           0        1.178368   -0.818729   -0.536120
      2          7           0        2.714474   -0.616224   -0.624548
      3          6           0        3.418498    0.560919   -0.590448
      4          6           0        4.801685    0.251241   -0.609258
      5          6           0        4.962068   -1.121302   -0.651951
      6          6           0        3.637847   -1.670438   -0.642430
      7          6           0        3.206301   -3.006927   -0.644403
      8          6           0        4.238404   -4.114008   -0.566058
      9          8           0        4.696623   -4.618607   -1.576551
     10          6           0        4.624016   -4.542597    0.843899
     11          6           0        5.742965   -5.546857    0.908700
     12          6           0        5.564789   -6.839535    0.391924
     13          6           0        6.597672   -7.762223    0.449973
     14          6           0        7.826573   -7.418058    1.032557
     15          6           0        8.014200   -6.139795    1.540429
     16          6           0        6.976562   -5.209751    1.470786
     17          7           0        8.895073   -8.393148    1.247345
     18          8           0       10.056228   -7.986948    1.191572
     19          8           0        8.575801   -9.552455    1.512359
     20          7           0        6.381417   -9.046190   -0.224626
     21          8           0        5.271382   -9.566098   -0.114779
     22          8           0        7.303780   -9.505846   -0.896602
     23          6           0        1.849622   -3.344051   -0.687093
     24          7           0        0.887036   -2.336532   -0.672835
     25          6           0       -0.348645   -2.913521   -0.731447
     26          6           0       -0.179830   -4.323368   -0.796955
     27          6           0        1.171349   -4.611125   -0.773565
     28          6           0        1.755939   -5.986968   -0.876420
     29          6           0       -1.566703   -2.148792   -0.734991
     30          6           0       -2.802682   -2.710970   -0.683162
     31          6           0       -4.080235   -2.016161   -0.683988
     32          6           0       -4.212143   -0.607956   -0.705594
     33          6           0       -5.458557   -0.007177   -0.705108
     34          6           0       -6.627533   -0.789500   -0.682520
     35          8           0       -7.799514   -0.081702   -0.697562
     36          6           0       -9.058066   -0.770725   -0.704424
     37          6           0       -9.487918   -1.147110    0.709272
     38          8           0      -10.784041   -1.722842    0.607975
     39          6           0      -11.307368   -2.115232    1.876735
     40          6           0      -12.705366   -2.685748    1.718249
     41          8           0      -13.719853   -1.706565    1.494315
     42          6           0      -13.851217   -1.269366    0.138681
     43          6           0      -15.108464   -0.432142   -0.017836
     44          8           0      -16.325360   -1.176725   -0.030458
     45          6           0      -16.836211   -1.507622    1.258251
     46          6           0       -6.526293   -2.186124   -0.655592
     47          6           0       -5.265158   -2.776864   -0.657099
     48          6           0        6.279831   -1.830232   -0.739976
     49          6           0        2.953822    1.923512   -0.518373
     50          6           0        1.700652    2.434093   -0.639237
     51          6           0        1.336794    3.841145   -0.533543
     52          6           0       -0.006442    4.209232   -0.768828
     53          6           0       -0.424033    5.528737   -0.688418
     54          6           0        0.495444    6.537383   -0.363692
     55          8           0       -0.023123    7.804320   -0.296842
     56          6           0        0.815440    8.909375    0.068918
     57          6           0        1.569763    9.454398   -1.138981
     58          8           0        2.268510   10.612974   -0.701257
     59          6           0        3.024340   11.223359   -1.746880
     60          6           0        3.727668   12.466146   -1.231970
     61          8           0        4.867016   12.209217   -0.412880
     62          6           0        4.579860   11.886561    0.948314
     63          6           0        5.884772   12.039519    1.726445
     64          8           0        5.716246   11.737724    3.108896
     65          6           0        5.790259   10.344899    3.403055
     66          6           0        1.837111    6.201184   -0.124056
     67          6           0        2.240515    4.872921   -0.208332
     68          9           0        0.686900   -0.332716    0.681044
     69          9           0        0.533426   -0.148861   -1.594164
     70          1           0        5.592284    0.989936   -0.609370
     71          1           0        4.867525   -3.642474    1.417018
     72          1           0        3.709898   -4.945691    1.300130
     73          1           0        4.631000   -7.124858   -0.077710
     74          1           0        8.955678   -5.890596    2.014531
     75          1           0        7.129903   -4.215577    1.876696
     76          1           0       -0.978510   -5.047208   -0.878722
     77          1           0        2.318195   -6.267032    0.020947
     78          1           0        0.953664   -6.717830   -1.002945
     79          1           0        2.434622   -6.076899   -1.729649
     80          1           0       -1.460244   -1.072143   -0.791650
     81          1           0       -2.878349   -3.795431   -0.633196
     82          1           0       -3.330778    0.024759   -0.720766
     83          1           0       -5.556169    1.073487   -0.723392
     84          1           0       -9.770960   -0.058692   -1.126506
     85          1           0       -9.023235   -1.648314   -1.356702
     86          1           0       -8.783437   -1.860202    1.160576
     87          1           0       -9.506918   -0.246770    1.340498
     88          1           0      -10.660486   -2.884364    2.326774
     89          1           0      -11.332790   -1.254507    2.561303
     90          1           0      -12.713554   -3.439071    0.917780
     91          1           0      -12.969760   -3.183757    2.656726
     92          1           0      -12.987944   -0.659236   -0.156976
     93          1           0      -13.897501   -2.137000   -0.535720
     94          1           0      -15.140696    0.342584    0.762266
     95          1           0      -15.052981    0.068960   -0.990317
     96          1           0      -16.231011   -2.268108    1.763547
     97          1           0      -16.893788   -0.619858    1.903505
     98          1           0      -17.845998   -1.899700    1.108562
     99          1           0       -7.407551   -2.815003   -0.628331
    100          1           0       -5.194394   -3.860932   -0.635050
    101          1           0        6.467111   -2.480723    0.120878
    102          1           0        6.347882   -2.451339   -1.638174
    103          1           0        7.087733   -1.095422   -0.776268
    104          1           0        3.778536    2.614294   -0.359277
    105          1           0        0.875032    1.768924   -0.859165
    106          1           0       -0.729441    3.437637   -1.018519
    107          1           0       -1.458985    5.800647   -0.868904
    108          1           0        0.132734    9.673250    0.448123
    109          1           0        1.501817    8.633267    0.875060
    110          1           0        2.269468    8.707553   -1.539601
    111          1           0        0.855159    9.708236   -1.935772
    112          1           0        3.763433   10.513957   -2.147862
    113          1           0        2.355485   11.515073   -2.571462
    114          1           0        4.101952   13.020220   -2.099014
    115          1           0        3.009679   13.106496   -0.700010
    116          1           0        3.824423   12.574043    1.354725
    117          1           0        4.189001   10.866171    1.035960
    118          1           0        6.664185   11.405011    1.281078
    119          1           0        6.220769   13.079901    1.668339
    120          1           0        6.760579    9.926640    3.101268
    121          1           0        5.680466   10.241557    4.485495
    122          1           0        4.993862    9.770700    2.913220
    123          1           0        2.568874    6.960145    0.123948
    124          1           0        3.282797    4.641914   -0.013479
 ---------------------------------------------------------------------
 Rotational constants (GHZ):           0.0138258           0.0111538           0.0063520
 Leave Link  202 at Fri Oct 24 17:12:00 2025, MaxMem= 30870077440 cpu:               0.2 elap:               0.0
 (Enter /public/software/gauss/g16/l301.exe)
 Standard basis: def2TZVPP (5D, 7F)
 Ernie: Thresh=  0.10000D-02 Tol=  0.10000D-05 Strict=F.
 There are  3309 symmetry adapted cartesian basis functions of A   symmetry.
 There are  2909 symmetry adapted basis functions of A   symmetry.
  2909 basis functions,  4454 primitive gaussians,  3309 cartesian basis functions
   252 alpha electrons      252 beta electrons
       nuclear repulsion energy      9205.5110679470 Hartrees.
 IExCor= 4336 DFT=T Ex+Corr=M062X ExCW=0 ScaHFX=  0.540000
 ScaDFX=  1.000000  1.000000  1.000000  1.000000 ScalE2=  1.000000  1.000000
 IRadAn=      5 IRanWt=     -1 IRanGd=            0 ICorTp=0 IEmpDi=131
 NAtoms=  124 NActive=  124 NUniq=  124 SFac= 1.00D+00 NAtFMM=   60 NAOKFM=T Big=T
 Integral buffers will be    131072 words long.
 Raffenetti 2 integral format.
 Two-electron integral symmetry is turned on.
 R6Disp:  Grimme-D3 Dispersion energy=       -0.0098704567 Hartrees.
 Nuclear repulsion after empirical dispersion term =     9205.5011974903 Hartrees.
 ------------------------------------------------------------------------------
 Polarizable Continuum Model (PCM)
 =================================
 Model                : PCM.
 Atomic radii         : UFF (Universal Force Field).
 Polarization charges : Total charges.
 Charge compensation  : None.
 Solution method      : On-the-fly selection.
 Cavity type          : Scaled VdW (van der Waals Surface) (Alpha=1.100).
 Cavity algorithm     : GePol (No added spheres)
                        Default sphere list used, NSphG=  124.
                        Lebedev-Laikov grids with approx.  5.0 points / Ang**2.
                        Smoothing algorithm: York/Karplus (Gamma=1.0000).
                        Polarization charges: spherical gaussians, with
                                              point-specific exponents (IZeta= 3).
                        Self-potential: point-specific (ISelfS= 7).
                        Self-field    : sphere-specific E.n sum rule (ISelfD= 2).
 Solvent              : Water, Eps=  78.355300 Eps(inf)=   1.777849
 ------------------------------------------------------------------------------
 GePol: Number of generator spheres                  =     124
 GePol: Total number of spheres                      =     124
 GePol: Number of exposed spheres                    =     124 (100.00%)
 GePol: Number of points                             =    8859
 GePol: Average weight of points                     =       0.13
 GePol: Minimum weight of points                     =   0.27D-10
 GePol: Maximum weight of points                     =    0.20577
 GePol: Number of points with low weight             =     595
 GePol: Fraction of low-weight points (<1% of avg)   =       6.72%
 GePol: Cavity surface area                          =   1117.199 Ang**2
 GePol: Cavity volume                                =   1266.740 Ang**3
 Leave Link  301 at Fri Oct 24 17:12:01 2025, MaxMem= 30870077440 cpu:               6.6 elap:               0.1
 (Enter /public/software/gauss/g16/l302.exe)
 NPDir=0 NMtPBC=     1 NCelOv=     1 NCel=       1 NClECP=     1 NCelD=      1
         NCelK=      1 NCelE2=     1 NClLst=     1 CellRange=     0.0.
 One-electron integrals computed using PRISM.
 One-electron integral symmetry used in STVInt
   1 Symmetry operations used in ECPInt.
 ECPInt:  NShTT=  593505 NPrTT= 1658793 LenC2=  231782 LenP2D=  433102.
 LDataN:  DoStor=T MaxTD1= 6 Len=  172
 Number of processors reduced to  58 by ecpmxn.
 NBasis=  2909 RedAO= T EigKep=  4.14D-06  NBF=  2909
 NBsUse=  2909 1.00D-06 EigRej= -1.00D+00 NBFU=  2909
 Precomputing XC quadrature grid using
 IXCGrd= 4 IRadAn=           5 IRanWt=          -1 IRanGd=           0 AccXCQ= 0.00D+00.
 Generated NRdTot=       0 NPtTot=           0 NUsed=           0 NTot=          32
 NSgBfM=  2262  2249  2256  2262  2262 MxSgAt=   124 MxSgA2=   124.
 Leave Link  302 at Fri Oct 24 17:12:32 2025, MaxMem= 30870077440 cpu:            1976.1 elap:              31.0
 (Enter /public/software/gauss/g16/l303.exe)
 DipDrv:  MaxL=1.
 Leave Link  303 at Fri Oct 24 17:12:33 2025, MaxMem= 30870077440 cpu:              58.0 elap:               1.0
 (Enter /public/software/gauss/g16/l401.exe)
 ExpMin= 6.06D-02 ExpMax= 3.55D+04 ExpMxC= 1.21D+03 IAcc=3 IRadAn=         5 AccDes= 0.00D+00
 Harris functional with IExCor= 1009 and IRadAn=       5 diagonalized for initial guess.
 HarFok:  IExCor= 1009 AccDes= 0.00D+00 IRadAn=         5 IDoV= 1 UseB2=F ITyADJ=14
 ICtDFT=  3500011 ScaDFX=  1.000000  1.000000  1.000000  1.000000
 FoFCou: FMM=F IPFlag=           0 FMFlag=      100000 FMFlg1=        2001
         NFxFlg=           0 DoJE=T BraDBF=F KetDBF=T FulRan=T
         wScrn=  0.000000 ICntrl=       500 IOpCl=  0 I1Cent=   200000004 NGrid=           0
         NMat0=    1 NMatS0=      1 NMatT0=    0 NMatD0=    1 NMtDS0=    0 NMtDT0=    0
 Petite list used in FoFCou.
 Harris En= -3319.98316955209    
 JPrj=0 DoOrth=F DoCkMO=F.
 Leave Link  401 at Fri Oct 24 17:12:56 2025, MaxMem= 30870077440 cpu:            1507.0 elap:              23.7
 (Enter /public/software/gauss/g16/l502.exe)
 Integral symmetry usage will be decided dynamically.
 Closed shell SCF:
 Using DIIS extrapolation, IDIIS=  1040.
 NGot= 30870077440 LenX= 30847938834 LenY= 30836986044
 Requested convergence on RMS density matrix=1.00D-08 within 128 cycles.
 Requested convergence on MAX density matrix=1.00D-06.
 Requested convergence on             energy=1.00D-06.
 No special actions if energy rises.
 Fock matrices will be formed incrementally for  20 cycles.

 Cycle   1  Pass 1  IDiag  1:
 FoFJK:  IHMeth= 1 ICntrl=       0 DoSepK=F KAlg= 0 I1Cent=           0 FoldK=F
 IRaf= 360000000 NMat=       1 IRICut=       1 DoRegI=T DoRafI=F ISym2E= 0 IDoP0=0 IntGTp=1.
 FoFCou: FMM=T IPFlag=           0 FMFlag=      100000 FMFlg1=        2001
         NFxFlg=           0 DoJE=F BraDBF=F KetDBF=F FulRan=T
         wScrn=  0.000000 ICntrl=         0 IOpCl=  0 I1Cent=           0 NGrid=           0
         NMat0=    1 NMatS0=      1 NMatT0=    0 NMatD0=    1 NMtDS0=    0 NMtDT0=    0
 Symmetry not used in FoFCou.
 FMM levels:  10  Number of levels for PrismC:   9
 Inv3:  Mode=1 IEnd=   235445643.
 Iteration    1 A*A^-1 deviation from unit magnitude is 2.20D-14 for   8824.
 Iteration    1 A*A^-1 deviation from orthogonality  is 5.88D-15 for   7721   3323.
 Iteration    1 A^-1*A deviation from unit magnitude is 2.20D-14 for   8824.
 Iteration    1 A^-1*A deviation from orthogonality  is 7.75D-15 for   7827   4561.
 E= -3320.06695285755    
 DIIS: error= 2.65D-02 at cycle   1 NSaved=   1.
 NSaved= 1 IEnMin= 1 EnMin= -3320.06695285755     IErMin= 1 ErrMin= 2.65D-02
 ErrMax= 2.65D-02  0.00D+00 EMaxC= 1.00D-01 BMatC= 2.20D+00 BMatP= 2.20D+00
 IDIUse=3 WtCom= 7.35D-01 WtEn= 2.65D-01
 Coeff-Com:  0.100D+01
 Coeff-En:   0.100D+01
 Coeff:      0.100D+01
 Gap=     0.119 Goal=   None    Shift=    0.000
 GapD=    0.119 DampG=1.000 DampE=0.500 DampFc=0.5000 IDamp=-1.
 Damping current iteration by 5.00D-01
 RMSDP=1.51D-03 MaxDP=6.29D-01              OVMax= 2.14D-01

 Cycle   2  Pass 1  IDiag  1:
 RMSU=  7.53D-04    CP:  1.02D+00
 E= -3320.82137499645     Delta-E=       -0.754422138893 Rises=F Damp=T
 DIIS: error= 5.71D-03 at cycle   2 NSaved=   2.
 NSaved= 2 IEnMin= 2 EnMin= -3320.82137499645     IErMin= 2 ErrMin= 5.71D-03
 ErrMax= 5.71D-03  0.00D+00 EMaxC= 1.00D-01 BMatC= 2.41D-01 BMatP= 2.20D+00
 IDIUse=3 WtCom= 9.43D-01 WtEn= 5.71D-02
 Coeff-Com: -0.451D-01 0.105D+01
 Coeff-En:   0.000D+00 0.100D+01
 Coeff:     -0.425D-01 0.104D+01
 Gap=     0.151 Goal=   None    Shift=    0.000
 RMSDP=4.63D-04 MaxDP=9.44D-02 DE=-7.54D-01 OVMax= 1.74D-01

 Cycle   3  Pass 1  IDiag  1:
 RMSU=  4.60D-04    CP:  1.00D+00  1.03D+00
 E= -3321.54500092869     Delta-E=       -0.723625932238 Rises=F Damp=F
 DIIS: error= 1.22D-02 at cycle   3 NSaved=   3.
 NSaved= 3 IEnMin= 3 EnMin= -3321.54500092869     IErMin= 2 ErrMin= 5.71D-03
 ErrMax= 1.22D-02  0.00D+00 EMaxC= 1.00D-01 BMatC= 1.53D-01 BMatP= 2.41D-01
 IDIUse=3 WtCom= 8.78D-01 WtEn= 1.22D-01
 Coeff-Com: -0.119D+00 0.500D+00 0.619D+00
 Coeff-En:   0.000D+00 0.000D+00 0.100D+01
 Coeff:     -0.104D+00 0.439D+00 0.666D+00
 Gap=     0.127 Goal=   None    Shift=    0.000
 RMSDP=1.84D-04 MaxDP=4.32D-02 DE=-7.24D-01 OVMax= 7.18D-02

 Cycle   4  Pass 1  IDiag  1:
 RMSU=  1.61D-04    CP:  1.00D+00  1.10D+00  8.55D-01
 E= -3321.63955060955     Delta-E=       -0.094549680865 Rises=F Damp=F
 DIIS: error= 4.04D-03 at cycle   4 NSaved=   4.
 NSaved= 4 IEnMin= 4 EnMin= -3321.63955060955     IErMin= 4 ErrMin= 4.04D-03
 ErrMax= 4.04D-03  0.00D+00 EMaxC= 1.00D-01 BMatC= 2.83D-02 BMatP= 1.53D-01
 IDIUse=3 WtCom= 9.60D-01 WtEn= 4.04D-02
 Coeff-Com: -0.331D-01 0.883D-01 0.342D+00 0.603D+00
 Coeff-En:   0.000D+00 0.000D+00 0.156D+00 0.844D+00
 Coeff:     -0.318D-01 0.847D-01 0.334D+00 0.613D+00
 Gap=     0.129 Goal=   None    Shift=    0.000
 RMSDP=7.08D-05 MaxDP=2.10D-02 DE=-9.45D-02 OVMax= 2.29D-02

 Cycle   5  Pass 1  IDiag  1:
 RMSU=  3.40D-05    CP:  1.00D+00  1.07D+00  9.22D-01  7.09D-01
 E= -3321.66100893052     Delta-E=       -0.021458320967 Rises=F Damp=F
 DIIS: error= 5.70D-04 at cycle   5 NSaved=   5.
 NSaved= 5 IEnMin= 5 EnMin= -3321.66100893052     IErMin= 5 ErrMin= 5.70D-04
 ErrMax= 5.70D-04  0.00D+00 EMaxC= 1.00D-01 BMatC= 1.01D-03 BMatP= 2.83D-02
 IDIUse=3 WtCom= 9.94D-01 WtEn= 5.70D-03
 Coeff-Com: -0.965D-02 0.188D-01 0.133D+00 0.294D+00 0.563D+00
 Coeff-En:   0.000D+00 0.000D+00 0.000D+00 0.000D+00 0.100D+01
 Coeff:     -0.960D-02 0.187D-01 0.132D+00 0.293D+00 0.566D+00
 Gap=     0.129 Goal=   None    Shift=    0.000
 RMSDP=1.78D-05 MaxDP=5.26D-03 DE=-2.15D-02 OVMax= 6.58D-03

 Cycle   6  Pass 1  IDiag  1:
 RMSU=  1.34D-05    CP:  1.00D+00  1.08D+00  9.15D-01  7.23D-01  7.97D-01
 E= -3321.66173380169     Delta-E=       -0.000724871175 Rises=F Damp=F
 DIIS: error= 3.18D-04 at cycle   6 NSaved=   6.
 NSaved= 6 IEnMin= 6 EnMin= -3321.66173380169     IErMin= 6 ErrMin= 3.18D-04
 ErrMax= 3.18D-04  0.00D+00 EMaxC= 1.00D-01 BMatC= 1.42D-04 BMatP= 1.01D-03
 IDIUse=3 WtCom= 9.97D-01 WtEn= 3.18D-03
 Coeff-Com: -0.101D-02-0.523D-03 0.303D-01 0.820D-01 0.304D+00 0.585D+00
 Coeff-En:   0.000D+00 0.000D+00 0.000D+00 0.000D+00 0.333D-01 0.967D+00
 Coeff:     -0.101D-02-0.522D-03 0.302D-01 0.817D-01 0.303D+00 0.586D+00
 Gap=     0.130 Goal=   None    Shift=    0.000
 RMSDP=5.54D-06 MaxDP=1.31D-03 DE=-7.25D-04 OVMax= 3.32D-03

 Cycle   7  Pass 1  IDiag  1:
 RMSU=  4.57D-06    CP:  1.00D+00  1.08D+00  9.18D-01  7.21D-01  8.64D-01
                    CP:  9.22D-01
 E= -3321.66184159895     Delta-E=       -0.000107797257 Rises=F Damp=F
 DIIS: error= 1.05D-04 at cycle   7 NSaved=   7.
 NSaved= 7 IEnMin= 7 EnMin= -3321.66184159895     IErMin= 7 ErrMin= 1.05D-04
 ErrMax= 1.05D-04  0.00D+00 EMaxC= 1.00D-01 BMatC= 1.75D-05 BMatP= 1.42D-04
 IDIUse=3 WtCom= 9.99D-01 WtEn= 1.05D-03
 Coeff-Com:  0.998D-03-0.317D-02-0.473D-02-0.378D-02 0.705D-01 0.298D+00
 Coeff-Com:  0.642D+00
 Coeff-En:   0.000D+00 0.000D+00 0.000D+00 0.000D+00 0.000D+00 0.000D+00
 Coeff-En:   0.100D+01
 Coeff:      0.997D-03-0.317D-02-0.473D-02-0.377D-02 0.704D-01 0.298D+00
 Coeff:      0.642D+00
 Gap=     0.130 Goal=   None    Shift=    0.000
 RMSDP=2.96D-06 MaxDP=8.54D-04 DE=-1.08D-04 OVMax= 1.34D-03

 Cycle   8  Pass 1  IDiag  1:
 RMSU=  2.12D-06    CP:  1.00D+00  1.08D+00  9.20D-01  7.24D-01  8.90D-01
                    CP:  1.01D+00  9.15D-01
 E= -3321.66185745158     Delta-E=       -0.000015852633 Rises=F Damp=F
 DIIS: error= 3.60D-05 at cycle   8 NSaved=   8.
 NSaved= 8 IEnMin= 8 EnMin= -3321.66185745158     IErMin= 8 ErrMin= 3.60D-05
 ErrMax= 3.60D-05  0.00D+00 EMaxC= 1.00D-01 BMatC= 2.21D-06 BMatP= 1.75D-05
 IDIUse=1 WtCom= 1.00D+00 WtEn= 0.00D+00
 Coeff-Com:  0.647D-03-0.142D-02-0.731D-02-0.161D-01-0.175D-01 0.419D-01
 Coeff-Com:  0.295D+00 0.705D+00
 Coeff:      0.647D-03-0.142D-02-0.731D-02-0.161D-01-0.175D-01 0.419D-01
 Coeff:      0.295D+00 0.705D+00
 Gap=     0.130 Goal=   None    Shift=    0.000
 RMSDP=1.51D-06 MaxDP=3.67D-04 DE=-1.59D-05 OVMax= 7.61D-04

 Cycle   9  Pass 1  IDiag  1:
 RMSU=  9.74D-07    CP:  1.00D+00  1.08D+00  9.21D-01  7.26D-01  9.07D-01
                    CP:  1.04D+00  1.02D+00  1.17D+00
 E= -3321.66186021214     Delta-E=       -0.000002760558 Rises=F Damp=F
 DIIS: error= 9.54D-06 at cycle   9 NSaved=   9.
 NSaved= 9 IEnMin= 9 EnMin= -3321.66186021214     IErMin= 9 ErrMin= 9.54D-06
 ErrMax= 9.54D-06  0.00D+00 EMaxC= 1.00D-01 BMatC= 3.80D-07 BMatP= 2.21D-06
 IDIUse=1 WtCom= 1.00D+00 WtEn= 0.00D+00
 Coeff-Com:  0.179D-03-0.286D-03-0.275D-02-0.711D-02-0.167D-01-0.169D-01
 Coeff-Com:  0.513D-01 0.334D+00 0.658D+00
 Coeff:      0.179D-03-0.286D-03-0.275D-02-0.711D-02-0.167D-01-0.169D-01
 Coeff:      0.513D-01 0.334D+00 0.658D+00
 Gap=     0.130 Goal=   None    Shift=    0.000
 RMSDP=5.30D-07 MaxDP=1.94D-04 DE=-2.76D-06 OVMax= 4.83D-04

 Cycle  10  Pass 1  IDiag  1:
 RMSU=  3.40D-07    CP:  1.00D+00  1.08D+00  9.21D-01  7.25D-01  9.11D-01
                    CP:  1.05D+00  1.05D+00  1.29D+00  9.81D-01
 E= -3321.66186073511     Delta-E=       -0.000000522969 Rises=F Damp=F
 DIIS: error= 2.95D-06 at cycle  10 NSaved=  10.
 NSaved=10 IEnMin=10 EnMin= -3321.66186073511     IErMin=10 ErrMin= 2.95D-06
 ErrMax= 2.95D-06  0.00D+00 EMaxC= 1.00D-01 BMatC= 6.92D-08 BMatP= 3.80D-07
 IDIUse=1 WtCom= 1.00D+00 WtEn= 0.00D+00
 Coeff-Com: -0.451D-04 0.145D-03 0.173D-03-0.192D-03-0.445D-02-0.146D-01
 Coeff-Com: -0.361D-01 0.142D-01 0.316D+00 0.725D+00
 Coeff:     -0.451D-04 0.145D-03 0.173D-03-0.192D-03-0.445D-02-0.146D-01
 Coeff:     -0.361D-01 0.142D-01 0.316D+00 0.725D+00
 Gap=     0.130 Goal=   None    Shift=    0.000
 RMSDP=2.59D-07 MaxDP=5.29D-05 DE=-5.23D-07 OVMax= 2.19D-04

 Cycle  11  Pass 1  IDiag  1:
 RMSU=  1.44D-07    CP:  1.00D+00  1.08D+00  9.21D-01  7.25D-01  9.12D-01
                    CP:  1.06D+00  1.06D+00  1.35D+00  1.11D+00  1.01D+00
 E= -3321.66186084949     Delta-E=       -0.000000114376 Rises=F Damp=F
 DIIS: error= 1.27D-06 at cycle  11 NSaved=  11.
 NSaved=11 IEnMin=11 EnMin= -3321.66186084949     IErMin=11 ErrMin= 1.27D-06
 ErrMax= 1.27D-06  0.00D+00 EMaxC= 1.00D-01 BMatC= 1.20D-08 BMatP= 6.92D-08
 IDIUse=1 WtCom= 1.00D+00 WtEn= 0.00D+00
 Coeff-Com: -0.507D-04 0.116D-03 0.550D-03 0.116D-02 0.670D-03-0.344D-02
 Coeff-Com: -0.273D-01-0.538D-01 0.397D-01 0.343D+00 0.699D+00
 Coeff:     -0.507D-04 0.116D-03 0.550D-03 0.116D-02 0.670D-03-0.344D-02
 Coeff:     -0.273D-01-0.538D-01 0.397D-01 0.343D+00 0.699D+00
 Gap=     0.130 Goal=   None    Shift=    0.000
 RMSDP=1.64D-07 MaxDP=5.63D-05 DE=-1.14D-07 OVMax= 1.02D-04

 Cycle  12  Pass 1  IDiag  1:
 RMSU=  6.12D-08    CP:  1.00D+00  1.08D+00  9.21D-01  7.25D-01  9.13D-01
                    CP:  1.06D+00  1.06D+00  1.39D+00  1.18D+00  1.15D+00
                    CP:  1.06D+00
 E= -3321.66186086924     Delta-E=       -0.000000019756 Rises=F Damp=F
 DIIS: error= 4.87D-07 at cycle  12 NSaved=  12.
 NSaved=12 IEnMin=12 EnMin= -3321.66186086924     IErMin=12 ErrMin= 4.87D-07
 ErrMax= 4.87D-07  0.00D+00 EMaxC= 1.00D-01 BMatC= 1.68D-09 BMatP= 1.20D-08
 IDIUse=1 WtCom= 1.00D+00 WtEn= 0.00D+00
 Coeff-Com: -0.146D-04 0.275D-04 0.210D-03 0.546D-03 0.917D-03 0.103D-02
 Coeff-Com: -0.624D-02-0.257D-01-0.296D-01 0.320D-01 0.301D+00 0.726D+00
 Coeff:     -0.146D-04 0.275D-04 0.210D-03 0.546D-03 0.917D-03 0.103D-02
 Coeff:     -0.624D-02-0.257D-01-0.296D-01 0.320D-01 0.301D+00 0.726D+00
 Gap=     0.130 Goal=   None    Shift=    0.000
 RMSDP=3.68D-08 MaxDP=7.82D-06 DE=-1.98D-08 OVMax= 3.52D-05

 Cycle  13  Pass 1  IDiag  1:
 RMSU=  2.46D-08    CP:  1.00D+00  1.08D+00  9.21D-01  7.25D-01  9.13D-01
                    CP:  1.06D+00  1.06D+00  1.39D+00  1.19D+00  1.19D+00
                    CP:  1.19D+00  1.03D+00
 E= -3321.66186087224     Delta-E=       -0.000000002996 Rises=F Damp=F
 DIIS: error= 1.43D-07 at cycle  13 NSaved=  13.
 NSaved=13 IEnMin=13 EnMin= -3321.66186087224     IErMin=13 ErrMin= 1.43D-07
 ErrMax= 1.43D-07  0.00D+00 EMaxC= 1.00D-01 BMatC= 2.17D-10 BMatP= 1.68D-09
 IDIUse=1 WtCom= 1.00D+00 WtEn= 0.00D+00
 Coeff-Com:  0.215D-05-0.703D-05-0.890D-05 0.304D-04 0.193D-03 0.922D-03
 Coeff-Com:  0.179D-02-0.140D-02-0.152D-01-0.437D-01-0.315D-02 0.249D+00
 Coeff-Com:  0.812D+00
 Coeff:      0.215D-05-0.703D-05-0.890D-05 0.304D-04 0.193D-03 0.922D-03
 Coeff:      0.179D-02-0.140D-02-0.152D-01-0.437D-01-0.315D-02 0.249D+00
 Coeff:      0.812D+00
 Gap=     0.130 Goal=   None    Shift=    0.000
 RMSDP=1.95D-08 MaxDP=3.46D-06 DE=-3.00D-09 OVMax= 1.53D-05

 Cycle  14  Pass 1  IDiag  1:
 RMSU=  8.64D-09    CP:  1.00D+00  1.08D+00  9.21D-01  7.25D-01  9.13D-01
                    CP:  1.06D+00  1.06D+00  1.39D+00  1.20D+00  1.20D+00
                    CP:  1.24D+00  1.18D+00  1.14D+00
 E= -3321.66186087177     Delta-E=        0.000000000473 Rises=F Damp=F
 DIIS: error= 7.64D-08 at cycle  14 NSaved=  14.
 NSaved=14 IEnMin=13 EnMin= -3321.66186087224     IErMin=14 ErrMin= 7.64D-08
 ErrMax= 7.64D-08  0.00D+00 EMaxC= 1.00D-01 BMatC= 4.81D-11 BMatP= 2.17D-10
 IDIUse=1 WtCom= 1.00D+00 WtEn= 0.00D+00
 Coeff-Com:  0.298D-05-0.685D-05-0.363D-04-0.664D-04-0.596D-04 0.273D-03
 Coeff-Com:  0.178D-02 0.331D-02-0.121D-02-0.237D-01-0.473D-01-0.120D-01
 Coeff-Com:  0.342D+00 0.737D+00
 Coeff:      0.298D-05-0.685D-05-0.363D-04-0.664D-04-0.596D-04 0.273D-03
 Coeff:      0.178D-02 0.331D-02-0.121D-02-0.237D-01-0.473D-01-0.120D-01
 Coeff:      0.342D+00 0.737D+00
 Gap=     0.130 Goal=   None    Shift=    0.000
 RMSDP=7.65D-09 MaxDP=2.26D-06 DE= 4.73D-10 OVMax= 8.47D-06

 Cycle  15  Pass 1  IDiag  1:
 RMSU=  4.24D-09    CP:  1.00D+00  1.08D+00  9.21D-01  7.25D-01  9.13D-01
                    CP:  1.06D+00  1.06D+00  1.39D+00  1.20D+00  1.20D+00
                    CP:  1.26D+00  1.21D+00  1.31D+00  1.27D+00
 E= -3321.66186087314     Delta-E=       -0.000000001373 Rises=F Damp=F
 DIIS: error= 4.29D-08 at cycle  15 NSaved=  15.
 NSaved=15 IEnMin=15 EnMin= -3321.66186087314     IErMin=15 ErrMin= 4.29D-08
 ErrMax= 4.29D-08  0.00D+00 EMaxC= 1.00D-01 BMatC= 9.87D-12 BMatP= 4.81D-11
 IDIUse=1 WtCom= 1.00D+00 WtEn= 0.00D+00
 Coeff-Com:  0.589D-06-0.103D-05-0.123D-04-0.298D-04-0.649D-04-0.740D-04
 Coeff-Com:  0.340D-03 0.150D-02 0.265D-02-0.127D-02-0.179D-01-0.555D-01
 Coeff-Com: -0.141D-01 0.308D+00 0.776D+00
 Coeff:      0.589D-06-0.103D-05-0.123D-04-0.298D-04-0.649D-04-0.740D-04
 Coeff:      0.340D-03 0.150D-02 0.265D-02-0.127D-02-0.179D-01-0.555D-01
 Coeff:     -0.141D-01 0.308D+00 0.776D+00
 Gap=     0.130 Goal=   None    Shift=    0.000
 RMSDP=4.03D-09 MaxDP=6.29D-07 DE=-1.37D-09 OVMax= 5.58D-06

 Error on total polarization charges =  0.03078
 SCF Done:  E(RM062X) =  -3321.66186087     A.U. after   15 cycles
            NFock= 15  Conv=0.40D-08     -V/T= 2.0053
 KE= 3.304079863180D+03 PE=-2.616632598317D+04 EE= 1.033508306163D+04
 Leave Link  502 at Fri Oct 24 17:42:16 2025, MaxMem= 30870077440 cpu:          110072.4 elap:            1759.3
 (Enter /public/software/gauss/g16/l601.exe)
 Copying SCF densities to generalized density rwf, IOpCl= 0 IROHF=0.
 Hyperfine terms turned off by default for NAtoms > 100.

 **********************************************************************

            Population analysis using the SCF density.

 **********************************************************************

 Orbital symmetries:
       Occupied  (A) (A) (A) (A) (A) (A) (A) (A) (A) (A) (A) (A)
                 (A) (A) (A) (A) (A) (A) (A) (A) (A) (A) (A) (A)
                 (A) (A) (A) (A) (A) (A) (A) (A) (A) (A) (A) (A)
                 (A) (A) (A) (A) (A) (A) (A) (A) (A) (A) (A) (A)
                 (A) (A) (A) (A) (A) (A) (A) (A) (A) (A) (A) (A)
                 (A) (A) (A) (A) (A) (A) (A) (A) (A) (A) (A) (A)
                 (A) (A) (A) (A) (A) (A) (A) (A) (A) (A) (A) (A)
                 (A) (A) (A) (A) (A) (A) (A) (A) (A) (A) (A) (A)
                 (A) (A) (A) (A) (A) (A) (A) (A) (A) (A) (A) (A)
                 (A) (A) (A) (A) (A) (A) (A) (A) (A) (A) (A) (A)
                 (A) (A) (A) (A) (A) (A) (A) (A) (A) (A) (A) (A)
                 (A) (A) (A) (A) (A) (A) (A) (A) (A) (A) (A) (A)
                 (A) (A) (A) (A) (A) (A) (A) (A) (A) (A) (A) (A)
                 (A) (A) (A) (A) (A) (A) (A) (A) (A) (A) (A) (A)
                 (A) (A) (A) (A) (A) (A) (A) (A) (A) (A) (A) (A)
                 (A) (A) (A) (A) (A) (A) (A) (A) (A) (A) (A) (A)
                 (A) (A) (A) (A) (A) (A) (A) (A) (A) (A) (A) (A)
                 (A) (A) (A) (A) (A) (A) (A) (A) (A) (A) (A) (A)
                 (A) (A) (A) (A) (A) (A) (A) (A) (A) (A) (A) (A)
                 (A) (A) (A) (A) (A) (A) (A) (A) (A) (A) (A) (A)
                 (A) (A) (A) (A) (A) (A) (A) (A) (A) (A) (A) (A)
       Virtual   (A) (A) (A) (A) (A) (A) (A) (A) (A) (A) (A) (A)
                 (A) (A) (A) (A) (A) (A) (A) (A) (A) (A) (A) (A)
                 (A) (A) (A) (A) (A) (A) (A) (A) (A) (A) (A) (A)
                 (A) (A) (A) (A) (A) (A) (A) (A) (A) (A) (A) (A)
                 (A) (A) (A) (A) (A) (A) (A) (A) (A) (A) (A) (A)
                 (A) (A) (A) (A) (A) (A) (A) (A) (A) (A) (A) (A)
                 (A) (A) (A) (A) (A) (A) (A) (A) (A) (A) (A) (A)
                 (A) (A) (A) (A) (A) (A) (A) (A) (A) (A) (A) (A)
                 (A) (A) (A) (A) (A) (A) (A) (A) (A) (A) (A) (A)
                 (A) (A) (A) (A) (A) (A) (A) (A) (A) (A) (A) (A)
                 (A) (A) (A) (A) (A) (A) (A) (A) (A) (A) (A) (A)
                 (A) (A) (A) (A) (A) (A) (A) (A) (A) (A) (A) (A)
                 (A) (A) (A) (A) (A) (A) (A) (A) (A) (A) (A) (A)
                 (A) (A) (A) (A) (A) (A) (A) (A) (A) (A) (A) (A)
                 (A) (A) (A) (A) (A) (A) (A) (A) (A) (A) (A) (A)
                 (A) (A) (A) (A) (A) (A) (A) (A) (A) (A) (A) (A)
                 (A) (A) (A) (A) (A) (A) (A) (A) (A) (A) (A) (A)
                 (A) (A) (A) (A) (A) (A) (A) (A) (A) (A) (A) (A)
                 (A) (A) (A) (A) (A) (A) (A) (A) (A) (A) (A) (A)
                 (A) (A) (A) (A) (A) (A) (A) (A) (A) (A) (A) (A)
                 (A) (A) (A) (A) (A) (A) (A) (A) (A) (A) (A) (A)
                 (A) (A) (A) (A) (A) (A) (A) (A) (A) (A) (A) (A)
                 (A) (A) (A) (A) (A) (A) (A) (A) (A) (A) (A) (A)
                 (A) (A) (A) (A) (A) (A) (A) (A) (A) (A) (A) (A)
                 (A) (A) (A) (A) (A) (A) (A) (A) (A) (A) (A) (A)
                 (A) (A) (A) (A) (A) (A) (A) (A) (A) (A) (A) (A)
                 (A) (A) (A) (A) (A) (A) (A) (A) (A) (A) (A) (A)
                 (A) (A) (A) (A) (A) (A) (A) (A) (A) (A) (A) (A)
                 (A) (A) (A) (A) (A) (A) (A) (A) (A) (A) (A) (A)
                 (A) (A) (A) (A) (A) (A) (A) (A) (A) (A) (A) (A)
                 (A) (A) (A) (A) (A) (A) (A) (A) (A) (A) (A) (A)
                 (A) (A) (A) (A) (A) (A) (A) (A) (A) (A) (A) (A)
                 (A) (A) (A) (A) (A) (A) (A) (A) (A) (A) (A) (A)
                 (A) (A) (A) (A) (A) (A) (A) (A) (A) (A) (A) (A)
                 (A) (A) (A) (A) (A) (A) (A) (A) (A) (A) (A) (A)
                 (A) (A) (A) (A) (A) (A) (A) (A) (A) (A) (A) (A)
                 (A) (A) (A) (A) (A) (A) (A) (A) (A) (A) (A) (A)
                 (A) (A) (A) (A) (A) (A) (A) (A) (A) (A) (A) (A)
                 (A) (A) (A) (A) (A) (A) (A) (A) (A) (A) (A) (A)
                 (A) (A) (A) (A) (A) (A) (A) (A) (A) (A) (A) (A)
                 (A) (A) (A) (A) (A) (A) (A) (A) (A) (A) (A) (A)
                 (A) (A) (A) (A) (A) (A) (A) (A) (A) (A) (A) (A)
                 (A) (A) (A) (A) (A) (A) (A) (A) (A) (A) (A) (A)
                 (A) (A) (A) (A) (A) (A) (A) (A) (A) (A) (A) (A)
                 (A) (A) (A) (A) (A) (A) (A) (A) (A) (A) (A) (A)
                 (A) (A) (A) (A) (A) (A) (A) (A) (A) (A) (A) (A)
                 (A) (A) (A) (A) (A) (A) (A) (A) (A) (A) (A) (A)
                 (A) (A) (A) (A) (A) (A) (A) (A) (A) (A) (A) (A)
                 (A) (A) (A) (A) (A) (A) (A) (A) (A) (A) (A) (A)
                 (A) (A) (A) (A) (A) (A) (A) (A) (A) (A) (A) (A)
                 (A) (A) (A) (A) (A) (A) (A) (A) (A) (A) (A) (A)
                 (A) (A) (A) (A) (A) (A) (A) (A) (A) (A) (A) (A)
                 (A) (A) (A) (A) (A) (A) (A) (A) (A) (A) (A) (A)
                 (A) (A) (A) (A) (A) (A) (A) (A) (A) (A) (A) (A)
                 (A) (A) (A) (A) (A) (A) (A) (A) (A) (A) (A) (A)
                 (A) (A) (A) (A) (A) (A) (A) (A) (A) (A) (A) (A)
                 (A) (A) (A) (A) (A) (A) (A) (A) (A) (A) (A) (A)
                 (A) (A) (A) (A) (A) (A) (A) (A) (A) (A) (A) (A)
                 (A) (A) (A) (A) (A) (A) (A) (A) (A) (A) (A) (A)
                 (A) (A) (A) (A) (A) (A) (A) (A) (A) (A) (A) (A)
                 (A) (A) (A) (A) (A) (A) (A) (A) (A) (A) (A) (A)
                 (A) (A) (A) (A) (A) (A) (A) (A) (A) (A) (A) (A)
                 (A) (A) (A) (A) (A) (A) (A) (A) (A) (A) (A) (A)
                 (A) (A) (A) (A) (A) (A) (A) (A) (A) (A) (A) (A)
                 (A) (A) (A) (A) (A) (A) (A) (A) (A) (A) (A) (A)
                 (A) (A) (A) (A) (A) (A) (A) (A) (A) (A) (A) (A)
                 (A) (A) (A) (A) (A) (A) (A) (A) (A) (A) (A) (A)
                 (A) (A) (A) (A) (A) (A) (A) (A) (A) (A) (A) (A)
                 (A) (A) (A) (A) (A) (A) (A) (A) (A) (A) (A) (A)
                 (A) (A) (A) (A) (A) (A) (A) (A) (A) (A) (A) (A)
                 (A) (A) (A) (A) (A) (A) (A) (A) (A) (A) (A) (A)
                 (A) (A) (A) (A) (A) (A) (A) (A) (A) (A) (A) (A)
                 (A) (A) (A) (A) (A) (A) (A) (A) (A) (A) (A) (A)
                 (A) (A) (A) (A) (A) (A) (A) (A) (A) (A) (A) (A)
                 (A) (A) (A) (A) (A) (A) (A) (A) (A) (A) (A) (A)
                 (A) (A) (A) (A) (A) (A) (A) (A) (A) (A) (A) (A)
                 (A) (A) (A) (A) (A) (A) (A) (A) (A) (A) (A) (A)
                 (A) (A) (A) (A) (A) (A) (A) (A) (A) (A) (A) (A)
                 (A) (A) (A) (A) (A) (A) (A) (A) (A) (A) (A) (A)
                 (A) (A) (A) (A) (A) (A) (A) (A) (A) (A) (A) (A)
                 (A) (A) (A) (A) (A) (A) (A) (A) (A) (A) (A) (A)
                 (A) (A) (A) (A) (A) (A) (A) (A) (A) (A) (A) (A)
                 (A) (A) (A) (A) (A) (A) (A) (A) (A) (A) (A) (A)
                 (A) (A) (A) (A) (A) (A) (A) (A) (A) (A) (A) (A)
                 (A) (A) (A) (A) (A) (A) (A) (A) (A) (A) (A) (A)
                 (A) (A) (A) (A) (A) (A) (A) (A) (A) (A) (A) (A)
                 (A) (A) (A) (A) (A) (A) (A) (A) (A) (A) (A) (A)
                 (A) (A) (A) (A) (A) (A) (A) (A) (A) (A) (A) (A)
                 (A) (A) (A) (A) (A) (A) (A) (A) (A) (A) (A) (A)
                 (A) (A) (A) (A) (A) (A) (A) (A) (A) (A) (A) (A)
                 (A) (A) (A) (A) (A) (A) (A) (A) (A) (A) (A) (A)
                 (A) (A) (A) (A) (A) (A) (A) (A) (A) (A) (A) (A)
                 (A) (A) (A) (A) (A) (A) (A) (A) (A) (A) (A) (A)
                 (A) (A) (A) (A) (A) (A) (A) (A) (A) (A) (A) (A)
                 (A) (A) (A) (A) (A) (A) (A) (A) (A) (A) (A) (A)
                 (A) (A) (A) (A) (A) (A) (A) (A) (A) (A) (A) (A)
                 (A) (A) (A) (A) (A) (A) (A) (A) (A) (A) (A) (A)
                 (A) (A) (A) (A) (A) (A) (A) (A) (A) (A) (A) (A)
                 (A) (A) (A) (A) (A) (A) (A) (A) (A) (A) (A) (A)
                 (A) (A) (A) (A) (A) (A) (A) (A) (A) (A) (A) (A)
                 (A) (A) (A) (A) (A) (A) (A) (A) (A) (A) (A) (A)
                 (A) (A) (A) (A) (A) (A) (A) (A) (A) (A) (A) (A)
                 (A) (A) (A) (A) (A) (A) (A) (A) (A) (A) (A) (A)
                 (A) (A) (A) (A) (A) (A) (A) (A) (A) (A) (A) (A)
                 (A) (A) (A) (A) (A) (A) (A) (A) (A) (A) (A) (A)
                 (A) (A) (A) (A) (A) (A) (A) (A) (A) (A) (A) (A)
                 (A) (A) (A) (A) (A) (A) (A) (A) (A) (A) (A) (A)
                 (A) (A) (A) (A) (A) (A) (A) (A) (A) (A) (A) (A)
                 (A) (A) (A) (A) (A) (A) (A) (A) (A) (A) (A) (A)
                 (A) (A) (A) (A) (A) (A) (A) (A) (A) (A) (A) (A)
                 (A) (A) (A) (A) (A) (A) (A) (A) (A) (A) (A) (A)
                 (A) (A) (A) (A) (A) (A) (A) (A) (A) (A) (A) (A)
                 (A) (A) (A) (A) (A) (A) (A) (A) (A) (A) (A) (A)
                 (A) (A) (A) (A) (A) (A) (A) (A) (A) (A) (A) (A)
                 (A) (A) (A) (A) (A) (A) (A) (A) (A) (A) (A) (A)
                 (A) (A) (A) (A) (A) (A) (A) (A) (A) (A) (A) (A)
                 (A) (A) (A) (A) (A) (A) (A) (A) (A) (A) (A) (A)
                 (A) (A) (A) (A) (A) (A) (A) (A) (A) (A) (A) (A)
                 (A) (A) (A) (A) (A) (A) (A) (A) (A) (A) (A) (A)
                 (A) (A) (A) (A) (A) (A) (A) (A) (A) (A) (A) (A)
                 (A) (A) (A) (A) (A) (A) (A) (A) (A) (A) (A) (A)
                 (A) (A) (A) (A) (A) (A) (A) (A) (A) (A) (A) (A)
                 (A) (A) (A) (A) (A) (A) (A) (A) (A) (A) (A) (A)
                 (A) (A) (A) (A) (A) (A) (A) (A) (A) (A) (A) (A)
                 (A) (A) (A) (A) (A) (A) (A) (A) (A) (A) (A) (A)
                 (A) (A) (A) (A) (A) (A) (A) (A) (A) (A) (A) (A)
                 (A) (A) (A) (A) (A) (A) (A) (A) (A) (A) (A) (A)
                 (A) (A) (A) (A) (A) (A) (A) (A) (A) (A) (A) (A)
                 (A) (A) (A) (A) (A) (A) (A) (A) (A) (A) (A) (A)
                 (A) (A) (A) (A) (A) (A) (A) (A) (A) (A) (A) (A)
                 (A) (A) (A) (A) (A) (A) (A) (A) (A) (A) (A) (A)
                 (A) (A) (A) (A) (A) (A) (A) (A) (A) (A) (A) (A)
                 (A) (A) (A) (A) (A) (A) (A) (A) (A) (A) (A) (A)
                 (A) (A) (A) (A) (A) (A) (A) (A) (A) (A) (A) (A)
                 (A) (A) (A) (A) (A) (A) (A) (A) (A) (A) (A) (A)
                 (A) (A) (A) (A) (A) (A) (A) (A) (A) (A) (A) (A)
                 (A) (A) (A) (A) (A) (A) (A) (A) (A) (A) (A) (A)
                 (A) (A) (A) (A) (A) (A) (A) (A) (A) (A) (A) (A)
                 (A) (A) (A) (A) (A) (A) (A) (A) (A) (A) (A) (A)
                 (A) (A) (A) (A) (A) (A) (A) (A) (A) (A) (A) (A)
                 (A) (A) (A) (A) (A) (A) (A) (A) (A) (A) (A) (A)
                 (A) (A) (A) (A) (A) (A) (A) (A) (A) (A) (A) (A)
                 (A) (A) (A) (A) (A) (A) (A) (A) (A) (A) (A) (A)
                 (A) (A) (A) (A) (A) (A) (A) (A) (A) (A) (A) (A)
                 (A) (A) (A) (A) (A) (A) (A) (A) (A) (A) (A) (A)
                 (A) (A) (A) (A) (A) (A) (A) (A) (A) (A) (A) (A)
                 (A) (A) (A) (A) (A) (A) (A) (A) (A) (A) (A) (A)
                 (A) (A) (A) (A) (A) (A) (A) (A) (A) (A) (A) (A)
                 (A) (A) (A) (A) (A) (A) (A) (A) (A) (A) (A) (A)
                 (A) (A) (A) (A) (A) (A) (A) (A) (A) (A) (A) (A)
                 (A) (A) (A) (A) (A) (A) (A) (A) (A) (A) (A) (A)
                 (A) (A) (A) (A) (A) (A) (A) (A) (A) (A) (A) (A)
                 (A) (A) (A) (A) (A) (A) (A) (A) (A) (A) (A) (A)
                 (A) (A) (A) (A) (A) (A) (A) (A) (A) (A) (A) (A)
                 (A) (A) (A) (A) (A) (A) (A) (A) (A) (A) (A) (A)
                 (A) (A) (A) (A) (A) (A) (A) (A) (A) (A) (A) (A)
                 (A) (A) (A) (A) (A) (A) (A) (A) (A) (A) (A) (A)
                 (A) (A) (A) (A) (A) (A) (A) (A) (A) (A) (A) (A)
                 (A) (A) (A) (A) (A) (A) (A) (A) (A) (A) (A) (A)
                 (A) (A) (A) (A) (A) (A) (A) (A) (A) (A) (A) (A)
                 (A) (A) (A) (A) (A) (A) (A) (A) (A) (A) (A) (A)
                 (A) (A) (A) (A) (A) (A) (A) (A) (A) (A) (A) (A)
                 (A) (A) (A) (A) (A) (A) (A) (A) (A) (A) (A) (A)
                 (A) (A) (A) (A) (A) (A) (A) (A) (A) (A) (A) (A)
                 (A) (A) (A) (A) (A) (A) (A) (A) (A) (A) (A) (A)
                 (A) (A) (A) (A) (A) (A) (A) (A) (A) (A) (A) (A)
                 (A) (A) (A) (A) (A) (A) (A) (A) (A) (A) (A) (A)
                 (A) (A) (A) (A) (A) (A) (A) (A) (A) (A) (A) (A)
                 (A) (A) (A) (A) (A) (A) (A) (A) (A) (A) (A) (A)
                 (A) (A) (A) (A) (A) (A) (A) (A) (A) (A) (A) (A)
                 (A) (A) (A) (A) (A) (A) (A) (A) (A) (A) (A) (A)
                 (A) (A) (A) (A) (A) (A) (A) (A) (A) (A) (A) (A)
                 (A) (A) (A) (A) (A) (A) (A) (A) (A) (A) (A) (A)
                 (A) (A) (A) (A) (A) (A) (A) (A) (A) (A) (A) (A)
                 (A) (A) (A) (A) (A) (A) (A) (A) (A) (A) (A) (A)
                 (A) (A) (A) (A) (A) (A) (A) (A) (A) (A) (A) (A)
                 (A) (A) (A) (A) (A) (A) (A) (A) (A) (A) (A) (A)
                 (A) (A) (A) (A) (A) (A) (A) (A) (A) (A) (A) (A)
                 (A) (A) (A) (A) (A) (A) (A) (A) (A) (A) (A) (A)
                 (A) (A) (A) (A) (A) (A) (A) (A) (A) (A) (A) (A)
                 (A) (A) (A) (A) (A) (A) (A) (A) (A) (A) (A) (A)
                 (A) (A) (A) (A) (A) (A) (A) (A) (A) (A) (A) (A)
                 (A) (A) (A) (A) (A) (A) (A) (A) (A) (A) (A) (A)
                 (A) (A) (A) (A) (A) (A) (A) (A) (A) (A) (A) (A)
                 (A) (A) (A) (A) (A) (A) (A) (A) (A) (A) (A) (A)
                 (A) (A) (A) (A) (A) (A) (A) (A) (A) (A) (A) (A)
                 (A) (A) (A) (A) (A) (A) (A) (A) (A) (A) (A) (A)
                 (A) (A) (A) (A) (A) (A) (A) (A) (A) (A) (A) (A)
                 (A) (A) (A) (A) (A) (A) (A) (A) (A) (A) (A) (A)
                 (A) (A) (A) (A) (A) (A) (A) (A) (A) (A) (A) (A)
                 (A) (A) (A) (A) (A) (A) (A) (A) (A) (A) (A) (A)
                 (A) (A) (A) (A) (A) (A) (A) (A) (A) (A) (A) (A)
                 (A) (A) (A) (A) (A) (A) (A) (A) (A) (A) (A) (A)
                 (A) (A) (A) (A) (A) (A) (A) (A) (A) (A) (A) (A)
                 (A) (A) (A) (A) (A) (A) (A) (A) (A) (A) (A) (A)
                 (A) (A) (A) (A) (A) (A) (A) (A) (A) (A) (A) (A)
                 (A) (A) (A) (A) (A) (A) (A) (A) (A) (A) (A) (A)
                 (A) (A) (A) (A) (A) (A) (A) (A) (A) (A) (A) (A)
                 (A) (A) (A) (A) (A) (A) (A) (A) (A) (A) (A) (A)
                 (A) (A) (A) (A) (A) (A) (A) (A) (A) (A) (A) (A)
                 (A) (A) (A) (A) (A) (A) (A) (A) (A) (A) (A) (A)
                 (A) (A) (A) (A) (A) (A) (A) (A) (A) (A) (A) (A)
                 (A) (A) (A) (A) (A) (A) (A) (A) (A) (A) (A) (A)
                 (A) (A) (A) (A) (A) (A) (A) (A) (A) (A) (A) (A)
                 (A) (A) (A) (A) (A) (A) (A) (A) (A) (A) (A) (A)
                 (A) (A) (A) (A) (A) (A) (A) (A) (A) (A) (A) (A)
                 (A) (A) (A) (A) (A) (A) (A) (A) (A) (A) (A) (A)
                 (A) (A) (A) (A) (A) (A) (A) (A) (A) (A) (A) (A)
                 (A) (A) (A) (A) (A) (A) (A) (A) (A) (A) (A) (A)
                 (A) (A) (A) (A) (A) (A) (A) (A) (A) (A) (A) (A)
                 (A) (A) (A) (A) (A) (A) (A) (A) (A) (A) (A) (A)
                 (A) (A) (A) (A) (A) (A) (A) (A) (A) (A) (A) (A)
                 (A) (A) (A) (A) (A) (A) (A) (A) (A) (A) (A) (A)
                 (A) (A) (A) (A) (A) (A) (A) (A) (A) (A) (A) (A)
                 (A) (A) (A) (A) (A) (A) (A) (A) (A) (A) (A) (A)
                 (A) (A) (A) (A) (A) (A) (A) (A) (A) (A) (A) (A)
                 (A) (A) (A) (A) (A) (A) (A) (A) (A) (A) (A) (A)
                 (A) (A) (A) (A) (A) (A) (A) (A) (A) (A) (A) (A)
                 (A) (A) (A) (A) (A) (A) (A) (A) (A) (A) (A) (A)
                 (A) (A) (A) (A) (A) (A) (A) (A) (A) (A) (A) (A)
                 (A) (A) (A) (A) (A) (A) (A) (A) (A) (A) (A) (A)
                 (A) (A) (A) (A) (A)
 The electronic state is 1-A.
 Alpha  occ. eigenvalues --  -25.20725 -25.20709 -19.69390 -19.69380 -19.69301
 Alpha  occ. eigenvalues --  -19.69283 -19.67125 -19.66993 -19.66192 -19.64187
 Alpha  occ. eigenvalues --  -19.64182 -19.63595 -19.63487 -19.63354 -19.63036
 Alpha  occ. eigenvalues --  -15.02909 -15.02862 -14.78985 -14.78984 -10.67807
 Alpha  occ. eigenvalues --  -10.64986 -10.64774 -10.62273 -10.62094 -10.61112
 Alpha  occ. eigenvalues --  -10.60787 -10.60688 -10.60463 -10.60157 -10.60115
 Alpha  occ. eigenvalues --  -10.59971 -10.59938 -10.59907 -10.59793 -10.59331
 Alpha  occ. eigenvalues --  -10.59313 -10.58987 -10.58937 -10.58888 -10.58884
 Alpha  occ. eigenvalues --  -10.58836 -10.58443 -10.58434 -10.58423 -10.58209
 Alpha  occ. eigenvalues --  -10.58185 -10.57870 -10.57802 -10.57404 -10.57351
 Alpha  occ. eigenvalues --  -10.57090 -10.56244 -10.56244 -10.56088 -10.56009
 Alpha  occ. eigenvalues --  -10.56007 -10.55942 -10.55930 -10.55816 -10.55740
 Alpha  occ. eigenvalues --  -10.55473 -10.55454 -10.55251 -10.54986 -10.54942
 Alpha  occ. eigenvalues --  -10.54936 -10.54813 -10.54577  -7.13613  -1.38815
 Alpha  occ. eigenvalues --   -1.38212  -1.32687  -1.29445  -1.20597  -1.20379
 Alpha  occ. eigenvalues --   -1.19994  -1.19910  -1.19841  -1.17101  -1.17069
 Alpha  occ. eigenvalues --   -1.15956  -1.15824  -1.15096  -1.14492  -1.11058
 Alpha  occ. eigenvalues --   -1.09084  -1.03921  -0.97757  -0.97535  -0.96067
 Alpha  occ. eigenvalues --   -0.94611  -0.93867  -0.92132  -0.91952  -0.90936
 Alpha  occ. eigenvalues --   -0.90814  -0.88946  -0.88874  -0.88107  -0.86970
 Alpha  occ. eigenvalues --   -0.86563  -0.85934  -0.85719  -0.85003  -0.84546
 Alpha  occ. eigenvalues --   -0.83643  -0.82353  -0.82118  -0.81209  -0.80853
 Alpha  occ. eigenvalues --   -0.79640  -0.79129  -0.77380  -0.77013  -0.76247
 Alpha  occ. eigenvalues --   -0.74141  -0.74048  -0.73294  -0.72351  -0.71349
 Alpha  occ. eigenvalues --   -0.70843  -0.70710  -0.70248  -0.70151  -0.70064
 Alpha  occ. eigenvalues --   -0.69540  -0.68706  -0.68413  -0.68228  -0.67585
 Alpha  occ. eigenvalues --   -0.66810  -0.66294  -0.65338  -0.64841  -0.64116
 Alpha  occ. eigenvalues --   -0.63925  -0.63665  -0.63558  -0.62986  -0.62409
 Alpha  occ. eigenvalues --   -0.62381  -0.62203  -0.61845  -0.60301  -0.59550
 Alpha  occ. eigenvalues --   -0.59291  -0.59006  -0.58724  -0.58655  -0.58470
 Alpha  occ. eigenvalues --   -0.58178  -0.57729  -0.57574  -0.57478  -0.57223
 Alpha  occ. eigenvalues --   -0.56957  -0.56628  -0.56376  -0.55812  -0.55521
 Alpha  occ. eigenvalues --   -0.55277  -0.55110  -0.54773  -0.54663  -0.54307
 Alpha  occ. eigenvalues --   -0.54010  -0.53700  -0.53515  -0.53385  -0.53183
 Alpha  occ. eigenvalues --   -0.53028  -0.52716  -0.52396  -0.52309  -0.52073
 Alpha  occ. eigenvalues --   -0.51994  -0.51876  -0.51506  -0.51042  -0.50455
 Alpha  occ. eigenvalues --   -0.50362  -0.50088  -0.49961  -0.49632  -0.49568
 Alpha  occ. eigenvalues --   -0.49353  -0.48990  -0.48889  -0.48713  -0.48593
 Alpha  occ. eigenvalues --   -0.48301  -0.48199  -0.47902  -0.47806  -0.47549
 Alpha  occ. eigenvalues --   -0.47452  -0.47062  -0.46994  -0.46514  -0.46254
 Alpha  occ. eigenvalues --   -0.46141  -0.45675  -0.45386  -0.45224  -0.44855
 Alpha  occ. eigenvalues --   -0.44810  -0.44733  -0.44416  -0.44279  -0.43792
 Alpha  occ. eigenvalues --   -0.43682  -0.43251  -0.42904  -0.42747  -0.42628
 Alpha  occ. eigenvalues --   -0.42309  -0.42233  -0.41998  -0.41926  -0.41826
 Alpha  occ. eigenvalues --   -0.41675  -0.41444  -0.41098  -0.40903  -0.40783
 Alpha  occ. eigenvalues --   -0.40431  -0.39874  -0.39632  -0.39606  -0.39553
 Alpha  occ. eigenvalues --   -0.39478  -0.39186  -0.39116  -0.38874  -0.37108
 Alpha  occ. eigenvalues --   -0.36729  -0.35735  -0.34973  -0.34934  -0.34891
 Alpha  occ. eigenvalues --   -0.34601  -0.34406  -0.33911  -0.32736  -0.32695
 Alpha  occ. eigenvalues --   -0.32521  -0.32353  -0.32207  -0.31825  -0.29785
 Alpha  occ. eigenvalues --   -0.27202  -0.23324
 Alpha virt. eigenvalues --   -0.10280  -0.09008  -0.05938  -0.03423  -0.02015
 Alpha virt. eigenvalues --   -0.01426  -0.01374   0.00596   0.00706   0.00900
 Alpha virt. eigenvalues --    0.04807   0.05141   0.05281   0.05493   0.05895
 Alpha virt. eigenvalues --    0.06500   0.07199   0.07406   0.07780   0.07861
 Alpha virt. eigenvalues --    0.08379   0.08615   0.08644   0.08841   0.09033
 Alpha virt. eigenvalues --    0.09122   0.09338   0.09415   0.09489   0.09735
 Alpha virt. eigenvalues --    0.09960   0.10226   0.10366   0.10521   0.10917
 Alpha virt. eigenvalues --    0.10966   0.11216   0.11249   0.11533   0.11670
 Alpha virt. eigenvalues --    0.11736   0.11818   0.11967   0.12165   0.12390
 Alpha virt. eigenvalues --    0.12627   0.12822   0.12879   0.12973   0.13133
 Alpha virt. eigenvalues --    0.13397   0.13633   0.13786   0.13958   0.14026
 Alpha virt. eigenvalues --    0.14221   0.14415   0.14465   0.14537   0.14792
 Alpha virt. eigenvalues --    0.14815   0.15066   0.15139   0.15259   0.15477
 Alpha virt. eigenvalues --    0.15508   0.15842   0.15922   0.16024   0.16279
 Alpha virt. eigenvalues --    0.16409   0.16748   0.16851   0.17026   0.17108
 Alpha virt. eigenvalues --    0.17177   0.17599   0.17676   0.17725   0.17934
 Alpha virt. eigenvalues --    0.18006   0.18060   0.18308   0.18561   0.18608
 Alpha virt. eigenvalues --    0.18734   0.18979   0.19026   0.19098   0.19384
 Alpha virt. eigenvalues --    0.19500   0.19724   0.19889   0.20017   0.20206
 Alpha virt. eigenvalues --    0.20276   0.20473   0.20626   0.20745   0.20858
 Alpha virt. eigenvalues --    0.21159   0.21432   0.21672   0.21954   0.22046
 Alpha virt. eigenvalues --    0.22136   0.22425   0.22493   0.22618   0.22761
 Alpha virt. eigenvalues --    0.23011   0.23149   0.23354   0.23537   0.23653
 Alpha virt. eigenvalues --    0.23696   0.23757   0.23910   0.24183   0.24341
 Alpha virt. eigenvalues --    0.24401   0.24579   0.24642   0.24815   0.25025
 Alpha virt. eigenvalues --    0.25260   0.25373   0.25411   0.25673   0.25980
 Alpha virt. eigenvalues --    0.26225   0.26452   0.26552   0.26728   0.26799
 Alpha virt. eigenvalues --    0.26895   0.27019   0.27206   0.27386   0.27557
 Alpha virt. eigenvalues --    0.27663   0.27849   0.27961   0.28099   0.28165
 Alpha virt. eigenvalues --    0.28343   0.28410   0.28874   0.29132   0.29276
 Alpha virt. eigenvalues --    0.29350   0.29452   0.29642   0.29818   0.29886
 Alpha virt. eigenvalues --    0.30048   0.30185   0.30319   0.30511   0.30642
 Alpha virt. eigenvalues --    0.30732   0.31103   0.31292   0.31392   0.31773
 Alpha virt. eigenvalues --    0.32137   0.32270   0.32456   0.32581   0.32724
 Alpha virt. eigenvalues --    0.32847   0.33082   0.33173   0.33263   0.33390
 Alpha virt. eigenvalues --    0.33564   0.33739   0.33878   0.34166   0.34329
 Alpha virt. eigenvalues --    0.34394   0.34690   0.34905   0.34995   0.35126
 Alpha virt. eigenvalues --    0.35226   0.35398   0.35563   0.35691   0.35780
 Alpha virt. eigenvalues --    0.36102   0.36191   0.36327   0.36547   0.36618
 Alpha virt. eigenvalues --    0.36658   0.36814   0.36984   0.37030   0.37113
 Alpha virt. eigenvalues --    0.37247   0.37411   0.37551   0.37626   0.37791
 Alpha virt. eigenvalues --    0.37885   0.37958   0.38017   0.38120   0.38307
 Alpha virt. eigenvalues --    0.38457   0.38797   0.38862   0.39044   0.39179
 Alpha virt. eigenvalues --    0.39313   0.39496   0.39646   0.39746   0.39793
 Alpha virt. eigenvalues --    0.40034   0.40056   0.40130   0.40222   0.40317
 Alpha virt. eigenvalues --    0.40451   0.40557   0.40783   0.40992   0.41241
 Alpha virt. eigenvalues --    0.41285   0.41423   0.41591   0.41825   0.41966
 Alpha virt. eigenvalues --    0.42114   0.42292   0.42339   0.42495   0.42775
 Alpha virt. eigenvalues --    0.42810   0.42925   0.43089   0.43164   0.43271
 Alpha virt. eigenvalues --    0.43434   0.43622   0.43658   0.43764   0.43910
 Alpha virt. eigenvalues --    0.44055   0.44294   0.44452   0.44529   0.44741
 Alpha virt. eigenvalues --    0.44997   0.45118   0.45215   0.45483   0.45559
 Alpha virt. eigenvalues --    0.45674   0.45694   0.45754   0.46015   0.46126
 Alpha virt. eigenvalues --    0.46219   0.46411   0.46441   0.46558   0.46894
 Alpha virt. eigenvalues --    0.46975   0.47120   0.47160   0.47433   0.47752
 Alpha virt. eigenvalues --    0.47811   0.47906   0.48043   0.48211   0.48323
 Alpha virt. eigenvalues --    0.48343   0.48534   0.48568   0.48654   0.48762
 Alpha virt. eigenvalues --    0.49019   0.49228   0.49268   0.49366   0.49441
 Alpha virt. eigenvalues --    0.49617   0.49691   0.49928   0.50019   0.50184
 Alpha virt. eigenvalues --    0.50266   0.50371   0.50587   0.50787   0.50832
 Alpha virt. eigenvalues --    0.50994   0.51105   0.51344   0.51376   0.51535
 Alpha virt. eigenvalues --    0.51735   0.51801   0.51869   0.52071   0.52359
 Alpha virt. eigenvalues --    0.52476   0.52570   0.52813   0.52849   0.52904
 Alpha virt. eigenvalues --    0.53153   0.53260   0.53401   0.53679   0.53852
 Alpha virt. eigenvalues --    0.53874   0.54177   0.54352   0.54478   0.54576
 Alpha virt. eigenvalues --    0.54808   0.54975   0.55006   0.55152   0.55309
 Alpha virt. eigenvalues --    0.55440   0.55670   0.55943   0.56045   0.56164
 Alpha virt. eigenvalues --    0.56426   0.56548   0.56798   0.57056   0.57243
 Alpha virt. eigenvalues --    0.57528   0.57581   0.57736   0.57897   0.58120
 Alpha virt. eigenvalues --    0.58337   0.58515   0.58661   0.58962   0.59148
 Alpha virt. eigenvalues --    0.59368   0.59579   0.59855   0.59925   0.60053
 Alpha virt. eigenvalues --    0.60302   0.60452   0.60728   0.60933   0.61011
 Alpha virt. eigenvalues --    0.61286   0.61363   0.61712   0.61821   0.62073
 Alpha virt. eigenvalues --    0.62254   0.62357   0.62445   0.62454   0.62750
 Alpha virt. eigenvalues --    0.62930   0.63006   0.63234   0.63387   0.63591
 Alpha virt. eigenvalues --    0.63621   0.63785   0.64028   0.64173   0.64430
[...]
 Alpha virt. eigenvalues --    4.61276   4.61785   4.62127   4.62300   4.62761
 Alpha virt. eigenvalues --    4.62950   4.63373   4.63721   4.64096   4.64268
 Alpha virt. eigenvalues --    4.64641   4.64658   4.65038   4.65387   4.65785
 Alpha virt. eigenvalues --    4.66106   4.66227   4.66612   4.66815   4.66939
 Alpha virt. eigenvalues --    4.67309   4.67475   4.67691   4.68098   4.68521
 Alpha virt. eigenvalues --    4.68608   4.69172   4.69384   4.69753   4.69771
 Alpha virt. eigenvalues --    4.70295   4.70627   4.71018   4.71206   4.71510
 Alpha virt. eigenvalues --    4.71668   4.72383   4.72912   4.73155   4.73318
 Alpha virt. eigenvalues --    4.73601   4.73739   4.74258   4.74789   4.75022
 Alpha virt. eigenvalues --    4.75083   4.75230   4.75716   4.76312   4.76394
 Alpha virt. eigenvalues --    4.76641   4.77038   4.77364   4.77455   4.77614
 Alpha virt. eigenvalues --    4.78724   4.79032   4.79451   4.79657   4.79934
 Alpha virt. eigenvalues --    4.80038   4.80533   4.80852   4.81352   4.81592
 Alpha virt. eigenvalues --    4.81755   4.82071   4.82117   4.82188   4.82890
 Alpha virt. eigenvalues --    4.83142   4.83357   4.84530   4.84649   4.84777
 Alpha virt. eigenvalues --    4.85278   4.86332   4.86425   4.86686   4.87158
 Alpha virt. eigenvalues --    4.87398   4.87598   4.87697   4.88006   4.88113
 Alpha virt. eigenvalues --    4.88730   4.88733   4.89104   4.89387   4.89842
 Alpha virt. eigenvalues --    4.90077   4.90283   4.90435   4.90999   4.91260
 Alpha virt. eigenvalues --    4.91768   4.92006   4.92323   4.92422   4.92723
 Alpha virt. eigenvalues --    4.93078   4.93231   4.93520   4.93732   4.94005
 Alpha virt. eigenvalues --    4.94104   4.94492   4.94538   4.94799   4.95063
 Alpha virt. eigenvalues --    4.95229   4.95635   4.96234   4.96443   4.96552
 Alpha virt. eigenvalues --    4.96669   4.97312   4.98308   4.98571   4.98701
 Alpha virt. eigenvalues --    4.98856   4.98968   4.99362   4.99750   5.00171
 Alpha virt. eigenvalues --    5.00342   5.00872   5.01301   5.01803   5.02198
 Alpha virt. eigenvalues --    5.02706   5.02850   5.03038   5.03591   5.04127
 Alpha virt. eigenvalues --    5.04422   5.04788   5.04918   5.05188   5.05361
 Alpha virt. eigenvalues --    5.05595   5.06306   5.07122   5.07222   5.07862
 Alpha virt. eigenvalues --    5.08261   5.08451   5.08791   5.08871   5.08902
 Alpha virt. eigenvalues --    5.09310   5.09762   5.10037   5.10420   5.11072
 Alpha virt. eigenvalues --    5.11474   5.11519   5.11994   5.12029   5.12273
 Alpha virt. eigenvalues --    5.12442   5.12968   5.13091   5.13310   5.13808
 Alpha virt. eigenvalues --    5.14102   5.14206   5.14860   5.15090   5.15269
 Alpha virt. eigenvalues --    5.15296   5.15923   5.16471   5.17001   5.17108
 Alpha virt. eigenvalues --    5.17422   5.17723   5.18061   5.18275   5.18403
 Alpha virt. eigenvalues --    5.18998   5.19221   5.19425   5.19969   5.20469
 Alpha virt. eigenvalues --    5.20697   5.21373   5.21813   5.22589   5.22922
 Alpha virt. eigenvalues --    5.23025   5.23144   5.23395   5.23703   5.24437
 Alpha virt. eigenvalues --    5.24623   5.25126   5.25560   5.25716   5.26149
 Alpha virt. eigenvalues --    5.26486   5.26894   5.27103   5.27155   5.27375
 Alpha virt. eigenvalues --    5.27881   5.28427   5.28643   5.29094   5.29309
 Alpha virt. eigenvalues --    5.29376   5.29557   5.29777   5.30038   5.30097
 Alpha virt. eigenvalues --    5.30385   5.30433   5.30918   5.31040   5.31346
 Alpha virt. eigenvalues --    5.31782   5.31995   5.32334   5.32698   5.33029
 Alpha virt. eigenvalues --    5.33522   5.33727   5.34208   5.34503   5.34749
 Alpha virt. eigenvalues --    5.34820   5.35089   5.35614   5.35921   5.36451
 Alpha virt. eigenvalues --    5.36681   5.37154   5.37498   5.37781   5.37817
 Alpha virt. eigenvalues --    5.38323   5.38601   5.38992   5.39434   5.39537
 Alpha virt. eigenvalues --    5.39949   5.40578   5.40889   5.41350   5.41644
 Alpha virt. eigenvalues --    5.41968   5.42063   5.42656   5.42882   5.43360
 Alpha virt. eigenvalues --    5.43468   5.43614   5.43801   5.44866   5.44938
 Alpha virt. eigenvalues --    5.45162   5.46687   5.46897   5.47331   5.47781
 Alpha virt. eigenvalues --    5.47909   5.48330   5.48375   5.48953   5.49458
 Alpha virt. eigenvalues --    5.49965   5.50500   5.50822   5.51092   5.51631
 Alpha virt. eigenvalues --    5.51740   5.52021   5.52265   5.52372   5.52868
 Alpha virt. eigenvalues --    5.53031   5.53542   5.54764   5.55692   5.55972
 Alpha virt. eigenvalues --    5.56260   5.57338   5.57823   5.57986   5.58059
 Alpha virt. eigenvalues --    5.58615   5.58748   5.58780   5.58985   5.59313
 Alpha virt. eigenvalues --    5.59487   5.59705   5.60076   5.60157   5.60227
 Alpha virt. eigenvalues --    5.61078   5.61321   5.61691   5.61815   5.62547
 Alpha virt. eigenvalues --    5.63281   5.63393   5.64086   5.64192   5.64366
 Alpha virt. eigenvalues --    5.64697   5.65112   5.65294   5.65629   5.65750
 Alpha virt. eigenvalues --    5.66073   5.66258   5.66857   5.67122   5.67321
 Alpha virt. eigenvalues --    5.67718   5.68257   5.68558   5.69035   5.69790
 Alpha virt. eigenvalues --    5.70034   5.71226   5.71725   5.72852   5.73877
 Alpha virt. eigenvalues --    5.74976   5.77402   5.78306   5.78663   5.81926
 Alpha virt. eigenvalues --    5.82807   5.83244   5.83374   5.83740   5.85081
 Alpha virt. eigenvalues --    5.86612   5.86976   5.88257   5.89240   5.89616
 Alpha virt. eigenvalues --    5.90657   5.90872   5.91092   5.92836   5.93985
 Alpha virt. eigenvalues --    5.94656   5.96313   5.96693   5.97481   5.97621
 Alpha virt. eigenvalues --    5.99264   5.99535   6.00265   6.01368   6.01520
 Alpha virt. eigenvalues --    6.01860   6.03744   6.04334   6.04768   6.05032
 Alpha virt. eigenvalues --    6.05123   6.06656   6.07272   6.09574   6.09995
 Alpha virt. eigenvalues --    6.11022   6.11270   6.12737   6.17512   6.18095
 Alpha virt. eigenvalues --    6.19221   6.21324   6.21578   6.23373   6.23660
 Alpha virt. eigenvalues --    6.23732   6.24542   6.26282   6.26854   6.27039
 Alpha virt. eigenvalues --    6.27200   6.27977   6.29161   6.29259   6.29399
 Alpha virt. eigenvalues --    6.30825   6.30905   6.31315   6.32451   6.32724
 Alpha virt. eigenvalues --    6.34793   6.35249   6.35869   6.36699   6.38104
 Alpha virt. eigenvalues --    6.39440   6.40097   6.40943   6.44160   6.44765
 Alpha virt. eigenvalues --    6.45197   6.46050   6.46527   6.46761   6.50412
 Alpha virt. eigenvalues --    6.61431   6.66209   6.68550   6.70147   6.70319
 Alpha virt. eigenvalues --    6.72047   6.72589   6.73817   6.75462   6.76178
 Alpha virt. eigenvalues --    6.76824   6.78085   6.78321   6.81518   6.82752
 Alpha virt. eigenvalues --    6.82825   6.83304   6.83958   6.84119   6.84126
 Alpha virt. eigenvalues --    6.85050   6.85441   6.86414   6.86611   6.87132
 Alpha virt. eigenvalues --    6.87348   6.87494   6.88075   6.94111   6.94703
 Alpha virt. eigenvalues --    6.97299   6.97463   6.97667   6.97740   6.98046
 Alpha virt. eigenvalues --    6.98683   6.99387   6.99529   6.99818   7.00746
 Alpha virt. eigenvalues --    7.02438   7.02877   7.03984   7.04486   7.05088
 Alpha virt. eigenvalues --    7.05810   7.09627   7.11339   7.17615   7.19514
 Alpha virt. eigenvalues --    7.19801   7.21908   7.24296   7.26100   7.26517
 Alpha virt. eigenvalues --    7.26877   7.26983   7.27075   7.28315   7.28434
 Alpha virt. eigenvalues --    7.29210   7.31533   7.32038   7.32628   7.33189
 Alpha virt. eigenvalues --    7.33538   7.34330   7.34376   7.36554   7.36768
 Alpha virt. eigenvalues --    7.38559   7.38658   7.39434   7.39722   7.40761
 Alpha virt. eigenvalues --    7.42342   7.47439   7.47534   8.45800   8.49539
 Alpha virt. eigenvalues --    8.56645   8.61304   8.81671   8.87724   8.89699
 Alpha virt. eigenvalues --    8.91954   8.93991   9.00955  15.86745  22.67968
 Alpha virt. eigenvalues --   22.86131  22.88727  22.93160  22.99717  23.07706
 Alpha virt. eigenvalues --   23.09956  23.11488  23.12534  23.14269  23.17698
 Alpha virt. eigenvalues --   23.18676  23.23151  23.25647  23.25945  23.26329
 Alpha virt. eigenvalues --   23.27424  23.28715  23.30221  23.30542  23.30699
 Alpha virt. eigenvalues --   23.33344  23.33864  23.34944  23.35937  23.36764
 Alpha virt. eigenvalues --   23.36953  23.37562  23.40737  23.42521  23.43360
 Alpha virt. eigenvalues --   23.45103  23.46929  23.47658  23.50864  23.53469
 Alpha virt. eigenvalues --   23.53638  23.54222  23.55433  23.58355  23.59437
 Alpha virt. eigenvalues --   23.61989  23.71448  23.76580  23.86453  23.94784
 Alpha virt. eigenvalues --   23.98204  24.09842  24.10230  32.50935  32.66811
 Alpha virt. eigenvalues --   33.16788  33.27698  44.10526  44.12361  44.16716
 Alpha virt. eigenvalues --   44.17749  44.27186  44.28402  44.29294  44.42400
 Alpha virt. eigenvalues --   44.43939  44.47719  44.49618  44.62057  44.62153
 Alpha virt. eigenvalues --   57.33465  57.60714
          Condensed to atoms (all electrons):
 Mulliken charges:
               1
     1  B    0.340278
     2  N   -0.109181
     3  C   -0.042091
     4  C   -0.062814
     5  C   -0.052590
     6  C    0.110863
     7  C    0.192642
     8  C   -0.091072
     9  O   -0.274543
    10  C   -0.489884
    11  C    0.164568
    12  C   -0.086740
    13  C    0.011916
    14  C    0.024354
    15  C   -0.070337
    16  C   -0.091093
    17  N    0.447587
    18  O   -0.333393
    19  O   -0.324002
    20  N    0.446229
    21  O   -0.330195
    22  O   -0.319970
    23  C    0.098903
    24  N   -0.080430
    25  C    0.014656
    26  C   -0.073040
    27  C   -0.014633
    28  C   -0.448703
    29  C   -0.123935
    30  C   -0.048181
    31  C   -0.020673
    32  C   -0.145119
    33  C   -0.191737
    34  C    0.223145
    35  O   -0.299553
    36  C   -0.128272
    37  C   -0.069511
    38  O   -0.339743
    39  C   -0.049732
    40  C   -0.100810
    41  O   -0.345347
    42  C   -0.045897
    43  C   -0.081874
    44  O   -0.358374
    45  C   -0.201375
    46  C   -0.166976
    47  C   -0.155296
    48  C   -0.411514
    49  C   -0.073189
    50  C   -0.079423
    51  C    0.008095
    52  C   -0.119595
    53  C   -0.194777
    54  C    0.222143
    55  O   -0.300476
    56  C   -0.126299
    57  C   -0.071611
    58  O   -0.336629
    59  C   -0.051910
    60  C   -0.112060
    61  O   -0.350909
    62  C   -0.036270
    63  C   -0.074298
    64  O   -0.359078
    65  C   -0.190465
    66  C   -0.153039
    67  C   -0.203420
    68  F   -0.330531
    69  F   -0.360541
    70  H    0.164688
    71  H    0.212273
    72  H    0.249309
    73  H    0.189507
    74  H    0.189245
    75  H    0.172165
    76  H    0.168060
    77  H    0.150367
    78  H    0.137734
    79  H    0.181994
    80  H    0.125643
    81  H    0.114424
    82  H    0.151673
    83  H    0.159234
    84  H    0.156028
    85  H    0.147587
    86  H    0.137916
    87  H    0.130448
    88  H    0.120367
    89  H    0.121923
    90  H    0.126352
    91  H    0.127675
    92  H    0.120450
    93  H    0.114507
    94  H    0.118667
    95  H    0.123748
    96  H    0.128824
    97  H    0.117478
    98  H    0.133409
    99  H    0.157001
   100  H    0.144567
   101  H    0.140925
   102  H    0.176827
   103  H    0.135716
   104  H    0.099306
   105  H    0.131223
   106  H    0.145225
   107  H    0.158960
   108  H    0.156904
   109  H    0.144185
   110  H    0.138998
   111  H    0.130379
   112  H    0.123271
   113  H    0.120932
   114  H    0.130486
   115  H    0.127310
   116  H    0.112685
   117  H    0.118052
   118  H    0.111417
   119  H    0.124747
   120  H    0.119194
   121  H    0.136675
   122  H    0.117163
   123  H    0.149785
   124  H    0.154144
 Sum of Mulliken charges =  -0.00000
 Mulliken charges with hydrogens summed into heavy atoms:
               1
     1  B    0.340278
     2  N   -0.109181
     3  C   -0.042091
     4  C    0.101875
     5  C   -0.052590
     6  C    0.110863
     7  C    0.192642
     8  C   -0.091072
     9  O   -0.274543
    10  C   -0.028301
    11  C    0.164568
    12  C    0.102768
    13  C    0.011916
    14  C    0.024354
    15  C    0.118907
    16  C    0.081071
    17  N    0.447587
    18  O   -0.333393
    19  O   -0.324002
    20  N    0.446229
    21  O   -0.330195
    22  O   -0.319970
    23  C    0.098903
    24  N   -0.080430
    25  C    0.014656
    26  C    0.095021
    27  C   -0.014633
    28  C    0.021392
    29  C    0.001707
    30  C    0.066243
    31  C   -0.020673
    32  C    0.006554
    33  C   -0.032503
    34  C    0.223145
    35  O   -0.299553
    36  C    0.175342
    37  C    0.198853
    38  O   -0.339743
    39  C    0.192559
    40  C    0.153216
    41  O   -0.345347
    42  C    0.189059
    43  C    0.160541
    44  O   -0.358374
    45  C    0.178336
    46  C   -0.009975
    47  C   -0.010729
    48  C    0.041954
    49  C    0.026117
    50  C    0.051800
    51  C    0.008095
    52  C    0.025630
    53  C   -0.035817
    54  C    0.222143
    55  O   -0.300476
    56  C    0.174789
    57  C    0.197765
    58  O   -0.336629
    59  C    0.192294
    60  C    0.145735
    61  O   -0.350909
    62  C    0.194468
    63  C    0.161866
    64  O   -0.359078
    65  C    0.182567
    66  C   -0.003253
    67  C   -0.049276
    68  F   -0.330531
    69  F   -0.360541
 Electronic spatial extent (au):  <R**2>=         155555.1699
 Charge=             -0.0000 electrons
 Dipole moment (field-independent basis, Debye):
    X=             -3.4294    Y=              5.9055    Z=              3.9089  Tot=              7.8687
 Quadrupole moment (field-independent basis, Debye-Ang):
   XX=           -461.0158   YY=           -501.4033   ZZ=           -413.0393
   XY=             92.8675   XZ=             -2.2179   YZ=            -47.6521
 Traceless Quadrupole moment (field-independent basis, Debye-Ang):
   XX=             -2.5297   YY=            -42.9171   ZZ=             45.4468
   XY=             92.8675   XZ=             -2.2179   YZ=            -47.6521
 Octapole moment (field-independent basis, Debye-Ang**2):
  XXX=            274.8315  YYY=           1249.1985  ZZZ=             41.2295  XYY=          -1471.6176
  XXY=            702.6885  XXZ=            395.4697  XZZ=            -63.0084  YZZ=              4.1060
  YYZ=           -302.7874  XYZ=           -123.4647
 Hexadecapole moment (field-independent basis, Debye-Ang**3):
 XXXX=        -136957.5722 YYYY=        -107512.1974 ZZZZ=          -3411.9205 XXXY=           6803.4836
 XXXZ=          -4247.2166 YYYX=           8827.4480 YYYZ=          -5002.7093 ZZZX=           -123.5941
 ZZZY=           -411.5290 XXYY=         -44437.9076 XXZZ=         -18710.7209 YYZZ=         -15812.3383
 XXYZ=          -1468.7594 YYXZ=          -1471.3793 ZZXY=            -42.7359
 N-N= 9.205501197490D+03 E-N=-2.616632597538D+04  KE= 3.304079863180D+03
 Leave Link  601 at Fri Oct 24 17:42:18 2025, MaxMem= 30870077440 cpu:             130.2 elap:               2.5
 (Enter /public/software/gauss/g16/l9999.exe)
 1\1\GINC-CU056\SP\RM062X\def2TZVPP\C49H55B1F2N4O13\BAIDING\24-Oct-2025
 \0\\#p M062X/DEF2TZVPP scrf=(solvent=water) em=GD3\\Energy calculation
  for BE_23NO2\\0,1\B,0,1.178368,-0.818729,-0.53612\N,0,2.714474,-0.616
 224,-0.624548\C,0,3.418498,0.560919,-0.590448\C,0,4.801685,0.251241,-0
 .609258\C,0,4.962068,-1.121302,-0.651951\C,0,3.637847,-1.670438,-0.642
 43\C,0,3.206301,-3.006927,-0.644403\C,0,4.238404,-4.114008,-0.566058\O
 ,0,4.696623,-4.618607,-1.576551\C,0,4.624016,-4.542597,0.843899\C,0,5.
 742965,-5.546857,0.9087\C,0,5.564789,-6.839535,0.391924\C,0,6.597672,-
 7.762223,0.449973\C,0,7.826573,-7.418058,1.032557\C,0,8.0142,-6.139795
 ,1.540429\C,0,6.976562,-5.209751,1.470786\N,0,8.895073,-8.393148,1.247
 345\O,0,10.056228,-7.986948,1.191572\O,0,8.575801,-9.552455,1.512359\N
 ,0,6.381417,-9.04619,-0.224626\O,0,5.271382,-9.566098,-0.114779\O,0,7.
 30378,-9.505846,-0.896602\C,0,1.849622,-3.344051,-0.687093\N,0,0.88703
 6,-2.336532,-0.672835\C,0,-0.348645,-2.913521,-0.731447\C,0,-0.17983,-
 4.323368,-0.796955\C,0,1.171349,-4.611125,-0.773565\C,0,1.755939,-5.98
 6968,-0.87642\C,0,-1.566703,-2.148792,-0.734991\C,0,-2.802682,-2.71097
 ,-0.683162\C,0,-4.080235,-2.016161,-0.683988\C,0,-4.212143,-0.607956,-
 0.705594\C,0,-5.458557,-0.007177,-0.705108\C,0,-6.627533,-0.7895,-0.68
 252\O,0,-7.799514,-0.081702,-0.697562\C,0,-9.058066,-0.770725,-0.70442
 4\C,0,-9.487918,-1.14711,0.709272\O,0,-10.784041,-1.722842,0.607975\C,
 0,-11.307368,-2.115232,1.876735\C,0,-12.705366,-2.685748,1.718249\O,0,
 -13.719853,-1.706565,1.494315\C,0,-13.851217,-1.269366,0.138681\C,0,-1
 5.108464,-0.432142,-0.017836\O,0,-16.32536,-1.176725,-0.030458\C,0,-16
 .836211,-1.507622,1.258251\C,0,-6.526293,-2.186124,-0.655592\C,0,-5.26
 5158,-2.776864,-0.657099\C,0,6.279831,-1.830232,-0.739976\C,0,2.953822
 ,1.923512,-0.518373\C,0,1.700652,2.434093,-0.639237\C,0,1.336794,3.841
 145,-0.533543\C,0,-0.006442,4.209232,-0.768828\C,0,-0.424033,5.528737,
 -0.688418\C,0,0.495444,6.537383,-0.363692\O,0,-0.023123,7.80432,-0.296
 842\C,0,0.81544,8.909375,0.068918\C,0,1.569763,9.454398,-1.138981\O,0,
 2.26851,10.612974,-0.701257\C,0,3.02434,11.223359,-1.74688\C,0,3.72766
 8,12.466146,-1.23197\O,0,4.867016,12.209217,-0.41288\C,0,4.57986,11.88
 6561,0.948314\C,0,5.884772,12.039519,1.726445\O,0,5.716246,11.737724,3
 .108896\C,0,5.790259,10.344899,3.403055\C,0,1.837111,6.201184,-0.12405
 6\C,0,2.240515,4.872921,-0.208332\F,0,0.6869,-0.332716,0.681044\F,0,0.
 533426,-0.148861,-1.594164\H,0,5.592284,0.989936,-0.60937\H,0,4.867525
 ,-3.642474,1.417018\H,0,3.709898,-4.945691,1.30013\H,0,4.631,-7.124858
 ,-0.07771\H,0,8.955678,-5.890596,2.014531\H,0,7.129903,-4.215577,1.876
 696\H,0,-0.97851,-5.047208,-0.878722\H,0,2.318195,-6.267032,0.020947\H
 ,0,0.953664,-6.71783,-1.002945\H,0,2.434622,-6.076899,-1.729649\H,0,-1
 .460244,-1.072143,-0.79165\H,0,-2.878349,-3.795431,-0.633196\H,0,-3.33
 0778,0.024759,-0.720766\H,0,-5.556169,1.073487,-0.723392\H,0,-9.77096,
 -0.058692,-1.126506\H,0,-9.023235,-1.648314,-1.356702\H,0,-8.783437,-1
 .860202,1.160576\H,0,-9.506918,-0.24677,1.340498\H,0,-10.660486,-2.884
 364,2.326774\H,0,-11.33279,-1.254507,2.561303\H,0,-12.713554,-3.439071
 ,0.91778\H,0,-12.96976,-3.183757,2.656726\H,0,-12.987944,-0.659236,-0.
 156976\H,0,-13.897501,-2.137,-0.53572\H,0,-15.140696,0.342584,0.762266
 \H,0,-15.052981,0.06896,-0.990317\H,0,-16.231011,-2.268108,1.763547\H,
 0,-16.893788,-0.619858,1.903505\H,0,-17.845998,-1.8997,1.108562\H,0,-7
 .407551,-2.815003,-0.628331\H,0,-5.194394,-3.860932,-0.63505\H,0,6.467
 111,-2.480723,0.120878\H,0,6.347882,-2.451339,-1.638174\H,0,7.087733,-
 1.095422,-0.776268\H,0,3.778536,2.614294,-0.359277\H,0,0.875032,1.7689
 24,-0.859165\H,0,-0.729441,3.437637,-1.018519\H,0,-1.458985,5.800647,-
 0.868904\H,0,0.132734,9.67325,0.448123\H,0,1.501817,8.633267,0.87506\H
 ,0,2.269468,8.707553,-1.539601\H,0,0.855159,9.708236,-1.935772\H,0,3.7
 63433,10.513957,-2.147862\H,0,2.355485,11.515073,-2.571462\H,0,4.10195
 2,13.02022,-2.099014\H,0,3.009679,13.106496,-0.70001\H,0,3.824423,12.5
 74043,1.354725\H,0,4.189001,10.866171,1.03596\H,0,6.664185,11.405011,1
 .281078\H,0,6.220769,13.079901,1.668339\H,0,6.760579,9.92664,3.101268\
 H,0,5.680466,10.241557,4.485495\H,0,4.993862,9.7707,2.91322\H,0,2.5688
 74,6.960145,0.123948\H,0,3.282797,4.641914,-0.013479\\Version=ES64L-G1
 6RevA.03\State=1-A\HF=-3321.6618609\RMSD=4.029e-09\Dipole=-1.3492435,2
 .3234221,1.5378955\Quadrupole=-1.880758,-31.9078472,33.7886052,69.0447
 404,-1.6489784,-35.4281338\PG=C01 [X(C49H55B1F2N4O13)]\\@


 THE MEEK SHALL INHERIT THE EARTH.
 (THE REST OF US WILL ESCAPE TO THE STARS)
 Job cpu time:       1 days  7 hours 36 minutes 44.8 seconds.
 Elapsed time:       0 days  0 hours 30 minutes 18.6 seconds.
 File lengths (MBytes):  RWF=   5658 Int=      0 D2E=      0 Chk=    489 Scr=      1
 Normal termination of Gaussian 16 at Fri Oct 24 17:42:20 2025.
