 Entering Gaussian System, Link 0=g16
 Input=BE_23NO2_reduced_sp.gjf
 Output=BE_23NO2_reduced_sp.log
 Initial command:
 /public/software/gauss/g16/l1.exe "/public/home/baiding/1024_sp/tmp_BE_23NO2_reduced_sp_1526250/Gau-2908308.inp" -scrdir="/public/home/baiding/1024_sp/tmp_BE_23NO2_reduced_sp_1526250/"
 Entering Link 1 = /public/software/gauss/g16/l1.exe PID=   2908309.
  
 Copyright (c) 1988,1990,1992,1993,1995,1998,2003,2009,2016,
            Gaussian, Inc.  All Rights Reserved.
  
 This is part of the Gaussian(R) 16 program.  It is based on
 the Gaussian(R) 09 system (copyright 2009, Gaussian, Inc.),
 the Gaussian(R) 03 system (copyright 2003, Gaussian, Inc.),
 the Gaussian(R) 98 system (copyright 1998, Gaussian, Inc.),
 the Gaussian(R) 94 system (copyright 1995, Gaussian, Inc.),
 the Gaussian 92(TM) system (copyright 1992, Gaussian, Inc.),
 the Gaussian 90(TM) system (copyright 1990, Gaussian, Inc.),
 the Gaussian 88(TM) system (copyright 1988, Gaussian, Inc.),
 the Gaussian 86(TM) system (copyright 1986, Carnegie Mellon
 University), and the Gaussian 82(TM) system (copyright 1983,
 Carnegie Mellon University). Gaussian is a federally registered
 trademark of Gaussian, Inc.
  
 This software contains proprietary and confidential information,
 including trade secrets, belonging to Gaussian, Inc.
  
 This software is provided under written license and may be
 used, copied, transmitted, or stored only in accord with that
 written license.
  
 The following legend is applicable only to US Government
 contracts under FAR:
  
                    RESTRICTED RIGHTS LEGEND
  
 Use, reproduction and disclosure by the US Government is
 subject to restrictions as set forth in subparagraphs (a)
 and (c) of the Commercial Computer Software - Restricted
 Rights clause in FAR 52.227-19.
  
 Gaussian, Inc.
 340 Quinnipiac St., Bldg. 40, Wallingford CT 06492
  
  
 ---------------------------------------------------------------
 Warning -- This program may not be used in any manner that
 competes with the business of Gaussian, Inc. or will provide
 assistance to any competitor of Gaussian, Inc.  The licensee
 of this program is prohibited from giving any competitor of
 Gaussian, Inc. access to this program.  By using this program,
 the user acknowledges that Gaussian, Inc. is engaged in the
 business of creating and licensing software in the field of
 computational chemistry and represents and warrants to the
 licensee that it is not a competitor of Gaussian, Inc. and that
 it will not use this program in any manner prohibited above.
 ---------------------------------------------------------------
  

 Cite this work as:
 Gaussian 16, Revision A.03,
 M. J. Frisch, G. W. Trucks, H. B. Schlegel, G. E. Scuseria, 
 M. A. Robb, J. R. Cheeseman, G. Scalmani, V. Barone, 
 G. A. Petersson, H. Nakatsuji, X. Li, M. Caricato, A. V. Marenich, 
 J. Bloino, B. G. Janesko, R. Gomperts, B. Mennucci, H. P. Hratchian, 
 J. V. Ortiz, A. F. Izmaylov, J. L. Sonnenberg, D. Williams-Young, 
 F. Ding, F. Lipparini, F. Egidi, J. Goings, B. Peng, A. Petrone, 
 T. Henderson, D. Ranasinghe, V. G. Zakrzewski, J. Gao, N. Rega, 
 G. Zheng, W. Liang, M. Hada, M. Ehara, K. Toyota, R. Fukuda, 
 J. Hasegawa, M. Ishida, T. Nakajima, Y. Honda, O. Kitao, H. Nakai, 
 T. Vreven, K. Throssell, J. A. Montgomery, Jr., J. E. Peralta, 
 F. Ogliaro, M. J. Bearpark, J. J. Heyd, E. N. Brothers, K. N. Kudin, 
 V. N. Staroverov, T. A. Keith, R. Kobayashi, J. Normand, 
 K. Raghavachari, A. P. Rendell, J. C. Burant, S. S. Iyengar, 
 J. Tomasi, M. Cossi, J. M. Millam, M. Klene, C. Adamo, R. Cammi, 
 J. W. Ochterski, R. L. Martin, K. Morokuma, O. Farkas, 
 J. B. Foresman, and D. J. Fox, Gaussian, Inc., Wallingford CT, 2016.
 
 ******************************************
 Gaussian 16:  ES64L-G16RevA.03 25-Dec-2016
                24-Oct-2025 
 ******************************************
 %nprocshared=64
 Will use up to   64 processors via shared memory.
 %mem=230GB
 %chk=BE_23NO2_reduced_sp.chk
 ----------------------------------------------
 #p M062X/DEF2TZVPP scrf=(solvent=water) em=GD3
 ----------------------------------------------
 1/38=1,172=1/1;
 2/12=2,17=6,18=5,40=1/2;
 3/5=44,7=202,11=2,25=1,30=1,70=2201,72=1,74=-55,124=31/1,2,3;
 4//1;
 5/5=2,38=5,53=1/2;
 6/7=2,8=2,9=2,10=2,28=1/1;
 99/5=1,9=1/99;
 Leave Link    1 at Fri Oct 24 15:49:19 2025, MaxMem= 30870077440 cpu:              18.4 elap:               0.3
 (Enter /public/software/gauss/g16/l101.exe)
 ---------------------------------------
 Energy calculation for BE_23NO2_reduced
 ---------------------------------------
 Symbolic Z-matrix:
 Charge = -1 Multiplicity = 2
 B                     1.17169  -0.82793  -0.52435 
 N                     2.70726  -0.63162  -0.62789 
 C                     3.41588   0.54297  -0.60429 
 C                     4.79728   0.22828  -0.63949 
 C                     4.95208  -1.14517  -0.68142 
 C                     3.62641  -1.68968  -0.65457 
 C                     3.19061  -3.02513  -0.64749 
 C                     4.22014  -4.13714  -0.57871 
 O                     4.66597  -4.63428  -1.59949 
 C                     4.61435  -4.57693   0.82445 
 C                     5.73059  -5.58799   0.87951 
 C                     5.51925  -6.899     0.48539 
 C                     6.54896  -7.8609    0.54266 
 C                     7.86304  -7.44786   0.91867 
 C                     8.04977  -6.12513   1.37316 
 C                     7.01149  -5.21714   1.35601 
 N                     9.01896  -8.22639   0.69418 
 O                     10.07616  -7.95619   1.34368 
 O                     8.99997  -9.1395   -0.17565 
 N                     6.17477  -9.21557   0.39769 
 O                     5.11404  -9.49508  -0.24251 
 O                     6.86873  -10.11759   0.94127 
 C                     1.83172  -3.35574  -0.67647 
 N                     0.87304  -2.34414  -0.65969 
 C                    -0.3653   -2.91604  -0.71129 
 C                    -0.20284  -4.32648  -0.77354 
 C                     1.14743  -4.61993  -0.75574 
 C                     1.72514  -5.99891  -0.85403 
 C                    -1.58037  -2.14596  -0.7135 
 C                    -2.81887  -2.70208  -0.66141 
 C                    -4.09297  -2.00044  -0.66445 
 C                    -4.21727  -0.5916   -0.68531 
 C                    -5.46047   0.01599  -0.68868 
 C                    -6.63371  -0.75994  -0.67103 
 O                    -7.80198  -0.04569  -0.6901 
 C                    -9.06406  -0.72796  -0.70514 
 C                    -9.50437  -1.10385   0.70547 
 O                    -10.80273  -1.67302   0.59545 
 C                    -11.33585  -2.06424   1.86046 
 C                    -12.73453  -2.63026   1.69222 
 O                    -13.74429  -1.64791   1.4608 
 C                    -13.86464  -1.2108    0.10413 
 C                    -15.11827  -0.36995  -0.06171 
 O                    -16.33723  -1.11098  -0.08203 
 C                    -16.8581  -1.43889   1.20343 
 C                    -6.54003  -2.15704  -0.64455 
 C                    -5.28204  -2.75462  -0.64193 
 C                     6.26607  -1.85856  -0.78449 
 C                     2.95732   1.90773  -0.5277 
 C                     1.70523   2.42408  -0.63194 
 C                     1.34999   3.83327  -0.52154 
 C                     0.00711   4.20943  -0.74532 
 C                    -0.40203   5.53139  -0.66069 
 C                     0.52586   6.53439  -0.34274 
 O                     0.01516   7.80451  -0.27126 
 C                     0.86282   8.90423   0.0891 
 C                     1.61304   9.44495  -1.12332 
 O                     2.31905   10.60092  -0.6903 
 C                     3.07489   11.20516  -1.73944 
 C                     3.78458   12.44644  -1.22962 
 O                     4.92438   12.18714  -0.41194 
 C                     4.63854   11.86873   0.95054 
 C                     5.94491   12.02107   1.72634 
 O                     5.77797   11.72278   3.10974 
 C                     5.8501    10.3305   3.40705 
 C                     1.86724   6.19006  -0.11368 
 C                     2.26212   4.85942  -0.20228 
 F                     0.69381  -0.34095   0.69808 
 F                     0.51923  -0.15378  -1.57539 
 H                     5.59063   0.96396  -0.65045 
 H                     4.86364  -3.67552   1.39498 
 H                     3.69617  -4.96539   1.28527 
 H                     4.53459  -7.22979   0.17895 
 H                     9.04318  -5.82573   1.68173 
 H                     7.18489  -4.19907   1.6902 
 H                    -1.00489  -5.04727  -0.8493 
 H                     2.27929  -6.28003   0.04804 
 H                     0.91996  -6.72568  -0.98563 
 H                     2.41057  -6.094    -1.70111 
 H                    -1.46917  -1.06988  -0.77172 
 H                    -2.9002   -3.78614  -0.61107 
 H                    -3.33239   0.03627  -0.69702 
 H                    -5.55206   1.0972   -0.7065 
 H                    -9.77077  -0.01171  -1.13051 
 H                    -9.03016  -1.60498  -1.35823 
 H                    -8.80633  -1.82102   1.16026 
 H                    -9.5228   -0.20419   1.33768 
 H                    -10.69458  -2.83571   2.31449 
 H                    -11.36304  -1.20374   2.54524 
 H                    -12.73944  -3.38376   0.8919 
 H                    -13.00716  -3.12714   2.62894 
 H                    -12.99746  -0.60332  -0.18552 
 H                    -13.90867  -2.07852  -0.57031 
 H                    -15.15361   0.40561   0.71742 
 H                    -15.05459   0.13007  -1.03425 
 H                    -16.25818  -2.19983   1.71427 
 H                    -16.91852  -0.55002   1.84691 
 H                    -17.86759  -1.82908   1.04698 
 H                    -7.42468  -2.78128  -0.62093 
 H                    -5.21731  -3.83907  -0.62044 
 H                     6.45923  -2.51186   0.07264 
 H                     6.32217  -2.47834  -1.68442 
 H                     7.07637  -1.12672  -0.82781 
 H                     3.78703   2.59514  -0.38016 
 H                     0.87353   1.76296  -0.84093 
 H                    -0.7225    3.44235  -0.98964 
 H                    -1.43681   5.80948  -0.83266 
 H                     0.18726   9.67242   0.47243 
 H                     1.55241   8.62399   0.89108 
 H                     2.30745   8.69489  -1.52709 
 H                     0.89526   9.7012   -1.91649 
 H                     3.81003   10.49155  -2.14021 
 H                     2.40532   11.49745  -2.56324 
 H                     4.15957   12.99631  -2.09903 
 H                     3.07035   13.09143  -0.6982 
 H                     3.88511   12.55884   1.35621 
 H                     4.24571   10.84939   1.04149 
 H                     6.72245   11.3841   1.28122 
 H                     6.28275   13.0607   1.66531 
 H                     6.81913   9.90984   3.10448 
 H                     5.74211   10.22991   4.48993 
 H                     5.05181   9.75654   2.92003 
 H                     2.60544   6.94428   0.12974 
 H                     3.30441   4.62199  -0.01522 
 
 ITRead=  0  0  0  0  0  0  0  0  0  0  0  0  0  0  0  0  0  0  0  0
 ITRead=  0  0  0  0  0  0  0  0  0  0  0  0  0  0  0  0  0  0  0  0
 ITRead=  0  0  0  0  0  0  0  0  0  0  0  0  0  0  0  0  0  0  0  0
 ITRead=  0  0  0  0  0  0  0  0  0  0  0  0  0  0  0  0  0  0  0  0
 ITRead=  0  0  0  0  0  0  0  0  0  0  0  0  0  0  0  0  0  0  0  0
 ITRead=  0  0  0  0  0  0  0  0  0  0  0  0  0  0  0  0  0  0  0  0
 ITRead=  0  0  0  0
 MicOpt= -1 -1 -1 -1 -1 -1 -1 -1 -1 -1 -1 -1 -1 -1 -1 -1 -1 -1 -1 -1
 MicOpt= -1 -1 -1 -1 -1 -1 -1 -1 -1 -1 -1 -1 -1 -1 -1 -1 -1 -1 -1 -1
 MicOpt= -1 -1 -1 -1 -1 -1 -1 -1 -1 -1 -1 -1 -1 -1 -1 -1 -1 -1 -1 -1
 MicOpt= -1 -1 -1 -1 -1 -1 -1 -1 -1 -1 -1 -1 -1 -1 -1 -1 -1 -1 -1 -1
 MicOpt= -1 -1 -1 -1 -1 -1 -1 -1 -1 -1 -1 -1 -1 -1 -1 -1 -1 -1 -1 -1
 MicOpt= -1 -1 -1 -1 -1 -1 -1 -1 -1 -1 -1 -1 -1 -1 -1 -1 -1 -1 -1 -1
 MicOpt= -1 -1 -1 -1
 NAtoms=    124 NQM=      124 NQMF=       0 NMMI=      0 NMMIF=      0
                NMic=       0 NMicF=      0.
                    Isotopes and Nuclear Properties:
 (Nuclear quadrupole moments (NQMom) in fm**2, nuclear magnetic moments (NMagM)
  in nuclear magnetons)

  Atom         1           2           3           4           5           6           7           8           9          10
 IAtWgt=          11          14          12          12          12          12          12          12          16          12
 AtmWgt=  11.0093053  14.0030740  12.0000000  12.0000000  12.0000000  12.0000000  12.0000000  12.0000000  15.9949146  12.0000000
 NucSpn=           3           2           0           0           0           0           0           0           0           0
 AtZEff=  -0.0000000  -0.0000000  -0.0000000  -0.0000000  -0.0000000  -0.0000000  -0.0000000  -0.0000000  -0.0000000  -0.0000000
 NQMom=    4.0590000   2.0440000   0.0000000   0.0000000   0.0000000   0.0000000   0.0000000   0.0000000   0.0000000   0.0000000
 NMagM=    2.6886370   0.4037610   0.0000000   0.0000000   0.0000000   0.0000000   0.0000000   0.0000000   0.0000000   0.0000000
 AtZNuc=   5.0000000   7.0000000   6.0000000   6.0000000   6.0000000   6.0000000   6.0000000   6.0000000   8.0000000   6.0000000

  Atom        11          12          13          14          15          16          17          18          19          20
 IAtWgt=          12          12          12          12          12          12          14          16          16          14
 AtmWgt=  12.0000000  12.0000000  12.0000000  12.0000000  12.0000000  12.0000000  14.0030740  15.9949146  15.9949146  14.0030740
 NucSpn=           0           0           0           0           0           0           2           0           0           2
 AtZEff=  -0.0000000  -0.0000000  -0.0000000  -0.0000000  -0.0000000  -0.0000000  -0.0000000  -0.0000000  -0.0000000  -0.0000000
 NQMom=    0.0000000   0.0000000   0.0000000   0.0000000   0.0000000   0.0000000   2.0440000   0.0000000   0.0000000   2.0440000
 NMagM=    0.0000000   0.0000000   0.0000000   0.0000000   0.0000000   0.0000000   0.4037610   0.0000000   0.0000000   0.4037610
 AtZNuc=   6.0000000   6.0000000   6.0000000   6.0000000   6.0000000   6.0000000   7.0000000   8.0000000   8.0000000   7.0000000

  Atom        21          22          23          24          25          26          27          28          29          30
 IAtWgt=          16          16          12          14          12          12          12          12          12          12
 AtmWgt=  15.9949146  15.9949146  12.0000000  14.0030740  12.0000000  12.0000000  12.0000000  12.0000000  12.0000000  12.0000000
 NucSpn=           0           0           0           2           0           0           0           0           0           0
 AtZEff=  -0.0000000  -0.0000000  -0.0000000  -0.0000000  -0.0000000  -0.0000000  -0.0000000  -0.0000000  -0.0000000  -0.0000000
 NQMom=    0.0000000   0.0000000   0.0000000   2.0440000   0.0000000   0.0000000   0.0000000   0.0000000   0.0000000   0.0000000
 NMagM=    0.0000000   0.0000000   0.0000000   0.4037610   0.0000000   0.0000000   0.0000000   0.0000000   0.0000000   0.0000000
 AtZNuc=   8.0000000   8.0000000   6.0000000   7.0000000   6.0000000   6.0000000   6.0000000   6.0000000   6.0000000   6.0000000

  Atom        31          32          33          34          35          36          37          38          39          40
 IAtWgt=          12          12          12          12          16          12          12          16          12          12
 AtmWgt=  12.0000000  12.0000000  12.0000000  12.0000000  15.9949146  12.0000000  12.0000000  15.9949146  12.0000000  12.0000000
 NucSpn=           0           0           0           0           0           0           0           0           0           0
 AtZEff=  -0.0000000  -0.0000000  -0.0000000  -0.0000000  -0.0000000  -0.0000000  -0.0000000  -0.0000000  -0.0000000  -0.0000000
 NQMom=    0.0000000   0.0000000   0.0000000   0.0000000   0.0000000   0.0000000   0.0000000   0.0000000   0.0000000   0.0000000
 NMagM=    0.0000000   0.0000000   0.0000000   0.0000000   0.0000000   0.0000000   0.0000000   0.0000000   0.0000000   0.0000000
 AtZNuc=   6.0000000   6.0000000   6.0000000   6.0000000   8.0000000   6.0000000   6.0000000   8.0000000   6.0000000   6.0000000

  Atom        41          42          43          44          45          46          47          48          49          50
 IAtWgt=          16          12          12          16          12          12          12          12          12          12
 AtmWgt=  15.9949146  12.0000000  12.0000000  15.9949146  12.0000000  12.0000000  12.0000000  12.0000000  12.0000000  12.0000000
 NucSpn=           0           0           0           0           0           0           0           0           0           0
 AtZEff=  -0.0000000  -0.0000000  -0.0000000  -0.0000000  -0.0000000  -0.0000000  -0.0000000  -0.0000000  -0.0000000  -0.0000000
 NQMom=    0.0000000   0.0000000   0.0000000   0.0000000   0.0000000   0.0000000   0.0000000   0.0000000   0.0000000   0.0000000
 NMagM=    0.0000000   0.0000000   0.0000000   0.0000000   0.0000000   0.0000000   0.0000000   0.0000000   0.0000000   0.0000000
 AtZNuc=   8.0000000   6.0000000   6.0000000   8.0000000   6.0000000   6.0000000   6.0000000   6.0000000   6.0000000   6.0000000

  Atom        51          52          53          54          55          56          57          58          59          60
 IAtWgt=          12          12          12          12          16          12          12          16          12          12
 AtmWgt=  12.0000000  12.0000000  12.0000000  12.0000000  15.9949146  12.0000000  12.0000000  15.9949146  12.0000000  12.0000000
 NucSpn=           0           0           0           0           0           0           0           0           0           0
 AtZEff=  -0.0000000  -0.0000000  -0.0000000  -0.0000000  -0.0000000  -0.0000000  -0.0000000  -0.0000000  -0.0000000  -0.0000000
 NQMom=    0.0000000   0.0000000   0.0000000   0.0000000   0.0000000   0.0000000   0.0000000   0.0000000   0.0000000   0.0000000
 NMagM=    0.0000000   0.0000000   0.0000000   0.0000000   0.0000000   0.0000000   0.0000000   0.0000000   0.0000000   0.0000000
 AtZNuc=   6.0000000   6.0000000   6.0000000   6.0000000   8.0000000   6.0000000   6.0000000   8.0000000   6.0000000   6.0000000

  Atom        61          62          63          64          65          66          67          68          69          70
 IAtWgt=          16          12          12          16          12          12          12          19          19           1
 AtmWgt=  15.9949146  12.0000000  12.0000000  15.9949146  12.0000000  12.0000000  12.0000000  18.9984033  18.9984033   1.0078250
 NucSpn=           0           0           0           0           0           0           0           1           1           1
 AtZEff=  -0.0000000  -0.0000000  -0.0000000  -0.0000000  -0.0000000  -0.0000000  -0.0000000  -0.0000000  -0.0000000  -0.0000000
 NQMom=    0.0000000   0.0000000   0.0000000   0.0000000   0.0000000   0.0000000   0.0000000   0.0000000   0.0000000   0.0000000
 NMagM=    0.0000000   0.0000000   0.0000000   0.0000000   0.0000000   0.0000000   0.0000000   2.6288670   2.6288670   2.7928460
 AtZNuc=   8.0000000   6.0000000   6.0000000   8.0000000   6.0000000   6.0000000   6.0000000   9.0000000   9.0000000   1.0000000

  Atom        71          72          73          74          75          76          77          78          79          80
 IAtWgt=           1           1           1           1           1           1           1           1           1           1
 AtmWgt=   1.0078250   1.0078250   1.0078250   1.0078250   1.0078250   1.0078250   1.0078250   1.0078250   1.0078250   1.0078250
 NucSpn=           1           1           1           1           1           1           1           1           1           1
 AtZEff=  -0.0000000  -0.0000000  -0.0000000  -0.0000000  -0.0000000  -0.0000000  -0.0000000  -0.0000000  -0.0000000  -0.0000000
 NQMom=    0.0000000   0.0000000   0.0000000   0.0000000   0.0000000   0.0000000   0.0000000   0.0000000   0.0000000   0.0000000
 NMagM=    2.7928460   2.7928460   2.7928460   2.7928460   2.7928460   2.7928460   2.7928460   2.7928460   2.7928460   2.7928460
 AtZNuc=   1.0000000   1.0000000   1.0000000   1.0000000   1.0000000   1.0000000   1.0000000   1.0000000   1.0000000   1.0000000

  Atom        81          82          83          84          85          86          87          88          89          90
 IAtWgt=           1           1           1           1           1           1           1           1           1           1
 AtmWgt=   1.0078250   1.0078250   1.0078250   1.0078250   1.0078250   1.0078250   1.0078250   1.0078250   1.0078250   1.0078250
 NucSpn=           1           1           1           1           1           1           1           1           1           1
 AtZEff=  -0.0000000  -0.0000000  -0.0000000  -0.0000000  -0.0000000  -0.0000000  -0.0000000  -0.0000000  -0.0000000  -0.0000000
 NQMom=    0.0000000   0.0000000   0.0000000   0.0000000   0.0000000   0.0000000   0.0000000   0.0000000   0.0000000   0.0000000
 NMagM=    2.7928460   2.7928460   2.7928460   2.7928460   2.7928460   2.7928460   2.7928460   2.7928460   2.7928460   2.7928460
 AtZNuc=   1.0000000   1.0000000   1.0000000   1.0000000   1.0000000   1.0000000   1.0000000   1.0000000   1.0000000   1.0000000

  Atom        91          92          93          94          95          96          97          98          99         100
 IAtWgt=           1           1           1           1           1           1           1           1           1           1
 AtmWgt=   1.0078250   1.0078250   1.0078250   1.0078250   1.0078250   1.0078250   1.0078250   1.0078250   1.0078250   1.0078250
 NucSpn=           1           1           1           1           1           1           1           1           1           1
 AtZEff=  -0.0000000  -0.0000000  -0.0000000  -0.0000000  -0.0000000  -0.0000000  -0.0000000  -0.0000000  -0.0000000  -0.0000000
 NQMom=    0.0000000   0.0000000   0.0000000   0.0000000   0.0000000   0.0000000   0.0000000   0.0000000   0.0000000   0.0000000
 NMagM=    2.7928460   2.7928460   2.7928460   2.7928460   2.7928460   2.7928460   2.7928460   2.7928460   2.7928460   2.7928460
 AtZNuc=   1.0000000   1.0000000   1.0000000   1.0000000   1.0000000   1.0000000   1.0000000   1.0000000   1.0000000   1.0000000

  Atom       101         102         103         104         105         106         107         108         109         110
 IAtWgt=           1           1           1           1           1           1           1           1           1           1
 AtmWgt=   1.0078250   1.0078250   1.0078250   1.0078250   1.0078250   1.0078250   1.0078250   1.0078250   1.0078250   1.0078250
 NucSpn=           1           1           1           1           1           1           1           1           1           1
 AtZEff=  -0.0000000  -0.0000000  -0.0000000  -0.0000000  -0.0000000  -0.0000000  -0.0000000  -0.0000000  -0.0000000  -0.0000000
 NQMom=    0.0000000   0.0000000   0.0000000   0.0000000   0.0000000   0.0000000   0.0000000   0.0000000   0.0000000   0.0000000
 NMagM=    2.7928460   2.7928460   2.7928460   2.7928460   2.7928460   2.7928460   2.7928460   2.7928460   2.7928460   2.7928460
 AtZNuc=   1.0000000   1.0000000   1.0000000   1.0000000   1.0000000   1.0000000   1.0000000   1.0000000   1.0000000   1.0000000

  Atom       111         112         113         114         115         116         117         118         119         120
 IAtWgt=           1           1           1           1           1           1           1           1           1           1
 AtmWgt=   1.0078250   1.0078250   1.0078250   1.0078250   1.0078250   1.0078250   1.0078250   1.0078250   1.0078250   1.0078250
 NucSpn=           1           1           1           1           1           1           1           1           1           1
 AtZEff=  -0.0000000  -0.0000000  -0.0000000  -0.0000000  -0.0000000  -0.0000000  -0.0000000  -0.0000000  -0.0000000  -0.0000000
 NQMom=    0.0000000   0.0000000   0.0000000   0.0000000   0.0000000   0.0000000   0.0000000   0.0000000   0.0000000   0.0000000
 NMagM=    2.7928460   2.7928460   2.7928460   2.7928460   2.7928460   2.7928460   2.7928460   2.7928460   2.7928460   2.7928460
 AtZNuc=   1.0000000   1.0000000   1.0000000   1.0000000   1.0000000   1.0000000   1.0000000   1.0000000   1.0000000   1.0000000

  Atom       121         122         123         124
 IAtWgt=           1           1           1           1
 AtmWgt=   1.0078250   1.0078250   1.0078250   1.0078250
 NucSpn=           1           1           1           1
 AtZEff=  -0.0000000  -0.0000000  -0.0000000  -0.0000000
 NQMom=    0.0000000   0.0000000   0.0000000   0.0000000
 NMagM=    2.7928460   2.7928460   2.7928460   2.7928460
 AtZNuc=   1.0000000   1.0000000   1.0000000   1.0000000
 Leave Link  101 at Fri Oct 24 15:49:20 2025, MaxMem= 30870077440 cpu:               4.5 elap:               0.1
 (Enter /public/software/gauss/g16/l202.exe)
 Stoichiometry    C49H55BF2N4O13(1-,2)
 Framework group  C1[X(C49H55BF2N4O13)]
 Deg. of freedom   366
 Full point group                 C1      NOp   1
 Largest Abelian subgroup         C1      NOp   1
 Largest concise Abelian subgroup C1      NOp   1
                         Standard orientation:                         
 ---------------------------------------------------------------------
 Center     Atomic      Atomic             Coordinates (Angstroms)
 Number     Number       Type             X           Y           Z
 ---------------------------------------------------------------------
      1          5           0        1.171685   -0.827931   -0.524350
      2          7           0        2.707258   -0.631616   -0.627889
      3          6           0        3.415883    0.542974   -0.604286
      4          6           0        4.797276    0.228283   -0.639485
      5          6           0        4.952077   -1.145166   -0.681421
      6          6           0        3.626408   -1.689681   -0.654573
      7          6           0        3.190605   -3.025130   -0.647488
      8          6           0        4.220139   -4.137137   -0.578706
      9          8           0        4.665973   -4.634279   -1.599493
     10          6           0        4.614352   -4.576929    0.824449
     11          6           0        5.730590   -5.587989    0.879511
     12          6           0        5.519246   -6.899003    0.485394
     13          6           0        6.548957   -7.860901    0.542657
     14          6           0        7.863042   -7.447860    0.918666
     15          6           0        8.049774   -6.125133    1.373161
     16          6           0        7.011492   -5.217140    1.356010
     17          7           0        9.018965   -8.226386    0.694182
     18          8           0       10.076165   -7.956193    1.343677
     19          8           0        8.999971   -9.139501   -0.175647
     20          7           0        6.174772   -9.215573    0.397693
     21          8           0        5.114038   -9.495085   -0.242513
     22          8           0        6.868728  -10.117590    0.941268
     23          6           0        1.831716   -3.355738   -0.676472
     24          7           0        0.873036   -2.344139   -0.659689
     25          6           0       -0.365304   -2.916044   -0.711287
     26          6           0       -0.202838   -4.326479   -0.773535
     27          6           0        1.147434   -4.619929   -0.755736
     28          6           0        1.725142   -5.998910   -0.854026
     29          6           0       -1.580366   -2.145964   -0.713495
     30          6           0       -2.818873   -2.702083   -0.661413
     31          6           0       -4.092971   -2.000444   -0.664447
     32          6           0       -4.217271   -0.591604   -0.685312
     33          6           0       -5.460467    0.015986   -0.688676
     34          6           0       -6.633712   -0.759939   -0.671031
     35          8           0       -7.801977   -0.045693   -0.690098
     36          6           0       -9.064057   -0.727961   -0.705141
     37          6           0       -9.504374   -1.103846    0.705466
     38          8           0      -10.802726   -1.673019    0.595446
     39          6           0      -11.335853   -2.064241    1.860456
     40          6           0      -12.734526   -2.630256    1.692222
     41          8           0      -13.744289   -1.647905    1.460795
     42          6           0      -13.864637   -1.210801    0.104131
     43          6           0      -15.118273   -0.369951   -0.061707
     44          8           0      -16.337230   -1.110977   -0.082032
     45          6           0      -16.858099   -1.438890    1.203434
     46          6           0       -6.540030   -2.157036   -0.644548
     47          6           0       -5.282036   -2.754623   -0.641934
     48          6           0        6.266067   -1.858562   -0.784490
     49          6           0        2.957321    1.907733   -0.527702
     50          6           0        1.705225    2.424079   -0.631939
     51          6           0        1.349991    3.833271   -0.521536
     52          6           0        0.007111    4.209430   -0.745323
     53          6           0       -0.402031    5.531395   -0.660692
     54          6           0        0.525862    6.534385   -0.342737
     55          8           0        0.015164    7.804505   -0.271263
     56          6           0        0.862823    8.904235    0.089101
     57          6           0        1.613044    9.444948   -1.123323
     58          8           0        2.319050   10.600918   -0.690299
     59          6           0        3.074890   11.205157   -1.739440
     60          6           0        3.784579   12.446435   -1.229618
     61          8           0        4.924384   12.187142   -0.411943
     62          6           0        4.638537   11.868734    0.950540
     63          6           0        5.944910   12.021071    1.726338
     64          8           0        5.777971   11.722778    3.109737
     65          6           0        5.850096   10.330501    3.407051
     66          6           0        1.867238    6.190057   -0.113679
     67          6           0        2.262116    4.859416   -0.202284
     68          9           0        0.693808   -0.340949    0.698083
     69          9           0        0.519231   -0.153777   -1.575388
     70          1           0        5.590627    0.963962   -0.650452
     71          1           0        4.863636   -3.675517    1.394981
     72          1           0        3.696168   -4.965385    1.285267
     73          1           0        4.534589   -7.229791    0.178950
     74          1           0        9.043178   -5.825733    1.681731
     75          1           0        7.184885   -4.199069    1.690203
     76          1           0       -1.004888   -5.047266   -0.849304
     77          1           0        2.279291   -6.280030    0.048039
     78          1           0        0.919956   -6.725683   -0.985628
     79          1           0        2.410573   -6.094001   -1.701106
     80          1           0       -1.469166   -1.069882   -0.771722
     81          1           0       -2.900196   -3.786137   -0.611072
     82          1           0       -3.332388    0.036265   -0.697018
     83          1           0       -5.552064    1.097196   -0.706495
     84          1           0       -9.770774   -0.011711   -1.130512
     85          1           0       -9.030158   -1.604983   -1.358233
     86          1           0       -8.806325   -1.821019    1.160259
     87          1           0       -9.522803   -0.204186    1.337680
     88          1           0      -10.694575   -2.835714    2.314491
     89          1           0      -11.363037   -1.203738    2.545242
     90          1           0      -12.739442   -3.383755    0.891897
     91          1           0      -13.007163   -3.127136    2.628935
     92          1           0      -12.997459   -0.603323   -0.185521
     93          1           0      -13.908673   -2.078520   -0.570309
     94          1           0      -15.153608    0.405612    0.717424
     95          1           0      -15.054587    0.130066   -1.034252
     96          1           0      -16.258178   -2.199834    1.714266
     97          1           0      -16.918520   -0.550021    1.846913
     98          1           0      -17.867590   -1.829084    1.046982
     99          1           0       -7.424681   -2.781277   -0.620933
    100          1           0       -5.217306   -3.839074   -0.620443
    101          1           0        6.459230   -2.511861    0.072636
    102          1           0        6.322165   -2.478341   -1.684423
    103          1           0        7.076366   -1.126720   -0.827811
    104          1           0        3.787026    2.595143   -0.380161
    105          1           0        0.873533    1.762961   -0.840926
    106          1           0       -0.722501    3.442347   -0.989639
    107          1           0       -1.436807    5.809477   -0.832656
    108          1           0        0.187256    9.672417    0.472431
    109          1           0        1.552405    8.623994    0.891077
    110          1           0        2.307450    8.694887   -1.527094
    111          1           0        0.895256    9.701202   -1.916488
    112          1           0        3.810029   10.491545   -2.140212
    113          1           0        2.405317   11.497446   -2.563240
    114          1           0        4.159567   12.996311   -2.099027
    115          1           0        3.070349   13.091430   -0.698196
    116          1           0        3.885105   12.558836    1.356212
    117          1           0        4.245710   10.849388    1.041488
    118          1           0        6.722453   11.384101    1.281220
    119          1           0        6.282746   13.060695    1.665312
    120          1           0        6.819127    9.909843    3.104478
    121          1           0        5.742106   10.229905    4.489930
    122          1           0        5.051811    9.756538    2.920028
    123          1           0        2.605441    6.944284    0.129742
    124          1           0        3.304409    4.621990   -0.015220
 ---------------------------------------------------------------------
 Rotational constants (GHZ):           0.0138444           0.0111377           0.0063404
 Leave Link  202 at Fri Oct 24 15:49:20 2025, MaxMem= 30870077440 cpu:               0.2 elap:               0.0
 (Enter /public/software/gauss/g16/l301.exe)
 Standard basis: def2TZVPP (5D, 7F)
 Ernie: Thresh=  0.10000D-02 Tol=  0.10000D-05 Strict=F.
 There are  3309 symmetry adapted cartesian basis functions of A   symmetry.
 There are  2909 symmetry adapted basis functions of A   symmetry.
  2909 basis functions,  4454 primitive gaussians,  3309 cartesian basis functions
   253 alpha electrons      252 beta electrons
       nuclear repulsion energy      9199.2766305380 Hartrees.
 IExCor= 4336 DFT=T Ex+Corr=M062X ExCW=0 ScaHFX=  0.540000
 ScaDFX=  1.000000  1.000000  1.000000  1.000000 ScalE2=  1.000000  1.000000
 IRadAn=      5 IRanWt=     -1 IRanGd=            0 ICorTp=0 IEmpDi=131
 NAtoms=  124 NActive=  124 NUniq=  124 SFac= 1.00D+00 NAtFMM=   60 NAOKFM=T Big=T
 Integral buffers will be    131072 words long.
 Raffenetti 2 integral format.
 Two-electron integral symmetry is turned on.
 R6Disp:  Grimme-D3 Dispersion energy=       -0.0098807980 Hartrees.
 Nuclear repulsion after empirical dispersion term =     9199.2667497401 Hartrees.
 ------------------------------------------------------------------------------
 Polarizable Continuum Model (PCM)
 =================================
 Model                : PCM.
 Atomic radii         : UFF (Universal Force Field).
 Polarization charges : Total charges.
 Charge compensation  : None.
 Solution method      : On-the-fly selection.
 Cavity type          : Scaled VdW (van der Waals Surface) (Alpha=1.100).
 Cavity algorithm     : GePol (No added spheres)
                        Default sphere list used, NSphG=  124.
                        Lebedev-Laikov grids with approx.  5.0 points / Ang**2.
                        Smoothing algorithm: York/Karplus (Gamma=1.0000).
                        Polarization charges: spherical gaussians, with
                                              point-specific exponents (IZeta= 3).
                        Self-potential: point-specific (ISelfS= 7).
                        Self-field    : sphere-specific E.n sum rule (ISelfD= 2).
 Solvent              : Water, Eps=  78.355300 Eps(inf)=   1.777849
 ------------------------------------------------------------------------------
 GePol: Number of generator spheres                  =     124
 GePol: Total number of spheres                      =     124
 GePol: Number of exposed spheres                    =     124 (100.00%)
 GePol: Number of points                             =    8816
 GePol: Average weight of points                     =       0.13
 GePol: Minimum weight of points                     =   0.11D-11
 GePol: Maximum weight of points                     =    0.20577
 GePol: Number of points with low weight             =     574
 GePol: Fraction of low-weight points (<1% of avg)   =       6.51%
 GePol: Cavity surface area                          =   1117.790 Ang**2
 GePol: Cavity volume                                =   1268.509 Ang**3
 Leave Link  301 at Fri Oct 24 15:49:20 2025, MaxMem= 30870077440 cpu:               5.6 elap:               0.1
 (Enter /public/software/gauss/g16/l302.exe)
 NPDir=0 NMtPBC=     1 NCelOv=     1 NCel=       1 NClECP=     1 NCelD=      1
         NCelK=      1 NCelE2=     1 NClLst=     1 CellRange=     0.0.
 One-electron integrals computed using PRISM.
 One-electron integral symmetry used in STVInt
   1 Symmetry operations used in ECPInt.
 ECPInt:  NShTT=  593505 NPrTT= 1658793 LenC2=  231668 LenP2D=  432886.
 LDataN:  DoStor=T MaxTD1= 6 Len=  172
 Number of processors reduced to  58 by ecpmxn.
 NBasis=  2909 RedAO= T EigKep=  4.16D-06  NBF=  2909
 NBsUse=  2909 1.00D-06 EigRej= -1.00D+00 NBFU=  2909
 Precomputing XC quadrature grid using
 IXCGrd= 4 IRadAn=           5 IRanWt=          -1 IRanGd=           0 AccXCQ= 0.00D+00.
 Generated NRdTot=       0 NPtTot=           0 NUsed=           0 NTot=          32
 NSgBfM=  2263  2250  2263  2263  2263 MxSgAt=   124 MxSgA2=   124.
 Leave Link  302 at Fri Oct 24 15:49:51 2025, MaxMem= 30870077440 cpu:            1960.4 elap:              30.8
 (Enter /public/software/gauss/g16/l303.exe)
 DipDrv:  MaxL=1.
 Leave Link  303 at Fri Oct 24 15:49:52 2025, MaxMem= 30870077440 cpu:              57.4 elap:               1.0
 (Enter /public/software/gauss/g16/l401.exe)
 ExpMin= 6.06D-02 ExpMax= 3.55D+04 ExpMxC= 1.21D+03 IAcc=3 IRadAn=         5 AccDes= 0.00D+00
 Harris functional with IExCor= 1009 and IRadAn=       5 diagonalized for initial guess.
 HarFok:  IExCor= 1009 AccDes= 0.00D+00 IRadAn=         5 IDoV= 1 UseB2=F ITyADJ=14
 ICtDFT=  3500011 ScaDFX=  1.000000  1.000000  1.000000  1.000000
 FoFCou: FMM=F IPFlag=           0 FMFlag=      100000 FMFlg1=        2001
         NFxFlg=           0 DoJE=T BraDBF=F KetDBF=T FulRan=T
         wScrn=  0.000000 ICntrl=       500 IOpCl=  0 I1Cent=   200000004 NGrid=           0
         NMat0=    1 NMatS0=      1 NMatT0=    0 NMatD0=    1 NMtDS0=    0 NMtDT0=    0
 Petite list used in FoFCou.
 Harris En= -3320.19389181998    
 JPrj=0 DoOrth=F DoCkMO=F.
 Initial guess <Sx>= 0.0000 <Sy>= 0.0000 <Sz>= 0.5000 <S**2>= 0.7500 S= 0.5000
 Leave Link  401 at Fri Oct 24 15:50:17 2025, MaxMem= 30870077440 cpu:            1566.1 elap:              24.6
 (Enter /public/software/gauss/g16/l502.exe)
 Integral symmetry usage will be decided dynamically.
 UHF open shell SCF:
 Using DIIS extrapolation, IDIIS=  1040.
 NGot= 30870077440 LenX= 30847938834 LenY= 30836986044
 Requested convergence on RMS density matrix=1.00D-08 within 128 cycles.
 Requested convergence on MAX density matrix=1.00D-06.
 Requested convergence on             energy=1.00D-06.
 No special actions if energy rises.
 Fock matrices will be formed incrementally for  20 cycles.

 Cycle   1  Pass 1  IDiag  1:
 FoFJK:  IHMeth= 1 ICntrl=       0 DoSepK=F KAlg= 0 I1Cent=           0 FoldK=F
 IRaf= 350000000 NMat=       1 IRICut=       1 DoRegI=T DoRafI=F ISym2E= 0 IDoP0=0 IntGTp=1.
 FoFCou: FMM=T IPFlag=           0 FMFlag=      100000 FMFlg1=        2001
         NFxFlg=           0 DoJE=F BraDBF=F KetDBF=F FulRan=T
         wScrn=  0.000000 ICntrl=         0 IOpCl=  1 I1Cent=           0 NGrid=           0
         NMat0=    1 NMatS0=      1 NMatT0=    0 NMatD0=    1 NMtDS0=    0 NMtDT0=    0
 Symmetry not used in FoFCou.
 FMM levels:  10  Number of levels for PrismC:   9
 Inv3:  Mode=1 IEnd=   233165568.
 Iteration    1 A*A^-1 deviation from unit magnitude is 7.99D-15 for   8798.
 Iteration    1 A*A^-1 deviation from orthogonality  is 4.70D-15 for   8793   3545.
 Iteration    1 A^-1*A deviation from unit magnitude is 7.33D-15 for   8798.
 Iteration    1 A^-1*A deviation from orthogonality  is 2.38D-14 for   6201   6194.
 E= -3320.08891770540    
 DIIS: error= 2.20D-02 at cycle   1 NSaved=   1.
 NSaved= 1 IEnMin= 1 EnMin= -3320.08891770540     IErMin= 1 ErrMin= 2.20D-02
 ErrMax= 2.20D-02  0.00D+00 EMaxC= 1.00D-01 BMatC= 9.07D+00 BMatP= 9.07D+00
 IDIUse=3 WtCom= 7.80D-01 WtEn= 2.20D-01
 Coeff-Com:  0.100D+01
 Coeff-En:   0.100D+01
 Coeff:      0.100D+01
 Gap=    -0.063 Goal=   None    Shift=    0.000
 Gap=     0.131 Goal=   None    Shift=    0.000
 GapD=   -0.063 DampG=0.250 DampE=0.500 DampFc=0.2500 IDamp=-1.
 Damping current iteration by 2.50D-01
 RMSDP=1.79D-03 MaxDP=7.31D-01              OVMax= 9.52D-01

 Cycle   2  Pass 1  IDiag  1:
 RMSU=  4.47D-04    CP:  1.01D+00
 E= -3320.65563221675     Delta-E=       -0.566714511353 Rises=F Damp=T
 DIIS: error= 1.03D-02 at cycle   2 NSaved=   2.
 NSaved= 2 IEnMin= 2 EnMin= -3320.65563221675     IErMin= 2 ErrMin= 1.03D-02
 ErrMax= 1.03D-02  0.00D+00 EMaxC= 1.00D-01 BMatC= 3.12D+00 BMatP= 9.07D+00
 IDIUse=3 WtCom= 8.97D-01 WtEn= 1.03D-01
 Coeff-Com: -0.103D+01 0.203D+01
 Coeff-En:   0.000D+00 0.100D+01
 Coeff:     -0.924D+00 0.192D+01
 Gap=     0.254 Goal=   None    Shift=    0.000
 Gap=    -0.108 Goal=   None    Shift=    0.000
 RMSDP=7.26D-04 MaxDP=2.05D-01 DE=-5.67D-01 OVMax= 9.91D-01

 Cycle   3  Pass 1  IDiag  1:
 RMSU=  6.48D-04    CP:  1.01D+00  1.73D+00
 E= -3321.58654278666     Delta-E=       -0.930910569907 Rises=F Damp=F
 DIIS: error= 1.39D-02 at cycle   3 NSaved=   3.
 NSaved= 3 IEnMin= 3 EnMin= -3321.58654278666     IErMin= 2 ErrMin= 1.03D-02
 ErrMax= 1.39D-02  0.00D+00 EMaxC= 1.00D-01 BMatC= 7.94D-01 BMatP= 3.12D+00
 IDIUse=3 WtCom= 8.61D-01 WtEn= 1.39D-01
 Coeff-Com: -0.598D+00 0.102D+01 0.574D+00
 Coeff-En:   0.000D+00 0.000D+00 0.100D+01
 Coeff:     -0.515D+00 0.882D+00 0.633D+00
 Gap=    -0.001 Goal=   None    Shift=    0.000
 Gap=     0.119 Goal=   None    Shift=    0.000
 RMSDP=4.27D-04 MaxDP=1.10D-01 DE=-9.31D-01 OVMax= 7.63D-01

 Cycle   4  Pass 1  IDiag  1:
 RMSU=  3.37D-04    CP:  1.00D+00  1.85D+00  6.08D-01
 E= -3321.74619923853     Delta-E=       -0.159656451877 Rises=F Damp=F
 DIIS: error= 5.39D-03 at cycle   4 NSaved=   4.
 NSaved= 4 IEnMin= 4 EnMin= -3321.74619923853     IErMin= 4 ErrMin= 5.39D-03
 ErrMax= 5.39D-03  0.00D+00 EMaxC= 1.00D-01 BMatC= 1.53D-01 BMatP= 7.94D-01
 IDIUse=3 WtCom= 9.46D-01 WtEn= 5.39D-02
 Coeff-Com: -0.117D+00 0.187D+00 0.326D+00 0.605D+00
 Coeff-En:   0.000D+00 0.000D+00 0.105D+00 0.895D+00
 Coeff:     -0.111D+00 0.176D+00 0.314D+00 0.620D+00
 Gap=     0.027 Goal=   None    Shift=    0.000
 Gap=     0.119 Goal=   None    Shift=    0.000
 RMSDP=1.00D-04 MaxDP=2.17D-02 DE=-1.60D-01 OVMax= 7.26D-02

 Cycle   5  Pass 1  IDiag  1:
 RMSU=  8.83D-05    CP:  1.00D+00  1.82D+00  6.54D-01  9.01D-01
 E= -3321.78055468508     Delta-E=       -0.034355446543 Rises=F Damp=F
 DIIS: error= 8.83D-04 at cycle   5 NSaved=   5.
 NSaved= 5 IEnMin= 5 EnMin= -3321.78055468508     IErMin= 5 ErrMin= 8.83D-04
 ErrMax= 8.83D-04  0.00D+00 EMaxC= 1.00D-01 BMatC= 1.37D-02 BMatP= 1.53D-01
 IDIUse=3 WtCom= 9.91D-01 WtEn= 8.83D-03
 Coeff-Com: -0.344D-01 0.531D-01 0.160D+00 0.312D+00 0.509D+00
 Coeff-En:   0.000D+00 0.000D+00 0.000D+00 0.000D+00 0.100D+01
 Coeff:     -0.341D-01 0.526D-01 0.158D+00 0.310D+00 0.513D+00
 Gap=     0.039 Goal=   None    Shift=    0.000
 Gap=     0.134 Goal=   None    Shift=    0.000
 RMSDP=7.21D-05 MaxDP=2.15D-02 DE=-3.44D-02 OVMax= 1.72D-01

 Cycle   6  Pass 1  IDiag  1:
 RMSU=  6.77D-05    CP:  1.00D+00  1.81D+00  6.65D-01  8.82D-01  1.25D+00
 E= -3321.78778442169     Delta-E=       -0.007229736610 Rises=F Damp=F
 DIIS: error= 1.16D-03 at cycle   6 NSaved=   6.
 NSaved= 6 IEnMin= 6 EnMin= -3321.78778442169     IErMin= 5 ErrMin= 8.83D-04
 ErrMax= 1.16D-03  0.00D+00 EMaxC= 1.00D-01 BMatC= 6.60D-03 BMatP= 1.37D-02
 IDIUse=3 WtCom= 9.91D-01 WtEn= 8.83D-03
 Coeff-Com: -0.159D-01 0.266D-01 0.961D-01 0.113D+00 0.265D+00 0.516D+00
 Coeff-En:   0.000D+00 0.000D+00 0.000D+00 0.000D+00 0.000D+00 0.100D+01
 Coeff:     -0.157D-01 0.263D-01 0.952D-01 0.112D+00 0.262D+00 0.520D+00
 Gap=     0.052 Goal=   None    Shift=    0.000
 Gap=     0.139 Goal=   None    Shift=    0.000
 RMSDP=5.22D-05 MaxDP=1.48D-02 DE=-7.23D-03 OVMax= 1.20D-01

 Cycle   7  Pass 1  IDiag  1:
 RMSU=  2.25D-05    CP:  1.00D+00  1.80D+00  6.80D-01  8.29D-01  1.49D+00
                    CP:  1.54D+00
 E= -3321.79257564533     Delta-E=       -0.004791223640 Rises=F Damp=F
 DIIS: error= 9.34D-04 at cycle   7 NSaved=   7.
 NSaved= 7 IEnMin= 7 EnMin= -3321.79257564533     IErMin= 5 ErrMin= 8.83D-04
 ErrMax= 9.34D-04  0.00D+00 EMaxC= 1.00D-01 BMatC= 3.75D-03 BMatP= 6.60D-03
 IDIUse=3 WtCom= 9.91D-01 WtEn= 8.83D-03
 Coeff-Com: -0.206D-02 0.602D-02 0.474D-01-0.188D-01-0.999D-01-0.270D+00
 Coeff-Com:  0.134D+01
 Coeff-En:   0.000D+00 0.000D+00 0.000D+00 0.000D+00 0.000D+00 0.000D+00
 Coeff-En:   0.100D+01
 Coeff:     -0.204D-02 0.597D-02 0.470D-01-0.186D-01-0.991D-01-0.268D+00
 Coeff:      0.133D+01
 Gap=     0.077 Goal=   None    Shift=    0.000
 Gap=     0.134 Goal=   None    Shift=    0.000
 RMSDP=8.68D-05 MaxDP=2.95D-02 DE=-4.79D-03 OVMax= 1.68D-01

 Cycle   8  Pass 1  IDiag  1:
 RMSU=  2.00D-05    CP:  1.00D+00  1.77D+00  7.23D-01  7.13D-01  1.73D+00
                    CP:  2.39D+00  2.31D+00
 E= -3321.79731987518     Delta-E=       -0.004744229847 Rises=F Damp=F
 DIIS: error= 4.38D-04 at cycle   8 NSaved=   8.
 NSaved= 8 IEnMin= 8 EnMin= -3321.79731987518     IErMin= 8 ErrMin= 4.38D-04
 ErrMax= 4.38D-04  0.00D+00 EMaxC= 1.00D-01 BMatC= 7.65D-04 BMatP= 3.75D-03
 IDIUse=3 WtCom= 9.96D-01 WtEn= 4.38D-03
 Coeff-Com: -0.261D-02 0.422D-02 0.263D-01 0.341D-01-0.291D-01-0.446D+00
 Coeff-Com:  0.468D+00 0.945D+00
 Coeff-En:   0.000D+00 0.000D+00 0.000D+00 0.000D+00 0.000D+00 0.000D+00
 Coeff-En:   0.000D+00 0.100D+01
 Coeff:     -0.260D-02 0.420D-02 0.262D-01 0.340D-01-0.290D-01-0.444D+00
 Coeff:      0.466D+00 0.945D+00
 Gap=     0.094 Goal=   None    Shift=    0.000
 Gap=     0.133 Goal=   None    Shift=    0.000
 RMSDP=3.44D-05 MaxDP=1.19D-02 DE=-4.74D-03 OVMax= 6.57D-02

 Cycle   9  Pass 1  IDiag  1:
 RMSU=  1.14D-05    CP:  1.00D+00  1.77D+00  7.37D-01  6.61D-01  1.76D+00
                    CP:  2.65D+00  3.00D+00  1.48D+00
 E= -3321.79812722171     Delta-E=       -0.000807346538 Rises=F Damp=F
 DIIS: error= 1.04D-04 at cycle   9 NSaved=   9.
 NSaved= 9 IEnMin= 9 EnMin= -3321.79812722171     IErMin= 9 ErrMin= 1.04D-04
 ErrMax= 1.04D-04  0.00D+00 EMaxC= 1.00D-01 BMatC= 1.84D-04 BMatP= 7.65D-04
 IDIUse=3 WtCom= 9.99D-01 WtEn= 1.04D-03
 Coeff-Com: -0.219D-02 0.296D-02 0.410D-02 0.248D-01 0.265D-01-0.124D+00
 Coeff-Com: -0.155D+00 0.444D+00 0.778D+00
 Coeff-En:   0.000D+00 0.000D+00 0.000D+00 0.000D+00 0.000D+00 0.000D+00
 Coeff-En:   0.000D+00 0.000D+00 0.100D+01
 Coeff:     -0.218D-02 0.295D-02 0.409D-02 0.247D-01 0.265D-01-0.124D+00
 Coeff:     -0.154D+00 0.444D+00 0.778D+00
 Gap=     0.098 Goal=   None    Shift=    0.000
 Gap=     0.133 Goal=   None    Shift=    0.000
 RMSDP=1.33D-05 MaxDP=5.18D-03 DE=-8.07D-04 OVMax= 2.02D-02

 Cycle  10  Pass 1  IDiag  1:
 RMSU=  6.88D-06    CP:  1.00D+00  1.77D+00  7.42D-01  6.43D-01  1.77D+00
                    CP:  2.74D+00  3.00D+00  1.79D+00  1.23D+00
 E= -3321.79826071715     Delta-E=       -0.000133495438 Rises=F Damp=F
 DIIS: error= 6.91D-05 at cycle  10 NSaved=  10.
 NSaved=10 IEnMin=10 EnMin= -3321.79826071715     IErMin=10 ErrMin= 6.91D-05
 ErrMax= 6.91D-05  0.00D+00 EMaxC= 1.00D-01 BMatC= 4.38D-05 BMatP= 1.84D-04
 IDIUse=1 WtCom= 1.00D+00 WtEn= 0.00D+00
 Coeff-Com: -0.971D-03 0.136D-02-0.192D-02 0.430D-02 0.160D-01 0.338D-01
 Coeff-Com: -0.141D+00 0.878D-02 0.347D+00 0.732D+00
 Coeff:     -0.971D-03 0.136D-02-0.192D-02 0.430D-02 0.160D-01 0.338D-01
 Coeff:     -0.141D+00 0.878D-02 0.347D+00 0.732D+00
 Gap=     0.098 Goal=   None    Shift=    0.000
 Gap=     0.132 Goal=   None    Shift=    0.000
 RMSDP=4.53D-06 MaxDP=1.35D-03 DE=-1.33D-04 OVMax= 2.82D-03

 Cycle  11  Pass 1  IDiag  1:
 RMSU=  2.85D-06    CP:  1.00D+00  1.77D+00  7.42D-01  6.44D-01  1.77D+00
                    CP:  2.74D+00  3.00D+00  1.88D+00  1.45D+00  1.17D+00
 E= -3321.79828687823     Delta-E=       -0.000026161078 Rises=F Damp=F
 DIIS: error= 3.24D-05 at cycle  11 NSaved=  11.
 NSaved=11 IEnMin=11 EnMin= -3321.79828687823     IErMin=11 ErrMin= 3.24D-05
 ErrMax= 3.24D-05  0.00D+00 EMaxC= 1.00D-01 BMatC= 1.35D-05 BMatP= 4.38D-05
 IDIUse=1 WtCom= 1.00D+00 WtEn= 0.00D+00
 Coeff-Com:  0.103D-03-0.591D-04-0.120D-02-0.466D-02 0.140D-02 0.635D-01
 Coeff-Com: -0.187D-01-0.162D+00-0.964D-01 0.353D+00 0.865D+00
 Coeff:      0.103D-03-0.591D-04-0.120D-02-0.466D-02 0.140D-02 0.635D-01
 Coeff:     -0.187D-01-0.162D+00-0.964D-01 0.353D+00 0.865D+00
 Gap=     0.098 Goal=   None    Shift=    0.000
 Gap=     0.132 Goal=   None    Shift=    0.000
 RMSDP=3.11D-06 MaxDP=7.29D-04 DE=-2.62D-05 OVMax= 2.42D-03

 Cycle  12  Pass 1  IDiag  1:
 RMSU=  1.75D-06    CP:  1.00D+00  1.77D+00  7.41D-01  6.45D-01  1.77D+00
                    CP:  2.74D+00  3.00D+00  1.93D+00  1.56D+00  1.36D+00
                    CP:  1.42D+00
 E= -3321.79829909781     Delta-E=       -0.000012219582 Rises=F Damp=F
 DIIS: error= 2.53D-05 at cycle  12 NSaved=  12.
 NSaved=12 IEnMin=12 EnMin= -3321.79829909781     IErMin=12 ErrMin= 2.53D-05
 ErrMax= 2.53D-05  0.00D+00 EMaxC= 1.00D-01 BMatC= 5.18D-06 BMatP= 1.35D-05
 IDIUse=1 WtCom= 1.00D+00 WtEn= 0.00D+00
 Coeff-Com:  0.203D-03-0.229D-03 0.789D-03-0.157D-02-0.234D-02 0.662D-02
 Coeff-Com:  0.258D-01-0.622D-01-0.123D+00-0.504D-01 0.401D+00 0.805D+00
 Coeff:      0.203D-03-0.229D-03 0.789D-03-0.157D-02-0.234D-02 0.662D-02
 Coeff:      0.258D-01-0.622D-01-0.123D+00-0.504D-01 0.401D+00 0.805D+00
 Gap=     0.099 Goal=   None    Shift=    0.000
 Gap=     0.132 Goal=   None    Shift=    0.000
 RMSDP=1.91D-06 MaxDP=5.55D-04 DE=-1.22D-05 OVMax= 1.45D-03

 Cycle  13  Pass 1  IDiag  1:
 RMSU=  9.24D-07    CP:  1.00D+00  1.77D+00  7.41D-01  6.44D-01  1.77D+00
                    CP:  2.74D+00  3.00D+00  1.96D+00  1.64D+00  1.46D+00
                    CP:  1.70D+00  1.24D+00
 E= -3321.79830351325     Delta-E=       -0.000004415442 Rises=F Damp=F
 DIIS: error= 1.04D-05 at cycle  13 NSaved=  13.
 NSaved=13 IEnMin=13 EnMin= -3321.79830351325     IErMin=13 ErrMin= 1.04D-05
 ErrMax= 1.04D-05  0.00D+00 EMaxC= 1.00D-01 BMatC= 1.21D-06 BMatP= 5.18D-06
 IDIUse=1 WtCom= 1.00D+00 WtEn= 0.00D+00
 Coeff-Com: -0.169D-04 0.347D-04 0.894D-03 0.132D-02-0.212D-03-0.220D-01
 Coeff-Com:  0.131D-01 0.268D-01-0.968D-02-0.135D+00-0.101D+00 0.275D+00
 Coeff-Com:  0.952D+00
 Coeff:     -0.169D-04 0.347D-04 0.894D-03 0.132D-02-0.212D-03-0.220D-01
 Coeff:      0.131D-01 0.268D-01-0.968D-02-0.135D+00-0.101D+00 0.275D+00
 Coeff:      0.952D+00
 Gap=     0.099 Goal=   None    Shift=    0.000
 Gap=     0.132 Goal=   None    Shift=    0.000
 RMSDP=1.31D-06 MaxDP=4.57D-04 DE=-4.42D-06 OVMax= 9.63D-04

 Cycle  14  Pass 1  IDiag  1:
 RMSU=  4.62D-07    CP:  1.00D+00  1.77D+00  7.42D-01  6.42D-01  1.78D+00
                    CP:  2.74D+00  3.00D+00  1.98D+00  1.67D+00  1.52D+00
                    CP:  1.83D+00  1.43D+00  1.70D+00
 E= -3321.79830504534     Delta-E=       -0.000001532084 Rises=F Damp=F
 DIIS: error= 7.25D-06 at cycle  14 NSaved=  14.
 NSaved=14 IEnMin=14 EnMin= -3321.79830504534     IErMin=14 ErrMin= 7.25D-06
 ErrMax= 7.25D-06  0.00D+00 EMaxC= 1.00D-01 BMatC= 4.82D-07 BMatP= 1.21D-06
 IDIUse=1 WtCom= 1.00D+00 WtEn= 0.00D+00
 Coeff-Com:  0.162D-04-0.344D-04 0.189D-03 0.934D-03 0.222D-02-0.585D-02
 Coeff-Com: -0.222D-02 0.206D-01 0.297D-01-0.418D-01-0.132D+00-0.138D+00
 Coeff-Com:  0.430D+00 0.836D+00
 Coeff:      0.162D-04-0.344D-04 0.189D-03 0.934D-03 0.222D-02-0.585D-02
 Coeff:     -0.222D-02 0.206D-01 0.297D-01-0.418D-01-0.132D+00-0.138D+00
 Coeff:      0.430D+00 0.836D+00
 Gap=     0.099 Goal=   None    Shift=    0.000
 Gap=     0.132 Goal=   None    Shift=    0.000
 RMSDP=7.72D-07 MaxDP=2.47D-04 DE=-1.53D-06 OVMax= 1.04D-03

 Cycle  15  Pass 1  IDiag  1:
 RMSU=  3.24D-07    CP:  1.00D+00  1.77D+00  7.42D-01  6.43D-01  1.77D+00
                    CP:  2.74D+00  3.00D+00  1.97D+00  1.68D+00  1.51D+00
                    CP:  1.90D+00  1.53D+00  1.99D+00  1.19D+00
 E= -3321.79830562299     Delta-E=       -0.000000577651 Rises=F Damp=F
 DIIS: error= 4.66D-06 at cycle  15 NSaved=  15.
 NSaved=15 IEnMin=15 EnMin= -3321.79830562299     IErMin=15 ErrMin= 4.66D-06
 ErrMax= 4.66D-06  0.00D+00 EMaxC= 1.00D-01 BMatC= 1.41D-07 BMatP= 4.82D-07
 IDIUse=1 WtCom= 1.00D+00 WtEn= 0.00D+00
 Coeff-Com: -0.131D-04 0.150D-04-0.199D-03-0.142D-03 0.380D-03 0.143D-02
 Coeff-Com: -0.243D-02 0.772D-03 0.136D-01 0.193D-01-0.445D-02-0.140D+00
 Coeff-Com: -0.137D+00 0.249D+00 0.999D+00
 Coeff:     -0.131D-04 0.150D-04-0.199D-03-0.142D-03 0.380D-03 0.143D-02
 Coeff:     -0.243D-02 0.772D-03 0.136D-01 0.193D-01-0.445D-02-0.140D+00
 Coeff:     -0.137D+00 0.249D+00 0.999D+00
 Gap=     0.099 Goal=   None    Shift=    0.000
 Gap=     0.132 Goal=   None    Shift=    0.000
 RMSDP=4.02D-07 MaxDP=6.98D-05 DE=-5.78D-07 OVMax= 3.30D-04

 Cycle  16  Pass 1  IDiag  1:
 RMSU=  1.38D-07    CP:  1.00D+00  1.77D+00  7.42D-01  6.43D-01  1.78D+00
                    CP:  2.74D+00  3.00D+00  1.97D+00  1.69D+00  1.51D+00
                    CP:  1.93D+00  1.54D+00  2.22D+00  1.57D+00  1.63D+00
 E= -3321.79830589035     Delta-E=       -0.000000267357 Rises=F Damp=F
 DIIS: error= 3.34D-06 at cycle  16 NSaved=  16.
 NSaved=16 IEnMin=16 EnMin= -3321.79830589035     IErMin=16 ErrMin= 3.34D-06
 ErrMax= 3.34D-06  0.00D+00 EMaxC= 1.00D-01 BMatC= 5.95D-08 BMatP= 1.41D-07
 IDIUse=1 WtCom= 1.00D+00 WtEn= 0.00D+00
 Coeff-Com: -0.350D-04 0.557D-04-0.158D-03-0.449D-03-0.845D-03 0.346D-02
 Coeff-Com:  0.540D-03-0.107D-01-0.911D-02 0.240D-01 0.706D-01-0.645D-03
 Coeff-Com: -0.252D+00-0.304D+00 0.403D+00 0.108D+01
 Coeff:     -0.350D-04 0.557D-04-0.158D-03-0.449D-03-0.845D-03 0.346D-02
 Coeff:      0.540D-03-0.107D-01-0.911D-02 0.240D-01 0.706D-01-0.645D-03
 Coeff:     -0.252D+00-0.304D+00 0.403D+00 0.108D+01
 Gap=     0.099 Goal=   None    Shift=    0.000
 Gap=     0.132 Goal=   None    Shift=    0.000
 RMSDP=3.61D-07 MaxDP=7.22D-05 DE=-2.67D-07 OVMax= 2.96D-04

 Cycle  17  Pass 1  IDiag  1:
 RMSU=  9.28D-08    CP:  1.00D+00  1.77D+00  7.42D-01  6.43D-01  1.78D+00
                    CP:  2.74D+00  3.00D+00  1.97D+00  1.70D+00  1.52D+00
                    CP:  1.96D+00  1.52D+00  2.36D+00  1.85D+00  2.36D+00
                    CP:  1.91D+00
 E= -3321.79830603602     Delta-E=       -0.000000145672 Rises=F Damp=F
 DIIS: error= 1.76D-06 at cycle  17 NSaved=  17.
 NSaved=17 IEnMin=17 EnMin= -3321.79830603602     IErMin=17 ErrMin= 1.76D-06
 ErrMax= 1.76D-06  0.00D+00 EMaxC= 1.00D-01 BMatC= 1.93D-08 BMatP= 5.95D-08
 IDIUse=1 WtCom= 1.00D+00 WtEn= 0.00D+00
 Coeff-Com:  0.772D-05-0.119D-04 0.236D-04-0.223D-04-0.192D-03 0.903D-03
 Coeff-Com:  0.868D-03-0.427D-02-0.775D-02-0.240D-02 0.270D-01 0.556D-01
 Coeff-Com: -0.114D-01-0.202D+00-0.299D+00 0.318D+00 0.112D+01
 Coeff:      0.772D-05-0.119D-04 0.236D-04-0.223D-04-0.192D-03 0.903D-03
 Coeff:      0.868D-03-0.427D-02-0.775D-02-0.240D-02 0.270D-01 0.556D-01
 Coeff:     -0.114D-01-0.202D+00-0.299D+00 0.318D+00 0.112D+01
 Gap=     0.099 Goal=   None    Shift=    0.000
 Gap=     0.132 Goal=   None    Shift=    0.000
 RMSDP=2.65D-07 MaxDP=7.30D-05 DE=-1.46D-07 OVMax= 2.07D-04

 Cycle  18  Pass 1  IDiag  1:
 RMSU=  5.79D-08    CP:  1.00D+00  1.77D+00  7.42D-01  6.44D-01  1.78D+00
                    CP:  2.74D+00  3.00D+00  1.97D+00  1.70D+00  1.51D+00
                    CP:  1.98D+00  1.51D+00  2.39D+00  1.97D+00  2.88D+00
                    CP:  2.74D+00  1.72D+00
 E= -3321.79830608804     Delta-E=       -0.000000052025 Rises=F Damp=F
 DIIS: error= 8.64D-07 at cycle  18 NSaved=  18.
 NSaved=18 IEnMin=18 EnMin= -3321.79830608804     IErMin=18 ErrMin= 8.64D-07
 ErrMax= 8.64D-07  0.00D+00 EMaxC= 1.00D-01 BMatC= 6.79D-09 BMatP= 1.93D-08
 IDIUse=1 WtCom= 1.00D+00 WtEn= 0.00D+00
 Coeff-Com:  0.590D-05-0.857D-05 0.344D-04 0.599D-04-0.451D-04-0.149D-02
 Coeff-Com:  0.608D-03 0.204D-02 0.381D-03-0.845D-02-0.970D-02 0.177D-01
 Coeff-Com:  0.609D-01 0.436D-02-0.180D+00-0.179D+00 0.366D+00 0.927D+00
 Coeff:      0.590D-05-0.857D-05 0.344D-04 0.599D-04-0.451D-04-0.149D-02
 Coeff:      0.608D-03 0.204D-02 0.381D-03-0.845D-02-0.970D-02 0.177D-01
 Coeff:      0.609D-01 0.436D-02-0.180D+00-0.179D+00 0.366D+00 0.927D+00
 Gap=     0.099 Goal=   None    Shift=    0.000
 Gap=     0.132 Goal=   None    Shift=    0.000
 RMSDP=1.35D-07 MaxDP=3.29D-05 DE=-5.20D-08 OVMax= 1.25D-04

 Cycle  19  Pass 1  IDiag  1:
 RMSU=  4.34D-08    CP:  1.00D+00  1.77D+00  7.42D-01  6.43D-01  1.78D+00
                    CP:  2.74D+00  3.00D+00  1.97D+00  1.70D+00  1.52D+00
                    CP:  1.99D+00  1.51D+00  2.43D+00  2.05D+00  2.99D+00
                    CP:  3.00D+00  2.11D+00  1.58D+00
 E= -3321.79830610015     Delta-E=       -0.000000012111 Rises=F Damp=F
 DIIS: error= 3.91D-07 at cycle  19 NSaved=  19.
 NSaved=19 IEnMin=19 EnMin= -3321.79830610015     IErMin=19 ErrMin= 3.91D-07
 ErrMax= 3.91D-07  0.00D+00 EMaxC= 1.00D-01 BMatC= 3.42D-09 BMatP= 6.79D-09
 IDIUse=1 WtCom= 1.00D+00 WtEn= 0.00D+00
 Coeff-Com:  0.754D-05-0.107D-04-0.130D-05-0.432D-05 0.115D-03-0.266D-03
 Coeff-Com: -0.643D-04 0.130D-02 0.263D-02-0.191D-02-0.103D-01-0.116D-01
 Coeff-Com:  0.266D-01 0.569D-01 0.393D-01-0.173D+00-0.213D+00 0.375D+00
 Coeff-Com:  0.908D+00
 Coeff:      0.754D-05-0.107D-04-0.130D-05-0.432D-05 0.115D-03-0.266D-03
 Coeff:     -0.643D-04 0.130D-02 0.263D-02-0.191D-02-0.103D-01-0.116D-01
 Coeff:      0.266D-01 0.569D-01 0.393D-01-0.173D+00-0.213D+00 0.375D+00
 Coeff:      0.908D+00
 Gap=     0.099 Goal=   None    Shift=    0.000
 Gap=     0.132 Goal=   None    Shift=    0.000
 RMSDP=8.02D-08 MaxDP=1.99D-05 DE=-1.21D-08 OVMax= 9.02D-05

 Cycle  20  Pass 1  IDiag  1:
 RMSU=  3.20D-08    CP:  1.00D+00  1.77D+00  7.42D-01  6.44D-01  1.78D+00
                    CP:  2.74D+00  3.00D+00  1.97D+00  1.70D+00  1.52D+00
                    CP:  1.99D+00  1.51D+00  2.44D+00  2.05D+00  3.00D+00
                    CP:  3.00D+00  2.40D+00  2.12D+00  1.62D+00
 E= -3321.79830610777     Delta-E=       -0.000000007612 Rises=F Damp=F
 DIIS: error= 2.68D-07 at cycle  20 NSaved=  20.
 NSaved=20 IEnMin=20 EnMin= -3321.79830610777     IErMin=20 ErrMin= 2.68D-07
 ErrMax= 2.68D-07  0.00D+00 EMaxC= 1.00D-01 BMatC= 1.03D-09 BMatP= 3.42D-09
 IDIUse=1 WtCom= 1.00D+00 WtEn= 0.00D+00
 Coeff-Com:  0.240D-05-0.333D-05-0.161D-04-0.370D-04 0.270D-04 0.319D-03
 Coeff-Com: -0.109D-03-0.165D-03 0.115D-02 0.210D-02-0.832D-03-0.115D-01
 Coeff-Com: -0.117D-01 0.197D-01 0.939D-01-0.795D-02-0.243D+00-0.213D+00
 Coeff-Com:  0.379D+00 0.992D+00
 Coeff:      0.240D-05-0.333D-05-0.161D-04-0.370D-04 0.270D-04 0.319D-03
 Coeff:     -0.109D-03-0.165D-03 0.115D-02 0.210D-02-0.832D-03-0.115D-01
 Coeff:     -0.117D-01 0.197D-01 0.939D-01-0.795D-02-0.243D+00-0.213D+00
 Coeff:      0.379D+00 0.992D+00
 Gap=     0.099 Goal=   None    Shift=    0.000
 Gap=     0.132 Goal=   None    Shift=    0.000
 RMSDP=5.57D-08 MaxDP=1.24D-05 DE=-7.61D-09 OVMax= 9.00D-05

 Cycle  21  Pass 1  IDiag  1:
 Restarting incremental Fock formation.
 E= -3321.79830611190     Delta-E=       -0.000000004136 Rises=F Damp=F
 DIIS: error= 2.06D-07 at cycle  21 NSaved=  20.
 NSaved=20 IEnMin=20 EnMin= -3321.79830611190     IErMin=20 ErrMin= 2.06D-07
 ErrMax= 2.06D-07  0.00D+00 EMaxC= 1.00D-01 BMatC= 5.21D-10 BMatP= 1.03D-09
 IDIUse=1 WtCom= 1.00D+00 WtEn= 0.00D+00
 Coeff-Com: -0.397D-06-0.813D-05-0.172D-04-0.564D-04 0.206D-03 0.215D-04
 Coeff-Com: -0.662D-03-0.654D-03 0.169D-02 0.443D-02 0.214D-03-0.171D-01
 Coeff-Com: -0.160D-01 0.216D-01 0.707D-01-0.657D-02-0.266D+00-0.212D+00
 Coeff-Com:  0.407D+00 0.101D+01
 Coeff:     -0.397D-06-0.813D-05-0.172D-04-0.564D-04 0.206D-03 0.215D-04
 Coeff:     -0.662D-03-0.654D-03 0.169D-02 0.443D-02 0.214D-03-0.171D-01
 Coeff:     -0.160D-01 0.216D-01 0.707D-01-0.657D-02-0.266D+00-0.212D+00
 Coeff:      0.407D+00 0.101D+01
 Gap=     0.099 Goal=   None    Shift=    0.000
 Gap=     0.132 Goal=   None    Shift=    0.000
 RMSDP=4.70D-08 MaxDP=1.31D-05 DE=-4.14D-09 OVMax= 8.00D-05

 Cycle  22  Pass 1  IDiag  1:
 RMSU=  4.70D-08    CP:  1.00D+00
 E= -3321.79830611372     Delta-E=       -0.000000001821 Rises=F Damp=F
 DIIS: error= 1.56D-07 at cycle  22 NSaved=  20.
 NSaved=20 IEnMin=20 EnMin= -3321.79830611372     IErMin=20 ErrMin= 1.56D-07
 ErrMax= 1.56D-07  0.00D+00 EMaxC= 1.00D-01 BMatC= 2.59D-10 BMatP= 5.21D-10
 IDIUse=1 WtCom= 1.00D+00 WtEn= 0.00D+00
 Coeff-Com:  0.339D-05 0.126D-04-0.113D-04 0.681D-04-0.207D-04-0.329D-03
 Coeff-Com: -0.743D-03 0.104D-03 0.249D-02 0.419D-02-0.304D-02-0.135D-01
 Coeff-Com: -0.298D-01 0.329D-01 0.959D-01-0.220D-01-0.230D+00-0.282D+00
 Coeff-Com:  0.348D+00 0.110D+01
 Coeff:      0.339D-05 0.126D-04-0.113D-04 0.681D-04-0.207D-04-0.329D-03
 Coeff:     -0.743D-03 0.104D-03 0.249D-02 0.419D-02-0.304D-02-0.135D-01
 Coeff:     -0.298D-01 0.329D-01 0.959D-01-0.220D-01-0.230D+00-0.282D+00
 Coeff:      0.348D+00 0.110D+01
 Gap=     0.099 Goal=   None    Shift=    0.000
 Gap=     0.132 Goal=   None    Shift=    0.000
 RMSDP=4.00D-08 MaxDP=1.06D-05 DE=-1.82D-09 OVMax= 7.22D-05

 Cycle  23  Pass 1  IDiag  1:
 RMSU=  1.51D-08    CP:  1.00D+00  1.79D+00
 E= -3321.79830611550     Delta-E=       -0.000000001777 Rises=F Damp=F
 DIIS: error= 1.14D-07 at cycle  23 NSaved=  20.
 NSaved=20 IEnMin=20 EnMin= -3321.79830611550     IErMin=20 ErrMin= 1.14D-07
 ErrMax= 1.14D-07  0.00D+00 EMaxC= 1.00D-01 BMatC= 1.66D-10 BMatP= 2.59D-10
 IDIUse=1 WtCom= 1.00D+00 WtEn= 0.00D+00
 Coeff-Com:  0.729D-05 0.860D-05-0.755D-04-0.601D-04 0.175D-03 0.613D-05
 Coeff-Com: -0.501D-03-0.874D-03 0.126D-02 0.543D-02 0.180D-02-0.236D-01
 Coeff-Com: -0.162D-01 0.483D-01 0.123D+00-0.119D-01-0.359D+00-0.352D+00
 Coeff-Com:  0.607D+00 0.978D+00
 Coeff:      0.729D-05 0.860D-05-0.755D-04-0.601D-04 0.175D-03 0.613D-05
 Coeff:     -0.501D-03-0.874D-03 0.126D-02 0.543D-02 0.180D-02-0.236D-01
 Coeff:     -0.162D-01 0.483D-01 0.123D+00-0.119D-01-0.359D+00-0.352D+00
 Coeff:      0.607D+00 0.978D+00
 Gap=     0.099 Goal=   None    Shift=    0.000
 Gap=     0.132 Goal=   None    Shift=    0.000
 RMSDP=3.37D-08 MaxDP=9.76D-06 DE=-1.78D-09 OVMax= 6.07D-05

 Cycle  24  Pass 1  IDiag  1:
 RMSU=  1.10D-08    CP:  1.00D+00  2.45D+00  1.35D+00
 E= -3321.79830611602     Delta-E=       -0.000000000517 Rises=F Damp=F
 DIIS: error= 8.05D-08 at cycle  24 NSaved=  20.
 NSaved=20 IEnMin=20 EnMin= -3321.79830611602     IErMin=20 ErrMin= 8.05D-08
 ErrMax= 8.05D-08  0.00D+00 EMaxC= 1.00D-01 BMatC= 8.97D-11 BMatP= 1.66D-10
 IDIUse=1 WtCom= 1.00D+00 WtEn= 0.00D+00
 Coeff-Com:  0.244D-04-0.497D-04-0.107D-04 0.301D-03 0.356D-03-0.445D-03
 Coeff-Com: -0.213D-02-0.138D-02 0.612D-02 0.101D-01 0.198D-02-0.306D-01
 Coeff-Com: -0.310D-01 0.821D-01 0.134D+00-0.187D-01-0.399D+00-0.339D+00
 Coeff-Com:  0.491D+00 0.110D+01
 Coeff:      0.244D-04-0.497D-04-0.107D-04 0.301D-03 0.356D-03-0.445D-03
 Coeff:     -0.213D-02-0.138D-02 0.612D-02 0.101D-01 0.198D-02-0.306D-01
 Coeff:     -0.310D-01 0.821D-01 0.134D+00-0.187D-01-0.399D+00-0.339D+00
 Coeff:      0.491D+00 0.110D+01
 Gap=     0.099 Goal=   None    Shift=    0.000
 Gap=     0.132 Goal=   None    Shift=    0.000
 RMSDP=2.89D-08 MaxDP=7.61D-06 DE=-5.17D-10 OVMax= 5.33D-05

 Cycle  25  Pass 1  IDiag  1:
 RMSU=  4.82D-09    CP:  1.00D+00  2.96D+00  2.30D+00  1.54D+00
 E= -3321.79830611713     Delta-E=       -0.000000001110 Rises=F Damp=F
 DIIS: error= 6.20D-08 at cycle  25 NSaved=  20.
 NSaved=20 IEnMin=20 EnMin= -3321.79830611713     IErMin=20 ErrMin= 6.20D-08
 ErrMax= 6.20D-08  0.00D+00 EMaxC= 1.00D-01 BMatC= 3.71D-11 BMatP= 8.97D-11
 IDIUse=1 WtCom= 1.00D+00 WtEn= 0.00D+00
 Coeff-Com: -0.496D-05 0.175D-04 0.800D-04 0.851D-04 0.101D-03-0.409D-03
 Coeff-Com: -0.693D-03-0.694D-03 0.166D-02 0.101D-01-0.114D-03-0.284D-01
 Coeff-Com: -0.306D-01 0.433D-01 0.150D+00 0.439D-01-0.399D+00-0.309D+00
 Coeff-Com:  0.423D+00 0.110D+01
 Coeff:     -0.496D-05 0.175D-04 0.800D-04 0.851D-04 0.101D-03-0.409D-03
 Coeff:     -0.693D-03-0.694D-03 0.166D-02 0.101D-01-0.114D-03-0.284D-01
 Coeff:     -0.306D-01 0.433D-01 0.150D+00 0.439D-01-0.399D+00-0.309D+00
 Coeff:      0.423D+00 0.110D+01
 Gap=     0.099 Goal=   None    Shift=    0.000
 Gap=     0.132 Goal=   None    Shift=    0.000
 RMSDP=1.90D-08 MaxDP=5.10D-06 DE=-1.11D-09 OVMax= 3.58D-05

 Cycle  26  Pass 1  IDiag  1:
 RMSU=  1.41D-08    CP:  1.00D+00  3.00D+00  2.78D+00  2.12D+00  1.81D+00
 E= -3321.79830611702     Delta-E=        0.000000000107 Rises=F Damp=F
 DIIS: error= 4.05D-08 at cycle  26 NSaved=  20.
 NSaved=20 IEnMin=19 EnMin= -3321.79830611713     IErMin=20 ErrMin= 4.05D-08
 ErrMax= 4.05D-08  0.00D+00 EMaxC= 1.00D-01 BMatC= 1.74D-11 BMatP= 3.71D-11
 IDIUse=1 WtCom= 1.00D+00 WtEn= 0.00D+00
 Coeff-Com: -0.816D-05 0.274D-04 0.627D-04 0.122D-03-0.193D-03-0.496D-03
 Coeff-Com: -0.949D-03 0.124D-02 0.692D-02 0.158D-02-0.164D-01-0.297D-01
 Coeff-Com:  0.646D-02 0.873D-01 0.121D+00-0.114D+00-0.324D+00-0.188D+00
 Coeff-Com:  0.523D+00 0.925D+00
 Coeff:     -0.816D-05 0.274D-04 0.627D-04 0.122D-03-0.193D-03-0.496D-03
 Coeff:     -0.949D-03 0.124D-02 0.692D-02 0.158D-02-0.164D-01-0.297D-01
 Coeff:      0.646D-02 0.873D-01 0.121D+00-0.114D+00-0.324D+00-0.188D+00
 Coeff:      0.523D+00 0.925D+00
 Gap=     0.099 Goal=   None    Shift=    0.000
 Gap=     0.132 Goal=   None    Shift=    0.000
 RMSDP=1.21D-08 MaxDP=3.11D-06 DE= 1.07D-10 OVMax= 2.25D-05

 Cycle  27  Pass 1  IDiag  1:
 RMSU=  2.24D-09    CP:  1.00D+00  3.00D+00  3.00D+00  2.51D+00  2.50D+00
                    CP:  1.69D+00
 E= -3321.79830611709     Delta-E=       -0.000000000071 Rises=F Damp=F
 DIIS: error= 2.72D-08 at cycle  27 NSaved=  20.
 NSaved=20 IEnMin=18 EnMin= -3321.79830611713     IErMin=20 ErrMin= 2.72D-08
 ErrMax= 2.72D-08  0.00D+00 EMaxC= 1.00D-01 BMatC= 6.46D-12 BMatP= 1.74D-11
 IDIUse=1 WtCom= 1.00D+00 WtEn= 0.00D+00
 Coeff-Com: -0.710D-04-0.106D-03 0.491D-04 0.432D-03 0.722D-03-0.876D-03
 Coeff-Com: -0.251D-02-0.491D-02 0.578D-02 0.176D-01-0.319D-02-0.431D-01
 Coeff-Com: -0.517D-01 0.562D-01 0.205D+00 0.166D-01-0.317D+00-0.378D+00
 Coeff-Com:  0.261D+00 0.124D+01
 Coeff:     -0.710D-04-0.106D-03 0.491D-04 0.432D-03 0.722D-03-0.876D-03
 Coeff:     -0.251D-02-0.491D-02 0.578D-02 0.176D-01-0.319D-02-0.431D-01
 Coeff:     -0.517D-01 0.562D-01 0.205D+00 0.166D-01-0.317D+00-0.378D+00
 Coeff:      0.261D+00 0.124D+01
 Gap=     0.099 Goal=   None    Shift=    0.000
 Gap=     0.132 Goal=   None    Shift=    0.000
 RMSDP=8.44D-09 MaxDP=2.04D-06 DE=-7.09D-11 OVMax= 1.55D-05

 Cycle  28  Pass 1  IDiag  1:
 RMSU=  2.63D-09    CP:  1.00D+00  3.00D+00  3.00D+00  2.72D+00  3.00D+00
                    CP:  2.17D+00  2.12D+00
 E= -3321.79830611686     Delta-E=        0.000000000226 Rises=F Damp=F
 DIIS: error= 1.43D-08 at cycle  28 NSaved=  20.
 NSaved=20 IEnMin=17 EnMin= -3321.79830611713     IErMin=20 ErrMin= 1.43D-08
 ErrMax= 1.43D-08  0.00D+00 EMaxC= 1.00D-01 BMatC= 1.94D-12 BMatP= 6.46D-12
 IDIUse=1 WtCom= 1.00D+00 WtEn= 0.00D+00
 Coeff-Com:  0.590D-05-0.204D-04-0.151D-04 0.123D-03 0.191D-03-0.248D-03
 Coeff-Com: -0.228D-02-0.589D-03 0.602D-02 0.685D-02-0.631D-02-0.289D-01
 Coeff-Com: -0.245D-01 0.679D-01 0.814D-01-0.159D-01-0.217D+00-0.163D+00
 Coeff-Com:  0.324D+00 0.973D+00
 Coeff:      0.590D-05-0.204D-04-0.151D-04 0.123D-03 0.191D-03-0.248D-03
 Coeff:     -0.228D-02-0.589D-03 0.602D-02 0.685D-02-0.631D-02-0.289D-01
 Coeff:     -0.245D-01 0.679D-01 0.814D-01-0.159D-01-0.217D+00-0.163D+00
 Coeff:      0.324D+00 0.973D+00
 Gap=     0.099 Goal=   None    Shift=    0.000
 Gap=     0.132 Goal=   None    Shift=    0.000
 RMSDP=2.82D-09 MaxDP=6.54D-07 DE= 2.26D-10 OVMax= 4.91D-06

 Error on total polarization charges =  0.03205
 SCF Done:  E(UM062X) =  -3321.79830612     A.U. after   28 cycles
            NFock= 28  Conv=0.28D-08     -V/T= 2.0053
 <Sx>= 0.0000 <Sy>= 0.0000 <Sz>= 0.5000 <S**2>= 0.7687 S= 0.5093
 <L.S>= 0.000000000000E+00
 KE= 3.304207291592D+03 PE=-2.618936003471D+04 EE= 1.036408768726D+04
 Annihilation of the first spin contaminant:
 S**2 before annihilation     0.7687,   after     0.7502
 Leave Link  502 at Fri Oct 24 17:11:53 2025, MaxMem= 30870077440 cpu:          309559.6 elap:            4896.8
 (Enter /public/software/gauss/g16/l601.exe)
 Copying SCF densities to generalized density rwf, IOpCl= 1 IROHF=0.
 Hyperfine terms turned off by default for NAtoms > 100.

 **********************************************************************

            Population analysis using the SCF density.

 **********************************************************************

 Orbital symmetries:
 Alpha Orbitals:
       Occupied  (A) (A) (A) (A) (A) (A) (A) (A) (A) (A) (A) (A)
                 (A) (A) (A) (A) (A) (A) (A) (A) (A) (A) (A) (A)
                 (A) (A) (A) (A) (A) (A) (A) (A) (A) (A) (A) (A)
                 (A) (A) (A) (A) (A) (A) (A) (A) (A) (A) (A) (A)
                 (A) (A) (A) (A) (A) (A) (A) (A) (A) (A) (A) (A)
                 (A) (A) (A) (A) (A) (A) (A) (A) (A) (A) (A) (A)
                 (A) (A) (A) (A) (A) (A) (A) (A) (A) (A) (A) (A)
                 (A) (A) (A) (A) (A) (A) (A) (A) (A) (A) (A) (A)
                 (A) (A) (A) (A) (A) (A) (A) (A) (A) (A) (A) (A)
                 (A) (A) (A) (A) (A) (A) (A) (A) (A) (A) (A) (A)
                 (A) (A) (A) (A) (A) (A) (A) (A) (A) (A) (A) (A)
                 (A) (A) (A) (A) (A) (A) (A) (A) (A) (A) (A) (A)
                 (A) (A) (A) (A) (A) (A) (A) (A) (A) (A) (A) (A)
                 (A) (A) (A) (A) (A) (A) (A) (A) (A) (A) (A) (A)
                 (A) (A) (A) (A) (A) (A) (A) (A) (A) (A) (A) (A)
                 (A) (A) (A) (A) (A) (A) (A) (A) (A) (A) (A) (A)
                 (A) (A) (A) (A) (A) (A) (A) (A) (A) (A) (A) (A)
                 (A) (A) (A) (A) (A) (A) (A) (A) (A) (A) (A) (A)
                 (A) (A) (A) (A) (A) (A) (A) (A) (A) (A) (A) (A)
                 (A) (A) (A) (A) (A) (A) (A) (A) (A) (A) (A) (A)
                 (A) (A) (A) (A) (A) (A) (A) (A) (A) (A) (A) (A)
                 (A)
       Virtual   (A) (A) (A) (A) (A) (A) (A) (A) (A) (A) (A) (A)
                 (A) (A) (A) (A) (A) (A) (A) (A) (A) (A) (A) (A)
                 (A) (A) (A) (A) (A) (A) (A) (A) (A) (A) (A) (A)
                 (A) (A) (A) (A) (A) (A) (A) (A) (A) (A) (A) (A)
                 (A) (A) (A) (A) (A) (A) (A) (A) (A) (A) (A) (A)
                 (A) (A) (A) (A) (A) (A) (A) (A) (A) (A) (A) (A)
                 (A) (A) (A) (A) (A) (A) (A) (A) (A) (A) (A) (A)
                 (A) (A) (A) (A) (A) (A) (A) (A) (A) (A) (A) (A)
                 (A) (A) (A) (A) (A) (A) (A) (A) (A) (A) (A) (A)
                 (A) (A) (A) (A) (A) (A) (A) (A) (A) (A) (A) (A)
                 (A) (A) (A) (A) (A) (A) (A) (A) (A) (A) (A) (A)
                 (A) (A) (A) (A) (A) (A) (A) (A) (A) (A) (A) (A)
                 (A) (A) (A) (A) (A) (A) (A) (A) (A) (A) (A) (A)
                 (A) (A) (A) (A) (A) (A) (A) (A) (A) (A) (A) (A)
                 (A) (A) (A) (A) (A) (A) (A) (A) (A) (A) (A) (A)
                 (A) (A) (A) (A) (A) (A) (A) (A) (A) (A) (A) (A)
                 (A) (A) (A) (A) (A) (A) (A) (A) (A) (A) (A) (A)
                 (A) (A) (A) (A) (A) (A) (A) (A) (A) (A) (A) (A)
                 (A) (A) (A) (A) (A) (A) (A) (A) (A) (A) (A) (A)
                 (A) (A) (A) (A) (A) (A) (A) (A) (A) (A) (A) (A)
                 (A) (A) (A) (A) (A) (A) (A) (A) (A) (A) (A) (A)
                 (A) (A) (A) (A) (A) (A) (A) (A) (A) (A) (A) (A)
                 (A) (A) (A) (A) (A) (A) (A) (A) (A) (A) (A) (A)
                 (A) (A) (A) (A) (A) (A) (A) (A) (A) (A) (A) (A)
                 (A) (A) (A) (A) (A) (A) (A) (A) (A) (A) (A) (A)
                 (A) (A) (A) (A) (A) (A) (A) (A) (A) (A) (A) (A)
                 (A) (A) (A) (A) (A) (A) (A) (A) (A) (A) (A) (A)
                 (A) (A) (A) (A) (A) (A) (A) (A) (A) (A) (A) (A)
                 (A) (A) (A) (A) (A) (A) (A) (A) (A) (A) (A) (A)
                 (A) (A) (A) (A) (A) (A) (A) (A) (A) (A) (A) (A)
                 (A) (A) (A) (A) (A) (A) (A) (A) (A) (A) (A) (A)
                 (A) (A) (A) (A) (A) (A) (A) (A) (A) (A) (A) (A)
                 (A) (A) (A) (A) (A) (A) (A) (A) (A) (A) (A) (A)
                 (A) (A) (A) (A) (A) (A) (A) (A) (A) (A) (A) (A)
                 (A) (A) (A) (A) (A) (A) (A) (A) (A) (A) (A) (A)
                 (A) (A) (A) (A) (A) (A) (A) (A) (A) (A) (A) (A)
                 (A) (A) (A) (A) (A) (A) (A) (A) (A) (A) (A) (A)
                 (A) (A) (A) (A) (A) (A) (A) (A) (A) (A) (A) (A)
                 (A) (A) (A) (A) (A) (A) (A) (A) (A) (A) (A) (A)
                 (A) (A) (A) (A) (A) (A) (A) (A) (A) (A) (A) (A)
                 (A) (A) (A) (A) (A) (A) (A) (A) (A) (A) (A) (A)
                 (A) (A) (A) (A) (A) (A) (A) (A) (A) (A) (A) (A)
                 (A) (A) (A) (A) (A) (A) (A) (A) (A) (A) (A) (A)
                 (A) (A) (A) (A) (A) (A) (A) (A) (A) (A) (A) (A)
                 (A) (A) (A) (A) (A) (A) (A) (A) (A) (A) (A) (A)
                 (A) (A) (A) (A) (A) (A) (A) (A) (A) (A) (A) (A)
                 (A) (A) (A) (A) (A) (A) (A) (A) (A) (A) (A) (A)
                 (A) (A) (A) (A) (A) (A) (A) (A) (A) (A) (A) (A)
                 (A) (A) (A) (A) (A) (A) (A) (A) (A) (A) (A) (A)
                 (A) (A) (A) (A) (A) (A) (A) (A) (A) (A) (A) (A)
                 (A) (A) (A) (A) (A) (A) (A) (A) (A) (A) (A) (A)
                 (A) (A) (A) (A) (A) (A) (A) (A) (A) (A) (A) (A)
                 (A) (A) (A) (A) (A) (A) (A) (A) (A) (A) (A) (A)
                 (A) (A) (A) (A) (A) (A) (A) (A) (A) (A) (A) (A)
                 (A) (A) (A) (A) (A) (A) (A) (A) (A) (A) (A) (A)
                 (A) (A) (A) (A) (A) (A) (A) (A) (A) (A) (A) (A)
                 (A) (A) (A) (A) (A) (A) (A) (A) (A) (A) (A) (A)
                 (A) (A) (A) (A) (A) (A) (A) (A) (A) (A) (A) (A)
                 (A) (A) (A) (A) (A) (A) (A) (A) (A) (A) (A) (A)
                 (A) (A) (A) (A) (A) (A) (A) (A) (A) (A) (A) (A)
                 (A) (A) (A) (A) (A) (A) (A) (A) (A) (A) (A) (A)
                 (A) (A) (A) (A) (A) (A) (A) (A) (A) (A) (A) (A)
                 (A) (A) (A) (A) (A) (A) (A) (A) (A) (A) (A) (A)
                 (A) (A) (A) (A) (A) (A) (A) (A) (A) (A) (A) (A)
                 (A) (A) (A) (A) (A) (A) (A) (A) (A) (A) (A) (A)
                 (A) (A) (A) (A) (A) (A) (A) (A) (A) (A) (A) (A)
                 (A) (A) (A) (A) (A) (A) (A) (A) (A) (A) (A) (A)
                 (A) (A) (A) (A) (A) (A) (A) (A) (A) (A) (A) (A)
                 (A) (A) (A) (A) (A) (A) (A) (A) (A) (A) (A) (A)
                 (A) (A) (A) (A) (A) (A) (A) (A) (A) (A) (A) (A)
                 (A) (A) (A) (A) (A) (A) (A) (A) (A) (A) (A) (A)
                 (A) (A) (A) (A) (A) (A) (A) (A) (A) (A) (A) (A)
                 (A) (A) (A) (A) (A) (A) (A) (A) (A) (A) (A) (A)
                 (A) (A) (A) (A) (A) (A) (A) (A) (A) (A) (A) (A)
                 (A) (A) (A) (A) (A) (A) (A) (A) (A) (A) (A) (A)
                 (A) (A) (A) (A) (A) (A) (A) (A) (A) (A) (A) (A)
                 (A) (A) (A) (A) (A) (A) (A) (A) (A) (A) (A) (A)
                 (A) (A) (A) (A) (A) (A) (A) (A) (A) (A) (A) (A)
                 (A) (A) (A) (A) (A) (A) (A) (A) (A) (A) (A) (A)
                 (A) (A) (A) (A) (A) (A) (A) (A) (A) (A) (A) (A)
                 (A) (A) (A) (A) (A) (A) (A) (A) (A) (A) (A) (A)
                 (A) (A) (A) (A) (A) (A) (A) (A) (A) (A) (A) (A)
                 (A) (A) (A) (A) (A) (A) (A) (A) (A) (A) (A) (A)
                 (A) (A) (A) (A) (A) (A) (A) (A) (A) (A) (A) (A)
                 (A) (A) (A) (A) (A) (A) (A) (A) (A) (A) (A) (A)
                 (A) (A) (A) (A) (A) (A) (A) (A) (A) (A) (A) (A)
                 (A) (A) (A) (A) (A) (A) (A) (A) (A) (A) (A) (A)
                 (A) (A) (A) (A) (A) (A) (A) (A) (A) (A) (A) (A)
                 (A) (A) (A) (A) (A) (A) (A) (A) (A) (A) (A) (A)
                 (A) (A) (A) (A) (A) (A) (A) (A) (A) (A) (A) (A)
                 (A) (A) (A) (A) (A) (A) (A) (A) (A) (A) (A) (A)
                 (A) (A) (A) (A) (A) (A) (A) (A) (A) (A) (A) (A)
                 (A) (A) (A) (A) (A) (A) (A) (A) (A) (A) (A) (A)
                 (A) (A) (A) (A) (A) (A) (A) (A) (A) (A) (A) (A)
                 (A) (A) (A) (A) (A) (A) (A) (A) (A) (A) (A) (A)
                 (A) (A) (A) (A) (A) (A) (A) (A) (A) (A) (A) (A)
                 (A) (A) (A) (A) (A) (A) (A) (A) (A) (A) (A) (A)
                 (A) (A) (A) (A) (A) (A) (A) (A) (A) (A) (A) (A)
                 (A) (A) (A) (A) (A) (A) (A) (A) (A) (A) (A) (A)
                 (A) (A) (A) (A) (A) (A) (A) (A) (A) (A) (A) (A)
                 (A) (A) (A) (A) (A) (A) (A) (A) (A) (A) (A) (A)
                 (A) (A) (A) (A) (A) (A) (A) (A) (A) (A) (A) (A)
                 (A) (A) (A) (A) (A) (A) (A) (A) (A) (A) (A) (A)
                 (A) (A) (A) (A) (A) (A) (A) (A) (A) (A) (A) (A)
                 (A) (A) (A) (A) (A) (A) (A) (A) (A) (A) (A) (A)
                 (A) (A) (A) (A) (A) (A) (A) (A) (A) (A) (A) (A)
                 (A) (A) (A) (A) (A) (A) (A) (A) (A) (A) (A) (A)
                 (A) (A) (A) (A) (A) (A) (A) (A) (A) (A) (A) (A)
                 (A) (A) (A) (A) (A) (A) (A) (A) (A) (A) (A) (A)
                 (A) (A) (A) (A) (A) (A) (A) (A) (A) (A) (A) (A)
                 (A) (A) (A) (A) (A) (A) (A) (A) (A) (A) (A) (A)
                 (A) (A) (A) (A) (A) (A) (A) (A) (A) (A) (A) (A)
                 (A) (A) (A) (A) (A) (A) (A) (A) (A) (A) (A) (A)
                 (A) (A) (A) (A) (A) (A) (A) (A) (A) (A) (A) (A)
                 (A) (A) (A) (A) (A) (A) (A) (A) (A) (A) (A) (A)
                 (A) (A) (A) (A) (A) (A) (A) (A) (A) (A) (A) (A)
                 (A) (A) (A) (A) (A) (A) (A) (A) (A) (A) (A) (A)
                 (A) (A) (A) (A) (A) (A) (A) (A) (A) (A) (A) (A)
                 (A) (A) (A) (A) (A) (A) (A) (A) (A) (A) (A) (A)
                 (A) (A) (A) (A) (A) (A) (A) (A) (A) (A) (A) (A)
                 (A) (A) (A) (A) (A) (A) (A) (A) (A) (A) (A) (A)
                 (A) (A) (A) (A) (A) (A) (A) (A) (A) (A) (A) (A)
                 (A) (A) (A) (A) (A) (A) (A) (A) (A) (A) (A) (A)
                 (A) (A) (A) (A) (A) (A) (A) (A) (A) (A) (A) (A)
                 (A) (A) (A) (A) (A) (A) (A) (A) (A) (A) (A) (A)
                 (A) (A) (A) (A) (A) (A) (A) (A) (A) (A) (A) (A)
                 (A) (A) (A) (A) (A) (A) (A) (A) (A) (A) (A) (A)
                 (A) (A) (A) (A) (A) (A) (A) (A) (A) (A) (A) (A)
                 (A) (A) (A) (A) (A) (A) (A) (A) (A) (A) (A) (A)
                 (A) (A) (A) (A) (A) (A) (A) (A) (A) (A) (A) (A)
[...]
  Beta virt. eigenvalues --    5.10639   5.11570   5.11670   5.11813   5.12265
  Beta virt. eigenvalues --    5.12398   5.12407   5.13045   5.13206   5.14035
  Beta virt. eigenvalues --    5.14094   5.14346   5.14498   5.14952   5.15021
  Beta virt. eigenvalues --    5.15288   5.15770   5.16536   5.16631   5.17046
  Beta virt. eigenvalues --    5.17607   5.17981   5.18055   5.18242   5.18539
  Beta virt. eigenvalues --    5.19259   5.19580   5.19975   5.20326   5.20396
  Beta virt. eigenvalues --    5.20761   5.21253   5.21477   5.21864   5.22300
  Beta virt. eigenvalues --    5.22433   5.22796   5.22958   5.23138   5.23253
  Beta virt. eigenvalues --    5.23661   5.23748   5.24466   5.24552   5.24978
  Beta virt. eigenvalues --    5.25599   5.25750   5.26262   5.26536   5.26575
  Beta virt. eigenvalues --    5.26952   5.27130   5.27190   5.27428   5.27926
  Beta virt. eigenvalues --    5.28734   5.28922   5.29350   5.29392   5.29449
  Beta virt. eigenvalues --    5.29569   5.29720   5.30140   5.30431   5.30494
  Beta virt. eigenvalues --    5.30890   5.31071   5.31336   5.31399   5.31860
  Beta virt. eigenvalues --    5.32097   5.32350   5.32511   5.32825   5.33554
  Beta virt. eigenvalues --    5.34304   5.34558   5.34768   5.35043   5.35163
  Beta virt. eigenvalues --    5.35462   5.35862   5.36153   5.36556   5.37023
  Beta virt. eigenvalues --    5.37287   5.37648   5.37827   5.38299   5.38504
  Beta virt. eigenvalues --    5.38686   5.39269   5.39584   5.39970   5.40676
  Beta virt. eigenvalues --    5.41018   5.41474   5.41866   5.42090   5.42400
  Beta virt. eigenvalues --    5.42848   5.43300   5.43525   5.43640   5.44238
  Beta virt. eigenvalues --    5.44889   5.44928   5.45166   5.45214   5.45662
  Beta virt. eigenvalues --    5.46605   5.46730   5.46947   5.47393   5.47828
  Beta virt. eigenvalues --    5.48356   5.48645   5.49485   5.50004   5.50577
  Beta virt. eigenvalues --    5.50872   5.51113   5.51232   5.51695   5.51878
  Beta virt. eigenvalues --    5.52050   5.52421   5.52920   5.53119   5.53310
  Beta virt. eigenvalues --    5.53717   5.55043   5.55862   5.56146   5.56290
  Beta virt. eigenvalues --    5.57144   5.57835   5.58013   5.58077   5.58356
  Beta virt. eigenvalues --    5.58745   5.58783   5.58879   5.59441   5.59937
  Beta virt. eigenvalues --    5.60202   5.60220   5.60376   5.61193   5.61372
  Beta virt. eigenvalues --    5.61501   5.61820   5.62650   5.63005   5.63339
  Beta virt. eigenvalues --    5.64109   5.64220   5.64378   5.64791   5.65050
  Beta virt. eigenvalues --    5.65191   5.65564   5.66053   5.66372   5.66712
  Beta virt. eigenvalues --    5.67097   5.67351   5.67635   5.67837   5.68346
  Beta virt. eigenvalues --    5.68502   5.68730   5.69457   5.70042   5.70202
  Beta virt. eigenvalues --    5.71261   5.71455   5.72781   5.73137   5.74091
  Beta virt. eigenvalues --    5.75184   5.77408   5.78451   5.78707   5.81989
  Beta virt. eigenvalues --    5.82886   5.83369   5.83849   5.84282   5.86491
  Beta virt. eigenvalues --    5.86782   5.87191   5.88283   5.89147   5.89274
  Beta virt. eigenvalues --    5.90700   5.90991   5.91200   5.92865   5.94169
  Beta virt. eigenvalues --    5.94692   5.96413   5.96718   5.97583   5.97687
  Beta virt. eigenvalues --    5.99322   5.99600   6.00437   6.01450   6.01888
  Beta virt. eigenvalues --    6.03770   6.03910   6.04515   6.04797   6.05065
  Beta virt. eigenvalues --    6.05159   6.06698   6.07303   6.09614   6.10042
  Beta virt. eigenvalues --    6.11069   6.11311   6.12780   6.17556   6.18317
  Beta virt. eigenvalues --    6.19607   6.21366   6.21617   6.23686   6.23764
  Beta virt. eigenvalues --    6.24006   6.24328   6.25410   6.26095   6.26318
  Beta virt. eigenvalues --    6.26886   6.27071   6.27803   6.29197   6.29484
  Beta virt. eigenvalues --    6.30862   6.31316   6.31354   6.32204   6.32801
  Beta virt. eigenvalues --    6.34820   6.35278   6.38215   6.38929   6.43032
  Beta virt. eigenvalues --    6.44247   6.44874   6.45060   6.45505   6.45992
  Beta virt. eigenvalues --    6.46297   6.46715   6.46889   6.49996   6.50863
  Beta virt. eigenvalues --    6.61994   6.68895   6.70204   6.70377   6.72077
  Beta virt. eigenvalues --    6.72620   6.73845   6.74702   6.75505   6.76212
  Beta virt. eigenvalues --    6.76856   6.78134   6.78364   6.82781   6.83332
  Beta virt. eigenvalues --    6.83767   6.83997   6.84150   6.84393   6.85238
  Beta virt. eigenvalues --    6.85472   6.86462   6.86646   6.87030   6.87358
  Beta virt. eigenvalues --    6.87528   6.87921   6.88106   6.94218   6.94811
  Beta virt. eigenvalues --    6.97393   6.97510   6.97707   6.97775   6.98085
  Beta virt. eigenvalues --    6.98785   6.99477   6.99558   6.99846   7.00852
  Beta virt. eigenvalues --    7.02914   7.02918   7.04010   7.05183   7.07958
  Beta virt. eigenvalues --    7.08670   7.10128   7.11422   7.17703   7.18051
  Beta virt. eigenvalues --    7.19068   7.20600   7.22030   7.24379   7.25885
  Beta virt. eigenvalues --    7.26547   7.27077   7.27103   7.28387   7.28481
  Beta virt. eigenvalues --    7.29236   7.32063   7.33287   7.33573   7.34358
  Beta virt. eigenvalues --    7.34447   7.36606   7.36811   7.38585   7.38686
  Beta virt. eigenvalues --    7.39477   7.39759   7.45193   7.45753   7.47480
  Beta virt. eigenvalues --    7.47575   7.59214   7.60797   8.45919   8.49657
  Beta virt. eigenvalues --    8.56720   8.61311   8.81750   8.87758   8.89812
  Beta virt. eigenvalues --    8.92048   8.94035   9.01035  15.86864  22.81273
  Beta virt. eigenvalues --   22.86147  22.88765  22.93234  22.99819  23.10562
  Beta virt. eigenvalues --   23.12495  23.12847  23.13793  23.16913  23.18099
  Beta virt. eigenvalues --   23.18746  23.23269  23.25706  23.26341  23.26719
  Beta virt. eigenvalues --   23.27457  23.28666  23.30002  23.30614  23.30746
  Beta virt. eigenvalues --   23.33381  23.35009  23.35505  23.36544  23.36887
  Beta virt. eigenvalues --   23.37224  23.37596  23.41381  23.42578  23.43456
  Beta virt. eigenvalues --   23.45146  23.46976  23.47703  23.51008  23.53509
  Beta virt. eigenvalues --   23.53680  23.54360  23.55573  23.58385  23.59457
  Beta virt. eigenvalues --   23.62195  23.71679  23.76790  23.86625  23.94880
  Beta virt. eigenvalues --   24.00615  24.09879  24.10289  32.44483  32.56083
  Beta virt. eigenvalues --   33.16950  33.27762  44.14558  44.18025  44.19165
  Beta virt. eigenvalues --   44.22840  44.27217  44.28735  44.29320  44.42433
  Beta virt. eigenvalues --   44.43967  44.47743  44.49670  44.62105  44.62204
  Beta virt. eigenvalues --   57.33634  57.60740
          Condensed to atoms (all electrons):
          Atomic-Atomic Spin Densities.
 Mulliken charges and spin densities:
               1          2
     1  B    0.341105  -0.000012
     2  N   -0.109570   0.000015
     3  C   -0.043737   0.000435
     4  C   -0.063650  -0.000005
     5  C   -0.049749   0.000501
     6  C    0.112559  -0.000481
     7  C    0.180708  -0.000198
     8  C   -0.084159   0.007520
     9  O   -0.284837  -0.002064
    10  C   -0.494162  -0.005502
    11  C    0.145298   0.045936
    12  C   -0.120827   0.009018
    13  C   -0.038953   0.073494
    14  C   -0.009965   0.071750
    15  C   -0.131077   0.016386
    16  C   -0.152056   0.076929
    17  N    0.407441   0.108604
    18  O   -0.487872   0.145095
    19  O   -0.444136   0.096259
    20  N    0.413722   0.113636
    21  O   -0.492024   0.148116
    22  O   -0.448366   0.101122
    23  C    0.103008   0.003037
    24  N   -0.080776   0.000005
    25  C    0.014826   0.000031
    26  C   -0.078218   0.000148
    27  C   -0.017051  -0.000547
    28  C   -0.439188   0.000899
    29  C   -0.124125  -0.000031
    30  C   -0.049931   0.000049
    31  C   -0.020388  -0.000012
    32  C   -0.145529   0.000014
    33  C   -0.191840  -0.000009
    34  C    0.222569   0.000017
    35  O   -0.299952   0.000003
    36  C   -0.128276  -0.000000
    37  C   -0.069494   0.000000
    38  O   -0.339746  -0.000000
    39  C   -0.049633   0.000000
    40  C   -0.100876   0.000000
    41  O   -0.345414   0.000000
    42  C   -0.045895   0.000000
    43  C   -0.081911   0.000000
    44  O   -0.358393  -0.000000
    45  C   -0.201429  -0.000000
    46  C   -0.166918  -0.000009
    47  C   -0.155794   0.000016
    48  C   -0.409514   0.000730
    49  C   -0.072799  -0.000225
    50  C   -0.081041   0.000329
    51  C    0.008039  -0.000068
    52  C   -0.119878   0.000080
    53  C   -0.194869  -0.000051
    54  C    0.221586   0.000096
    55  O   -0.300815   0.000016
    56  C   -0.126176  -0.000000
    57  C   -0.071606   0.000000
    58  O   -0.336601  -0.000000
    59  C   -0.051883   0.000000
    60  C   -0.112142   0.000000
    61  O   -0.350900   0.000000
    62  C   -0.036196   0.000000
    63  C   -0.074402  -0.000000
    64  O   -0.359132   0.000000
    65  C   -0.190465   0.000000
    66  C   -0.153596  -0.000048
    67  C   -0.203460   0.000095
    68  F   -0.331047   0.000001
    69  F   -0.361550   0.000000
    70  H    0.163935  -0.000015
    71  H    0.208128   0.000378
    72  H    0.239599  -0.000391
    73  H    0.168367  -0.002849
    74  H    0.172908  -0.002360
    75  H    0.154370  -0.004088
    76  H    0.167458  -0.000002
    77  H    0.149091  -0.000467
    78  H    0.136814  -0.000172
    79  H    0.179105  -0.000313
    80  H    0.125687   0.000000
    81  H    0.114391  -0.000001
    82  H    0.151519  -0.000001
    83  H    0.159027   0.000000
    84  H    0.155873   0.000000
    85  H    0.147500   0.000000
    86  H    0.137920   0.000000
    87  H    0.130368   0.000000
    88  H    0.120384  -0.000000
    89  H    0.121906  -0.000000
    90  H    0.126380  -0.000000
    91  H    0.127663   0.000000
    92  H    0.120488  -0.000000
    93  H    0.114501   0.000000
    94  H    0.118674  -0.000000
    95  H    0.123759  -0.000000
    96  H    0.128894  -0.000000
    97  H    0.117464  -0.000000
    98  H    0.133385   0.000000
    99  H    0.156824   0.000000
   100  H    0.144444  -0.000001
   101  H    0.136749  -0.001151
   102  H    0.175955   0.000231
   103  H    0.134322   0.000085
   104  H    0.098880   0.000012
   105  H    0.130872  -0.000014
   106  H    0.145083  -0.000002
   107  H    0.158747   0.000001
   108  H    0.156668   0.000000
   109  H    0.144112   0.000001
   110  H    0.138944   0.000000
   111  H    0.130267   0.000000
   112  H    0.123392  -0.000000
   113  H    0.120862  -0.000000
   114  H    0.130461  -0.000000
   115  H    0.127267  -0.000000
   116  H    0.112666   0.000000
   117  H    0.118084  -0.000000
   118  H    0.111456   0.000000
   119  H    0.124689  -0.000000
   120  H    0.119230  -0.000000
   121  H    0.136652  -0.000000
   122  H    0.117240  -0.000000
   123  H    0.149857   0.000000
   124  H    0.153848  -0.000004
 Sum of Mulliken charges =  -1.00000   1.00000
 Mulliken charges and spin densities with hydrogens summed into heavy atoms:
               1          2
     1  B    0.341105  -0.000012
     2  N   -0.109570   0.000015
     3  C   -0.043737   0.000435
     4  C    0.100285  -0.000020
     5  C   -0.049749   0.000501
     6  C    0.112559  -0.000481
     7  C    0.180708  -0.000198
     8  C   -0.084159   0.007520
     9  O   -0.284837  -0.002064
    10  C   -0.046435  -0.005515
    11  C    0.145298   0.045936
    12  C    0.047539   0.006169
    13  C   -0.038953   0.073494
    14  C   -0.009965   0.071750
    15  C    0.041831   0.014026
    16  C    0.002314   0.072841
    17  N    0.407441   0.108604
    18  O   -0.487872   0.145095
    19  O   -0.444136   0.096259
    20  N    0.413722   0.113636
    21  O   -0.492024   0.148116
    22  O   -0.448366   0.101122
    23  C    0.103008   0.003037
    24  N   -0.080776   0.000005
    25  C    0.014826   0.000031
    26  C    0.089240   0.000146
    27  C   -0.017051  -0.000547
    28  C    0.025823  -0.000054
    29  C    0.001562  -0.000030
    30  C    0.064460   0.000048
    31  C   -0.020388  -0.000012
    32  C    0.005990   0.000013
    33  C   -0.032813  -0.000009
    34  C    0.222569   0.000017
    35  O   -0.299952   0.000003
    36  C    0.175097   0.000000
    37  C    0.198794   0.000000
    38  O   -0.339746  -0.000000
    39  C    0.192657   0.000000
    40  C    0.153167   0.000000
    41  O   -0.345414   0.000000
    42  C    0.189094   0.000000
    43  C    0.160522   0.000000
    44  O   -0.358393  -0.000000
    45  C    0.178313  -0.000000
    46  C   -0.010094  -0.000009
    47  C   -0.011350   0.000015
    48  C    0.037512  -0.000104
    49  C    0.026080  -0.000213
    50  C    0.049832   0.000315
    51  C    0.008039  -0.000068
    52  C    0.025205   0.000078
    53  C   -0.036122  -0.000050
    54  C    0.221586   0.000096
    55  O   -0.300815   0.000016
    56  C    0.174604   0.000001
    57  C    0.197604   0.000000
    58  O   -0.336601  -0.000000
    59  C    0.192371   0.000000
    60  C    0.145586   0.000000
    61  O   -0.350900   0.000000
    62  C    0.194553   0.000000
    63  C    0.161742  -0.000000
    64  O   -0.359132   0.000000
    65  C    0.182657   0.000000
    66  C   -0.003739  -0.000048
    67  C   -0.049612   0.000091
    68  F   -0.331047   0.000001
    69  F   -0.361550   0.000000
 Electronic spatial extent (au):  <R**2>=         156170.9652
 Charge=             -1.0000 electrons
 Dipole moment (field-independent basis, Debye):
    X=            -38.0630    Y=             44.3604    Z=              0.7048  Tot=             58.4562
 Quadrupole moment (field-independent basis, Debye-Ang):
   XX=           -737.2455   YY=           -834.6643   ZZ=           -422.8997
   XY=            375.3576   XZ=            -31.3120   YZ=            -24.7747
 Traceless Quadrupole moment (field-independent basis, Debye-Ang):
   XX=            -72.3090   YY=           -169.7278   ZZ=            242.0368
   XY=            375.3576   XZ=            -31.3120   YZ=            -24.7747
 Octapole moment (field-independent basis, Debye-Ang**2):
  XXX=          -2062.1622  YYY=           4223.6691  ZZZ=             22.2214  XYY=          -3894.1695
  XXY=           2943.3267  XXZ=            151.4445  XZZ=           -136.7053  YZZ=             67.6461
  YYZ=           -476.9710  XYZ=             74.6152
 Hexadecapole moment (field-independent basis, Debye-Ang**3):
 XXXX=        -158087.1615 YYYY=        -135187.5149 ZZZZ=          -3313.4833 XXXY=          25928.0699
 XXXZ=          -6559.1521 YYYX=          30307.7819 YYYZ=          -3504.1919 ZZZX=           -284.5323
 ZZZY=           -284.8990 XXYY=         -63641.0225 XXZZ=         -19402.3637 YYZZ=         -16227.1744
 XXYZ=            256.3939 YYXZ=          -2979.9336 ZZXY=            449.6015
 N-N= 9.199266749740D+03 E-N=-2.618936003662D+04  KE= 3.304207291592D+03
 Leave Link  601 at Fri Oct 24 17:11:58 2025, MaxMem= 30870077440 cpu:             247.8 elap:               4.4
 (Enter /public/software/gauss/g16/l9999.exe)
 1\1\GINC-CU056\SP\UM062X\def2TZVPP\C49H55B1F2N4O13(1-,2)\BAIDING\24-Oc
 t-2025\0\\#p M062X/DEF2TZVPP scrf=(solvent=water) em=GD3\\Energy calcu
 lation for BE_23NO2_reduced\\-1,2\B,0,1.171685,-0.827931,-0.52435\N,0,
 2.707258,-0.631616,-0.627889\C,0,3.415883,0.542974,-0.604286\C,0,4.797
 276,0.228283,-0.639485\C,0,4.952077,-1.145166,-0.681421\C,0,3.626408,-
 1.689681,-0.654573\C,0,3.190605,-3.02513,-0.647488\C,0,4.220139,-4.137
 137,-0.578706\O,0,4.665973,-4.634279,-1.599493\C,0,4.614352,-4.576929,
 0.824449\C,0,5.73059,-5.587989,0.879511\C,0,5.519246,-6.899003,0.48539
 4\C,0,6.548957,-7.860901,0.542657\C,0,7.863042,-7.44786,0.918666\C,0,8
 .049774,-6.125133,1.373161\C,0,7.011492,-5.21714,1.35601\N,0,9.018965,
 -8.226386,0.694182\O,0,10.076165,-7.956193,1.343677\O,0,8.999971,-9.13
 9501,-0.175647\N,0,6.174772,-9.215573,0.397693\O,0,5.114038,-9.495085,
 -0.242513\O,0,6.868728,-10.11759,0.941268\C,0,1.831716,-3.355738,-0.67
 6472\N,0,0.873036,-2.344139,-0.659689\C,0,-0.365304,-2.916044,-0.71128
 7\C,0,-0.202838,-4.326479,-0.773535\C,0,1.147434,-4.619929,-0.755736\C
 ,0,1.725142,-5.99891,-0.854026\C,0,-1.580366,-2.145964,-0.713495\C,0,-
 2.818873,-2.702083,-0.661413\C,0,-4.092971,-2.000444,-0.664447\C,0,-4.
 217271,-0.591604,-0.685312\C,0,-5.460467,0.015986,-0.688676\C,0,-6.633
 712,-0.759939,-0.671031\O,0,-7.801977,-0.045693,-0.690098\C,0,-9.06405
 7,-0.727961,-0.705141\C,0,-9.504374,-1.103846,0.705466\O,0,-10.802726,
 -1.673019,0.595446\C,0,-11.335853,-2.064241,1.860456\C,0,-12.734526,-2
 .630256,1.692222\O,0,-13.744289,-1.647905,1.460795\C,0,-13.864637,-1.2
 10801,0.104131\C,0,-15.118273,-0.369951,-0.061707\O,0,-16.33723,-1.110
 977,-0.082032\C,0,-16.858099,-1.43889,1.203434\C,0,-6.54003,-2.157036,
 -0.644548\C,0,-5.282036,-2.754623,-0.641934\C,0,6.266067,-1.858562,-0.
 78449\C,0,2.957321,1.907733,-0.527702\C,0,1.705225,2.424079,-0.631939\
 C,0,1.349991,3.833271,-0.521536\C,0,0.007111,4.20943,-0.745323\C,0,-0.
 402031,5.531395,-0.660692\C,0,0.525862,6.534385,-0.342737\O,0,0.015164
 ,7.804505,-0.271263\C,0,0.862823,8.904235,0.089101\C,0,1.613044,9.4449
 48,-1.123323\O,0,2.31905,10.600918,-0.690299\C,0,3.07489,11.205157,-1.
 73944\C,0,3.784579,12.446435,-1.229618\O,0,4.924384,12.187142,-0.41194
 3\C,0,4.638537,11.868734,0.95054\C,0,5.94491,12.021071,1.726338\O,0,5.
 777971,11.722778,3.109737\C,0,5.850096,10.330501,3.407051\C,0,1.867238
 ,6.190057,-0.113679\C,0,2.262116,4.859416,-0.202284\F,0,0.693808,-0.34
 0949,0.698083\F,0,0.519231,-0.153777,-1.575388\H,0,5.590627,0.963962,-
 0.650452\H,0,4.863636,-3.675517,1.394981\H,0,3.696168,-4.965385,1.2852
 67\H,0,4.534589,-7.229791,0.17895\H,0,9.043178,-5.825733,1.681731\H,0,
 7.184885,-4.199069,1.690203\H,0,-1.004888,-5.047266,-0.849304\H,0,2.27
 9291,-6.28003,0.048039\H,0,0.919956,-6.725683,-0.985628\H,0,2.410573,-
 6.094001,-1.701106\H,0,-1.469166,-1.069882,-0.771722\H,0,-2.900196,-3.
 786137,-0.611072\H,0,-3.332388,0.036265,-0.697018\H,0,-5.552064,1.0971
 96,-0.706495\H,0,-9.770774,-0.011711,-1.130512\H,0,-9.030158,-1.604983
 ,-1.358233\H,0,-8.806325,-1.821019,1.160259\H,0,-9.522803,-0.204186,1.
 33768\H,0,-10.694575,-2.835714,2.314491\H,0,-11.363037,-1.203738,2.545
 242\H,0,-12.739442,-3.383755,0.891897\H,0,-13.007163,-3.127136,2.62893
 5\H,0,-12.997459,-0.603323,-0.185521\H,0,-13.908673,-2.07852,-0.570309
 \H,0,-15.153608,0.405612,0.717424\H,0,-15.054587,0.130066,-1.034252\H,
 0,-16.258178,-2.199834,1.714266\H,0,-16.91852,-0.550021,1.846913\H,0,-
 17.86759,-1.829084,1.046982\H,0,-7.424681,-2.781277,-0.620933\H,0,-5.2
 17306,-3.839074,-0.620443\H,0,6.45923,-2.511861,0.072636\H,0,6.322165,
 -2.478341,-1.684423\H,0,7.076366,-1.12672,-0.827811\H,0,3.787026,2.595
 143,-0.380161\H,0,0.873533,1.762961,-0.840926\H,0,-0.722501,3.442347,-
 0.989639\H,0,-1.436807,5.809477,-0.832656\H,0,0.187256,9.672417,0.4724
 31\H,0,1.552405,8.623994,0.891077\H,0,2.30745,8.694887,-1.527094\H,0,0
 .895256,9.701202,-1.916488\H,0,3.810029,10.491545,-2.140212\H,0,2.4053
 17,11.497446,-2.56324\H,0,4.159567,12.996311,-2.099027\H,0,3.070349,13
 .09143,-0.698196\H,0,3.885105,12.558836,1.356212\H,0,4.24571,10.849388
 ,1.041488\H,0,6.722453,11.384101,1.28122\H,0,6.282746,13.060695,1.6653
 12\H,0,6.819127,9.909843,3.104478\H,0,5.742106,10.229905,4.48993\H,0,5
 .051811,9.756538,2.920028\H,0,2.605441,6.944284,0.129742\H,0,3.304409,
 4.62199,-0.01522\\Version=ES64L-G16RevA.03\State=2-A\HF=-3321.7983061\
 S2=0.768741\S2-1=0.\S2A=0.750156\RMSD=2.824e-09\Dipole=-14.9751365,17.
 4527057,0.2772806\Quadrupole=-53.7599749,-126.1884398,179.9484147,279.
 0691878,-23.279673,-18.4193729\PG=C01 [X(C49H55B1F2N4O13)]\\@


 WISDOM IS KNOWING WHAT TO DO,
 SKILL IS KNOWING HOW TO DO IT,
 AND VIRTUE IS NOT DOING IT.
 Job cpu time:       3 days 15 hours  4 minutes 21.8 seconds.
 Elapsed time:       0 days  1 hours 22 minutes 38.9 seconds.
 File lengths (MBytes):  RWF=   9068 Int=      0 D2E=      0 Chk=    586 Scr=      1
 Normal termination of Gaussian 16 at Fri Oct 24 17:12:00 2025.
