 Entering Gaussian System, Link 0=g16
 Input=BE_24NO2_sp.gjf
 Output=BE_24NO2_sp.log
 Initial command:
 /public/software/gauss/g16/l1.exe "/public/home/baiding/1024_sp/tmp_BE_24NO2_sp_1526250/Gau-2913386.inp" -scrdir="/public/home/baiding/1024_sp/tmp_BE_24NO2_sp_1526250/"
 Entering Link 1 = /public/software/gauss/g16/l1.exe PID=   2913387.
  
 Copyright (c) 1988,1990,1992,1993,1995,1998,2003,2009,2016,
            Gaussian, Inc.  All Rights Reserved.
  
 This is part of the Gaussian(R) 16 program.  It is based on
 the Gaussian(R) 09 system (copyright 2009, Gaussian, Inc.),
 the Gaussian(R) 03 system (copyright 2003, Gaussian, Inc.),
 the Gaussian(R) 98 system (copyright 1998, Gaussian, Inc.),
 the Gaussian(R) 94 system (copyright 1995, Gaussian, Inc.),
 the Gaussian 92(TM) system (copyright 1992, Gaussian, Inc.),
 the Gaussian 90(TM) system (copyright 1990, Gaussian, Inc.),
 the Gaussian 88(TM) system (copyright 1988, Gaussian, Inc.),
 the Gaussian 86(TM) system (copyright 1986, Carnegie Mellon
 University), and the Gaussian 82(TM) system (copyright 1983,
 Carnegie Mellon University). Gaussian is a federally registered
 trademark of Gaussian, Inc.
  
 This software contains proprietary and confidential information,
 including trade secrets, belonging to Gaussian, Inc.
  
 This software is provided under written license and may be
 used, copied, transmitted, or stored only in accord with that
 written license.
  
 The following legend is applicable only to US Government
 contracts under FAR:
  
                    RESTRICTED RIGHTS LEGEND
  
 Use, reproduction and disclosure by the US Government is
 subject to restrictions as set forth in subparagraphs (a)
 and (c) of the Commercial Computer Software - Restricted
 Rights clause in FAR 52.227-19.
  
 Gaussian, Inc.
 340 Quinnipiac St., Bldg. 40, Wallingford CT 06492
  
  
 ---------------------------------------------------------------
 Warning -- This program may not be used in any manner that
 competes with the business of Gaussian, Inc. or will provide
 assistance to any competitor of Gaussian, Inc.  The licensee
 of this program is prohibited from giving any competitor of
 Gaussian, Inc. access to this program.  By using this program,
 the user acknowledges that Gaussian, Inc. is engaged in the
 business of creating and licensing software in the field of
 computational chemistry and represents and warrants to the
 licensee that it is not a competitor of Gaussian, Inc. and that
 it will not use this program in any manner prohibited above.
 ---------------------------------------------------------------
  

 Cite this work as:
 Gaussian 16, Revision A.03,
 M. J. Frisch, G. W. Trucks, H. B. Schlegel, G. E. Scuseria, 
 M. A. Robb, J. R. Cheeseman, G. Scalmani, V. Barone, 
 G. A. Petersson, H. Nakatsuji, X. Li, M. Caricato, A. V. Marenich, 
 J. Bloino, B. G. Janesko, R. Gomperts, B. Mennucci, H. P. Hratchian, 
 J. V. Ortiz, A. F. Izmaylov, J. L. Sonnenberg, D. Williams-Young, 
 F. Ding, F. Lipparini, F. Egidi, J. Goings, B. Peng, A. Petrone, 
 T. Henderson, D. Ranasinghe, V. G. Zakrzewski, J. Gao, N. Rega, 
 G. Zheng, W. Liang, M. Hada, M. Ehara, K. Toyota, R. Fukuda, 
 J. Hasegawa, M. Ishida, T. Nakajima, Y. Honda, O. Kitao, H. Nakai, 
 T. Vreven, K. Throssell, J. A. Montgomery, Jr., J. E. Peralta, 
 F. Ogliaro, M. J. Bearpark, J. J. Heyd, E. N. Brothers, K. N. Kudin, 
 V. N. Staroverov, T. A. Keith, R. Kobayashi, J. Normand, 
 K. Raghavachari, A. P. Rendell, J. C. Burant, S. S. Iyengar, 
 J. Tomasi, M. Cossi, J. M. Millam, M. Klene, C. Adamo, R. Cammi, 
 J. W. Ochterski, R. L. Martin, K. Morokuma, O. Farkas, 
 J. B. Foresman, and D. J. Fox, Gaussian, Inc., Wallingford CT, 2016.
 
 ******************************************
 Gaussian 16:  ES64L-G16RevA.03 25-Dec-2016
                24-Oct-2025 
 ******************************************
 %nprocshared=64
 Will use up to   64 processors via shared memory.
 %mem=230GB
 %chk=BE_24NO2_sp.chk
 ----------------------------------------------
 #p M062X/DEF2TZVPP scrf=(solvent=water) em=GD3
 ----------------------------------------------
 1/38=1,172=1/1;
 2/12=2,17=6,18=5,40=1/2;
 3/5=44,7=202,11=2,25=1,30=1,70=2201,72=1,74=-55,124=31/1,2,3;
 4//1;
 5/5=2,38=5,53=1/2;
 6/7=2,8=2,9=2,10=2,28=1/1;
 99/5=1,9=1/99;
 Leave Link    1 at Fri Oct 24 17:42:20 2025, MaxMem= 30870077440 cpu:              22.5 elap:               0.4
 (Enter /public/software/gauss/g16/l101.exe)
 -------------------------------
 Energy calculation for BE_24NO2
 -------------------------------
 Symbolic Z-matrix:
 Charge =  0 Multiplicity = 1
 B                    -2.78027  -0.68913  -0.21766 
 N                    -3.63357   0.58842  -0.00645 
 C                    -3.18943   1.88481   0.04462 
 C                    -4.26262   2.70458   0.47264 
 C                    -5.38651   1.92228   0.66165 
 C                    -4.98444   0.57805   0.35875 
 C                    -5.69225  -0.63361   0.43504 
 C                    -7.19451  -0.56953   0.65406 
 O                    -7.67448  -0.6327    1.77185 
 C                    -8.04697  -0.42957  -0.60892 
 C                    -9.37539   0.2601   -0.41292 
 C                    -10.40036  -0.16852   0.45272 
 N                    -10.33083  -1.45226   1.15878 
 O                    -10.80399  -1.51342   2.29368 
 O                    -9.84445  -2.41367   0.56292 
 C                    -11.56657   0.55817   0.66353 
 C                    -11.73468   1.73734  -0.04865 
 C                    -10.76943   2.2021   -0.93809 
 C                    -9.60185   1.46501  -1.09652 
 N                    -12.96514   2.50396   0.14283 
 O                    -13.10192   3.55063  -0.49445 
 O                    -13.80738   2.06925   0.93203 
 C                    -5.05189  -1.87196   0.2952 
 N                    -3.67328  -1.93017   0.04581 
 C                    -3.3165   -3.24853  -0.06528 
 C                    -4.47752  -4.04027   0.12946 
 C                    -5.55834  -3.2156    0.36476 
 C                    -6.94636  -3.69511   0.65141 
 C                    -2.03787  -3.85243  -0.34032 
 C                    -0.79155  -3.31025  -0.34338 
 C                     0.44467  -4.02015  -0.63784 
 C                     0.50422  -5.36548  -1.07004 
 C                     1.71629  -5.98237  -1.32573 
 C                     2.92314  -5.27888  -1.15929 
 O                     4.0561   -5.989    -1.45604 
 C                     5.34502  -5.37171  -1.32627 
 C                     5.84869  -5.45078   0.11088 
 O                     7.14581  -4.87068   0.12689 
 C                     7.75365  -4.92965   1.41548 
 C                     9.11867  -4.28374   1.35265 
 O                     9.96729  -5.07699   0.52089 
 C                     11.22517  -4.47233   0.22277 
 C                     12.2191  -4.59964   1.38253 
 O                     13.48343  -4.02173   1.05927 
 C                     14.3293  -4.88264   0.30065 
 C                     2.89427  -3.94537  -0.73228 
 C                     1.66655  -3.33686  -0.48385 
 C                    -6.70608   2.43654   1.14962 
 C                    -1.89327   2.43139  -0.26749 
 C                    -0.85456   1.86538  -0.93526 
 C                     0.42778   2.49436  -1.22013 
 C                     1.36817   1.78516  -1.99971 
 C                     2.60735   2.32288  -2.31147 
 C                     2.9552    3.60052  -1.84754 
 O                     4.19669   4.04303  -2.22277 
 C                     4.66314   5.32974  -1.79177 
 C                     5.24943   5.26151  -0.38524 
 O                     5.79479   6.54807  -0.11121 
 C                     6.13205   6.76527   1.25903 
 C                     7.32212   5.93879   1.73847 
 O                     8.47934   6.0625    0.91415 
 C                     9.13822   7.32487   1.01361 
 C                     10.45845   7.24549   0.28108 
 O                     11.32279   6.34204   0.96128 
 C                     12.58138   6.2191    0.31311 
 C                     2.04283   4.32579  -1.06468 
 C                     0.80261   3.77397  -0.76273 
 F                    -1.7054   -0.65676   0.68688 
 F                    -2.28655  -0.75714  -1.53196 
 H                    -4.19537   3.775     0.61481 
 H                    -7.46891   0.10621  -1.36442 
 H                    -8.18492  -1.44976  -0.98732 
 H                    -12.32569   0.20122   1.34583 
 H                    -10.92515   3.12293  -1.48509 
 H                    -8.83513   1.8323   -1.76958 
 H                    -4.48709  -5.12206   0.11716 
 H                    -7.34974  -3.26647   1.57196 
 H                    -7.6395   -3.44646  -0.15782 
 H                    -6.94145  -4.78276   0.75696 
 H                    -2.13714  -4.91725  -0.53684 
 H                    -0.66657  -2.26819  -0.07635 
 H                    -0.40904  -5.93317  -1.2158 
 H                     1.75709  -7.01323  -1.66249 
 H                     6.00505  -5.94597  -1.98022 
 H                     5.32481  -4.33784  -1.68326 
 H                     5.17517  -4.91453   0.79495 
 H                     5.88476  -6.50253   0.43046 
 H                     7.14036  -4.39438   2.15539 
 H                     7.84452  -5.97525   1.74531 
 H                     9.03456  -3.26639   0.94378 
 H                     9.5135   -4.20695   2.37462 
 H                     11.60704  -4.99374  -0.65988 
 H                     11.09403  -3.41251  -0.03759 
 H                     11.85187  -4.05624   2.25854 
 H                     12.33228  -5.65728   1.66014 
 H                     15.2733  -4.352     0.15311 
 H                     14.52755  -5.81963   0.83949 
 H                     13.90805  -5.12699  -0.68255 
 H                     3.80658  -3.38025  -0.58655 
 H                     1.65285  -2.30194  -0.15356 
 H                    -7.03426   1.9251    2.05892 
 H                    -6.61912   3.50246   1.37396 
 H                    -7.50028   2.32403   0.40551 
 H                    -1.80254   3.46407   0.06077 
 H                    -0.96734   0.86335  -1.332 
 H                     1.1116    0.79448  -2.36462 
 H                     3.32182   1.77123  -2.91385 
 H                     5.44726   5.60147  -2.5022 
 H                     3.8689    6.07949  -1.85542 
 H                     4.47587   5.00657   0.35204 
 H                     6.0198    4.47953  -0.3542 
 H                     6.34612   7.83485   1.33781 
 H                     5.27269   6.54456   1.91016 
 H                     7.54747   6.22856   2.77611 
 H                     7.07448   4.87322   1.73679 
 H                     8.53809   8.12694   0.56281 
 H                     9.30857   7.58072   2.06988 
 H                     10.29398   6.91098  -0.75487 
 H                     10.9039   8.25139   0.24073 
 H                     13.18104   5.51494   0.8951 
 H                     12.47217   5.83412  -0.71099 
 H                     13.10768   7.18354   0.26675 
 H                     2.28941   5.30878  -0.68257 
 H                     0.12018   4.35471  -0.15054 
 
 ITRead=  0  0  0  0  0  0  0  0  0  0  0  0  0  0  0  0  0  0  0  0
 ITRead=  0  0  0  0  0  0  0  0  0  0  0  0  0  0  0  0  0  0  0  0
 ITRead=  0  0  0  0  0  0  0  0  0  0  0  0  0  0  0  0  0  0  0  0
 ITRead=  0  0  0  0  0  0  0  0  0  0  0  0  0  0  0  0  0  0  0  0
 ITRead=  0  0  0  0  0  0  0  0  0  0  0  0  0  0  0  0  0  0  0  0
 ITRead=  0  0  0  0  0  0  0  0  0  0  0  0  0  0  0  0  0  0  0  0
 ITRead=  0  0  0  0
 MicOpt= -1 -1 -1 -1 -1 -1 -1 -1 -1 -1 -1 -1 -1 -1 -1 -1 -1 -1 -1 -1
 MicOpt= -1 -1 -1 -1 -1 -1 -1 -1 -1 -1 -1 -1 -1 -1 -1 -1 -1 -1 -1 -1
 MicOpt= -1 -1 -1 -1 -1 -1 -1 -1 -1 -1 -1 -1 -1 -1 -1 -1 -1 -1 -1 -1
 MicOpt= -1 -1 -1 -1 -1 -1 -1 -1 -1 -1 -1 -1 -1 -1 -1 -1 -1 -1 -1 -1
 MicOpt= -1 -1 -1 -1 -1 -1 -1 -1 -1 -1 -1 -1 -1 -1 -1 -1 -1 -1 -1 -1
 MicOpt= -1 -1 -1 -1 -1 -1 -1 -1 -1 -1 -1 -1 -1 -1 -1 -1 -1 -1 -1 -1
 MicOpt= -1 -1 -1 -1
 NAtoms=    124 NQM=      124 NQMF=       0 NMMI=      0 NMMIF=      0
                NMic=       0 NMicF=      0.
                    Isotopes and Nuclear Properties:
 (Nuclear quadrupole moments (NQMom) in fm**2, nuclear magnetic moments (NMagM)
  in nuclear magnetons)

  Atom         1           2           3           4           5           6           7           8           9          10
 IAtWgt=          11          14          12          12          12          12          12          12          16          12
 AtmWgt=  11.0093053  14.0030740  12.0000000  12.0000000  12.0000000  12.0000000  12.0000000  12.0000000  15.9949146  12.0000000
 NucSpn=           3           2           0           0           0           0           0           0           0           0
 AtZEff=  -0.0000000  -0.0000000  -0.0000000  -0.0000000  -0.0000000  -0.0000000  -0.0000000  -0.0000000  -0.0000000  -0.0000000
 NQMom=    4.0590000   2.0440000   0.0000000   0.0000000   0.0000000   0.0000000   0.0000000   0.0000000   0.0000000   0.0000000
 NMagM=    2.6886370   0.4037610   0.0000000   0.0000000   0.0000000   0.0000000   0.0000000   0.0000000   0.0000000   0.0000000
 AtZNuc=   5.0000000   7.0000000   6.0000000   6.0000000   6.0000000   6.0000000   6.0000000   6.0000000   8.0000000   6.0000000

  Atom        11          12          13          14          15          16          17          18          19          20
 IAtWgt=          12          12          14          16          16          12          12          12          12          14
 AtmWgt=  12.0000000  12.0000000  14.0030740  15.9949146  15.9949146  12.0000000  12.0000000  12.0000000  12.0000000  14.0030740
 NucSpn=           0           0           2           0           0           0           0           0           0           2
 AtZEff=  -0.0000000  -0.0000000  -0.0000000  -0.0000000  -0.0000000  -0.0000000  -0.0000000  -0.0000000  -0.0000000  -0.0000000
 NQMom=    0.0000000   0.0000000   2.0440000   0.0000000   0.0000000   0.0000000   0.0000000   0.0000000   0.0000000   2.0440000
 NMagM=    0.0000000   0.0000000   0.4037610   0.0000000   0.0000000   0.0000000   0.0000000   0.0000000   0.0000000   0.4037610
 AtZNuc=   6.0000000   6.0000000   7.0000000   8.0000000   8.0000000   6.0000000   6.0000000   6.0000000   6.0000000   7.0000000

  Atom        21          22          23          24          25          26          27          28          29          30
 IAtWgt=          16          16          12          14          12          12          12          12          12          12
 AtmWgt=  15.9949146  15.9949146  12.0000000  14.0030740  12.0000000  12.0000000  12.0000000  12.0000000  12.0000000  12.0000000
 NucSpn=           0           0           0           2           0           0           0           0           0           0
 AtZEff=  -0.0000000  -0.0000000  -0.0000000  -0.0000000  -0.0000000  -0.0000000  -0.0000000  -0.0000000  -0.0000000  -0.0000000
 NQMom=    0.0000000   0.0000000   0.0000000   2.0440000   0.0000000   0.0000000   0.0000000   0.0000000   0.0000000   0.0000000
 NMagM=    0.0000000   0.0000000   0.0000000   0.4037610   0.0000000   0.0000000   0.0000000   0.0000000   0.0000000   0.0000000
 AtZNuc=   8.0000000   8.0000000   6.0000000   7.0000000   6.0000000   6.0000000   6.0000000   6.0000000   6.0000000   6.0000000

  Atom        31          32          33          34          35          36          37          38          39          40
 IAtWgt=          12          12          12          12          16          12          12          16          12          12
 AtmWgt=  12.0000000  12.0000000  12.0000000  12.0000000  15.9949146  12.0000000  12.0000000  15.9949146  12.0000000  12.0000000
 NucSpn=           0           0           0           0           0           0           0           0           0           0
 AtZEff=  -0.0000000  -0.0000000  -0.0000000  -0.0000000  -0.0000000  -0.0000000  -0.0000000  -0.0000000  -0.0000000  -0.0000000
 NQMom=    0.0000000   0.0000000   0.0000000   0.0000000   0.0000000   0.0000000   0.0000000   0.0000000   0.0000000   0.0000000
 NMagM=    0.0000000   0.0000000   0.0000000   0.0000000   0.0000000   0.0000000   0.0000000   0.0000000   0.0000000   0.0000000
 AtZNuc=   6.0000000   6.0000000   6.0000000   6.0000000   8.0000000   6.0000000   6.0000000   8.0000000   6.0000000   6.0000000

  Atom        41          42          43          44          45          46          47          48          49          50
 IAtWgt=          16          12          12          16          12          12          12          12          12          12
 AtmWgt=  15.9949146  12.0000000  12.0000000  15.9949146  12.0000000  12.0000000  12.0000000  12.0000000  12.0000000  12.0000000
 NucSpn=           0           0           0           0           0           0           0           0           0           0
 AtZEff=  -0.0000000  -0.0000000  -0.0000000  -0.0000000  -0.0000000  -0.0000000  -0.0000000  -0.0000000  -0.0000000  -0.0000000
 NQMom=    0.0000000   0.0000000   0.0000000   0.0000000   0.0000000   0.0000000   0.0000000   0.0000000   0.0000000   0.0000000
 NMagM=    0.0000000   0.0000000   0.0000000   0.0000000   0.0000000   0.0000000   0.0000000   0.0000000   0.0000000   0.0000000
 AtZNuc=   8.0000000   6.0000000   6.0000000   8.0000000   6.0000000   6.0000000   6.0000000   6.0000000   6.0000000   6.0000000

  Atom        51          52          53          54          55          56          57          58          59          60
 IAtWgt=          12          12          12          12          16          12          12          16          12          12
 AtmWgt=  12.0000000  12.0000000  12.0000000  12.0000000  15.9949146  12.0000000  12.0000000  15.9949146  12.0000000  12.0000000
 NucSpn=           0           0           0           0           0           0           0           0           0           0
 AtZEff=  -0.0000000  -0.0000000  -0.0000000  -0.0000000  -0.0000000  -0.0000000  -0.0000000  -0.0000000  -0.0000000  -0.0000000
 NQMom=    0.0000000   0.0000000   0.0000000   0.0000000   0.0000000   0.0000000   0.0000000   0.0000000   0.0000000   0.0000000
 NMagM=    0.0000000   0.0000000   0.0000000   0.0000000   0.0000000   0.0000000   0.0000000   0.0000000   0.0000000   0.0000000
 AtZNuc=   6.0000000   6.0000000   6.0000000   6.0000000   8.0000000   6.0000000   6.0000000   8.0000000   6.0000000   6.0000000

  Atom        61          62          63          64          65          66          67          68          69          70
 IAtWgt=          16          12          12          16          12          12          12          19          19           1
 AtmWgt=  15.9949146  12.0000000  12.0000000  15.9949146  12.0000000  12.0000000  12.0000000  18.9984033  18.9984033   1.0078250
 NucSpn=           0           0           0           0           0           0           0           1           1           1
 AtZEff=  -0.0000000  -0.0000000  -0.0000000  -0.0000000  -0.0000000  -0.0000000  -0.0000000  -0.0000000  -0.0000000  -0.0000000
 NQMom=    0.0000000   0.0000000   0.0000000   0.0000000   0.0000000   0.0000000   0.0000000   0.0000000   0.0000000   0.0000000
 NMagM=    0.0000000   0.0000000   0.0000000   0.0000000   0.0000000   0.0000000   0.0000000   2.6288670   2.6288670   2.7928460
 AtZNuc=   8.0000000   6.0000000   6.0000000   8.0000000   6.0000000   6.0000000   6.0000000   9.0000000   9.0000000   1.0000000

  Atom        71          72          73          74          75          76          77          78          79          80
 IAtWgt=           1           1           1           1           1           1           1           1           1           1
 AtmWgt=   1.0078250   1.0078250   1.0078250   1.0078250   1.0078250   1.0078250   1.0078250   1.0078250   1.0078250   1.0078250
 NucSpn=           1           1           1           1           1           1           1           1           1           1
 AtZEff=  -0.0000000  -0.0000000  -0.0000000  -0.0000000  -0.0000000  -0.0000000  -0.0000000  -0.0000000  -0.0000000  -0.0000000
 NQMom=    0.0000000   0.0000000   0.0000000   0.0000000   0.0000000   0.0000000   0.0000000   0.0000000   0.0000000   0.0000000
 NMagM=    2.7928460   2.7928460   2.7928460   2.7928460   2.7928460   2.7928460   2.7928460   2.7928460   2.7928460   2.7928460
 AtZNuc=   1.0000000   1.0000000   1.0000000   1.0000000   1.0000000   1.0000000   1.0000000   1.0000000   1.0000000   1.0000000

  Atom        81          82          83          84          85          86          87          88          89          90
 IAtWgt=           1           1           1           1           1           1           1           1           1           1
 AtmWgt=   1.0078250   1.0078250   1.0078250   1.0078250   1.0078250   1.0078250   1.0078250   1.0078250   1.0078250   1.0078250
 NucSpn=           1           1           1           1           1           1           1           1           1           1
 AtZEff=  -0.0000000  -0.0000000  -0.0000000  -0.0000000  -0.0000000  -0.0000000  -0.0000000  -0.0000000  -0.0000000  -0.0000000
 NQMom=    0.0000000   0.0000000   0.0000000   0.0000000   0.0000000   0.0000000   0.0000000   0.0000000   0.0000000   0.0000000
 NMagM=    2.7928460   2.7928460   2.7928460   2.7928460   2.7928460   2.7928460   2.7928460   2.7928460   2.7928460   2.7928460
 AtZNuc=   1.0000000   1.0000000   1.0000000   1.0000000   1.0000000   1.0000000   1.0000000   1.0000000   1.0000000   1.0000000

  Atom        91          92          93          94          95          96          97          98          99         100
 IAtWgt=           1           1           1           1           1           1           1           1           1           1
 AtmWgt=   1.0078250   1.0078250   1.0078250   1.0078250   1.0078250   1.0078250   1.0078250   1.0078250   1.0078250   1.0078250
 NucSpn=           1           1           1           1           1           1           1           1           1           1
 AtZEff=  -0.0000000  -0.0000000  -0.0000000  -0.0000000  -0.0000000  -0.0000000  -0.0000000  -0.0000000  -0.0000000  -0.0000000
 NQMom=    0.0000000   0.0000000   0.0000000   0.0000000   0.0000000   0.0000000   0.0000000   0.0000000   0.0000000   0.0000000
 NMagM=    2.7928460   2.7928460   2.7928460   2.7928460   2.7928460   2.7928460   2.7928460   2.7928460   2.7928460   2.7928460
 AtZNuc=   1.0000000   1.0000000   1.0000000   1.0000000   1.0000000   1.0000000   1.0000000   1.0000000   1.0000000   1.0000000

  Atom       101         102         103         104         105         106         107         108         109         110
 IAtWgt=           1           1           1           1           1           1           1           1           1           1
 AtmWgt=   1.0078250   1.0078250   1.0078250   1.0078250   1.0078250   1.0078250   1.0078250   1.0078250   1.0078250   1.0078250
 NucSpn=           1           1           1           1           1           1           1           1           1           1
 AtZEff=  -0.0000000  -0.0000000  -0.0000000  -0.0000000  -0.0000000  -0.0000000  -0.0000000  -0.0000000  -0.0000000  -0.0000000
 NQMom=    0.0000000   0.0000000   0.0000000   0.0000000   0.0000000   0.0000000   0.0000000   0.0000000   0.0000000   0.0000000
 NMagM=    2.7928460   2.7928460   2.7928460   2.7928460   2.7928460   2.7928460   2.7928460   2.7928460   2.7928460   2.7928460
 AtZNuc=   1.0000000   1.0000000   1.0000000   1.0000000   1.0000000   1.0000000   1.0000000   1.0000000   1.0000000   1.0000000

  Atom       111         112         113         114         115         116         117         118         119         120
 IAtWgt=           1           1           1           1           1           1           1           1           1           1
 AtmWgt=   1.0078250   1.0078250   1.0078250   1.0078250   1.0078250   1.0078250   1.0078250   1.0078250   1.0078250   1.0078250
 NucSpn=           1           1           1           1           1           1           1           1           1           1
 AtZEff=  -0.0000000  -0.0000000  -0.0000000  -0.0000000  -0.0000000  -0.0000000  -0.0000000  -0.0000000  -0.0000000  -0.0000000
 NQMom=    0.0000000   0.0000000   0.0000000   0.0000000   0.0000000   0.0000000   0.0000000   0.0000000   0.0000000   0.0000000
 NMagM=    2.7928460   2.7928460   2.7928460   2.7928460   2.7928460   2.7928460   2.7928460   2.7928460   2.7928460   2.7928460
 AtZNuc=   1.0000000   1.0000000   1.0000000   1.0000000   1.0000000   1.0000000   1.0000000   1.0000000   1.0000000   1.0000000

  Atom       121         122         123         124
 IAtWgt=           1           1           1           1
 AtmWgt=   1.0078250   1.0078250   1.0078250   1.0078250
 NucSpn=           1           1           1           1
 AtZEff=  -0.0000000  -0.0000000  -0.0000000  -0.0000000
 NQMom=    0.0000000   0.0000000   0.0000000   0.0000000
 NMagM=    2.7928460   2.7928460   2.7928460   2.7928460
 AtZNuc=   1.0000000   1.0000000   1.0000000   1.0000000
 Leave Link  101 at Fri Oct 24 17:42:20 2025, MaxMem= 30870077440 cpu:               6.4 elap:               0.1
 (Enter /public/software/gauss/g16/l202.exe)
 Stoichiometry    C49H55BF2N4O13
 Framework group  C1[X(C49H55BF2N4O13)]
 Deg. of freedom   366
 Full point group                 C1      NOp   1
 Largest Abelian subgroup         C1      NOp   1
 Largest concise Abelian subgroup C1      NOp   1
                         Standard orientation:                         
 ---------------------------------------------------------------------
 Center     Atomic      Atomic             Coordinates (Angstroms)
 Number     Number       Type             X           Y           Z
 ---------------------------------------------------------------------
      1          5           0        2.780269   -0.689126    0.217661
      2          7           0        3.633574    0.588415    0.006449
      3          6           0        3.189428    1.884813   -0.044618
      4          6           0        4.262621    2.704582   -0.472639
      5          6           0        5.386511    1.922277   -0.661653
      6          6           0        4.984444    0.578054   -0.358748
      7          6           0        5.692251   -0.633614   -0.435039
      8          6           0        7.194506   -0.569532   -0.654063
      9          8           0        7.674477   -0.632698   -1.771850
     10          6           0        8.046965   -0.429565    0.608922
     11          6           0        9.375393    0.260099    0.412917
     12          6           0       10.400360   -0.168516   -0.452720
     13          7           0       10.330825   -1.452260   -1.158776
     14          8           0       10.803989   -1.513417   -2.293681
     15          8           0        9.844453   -2.413669   -0.562919
     16          6           0       11.566573    0.558165   -0.663531
     17          6           0       11.734682    1.737344    0.048650
     18          6           0       10.769425    2.202097    0.938089
     19          6           0        9.601846    1.465008    1.096523
     20          7           0       12.965138    2.503955   -0.142831
     21          8           0       13.101922    3.550630    0.494454
     22          8           0       13.807378    2.069249   -0.932027
     23          6           0        5.051885   -1.871957   -0.295200
     24          7           0        3.673277   -1.930167   -0.045814
     25          6           0        3.316502   -3.248526    0.065282
     26          6           0        4.477517   -4.040269   -0.129464
     27          6           0        5.558335   -3.215601   -0.364758
     28          6           0        6.946362   -3.695105   -0.651414
     29          6           0        2.037874   -3.852428    0.340316
     30          6           0        0.791550   -3.310247    0.343377
     31          6           0       -0.444674   -4.020155    0.637842
     32          6           0       -0.504221   -5.365476    1.070035
     33          6           0       -1.716294   -5.982372    1.325726
     34          6           0       -2.923140   -5.278882    1.159292
     35          8           0       -4.056105   -5.989002    1.456035
     36          6           0       -5.345020   -5.371708    1.326267
     37          6           0       -5.848690   -5.450780   -0.110881
     38          8           0       -7.145810   -4.870675   -0.126886
     39          6           0       -7.753651   -4.929647   -1.415480
     40          6           0       -9.118672   -4.283740   -1.352653
     41          8           0       -9.967294   -5.076994   -0.520887
     42          6           0      -11.225165   -4.472326   -0.222771
     43          6           0      -12.219099   -4.599642   -1.382531
     44          8           0      -13.483432   -4.021729   -1.059267
     45          6           0      -14.329302   -4.882636   -0.300652
     46          6           0       -2.894270   -3.945372    0.732281
     47          6           0       -1.666547   -3.336861    0.483845
     48          6           0        6.706080    2.436538   -1.149622
     49          6           0        1.893270    2.431391    0.267494
     50          6           0        0.854556    1.865378    0.935257
     51          6           0       -0.427782    2.494359    1.220131
     52          6           0       -1.368169    1.785162    1.999709
     53          6           0       -2.607349    2.322881    2.311467
     54          6           0       -2.955199    3.600524    1.847537
     55          8           0       -4.196691    4.043030    2.222771
     56          6           0       -4.663142    5.329742    1.791765
     57          6           0       -5.249431    5.261505    0.385238
     58          8           0       -5.794787    6.548071    0.111212
     59          6           0       -6.132050    6.765265   -1.259032
     60          6           0       -7.322119    5.938790   -1.738469
     61          8           0       -8.479336    6.062497   -0.914151
     62          6           0       -9.138221    7.324867   -1.013615
     63          6           0      -10.458446    7.245492   -0.281082
     64          8           0      -11.322789    6.342043   -0.961280
     65          6           0      -12.581381    6.219098   -0.313110
     66          6           0       -2.042829    4.325794    1.064683
     67          6           0       -0.802613    3.773973    0.762728
     68          9           0        1.705401   -0.656764   -0.686875
     69          9           0        2.286549   -0.757136    1.531963
     70          1           0        4.195368    3.775003   -0.614805
     71          1           0        7.468913    0.106207    1.364423
     72          1           0        8.184924   -1.449761    0.987316
     73          1           0       12.325693    0.201224   -1.345828
     74          1           0       10.925146    3.122934    1.485092
     75          1           0        8.835128    1.832295    1.769576
     76          1           0        4.487094   -5.122058   -0.117162
     77          1           0        7.349743   -3.266470   -1.571956
     78          1           0        7.639495   -3.446463    0.157819
     79          1           0        6.941454   -4.782755   -0.756957
     80          1           0        2.137142   -4.917246    0.536836
     81          1           0        0.666570   -2.268189    0.076347
     82          1           0        0.409042   -5.933166    1.215804
     83          1           0       -1.757089   -7.013235    1.662493
     84          1           0       -6.005046   -5.945971    1.980222
     85          1           0       -5.324813   -4.337842    1.683258
     86          1           0       -5.175174   -4.914526   -0.794954
     87          1           0       -5.884758   -6.502533   -0.430461
     88          1           0       -7.140356   -4.394375   -2.155392
     89          1           0       -7.844522   -5.975250   -1.745309
     90          1           0       -9.034560   -3.266393   -0.943775
     91          1           0       -9.513503   -4.206947   -2.374623
     92          1           0      -11.607039   -4.993744    0.659883
     93          1           0      -11.094031   -3.412510    0.037587
     94          1           0      -11.851865   -4.056238   -2.258541
     95          1           0      -12.332284   -5.657284   -1.660139
     96          1           0      -15.273299   -4.351998   -0.153113
     97          1           0      -14.527551   -5.819627   -0.839488
     98          1           0      -13.908045   -5.126990    0.682554
     99          1           0       -3.806580   -3.380247    0.586552
    100          1           0       -1.652852   -2.301941    0.153559
    101          1           0        7.034258    1.925101   -2.058919
    102          1           0        6.619123    3.502462   -1.373960
    103          1           0        7.500275    2.324028   -0.405511
    104          1           0        1.802535    3.464067   -0.060771
    105          1           0        0.967340    0.863354    1.331999
    106          1           0       -1.111595    0.794476    2.364621
    107          1           0       -3.321823    1.771230    2.913847
    108          1           0       -5.447256    5.601467    2.502196
    109          1           0       -3.868904    6.079486    1.855419
    110          1           0       -4.475874    5.006568   -0.352036
    111          1           0       -6.019797    4.479532    0.354200
    112          1           0       -6.346123    7.834854   -1.337810
    113          1           0       -5.272689    6.544563   -1.910156
    114          1           0       -7.547469    6.228559   -2.776114
    115          1           0       -7.074479    4.873221   -1.736789
    116          1           0       -8.538091    8.126942   -0.562814
    117          1           0       -9.308566    7.580722   -2.069878
    118          1           0      -10.293977    6.910975    0.754866
    119          1           0      -10.903897    8.251394   -0.240731
    120          1           0      -13.181045    5.514942   -0.895101
    121          1           0      -12.472171    5.834116    0.710988
    122          1           0      -13.107677    7.183542   -0.266751
    123          1           0       -2.289410    5.308781    0.682566
    124          1           0       -0.120182    4.354711    0.150544
 ---------------------------------------------------------------------
 Rotational constants (GHZ):           0.0316225           0.0089083           0.0071575
 Leave Link  202 at Fri Oct 24 17:42:20 2025, MaxMem= 30870077440 cpu:               0.2 elap:               0.0
 (Enter /public/software/gauss/g16/l301.exe)
 Standard basis: def2TZVPP (5D, 7F)
 Ernie: Thresh=  0.10000D-02 Tol=  0.10000D-05 Strict=F.
 There are  3309 symmetry adapted cartesian basis functions of A   symmetry.
 There are  2909 symmetry adapted basis functions of A   symmetry.
  2909 basis functions,  4454 primitive gaussians,  3309 cartesian basis functions
   252 alpha electrons      252 beta electrons
       nuclear repulsion energy      9488.5271452448 Hartrees.
 IExCor= 4336 DFT=T Ex+Corr=M062X ExCW=0 ScaHFX=  0.540000
 ScaDFX=  1.000000  1.000000  1.000000  1.000000 ScalE2=  1.000000  1.000000
 IRadAn=      5 IRanWt=     -1 IRanGd=            0 ICorTp=0 IEmpDi=131
 NAtoms=  124 NActive=  124 NUniq=  124 SFac= 1.00D+00 NAtFMM=   60 NAOKFM=T Big=T
 Integral buffers will be    131072 words long.
 Raffenetti 2 integral format.
 Two-electron integral symmetry is turned on.
 R6Disp:  Grimme-D3 Dispersion energy=       -0.0101669371 Hartrees.
 Nuclear repulsion after empirical dispersion term =     9488.5169783077 Hartrees.
 ------------------------------------------------------------------------------
 Polarizable Continuum Model (PCM)
 =================================
 Model                : PCM.
 Atomic radii         : UFF (Universal Force Field).
 Polarization charges : Total charges.
 Charge compensation  : None.
 Solution method      : On-the-fly selection.
 Cavity type          : Scaled VdW (van der Waals Surface) (Alpha=1.100).
 Cavity algorithm     : GePol (No added spheres)
                        Default sphere list used, NSphG=  124.
                        Lebedev-Laikov grids with approx.  5.0 points / Ang**2.
                        Smoothing algorithm: York/Karplus (Gamma=1.0000).
                        Polarization charges: spherical gaussians, with
                                              point-specific exponents (IZeta= 3).
                        Self-potential: point-specific (ISelfS= 7).
                        Self-field    : sphere-specific E.n sum rule (ISelfD= 2).
 Solvent              : Water, Eps=  78.355300 Eps(inf)=   1.777849
 ------------------------------------------------------------------------------
 GePol: Number of generator spheres                  =     124
 GePol: Total number of spheres                      =     124
 GePol: Number of exposed spheres                    =     124 (100.00%)
 GePol: Number of points                             =    8647
 GePol: Average weight of points                     =       0.13
 GePol: Minimum weight of points                     =   0.42D-11
 GePol: Maximum weight of points                     =    0.20577
 GePol: Number of points with low weight             =     580
 GePol: Fraction of low-weight points (<1% of avg)   =       6.71%
 GePol: Cavity surface area                          =   1109.514 Ang**2
 GePol: Cavity volume                                =   1269.465 Ang**3
 Leave Link  301 at Fri Oct 24 17:42:21 2025, MaxMem= 30870077440 cpu:               5.3 elap:               0.1
 (Enter /public/software/gauss/g16/l302.exe)
 NPDir=0 NMtPBC=     1 NCelOv=     1 NCel=       1 NClECP=     1 NCelD=      1
         NCelK=      1 NCelE2=     1 NClLst=     1 CellRange=     0.0.
 One-electron integrals computed using PRISM.
 One-electron integral symmetry used in STVInt
   1 Symmetry operations used in ECPInt.
 ECPInt:  NShTT=  593505 NPrTT= 1658793 LenC2=  248738 LenP2D=  459439.
 LDataN:  DoStor=T MaxTD1= 6 Len=  172
 Number of processors reduced to  57 by ecpmxn.
 NBasis=  2909 RedAO= T EigKep=  4.38D-06  NBF=  2909
 NBsUse=  2909 1.00D-06 EigRej= -1.00D+00 NBFU=  2909
 Precomputing XC quadrature grid using
 IXCGrd= 4 IRadAn=           5 IRanWt=          -1 IRanGd=           0 AccXCQ= 0.00D+00.
 Generated NRdTot=       0 NPtTot=           0 NUsed=           0 NTot=          32
 NSgBfM=  2359  2359  2359  2359  2359 MxSgAt=   124 MxSgA2=   124.
 Leave Link  302 at Fri Oct 24 17:42:51 2025, MaxMem= 30870077440 cpu:            1963.4 elap:              30.8
 (Enter /public/software/gauss/g16/l303.exe)
 DipDrv:  MaxL=1.
 Leave Link  303 at Fri Oct 24 17:42:52 2025, MaxMem= 30870077440 cpu:              58.0 elap:               1.0
 (Enter /public/software/gauss/g16/l401.exe)
 ExpMin= 6.06D-02 ExpMax= 3.55D+04 ExpMxC= 1.21D+03 IAcc=3 IRadAn=         5 AccDes= 0.00D+00
 Harris functional with IExCor= 1009 and IRadAn=       5 diagonalized for initial guess.
 HarFok:  IExCor= 1009 AccDes= 0.00D+00 IRadAn=         5 IDoV= 1 UseB2=F ITyADJ=14
 ICtDFT=  3500011 ScaDFX=  1.000000  1.000000  1.000000  1.000000
 FoFCou: FMM=F IPFlag=           0 FMFlag=      100000 FMFlg1=        2001
         NFxFlg=           0 DoJE=T BraDBF=F KetDBF=T FulRan=T
         wScrn=  0.000000 ICntrl=       500 IOpCl=  0 I1Cent=   200000004 NGrid=           0
         NMat0=    1 NMatS0=      1 NMatT0=    0 NMatD0=    1 NMtDS0=    0 NMtDT0=    0
 Petite list used in FoFCou.
 Harris En= -3319.98240576805    
 JPrj=0 DoOrth=F DoCkMO=F.
 Leave Link  401 at Fri Oct 24 17:43:16 2025, MaxMem= 30870077440 cpu:            1523.7 elap:              23.9
 (Enter /public/software/gauss/g16/l502.exe)
 Integral symmetry usage will be decided dynamically.
 Closed shell SCF:
 Using DIIS extrapolation, IDIIS=  1040.
 NGot= 30870077440 LenX= 30847938834 LenY= 30836986044
 Requested convergence on RMS density matrix=1.00D-08 within 128 cycles.
 Requested convergence on MAX density matrix=1.00D-06.
 Requested convergence on             energy=1.00D-06.
 No special actions if energy rises.
 Fock matrices will be formed incrementally for  20 cycles.

 Cycle   1  Pass 1  IDiag  1:
 FoFJK:  IHMeth= 1 ICntrl=       0 DoSepK=F KAlg= 0 I1Cent=           0 FoldK=F
 IRaf= 370000000 NMat=       1 IRICut=       1 DoRegI=T DoRafI=F ISym2E= 0 IDoP0=0 IntGTp=1.
 FoFCou: FMM=T IPFlag=           0 FMFlag=      100000 FMFlg1=        2001
         NFxFlg=           0 DoJE=F BraDBF=F KetDBF=F FulRan=T
         wScrn=  0.000000 ICntrl=         0 IOpCl=  0 I1Cent=           0 NGrid=           0
         NMat0=    1 NMatS0=      1 NMatT0=    0 NMatD0=    1 NMtDS0=    0 NMtDT0=    0
 Symmetry not used in FoFCou.
 FMM levels:  10  Number of levels for PrismC:   9
 Inv3:  Mode=1 IEnd=   224311827.
 Iteration    1 A*A^-1 deviation from unit magnitude is 1.20D-14 for   8638.
 Iteration    1 A*A^-1 deviation from orthogonality  is 4.69D-15 for   8647   8631.
 Iteration    1 A^-1*A deviation from unit magnitude is 1.09D-14 for   8638.
 Iteration    1 A^-1*A deviation from orthogonality  is 2.44D-14 for   7180   7144.
 E= -3320.08980582583    
 DIIS: error= 2.15D-02 at cycle   1 NSaved=   1.
 NSaved= 1 IEnMin= 1 EnMin= -3320.08980582583     IErMin= 1 ErrMin= 2.15D-02
 ErrMax= 2.15D-02  0.00D+00 EMaxC= 1.00D-01 BMatC= 2.18D+00 BMatP= 2.18D+00
 IDIUse=3 WtCom= 7.85D-01 WtEn= 2.15D-01
 Coeff-Com:  0.100D+01
 Coeff-En:   0.100D+01
 Coeff:      0.100D+01
 Gap=     0.117 Goal=   None    Shift=    0.000
 GapD=    0.117 DampG=1.000 DampE=0.500 DampFc=0.5000 IDamp=-1.
 Damping current iteration by 5.00D-01
 RMSDP=1.48D-03 MaxDP=5.40D-01              OVMax= 2.60D-01

 Cycle   2  Pass 1  IDiag  1:
 RMSU=  7.37D-04    CP:  1.02D+00
 E= -3320.84933679742     Delta-E=       -0.759530971596 Rises=F Damp=T
 DIIS: error= 6.45D-03 at cycle   2 NSaved=   2.
 NSaved= 2 IEnMin= 2 EnMin= -3320.84933679742     IErMin= 2 ErrMin= 6.45D-03
 ErrMax= 6.45D-03  0.00D+00 EMaxC= 1.00D-01 BMatC= 2.33D-01 BMatP= 2.18D+00
 IDIUse=3 WtCom= 9.36D-01 WtEn= 6.45D-02
 Coeff-Com: -0.603D-01 0.106D+01
 Coeff-En:   0.000D+00 0.100D+01
 Coeff:     -0.564D-01 0.106D+01
 Gap=     0.171 Goal=   None    Shift=    0.000
 RMSDP=4.47D-04 MaxDP=9.70D-02 DE=-7.60D-01 OVMax= 1.92D-01

 Cycle   3  Pass 1  IDiag  1:
 RMSU=  4.42D-04    CP:  1.00D+00  1.07D+00
 E= -3321.56880439013     Delta-E=       -0.719467592709 Rises=F Damp=F
 DIIS: error= 7.99D-03 at cycle   3 NSaved=   3.
 NSaved= 3 IEnMin= 3 EnMin= -3321.56880439013     IErMin= 2 ErrMin= 6.45D-03
 ErrMax= 7.99D-03  0.00D+00 EMaxC= 1.00D-01 BMatC= 1.33D-01 BMatP= 2.33D-01
 IDIUse=3 WtCom= 9.20D-01 WtEn= 7.99D-02
 Coeff-Com: -0.120D+00 0.488D+00 0.632D+00
 Coeff-En:   0.000D+00 0.000D+00 0.100D+01
 Coeff:     -0.111D+00 0.449D+00 0.662D+00
 Gap=     0.126 Goal=   None    Shift=    0.000
 RMSDP=1.80D-04 MaxDP=4.60D-02 DE=-7.19D-01 OVMax= 6.92D-02

 Cycle   4  Pass 1  IDiag  1:
 RMSU=  1.56D-04    CP:  1.00D+00  1.16D+00  8.65D-01
 E= -3321.65218860470     Delta-E=       -0.083384214564 Rises=F Damp=F
 DIIS: error= 2.23D-03 at cycle   4 NSaved=   4.
 NSaved= 4 IEnMin= 4 EnMin= -3321.65218860470     IErMin= 4 ErrMin= 2.23D-03
 ErrMax= 2.23D-03  0.00D+00 EMaxC= 1.00D-01 BMatC= 2.00D-02 BMatP= 1.33D-01
 IDIUse=3 WtCom= 9.78D-01 WtEn= 2.23D-02
 Coeff-Com: -0.369D-01 0.949D-01 0.327D+00 0.615D+00
 Coeff-En:   0.000D+00 0.000D+00 0.111D+00 0.889D+00
 Coeff:     -0.361D-01 0.928D-01 0.322D+00 0.621D+00
 Gap=     0.128 Goal=   None    Shift=    0.000
 RMSDP=7.04D-05 MaxDP=2.12D-02 DE=-8.34D-02 OVMax= 1.99D-02

 Cycle   5  Pass 1  IDiag  1:
 RMSU=  3.45D-05    CP:  1.00D+00  1.12D+00  9.29D-01  6.92D-01
 E= -3321.66727660271     Delta-E=       -0.015087998017 Rises=F Damp=F
 DIIS: error= 2.33D-04 at cycle   5 NSaved=   5.
 NSaved= 5 IEnMin= 5 EnMin= -3321.66727660271     IErMin= 5 ErrMin= 2.33D-04
 ErrMax= 2.33D-04  0.00D+00 EMaxC= 1.00D-01 BMatC= 8.61D-04 BMatP= 2.00D-02
 IDIUse=3 WtCom= 9.98D-01 WtEn= 2.33D-03
 Coeff-Com: -0.117D-01 0.233D-01 0.127D+00 0.296D+00 0.566D+00
 Coeff-En:   0.000D+00 0.000D+00 0.000D+00 0.000D+00 0.100D+01
 Coeff:     -0.116D-01 0.232D-01 0.127D+00 0.295D+00 0.567D+00
 Gap=     0.128 Goal=   None    Shift=    0.000
 RMSDP=2.19D-05 MaxDP=7.35D-03 DE=-1.51D-02 OVMax= 5.56D-03

 Cycle   6  Pass 1  IDiag  1:
 RMSU=  1.53D-05    CP:  1.00D+00  1.14D+00  9.19D-01  7.22D-01  7.82D-01
 E= -3321.66791972634     Delta-E=       -0.000643123622 Rises=F Damp=F
 DIIS: error= 1.49D-04 at cycle   6 NSaved=   6.
 NSaved= 6 IEnMin= 6 EnMin= -3321.66791972634     IErMin= 6 ErrMin= 1.49D-04
 ErrMax= 1.49D-04  0.00D+00 EMaxC= 1.00D-01 BMatC= 1.17D-04 BMatP= 8.61D-04
 IDIUse=3 WtCom= 9.99D-01 WtEn= 1.49D-03
 Coeff-Com: -0.135D-02 0.384D-03 0.263D-01 0.762D-01 0.298D+00 0.601D+00
 Coeff-En:   0.000D+00 0.000D+00 0.000D+00 0.000D+00 0.330D-01 0.967D+00
 Coeff:     -0.135D-02 0.383D-03 0.263D-01 0.761D-01 0.297D+00 0.601D+00
 Gap=     0.129 Goal=   None    Shift=    0.000
 RMSDP=6.48D-06 MaxDP=1.76D-03 DE=-6.43D-04 OVMax= 3.48D-03

 Cycle   7  Pass 1  IDiag  1:
 RMSU=  4.53D-06    CP:  1.00D+00  1.13D+00  9.23D-01  7.16D-01  8.66D-01
                    CP:  9.16D-01
 E= -3321.66801910828     Delta-E=       -0.000099381943 Rises=F Damp=F
 DIIS: error= 3.89D-05 at cycle   7 NSaved=   7.
 NSaved= 7 IEnMin= 7 EnMin= -3321.66801910828     IErMin= 7 ErrMin= 3.89D-05
 ErrMax= 3.89D-05  0.00D+00 EMaxC= 1.00D-01 BMatC= 1.05D-05 BMatP= 1.17D-04
 IDIUse=1 WtCom= 1.00D+00 WtEn= 0.00D+00
 Coeff-Com:  0.108D-02-0.312D-02-0.614D-02-0.881D-02 0.541D-01 0.259D+00
 Coeff-Com:  0.704D+00
 Coeff:      0.108D-02-0.312D-02-0.614D-02-0.881D-02 0.541D-01 0.259D+00
 Coeff:      0.704D+00
 Gap=     0.129 Goal=   None    Shift=    0.000
 RMSDP=2.82D-06 MaxDP=4.60D-04 DE=-9.94D-05 OVMax= 1.32D-03

 Cycle   8  Pass 1  IDiag  1:
 RMSU=  2.20D-06    CP:  1.00D+00  1.13D+00  9.24D-01  7.21D-01  8.91D-01
                    CP:  9.99D-01  9.86D-01
 E= -3321.66803098047     Delta-E=       -0.000011872191 Rises=F Damp=F
 DIIS: error= 2.43D-05 at cycle   8 NSaved=   8.
 NSaved= 8 IEnMin= 8 EnMin= -3321.66803098047     IErMin= 8 ErrMin= 2.43D-05
 ErrMax= 2.43D-05  0.00D+00 EMaxC= 1.00D-01 BMatC= 1.82D-06 BMatP= 1.05D-05
 IDIUse=1 WtCom= 1.00D+00 WtEn= 0.00D+00
 Coeff-Com:  0.722D-03-0.152D-02-0.697D-02-0.167D-01-0.219D-01 0.193D-01
 Coeff-Com:  0.320D+00 0.707D+00
 Coeff:      0.722D-03-0.152D-02-0.697D-02-0.167D-01-0.219D-01 0.193D-01
 Coeff:      0.320D+00 0.707D+00
 Gap=     0.129 Goal=   None    Shift=    0.000
 RMSDP=1.47D-06 MaxDP=4.52D-04 DE=-1.19D-05 OVMax= 8.65D-04

 Cycle   9  Pass 1  IDiag  1:
 RMSU=  8.78D-07    CP:  1.00D+00  1.13D+00  9.25D-01  7.21D-01  9.09D-01
                    CP:  1.02D+00  1.13D+00  1.15D+00
 E= -3321.66803332946     Delta-E=       -0.000002348994 Rises=F Damp=F
 DIIS: error= 1.37D-05 at cycle   9 NSaved=   9.
 NSaved= 9 IEnMin= 9 EnMin= -3321.66803332946     IErMin= 9 ErrMin= 1.37D-05
 ErrMax= 1.37D-05  0.00D+00 EMaxC= 1.00D-01 BMatC= 3.90D-07 BMatP= 1.82D-06
 IDIUse=1 WtCom= 1.00D+00 WtEn= 0.00D+00
 Coeff-Com:  0.235D-03-0.398D-03-0.276D-02-0.764D-02-0.181D-01-0.236D-01
 Coeff-Com:  0.731D-01 0.368D+00 0.611D+00
 Coeff:      0.235D-03-0.398D-03-0.276D-02-0.764D-02-0.181D-01-0.236D-01
 Coeff:      0.731D-01 0.368D+00 0.611D+00
 Gap=     0.129 Goal=   None    Shift=    0.000
 RMSDP=5.10D-07 MaxDP=1.21D-04 DE=-2.35D-06 OVMax= 4.36D-04

 Cycle  10  Pass 1  IDiag  1:
 RMSU=  3.51D-07    CP:  1.00D+00  1.13D+00  9.25D-01  7.21D-01  9.11D-01
                    CP:  1.03D+00  1.16D+00  1.28D+00  9.46D-01
 E= -3321.66803380450     Delta-E=       -0.000000475042 Rises=F Damp=F
 DIIS: error= 5.88D-06 at cycle  10 NSaved=  10.
 NSaved=10 IEnMin=10 EnMin= -3321.66803380450     IErMin=10 ErrMin= 5.88D-06
 ErrMax= 5.88D-06  0.00D+00 EMaxC= 1.00D-01 BMatC= 7.26D-08 BMatP= 3.90D-07
 IDIUse=1 WtCom= 1.00D+00 WtEn= 0.00D+00
 Coeff-Com: -0.530D-04 0.157D-03 0.277D-03 0.572D-04-0.389D-02-0.153D-01
 Coeff-Com: -0.390D-01 0.143D-01 0.316D+00 0.727D+00
 Coeff:     -0.530D-04 0.157D-03 0.277D-03 0.572D-04-0.389D-02-0.153D-01
 Coeff:     -0.390D-01 0.143D-01 0.316D+00 0.727D+00
 Gap=     0.129 Goal=   None    Shift=    0.000
 RMSDP=2.83D-07 MaxDP=4.90D-05 DE=-4.75D-07 OVMax= 2.50D-04

 Cycle  11  Pass 1  IDiag  1:
 RMSU=  1.40D-07    CP:  1.00D+00  1.13D+00  9.25D-01  7.21D-01  9.13D-01
                    CP:  1.04D+00  1.18D+00  1.35D+00  1.11D+00  1.04D+00
 E= -3321.66803392191     Delta-E=       -0.000000117408 Rises=F Damp=F
 DIIS: error= 1.41D-06 at cycle  11 NSaved=  11.
 NSaved=11 IEnMin=11 EnMin= -3321.66803392191     IErMin=11 ErrMin= 1.41D-06
 ErrMax= 1.41D-06  0.00D+00 EMaxC= 1.00D-01 BMatC= 1.02D-08 BMatP= 7.26D-08
 IDIUse=1 WtCom= 1.00D+00 WtEn= 0.00D+00
 Coeff-Com: -0.603D-04 0.133D-03 0.565D-03 0.130D-02 0.119D-02-0.225D-02
 Coeff-Com: -0.297D-01-0.576D-01 0.419D-01 0.326D+00 0.718D+00
 Coeff:     -0.603D-04 0.133D-03 0.565D-03 0.130D-02 0.119D-02-0.225D-02
 Coeff:     -0.297D-01-0.576D-01 0.419D-01 0.326D+00 0.718D+00
 Gap=     0.129 Goal=   None    Shift=    0.000
 RMSDP=1.52D-07 MaxDP=4.85D-05 DE=-1.17D-07 OVMax= 9.81D-05

 Cycle  12  Pass 1  IDiag  1:
 RMSU=  6.10D-08    CP:  1.00D+00  1.13D+00  9.25D-01  7.21D-01  9.14D-01
                    CP:  1.04D+00  1.18D+00  1.39D+00  1.18D+00  1.19D+00
                    CP:  1.10D+00
 E= -3321.66803394117     Delta-E=       -0.000000019254 Rises=F Damp=F
 DIIS: error= 3.32D-07 at cycle  12 NSaved=  12.
 NSaved=12 IEnMin=12 EnMin= -3321.66803394117     IErMin=12 ErrMin= 3.32D-07
 ErrMax= 3.32D-07  0.00D+00 EMaxC= 1.00D-01 BMatC= 1.45D-09 BMatP= 1.02D-08
 IDIUse=1 WtCom= 1.00D+00 WtEn= 0.00D+00
 Coeff-Com: -0.183D-04 0.346D-04 0.200D-03 0.566D-03 0.998D-03 0.136D-02
 Coeff-Com: -0.722D-02-0.272D-01-0.269D-01 0.297D-01 0.296D+00 0.732D+00
 Coeff:     -0.183D-04 0.346D-04 0.200D-03 0.566D-03 0.998D-03 0.136D-02
 Coeff:     -0.722D-02-0.272D-01-0.269D-01 0.297D-01 0.296D+00 0.732D+00
 Gap=     0.129 Goal=   None    Shift=    0.000
 RMSDP=4.02D-08 MaxDP=8.19D-06 DE=-1.93D-08 OVMax= 3.81D-05

 Cycle  13  Pass 1  IDiag  1:
 RMSU=  2.46D-08    CP:  1.00D+00  1.13D+00  9.25D-01  7.21D-01  9.14D-01
                    CP:  1.04D+00  1.18D+00  1.40D+00  1.19D+00  1.24D+00
                    CP:  1.23D+00  1.12D+00
 E= -3321.66803394266     Delta-E=       -0.000000001490 Rises=F Damp=F
 DIIS: error= 2.22D-07 at cycle  13 NSaved=  13.
 NSaved=13 IEnMin=13 EnMin= -3321.66803394266     IErMin=13 ErrMin= 2.22D-07
 ErrMax= 2.22D-07  0.00D+00 EMaxC= 1.00D-01 BMatC= 2.40D-10 BMatP= 1.45D-09
 IDIUse=1 WtCom= 1.00D+00 WtEn= 0.00D+00
 Coeff-Com:  0.289D-05-0.844D-05-0.204D-04 0.740D-05 0.152D-03 0.959D-03
 Coeff-Com:  0.214D-02-0.752D-03-0.161D-01-0.451D-01-0.126D-01 0.275D+00
 Coeff-Com:  0.796D+00
 Coeff:      0.289D-05-0.844D-05-0.204D-04 0.740D-05 0.152D-03 0.959D-03
 Coeff:      0.214D-02-0.752D-03-0.161D-01-0.451D-01-0.126D-01 0.275D+00
 Coeff:      0.796D+00
 Gap=     0.129 Goal=   None    Shift=    0.000
 RMSDP=2.18D-08 MaxDP=5.47D-06 DE=-1.49D-09 OVMax= 1.74D-05

 Cycle  14  Pass 1  IDiag  1:
 RMSU=  9.92D-09    CP:  1.00D+00  1.13D+00  9.25D-01  7.21D-01  9.14D-01
                    CP:  1.04D+00  1.18D+00  1.40D+00  1.20D+00  1.25D+00
                    CP:  1.29D+00  1.30D+00  1.20D+00
 E= -3321.66803394291     Delta-E=       -0.000000000251 Rises=F Damp=F
 DIIS: error= 1.04D-07 at cycle  14 NSaved=  14.
 NSaved=14 IEnMin=14 EnMin= -3321.66803394291     IErMin=14 ErrMin= 1.04D-07
 ErrMax= 1.04D-07  0.00D+00 EMaxC= 1.00D-01 BMatC= 5.14D-11 BMatP= 2.40D-10
 IDIUse=1 WtCom= 1.00D+00 WtEn= 0.00D+00
 Coeff-Com:  0.391D-05-0.864D-05-0.407D-04-0.826D-04-0.959D-04 0.225D-03
 Coeff-Com:  0.206D-02 0.404D-02-0.203D-02-0.241D-01-0.531D-01-0.584D-02
 Coeff-Com:  0.337D+00 0.742D+00
 Coeff:      0.391D-05-0.864D-05-0.407D-04-0.826D-04-0.959D-04 0.225D-03
 Coeff:      0.206D-02 0.404D-02-0.203D-02-0.241D-01-0.531D-01-0.584D-02
 Coeff:      0.337D+00 0.742D+00
 Gap=     0.129 Goal=   None    Shift=    0.000
 RMSDP=9.29D-09 MaxDP=3.26D-06 DE=-2.51D-10 OVMax= 9.83D-06

 Cycle  15  Pass 1  IDiag  1:
 RMSU=  4.62D-09    CP:  1.00D+00  1.13D+00  9.25D-01  7.21D-01  9.14D-01
                    CP:  1.04D+00  1.18D+00  1.40D+00  1.20D+00  1.26D+00
                    CP:  1.32D+00  1.35D+00  1.41D+00  1.27D+00
 E= -3321.66803394282     Delta-E=        0.000000000084 Rises=F Damp=F
 DIIS: error= 7.64D-08 at cycle  15 NSaved=  15.
 NSaved=15 IEnMin=14 EnMin= -3321.66803394291     IErMin=15 ErrMin= 7.64D-08
 ErrMax= 7.64D-08  0.00D+00 EMaxC= 1.00D-01 BMatC= 1.39D-11 BMatP= 5.14D-11
 IDIUse=1 WtCom= 1.00D+00 WtEn= 0.00D+00
 Coeff-Com:  0.102D-05-0.190D-05-0.143D-04-0.381D-04-0.814D-04-0.105D-03
 Coeff-Com:  0.471D-03 0.203D-02 0.270D-02-0.164D-02-0.223D-01-0.643D-01
 Coeff-Com: -0.123D-01 0.362D+00 0.733D+00
 Coeff:      0.102D-05-0.190D-05-0.143D-04-0.381D-04-0.814D-04-0.105D-03
 Coeff:      0.471D-03 0.203D-02 0.270D-02-0.164D-02-0.223D-01-0.643D-01
 Coeff:     -0.123D-01 0.362D+00 0.733D+00
 Gap=     0.129 Goal=   None    Shift=    0.000
 RMSDP=5.21D-09 MaxDP=1.47D-06 DE= 8.37D-11 OVMax= 6.25D-06

 Cycle  16  Pass 1  IDiag  1:
 RMSU=  2.47D-09    CP:  1.00D+00  1.13D+00  9.25D-01  7.21D-01  9.14D-01
                    CP:  1.04D+00  1.18D+00  1.40D+00  1.20D+00  1.26D+00
                    CP:  1.32D+00  1.37D+00  1.50D+00  1.54D+00  1.23D+00
 E= -3321.66803394298     Delta-E=       -0.000000000156 Rises=F Damp=F
 DIIS: error= 4.55D-08 at cycle  16 NSaved=  16.
 NSaved=16 IEnMin=16 EnMin= -3321.66803394298     IErMin=16 ErrMin= 4.55D-08
 ErrMax= 4.55D-08  0.00D+00 EMaxC= 1.00D-01 BMatC= 3.24D-12 BMatP= 1.39D-11
 IDIUse=1 WtCom= 1.00D+00 WtEn= 0.00D+00
 Coeff-Com: -0.510D-06 0.128D-05 0.365D-05 0.287D-05-0.143D-04-0.110D-03
 Coeff-Com: -0.313D-03-0.112D-03 0.180D-02 0.566D-02 0.418D-02-0.291D-01
 Coeff-Com: -0.973D-01-0.337D-01 0.337D+00 0.812D+00
 Coeff:     -0.510D-06 0.128D-05 0.365D-05 0.287D-05-0.143D-04-0.110D-03
 Coeff:     -0.313D-03-0.112D-03 0.180D-02 0.566D-02 0.418D-02-0.291D-01
 Coeff:     -0.973D-01-0.337D-01 0.337D+00 0.812D+00
 Gap=     0.129 Goal=   None    Shift=    0.000
 RMSDP=3.31D-09 MaxDP=1.14D-06 DE=-1.56D-10 OVMax= 4.29D-06

 Cycle  17  Pass 1  IDiag  1:
 RMSU=  1.14D-09    CP:  1.00D+00  1.13D+00  9.25D-01  7.21D-01  9.14D-01
                    CP:  1.04D+00  1.18D+00  1.40D+00  1.20D+00  1.26D+00
                    CP:  1.33D+00  1.39D+00  1.56D+00  1.71D+00  1.60D+00
                    CP:  1.27D+00
 E= -3321.66803394313     Delta-E=       -0.000000000153 Rises=F Damp=F
 DIIS: error= 2.73D-08 at cycle  17 NSaved=  17.
 NSaved=17 IEnMin=17 EnMin= -3321.66803394313     IErMin=17 ErrMin= 2.73D-08
 ErrMax= 2.73D-08  0.00D+00 EMaxC= 1.00D-01 BMatC= 1.09D-12 BMatP= 3.24D-12
 IDIUse=1 WtCom= 1.00D+00 WtEn= 0.00D+00
 Coeff-Com: -0.475D-06 0.105D-05 0.541D-05 0.105D-04 0.140D-04-0.323D-04
 Coeff-Com: -0.272D-03-0.573D-03 0.196D-03 0.341D-02 0.822D-02 0.151D-02
 Coeff-Com: -0.491D-01-0.116D+00-0.826D-02 0.453D+00 0.708D+00
 Coeff:     -0.475D-06 0.105D-05 0.541D-05 0.105D-04 0.140D-04-0.323D-04
 Coeff:     -0.272D-03-0.573D-03 0.196D-03 0.341D-02 0.822D-02 0.151D-02
 Coeff:     -0.491D-01-0.116D+00-0.826D-02 0.453D+00 0.708D+00
 Gap=     0.129 Goal=   None    Shift=    0.000
 RMSDP=1.77D-09 MaxDP=6.75D-07 DE=-1.53D-10 OVMax= 2.16D-06

 Error on total polarization charges =  0.02979
 SCF Done:  E(RM062X) =  -3321.66803394     A.U. after   17 cycles
            NFock= 17  Conv=0.18D-08     -V/T= 2.0053
 KE= 3.304070770941D+03 PE=-2.673478846868D+04 EE= 1.062053268549D+04
 Leave Link  502 at Fri Oct 24 18:16:33 2025, MaxMem= 30870077440 cpu:          125206.5 elap:            1996.4
 (Enter /public/software/gauss/g16/l601.exe)
 Copying SCF densities to generalized density rwf, IOpCl= 0 IROHF=0.
 Hyperfine terms turned off by default for NAtoms > 100.

 **********************************************************************

            Population analysis using the SCF density.

 **********************************************************************

 Orbital symmetries:
       Occupied  (A) (A) (A) (A) (A) (A) (A) (A) (A) (A) (A) (A)
                 (A) (A) (A) (A) (A) (A) (A) (A) (A) (A) (A) (A)
                 (A) (A) (A) (A) (A) (A) (A) (A) (A) (A) (A) (A)
                 (A) (A) (A) (A) (A) (A) (A) (A) (A) (A) (A) (A)
                 (A) (A) (A) (A) (A) (A) (A) (A) (A) (A) (A) (A)
                 (A) (A) (A) (A) (A) (A) (A) (A) (A) (A) (A) (A)
                 (A) (A) (A) (A) (A) (A) (A) (A) (A) (A) (A) (A)
                 (A) (A) (A) (A) (A) (A) (A) (A) (A) (A) (A) (A)
                 (A) (A) (A) (A) (A) (A) (A) (A) (A) (A) (A) (A)
                 (A) (A) (A) (A) (A) (A) (A) (A) (A) (A) (A) (A)
                 (A) (A) (A) (A) (A) (A) (A) (A) (A) (A) (A) (A)
                 (A) (A) (A) (A) (A) (A) (A) (A) (A) (A) (A) (A)
                 (A) (A) (A) (A) (A) (A) (A) (A) (A) (A) (A) (A)
                 (A) (A) (A) (A) (A) (A) (A) (A) (A) (A) (A) (A)
                 (A) (A) (A) (A) (A) (A) (A) (A) (A) (A) (A) (A)
                 (A) (A) (A) (A) (A) (A) (A) (A) (A) (A) (A) (A)
                 (A) (A) (A) (A) (A) (A) (A) (A) (A) (A) (A) (A)
                 (A) (A) (A) (A) (A) (A) (A) (A) (A) (A) (A) (A)
                 (A) (A) (A) (A) (A) (A) (A) (A) (A) (A) (A) (A)
                 (A) (A) (A) (A) (A) (A) (A) (A) (A) (A) (A) (A)
                 (A) (A) (A) (A) (A) (A) (A) (A) (A) (A) (A) (A)
       Virtual   (A) (A) (A) (A) (A) (A) (A) (A) (A) (A) (A) (A)
                 (A) (A) (A) (A) (A) (A) (A) (A) (A) (A) (A) (A)
                 (A) (A) (A) (A) (A) (A) (A) (A) (A) (A) (A) (A)
                 (A) (A) (A) (A) (A) (A) (A) (A) (A) (A) (A) (A)
                 (A) (A) (A) (A) (A) (A) (A) (A) (A) (A) (A) (A)
                 (A) (A) (A) (A) (A) (A) (A) (A) (A) (A) (A) (A)
                 (A) (A) (A) (A) (A) (A) (A) (A) (A) (A) (A) (A)
                 (A) (A) (A) (A) (A) (A) (A) (A) (A) (A) (A) (A)
                 (A) (A) (A) (A) (A) (A) (A) (A) (A) (A) (A) (A)
                 (A) (A) (A) (A) (A) (A) (A) (A) (A) (A) (A) (A)
                 (A) (A) (A) (A) (A) (A) (A) (A) (A) (A) (A) (A)
                 (A) (A) (A) (A) (A) (A) (A) (A) (A) (A) (A) (A)
                 (A) (A) (A) (A) (A) (A) (A) (A) (A) (A) (A) (A)
                 (A) (A) (A) (A) (A) (A) (A) (A) (A) (A) (A) (A)
                 (A) (A) (A) (A) (A) (A) (A) (A) (A) (A) (A) (A)
                 (A) (A) (A) (A) (A) (A) (A) (A) (A) (A) (A) (A)
                 (A) (A) (A) (A) (A) (A) (A) (A) (A) (A) (A) (A)
                 (A) (A) (A) (A) (A) (A) (A) (A) (A) (A) (A) (A)
                 (A) (A) (A) (A) (A) (A) (A) (A) (A) (A) (A) (A)
                 (A) (A) (A) (A) (A) (A) (A) (A) (A) (A) (A) (A)
                 (A) (A) (A) (A) (A) (A) (A) (A) (A) (A) (A) (A)
                 (A) (A) (A) (A) (A) (A) (A) (A) (A) (A) (A) (A)
                 (A) (A) (A) (A) (A) (A) (A) (A) (A) (A) (A) (A)
                 (A) (A) (A) (A) (A) (A) (A) (A) (A) (A) (A) (A)
                 (A) (A) (A) (A) (A) (A) (A) (A) (A) (A) (A) (A)
                 (A) (A) (A) (A) (A) (A) (A) (A) (A) (A) (A) (A)
                 (A) (A) (A) (A) (A) (A) (A) (A) (A) (A) (A) (A)
                 (A) (A) (A) (A) (A) (A) (A) (A) (A) (A) (A) (A)
                 (A) (A) (A) (A) (A) (A) (A) (A) (A) (A) (A) (A)
                 (A) (A) (A) (A) (A) (A) (A) (A) (A) (A) (A) (A)
                 (A) (A) (A) (A) (A) (A) (A) (A) (A) (A) (A) (A)
                 (A) (A) (A) (A) (A) (A) (A) (A) (A) (A) (A) (A)
                 (A) (A) (A) (A) (A) (A) (A) (A) (A) (A) (A) (A)
                 (A) (A) (A) (A) (A) (A) (A) (A) (A) (A) (A) (A)
                 (A) (A) (A) (A) (A) (A) (A) (A) (A) (A) (A) (A)
                 (A) (A) (A) (A) (A) (A) (A) (A) (A) (A) (A) (A)
                 (A) (A) (A) (A) (A) (A) (A) (A) (A) (A) (A) (A)
                 (A) (A) (A) (A) (A) (A) (A) (A) (A) (A) (A) (A)
                 (A) (A) (A) (A) (A) (A) (A) (A) (A) (A) (A) (A)
                 (A) (A) (A) (A) (A) (A) (A) (A) (A) (A) (A) (A)
                 (A) (A) (A) (A) (A) (A) (A) (A) (A) (A) (A) (A)
                 (A) (A) (A) (A) (A) (A) (A) (A) (A) (A) (A) (A)
                 (A) (A) (A) (A) (A) (A) (A) (A) (A) (A) (A) (A)
                 (A) (A) (A) (A) (A) (A) (A) (A) (A) (A) (A) (A)
                 (A) (A) (A) (A) (A) (A) (A) (A) (A) (A) (A) (A)
                 (A) (A) (A) (A) (A) (A) (A) (A) (A) (A) (A) (A)
                 (A) (A) (A) (A) (A) (A) (A) (A) (A) (A) (A) (A)
                 (A) (A) (A) (A) (A) (A) (A) (A) (A) (A) (A) (A)
                 (A) (A) (A) (A) (A) (A) (A) (A) (A) (A) (A) (A)
                 (A) (A) (A) (A) (A) (A) (A) (A) (A) (A) (A) (A)
                 (A) (A) (A) (A) (A) (A) (A) (A) (A) (A) (A) (A)
                 (A) (A) (A) (A) (A) (A) (A) (A) (A) (A) (A) (A)
                 (A) (A) (A) (A) (A) (A) (A) (A) (A) (A) (A) (A)
                 (A) (A) (A) (A) (A) (A) (A) (A) (A) (A) (A) (A)
                 (A) (A) (A) (A) (A) (A) (A) (A) (A) (A) (A) (A)
                 (A) (A) (A) (A) (A) (A) (A) (A) (A) (A) (A) (A)
                 (A) (A) (A) (A) (A) (A) (A) (A) (A) (A) (A) (A)
                 (A) (A) (A) (A) (A) (A) (A) (A) (A) (A) (A) (A)
                 (A) (A) (A) (A) (A) (A) (A) (A) (A) (A) (A) (A)
                 (A) (A) (A) (A) (A) (A) (A) (A) (A) (A) (A) (A)
                 (A) (A) (A) (A) (A) (A) (A) (A) (A) (A) (A) (A)
                 (A) (A) (A) (A) (A) (A) (A) (A) (A) (A) (A) (A)
                 (A) (A) (A) (A) (A) (A) (A) (A) (A) (A) (A) (A)
                 (A) (A) (A) (A) (A) (A) (A) (A) (A) (A) (A) (A)
                 (A) (A) (A) (A) (A) (A) (A) (A) (A) (A) (A) (A)
                 (A) (A) (A) (A) (A) (A) (A) (A) (A) (A) (A) (A)
                 (A) (A) (A) (A) (A) (A) (A) (A) (A) (A) (A) (A)
                 (A) (A) (A) (A) (A) (A) (A) (A) (A) (A) (A) (A)
                 (A) (A) (A) (A) (A) (A) (A) (A) (A) (A) (A) (A)
                 (A) (A) (A) (A) (A) (A) (A) (A) (A) (A) (A) (A)
                 (A) (A) (A) (A) (A) (A) (A) (A) (A) (A) (A) (A)
                 (A) (A) (A) (A) (A) (A) (A) (A) (A) (A) (A) (A)
                 (A) (A) (A) (A) (A) (A) (A) (A) (A) (A) (A) (A)
                 (A) (A) (A) (A) (A) (A) (A) (A) (A) (A) (A) (A)
                 (A) (A) (A) (A) (A) (A) (A) (A) (A) (A) (A) (A)
                 (A) (A) (A) (A) (A) (A) (A) (A) (A) (A) (A) (A)
                 (A) (A) (A) (A) (A) (A) (A) (A) (A) (A) (A) (A)
                 (A) (A) (A) (A) (A) (A) (A) (A) (A) (A) (A) (A)
                 (A) (A) (A) (A) (A) (A) (A) (A) (A) (A) (A) (A)
                 (A) (A) (A) (A) (A) (A) (A) (A) (A) (A) (A) (A)
                 (A) (A) (A) (A) (A) (A) (A) (A) (A) (A) (A) (A)
                 (A) (A) (A) (A) (A) (A) (A) (A) (A) (A) (A) (A)
                 (A) (A) (A) (A) (A) (A) (A) (A) (A) (A) (A) (A)
                 (A) (A) (A) (A) (A) (A) (A) (A) (A) (A) (A) (A)
                 (A) (A) (A) (A) (A) (A) (A) (A) (A) (A) (A) (A)
                 (A) (A) (A) (A) (A) (A) (A) (A) (A) (A) (A) (A)
                 (A) (A) (A) (A) (A) (A) (A) (A) (A) (A) (A) (A)
                 (A) (A) (A) (A) (A) (A) (A) (A) (A) (A) (A) (A)
                 (A) (A) (A) (A) (A) (A) (A) (A) (A) (A) (A) (A)
                 (A) (A) (A) (A) (A) (A) (A) (A) (A) (A) (A) (A)
                 (A) (A) (A) (A) (A) (A) (A) (A) (A) (A) (A) (A)
                 (A) (A) (A) (A) (A) (A) (A) (A) (A) (A) (A) (A)
                 (A) (A) (A) (A) (A) (A) (A) (A) (A) (A) (A) (A)
                 (A) (A) (A) (A) (A) (A) (A) (A) (A) (A) (A) (A)
                 (A) (A) (A) (A) (A) (A) (A) (A) (A) (A) (A) (A)
                 (A) (A) (A) (A) (A) (A) (A) (A) (A) (A) (A) (A)
                 (A) (A) (A) (A) (A) (A) (A) (A) (A) (A) (A) (A)
                 (A) (A) (A) (A) (A) (A) (A) (A) (A) (A) (A) (A)
                 (A) (A) (A) (A) (A) (A) (A) (A) (A) (A) (A) (A)
                 (A) (A) (A) (A) (A) (A) (A) (A) (A) (A) (A) (A)
                 (A) (A) (A) (A) (A) (A) (A) (A) (A) (A) (A) (A)
                 (A) (A) (A) (A) (A) (A) (A) (A) (A) (A) (A) (A)
                 (A) (A) (A) (A) (A) (A) (A) (A) (A) (A) (A) (A)
                 (A) (A) (A) (A) (A) (A) (A) (A) (A) (A) (A) (A)
                 (A) (A) (A) (A) (A) (A) (A) (A) (A) (A) (A) (A)
                 (A) (A) (A) (A) (A) (A) (A) (A) (A) (A) (A) (A)
                 (A) (A) (A) (A) (A) (A) (A) (A) (A) (A) (A) (A)
                 (A) (A) (A) (A) (A) (A) (A) (A) (A) (A) (A) (A)
                 (A) (A) (A) (A) (A) (A) (A) (A) (A) (A) (A) (A)
                 (A) (A) (A) (A) (A) (A) (A) (A) (A) (A) (A) (A)
                 (A) (A) (A) (A) (A) (A) (A) (A) (A) (A) (A) (A)
                 (A) (A) (A) (A) (A) (A) (A) (A) (A) (A) (A) (A)
                 (A) (A) (A) (A) (A) (A) (A) (A) (A) (A) (A) (A)
                 (A) (A) (A) (A) (A) (A) (A) (A) (A) (A) (A) (A)
                 (A) (A) (A) (A) (A) (A) (A) (A) (A) (A) (A) (A)
                 (A) (A) (A) (A) (A) (A) (A) (A) (A) (A) (A) (A)
                 (A) (A) (A) (A) (A) (A) (A) (A) (A) (A) (A) (A)
                 (A) (A) (A) (A) (A) (A) (A) (A) (A) (A) (A) (A)
                 (A) (A) (A) (A) (A) (A) (A) (A) (A) (A) (A) (A)
                 (A) (A) (A) (A) (A) (A) (A) (A) (A) (A) (A) (A)
                 (A) (A) (A) (A) (A) (A) (A) (A) (A) (A) (A) (A)
                 (A) (A) (A) (A) (A) (A) (A) (A) (A) (A) (A) (A)
                 (A) (A) (A) (A) (A) (A) (A) (A) (A) (A) (A) (A)
                 (A) (A) (A) (A) (A) (A) (A) (A) (A) (A) (A) (A)
                 (A) (A) (A) (A) (A) (A) (A) (A) (A) (A) (A) (A)
                 (A) (A) (A) (A) (A) (A) (A) (A) (A) (A) (A) (A)
                 (A) (A) (A) (A) (A) (A) (A) (A) (A) (A) (A) (A)
                 (A) (A) (A) (A) (A) (A) (A) (A) (A) (A) (A) (A)
                 (A) (A) (A) (A) (A) (A) (A) (A) (A) (A) (A) (A)
                 (A) (A) (A) (A) (A) (A) (A) (A) (A) (A) (A) (A)
                 (A) (A) (A) (A) (A) (A) (A) (A) (A) (A) (A) (A)
                 (A) (A) (A) (A) (A) (A) (A) (A) (A) (A) (A) (A)
                 (A) (A) (A) (A) (A) (A) (A) (A) (A) (A) (A) (A)
                 (A) (A) (A) (A) (A) (A) (A) (A) (A) (A) (A) (A)
                 (A) (A) (A) (A) (A) (A) (A) (A) (A) (A) (A) (A)
                 (A) (A) (A) (A) (A) (A) (A) (A) (A) (A) (A) (A)
                 (A) (A) (A) (A) (A) (A) (A) (A) (A) (A) (A) (A)
                 (A) (A) (A) (A) (A) (A) (A) (A) (A) (A) (A) (A)
                 (A) (A) (A) (A) (A) (A) (A) (A) (A) (A) (A) (A)
                 (A) (A) (A) (A) (A) (A) (A) (A) (A) (A) (A) (A)
                 (A) (A) (A) (A) (A) (A) (A) (A) (A) (A) (A) (A)
                 (A) (A) (A) (A) (A) (A) (A) (A) (A) (A) (A) (A)
                 (A) (A) (A) (A) (A) (A) (A) (A) (A) (A) (A) (A)
                 (A) (A) (A) (A) (A) (A) (A) (A) (A) (A) (A) (A)
                 (A) (A) (A) (A) (A) (A) (A) (A) (A) (A) (A) (A)
                 (A) (A) (A) (A) (A) (A) (A) (A) (A) (A) (A) (A)
                 (A) (A) (A) (A) (A) (A) (A) (A) (A) (A) (A) (A)
                 (A) (A) (A) (A) (A) (A) (A) (A) (A) (A) (A) (A)
                 (A) (A) (A) (A) (A) (A) (A) (A) (A) (A) (A) (A)
                 (A) (A) (A) (A) (A) (A) (A) (A) (A) (A) (A) (A)
                 (A) (A) (A) (A) (A) (A) (A) (A) (A) (A) (A) (A)
                 (A) (A) (A) (A) (A) (A) (A) (A) (A) (A) (A) (A)
                 (A) (A) (A) (A) (A) (A) (A) (A) (A) (A) (A) (A)
                 (A) (A) (A) (A) (A) (A) (A) (A) (A) (A) (A) (A)
                 (A) (A) (A) (A) (A) (A) (A) (A) (A) (A) (A) (A)
                 (A) (A) (A) (A) (A) (A) (A) (A) (A) (A) (A) (A)
                 (A) (A) (A) (A) (A) (A) (A) (A) (A) (A) (A) (A)
                 (A) (A) (A) (A) (A) (A) (A) (A) (A) (A) (A) (A)
                 (A) (A) (A) (A) (A) (A) (A) (A) (A) (A) (A) (A)
                 (A) (A) (A) (A) (A) (A) (A) (A) (A) (A) (A) (A)
                 (A) (A) (A) (A) (A) (A) (A) (A) (A) (A) (A) (A)
                 (A) (A) (A) (A) (A) (A) (A) (A) (A) (A) (A) (A)
                 (A) (A) (A) (A) (A) (A) (A) (A) (A) (A) (A) (A)
                 (A) (A) (A) (A) (A) (A) (A) (A) (A) (A) (A) (A)
                 (A) (A) (A) (A) (A) (A) (A) (A) (A) (A) (A) (A)
                 (A) (A) (A) (A) (A) (A) (A) (A) (A) (A) (A) (A)
                 (A) (A) (A) (A) (A) (A) (A) (A) (A) (A) (A) (A)
                 (A) (A) (A) (A) (A) (A) (A) (A) (A) (A) (A) (A)
                 (A) (A) (A) (A) (A) (A) (A) (A) (A) (A) (A) (A)
                 (A) (A) (A) (A) (A) (A) (A) (A) (A) (A) (A) (A)
                 (A) (A) (A) (A) (A) (A) (A) (A) (A) (A) (A) (A)
                 (A) (A) (A) (A) (A) (A) (A) (A) (A) (A) (A) (A)
                 (A) (A) (A) (A) (A) (A) (A) (A) (A) (A) (A) (A)
                 (A) (A) (A) (A) (A) (A) (A) (A) (A) (A) (A) (A)
                 (A) (A) (A) (A) (A) (A) (A) (A) (A) (A) (A) (A)
                 (A) (A) (A) (A) (A) (A) (A) (A) (A) (A) (A) (A)
                 (A) (A) (A) (A) (A) (A) (A) (A) (A) (A) (A) (A)
                 (A) (A) (A) (A) (A) (A) (A) (A) (A) (A) (A) (A)
                 (A) (A) (A) (A) (A) (A) (A) (A) (A) (A) (A) (A)
                 (A) (A) (A) (A) (A) (A) (A) (A) (A) (A) (A) (A)
                 (A) (A) (A) (A) (A) (A) (A) (A) (A) (A) (A) (A)
                 (A) (A) (A) (A) (A) (A) (A) (A) (A) (A) (A) (A)
                 (A) (A) (A) (A) (A) (A) (A) (A) (A) (A) (A) (A)
                 (A) (A) (A) (A) (A) (A) (A) (A) (A) (A) (A) (A)
                 (A) (A) (A) (A) (A) (A) (A) (A) (A) (A) (A) (A)
                 (A) (A) (A) (A) (A) (A) (A) (A) (A) (A) (A) (A)
                 (A) (A) (A) (A) (A) (A) (A) (A) (A) (A) (A) (A)
                 (A) (A) (A) (A) (A) (A) (A) (A) (A) (A) (A) (A)
                 (A) (A) (A) (A) (A) (A) (A) (A) (A) (A) (A) (A)
                 (A) (A) (A) (A) (A) (A) (A) (A) (A) (A) (A) (A)
                 (A) (A) (A) (A) (A) (A) (A) (A) (A) (A) (A) (A)
                 (A) (A) (A) (A) (A) (A) (A) (A) (A) (A) (A) (A)
                 (A) (A) (A) (A) (A) (A) (A) (A) (A) (A) (A) (A)
                 (A) (A) (A) (A) (A) (A) (A) (A) (A) (A) (A) (A)
                 (A) (A) (A) (A) (A) (A) (A) (A) (A) (A) (A) (A)
                 (A) (A) (A) (A) (A) (A) (A) (A) (A) (A) (A) (A)
                 (A) (A) (A) (A) (A) (A) (A) (A) (A) (A) (A) (A)
                 (A) (A) (A) (A) (A) (A) (A) (A) (A) (A) (A) (A)
                 (A) (A) (A) (A) (A) (A) (A) (A) (A) (A) (A) (A)
                 (A) (A) (A) (A) (A) (A) (A) (A) (A) (A) (A) (A)
                 (A) (A) (A) (A) (A) (A) (A) (A) (A) (A) (A) (A)
                 (A) (A) (A) (A) (A) (A) (A) (A) (A) (A) (A) (A)
                 (A) (A) (A) (A) (A) (A) (A) (A) (A) (A) (A) (A)
                 (A) (A) (A) (A) (A) (A) (A) (A) (A) (A) (A) (A)
                 (A) (A) (A) (A) (A) (A) (A) (A) (A) (A) (A) (A)
                 (A) (A) (A) (A) (A) (A) (A) (A) (A) (A) (A) (A)
                 (A) (A) (A) (A) (A) (A) (A) (A) (A) (A) (A) (A)
                 (A) (A) (A) (A) (A) (A) (A) (A) (A) (A) (A) (A)
                 (A) (A) (A) (A) (A) (A) (A) (A) (A) (A) (A) (A)
                 (A) (A) (A) (A) (A) (A) (A) (A) (A) (A) (A) (A)
                 (A) (A) (A) (A) (A) (A) (A) (A) (A) (A) (A) (A)
                 (A) (A) (A) (A) (A) (A) (A) (A) (A) (A) (A) (A)
                 (A) (A) (A) (A) (A) (A) (A) (A) (A) (A) (A) (A)
                 (A) (A) (A) (A) (A) (A) (A) (A) (A) (A) (A) (A)
                 (A) (A) (A) (A) (A) (A) (A) (A) (A) (A) (A) (A)
                 (A) (A) (A) (A) (A) (A) (A) (A) (A) (A) (A) (A)
                 (A) (A) (A) (A) (A) (A) (A) (A) (A) (A) (A) (A)
                 (A) (A) (A) (A) (A) (A) (A) (A) (A) (A) (A) (A)
                 (A) (A) (A) (A) (A) (A) (A) (A) (A) (A) (A) (A)
                 (A) (A) (A) (A) (A) (A) (A) (A) (A) (A) (A) (A)
                 (A) (A) (A) (A) (A) (A) (A) (A) (A) (A) (A) (A)
                 (A) (A) (A) (A) (A)
 The electronic state is 1-A.
 Alpha  occ. eigenvalues --  -25.20712 -25.20687 -19.69096 -19.69031 -19.68773
 Alpha  occ. eigenvalues --  -19.68760 -19.67066 -19.66972 -19.66485 -19.64080
 Alpha  occ. eigenvalues --  -19.64073 -19.63704 -19.63574 -19.63492 -19.63327
 Alpha  occ. eigenvalues --  -15.02424 -15.02312 -14.79021 -14.78910 -10.68173
 Alpha  occ. eigenvalues --  -10.64076 -10.63536 -10.62186 -10.62096 -10.61896
 Alpha  occ. eigenvalues --  -10.61086 -10.60861 -10.60752 -10.60530 -10.60189
 Alpha  occ. eigenvalues --  -10.60087 -10.60058 -10.59961 -10.59732 -10.59270
 Alpha  occ. eigenvalues --  -10.59242 -10.59051 -10.58946 -10.58914 -10.58880
 Alpha  occ. eigenvalues --  -10.58754 -10.58731 -10.58709 -10.58632 -10.58566
 Alpha  occ. eigenvalues --  -10.58489 -10.57901 -10.57783 -10.57552 -10.57430
 Alpha  occ. eigenvalues --  -10.56446 -10.56262 -10.56066 -10.56013 -10.55955
 Alpha  occ. eigenvalues --  -10.55934 -10.55890 -10.55879 -10.55777 -10.55752
 Alpha  occ. eigenvalues --  -10.55471 -10.55362 -10.55190 -10.54990 -10.54671
 Alpha  occ. eigenvalues --  -10.54663 -10.54562 -10.54432  -7.13610  -1.38194
 Alpha  occ. eigenvalues --   -1.37877  -1.32659  -1.29478  -1.20962  -1.19924
 Alpha  occ. eigenvalues --   -1.19822  -1.19784  -1.19443  -1.17176  -1.17122
 Alpha  occ. eigenvalues --   -1.16086  -1.15961  -1.15142  -1.14757  -1.10831
 Alpha  occ. eigenvalues --   -1.08947  -1.03629  -0.97615  -0.97536  -0.96425
 Alpha  occ. eigenvalues --   -0.94821  -0.93055  -0.91941  -0.91815  -0.90787
 Alpha  occ. eigenvalues --   -0.90731  -0.89035  -0.88656  -0.88034  -0.87051
 Alpha  occ. eigenvalues --   -0.86575  -0.85923  -0.85627  -0.84965  -0.84367
 Alpha  occ. eigenvalues --   -0.83401  -0.82563  -0.82253  -0.81081  -0.80873
 Alpha  occ. eigenvalues --   -0.80173  -0.78935  -0.77205  -0.76880  -0.76291
 Alpha  occ. eigenvalues --   -0.74490  -0.73825  -0.73295  -0.72410  -0.71432
 Alpha  occ. eigenvalues --   -0.70819  -0.70763  -0.70670  -0.70380  -0.70217
 Alpha  occ. eigenvalues --   -0.69580  -0.68411  -0.68200  -0.67627  -0.67562
 Alpha  occ. eigenvalues --   -0.67066  -0.65216  -0.65090  -0.64281  -0.64250
 Alpha  occ. eigenvalues --   -0.63872  -0.63522  -0.63158  -0.62448  -0.62292
 Alpha  occ. eigenvalues --   -0.62270  -0.62158  -0.61824  -0.60180  -0.59469
 Alpha  occ. eigenvalues --   -0.59297  -0.59148  -0.59085  -0.58811  -0.58695
 Alpha  occ. eigenvalues --   -0.58199  -0.57811  -0.57700  -0.57604  -0.57129
 Alpha  occ. eigenvalues --   -0.56848  -0.56588  -0.56287  -0.55853  -0.55734
 Alpha  occ. eigenvalues --   -0.55540  -0.55149  -0.55006  -0.54604  -0.54513
 Alpha  occ. eigenvalues --   -0.54263  -0.53875  -0.53615  -0.53172  -0.52959
 Alpha  occ. eigenvalues --   -0.52863  -0.52708  -0.52400  -0.52241  -0.52060
 Alpha  occ. eigenvalues --   -0.51842  -0.51706  -0.51636  -0.51175  -0.50999
 Alpha  occ. eigenvalues --   -0.50645  -0.50329  -0.50039  -0.49678  -0.49641
 Alpha  occ. eigenvalues --   -0.49306  -0.49229  -0.48945  -0.48544  -0.48528
 Alpha  occ. eigenvalues --   -0.48256  -0.47986  -0.47899  -0.47587  -0.47187
 Alpha  occ. eigenvalues --   -0.47089  -0.47003  -0.46911  -0.46248  -0.46138
 Alpha  occ. eigenvalues --   -0.45946  -0.45779  -0.45676  -0.45479  -0.45085
 Alpha  occ. eigenvalues --   -0.45080  -0.44929  -0.44523  -0.44307  -0.43568
 Alpha  occ. eigenvalues --   -0.43318  -0.43073  -0.42803  -0.42600  -0.42255
 Alpha  occ. eigenvalues --   -0.42083  -0.41774  -0.41658  -0.41589  -0.41475
 Alpha  occ. eigenvalues --   -0.41101  -0.41022  -0.40723  -0.40580  -0.40422
 Alpha  occ. eigenvalues --   -0.40354  -0.40202  -0.40131  -0.39783  -0.39663
 Alpha  occ. eigenvalues --   -0.39479  -0.39326  -0.39132  -0.38387  -0.37486
 Alpha  occ. eigenvalues --   -0.36561  -0.36192  -0.35834  -0.35827  -0.35002
 Alpha  occ. eigenvalues --   -0.34656  -0.33999  -0.33860  -0.32755  -0.32596
 Alpha  occ. eigenvalues --   -0.32417  -0.32329  -0.32156  -0.31748  -0.29737
 Alpha  occ. eigenvalues --   -0.27118  -0.23385
 Alpha virt. eigenvalues --   -0.10446  -0.08610  -0.06951  -0.03410  -0.02350
 Alpha virt. eigenvalues --   -0.01204  -0.00701   0.00678   0.00926   0.01862
 Alpha virt. eigenvalues --    0.04638   0.05496   0.05665   0.06563   0.06660
 Alpha virt. eigenvalues --    0.07251   0.07592   0.07895   0.08048   0.08080
 Alpha virt. eigenvalues --    0.08286   0.08530   0.08600   0.08739   0.08836
 Alpha virt. eigenvalues --    0.09028   0.09340   0.09433   0.09618   0.09701
 Alpha virt. eigenvalues --    0.09750   0.10133   0.10325   0.10370   0.10704
 Alpha virt. eigenvalues --    0.10937   0.11245   0.11437   0.11484   0.11517
 Alpha virt. eigenvalues --    0.11644   0.11761   0.11923   0.12126   0.12170
 Alpha virt. eigenvalues --    0.12294   0.12615   0.12752   0.12940   0.13083
 Alpha virt. eigenvalues --    0.13397   0.13496   0.13699   0.13787   0.14070
 Alpha virt. eigenvalues --    0.14144   0.14508   0.14754   0.14847   0.14928
 Alpha virt. eigenvalues --    0.14950   0.15035   0.15088   0.15124   0.15292
 Alpha virt. eigenvalues --    0.15507   0.15620   0.15734   0.16189   0.16375
 Alpha virt. eigenvalues --    0.16569   0.16805   0.16935   0.17031   0.17117
 Alpha virt. eigenvalues --    0.17120   0.17454   0.17661   0.17848   0.17897
 Alpha virt. eigenvalues --    0.18253   0.18265   0.18312   0.18625   0.18673
 Alpha virt. eigenvalues --    0.19043   0.19087   0.19157   0.19349   0.19388
 Alpha virt. eigenvalues --    0.19708   0.19819   0.19844   0.20129   0.20256
 Alpha virt. eigenvalues --    0.20347   0.20447   0.20679   0.21111   0.21335
 Alpha virt. eigenvalues --    0.21475   0.21590   0.21865   0.21886   0.21986
 Alpha virt. eigenvalues --    0.22213   0.22455   0.22576   0.22651   0.22863
 Alpha virt. eigenvalues --    0.23150   0.23172   0.23233   0.23463   0.23609
 Alpha virt. eigenvalues --    0.23839   0.23927   0.24123   0.24179   0.24345
 Alpha virt. eigenvalues --    0.24377   0.24517   0.24683   0.24744   0.24953
 Alpha virt. eigenvalues --    0.25080   0.25174   0.25397   0.25677   0.25840
 Alpha virt. eigenvalues --    0.25987   0.26115   0.26261   0.26383   0.26616
 Alpha virt. eigenvalues --    0.26795   0.26817   0.27021   0.27146   0.27227
 Alpha virt. eigenvalues --    0.27381   0.27478   0.27684   0.27988   0.28209
 Alpha virt. eigenvalues --    0.28250   0.28824   0.28901   0.28984   0.29078
 Alpha virt. eigenvalues --    0.29195   0.29386   0.29684   0.29884   0.30014
 Alpha virt. eigenvalues --    0.30042   0.30167   0.30446   0.30536   0.30923
 Alpha virt. eigenvalues --    0.31649   0.31666   0.31793   0.31834   0.32076
 Alpha virt. eigenvalues --    0.32170   0.32344   0.32467   0.32631   0.32834
 Alpha virt. eigenvalues --    0.33043   0.33152   0.33269   0.33474   0.33549
 Alpha virt. eigenvalues --    0.33838   0.33990   0.34162   0.34305   0.34389
 Alpha virt. eigenvalues --    0.34434   0.34688   0.34975   0.35070   0.35223
 Alpha virt. eigenvalues --    0.35354   0.35478   0.35555   0.35631   0.35744
 Alpha virt. eigenvalues --    0.35936   0.36095   0.36283   0.36470   0.36631
 Alpha virt. eigenvalues --    0.36687   0.36837   0.36935   0.37045   0.37083
 Alpha virt. eigenvalues --    0.37351   0.37438   0.37590   0.37602   0.37685
 Alpha virt. eigenvalues --    0.37771   0.37881   0.38116   0.38236   0.38424
 Alpha virt. eigenvalues --    0.38663   0.38751   0.38929   0.39092   0.39204
 Alpha virt. eigenvalues --    0.39321   0.39471   0.39606   0.39793   0.39807
 Alpha virt. eigenvalues --    0.39915   0.40189   0.40257   0.40433   0.40517
 Alpha virt. eigenvalues --    0.40687   0.40840   0.40882   0.40999   0.41202
 Alpha virt. eigenvalues --    0.41249   0.41445   0.41549   0.41629   0.41850
 Alpha virt. eigenvalues --    0.41952   0.42164   0.42207   0.42316   0.42635
 Alpha virt. eigenvalues --    0.42707   0.42791   0.42920   0.43090   0.43215
[...]
 Alpha virt. eigenvalues --    4.61331   4.61612   4.62217   4.62646   4.62906
 Alpha virt. eigenvalues --    4.63391   4.63576   4.63802   4.64128   4.64629
 Alpha virt. eigenvalues --    4.64737   4.64989   4.65136   4.65473   4.65655
 Alpha virt. eigenvalues --    4.66085   4.66205   4.66667   4.67016   4.67181
 Alpha virt. eigenvalues --    4.67290   4.67589   4.68118   4.68464   4.68703
 Alpha virt. eigenvalues --    4.69015   4.69336   4.69652   4.70055   4.70132
 Alpha virt. eigenvalues --    4.70373   4.70737   4.71015   4.71432   4.71671
 Alpha virt. eigenvalues --    4.71923   4.72513   4.72698   4.73055   4.73279
 Alpha virt. eigenvalues --    4.73396   4.73706   4.73840   4.74053   4.74620
 Alpha virt. eigenvalues --    4.75117   4.75196   4.75553   4.76392   4.76532
 Alpha virt. eigenvalues --    4.76706   4.77069   4.77415   4.77800   4.77951
 Alpha virt. eigenvalues --    4.78362   4.79398   4.79637   4.79940   4.80138
 Alpha virt. eigenvalues --    4.80541   4.80648   4.80874   4.80907   4.80998
 Alpha virt. eigenvalues --    4.81371   4.81867   4.82171   4.82240   4.82632
 Alpha virt. eigenvalues --    4.82756   4.83097   4.83724   4.83959   4.84609
 Alpha virt. eigenvalues --    4.85216   4.85835   4.85926   4.86444   4.86837
 Alpha virt. eigenvalues --    4.87015   4.87139   4.87558   4.87760   4.87928
 Alpha virt. eigenvalues --    4.88714   4.88934   4.89286   4.89966   4.90113
 Alpha virt. eigenvalues --    4.90361   4.90603   4.90938   4.91410   4.91744
 Alpha virt. eigenvalues --    4.91850   4.92120   4.92330   4.92619   4.92852
 Alpha virt. eigenvalues --    4.92968   4.93548   4.93716   4.93801   4.93961
 Alpha virt. eigenvalues --    4.94178   4.94301   4.94403   4.94652   4.94998
 Alpha virt. eigenvalues --    4.95020   4.95372   4.95838   4.96017   4.96688
 Alpha virt. eigenvalues --    4.96869   4.97502   4.97881   4.98166   4.98487
 Alpha virt. eigenvalues --    4.98699   4.98996   4.99433   4.99984   5.00117
 Alpha virt. eigenvalues --    5.00424   5.00704   5.00979   5.01905   5.02143
 Alpha virt. eigenvalues --    5.02457   5.03408   5.03569   5.03815   5.04145
 Alpha virt. eigenvalues --    5.04475   5.04595   5.04983   5.05292   5.05654
 Alpha virt. eigenvalues --    5.05871   5.06212   5.06620   5.06722   5.07109
 Alpha virt. eigenvalues --    5.07896   5.08178   5.08792   5.08895   5.09200
 Alpha virt. eigenvalues --    5.09556   5.09915   5.10044   5.10302   5.10921
 Alpha virt. eigenvalues --    5.11186   5.11736   5.12280   5.12452   5.12787
 Alpha virt. eigenvalues --    5.13095   5.13212   5.13391   5.13959   5.14029
 Alpha virt. eigenvalues --    5.14400   5.14693   5.14759   5.15373   5.15586
 Alpha virt. eigenvalues --    5.16006   5.16493   5.16641   5.16792   5.17174
 Alpha virt. eigenvalues --    5.17336   5.17391   5.17948   5.18409   5.18688
 Alpha virt. eigenvalues --    5.19009   5.19265   5.19430   5.19513   5.19867
 Alpha virt. eigenvalues --    5.20744   5.21718   5.22176   5.22268   5.22694
 Alpha virt. eigenvalues --    5.23298   5.23567   5.23694   5.23860   5.24287
 Alpha virt. eigenvalues --    5.25045   5.25242   5.25369   5.25635   5.25981
 Alpha virt. eigenvalues --    5.26548   5.26806   5.27012   5.27149   5.27391
 Alpha virt. eigenvalues --    5.28176   5.28763   5.28803   5.29111   5.29345
 Alpha virt. eigenvalues --    5.29676   5.29743   5.29928   5.30095   5.30225
 Alpha virt. eigenvalues --    5.30360   5.30594   5.30807   5.31055   5.31122
 Alpha virt. eigenvalues --    5.31494   5.31923   5.32206   5.32360   5.32762
 Alpha virt. eigenvalues --    5.33227   5.33628   5.34565   5.34828   5.35008
 Alpha virt. eigenvalues --    5.35494   5.35899   5.36067   5.36535   5.36869
 Alpha virt. eigenvalues --    5.37023   5.37357   5.37745   5.38146   5.38233
 Alpha virt. eigenvalues --    5.38614   5.39220   5.39291   5.39737   5.39973
 Alpha virt. eigenvalues --    5.40152   5.40299   5.40649   5.41011   5.41098
 Alpha virt. eigenvalues --    5.41651   5.41920   5.42103   5.42471   5.42721
 Alpha virt. eigenvalues --    5.43008   5.43328   5.43608   5.44302   5.44583
 Alpha virt. eigenvalues --    5.45329   5.45936   5.46199   5.46574   5.47341
 Alpha virt. eigenvalues --    5.47594   5.48148   5.48580   5.49347   5.49564
 Alpha virt. eigenvalues --    5.50163   5.50458   5.50832   5.51003   5.51236
 Alpha virt. eigenvalues --    5.51654   5.52043   5.52337   5.52678   5.52947
 Alpha virt. eigenvalues --    5.53741   5.54248   5.55844   5.56007   5.56226
 Alpha virt. eigenvalues --    5.56297   5.56768   5.57559   5.57608   5.57847
 Alpha virt. eigenvalues --    5.58314   5.58932   5.59045   5.59125   5.59411
 Alpha virt. eigenvalues --    5.60226   5.60329   5.60393   5.60914   5.61038
 Alpha virt. eigenvalues --    5.61264   5.61568   5.61873   5.62734   5.63040
 Alpha virt. eigenvalues --    5.63469   5.63976   5.64089   5.64336   5.64798
 Alpha virt. eigenvalues --    5.65112   5.65161   5.65647   5.65943   5.66361
 Alpha virt. eigenvalues --    5.66686   5.67353   5.67660   5.67810   5.68192
 Alpha virt. eigenvalues --    5.69035   5.69139   5.69222   5.69551   5.69694
 Alpha virt. eigenvalues --    5.70235   5.70793   5.71506   5.71905   5.73747
 Alpha virt. eigenvalues --    5.74627   5.75747   5.76105   5.77580   5.80963
 Alpha virt. eigenvalues --    5.82351   5.82773   5.83797   5.84301   5.84834
 Alpha virt. eigenvalues --    5.84904   5.86454   5.86653   5.87929   5.89503
 Alpha virt. eigenvalues --    5.91467   5.91714   5.91750   5.91773   5.91977
 Alpha virt. eigenvalues --    5.94027   5.96011   5.96404   5.96816   5.97853
 Alpha virt. eigenvalues --    5.99114   5.99883   6.01137   6.02338   6.02710
 Alpha virt. eigenvalues --    6.03040   6.03497   6.03996   6.04425   6.05544
 Alpha virt. eigenvalues --    6.06371   6.06479   6.06945   6.09389   6.09594
 Alpha virt. eigenvalues --    6.11451   6.12576   6.12722   6.15524   6.17397
 Alpha virt. eigenvalues --    6.17965   6.21495   6.21639   6.22070   6.24213
 Alpha virt. eigenvalues --    6.24376   6.25208   6.25935   6.26227   6.26722
 Alpha virt. eigenvalues --    6.27628   6.27844   6.28406   6.28629   6.28990
 Alpha virt. eigenvalues --    6.29580   6.30805   6.30923   6.32268   6.32489
 Alpha virt. eigenvalues --    6.32550   6.35128   6.35693   6.36512   6.39753
 Alpha virt. eigenvalues --    6.40393   6.43066   6.43760   6.44441   6.44573
 Alpha virt. eigenvalues --    6.45988   6.46109   6.46802   6.49068   6.50309
 Alpha virt. eigenvalues --    6.64283   6.68273   6.70162   6.70227   6.72087
 Alpha virt. eigenvalues --    6.73460   6.74155   6.74363   6.75235   6.75845
 Alpha virt. eigenvalues --    6.76256   6.76968   6.77354   6.80415   6.81847
 Alpha virt. eigenvalues --    6.82848   6.83740   6.83939   6.84166   6.84235
 Alpha virt. eigenvalues --    6.84526   6.85689   6.86271   6.86746   6.87438
 Alpha virt. eigenvalues --    6.87504   6.87701   6.89219   6.94392   6.95777
 Alpha virt. eigenvalues --    6.95845   6.97430   6.97463   6.98069   6.98791
 Alpha virt. eigenvalues --    6.99065   6.99170   6.99850   7.00030   7.01595
 Alpha virt. eigenvalues --    7.01915   7.02936   7.04343   7.04870   7.06537
 Alpha virt. eigenvalues --    7.08025   7.10082   7.11202   7.17432   7.20449
 Alpha virt. eigenvalues --    7.22076   7.22178   7.24590   7.26746   7.27136
 Alpha virt. eigenvalues --    7.27545   7.28111   7.28163   7.29763   7.30540
 Alpha virt. eigenvalues --    7.30660   7.33198   7.33465   7.33541   7.34115
 Alpha virt. eigenvalues --    7.34224   7.34557   7.34630   7.35993   7.36974
 Alpha virt. eigenvalues --    7.37948   7.39722   7.41756   7.41886   7.45112
 Alpha virt. eigenvalues --    7.47300   7.47533   7.50218   8.46406   8.52679
 Alpha virt. eigenvalues --    8.56985   8.63257   8.82614   8.87621   8.91295
 Alpha virt. eigenvalues --    8.94475   8.94828   9.01131  15.86247  22.78570
 Alpha virt. eigenvalues --   22.86374  22.88202  22.91755  22.94290  23.08649
 Alpha virt. eigenvalues --   23.10992  23.12527  23.13723  23.16884  23.17540
 Alpha virt. eigenvalues --   23.19098  23.24623  23.26562  23.27441  23.27747
 Alpha virt. eigenvalues --   23.28323  23.28542  23.29961  23.31189  23.32894
 Alpha virt. eigenvalues --   23.33666  23.33943  23.35757  23.36012  23.36233
 Alpha virt. eigenvalues --   23.37413  23.37924  23.40253  23.41412  23.42587
 Alpha virt. eigenvalues --   23.44269  23.45699  23.46571  23.49845  23.50573
 Alpha virt. eigenvalues --   23.54287  23.54799  23.55345  23.57694  23.60669
 Alpha virt. eigenvalues --   23.62563  23.71081  23.75727  23.86310  23.93728
 Alpha virt. eigenvalues --   23.98829  24.09491  24.10122  32.58771  32.62505
 Alpha virt. eigenvalues --   33.16749  33.24420  44.17155  44.21012  44.24054
 Alpha virt. eigenvalues --   44.26534  44.26757  44.29553  44.32424  44.44068
 Alpha virt. eigenvalues --   44.46200  44.47025  44.48022  44.61769  44.62430
 Alpha virt. eigenvalues --   57.43900  57.61612
          Condensed to atoms (all electrons):
 Mulliken charges:
               1
     1  B    0.349621
     2  N   -0.108151
     3  C   -0.016670
     4  C   -0.082810
     5  C   -0.010271
     6  C    0.070200
     7  C    0.196453
     8  C   -0.099885
     9  O   -0.277880
    10  C   -0.486192
    11  C    0.142000
    12  C   -0.013121
    13  N    0.483394
    14  O   -0.336142
    15  O   -0.334099
    16  C   -0.004966
    17  C   -0.046616
    18  C   -0.061578
    19  C   -0.117585
    20  N    0.499395
    21  O   -0.355940
    22  O   -0.357915
    23  C    0.111207
    24  N   -0.103727
    25  C   -0.031146
    26  C   -0.057210
    27  C    0.004584
    28  C   -0.454340
    29  C   -0.081736
    30  C   -0.069952
    31  C    0.009176
    32  C   -0.156208
    33  C   -0.191118
    34  C    0.218799
    35  O   -0.300390
    36  C   -0.127655
    37  C   -0.071830
    38  O   -0.333966
    39  C   -0.071948
    40  C   -0.068441
    41  O   -0.342630
    42  C   -0.079730
    43  C   -0.063957
    44  O   -0.360501
    45  C   -0.193391
    46  C   -0.162301
    47  C   -0.151410
    48  C   -0.428149
    49  C   -0.087581
    50  C   -0.084302
    51  C    0.025447
    52  C   -0.125235
    53  C   -0.193768
    54  C    0.220526
    55  O   -0.300389
    56  C   -0.135990
    57  C   -0.076125
    58  O   -0.336030
    59  C   -0.115096
    60  C   -0.107905
    61  O   -0.331976
    62  C   -0.063248
    63  C   -0.061636
    64  O   -0.343138
    65  C   -0.203198
    66  C   -0.161532
    67  C   -0.193231
    68  F   -0.343459
    69  F   -0.339729
    70  H    0.164307
    71  H    0.201725
    72  H    0.262419
    73  H    0.209374
    74  H    0.203250
    75  H    0.177383
    76  H    0.164345
    77  H    0.172169
    78  H    0.159848
    79  H    0.136288
    80  H    0.099192
    81  H    0.131007
    82  H    0.155508
    83  H    0.158464
    84  H    0.157537
    85  H    0.145670
    86  H    0.137039
    87  H    0.127411
    88  H    0.117251
    89  H    0.124302
    90  H    0.123850
    91  H    0.117712
    92  H    0.129177
    93  H    0.118047
    94  H    0.127517
    95  H    0.116814
    96  H    0.136966
    97  H    0.119708
    98  H    0.119447
    99  H    0.156266
   100  H    0.140023
   101  H    0.175602
   102  H    0.137001
   103  H    0.148418
   104  H    0.101441
   105  H    0.129044
   106  H    0.140138
   107  H    0.158620
   108  H    0.158121
   109  H    0.148956
   110  H    0.140127
   111  H    0.128453
   112  H    0.145939
   113  H    0.135850
   114  H    0.137021
   115  H    0.144966
   116  H    0.114345
   117  H    0.120243
   118  H    0.117148
   119  H    0.112109
   120  H    0.136097
   121  H    0.119706
   122  H    0.118231
   123  H    0.153006
   124  H    0.153723
 Sum of Mulliken charges =  -0.00000
 Mulliken charges with hydrogens summed into heavy atoms:
               1
     1  B    0.349621
     2  N   -0.108151
     3  C   -0.016670
     4  C    0.081497
     5  C   -0.010271
     6  C    0.070200
     7  C    0.196453
     8  C   -0.099885
     9  O   -0.277880
    10  C   -0.022047
    11  C    0.142000
    12  C   -0.013121
    13  N    0.483394
    14  O   -0.336142
    15  O   -0.334099
    16  C    0.204409
    17  C   -0.046616
    18  C    0.141672
    19  C    0.059798
    20  N    0.499395
    21  O   -0.355940
    22  O   -0.357915
    23  C    0.111207
    24  N   -0.103727
    25  C   -0.031146
    26  C    0.107135
    27  C    0.004584
    28  C    0.013966
    29  C    0.017456
    30  C    0.061055
    31  C    0.009176
    32  C   -0.000700
    33  C   -0.032653
    34  C    0.218799
    35  O   -0.300390
    36  C    0.175552
    37  C    0.192621
    38  O   -0.333966
    39  C    0.169604
    40  C    0.173121
    41  O   -0.342630
    42  C    0.167494
    43  C    0.180375
    44  O   -0.360501
    45  C    0.182730
    46  C   -0.006035
    47  C   -0.011387
    48  C    0.032872
    49  C    0.013860
    50  C    0.044742
    51  C    0.025447
    52  C    0.014903
    53  C   -0.035148
    54  C    0.220526
    55  O   -0.300389
    56  C    0.171087
    57  C    0.192455
    58  O   -0.336030
    59  C    0.166692
    60  C    0.174082
    61  O   -0.331976
    62  C    0.171339
    63  C    0.167622
    64  O   -0.343138
    65  C    0.170836
    66  C   -0.008525
    67  C   -0.039508
    68  F   -0.343459
    69  F   -0.339729
 Electronic spatial extent (au):  <R**2>=         137839.4661
 Charge=              0.0000 electrons
 Dipole moment (field-independent basis, Debye):
    X=             -5.6056    Y=              4.2540    Z=              2.2518  Tot=              7.3885
 Quadrupole moment (field-independent basis, Debye-Ang):
   XX=           -449.6860   YY=           -340.3311   ZZ=           -415.2535
   XY=            -10.1280   XZ=             55.4855   YZ=             -7.1238
 Traceless Quadrupole moment (field-independent basis, Debye-Ang):
   XX=            -47.9291   YY=             61.4258   ZZ=            -13.4967
   XY=            -10.1280   XZ=             55.4855   YZ=             -7.1238
 Octapole moment (field-independent basis, Debye-Ang**2):
  XXX=          -2202.9797  YYY=            255.3829  ZZZ=            -25.7032  XYY=           -486.7303
  XXY=           -158.1092  XXZ=            602.6434  XZZ=           -160.3576  YZZ=             29.2275
  YYZ=            -96.5322  XYZ=            -64.1017
 Hexadecapole moment (field-independent basis, Debye-Ang**3):
 XXXX=        -158775.9057 YYYY=         -34859.2259 ZZZZ=          -3170.3512 XXXY=          -4058.3473
 XXXZ=           3119.7728 YYYX=          -3060.8486 YYYZ=           -400.7239 ZZZX=            326.5442
 ZZZY=            -37.3445 XXYY=         -26502.9077 XXZZ=         -24261.9363 YYZZ=          -6854.5566
 XXYZ=            265.7193 YYXZ=            522.6166 ZZXY=            286.0957
 N-N= 9.488516978308D+03 E-N=-2.673478847184D+04  KE= 3.304070770941D+03
 Leave Link  601 at Fri Oct 24 18:16:36 2025, MaxMem= 30870077440 cpu:             175.7 elap:               3.5
 (Enter /public/software/gauss/g16/l9999.exe)
 1\1\GINC-CU056\SP\RM062X\def2TZVPP\C49H55B1F2N4O13\BAIDING\24-Oct-2025
 \0\\#p M062X/DEF2TZVPP scrf=(solvent=water) em=GD3\\Energy calculation
  for BE_24NO2\\0,1\B,0,-2.780269,-0.689126,-0.217661\N,0,-3.633574,0.5
 88415,-0.006449\C,0,-3.189428,1.884813,0.044618\C,0,-4.262621,2.704582
 ,0.472639\C,0,-5.386511,1.922277,0.661653\C,0,-4.984444,0.578054,0.358
 748\C,0,-5.692251,-0.633614,0.435039\C,0,-7.194506,-0.569532,0.654063\
 O,0,-7.674477,-0.632698,1.77185\C,0,-8.046965,-0.429565,-0.608922\C,0,
 -9.375393,0.260099,-0.412917\C,0,-10.40036,-0.168516,0.45272\N,0,-10.3
 30825,-1.45226,1.158776\O,0,-10.803989,-1.513417,2.293681\O,0,-9.84445
 3,-2.413669,0.562919\C,0,-11.566573,0.558165,0.663531\C,0,-11.734682,1
 .737344,-0.04865\C,0,-10.769425,2.202097,-0.938089\C,0,-9.601846,1.465
 008,-1.096523\N,0,-12.965138,2.503955,0.142831\O,0,-13.101922,3.55063,
 -0.494454\O,0,-13.807378,2.069249,0.932027\C,0,-5.051885,-1.871957,0.2
 952\N,0,-3.673277,-1.930167,0.045814\C,0,-3.316502,-3.248526,-0.065282
 \C,0,-4.477517,-4.040269,0.129464\C,0,-5.558335,-3.215601,0.364758\C,0
 ,-6.946362,-3.695105,0.651414\C,0,-2.037874,-3.852428,-0.340316\C,0,-0
 .79155,-3.310247,-0.343377\C,0,0.444674,-4.020155,-0.637842\C,0,0.5042
 21,-5.365476,-1.070035\C,0,1.716294,-5.982372,-1.325726\C,0,2.92314,-5
 .278882,-1.159292\O,0,4.056105,-5.989002,-1.456035\C,0,5.34502,-5.3717
 08,-1.326267\C,0,5.84869,-5.45078,0.110881\O,0,7.14581,-4.870675,0.126
 886\C,0,7.753651,-4.929647,1.41548\C,0,9.118672,-4.28374,1.352653\O,0,
 9.967294,-5.076994,0.520887\C,0,11.225165,-4.472326,0.222771\C,0,12.21
 9099,-4.599642,1.382531\O,0,13.483432,-4.021729,1.059267\C,0,14.329302
 ,-4.882636,0.300652\C,0,2.89427,-3.945372,-0.732281\C,0,1.666547,-3.33
 6861,-0.483845\C,0,-6.70608,2.436538,1.149622\C,0,-1.89327,2.431391,-0
 .267494\C,0,-0.854556,1.865378,-0.935257\C,0,0.427782,2.494359,-1.2201
 31\C,0,1.368169,1.785162,-1.999709\C,0,2.607349,2.322881,-2.311467\C,0
 ,2.955199,3.600524,-1.847537\O,0,4.196691,4.04303,-2.222771\C,0,4.6631
 42,5.329742,-1.791765\C,0,5.249431,5.261505,-0.385238\O,0,5.794787,6.5
 48071,-0.111212\C,0,6.13205,6.765265,1.259032\C,0,7.322119,5.93879,1.7
 38469\O,0,8.479336,6.062497,0.914151\C,0,9.138221,7.324867,1.013615\C,
 0,10.458446,7.245492,0.281082\O,0,11.322789,6.342043,0.96128\C,0,12.58
 1381,6.219098,0.31311\C,0,2.042829,4.325794,-1.064683\C,0,0.802613,3.7
 73973,-0.762728\F,0,-1.705401,-0.656764,0.686875\F,0,-2.286549,-0.7571
 36,-1.531963\H,0,-4.195368,3.775003,0.614805\H,0,-7.468913,0.106207,-1
 .364423\H,0,-8.184924,-1.449761,-0.987316\H,0,-12.325693,0.201224,1.34
 5828\H,0,-10.925146,3.122934,-1.485092\H,0,-8.835128,1.832295,-1.76957
 6\H,0,-4.487094,-5.122058,0.117162\H,0,-7.349743,-3.26647,1.571956\H,0
 ,-7.639495,-3.446463,-0.157819\H,0,-6.941454,-4.782755,0.756957\H,0,-2
 .137142,-4.917246,-0.536836\H,0,-0.66657,-2.268189,-0.076347\H,0,-0.40
 9042,-5.933166,-1.215804\H,0,1.757089,-7.013235,-1.662493\H,0,6.005046
 ,-5.945971,-1.980222\H,0,5.324813,-4.337842,-1.683258\H,0,5.175174,-4.
 914526,0.794954\H,0,5.884758,-6.502533,0.430461\H,0,7.140356,-4.394375
 ,2.155392\H,0,7.844522,-5.97525,1.745309\H,0,9.03456,-3.266393,0.94377
 5\H,0,9.513503,-4.206947,2.374623\H,0,11.607039,-4.993744,-0.659883\H,
 0,11.094031,-3.41251,-0.037587\H,0,11.851865,-4.056238,2.258541\H,0,12
 .332284,-5.657284,1.660139\H,0,15.273299,-4.351998,0.153113\H,0,14.527
 551,-5.819627,0.839488\H,0,13.908045,-5.12699,-0.682554\H,0,3.80658,-3
 .380247,-0.586552\H,0,1.652852,-2.301941,-0.153559\H,0,-7.034258,1.925
 101,2.058919\H,0,-6.619123,3.502462,1.37396\H,0,-7.500275,2.324028,0.4
 05511\H,0,-1.802535,3.464067,0.060771\H,0,-0.96734,0.863354,-1.331999\
 H,0,1.111595,0.794476,-2.364621\H,0,3.321823,1.77123,-2.913847\H,0,5.4
 47256,5.601467,-2.502196\H,0,3.868904,6.079486,-1.855419\H,0,4.475874,
 5.006568,0.352036\H,0,6.019797,4.479532,-0.3542\H,0,6.346123,7.834854,
 1.33781\H,0,5.272689,6.544563,1.910156\H,0,7.547469,6.228559,2.776114\
 H,0,7.074479,4.873221,1.736789\H,0,8.538091,8.126942,0.562814\H,0,9.30
 8566,7.580722,2.069878\H,0,10.293977,6.910975,-0.754866\H,0,10.903897,
 8.251394,0.240731\H,0,13.181045,5.514942,0.895101\H,0,12.472171,5.8341
 16,-0.710988\H,0,13.107677,7.183542,0.266751\H,0,2.28941,5.308781,-0.6
 82566\H,0,0.120182,4.354711,-0.150544\\Version=ES64L-G16RevA.03\State=
 1-A\HF=-3321.6680339\RMSD=1.771e-09\Dipole=2.2053996,1.6736462,-0.8859
 456\Quadrupole=-35.6341402,45.6685742,-10.034434,7.5299566,41.2521029,
 5.2963872\PG=C01 [X(C49H55B1F2N4O13)]\\@


 IT IS BETTER TO THINK YOU ARE HALF DRY THAN TO KNOW YOU
 ARE ALL WET.  -- SNOOPY
 Job cpu time:       1 days 11 hours 49 minutes 55.1 seconds.
 Elapsed time:       0 days  0 hours 34 minutes 16.8 seconds.
 File lengths (MBytes):  RWF=   5595 Int=      0 D2E=      0 Chk=    489 Scr=      1
 Normal termination of Gaussian 16 at Fri Oct 24 18:16:38 2025.
