 Entering Gaussian System, Link 0=g16
 Input=BE_Br_reduced_i_sp.gjf
 Output=BE_Br_reduced_i_sp.log
 Initial command:
 /public/software/gauss/g16/l1.exe "/public/home/baiding/1113_modified_sp/tmp_BE_Br_reduced_i_sp_1602077/Gau-265932.inp" -scrdir="/public/home/baiding/1113_modified_sp/tmp_BE_Br_reduced_i_sp_1602077/"
 Entering Link 1 = /public/software/gauss/g16/l1.exe PID=    265933.
  
 Copyright (c) 1988,1990,1992,1993,1995,1998,2003,2009,2016,
            Gaussian, Inc.  All Rights Reserved.
  
 This is part of the Gaussian(R) 16 program.  It is based on
 the Gaussian(R) 09 system (copyright 2009, Gaussian, Inc.),
 the Gaussian(R) 03 system (copyright 2003, Gaussian, Inc.),
 the Gaussian(R) 98 system (copyright 1998, Gaussian, Inc.),
 the Gaussian(R) 94 system (copyright 1995, Gaussian, Inc.),
 the Gaussian 92(TM) system (copyright 1992, Gaussian, Inc.),
 the Gaussian 90(TM) system (copyright 1990, Gaussian, Inc.),
 the Gaussian 88(TM) system (copyright 1988, Gaussian, Inc.),
 the Gaussian 86(TM) system (copyright 1986, Carnegie Mellon
 University), and the Gaussian 82(TM) system (copyright 1983,
 Carnegie Mellon University). Gaussian is a federally registered
 trademark of Gaussian, Inc.
  
 This software contains proprietary and confidential information,
 including trade secrets, belonging to Gaussian, Inc.
  
 This software is provided under written license and may be
 used, copied, transmitted, or stored only in accord with that
 written license.
  
 The following legend is applicable only to US Government
 contracts under FAR:
  
                    RESTRICTED RIGHTS LEGEND
  
 Use, reproduction and disclosure by the US Government is
 subject to restrictions as set forth in subparagraphs (a)
 and (c) of the Commercial Computer Software - Restricted
 Rights clause in FAR 52.227-19.
  
 Gaussian, Inc.
 340 Quinnipiac St., Bldg. 40, Wallingford CT 06492
  
  
 ---------------------------------------------------------------
 Warning -- This program may not be used in any manner that
 competes with the business of Gaussian, Inc. or will provide
 assistance to any competitor of Gaussian, Inc.  The licensee
 of this program is prohibited from giving any competitor of
 Gaussian, Inc. access to this program.  By using this program,
 the user acknowledges that Gaussian, Inc. is engaged in the
 business of creating and licensing software in the field of
 computational chemistry and represents and warrants to the
 licensee that it is not a competitor of Gaussian, Inc. and that
 it will not use this program in any manner prohibited above.
 ---------------------------------------------------------------
  

 Cite this work as:
 Gaussian 16, Revision A.03,
 M. J. Frisch, G. W. Trucks, H. B. Schlegel, G. E. Scuseria, 
 M. A. Robb, J. R. Cheeseman, G. Scalmani, V. Barone, 
 G. A. Petersson, H. Nakatsuji, X. Li, M. Caricato, A. V. Marenich, 
 J. Bloino, B. G. Janesko, R. Gomperts, B. Mennucci, H. P. Hratchian, 
 J. V. Ortiz, A. F. Izmaylov, J. L. Sonnenberg, D. Williams-Young, 
 F. Ding, F. Lipparini, F. Egidi, J. Goings, B. Peng, A. Petrone, 
 T. Henderson, D. Ranasinghe, V. G. Zakrzewski, J. Gao, N. Rega, 
 G. Zheng, W. Liang, M. Hada, M. Ehara, K. Toyota, R. Fukuda, 
 J. Hasegawa, M. Ishida, T. Nakajima, Y. Honda, O. Kitao, H. Nakai, 
 T. Vreven, K. Throssell, J. A. Montgomery, Jr., J. E. Peralta, 
 F. Ogliaro, M. J. Bearpark, J. J. Heyd, E. N. Brothers, K. N. Kudin, 
 V. N. Staroverov, T. A. Keith, R. Kobayashi, J. Normand, 
 K. Raghavachari, A. P. Rendell, J. C. Burant, S. S. Iyengar, 
 J. Tomasi, M. Cossi, J. M. Millam, M. Klene, C. Adamo, R. Cammi, 
 J. W. Ochterski, R. L. Martin, K. Morokuma, O. Farkas, 
 J. B. Foresman, and D. J. Fox, Gaussian, Inc., Wallingford CT, 2016.
 
 ******************************************
 Gaussian 16:  ES64L-G16RevA.03 25-Dec-2016
                13-Nov-2025 
 ******************************************
 %nprocshared=64
 Will use up to   64 processors via shared memory.
 %mem=230GB
 %chk=BE_Br_reduced_i_sp.chk
 ----------------------------------------------
 #p M062X/DEF2TZVPP scrf=(solvent=water) em=GD3
 ----------------------------------------------
 1/38=1,172=1/1;
 2/12=2,17=6,18=5,40=1/2;
 3/5=44,7=202,11=2,25=1,30=1,70=2201,72=1,74=-55,124=31/1,2,3;
 4//1;
 5/5=2,38=5,53=1/2;
 6/7=2,8=2,9=2,10=2,28=1/1;
 99/5=1,9=1/99;
 Leave Link    1 at Thu Nov 13 23:20:36 2025, MaxMem= 30870077440 cpu:              12.6 elap:               0.2
 (Enter /public/software/gauss/g16/l101.exe)
 --------------------------------------
 Energy calculation for BE_Br_reduced_i
 --------------------------------------
 Symbolic Z-matrix:
 Charge = -1 Multiplicity = 2
 B                    -2.64955  -0.47639   0.86209 
 N                    -3.55826  -1.73486   0.82277 
 C                    -3.14406  -3.02166   0.50703 
 C                    -4.3081   -3.81903   0.52051 
 C                    -5.4329   -3.03947   0.81837 
 C                    -4.93704  -1.71292   0.96048 
 C                    -5.59284  -0.46841   1.24678 
 C                    -6.92314  -0.22296   0.70869 
 O                    -7.64832  -1.04061   0.13869 
 C                    -8.58994   1.417     0.25063 
 C                    -8.58446   1.58842  -1.252 
 C                    -7.39749   1.80703  -1.96416 
 C                    -7.4237    2.00488  -3.34055 
 C                    -8.65531   1.98958  -3.99667 
 C                    -9.85494   1.77881  -3.31245 
 C                    -9.8084    1.5764   -1.93912 
 N                    -8.69116   2.19718  -5.4371 
 O                    -7.62397   2.3764   -6.0353 
 O                    -9.78797   2.18714  -6.00812 
 C                    -4.80326   0.59889   1.81394 
 N                    -3.4374    0.65883   1.56581 
 C                    -2.90518   1.75036   2.23687 
 C                    -3.96812   2.32132   2.96114 
 C                    -5.16169   1.62916   2.717 
 C                    -6.47507   1.87502   3.394 
 C                    -1.56926   2.28387   2.16077 
 C                    -0.61406   2.05051   1.22442 
 C                     0.71926   2.64566   1.1895 
 C                     1.2365    3.49454   2.19602 
 C                     2.50665   4.0396    2.09646 
 C                     3.32018   3.75469   0.98549 
 O                     4.55607   4.34433   0.9854 
 C                     5.42743   4.10407  -0.12837 
 C                     6.70806   4.8858    0.10703 
 O                     6.52594   6.29495   0.18734 
 C                     6.23249   6.92316  -1.06199 
 C                     6.38063   8.42407  -0.88662 
 O                     7.72915   8.80577  -0.59951 
 C                     8.412     9.4867   -1.65126 
 C                     8.73773   8.61546  -2.86266 
 O                     9.42338   7.40544  -2.55202 
 C                     10.75791   7.59473  -2.0941 
 C                     2.8394    2.90882  -0.02097 
 C                     1.55718   2.37048   0.09231 
 C                    -6.80303  -3.57571   1.10289 
 C                    -1.76009  -3.3245    0.24266 
 C                    -1.27073  -4.40704  -0.41747 
 C                     0.13852  -4.69605  -0.66704 
 C                     0.47418  -5.81046  -1.45873 
 C                     1.7964   -6.14482  -1.75186 
 C                     2.833    -5.35288  -1.24394 
 O                     4.16509  -5.57834  -1.46456 
 C                     4.54052  -6.7075   -2.26662 
 C                     6.04873  -6.74398  -2.34796 
 O                     6.57067  -7.05329  -1.05705 
 C                     7.98656  -7.22466  -1.02843 
 C                     8.73209  -5.88925  -0.9455 
 O                     10.14234  -6.11423  -0.85709 
 C                     10.63723  -6.25859   0.47502 
 C                     11.04171  -4.90352   1.04705 
 O                     11.53316  -5.11843   2.3634 
 C                     11.94307  -3.91022   2.98844 
 C                     2.52519  -4.2377   -0.44445 
 C                     1.2069   -3.91839  -0.16191 
 F                    -1.49359  -0.75985   1.61095 
 F                    -2.27085  -0.11103  -0.44645 
 H                    -9.327     0.66556   0.54311 
 H                    -8.8573    2.36594   0.72601 
 H                    -6.44807   1.81865  -1.44096 
 H                    -6.51075   2.1713   -3.89815 
 H                    -10.79477   1.76795  -3.84958 
 H                    -10.73108   1.40311  -1.39329 
 H                    -7.09897   0.97921   3.39037 
 H                    -6.31108   2.16953   4.43568 
 H                    -7.04826   2.67774   2.91612 
 H                    -1.36191   3.01085   2.94222 
 H                    -0.83818   1.38669   0.39622 
 H                     0.63955   3.72861   3.07213 
 H                     2.89516   4.69099   2.87342 
 H                     5.67006   3.0362   -0.20078 
 H                     4.93631   4.40829  -1.05984 
 H                     7.14629   4.58417   1.06361 
 H                     7.41757   4.62905  -0.69316 
 H                     6.91724   6.55321  -1.83652 
 H                     5.20295   6.70687  -1.3826 
 H                     6.00852   8.93031  -1.7855 
 H                     5.76138   8.74618  -0.04003 
 H                     7.82786   10.35061  -2.00281 
 H                     9.32968   9.87233  -1.19704 
 H                     7.81694   8.30782  -3.36773 
 H                     9.32331   9.22268  -3.57115 
 H                     11.22027   6.60554  -2.04261 
 H                     11.33407   8.22142  -2.78967 
 H                     10.79753   8.04992  -1.09622 
 H                     3.44565   2.66417  -0.88483 
 H                     1.19329   1.71676  -0.69626 
 H                    -7.36132  -2.90943   1.76057 
 H                    -7.3977   -3.7112    0.19297 
 H                    -6.7253   -4.55355   1.58905 
 H                    -1.06434  -2.57575   0.60241 
 H                    -1.9592   -5.13774  -0.82986 
 H                    -0.32349  -6.43102  -1.85902 
 H                     2.0033   -7.01144  -2.36805 
 H                     4.16263  -7.63224  -1.81451 
 H                     4.12443  -6.61132  -3.27665 
 H                     6.33899  -7.51732  -3.07401 
 H                     6.42404  -5.77845  -2.71228 
 H                     8.20493  -7.82208  -0.13723 
 H                     8.32836  -7.7887   -1.90758 
 H                     8.56621  -5.29584  -1.84991 
 H                     8.36432  -5.3101   -0.08939 
 H                     9.89627  -6.73506   1.12886 
 H                     11.51249  -6.91462   0.42454 
 H                     11.81531  -4.44614   0.41111 
 H                     10.17742  -4.22141   1.06433 
 H                     12.30146  -4.16482   3.98915 
 H                     12.75607  -3.42342   2.43055 
 H                     11.1087  -3.19951   3.07739 
 H                     3.33992  -3.63662  -0.05243 
 H                     1.00426  -3.05522   0.46439 
 O                    -7.30375   1.09222   0.79292 
 Br                   -3.82035   3.84468   4.08669 
 Br                   -4.38003  -5.70678   0.32215 
 
 ITRead=  0  0  0  0  0  0  0  0  0  0  0  0  0  0  0  0  0  0  0  0
 ITRead=  0  0  0  0  0  0  0  0  0  0  0  0  0  0  0  0  0  0  0  0
 ITRead=  0  0  0  0  0  0  0  0  0  0  0  0  0  0  0  0  0  0  0  0
 ITRead=  0  0  0  0  0  0  0  0  0  0  0  0  0  0  0  0  0  0  0  0
 ITRead=  0  0  0  0  0  0  0  0  0  0  0  0  0  0  0  0  0  0  0  0
 ITRead=  0  0  0  0  0  0  0  0  0  0  0  0  0  0  0  0  0  0  0  0
 ITRead=  0  0  0
 MicOpt= -1 -1 -1 -1 -1 -1 -1 -1 -1 -1 -1 -1 -1 -1 -1 -1 -1 -1 -1 -1
 MicOpt= -1 -1 -1 -1 -1 -1 -1 -1 -1 -1 -1 -1 -1 -1 -1 -1 -1 -1 -1 -1
 MicOpt= -1 -1 -1 -1 -1 -1 -1 -1 -1 -1 -1 -1 -1 -1 -1 -1 -1 -1 -1 -1
 MicOpt= -1 -1 -1 -1 -1 -1 -1 -1 -1 -1 -1 -1 -1 -1 -1 -1 -1 -1 -1 -1
 MicOpt= -1 -1 -1 -1 -1 -1 -1 -1 -1 -1 -1 -1 -1 -1 -1 -1 -1 -1 -1 -1
 MicOpt= -1 -1 -1 -1 -1 -1 -1 -1 -1 -1 -1 -1 -1 -1 -1 -1 -1 -1 -1 -1
 MicOpt= -1 -1 -1
 NAtoms=    123 NQM=      123 NQMF=       0 NMMI=      0 NMMIF=      0
                NMic=       0 NMicF=      0.
                    Isotopes and Nuclear Properties:
 (Nuclear quadrupole moments (NQMom) in fm**2, nuclear magnetic moments (NMagM)
  in nuclear magnetons)

  Atom         1           2           3           4           5           6           7           8           9          10
 IAtWgt=          11          14          12          12          12          12          12          12          16          12
 AtmWgt=  11.0093053  14.0030740  12.0000000  12.0000000  12.0000000  12.0000000  12.0000000  12.0000000  15.9949146  12.0000000
 NucSpn=           3           2           0           0           0           0           0           0           0           0
 AtZEff=  -0.0000000  -0.0000000  -0.0000000  -0.0000000  -0.0000000  -0.0000000  -0.0000000  -0.0000000  -0.0000000  -0.0000000
 NQMom=    4.0590000   2.0440000   0.0000000   0.0000000   0.0000000   0.0000000   0.0000000   0.0000000   0.0000000   0.0000000
 NMagM=    2.6886370   0.4037610   0.0000000   0.0000000   0.0000000   0.0000000   0.0000000   0.0000000   0.0000000   0.0000000
 AtZNuc=   5.0000000   7.0000000   6.0000000   6.0000000   6.0000000   6.0000000   6.0000000   6.0000000   8.0000000   6.0000000

  Atom        11          12          13          14          15          16          17          18          19          20
 IAtWgt=          12          12          12          12          12          12          14          16          16          12
 AtmWgt=  12.0000000  12.0000000  12.0000000  12.0000000  12.0000000  12.0000000  14.0030740  15.9949146  15.9949146  12.0000000
 NucSpn=           0           0           0           0           0           0           2           0           0           0
 AtZEff=  -0.0000000  -0.0000000  -0.0000000  -0.0000000  -0.0000000  -0.0000000  -0.0000000  -0.0000000  -0.0000000  -0.0000000
 NQMom=    0.0000000   0.0000000   0.0000000   0.0000000   0.0000000   0.0000000   2.0440000   0.0000000   0.0000000   0.0000000
 NMagM=    0.0000000   0.0000000   0.0000000   0.0000000   0.0000000   0.0000000   0.4037610   0.0000000   0.0000000   0.0000000
 AtZNuc=   6.0000000   6.0000000   6.0000000   6.0000000   6.0000000   6.0000000   7.0000000   8.0000000   8.0000000   6.0000000

  Atom        21          22          23          24          25          26          27          28          29          30
 IAtWgt=          14          12          12          12          12          12          12          12          12          12
 AtmWgt=  14.0030740  12.0000000  12.0000000  12.0000000  12.0000000  12.0000000  12.0000000  12.0000000  12.0000000  12.0000000
 NucSpn=           2           0           0           0           0           0           0           0           0           0
 AtZEff=  -0.0000000  -0.0000000  -0.0000000  -0.0000000  -0.0000000  -0.0000000  -0.0000000  -0.0000000  -0.0000000  -0.0000000
 NQMom=    2.0440000   0.0000000   0.0000000   0.0000000   0.0000000   0.0000000   0.0000000   0.0000000   0.0000000   0.0000000
 NMagM=    0.4037610   0.0000000   0.0000000   0.0000000   0.0000000   0.0000000   0.0000000   0.0000000   0.0000000   0.0000000
 AtZNuc=   7.0000000   6.0000000   6.0000000   6.0000000   6.0000000   6.0000000   6.0000000   6.0000000   6.0000000   6.0000000

  Atom        31          32          33          34          35          36          37          38          39          40
 IAtWgt=          12          16          12          12          16          12          12          16          12          12
 AtmWgt=  12.0000000  15.9949146  12.0000000  12.0000000  15.9949146  12.0000000  12.0000000  15.9949146  12.0000000  12.0000000
 NucSpn=           0           0           0           0           0           0           0           0           0           0
 AtZEff=  -0.0000000  -0.0000000  -0.0000000  -0.0000000  -0.0000000  -0.0000000  -0.0000000  -0.0000000  -0.0000000  -0.0000000
 NQMom=    0.0000000   0.0000000   0.0000000   0.0000000   0.0000000   0.0000000   0.0000000   0.0000000   0.0000000   0.0000000
 NMagM=    0.0000000   0.0000000   0.0000000   0.0000000   0.0000000   0.0000000   0.0000000   0.0000000   0.0000000   0.0000000
 AtZNuc=   6.0000000   8.0000000   6.0000000   6.0000000   8.0000000   6.0000000   6.0000000   8.0000000   6.0000000   6.0000000

  Atom        41          42          43          44          45          46          47          48          49          50
 IAtWgt=          16          12          12          12          12          12          12          12          12          12
 AtmWgt=  15.9949146  12.0000000  12.0000000  12.0000000  12.0000000  12.0000000  12.0000000  12.0000000  12.0000000  12.0000000
 NucSpn=           0           0           0           0           0           0           0           0           0           0
 AtZEff=  -0.0000000  -0.0000000  -0.0000000  -0.0000000  -0.0000000  -0.0000000  -0.0000000  -0.0000000  -0.0000000  -0.0000000
 NQMom=    0.0000000   0.0000000   0.0000000   0.0000000   0.0000000   0.0000000   0.0000000   0.0000000   0.0000000   0.0000000
 NMagM=    0.0000000   0.0000000   0.0000000   0.0000000   0.0000000   0.0000000   0.0000000   0.0000000   0.0000000   0.0000000
 AtZNuc=   8.0000000   6.0000000   6.0000000   6.0000000   6.0000000   6.0000000   6.0000000   6.0000000   6.0000000   6.0000000

  Atom        51          52          53          54          55          56          57          58          59          60
 IAtWgt=          12          16          12          12          16          12          12          16          12          12
 AtmWgt=  12.0000000  15.9949146  12.0000000  12.0000000  15.9949146  12.0000000  12.0000000  15.9949146  12.0000000  12.0000000
 NucSpn=           0           0           0           0           0           0           0           0           0           0
 AtZEff=  -0.0000000  -0.0000000  -0.0000000  -0.0000000  -0.0000000  -0.0000000  -0.0000000  -0.0000000  -0.0000000  -0.0000000
 NQMom=    0.0000000   0.0000000   0.0000000   0.0000000   0.0000000   0.0000000   0.0000000   0.0000000   0.0000000   0.0000000
 NMagM=    0.0000000   0.0000000   0.0000000   0.0000000   0.0000000   0.0000000   0.0000000   0.0000000   0.0000000   0.0000000
 AtZNuc=   6.0000000   8.0000000   6.0000000   6.0000000   8.0000000   6.0000000   6.0000000   8.0000000   6.0000000   6.0000000

  Atom        61          62          63          64          65          66          67          68          69          70
 IAtWgt=          16          12          12          12          19          19           1           1           1           1
 AtmWgt=  15.9949146  12.0000000  12.0000000  12.0000000  18.9984033  18.9984033   1.0078250   1.0078250   1.0078250   1.0078250
 NucSpn=           0           0           0           0           1           1           1           1           1           1
 AtZEff=  -0.0000000  -0.0000000  -0.0000000  -0.0000000  -0.0000000  -0.0000000  -0.0000000  -0.0000000  -0.0000000  -0.0000000
 NQMom=    0.0000000   0.0000000   0.0000000   0.0000000   0.0000000   0.0000000   0.0000000   0.0000000   0.0000000   0.0000000
 NMagM=    0.0000000   0.0000000   0.0000000   0.0000000   2.6288670   2.6288670   2.7928460   2.7928460   2.7928460   2.7928460
 AtZNuc=   8.0000000   6.0000000   6.0000000   6.0000000   9.0000000   9.0000000   1.0000000   1.0000000   1.0000000   1.0000000

  Atom        71          72          73          74          75          76          77          78          79          80
 IAtWgt=           1           1           1           1           1           1           1           1           1           1
 AtmWgt=   1.0078250   1.0078250   1.0078250   1.0078250   1.0078250   1.0078250   1.0078250   1.0078250   1.0078250   1.0078250
 NucSpn=           1           1           1           1           1           1           1           1           1           1
 AtZEff=  -0.0000000  -0.0000000  -0.0000000  -0.0000000  -0.0000000  -0.0000000  -0.0000000  -0.0000000  -0.0000000  -0.0000000
 NQMom=    0.0000000   0.0000000   0.0000000   0.0000000   0.0000000   0.0000000   0.0000000   0.0000000   0.0000000   0.0000000
 NMagM=    2.7928460   2.7928460   2.7928460   2.7928460   2.7928460   2.7928460   2.7928460   2.7928460   2.7928460   2.7928460
 AtZNuc=   1.0000000   1.0000000   1.0000000   1.0000000   1.0000000   1.0000000   1.0000000   1.0000000   1.0000000   1.0000000

  Atom        81          82          83          84          85          86          87          88          89          90
 IAtWgt=           1           1           1           1           1           1           1           1           1           1
 AtmWgt=   1.0078250   1.0078250   1.0078250   1.0078250   1.0078250   1.0078250   1.0078250   1.0078250   1.0078250   1.0078250
 NucSpn=           1           1           1           1           1           1           1           1           1           1
 AtZEff=  -0.0000000  -0.0000000  -0.0000000  -0.0000000  -0.0000000  -0.0000000  -0.0000000  -0.0000000  -0.0000000  -0.0000000
 NQMom=    0.0000000   0.0000000   0.0000000   0.0000000   0.0000000   0.0000000   0.0000000   0.0000000   0.0000000   0.0000000
 NMagM=    2.7928460   2.7928460   2.7928460   2.7928460   2.7928460   2.7928460   2.7928460   2.7928460   2.7928460   2.7928460
 AtZNuc=   1.0000000   1.0000000   1.0000000   1.0000000   1.0000000   1.0000000   1.0000000   1.0000000   1.0000000   1.0000000

  Atom        91          92          93          94          95          96          97          98          99         100
 IAtWgt=           1           1           1           1           1           1           1           1           1           1
 AtmWgt=   1.0078250   1.0078250   1.0078250   1.0078250   1.0078250   1.0078250   1.0078250   1.0078250   1.0078250   1.0078250
 NucSpn=           1           1           1           1           1           1           1           1           1           1
 AtZEff=  -0.0000000  -0.0000000  -0.0000000  -0.0000000  -0.0000000  -0.0000000  -0.0000000  -0.0000000  -0.0000000  -0.0000000
 NQMom=    0.0000000   0.0000000   0.0000000   0.0000000   0.0000000   0.0000000   0.0000000   0.0000000   0.0000000   0.0000000
 NMagM=    2.7928460   2.7928460   2.7928460   2.7928460   2.7928460   2.7928460   2.7928460   2.7928460   2.7928460   2.7928460
 AtZNuc=   1.0000000   1.0000000   1.0000000   1.0000000   1.0000000   1.0000000   1.0000000   1.0000000   1.0000000   1.0000000

  Atom       101         102         103         104         105         106         107         108         109         110
 IAtWgt=           1           1           1           1           1           1           1           1           1           1
 AtmWgt=   1.0078250   1.0078250   1.0078250   1.0078250   1.0078250   1.0078250   1.0078250   1.0078250   1.0078250   1.0078250
 NucSpn=           1           1           1           1           1           1           1           1           1           1
 AtZEff=  -0.0000000  -0.0000000  -0.0000000  -0.0000000  -0.0000000  -0.0000000  -0.0000000  -0.0000000  -0.0000000  -0.0000000
 NQMom=    0.0000000   0.0000000   0.0000000   0.0000000   0.0000000   0.0000000   0.0000000   0.0000000   0.0000000   0.0000000
 NMagM=    2.7928460   2.7928460   2.7928460   2.7928460   2.7928460   2.7928460   2.7928460   2.7928460   2.7928460   2.7928460
 AtZNuc=   1.0000000   1.0000000   1.0000000   1.0000000   1.0000000   1.0000000   1.0000000   1.0000000   1.0000000   1.0000000

  Atom       111         112         113         114         115         116         117         118         119         120
 IAtWgt=           1           1           1           1           1           1           1           1           1           1
 AtmWgt=   1.0078250   1.0078250   1.0078250   1.0078250   1.0078250   1.0078250   1.0078250   1.0078250   1.0078250   1.0078250
 NucSpn=           1           1           1           1           1           1           1           1           1           1
 AtZEff=  -0.0000000  -0.0000000  -0.0000000  -0.0000000  -0.0000000  -0.0000000  -0.0000000  -0.0000000  -0.0000000  -0.0000000
 NQMom=    0.0000000   0.0000000   0.0000000   0.0000000   0.0000000   0.0000000   0.0000000   0.0000000   0.0000000   0.0000000
 NMagM=    2.7928460   2.7928460   2.7928460   2.7928460   2.7928460   2.7928460   2.7928460   2.7928460   2.7928460   2.7928460
 AtZNuc=   1.0000000   1.0000000   1.0000000   1.0000000   1.0000000   1.0000000   1.0000000   1.0000000   1.0000000   1.0000000

  Atom       121         122         123
 IAtWgt=          16          79          79
 AtmWgt=  15.9949146  78.9183361  78.9183361
 NucSpn=           0           3           3
 AtZEff=  -0.0000000  -0.0000000  -0.0000000
 NQMom=    0.0000000  31.3000000  31.3000000
 NMagM=    0.0000000   2.1063990   2.1063990
 AtZNuc=   8.0000000  35.0000000  35.0000000
 Leave Link  101 at Thu Nov 13 23:20:36 2025, MaxMem= 30870077440 cpu:               4.7 elap:               0.1
 (Enter /public/software/gauss/g16/l202.exe)
 Stoichiometry    C49H54BBr2F2N3O12(1-,2)
 Framework group  C1[X(C49H54BBr2F2N3O12)]
 Deg. of freedom   363
 Full point group                 C1      NOp   1
 Largest Abelian subgroup         C1      NOp   1
 Largest concise Abelian subgroup C1      NOp   1
                         Standard orientation:                         
 ---------------------------------------------------------------------
 Center     Atomic      Atomic             Coordinates (Angstroms)
 Number     Number       Type             X           Y           Z
 ---------------------------------------------------------------------
      1          5           0        2.649553   -0.476388   -0.862094
      2          7           0        3.558255   -1.734856   -0.822771
      3          6           0        3.144065   -3.021657   -0.507026
      4          6           0        4.308102   -3.819025   -0.520507
      5          6           0        5.432904   -3.039467   -0.818372
      6          6           0        4.937044   -1.712918   -0.960478
      7          6           0        5.592839   -0.468406   -1.246780
      8          6           0        6.923137   -0.222962   -0.708687
      9          8           0        7.648319   -1.040613   -0.138690
     10          6           0        8.589944    1.416995   -0.250627
     11          6           0        8.584465    1.588416    1.252000
     12          6           0        7.397493    1.807030    1.964161
     13          6           0        7.423696    2.004883    3.340553
     14          6           0        8.655305    1.989575    3.996668
     15          6           0        9.854943    1.778809    3.312455
     16          6           0        9.808404    1.576398    1.939124
     17          7           0        8.691164    2.197178    5.437101
     18          8           0        7.623966    2.376404    6.035296
     19          8           0        9.787971    2.187138    6.008115
     20          6           0        4.803258    0.598893   -1.813937
     21          7           0        3.437402    0.658834   -1.565811
     22          6           0        2.905176    1.750362   -2.236874
     23          6           0        3.968119    2.321318   -2.961138
     24          6           0        5.161694    1.629164   -2.716998
     25          6           0        6.475069    1.875015   -3.393997
     26          6           0        1.569263    2.283871   -2.160773
     27          6           0        0.614062    2.050514   -1.224415
     28          6           0       -0.719262    2.645661   -1.189500
     29          6           0       -1.236499    3.494540   -2.196017
     30          6           0       -2.506646    4.039605   -2.096460
     31          6           0       -3.320184    3.754689   -0.985487
     32          8           0       -4.556073    4.344326   -0.985397
     33          6           0       -5.427428    4.104068    0.128373
     34          6           0       -6.708062    4.885797   -0.107032
     35          8           0       -6.525943    6.294951   -0.187342
     36          6           0       -6.232489    6.923164    1.061989
     37          6           0       -6.380628    8.424065    0.886623
     38          8           0       -7.729154    8.805767    0.599514
     39          6           0       -8.411995    9.486697    1.651256
     40          6           0       -8.737727    8.615458    2.862655
     41          8           0       -9.423378    7.405443    2.552021
     42          6           0      -10.757905    7.594731    2.094098
     43          6           0       -2.839402    2.908824    0.020969
     44          6           0       -1.557176    2.370481   -0.092309
     45          6           0        6.803031   -3.575713   -1.102895
     46          6           0        1.760086   -3.324498   -0.242655
     47          6           0        1.270728   -4.407040    0.417469
     48          6           0       -0.138520   -4.696046    0.667043
     49          6           0       -0.474183   -5.810462    1.458732
     50          6           0       -1.796401   -6.144821    1.751860
     51          6           0       -2.832996   -5.352884    1.243941
     52          8           0       -4.165095   -5.578338    1.464561
     53          6           0       -4.540517   -6.707499    2.266616
     54          6           0       -6.048728   -6.743983    2.347959
     55          8           0       -6.570669   -7.053288    1.057053
     56          6           0       -7.986556   -7.224656    1.028432
     57          6           0       -8.732090   -5.889245    0.945499
     58          8           0      -10.142344   -6.114233    0.857087
     59          6           0      -10.637233   -6.258589   -0.475022
     60          6           0      -11.041705   -4.903515   -1.047050
     61          8           0      -11.533160   -5.118426   -2.363403
     62          6           0      -11.943070   -3.910216   -2.988438
     63          6           0       -2.525187   -4.237702    0.444446
     64          6           0       -1.206895   -3.918391    0.161910
     65          9           0        1.493585   -0.759846   -1.610946
     66          9           0        2.270847   -0.111026    0.446448
     67          1           0        9.326997    0.665556   -0.543110
     68          1           0        8.857297    2.365940   -0.726006
     69          1           0        6.448071    1.818649    1.440959
     70          1           0        6.510754    2.171299    3.898148
     71          1           0       10.794771    1.767946    3.849577
     72          1           0       10.731077    1.403114    1.393289
     73          1           0        7.098970    0.979209   -3.390369
     74          1           0        6.311076    2.169525   -4.435684
     75          1           0        7.048263    2.677742   -2.916120
     76          1           0        1.361905    3.010852   -2.942218
     77          1           0        0.838175    1.386685   -0.396224
     78          1           0       -0.639552    3.728611   -3.072135
     79          1           0       -2.895162    4.690986   -2.873419
     80          1           0       -5.670064    3.036204    0.200779
     81          1           0       -4.936314    4.408294    1.059840
     82          1           0       -7.146287    4.584169   -1.063614
     83          1           0       -7.417572    4.629052    0.693156
     84          1           0       -6.917241    6.553209    1.836520
     85          1           0       -5.202952    6.706871    1.382598
     86          1           0       -6.008515    8.930307    1.785496
     87          1           0       -5.761377    8.746183    0.040030
     88          1           0       -7.827859   10.350607    2.002810
     89          1           0       -9.329684    9.872331    1.197042
     90          1           0       -7.816942    8.307817    3.367725
     91          1           0       -9.323313    9.222676    3.571147
     92          1           0      -11.220269    6.605536    2.042608
     93          1           0      -11.334068    8.221423    2.789673
     94          1           0      -10.797526    8.049924    1.096221
     95          1           0       -3.445654    2.664170    0.884825
     96          1           0       -1.193290    1.716761    0.696264
     97          1           0        7.361324   -2.909426   -1.760569
     98          1           0        7.397702   -3.711199   -0.192969
     99          1           0        6.725298   -4.553554   -1.589054
    100          1           0        1.064336   -2.575745   -0.602408
    101          1           0        1.959195   -5.137739    0.829864
    102          1           0        0.323492   -6.431020    1.859018
    103          1           0       -2.003303   -7.011442    2.368049
    104          1           0       -4.162635   -7.632238    1.814506
    105          1           0       -4.124426   -6.611321    3.276651
    106          1           0       -6.338991   -7.517323    3.074013
    107          1           0       -6.424036   -5.778451    2.712284
    108          1           0       -8.204929   -7.822084    0.137232
    109          1           0       -8.328356   -7.788696    1.907583
    110          1           0       -8.566208   -5.295837    1.849907
    111          1           0       -8.364321   -5.310099    0.089386
    112          1           0       -9.896274   -6.735061   -1.128864
    113          1           0      -11.512486   -6.914621   -0.424543
    114          1           0      -11.815307   -4.446143   -0.411108
    115          1           0      -10.177419   -4.221414   -1.064330
    116          1           0      -12.301462   -4.164817   -3.989151
    117          1           0      -12.756074   -3.423417   -2.430547
    118          1           0      -11.108701   -3.199515   -3.077392
    119          1           0       -3.339915   -3.636615    0.052430
    120          1           0       -1.004260   -3.055222   -0.464394
    121          8           0        7.303751    1.092216   -0.792919
    122         35           0        3.820345    3.844675   -4.086695
    123         35           0        4.380027   -5.706780   -0.322145
 ---------------------------------------------------------------------
 Rotational constants (GHZ):           0.0178679           0.0105516           0.0077267
 Leave Link  202 at Thu Nov 13 23:20:36 2025, MaxMem= 30870077440 cpu:               0.2 elap:               0.0
 (Enter /public/software/gauss/g16/l301.exe)
 Standard basis: def2TZVPP (5D, 7F)
 Ernie: Thresh=  0.10000D-02 Tol=  0.10000D-05 Strict=F.
 There are  3332 symmetry adapted cartesian basis functions of A   symmetry.
 There are  2929 symmetry adapted basis functions of A   symmetry.
  2929 basis functions,  4563 primitive gaussians,  3332 cartesian basis functions
   280 alpha electrons      279 beta electrons
       nuclear repulsion energy     11319.3414701985 Hartrees.
 IExCor= 4336 DFT=T Ex+Corr=M062X ExCW=0 ScaHFX=  0.540000
 ScaDFX=  1.000000  1.000000  1.000000  1.000000 ScalE2=  1.000000  1.000000
 IRadAn=      5 IRanWt=     -1 IRanGd=            0 ICorTp=0 IEmpDi=131
 NAtoms=  123 NActive=  123 NUniq=  123 SFac= 1.00D+00 NAtFMM=   60 NAOKFM=T Big=T
 Integral buffers will be    131072 words long.
 Raffenetti 2 integral format.
 Two-electron integral symmetry is turned on.
 R6Disp:  Grimme-D3 Dispersion energy=       -0.0101075196 Hartrees.
 Nuclear repulsion after empirical dispersion term =    11319.3313626789 Hartrees.
 ------------------------------------------------------------------------------
 Polarizable Continuum Model (PCM)
 =================================
 Model                : PCM.
 Atomic radii         : UFF (Universal Force Field).
 Polarization charges : Total charges.
 Charge compensation  : None.
 Solution method      : On-the-fly selection.
 Cavity type          : Scaled VdW (van der Waals Surface) (Alpha=1.100).
 Cavity algorithm     : GePol (No added spheres)
                        Default sphere list used, NSphG=  123.
                        Lebedev-Laikov grids with approx.  5.0 points / Ang**2.
                        Smoothing algorithm: York/Karplus (Gamma=1.0000).
                        Polarization charges: spherical gaussians, with
                                              point-specific exponents (IZeta= 3).
                        Self-potential: point-specific (ISelfS= 7).
                        Self-field    : sphere-specific E.n sum rule (ISelfD= 2).
 Solvent              : Water, Eps=  78.355300 Eps(inf)=   1.777849
 ------------------------------------------------------------------------------
 GePol: Number of generator spheres                  =     123
 GePol: Total number of spheres                      =     123
 GePol: Number of exposed spheres                    =     123 (100.00%)
 GePol: Number of points                             =    9032
 GePol: Average weight of points                     =       0.13
 GePol: Minimum weight of points                     =   0.16D-11
 GePol: Maximum weight of points                     =    0.20577
 GePol: Number of points with low weight             =     575
 GePol: Fraction of low-weight points (<1% of avg)   =       6.37%
 GePol: Cavity surface area                          =   1157.234 Ang**2
 GePol: Cavity volume                                =   1308.796 Ang**3
 Leave Link  301 at Thu Nov 13 23:20:36 2025, MaxMem= 30870077440 cpu:               5.2 elap:               0.1
 (Enter /public/software/gauss/g16/l302.exe)
 NPDir=0 NMtPBC=     1 NCelOv=     1 NCel=       1 NClECP=     1 NCelD=      1
         NCelK=      1 NCelE2=     1 NClLst=     1 CellRange=     0.0.
 One-electron integrals computed using PRISM.
 One-electron integral symmetry used in STVInt
   1 Symmetry operations used in ECPInt.
 ECPInt:  NShTT=  597871 NPrTT= 1713943 LenC2=  249835 LenP2D=  467937.
 LDataN:  DoStor=T MaxTD1= 6 Len=  172
 Number of processors reduced to  57 by ecpmxn.
 NBasis=  2929 RedAO= T EigKep=  6.17D-06  NBF=  2929
 NBsUse=  2929 1.00D-06 EigRej= -1.00D+00 NBFU=  2929
 Precomputing XC quadrature grid using
 IXCGrd= 4 IRadAn=           5 IRanWt=          -1 IRanGd=           0 AccXCQ= 0.00D+00.
 Generated NRdTot=       0 NPtTot=           0 NUsed=           0 NTot=          32
 NSgBfM=  2455  2449  2450  2451  2455 MxSgAt=   123 MxSgA2=   123.
 Leave Link  302 at Thu Nov 13 23:21:08 2025, MaxMem= 30870077440 cpu:            2030.8 elap:              31.8
 (Enter /public/software/gauss/g16/l303.exe)
 DipDrv:  MaxL=1.
 Leave Link  303 at Thu Nov 13 23:21:09 2025, MaxMem= 30870077440 cpu:              59.0 elap:               1.0
 (Enter /public/software/gauss/g16/l401.exe)
 ExpMin= 6.06D-02 ExpMax= 5.65D+05 ExpMxC= 5.46D+03 IAcc=3 IRadAn=         5 AccDes= 0.00D+00
 Harris functional with IExCor= 1009 and IRadAn=       5 diagonalized for initial guess.
 HarFok:  IExCor= 1009 AccDes= 0.00D+00 IRadAn=         5 IDoV= 1 UseB2=F ITyADJ=14
 ICtDFT=  3500011 ScaDFX=  1.000000  1.000000  1.000000  1.000000
 FoFCou: FMM=F IPFlag=           0 FMFlag=      100000 FMFlg1=        2001
         NFxFlg=           0 DoJE=T BraDBF=F KetDBF=T FulRan=T
         wScrn=  0.000000 ICntrl=       500 IOpCl=  0 I1Cent=   200000004 NGrid=           0
         NMat0=    1 NMatS0=      1 NMatT0=    0 NMatD0=    1 NMtDS0=    0 NMtDT0=    0
 Petite list used in FoFCou.
 Harris En= -8337.28047559838    
 JPrj=0 DoOrth=F DoCkMO=F.
 Initial guess <Sx>= 0.0000 <Sy>= 0.0000 <Sz>= 0.5000 <S**2>= 0.7500 S= 0.5000
 Leave Link  401 at Thu Nov 13 23:21:34 2025, MaxMem= 30870077440 cpu:            1608.3 elap:              25.2
 (Enter /public/software/gauss/g16/l502.exe)
 Integral symmetry usage will be decided dynamically.
 UHF open shell SCF:
 Using DIIS extrapolation, IDIIS=  1040.
 NGot= 30870077440 LenX= 30847631745 LenY= 30836526189
 Requested convergence on RMS density matrix=1.00D-08 within 128 cycles.
 Requested convergence on MAX density matrix=1.00D-06.
 Requested convergence on             energy=1.00D-06.
 No special actions if energy rises.
 Fock matrices will be formed incrementally for  20 cycles.

 Cycle   1  Pass 1  IDiag  1:
 FoFJK:  IHMeth= 1 ICntrl=       0 DoSepK=F KAlg= 0 I1Cent=           0 FoldK=F
 IRaf= 370000000 NMat=       1 IRICut=       1 DoRegI=T DoRafI=F ISym2E= 0 IDoP0=0 IntGTp=1.
 FoFCou: FMM=T IPFlag=           0 FMFlag=      100000 FMFlg1=        2001
         NFxFlg=           0 DoJE=F BraDBF=F KetDBF=F FulRan=T
         wScrn=  0.000000 ICntrl=         0 IOpCl=  1 I1Cent=           0 NGrid=           0
         NMat0=    1 NMatS0=      1 NMatT0=    0 NMatD0=    1 NMtDS0=    0 NMtDT0=    0
 Symmetry not used in FoFCou.
 FMM levels:  10  Number of levels for PrismC:   9
 Inv3:  Mode=1 IEnd=   244731072.
 Iteration    1 A*A^-1 deviation from unit magnitude is 1.27D-14 for   2234.
 Iteration    1 A*A^-1 deviation from orthogonality  is 5.49D-15 for   7638   3365.
 Iteration    1 A^-1*A deviation from unit magnitude is 1.18D-14 for   9032.
 Iteration    1 A^-1*A deviation from orthogonality  is 1.71D-14 for   6187   6167.
 E= -8338.13739314540    
 DIIS: error= 2.46D-02 at cycle   1 NSaved=   1.
 NSaved= 1 IEnMin= 1 EnMin= -8338.13739314540     IErMin= 1 ErrMin= 2.46D-02
 ErrMax= 2.46D-02  0.00D+00 EMaxC= 1.00D-01 BMatC= 1.00D+01 BMatP= 1.00D+01
 IDIUse=3 WtCom= 7.54D-01 WtEn= 2.46D-01
 Coeff-Com:  0.100D+01
 Coeff-En:   0.100D+01
 Coeff:      0.100D+01
 Gap=     0.188 Goal=   None    Shift=    0.000
 Gap=     0.109 Goal=   None    Shift=    0.000
 GapD=    0.109 DampG=1.000 DampE=0.500 DampFc=0.5000 IDamp=-1.
 Damping current iteration by 5.00D-01
 RMSDP=1.21D-03 MaxDP=3.06D-01              OVMax= 2.60D-01

 Cycle   2  Pass 1  IDiag  1:
 RMSU=  6.06D-04    CP:  9.93D-01
 E= -8338.93176189090     Delta-E=       -0.794368745501 Rises=F Damp=T
 DIIS: error= 5.53D-03 at cycle   2 NSaved=   2.
 NSaved= 2 IEnMin= 2 EnMin= -8338.93176189090     IErMin= 2 ErrMin= 5.53D-03
 ErrMax= 5.53D-03  0.00D+00 EMaxC= 1.00D-01 BMatC= 9.60D-01 BMatP= 1.00D+01
 IDIUse=3 WtCom= 9.45D-01 WtEn= 5.53D-02
 Coeff-Com: -0.125D+00 0.113D+01
 Coeff-En:   0.000D+00 0.100D+01
 Coeff:     -0.118D+00 0.112D+01
 Gap=     0.152 Goal=   None    Shift=    0.000
 Gap=     0.169 Goal=   None    Shift=    0.000
 RMSDP=4.33D-04 MaxDP=6.21D-02 DE=-7.94D-01 OVMax= 2.25D-01

 Cycle   3  Pass 1  IDiag  1:
 RMSU=  4.17D-04    CP:  9.81D-01  1.18D+00
 E= -8339.63952980378     Delta-E=       -0.707767912882 Rises=F Damp=F
 DIIS: error= 1.21D-02 at cycle   3 NSaved=   3.
 NSaved= 3 IEnMin= 3 EnMin= -8339.63952980378     IErMin= 2 ErrMin= 5.53D-03
 ErrMax= 1.21D-02  0.00D+00 EMaxC= 1.00D-01 BMatC= 5.18D-01 BMatP= 9.60D-01
 IDIUse=3 WtCom= 8.79D-01 WtEn= 1.21D-01
 Coeff-Com: -0.133D+00 0.515D+00 0.618D+00
 Coeff-En:   0.000D+00 0.000D+00 0.100D+01
 Coeff:     -0.117D+00 0.452D+00 0.665D+00
 Gap=     0.128 Goal=   None    Shift=    0.000
 Gap=     0.113 Goal=   None    Shift=    0.000
 RMSDP=1.62D-04 MaxDP=6.69D-02 DE=-7.08D-01 OVMax= 1.01D-01

 Cycle   4  Pass 1  IDiag  1:
 RMSU=  1.54D-04    CP:  9.82D-01  1.24D+00  9.10D-01
 E= -8339.71409134505     Delta-E=       -0.074561541263 Rises=F Damp=F
 DIIS: error= 5.24D-03 at cycle   4 NSaved=   4.
 NSaved= 4 IEnMin= 4 EnMin= -8339.71409134505     IErMin= 4 ErrMin= 5.24D-03
 ErrMax= 5.24D-03  0.00D+00 EMaxC= 1.00D-01 BMatC= 1.18D-01 BMatP= 5.18D-01
 IDIUse=3 WtCom= 9.48D-01 WtEn= 5.24D-02
 Coeff-Com: -0.393D-01 0.979D-01 0.361D+00 0.580D+00
 Coeff-En:   0.000D+00 0.000D+00 0.187D+00 0.813D+00
 Coeff:     -0.372D-01 0.928D-01 0.352D+00 0.593D+00
 Gap=     0.129 Goal=   None    Shift=    0.000
 Gap=     0.117 Goal=   None    Shift=    0.000
 RMSDP=6.82D-05 MaxDP=2.53D-02 DE=-7.46D-02 OVMax= 2.97D-02

 Cycle   5  Pass 1  IDiag  1:
 RMSU=  3.79D-05    CP:  9.82D-01  1.24D+00  9.44D-01  6.43D-01
 E= -8339.73587080110     Delta-E=       -0.021779456056 Rises=F Damp=F
 DIIS: error= 3.57D-04 at cycle   5 NSaved=   5.
 NSaved= 5 IEnMin= 5 EnMin= -8339.73587080110     IErMin= 5 ErrMin= 3.57D-04
 ErrMax= 3.57D-04  0.00D+00 EMaxC= 1.00D-01 BMatC= 2.93D-03 BMatP= 1.18D-01
 IDIUse=3 WtCom= 9.96D-01 WtEn= 3.57D-03
 Coeff-Com: -0.837D-02 0.154D-01 0.117D+00 0.253D+00 0.622D+00
 Coeff-En:   0.000D+00 0.000D+00 0.000D+00 0.000D+00 0.100D+01
 Coeff:     -0.834D-02 0.153D-01 0.117D+00 0.253D+00 0.623D+00
 Gap=     0.132 Goal=   None    Shift=    0.000
 Gap=     0.119 Goal=   None    Shift=    0.000
 RMSDP=1.71D-05 MaxDP=7.46D-03 DE=-2.18D-02 OVMax= 7.78D-03

 Cycle   6  Pass 1  IDiag  1:
 RMSU=  1.45D-05    CP:  9.82D-01  1.25D+00  9.43D-01  6.97D-01  9.67D-01
 E= -8339.73650457591     Delta-E=       -0.000633774809 Rises=F Damp=F
 DIIS: error= 1.58D-04 at cycle   6 NSaved=   6.
 NSaved= 6 IEnMin= 6 EnMin= -8339.73650457591     IErMin= 6 ErrMin= 1.58D-04
 ErrMax= 1.58D-04  0.00D+00 EMaxC= 1.00D-01 BMatC= 3.99D-04 BMatP= 2.93D-03
 IDIUse=3 WtCom= 9.98D-01 WtEn= 1.58D-03
 Coeff-Com:  0.709D-03-0.391D-02 0.161D-01 0.562D-01 0.299D+00 0.632D+00
 Coeff-En:   0.000D+00 0.000D+00 0.000D+00 0.000D+00 0.000D+00 0.100D+01
 Coeff:      0.708D-03-0.391D-02 0.160D-01 0.562D-01 0.298D+00 0.633D+00
 Gap=     0.132 Goal=   None    Shift=    0.000
 Gap=     0.120 Goal=   None    Shift=    0.000
 RMSDP=6.96D-06 MaxDP=1.73D-03 DE=-6.34D-04 OVMax= 7.68D-03

 Cycle   7  Pass 1  IDiag  1:
 RMSU=  5.38D-06    CP:  9.82D-01  1.25D+00  9.48D-01  6.99D-01  1.07D+00
                    CP:  1.10D+00
 E= -8339.73663860292     Delta-E=       -0.000134027014 Rises=F Damp=F
 DIIS: error= 5.42D-05 at cycle   7 NSaved=   7.
 NSaved= 7 IEnMin= 7 EnMin= -8339.73663860292     IErMin= 7 ErrMin= 5.42D-05
 ErrMax= 5.42D-05  0.00D+00 EMaxC= 1.00D-01 BMatC= 5.68D-05 BMatP= 3.99D-04
 IDIUse=1 WtCom= 1.00D+00 WtEn= 0.00D+00
 Coeff-Com:  0.169D-02-0.404D-02-0.150D-01-0.257D-01-0.708D-02 0.213D+00
 Coeff-Com:  0.837D+00
 Coeff:      0.169D-02-0.404D-02-0.150D-01-0.257D-01-0.708D-02 0.213D+00
 Coeff:      0.837D+00
 Gap=     0.133 Goal=   None    Shift=    0.000
 Gap=     0.121 Goal=   None    Shift=    0.000
 RMSDP=6.17D-06 MaxDP=3.09D-03 DE=-1.34D-04 OVMax= 5.59D-03

 Cycle   8  Pass 1  IDiag  1:
 RMSU=  2.77D-06    CP:  9.82D-01  1.25D+00  9.49D-01  7.12D-01  1.13D+00
                    CP:  1.36D+00  1.37D+00
 E= -8339.73668449095     Delta-E=       -0.000045888024 Rises=F Damp=F
 DIIS: error= 3.38D-05 at cycle   8 NSaved=   8.
 NSaved= 8 IEnMin= 8 EnMin= -8339.73668449095     IErMin= 8 ErrMin= 3.38D-05
 ErrMax= 3.38D-05  0.00D+00 EMaxC= 1.00D-01 BMatC= 2.03D-05 BMatP= 5.68D-05
 IDIUse=1 WtCom= 1.00D+00 WtEn= 0.00D+00
 Coeff-Com:  0.470D-03-0.530D-03-0.108D-01-0.273D-01-0.887D-01-0.857D-01
 Coeff-Com:  0.380D+00 0.833D+00
 Coeff:      0.470D-03-0.530D-03-0.108D-01-0.273D-01-0.887D-01-0.857D-01
 Coeff:      0.380D+00 0.833D+00
 Gap=     0.133 Goal=   None    Shift=    0.000
 Gap=     0.122 Goal=   None    Shift=    0.000
 RMSDP=3.78D-06 MaxDP=1.30D-03 DE=-4.59D-05 OVMax= 4.46D-03

 Cycle   9  Pass 1  IDiag  1:
 RMSU=  1.39D-06    CP:  9.82D-01  1.25D+00  9.50D-01  7.15D-01  1.18D+00
                    CP:  1.50D+00  1.73D+00  1.38D+00
 E= -8339.73670396914     Delta-E=       -0.000019478193 Rises=F Damp=F
 DIIS: error= 1.66D-05 at cycle   9 NSaved=   9.
 NSaved= 9 IEnMin= 9 EnMin= -8339.73670396914     IErMin= 9 ErrMin= 1.66D-05
 ErrMax= 1.66D-05  0.00D+00 EMaxC= 1.00D-01 BMatC= 4.46D-06 BMatP= 2.03D-05
 IDIUse=1 WtCom= 1.00D+00 WtEn= 0.00D+00
 Coeff-Com: -0.328D-03 0.965D-03 0.101D-02-0.910D-03-0.267D-01-0.858D-01
 Coeff-Com: -0.138D+00 0.248D+00 0.100D+01
 Coeff:     -0.328D-03 0.965D-03 0.101D-02-0.910D-03-0.267D-01-0.858D-01
 Coeff:     -0.138D+00 0.248D+00 0.100D+01
 Gap=     0.133 Goal=   None    Shift=    0.000
 Gap=     0.123 Goal=   None    Shift=    0.000
 RMSDP=2.47D-06 MaxDP=1.15D-03 DE=-1.95D-05 OVMax= 2.67D-03

 Cycle  10  Pass 1  IDiag  1:
 RMSU=  6.85D-07    CP:  9.82D-01  1.25D+00  9.50D-01  7.18D-01  1.20D+00
                    CP:  1.59D+00  1.96D+00  1.79D+00  1.56D+00
 E= -8339.73670957797     Delta-E=       -0.000005608828 Rises=F Damp=F
 DIIS: error= 9.94D-06 at cycle  10 NSaved=  10.
 NSaved=10 IEnMin=10 EnMin= -8339.73670957797     IErMin=10 ErrMin= 9.94D-06
 ErrMax= 9.94D-06  0.00D+00 EMaxC= 1.00D-01 BMatC= 1.25D-06 BMatP= 4.46D-06
 IDIUse=1 WtCom= 1.00D+00 WtEn= 0.00D+00
 Coeff-Com: -0.257D-03 0.560D-03 0.328D-02 0.681D-02 0.916D-02-0.159D-01
 Coeff-Com: -0.152D+00-0.924D-01 0.445D+00 0.795D+00
 Coeff:     -0.257D-03 0.560D-03 0.328D-02 0.681D-02 0.916D-02-0.159D-01
 Coeff:     -0.152D+00-0.924D-01 0.445D+00 0.795D+00
 Gap=     0.133 Goal=   None    Shift=    0.000
 Gap=     0.123 Goal=   None    Shift=    0.000
 RMSDP=9.11D-07 MaxDP=2.76D-04 DE=-5.61D-06 OVMax= 8.61D-04

 Cycle  11  Pass 1  IDiag  1:
 RMSU=  3.63D-07    CP:  9.82D-01  1.25D+00  9.50D-01  7.19D-01  1.20D+00
                    CP:  1.60D+00  2.02D+00  1.96D+00  1.88D+00  1.36D+00
 E= -8339.73671051144     Delta-E=       -0.000000933465 Rises=F Damp=F
 DIIS: error= 2.99D-06 at cycle  11 NSaved=  11.
 NSaved=11 IEnMin=11 EnMin= -8339.73671051144     IErMin=11 ErrMin= 2.99D-06
 ErrMax= 2.99D-06  0.00D+00 EMaxC= 1.00D-01 BMatC= 1.64D-07 BMatP= 1.25D-06
 IDIUse=1 WtCom= 1.00D+00 WtEn= 0.00D+00
 Coeff-Com: -0.268D-04 0.174D-04 0.876D-03 0.229D-02 0.659D-02 0.864D-02
 Coeff-Com: -0.245D-01-0.677D-01-0.306D-01 0.236D+00 0.868D+00
 Coeff:     -0.268D-04 0.174D-04 0.876D-03 0.229D-02 0.659D-02 0.864D-02
 Coeff:     -0.245D-01-0.677D-01-0.306D-01 0.236D+00 0.868D+00
 Gap=     0.133 Goal=   None    Shift=    0.000
 Gap=     0.123 Goal=   None    Shift=    0.000
 RMSDP=3.68D-07 MaxDP=9.53D-05 DE=-9.33D-07 OVMax= 2.64D-04

 Cycle  12  Pass 1  IDiag  1:
 RMSU=  1.60D-07    CP:  9.82D-01  1.25D+00  9.50D-01  7.19D-01  1.20D+00
                    CP:  1.60D+00  2.03D+00  2.00D+00  2.01D+00  1.61D+00
                    CP:  1.39D+00
 E= -8339.73671066487     Delta-E=       -0.000000153439 Rises=F Damp=F
 DIIS: error= 1.28D-06 at cycle  12 NSaved=  12.
 NSaved=12 IEnMin=12 EnMin= -8339.73671066487     IErMin=12 ErrMin= 1.28D-06
 ErrMax= 1.28D-06  0.00D+00 EMaxC= 1.00D-01 BMatC= 3.85D-08 BMatP= 1.64D-07
 IDIUse=1 WtCom= 1.00D+00 WtEn= 0.00D+00
 Coeff-Com:  0.460D-04-0.109D-03-0.436D-03-0.779D-03 0.207D-03 0.612D-02
 Coeff-Com:  0.225D-01-0.239D-02-0.958D-01-0.958D-01 0.275D+00 0.892D+00
 Coeff:      0.460D-04-0.109D-03-0.436D-03-0.779D-03 0.207D-03 0.612D-02
 Coeff:      0.225D-01-0.239D-02-0.958D-01-0.958D-01 0.275D+00 0.892D+00
 Gap=     0.133 Goal=   None    Shift=    0.000
 Gap=     0.123 Goal=   None    Shift=    0.000
 RMSDP=2.15D-07 MaxDP=9.39D-05 DE=-1.53D-07 OVMax= 2.10D-04

 Cycle  13  Pass 1  IDiag  1:
 RMSU=  8.54D-08    CP:  9.82D-01  1.25D+00  9.50D-01  7.18D-01  1.20D+00
                    CP:  1.60D+00  2.03D+00  2.01D+00  2.07D+00  1.75D+00
                    CP:  1.68D+00  1.45D+00
 E= -8339.73671070827     Delta-E=       -0.000000043390 Rises=F Damp=F
 DIIS: error= 8.54D-07 at cycle  13 NSaved=  13.
 NSaved=13 IEnMin=13 EnMin= -8339.73671070827     IErMin=13 ErrMin= 8.54D-07
 ErrMax= 8.54D-07  0.00D+00 EMaxC= 1.00D-01 BMatC= 1.07D-08 BMatP= 3.85D-08
 IDIUse=1 WtCom= 1.00D+00 WtEn= 0.00D+00
 Coeff-Com:  0.230D-04-0.462D-04-0.334D-03-0.737D-03-0.103D-02 0.774D-03
 Coeff-Com:  0.134D-01 0.117D-01-0.296D-01-0.853D-01-0.514D-01 0.332D+00
 Coeff-Com:  0.811D+00
 Coeff:      0.230D-04-0.462D-04-0.334D-03-0.737D-03-0.103D-02 0.774D-03
 Coeff:      0.134D-01 0.117D-01-0.296D-01-0.853D-01-0.514D-01 0.332D+00
 Coeff:      0.811D+00
 Gap=     0.133 Goal=   None    Shift=    0.000
 Gap=     0.123 Goal=   None    Shift=    0.000
 RMSDP=1.10D-07 MaxDP=5.01D-05 DE=-4.34D-08 OVMax= 1.05D-04

 Cycle  14  Pass 1  IDiag  1:
 RMSU=  3.33D-08    CP:  9.82D-01  1.25D+00  9.50D-01  7.18D-01  1.20D+00
                    CP:  1.60D+00  2.03D+00  2.01D+00  2.09D+00  1.79D+00
                    CP:  1.82D+00  1.78D+00  1.43D+00
 E= -8339.73671072240     Delta-E=       -0.000000014134 Rises=F Damp=F
 DIIS: error= 5.60D-07 at cycle  14 NSaved=  14.
 NSaved=14 IEnMin=14 EnMin= -8339.73671072240     IErMin=14 ErrMin= 5.60D-07
 ErrMax= 5.60D-07  0.00D+00 EMaxC= 1.00D-01 BMatC= 3.68D-09 BMatP= 1.07D-08
 IDIUse=1 WtCom= 1.00D+00 WtEn= 0.00D+00
 Coeff-Com: -0.730D-05 0.194D-04 0.157D-04-0.437D-04-0.502D-03-0.194D-02
 Coeff-Com: -0.214D-02 0.494D-02 0.197D-01-0.460D-02-0.101D+00-0.149D+00
 Coeff-Com:  0.315D+00 0.919D+00
 Coeff:     -0.730D-05 0.194D-04 0.157D-04-0.437D-04-0.502D-03-0.194D-02
 Coeff:     -0.214D-02 0.494D-02 0.197D-01-0.460D-02-0.101D+00-0.149D+00
 Coeff:      0.315D+00 0.919D+00
 Gap=     0.133 Goal=   None    Shift=    0.000
 Gap=     0.123 Goal=   None    Shift=    0.000
 RMSDP=7.47D-08 MaxDP=3.01D-05 DE=-1.41D-08 OVMax= 7.26D-05

 Cycle  15  Pass 1  IDiag  1:
 RMSU=  2.03D-08    CP:  9.82D-01  1.25D+00  9.50D-01  7.18D-01  1.20D+00
                    CP:  1.60D+00  2.03D+00  2.00D+00  2.10D+00  1.81D+00
                    CP:  1.89D+00  2.02D+00  1.90D+00  1.59D+00
 E= -8339.73671072892     Delta-E=       -0.000000006523 Rises=F Damp=F
 DIIS: error= 3.74D-07 at cycle  15 NSaved=  15.
 NSaved=15 IEnMin=15 EnMin= -8339.73671072892     IErMin=15 ErrMin= 3.74D-07
 ErrMax= 3.74D-07  0.00D+00 EMaxC= 1.00D-01 BMatC= 1.26D-09 BMatP= 3.68D-09
 IDIUse=1 WtCom= 1.00D+00 WtEn= 0.00D+00
 Coeff-Com: -0.814D-05 0.179D-04 0.101D-03 0.196D-03 0.169D-03-0.809D-03
 Coeff-Com: -0.469D-02-0.260D-02 0.155D-01 0.252D-01-0.121D-01-0.152D+00
 Coeff-Com: -0.156D+00 0.333D+00 0.955D+00
 Coeff:     -0.814D-05 0.179D-04 0.101D-03 0.196D-03 0.169D-03-0.809D-03
 Coeff:     -0.469D-02-0.260D-02 0.155D-01 0.252D-01-0.121D-01-0.152D+00
 Coeff:     -0.156D+00 0.333D+00 0.955D+00
 Gap=     0.133 Goal=   None    Shift=    0.000
 Gap=     0.123 Goal=   None    Shift=    0.000
 RMSDP=4.47D-08 MaxDP=1.69D-05 DE=-6.52D-09 OVMax= 4.07D-05

 Cycle  16  Pass 1  IDiag  1:
 RMSU=  1.17D-08    CP:  9.82D-01  1.25D+00  9.50D-01  7.18D-01  1.20D+00
                    CP:  1.60D+00  2.03D+00  2.00D+00  2.10D+00  1.82D+00
                    CP:  1.93D+00  2.15D+00  2.18D+00  2.20D+00  1.54D+00
 E= -8339.73671073103     Delta-E=       -0.000000002106 Rises=F Damp=F
 DIIS: error= 2.49D-07 at cycle  16 NSaved=  16.
 NSaved=16 IEnMin=16 EnMin= -8339.73671073103     IErMin=16 ErrMin= 2.49D-07
 ErrMax= 2.49D-07  0.00D+00 EMaxC= 1.00D-01 BMatC= 5.06D-10 BMatP= 1.26D-09
 IDIUse=1 WtCom= 1.00D+00 WtEn= 0.00D+00
 Coeff-Com: -0.101D-05 0.127D-05 0.409D-04 0.103D-03 0.265D-03 0.331D-03
 Coeff-Com: -0.143D-02-0.323D-02 0.285D-03 0.135D-01 0.305D-01-0.168D-01
 Coeff-Com: -0.186D+00-0.174D+00 0.448D+00 0.888D+00
 Coeff:     -0.101D-05 0.127D-05 0.409D-04 0.103D-03 0.265D-03 0.331D-03
 Coeff:     -0.143D-02-0.323D-02 0.285D-03 0.135D-01 0.305D-01-0.168D-01
 Coeff:     -0.186D+00-0.174D+00 0.448D+00 0.888D+00
 Gap=     0.133 Goal=   None    Shift=    0.000
 Gap=     0.123 Goal=   None    Shift=    0.000
 RMSDP=2.55D-08 MaxDP=6.71D-06 DE=-2.11D-09 OVMax= 2.67D-05

 Cycle  17  Pass 1  IDiag  1:
 RMSU=  7.57D-09    CP:  9.82D-01  1.25D+00  9.50D-01  7.18D-01  1.20D+00
                    CP:  1.60D+00  2.03D+00  2.00D+00  2.10D+00  1.83D+00
                    CP:  1.94D+00  2.20D+00  2.33D+00  2.56D+00  2.08D+00
                    CP:  1.47D+00
 E= -8339.73671073102     Delta-E=        0.000000000007 Rises=F Damp=F
 DIIS: error= 2.00D-07 at cycle  17 NSaved=  17.
 NSaved=17 IEnMin=16 EnMin= -8339.73671073103     IErMin=17 ErrMin= 2.00D-07
 ErrMax= 2.00D-07  0.00D+00 EMaxC= 1.00D-01 BMatC= 1.95D-10 BMatP= 5.06D-10
 IDIUse=1 WtCom= 1.00D+00 WtEn= 0.00D+00
 Coeff-Com:  0.219D-05-0.531D-05-0.143D-04-0.162D-04 0.722D-04 0.445D-03
 Coeff-Com:  0.979D-03-0.734D-03-0.565D-02-0.248D-02 0.208D-01 0.505D-01
 Coeff-Com: -0.349D-01-0.219D+00-0.129D+00 0.487D+00 0.832D+00
 Coeff:      0.219D-05-0.531D-05-0.143D-04-0.162D-04 0.722D-04 0.445D-03
 Coeff:      0.979D-03-0.734D-03-0.565D-02-0.248D-02 0.208D-01 0.505D-01
 Coeff:     -0.349D-01-0.219D+00-0.129D+00 0.487D+00 0.832D+00
 Gap=     0.133 Goal=   None    Shift=    0.000
 Gap=     0.123 Goal=   None    Shift=    0.000
 RMSDP=1.35D-08 MaxDP=1.95D-06 DE= 7.28D-12 OVMax= 1.56D-05

 Cycle  18  Pass 1  IDiag  1:
 RMSU=  4.10D-09    CP:  9.82D-01  1.25D+00  9.50D-01  7.18D-01  1.20D+00
                    CP:  1.60D+00  2.03D+00  2.00D+00  2.10D+00  1.83D+00
                    CP:  1.94D+00  2.22D+00  2.39D+00  2.76D+00  2.37D+00
                    CP:  2.02D+00  1.31D+00
 E= -8339.73671073144     Delta-E=       -0.000000000418 Rises=F Damp=F
 DIIS: error= 9.96D-08 at cycle  18 NSaved=  18.
 NSaved=18 IEnMin=18 EnMin= -8339.73671073144     IErMin=18 ErrMin= 9.96D-08
 ErrMax= 9.96D-08  0.00D+00 EMaxC= 1.00D-01 BMatC= 5.97D-11 BMatP= 1.95D-10
 IDIUse=1 WtCom= 1.00D+00 WtEn= 0.00D+00
 Coeff-Com:  0.150D-05-0.331D-05-0.211D-04-0.412D-04-0.469D-04 0.132D-03
 Coeff-Com:  0.102D-02 0.694D-03-0.336D-02-0.586D-02 0.195D-02 0.334D-01
 Coeff-Com:  0.430D-01-0.617D-01-0.217D+00-0.177D-01 0.453D+00 0.772D+00
 Coeff:      0.150D-05-0.331D-05-0.211D-04-0.412D-04-0.469D-04 0.132D-03
 Coeff:      0.102D-02 0.694D-03-0.336D-02-0.586D-02 0.195D-02 0.334D-01
 Coeff:      0.430D-01-0.617D-01-0.217D+00-0.177D-01 0.453D+00 0.772D+00
 Gap=     0.133 Goal=   None    Shift=    0.000
 Gap=     0.123 Goal=   None    Shift=    0.000
 RMSDP=6.13D-09 MaxDP=1.06D-06 DE=-4.18D-10 OVMax= 7.56D-06

 Cycle  19  Pass 1  IDiag  1:
 RMSU=  2.13D-09    CP:  9.82D-01  1.25D+00  9.50D-01  7.18D-01  1.20D+00
                    CP:  1.60D+00  2.03D+00  2.00D+00  2.10D+00  1.83D+00
                    CP:  1.95D+00  2.23D+00  2.40D+00  2.84D+00  2.49D+00
                    CP:  2.25D+00  1.70D+00  1.27D+00
 E= -8339.73671073252     Delta-E=       -0.000000001084 Rises=F Damp=F
 DIIS: error= 3.33D-08 at cycle  19 NSaved=  19.
 NSaved=19 IEnMin=19 EnMin= -8339.73671073252     IErMin=19 ErrMin= 3.33D-08
 ErrMax= 3.33D-08  0.00D+00 EMaxC= 1.00D-01 BMatC= 1.12D-11 BMatP= 5.97D-11
 IDIUse=1 WtCom= 1.00D+00 WtEn= 0.00D+00
 Coeff-Com: -0.164D-06 0.467D-06-0.274D-05-0.723D-05-0.358D-04-0.826D-04
 Coeff-Com:  0.180D-04 0.471D-03 0.487D-03-0.105D-02-0.518D-02-0.450D-02
 Coeff-Com:  0.226D-01 0.439D-01-0.297D-01-0.149D+00-0.908D-01 0.259D+00
 Coeff-Com:  0.954D+00
 Coeff:     -0.164D-06 0.467D-06-0.274D-05-0.723D-05-0.358D-04-0.826D-04
 Coeff:      0.180D-04 0.471D-03 0.487D-03-0.105D-02-0.518D-02-0.450D-02
 Coeff:      0.226D-01 0.439D-01-0.297D-01-0.149D+00-0.908D-01 0.259D+00
 Coeff:      0.954D+00
 Gap=     0.133 Goal=   None    Shift=    0.000
 Gap=     0.123 Goal=   None    Shift=    0.000
 RMSDP=3.35D-09 MaxDP=7.69D-07 DE=-1.08D-09 OVMax= 4.18D-06

 Error on total polarization charges =  0.03268
 SCF Done:  E(UM062X) =  -8339.73671073     A.U. after   19 cycles
            NFock= 19  Conv=0.33D-08     -V/T= 2.0029
 <Sx>= 0.0000 <Sy>= 0.0000 <Sz>= 0.5000 <S**2>= 0.7751 S= 0.5125
 <L.S>= 0.000000000000E+00
 KE= 8.316033566251D+03 PE=-4.244436512719D+04 EE= 1.446926348753D+04
 Annihilation of the first spin contaminant:
 S**2 before annihilation     0.7751,   after     0.7505
 Leave Link  502 at Fri Nov 14 00:18:22 2025, MaxMem= 30870077440 cpu:          214834.7 elap:            3407.9
 (Enter /public/software/gauss/g16/l601.exe)
 Copying SCF densities to generalized density rwf, IOpCl= 1 IROHF=0.
 Hyperfine terms turned off by default for NAtoms > 100.

 **********************************************************************

            Population analysis using the SCF density.

 **********************************************************************

 Orbital symmetries:
 Alpha Orbitals:
       Occupied  (A) (A) (A) (A) (A) (A) (A) (A) (A) (A) (A) (A)
                 (A) (A) (A) (A) (A) (A) (A) (A) (A) (A) (A) (A)
                 (A) (A) (A) (A) (A) (A) (A) (A) (A) (A) (A) (A)
                 (A) (A) (A) (A) (A) (A) (A) (A) (A) (A) (A) (A)
                 (A) (A) (A) (A) (A) (A) (A) (A) (A) (A) (A) (A)
                 (A) (A) (A) (A) (A) (A) (A) (A) (A) (A) (A) (A)
                 (A) (A) (A) (A) (A) (A) (A) (A) (A) (A) (A) (A)
                 (A) (A) (A) (A) (A) (A) (A) (A) (A) (A) (A) (A)
                 (A) (A) (A) (A) (A) (A) (A) (A) (A) (A) (A) (A)
                 (A) (A) (A) (A) (A) (A) (A) (A) (A) (A) (A) (A)
                 (A) (A) (A) (A) (A) (A) (A) (A) (A) (A) (A) (A)
                 (A) (A) (A) (A) (A) (A) (A) (A) (A) (A) (A) (A)
                 (A) (A) (A) (A) (A) (A) (A) (A) (A) (A) (A) (A)
                 (A) (A) (A) (A) (A) (A) (A) (A) (A) (A) (A) (A)
                 (A) (A) (A) (A) (A) (A) (A) (A) (A) (A) (A) (A)
                 (A) (A) (A) (A) (A) (A) (A) (A) (A) (A) (A) (A)
                 (A) (A) (A) (A) (A) (A) (A) (A) (A) (A) (A) (A)
                 (A) (A) (A) (A) (A) (A) (A) (A) (A) (A) (A) (A)
                 (A) (A) (A) (A) (A) (A) (A) (A) (A) (A) (A) (A)
                 (A) (A) (A) (A) (A) (A) (A) (A) (A) (A) (A) (A)
                 (A) (A) (A) (A) (A) (A) (A) (A) (A) (A) (A) (A)
                 (A) (A) (A) (A) (A) (A) (A) (A) (A) (A) (A) (A)
                 (A) (A) (A) (A) (A) (A) (A) (A) (A) (A) (A) (A)
                 (A) (A) (A) (A)
       Virtual   (A) (A) (A) (A) (A) (A) (A) (A) (A) (A) (A) (A)
                 (A) (A) (A) (A) (A) (A) (A) (A) (A) (A) (A) (A)
                 (A) (A) (A) (A) (A) (A) (A) (A) (A) (A) (A) (A)
                 (A) (A) (A) (A) (A) (A) (A) (A) (A) (A) (A) (A)
                 (A) (A) (A) (A) (A) (A) (A) (A) (A) (A) (A) (A)
                 (A) (A) (A) (A) (A) (A) (A) (A) (A) (A) (A) (A)
                 (A) (A) (A) (A) (A) (A) (A) (A) (A) (A) (A) (A)
                 (A) (A) (A) (A) (A) (A) (A) (A) (A) (A) (A) (A)
                 (A) (A) (A) (A) (A) (A) (A) (A) (A) (A) (A) (A)
                 (A) (A) (A) (A) (A) (A) (A) (A) (A) (A) (A) (A)
                 (A) (A) (A) (A) (A) (A) (A) (A) (A) (A) (A) (A)
                 (A) (A) (A) (A) (A) (A) (A) (A) (A) (A) (A) (A)
                 (A) (A) (A) (A) (A) (A) (A) (A) (A) (A) (A) (A)
                 (A) (A) (A) (A) (A) (A) (A) (A) (A) (A) (A) (A)
                 (A) (A) (A) (A) (A) (A) (A) (A) (A) (A) (A) (A)
                 (A) (A) (A) (A) (A) (A) (A) (A) (A) (A) (A) (A)
                 (A) (A) (A) (A) (A) (A) (A) (A) (A) (A) (A) (A)
                 (A) (A) (A) (A) (A) (A) (A) (A) (A) (A) (A) (A)
                 (A) (A) (A) (A) (A) (A) (A) (A) (A) (A) (A) (A)
                 (A) (A) (A) (A) (A) (A) (A) (A) (A) (A) (A) (A)
                 (A) (A) (A) (A) (A) (A) (A) (A) (A) (A) (A) (A)
                 (A) (A) (A) (A) (A) (A) (A) (A) (A) (A) (A) (A)
                 (A) (A) (A) (A) (A) (A) (A) (A) (A) (A) (A) (A)
                 (A) (A) (A) (A) (A) (A) (A) (A) (A) (A) (A) (A)
                 (A) (A) (A) (A) (A) (A) (A) (A) (A) (A) (A) (A)
                 (A) (A) (A) (A) (A) (A) (A) (A) (A) (A) (A) (A)
                 (A) (A) (A) (A) (A) (A) (A) (A) (A) (A) (A) (A)
                 (A) (A) (A) (A) (A) (A) (A) (A) (A) (A) (A) (A)
                 (A) (A) (A) (A) (A) (A) (A) (A) (A) (A) (A) (A)
                 (A) (A) (A) (A) (A) (A) (A) (A) (A) (A) (A) (A)
                 (A) (A) (A) (A) (A) (A) (A) (A) (A) (A) (A) (A)
                 (A) (A) (A) (A) (A) (A) (A) (A) (A) (A) (A) (A)
                 (A) (A) (A) (A) (A) (A) (A) (A) (A) (A) (A) (A)
                 (A) (A) (A) (A) (A) (A) (A) (A) (A) (A) (A) (A)
                 (A) (A) (A) (A) (A) (A) (A) (A) (A) (A) (A) (A)
                 (A) (A) (A) (A) (A) (A) (A) (A) (A) (A) (A) (A)
                 (A) (A) (A) (A) (A) (A) (A) (A) (A) (A) (A) (A)
                 (A) (A) (A) (A) (A) (A) (A) (A) (A) (A) (A) (A)
                 (A) (A) (A) (A) (A) (A) (A) (A) (A) (A) (A) (A)
                 (A) (A) (A) (A) (A) (A) (A) (A) (A) (A) (A) (A)
                 (A) (A) (A) (A) (A) (A) (A) (A) (A) (A) (A) (A)
                 (A) (A) (A) (A) (A) (A) (A) (A) (A) (A) (A) (A)
                 (A) (A) (A) (A) (A) (A) (A) (A) (A) (A) (A) (A)
                 (A) (A) (A) (A) (A) (A) (A) (A) (A) (A) (A) (A)
                 (A) (A) (A) (A) (A) (A) (A) (A) (A) (A) (A) (A)
                 (A) (A) (A) (A) (A) (A) (A) (A) (A) (A) (A) (A)
                 (A) (A) (A) (A) (A) (A) (A) (A) (A) (A) (A) (A)
                 (A) (A) (A) (A) (A) (A) (A) (A) (A) (A) (A) (A)
                 (A) (A) (A) (A) (A) (A) (A) (A) (A) (A) (A) (A)
                 (A) (A) (A) (A) (A) (A) (A) (A) (A) (A) (A) (A)
                 (A) (A) (A) (A) (A) (A) (A) (A) (A) (A) (A) (A)
                 (A) (A) (A) (A) (A) (A) (A) (A) (A) (A) (A) (A)
                 (A) (A) (A) (A) (A) (A) (A) (A) (A) (A) (A) (A)
                 (A) (A) (A) (A) (A) (A) (A) (A) (A) (A) (A) (A)
                 (A) (A) (A) (A) (A) (A) (A) (A) (A) (A) (A) (A)
                 (A) (A) (A) (A) (A) (A) (A) (A) (A) (A) (A) (A)
                 (A) (A) (A) (A) (A) (A) (A) (A) (A) (A) (A) (A)
                 (A) (A) (A) (A) (A) (A) (A) (A) (A) (A) (A) (A)
                 (A) (A) (A) (A) (A) (A) (A) (A) (A) (A) (A) (A)
                 (A) (A) (A) (A) (A) (A) (A) (A) (A) (A) (A) (A)
                 (A) (A) (A) (A) (A) (A) (A) (A) (A) (A) (A) (A)
                 (A) (A) (A) (A) (A) (A) (A) (A) (A) (A) (A) (A)
                 (A) (A) (A) (A) (A) (A) (A) (A) (A) (A) (A) (A)
                 (A) (A) (A) (A) (A) (A) (A) (A) (A) (A) (A) (A)
                 (A) (A) (A) (A) (A) (A) (A) (A) (A) (A) (A) (A)
                 (A) (A) (A) (A) (A) (A) (A) (A) (A) (A) (A) (A)
                 (A) (A) (A) (A) (A) (A) (A) (A) (A) (A) (A) (A)
                 (A) (A) (A) (A) (A) (A) (A) (A) (A) (A) (A) (A)
                 (A) (A) (A) (A) (A) (A) (A) (A) (A) (A) (A) (A)
                 (A) (A) (A) (A) (A) (A) (A) (A) (A) (A) (A) (A)
                 (A) (A) (A) (A) (A) (A) (A) (A) (A) (A) (A) (A)
                 (A) (A) (A) (A) (A) (A) (A) (A) (A) (A) (A) (A)
                 (A) (A) (A) (A) (A) (A) (A) (A) (A) (A) (A) (A)
                 (A) (A) (A) (A) (A) (A) (A) (A) (A) (A) (A) (A)
                 (A) (A) (A) (A) (A) (A) (A) (A) (A) (A) (A) (A)
                 (A) (A) (A) (A) (A) (A) (A) (A) (A) (A) (A) (A)
                 (A) (A) (A) (A) (A) (A) (A) (A) (A) (A) (A) (A)
                 (A) (A) (A) (A) (A) (A) (A) (A) (A) (A) (A) (A)
                 (A) (A) (A) (A) (A) (A) (A) (A) (A) (A) (A) (A)
                 (A) (A) (A) (A) (A) (A) (A) (A) (A) (A) (A) (A)
                 (A) (A) (A) (A) (A) (A) (A) (A) (A) (A) (A) (A)
                 (A) (A) (A) (A) (A) (A) (A) (A) (A) (A) (A) (A)
                 (A) (A) (A) (A) (A) (A) (A) (A) (A) (A) (A) (A)
                 (A) (A) (A) (A) (A) (A) (A) (A) (A) (A) (A) (A)
                 (A) (A) (A) (A) (A) (A) (A) (A) (A) (A) (A) (A)
                 (A) (A) (A) (A) (A) (A) (A) (A) (A) (A) (A) (A)
                 (A) (A) (A) (A) (A) (A) (A) (A) (A) (A) (A) (A)
                 (A) (A) (A) (A) (A) (A) (A) (A) (A) (A) (A) (A)
                 (A) (A) (A) (A) (A) (A) (A) (A) (A) (A) (A) (A)
                 (A) (A) (A) (A) (A) (A) (A) (A) (A) (A) (A) (A)
                 (A) (A) (A) (A) (A) (A) (A) (A) (A) (A) (A) (A)
                 (A) (A) (A) (A) (A) (A) (A) (A) (A) (A) (A) (A)
                 (A) (A) (A) (A) (A) (A) (A) (A) (A) (A) (A) (A)
                 (A) (A) (A) (A) (A) (A) (A) (A) (A) (A) (A) (A)
                 (A) (A) (A) (A) (A) (A) (A) (A) (A) (A) (A) (A)
                 (A) (A) (A) (A) (A) (A) (A) (A) (A) (A) (A) (A)
                 (A) (A) (A) (A) (A) (A) (A) (A) (A) (A) (A) (A)
                 (A) (A) (A) (A) (A) (A) (A) (A) (A) (A) (A) (A)
                 (A) (A) (A) (A) (A) (A) (A) (A) (A) (A) (A) (A)
                 (A) (A) (A) (A) (A) (A) (A) (A) (A) (A) (A) (A)
                 (A) (A) (A) (A) (A) (A) (A) (A) (A) (A) (A) (A)
                 (A) (A) (A) (A) (A) (A) (A) (A) (A) (A) (A) (A)
                 (A) (A) (A) (A) (A) (A) (A) (A) (A) (A) (A) (A)
                 (A) (A) (A) (A) (A) (A) (A) (A) (A) (A) (A) (A)
                 (A) (A) (A) (A) (A) (A) (A) (A) (A) (A) (A) (A)
                 (A) (A) (A) (A) (A) (A) (A) (A) (A) (A) (A) (A)
                 (A) (A) (A) (A) (A) (A) (A) (A) (A) (A) (A) (A)
                 (A) (A) (A) (A) (A) (A) (A) (A) (A) (A) (A) (A)
                 (A) (A) (A) (A) (A) (A) (A) (A) (A) (A) (A) (A)
                 (A) (A) (A) (A) (A) (A) (A) (A) (A) (A) (A) (A)
                 (A) (A) (A) (A) (A) (A) (A) (A) (A) (A) (A) (A)
                 (A) (A) (A) (A) (A) (A) (A) (A) (A) (A) (A) (A)
                 (A) (A) (A) (A) (A) (A) (A) (A) (A) (A) (A) (A)
                 (A) (A) (A) (A) (A) (A) (A) (A) (A) (A) (A) (A)
                 (A) (A) (A) (A) (A) (A) (A) (A) (A) (A) (A) (A)
                 (A) (A) (A) (A) (A) (A) (A) (A) (A) (A) (A) (A)
                 (A) (A) (A) (A) (A) (A) (A) (A) (A) (A) (A) (A)
                 (A) (A) (A) (A) (A) (A) (A) (A) (A) (A) (A) (A)
                 (A) (A) (A) (A) (A) (A) (A) (A) (A) (A) (A) (A)
                 (A) (A) (A) (A) (A) (A) (A) (A) (A) (A) (A) (A)
                 (A) (A) (A) (A) (A) (A) (A) (A) (A) (A) (A) (A)
                 (A) (A) (A) (A) (A) (A) (A) (A) (A) (A) (A) (A)
                 (A) (A) (A) (A) (A) (A) (A) (A) (A) (A) (A) (A)
                 (A) (A) (A) (A) (A) (A) (A) (A) (A) (A) (A) (A)
                 (A) (A) (A) (A) (A) (A) (A) (A) (A) (A) (A) (A)
                 (A) (A) (A) (A) (A) (A) (A) (A) (A) (A) (A) (A)
                 (A) (A) (A) (A) (A) (A) (A) (A) (A) (A) (A) (A)
                 (A) (A) (A) (A) (A) (A) (A) (A) (A) (A) (A) (A)
                 (A) (A) (A) (A) (A) (A) (A) (A) (A) (A) (A) (A)
                 (A) (A) (A) (A) (A) (A) (A) (A) (A) (A) (A) (A)
                 (A) (A) (A) (A) (A) (A) (A) (A) (A) (A) (A) (A)
                 (A) (A) (A) (A) (A) (A) (A) (A) (A) (A) (A) (A)
                 (A) (A) (A) (A) (A) (A) (A) (A) (A) (A) (A) (A)
                 (A) (A) (A) (A) (A) (A) (A) (A) (A) (A) (A) (A)
                 (A) (A) (A) (A) (A) (A) (A) (A) (A) (A) (A) (A)
                 (A) (A) (A) (A) (A) (A) (A) (A) (A) (A) (A) (A)
                 (A) (A) (A) (A) (A) (A) (A) (A) (A) (A) (A) (A)
                 (A) (A) (A) (A) (A) (A) (A) (A) (A) (A) (A) (A)
                 (A) (A) (A) (A) (A) (A) (A) (A) (A) (A) (A) (A)
                 (A) (A) (A) (A) (A) (A) (A) (A) (A) (A) (A) (A)
                 (A) (A) (A) (A) (A) (A) (A) (A) (A) (A) (A) (A)
                 (A) (A) (A) (A) (A) (A) (A) (A) (A) (A) (A) (A)
                 (A) (A) (A) (A) (A) (A) (A) (A) (A) (A) (A) (A)
                 (A) (A) (A) (A) (A) (A) (A) (A) (A) (A) (A) (A)
                 (A) (A) (A) (A) (A) (A) (A) (A) (A) (A) (A) (A)
                 (A) (A) (A) (A) (A) (A) (A) (A) (A) (A) (A) (A)
                 (A) (A) (A) (A) (A) (A) (A) (A) (A) (A) (A) (A)
                 (A) (A) (A) (A) (A) (A) (A) (A) (A) (A) (A) (A)
                 (A) (A) (A) (A) (A) (A) (A) (A) (A) (A) (A) (A)
                 (A) (A) (A) (A) (A) (A) (A) (A) (A) (A) (A) (A)
                 (A) (A) (A) (A) (A) (A) (A) (A) (A) (A) (A) (A)
                 (A) (A) (A) (A) (A) (A) (A) (A) (A) (A) (A) (A)
                 (A) (A) (A) (A) (A) (A) (A) (A) (A) (A) (A) (A)
                 (A) (A) (A) (A) (A) (A) (A) (A) (A) (A) (A) (A)
                 (A) (A) (A) (A) (A) (A) (A) (A) (A) (A) (A) (A)
                 (A) (A) (A) (A) (A) (A) (A) (A) (A) (A) (A) (A)
                 (A) (A) (A) (A) (A) (A) (A) (A) (A) (A) (A) (A)
                 (A) (A) (A) (A) (A) (A) (A) (A) (A) (A) (A) (A)
                 (A) (A) (A) (A) (A) (A) (A) (A) (A) (A) (A) (A)
                 (A) (A) (A) (A) (A) (A) (A) (A) (A) (A) (A) (A)
                 (A) (A) (A) (A) (A) (A) (A) (A) (A) (A) (A) (A)
                 (A) (A) (A) (A) (A) (A) (A) (A) (A) (A) (A) (A)
                 (A) (A) (A) (A) (A) (A) (A) (A) (A) (A) (A) (A)
                 (A) (A) (A) (A) (A) (A) (A) (A) (A) (A) (A) (A)
                 (A) (A) (A) (A) (A) (A) (A) (A) (A) (A) (A) (A)
                 (A) (A) (A) (A) (A) (A) (A) (A) (A) (A) (A) (A)
                 (A) (A) (A) (A) (A) (A) (A) (A) (A) (A) (A) (A)
                 (A) (A) (A) (A) (A) (A) (A) (A) (A) (A) (A) (A)
                 (A) (A) (A) (A) (A) (A) (A) (A) (A) (A) (A) (A)
                 (A) (A) (A) (A) (A) (A) (A) (A) (A) (A) (A) (A)
                 (A) (A) (A) (A) (A) (A) (A) (A) (A) (A) (A) (A)
                 (A) (A) (A) (A) (A) (A) (A) (A) (A) (A) (A) (A)
                 (A) (A) (A) (A) (A) (A) (A) (A) (A) (A) (A) (A)
                 (A) (A) (A) (A) (A) (A) (A) (A) (A) (A) (A) (A)
                 (A) (A) (A) (A) (A) (A) (A) (A) (A) (A) (A) (A)
                 (A) (A) (A) (A) (A) (A) (A) (A) (A) (A) (A) (A)
                 (A) (A) (A) (A) (A) (A) (A) (A) (A) (A) (A) (A)
                 (A) (A) (A) (A) (A) (A) (A) (A) (A) (A) (A) (A)
                 (A) (A) (A) (A) (A) (A) (A) (A) (A) (A) (A) (A)
                 (A) (A) (A) (A) (A) (A) (A) (A) (A) (A) (A) (A)
                 (A) (A) (A) (A) (A) (A) (A) (A) (A) (A) (A) (A)
                 (A) (A) (A) (A) (A) (A) (A) (A) (A) (A) (A) (A)
                 (A) (A) (A) (A) (A) (A) (A) (A) (A) (A) (A) (A)
                 (A) (A) (A) (A) (A) (A) (A) (A) (A) (A) (A) (A)
                 (A) (A) (A) (A) (A) (A) (A) (A) (A) (A) (A) (A)
                 (A) (A) (A) (A) (A) (A) (A) (A) (A) (A) (A) (A)
                 (A) (A) (A) (A) (A) (A) (A) (A) (A) (A) (A) (A)
                 (A) (A) (A) (A) (A) (A) (A) (A) (A) (A) (A) (A)
                 (A) (A) (A) (A) (A) (A) (A) (A) (A) (A) (A) (A)
                 (A) (A) (A) (A) (A) (A) (A) (A) (A) (A) (A) (A)
                 (A) (A) (A) (A) (A) (A) (A) (A) (A) (A) (A) (A)
                 (A) (A) (A) (A) (A) (A) (A) (A) (A) (A) (A) (A)
                 (A) (A) (A) (A) (A) (A) (A) (A) (A) (A) (A) (A)
                 (A) (A) (A) (A) (A) (A) (A) (A) (A) (A) (A) (A)
                 (A) (A) (A) (A) (A) (A) (A) (A) (A) (A) (A) (A)
                 (A) (A) (A) (A) (A) (A) (A) (A) (A) (A) (A) (A)
                 (A) (A) (A) (A) (A) (A) (A) (A) (A) (A) (A) (A)
                 (A) (A) (A) (A) (A) (A) (A) (A) (A) (A) (A) (A)
                 (A) (A) (A) (A) (A) (A) (A) (A) (A) (A) (A) (A)
                 (A) (A) (A) (A) (A) (A) (A) (A) (A) (A) (A) (A)
                 (A) (A) (A) (A) (A) (A) (A) (A) (A) (A) (A) (A)
                 (A) (A) (A) (A) (A) (A) (A) (A) (A) (A) (A) (A)
                 (A) (A) (A) (A) (A) (A) (A) (A) (A) (A) (A) (A)
                 (A) (A) (A) (A) (A) (A) (A) (A) (A) (A) (A) (A)
                 (A) (A) (A) (A) (A) (A) (A) (A) (A) (A) (A) (A)
                 (A) (A) (A) (A) (A) (A) (A) (A) (A) (A) (A) (A)
                 (A) (A) (A) (A) (A) (A) (A) (A) (A) (A) (A) (A)
                 (A) (A) (A) (A) (A) (A) (A) (A) (A) (A) (A) (A)
                 (A) (A) (A) (A) (A) (A) (A) (A) (A) (A) (A) (A)
                 (A) (A) (A) (A) (A) (A) (A) (A) (A) (A) (A) (A)
                 (A) (A) (A) (A) (A) (A) (A) (A) (A) (A) (A) (A)
                 (A) (A) (A) (A) (A) (A) (A) (A) (A) (A) (A) (A)
                 (A) (A) (A) (A) (A) (A) (A) (A) (A) (A) (A) (A)
                 (A) (A) (A) (A) (A) (A) (A) (A) (A) (A) (A) (A)
                 (A) (A) (A) (A) (A) (A) (A) (A) (A) (A) (A) (A)
                 (A) (A) (A) (A) (A) (A) (A) (A) (A) (A) (A) (A)
                 (A) (A) (A) (A) (A) (A) (A) (A) (A) (A) (A) (A)
                 (A) (A) (A) (A) (A) (A) (A) (A) (A) (A) (A) (A)
                 (A) (A) (A) (A) (A) (A) (A) (A) (A) (A) (A) (A)
                 (A) (A) (A) (A) (A) (A) (A) (A) (A) (A) (A) (A)
                 (A) (A) (A) (A) (A) (A) (A) (A) (A)
 Beta  Orbitals:
       Occupied  (A) (A) (A) (A) (A) (A) (A) (A) (A) (A) (A) (A)
                 (A) (A) (A) (A) (A) (A) (A) (A) (A) (A) (A) (A)
                 (A) (A) (A) (A) (A) (A) (A) (A) (A) (A) (A) (A)
                 (A) (A) (A) (A) (A) (A) (A) (A) (A) (A) (A) (A)
                 (A) (A) (A) (A) (A) (A) (A) (A) (A) (A) (A) (A)
                 (A) (A) (A) (A) (A) (A) (A) (A) (A) (A) (A) (A)
                 (A) (A) (A) (A) (A) (A) (A) (A) (A) (A) (A) (A)
                 (A) (A) (A) (A) (A) (A) (A) (A) (A) (A) (A) (A)
                 (A) (A) (A) (A) (A) (A) (A) (A) (A) (A) (A) (A)
                 (A) (A) (A) (A) (A) (A) (A) (A) (A) (A) (A) (A)
                 (A) (A) (A) (A) (A) (A) (A) (A) (A) (A) (A) (A)
                 (A) (A) (A) (A) (A) (A) (A) (A) (A) (A) (A) (A)
                 (A) (A) (A) (A) (A) (A) (A) (A) (A) (A) (A) (A)
                 (A) (A) (A) (A) (A) (A) (A) (A) (A) (A) (A) (A)
                 (A) (A) (A) (A) (A) (A) (A) (A) (A) (A) (A) (A)
                 (A) (A) (A) (A) (A) (A) (A) (A) (A) (A) (A) (A)
                 (A) (A) (A) (A) (A) (A) (A) (A) (A) (A) (A) (A)
                 (A) (A) (A) (A) (A) (A) (A) (A) (A) (A) (A) (A)
                 (A) (A) (A) (A) (A) (A) (A) (A) (A) (A) (A) (A)
                 (A) (A) (A) (A) (A) (A) (A) (A) (A) (A) (A) (A)
                 (A) (A) (A) (A) (A) (A) (A) (A) (A) (A) (A) (A)
                 (A) (A) (A) (A) (A) (A) (A) (A) (A) (A) (A) (A)
                 (A) (A) (A) (A) (A) (A) (A) (A) (A) (A) (A) (A)
                 (A) (A) (A)
       Virtual   (A) (A) (A) (A) (A) (A) (A) (A) (A) (A) (A) (A)
                 (A) (A) (A) (A) (A) (A) (A) (A) (A) (A) (A) (A)
                 (A) (A) (A) (A) (A) (A) (A) (A) (A) (A) (A) (A)
                 (A) (A) (A) (A) (A) (A) (A) (A) (A) (A) (A) (A)
                 (A) (A) (A) (A) (A) (A) (A) (A) (A) (A) (A) (A)
                 (A) (A) (A) (A) (A) (A) (A) (A) (A) (A) (A) (A)
                 (A) (A) (A) (A) (A) (A) (A) (A) (A) (A) (A) (A)
                 (A) (A) (A) (A) (A) (A) (A) (A) (A) (A) (A) (A)
                 (A) (A) (A) (A) (A) (A) (A) (A) (A) (A) (A) (A)
                 (A) (A) (A) (A) (A) (A) (A) (A) (A) (A) (A) (A)
                 (A) (A) (A) (A) (A) (A) (A) (A) (A) (A) (A) (A)
                 (A) (A) (A) (A) (A) (A) (A) (A) (A) (A) (A) (A)
                 (A) (A) (A) (A) (A) (A) (A) (A) (A) (A) (A) (A)
                 (A) (A) (A) (A) (A) (A) (A) (A) (A) (A) (A) (A)
                 (A) (A) (A) (A) (A) (A) (A) (A) (A) (A) (A) (A)
                 (A) (A) (A) (A) (A) (A) (A) (A) (A) (A) (A) (A)
                 (A) (A) (A) (A) (A) (A) (A) (A) (A) (A) (A) (A)
                 (A) (A) (A) (A) (A) (A) (A) (A) (A) (A) (A) (A)
                 (A) (A) (A) (A) (A) (A) (A) (A) (A) (A) (A) (A)
                 (A) (A) (A) (A) (A) (A) (A) (A) (A) (A) (A) (A)
                 (A) (A) (A) (A) (A) (A) (A) (A) (A) (A) (A) (A)
                 (A) (A) (A) (A) (A) (A) (A) (A) (A) (A) (A) (A)
                 (A) (A) (A) (A) (A) (A) (A) (A) (A) (A) (A) (A)
                 (A) (A) (A) (A) (A) (A) (A) (A) (A) (A) (A) (A)
                 (A) (A) (A) (A) (A) (A) (A) (A) (A) (A) (A) (A)
                 (A) (A) (A) (A) (A) (A) (A) (A) (A) (A) (A) (A)
                 (A) (A) (A) (A) (A) (A) (A) (A) (A) (A) (A) (A)
                 (A) (A) (A) (A) (A) (A) (A) (A) (A) (A) (A) (A)
                 (A) (A) (A) (A) (A) (A) (A) (A) (A) (A) (A) (A)
                 (A) (A) (A) (A) (A) (A) (A) (A) (A) (A) (A) (A)
                 (A) (A) (A) (A) (A) (A) (A) (A) (A) (A) (A) (A)
                 (A) (A) (A) (A) (A) (A) (A) (A) (A) (A) (A) (A)
                 (A) (A) (A) (A) (A) (A) (A) (A) (A) (A) (A) (A)
                 (A) (A) (A) (A) (A) (A) (A) (A) (A) (A) (A) (A)
                 (A) (A) (A) (A) (A) (A) (A) (A) (A) (A) (A) (A)
                 (A) (A) (A) (A) (A) (A) (A) (A) (A) (A) (A) (A)
                 (A) (A) (A) (A) (A) (A) (A) (A) (A) (A) (A) (A)
                 (A) (A) (A) (A) (A) (A) (A) (A) (A) (A) (A) (A)
                 (A) (A) (A) (A) (A) (A) (A) (A) (A) (A) (A) (A)
                 (A) (A) (A) (A) (A) (A) (A) (A) (A) (A) (A) (A)
                 (A) (A) (A) (A) (A) (A) (A) (A) (A) (A) (A) (A)
                 (A) (A) (A) (A) (A) (A) (A) (A) (A) (A) (A) (A)
                 (A) (A) (A) (A) (A) (A) (A) (A) (A) (A) (A) (A)
                 (A) (A) (A) (A) (A) (A) (A) (A) (A) (A) (A) (A)
[...]
  Beta virt. eigenvalues --    5.01988   5.02103   5.02706   5.03083   5.03580
  Beta virt. eigenvalues --    5.04007   5.04397   5.04545   5.04691   5.05060
  Beta virt. eigenvalues --    5.05164   5.05474   5.05969   5.06688   5.07055
  Beta virt. eigenvalues --    5.07236   5.07575   5.07684   5.08390   5.08487
  Beta virt. eigenvalues --    5.08917   5.09248   5.09869   5.10157   5.10353
  Beta virt. eigenvalues --    5.10482   5.11132   5.11321   5.11704   5.12359
  Beta virt. eigenvalues --    5.12638   5.13024   5.13660   5.13787   5.13987
  Beta virt. eigenvalues --    5.14458   5.14672   5.15011   5.15466   5.15992
  Beta virt. eigenvalues --    5.16436   5.16526   5.16777   5.17708   5.17769
  Beta virt. eigenvalues --    5.18155   5.18961   5.19178   5.19563   5.20094
  Beta virt. eigenvalues --    5.20908   5.21073   5.22027   5.22065   5.22901
  Beta virt. eigenvalues --    5.23075   5.23408   5.23816   5.24151   5.24348
  Beta virt. eigenvalues --    5.24838   5.25218   5.25685   5.26019   5.26576
  Beta virt. eigenvalues --    5.26858   5.27429   5.27607   5.27818   5.28249
  Beta virt. eigenvalues --    5.28378   5.28476   5.28732   5.28840   5.28932
  Beta virt. eigenvalues --    5.29202   5.29257   5.29464   5.29623   5.30102
  Beta virt. eigenvalues --    5.30348   5.30810   5.30939   5.31031   5.31406
  Beta virt. eigenvalues --    5.31746   5.32016   5.32305   5.32447   5.33150
  Beta virt. eigenvalues --    5.33295   5.33854   5.33891   5.34042   5.34402
  Beta virt. eigenvalues --    5.34924   5.35348   5.35725   5.36288   5.36510
  Beta virt. eigenvalues --    5.36949   5.37315   5.37753   5.37969   5.38210
  Beta virt. eigenvalues --    5.38468   5.38733   5.38920   5.39566   5.39904
  Beta virt. eigenvalues --    5.39990   5.40058   5.40457   5.40921   5.41477
  Beta virt. eigenvalues --    5.41803   5.42578   5.42712   5.43117   5.43306
  Beta virt. eigenvalues --    5.43548   5.43559   5.44229   5.44548   5.45460
  Beta virt. eigenvalues --    5.45758   5.46368   5.46695   5.46859   5.47256
  Beta virt. eigenvalues --    5.47973   5.48511   5.48730   5.49161   5.49705
  Beta virt. eigenvalues --    5.50164   5.50323   5.51154   5.51432   5.51608
  Beta virt. eigenvalues --    5.52029   5.53238   5.53469   5.53896   5.54298
  Beta virt. eigenvalues --    5.54340   5.55429   5.55638   5.55700   5.56008
  Beta virt. eigenvalues --    5.56333   5.57088   5.57214   5.57328   5.58423
  Beta virt. eigenvalues --    5.58843   5.58979   5.59363   5.59455   5.59994
  Beta virt. eigenvalues --    5.60209   5.60269   5.60440   5.60728   5.61024
  Beta virt. eigenvalues --    5.61112   5.61721   5.61849   5.62050   5.62693
  Beta virt. eigenvalues --    5.62747   5.63144   5.63680   5.63877   5.64531
  Beta virt. eigenvalues --    5.64913   5.65236   5.65321   5.65522   5.65898
  Beta virt. eigenvalues --    5.65943   5.66262   5.66839   5.67756   5.67806
  Beta virt. eigenvalues --    5.67942   5.68814   5.70033   5.70601   5.71250
  Beta virt. eigenvalues --    5.72058   5.75761   5.76034   5.77370   5.77534
  Beta virt. eigenvalues --    5.79826   5.81715   5.82195   5.83705   5.85102
  Beta virt. eigenvalues --    5.85436   5.86492   5.88300   5.88433   5.88881
  Beta virt. eigenvalues --    5.88937   5.90056   5.90917   5.91263   5.91956
  Beta virt. eigenvalues --    5.92892   5.93179   5.93757   5.95376   5.96819
  Beta virt. eigenvalues --    5.97248   5.99004   5.99885   6.00396   6.01052
  Beta virt. eigenvalues --    6.02237   6.02256   6.03030   6.04105   6.04655
  Beta virt. eigenvalues --    6.05165   6.05485   6.06398   6.06729   6.09045
  Beta virt. eigenvalues --    6.09739   6.10880   6.10999   6.12615   6.14371
  Beta virt. eigenvalues --    6.15888   6.17832   6.20831   6.20899   6.21325
  Beta virt. eigenvalues --    6.22138   6.22620   6.22735   6.24932   6.25445
  Beta virt. eigenvalues --    6.26118   6.26503   6.28358   6.28378   6.28449
  Beta virt. eigenvalues --    6.30587   6.31495   6.33218   6.34835   6.35081
  Beta virt. eigenvalues --    6.35916   6.38808   6.39056   6.39592   6.39885
  Beta virt. eigenvalues --    6.40649   6.41752   6.42076   6.43202   6.44183
  Beta virt. eigenvalues --    6.47692   6.62324   6.72783   6.72800   6.72933
  Beta virt. eigenvalues --    6.73572   6.74715   6.75868   6.75958   6.76687
  Beta virt. eigenvalues --    6.76908   6.77608   6.77857   6.78267   6.80857
  Beta virt. eigenvalues --    6.81048   6.81327   6.81410   6.83395   6.84236
  Beta virt. eigenvalues --    6.84406   6.84646   6.84715   6.85034   6.85486
  Beta virt. eigenvalues --    6.86750   6.87623   6.93530   6.94107   6.95017
  Beta virt. eigenvalues --    6.95202   6.95827   6.96608   6.97731   6.98430
  Beta virt. eigenvalues --    6.98702   7.00126   7.00734   7.01162   7.01537
  Beta virt. eigenvalues --    7.01568   7.05261   7.07372   7.08716   7.08740
  Beta virt. eigenvalues --    7.10792   7.11608   7.17873   7.20804   7.22625
  Beta virt. eigenvalues --    7.24062   7.24428   7.26634   7.26826   7.28606
  Beta virt. eigenvalues --    7.28722   7.30118   7.30274   7.30412   7.32969
  Beta virt. eigenvalues --    7.33413   7.33437   7.33907   7.34424   7.34514
  Beta virt. eigenvalues --    7.34915   7.37961   7.38298   7.38501   7.38787
  Beta virt. eigenvalues --    7.40415   7.45356   7.46930   7.47501   7.48846
  Beta virt. eigenvalues --    7.52276   7.90937   7.91372   8.47651   8.49296
  Beta virt. eigenvalues --    8.57040   8.61860   8.83943   8.87065   8.92604
  Beta virt. eigenvalues --    8.93751   8.95132   9.00733  15.84598  22.76444
  Beta virt. eigenvalues --   22.79703  22.80602  22.88165  22.89832  23.01299
  Beta virt. eigenvalues --   23.12085  23.12737  23.14491  23.14747  23.18093
  Beta virt. eigenvalues --   23.18727  23.19450  23.23747  23.26960  23.27130
  Beta virt. eigenvalues --   23.28710  23.29180  23.29491  23.31899  23.31904
  Beta virt. eigenvalues --   23.33023  23.34222  23.35951  23.36314  23.37668
  Beta virt. eigenvalues --   23.38164  23.39259  23.39543  23.39992  23.40824
  Beta virt. eigenvalues --   23.41069  23.43303  23.45358  23.45739  23.48060
  Beta virt. eigenvalues --   23.50912  23.51601  23.52871  23.55952  23.59112
  Beta virt. eigenvalues --   23.61943  23.66474  23.69452  23.73747  23.82144
  Beta virt. eigenvalues --   24.06386  24.09198  24.09623  32.58156  33.08118
  Beta virt. eigenvalues --   33.24013  44.20682  44.23850  44.25981  44.29909
  Beta virt. eigenvalues --   44.34649  44.38403  44.43960  44.48639  44.49348
  Beta virt. eigenvalues --   44.59610  44.62065  44.64043  57.43961  57.56327
          Condensed to atoms (all electrons):
          Atomic-Atomic Spin Densities.
 Mulliken charges and spin densities:
               1          2
     1  B    0.356203  -0.000046
     2  N   -0.100205   0.014134
     3  C    0.082696   0.163167
     4  C   -0.107687  -0.049591
     5  C    0.020644   0.152435
     6  C    0.114018  -0.032937
     7  C   -0.197792   0.368584
     8  C    0.392561  -0.021450
     9  O   -0.445576   0.100133
    10  C   -0.098922  -0.001877
    11  C    0.024047   0.000411
    12  C   -0.147819   0.002089
    13  C   -0.096411  -0.000300
    14  C   -0.027513   0.000112
    15  C   -0.102633  -0.000168
    16  C   -0.144864   0.000134
    17  N    0.489168  -0.000002
    18  O   -0.373770  -0.000010
    19  O   -0.374624  -0.000004
    20  C    0.088598  -0.044589
    21  N   -0.129199   0.012999
    22  C    0.124934   0.120371
    23  C   -0.145692  -0.038403
    24  C    0.070663   0.115654
    25  C   -0.426952  -0.002771
    26  C   -0.146944  -0.059732
    27  C   -0.125876   0.085501
    28  C    0.011222  -0.021296
    29  C   -0.159746   0.020958
    30  C   -0.199045  -0.011308
    31  C    0.215518   0.022095
    32  O   -0.288124   0.003269
    33  C   -0.100771  -0.000225
    34  C   -0.142919  -0.000070
    35  O   -0.326058   0.000003
    36  C   -0.047856   0.000068
    37  C   -0.136630  -0.000009
    38  O   -0.334199   0.000000
    39  C   -0.098348   0.000000
    40  C   -0.107397  -0.000000
    41  O   -0.345891  -0.000000
    42  C   -0.209743   0.000000
    43  C   -0.173874  -0.012703
    44  C   -0.161874   0.023333
    45  C   -0.401578  -0.003163
    46  C   -0.156890  -0.072683
    47  C   -0.094572   0.115259
    48  C   -0.006333  -0.028066
    49  C   -0.160584   0.031394
    50  C   -0.174075  -0.016694
    51  C    0.213261   0.029713
    52  O   -0.288134   0.004497
    53  C   -0.099418  -0.000323
    54  C   -0.089913  -0.000126
    55  O   -0.340304   0.000021
    56  C   -0.093486   0.000002
    57  C   -0.064335   0.000001
    58  O   -0.363327  -0.000000
    59  C   -0.077573   0.000000
    60  C   -0.037925   0.000000
    61  O   -0.352698   0.000000
    62  C   -0.204043   0.000000
    63  C   -0.197376  -0.015370
    64  C   -0.150905   0.028410
    65  F   -0.357928   0.000471
    66  F   -0.348220   0.000432
    67  H    0.160303  -0.000024
    68  H    0.169994   0.000161
    69  H    0.168187  -0.000595
    70  H    0.192700  -0.000020
    71  H    0.191599  -0.000001
    72  H    0.159121   0.000090
    73  H    0.132059  -0.001508
    74  H    0.129081   0.002221
    75  H    0.143305   0.004469
    76  H    0.109078   0.004134
    77  H    0.106001  -0.005231
    78  H    0.149453  -0.000757
    79  H    0.154715   0.000130
    80  H    0.165995   0.000239
    81  H    0.148546   0.000282
    82  H    0.133215  -0.000006
    83  H    0.128881  -0.000019
    84  H    0.130154  -0.000008
    85  H    0.122103  -0.000045
    86  H    0.132565   0.000000
    87  H    0.132642   0.000001
    88  H    0.130816   0.000000
    89  H    0.139592  -0.000000
    90  H    0.137884   0.000000
    91  H    0.140976   0.000000
    92  H    0.137508  -0.000000
    93  H    0.123628  -0.000000
    94  H    0.125958  -0.000000
    95  H    0.151349   0.000147
    96  H    0.138761  -0.000682
    97  H    0.128318  -0.000499
    98  H    0.146751   0.005864
    99  H    0.121147   0.002484
   100  H    0.127043   0.003679
   101  H    0.118262  -0.006041
   102  H    0.139766  -0.000941
   103  H    0.153287   0.000191
   104  H    0.146301   0.000352
   105  H    0.147450   0.000362
   106  H    0.125382  -0.000020
   107  H    0.127579  -0.000004
   108  H    0.126285  -0.000001
   109  H    0.120374   0.000001
   110  H    0.134681   0.000000
   111  H    0.126119   0.000000
   112  H    0.119090  -0.000000
   113  H    0.133905   0.000000
   114  H    0.112797  -0.000000
   115  H    0.110479  -0.000000
   116  H    0.136441   0.000000
   117  H    0.120588  -0.000000
   118  H    0.120219  -0.000000
   119  H    0.155809   0.000186
   120  H    0.146794  -0.001083
   121  O   -0.311592   0.011048
   122  Br  -0.121935   0.000390
   123  Br  -0.116471  -0.000683
 Sum of Mulliken charges =  -1.00000   1.00000
 Mulliken charges and spin densities with hydrogens summed into heavy atoms:
               1          2
     1  B    0.356203  -0.000046
     2  N   -0.100205   0.014134
     3  C    0.082696   0.163167
     4  C   -0.107687  -0.049591
     5  C    0.020644   0.152435
     6  C    0.114018  -0.032937
     7  C   -0.197792   0.368584
     8  C    0.392561  -0.021450
     9  O   -0.445576   0.100133
    10  C    0.231375  -0.001741
    11  C    0.024047   0.000411
    12  C    0.020368   0.001494
    13  C    0.096289  -0.000320
    14  C   -0.027513   0.000112
    15  C    0.088967  -0.000170
    16  C    0.014258   0.000223
    17  N    0.489168  -0.000002
    18  O   -0.373770  -0.000010
    19  O   -0.374624  -0.000004
    20  C    0.088598  -0.044589
    21  N   -0.129199   0.012999
    22  C    0.124934   0.120371
    23  C   -0.145692  -0.038403
    24  C    0.070663   0.115654
    25  C   -0.022507   0.002411
    26  C   -0.037866  -0.055598
    27  C   -0.019875   0.080270
    28  C    0.011222  -0.021296
    29  C   -0.010294   0.020201
    30  C   -0.044330  -0.011178
    31  C    0.215518   0.022095
    32  O   -0.288124   0.003269
    33  C    0.213770   0.000296
    34  C    0.119176  -0.000095
    35  O   -0.326058   0.000003
    36  C    0.204401   0.000015
    37  C    0.128577  -0.000008
    38  O   -0.334199   0.000000
    39  C    0.172060   0.000000
    40  C    0.171463  -0.000000
    41  O   -0.345891  -0.000000
    42  C    0.177351   0.000000
    43  C   -0.022524  -0.012556
    44  C   -0.023113   0.022651
    45  C   -0.005361   0.004687
    46  C   -0.029847  -0.069004
    47  C    0.023690   0.109218
    48  C   -0.006333  -0.028066
    49  C   -0.020818   0.030454
    50  C   -0.020788  -0.016504
    51  C    0.213261   0.029713
    52  O   -0.288134   0.004497
    53  C    0.194333   0.000391
    54  C    0.163049  -0.000150
    55  O   -0.340304   0.000021
    56  C    0.153172   0.000002
    57  C    0.196465   0.000001
    58  O   -0.363327  -0.000000
    59  C    0.175422   0.000000
    60  C    0.185351  -0.000000
    61  O   -0.352698   0.000000
    62  C    0.173206   0.000000
    63  C   -0.041568  -0.015184
    64  C   -0.004111   0.027327
    65  F   -0.357928   0.000471
    66  F   -0.348220   0.000432
   121  O   -0.311592   0.011048
   122  Br  -0.121935   0.000390
   123  Br  -0.116471  -0.000683
 Electronic spatial extent (au):  <R**2>=         134847.5636
 Charge=             -1.0000 electrons
 Dipole moment (field-independent basis, Debye):
    X=            -18.7973    Y=              3.4810    Z=              3.9764  Tot=             19.5260
 Quadrupole moment (field-independent basis, Debye-Ang):
   XX=           -474.9208   YY=           -436.7240   ZZ=           -484.7598
   XY=            -11.1536   XZ=            -84.2134   YZ=             -2.7677
 Traceless Quadrupole moment (field-independent basis, Debye-Ang):
   XX=             -9.4526   YY=             28.7442   ZZ=            -19.2916
   XY=            -11.1536   XZ=            -84.2134   YZ=             -2.7677
 Octapole moment (field-independent basis, Debye-Ang**2):
  XXX=           -455.3706  YYY=            245.4037  ZZZ=           -378.8261  XYY=           -297.7894
  XXY=            464.4015  XXZ=           -342.3044  XZZ=           -545.2062  YZZ=           -138.2987
  YYZ=            447.1890  XYZ=           -268.7311
 Hexadecapole moment (field-independent basis, Debye-Ang**3):
 XXXX=        -101249.5715 YYYY=         -49975.0782 ZZZZ=         -15018.0437 XXXY=          -4902.2280
 XXXZ=          -5925.2229 YYYX=          -3551.1792 YYYZ=            837.2411 ZZZX=          -3494.5756
 ZZZY=          -1245.3232 XXYY=         -26220.1812 XXZZ=         -23277.3222 YYZZ=         -10650.3423
 XXYZ=            194.6678 YYXZ=          -3468.2770 ZZXY=          -1478.4469
 N-N= 1.131933136268D+04 E-N=-4.244436512009D+04  KE= 8.316033566251D+03
 Leave Link  601 at Fri Nov 14 00:18:27 2025, MaxMem= 30870077440 cpu:             279.1 elap:               5.3
 (Enter /public/software/gauss/g16/l9999.exe)
 1\1\GINC-CU137\SP\UM062X\def2TZVPP\C49H54B1Br2F2N3O12(1-,2)\BAIDING\14
 -Nov-2025\0\\#p M062X/DEF2TZVPP scrf=(solvent=water) em=GD3\\Energy ca
 lculation for BE_Br_reduced_i\\-1,2\B,0,-2.649553,-0.476388,0.862094\N
 ,0,-3.558255,-1.734856,0.822771\C,0,-3.144065,-3.021657,0.507026\C,0,-
 4.308102,-3.819025,0.520507\C,0,-5.432904,-3.039467,0.818372\C,0,-4.93
 7044,-1.712918,0.960478\C,0,-5.592839,-0.468406,1.24678\C,0,-6.923137,
 -0.222962,0.708687\O,0,-7.648319,-1.040613,0.13869\C,0,-8.589944,1.416
 995,0.250627\C,0,-8.584465,1.588416,-1.252\C,0,-7.397493,1.80703,-1.96
 4161\C,0,-7.423696,2.004883,-3.340553\C,0,-8.655305,1.989575,-3.996668
 \C,0,-9.854943,1.778809,-3.312455\C,0,-9.808404,1.576398,-1.939124\N,0
 ,-8.691164,2.197178,-5.437101\O,0,-7.623966,2.376404,-6.035296\O,0,-9.
 787971,2.187138,-6.008115\C,0,-4.803258,0.598893,1.813937\N,0,-3.43740
 2,0.658834,1.565811\C,0,-2.905176,1.750362,2.236874\C,0,-3.968119,2.32
 1318,2.961138\C,0,-5.161694,1.629164,2.716998\C,0,-6.475069,1.875015,3
 .393997\C,0,-1.569263,2.283871,2.160773\C,0,-0.614062,2.050514,1.22441
 5\C,0,0.719262,2.645661,1.1895\C,0,1.236499,3.49454,2.196017\C,0,2.506
 646,4.039605,2.09646\C,0,3.320184,3.754689,0.985487\O,0,4.556073,4.344
 326,0.985397\C,0,5.427428,4.104068,-0.128373\C,0,6.708062,4.885797,0.1
 07032\O,0,6.525943,6.294951,0.187342\C,0,6.232489,6.923164,-1.061989\C
 ,0,6.380628,8.424065,-0.886623\O,0,7.729154,8.805767,-0.599514\C,0,8.4
 11995,9.486697,-1.651256\C,0,8.737727,8.615458,-2.862655\O,0,9.423378,
 7.405443,-2.552021\C,0,10.757905,7.594731,-2.094098\C,0,2.839402,2.908
 824,-0.020969\C,0,1.557176,2.370481,0.092309\C,0,-6.803031,-3.575713,1
 .102895\C,0,-1.760086,-3.324498,0.242655\C,0,-1.270728,-4.40704,-0.417
 469\C,0,0.13852,-4.696046,-0.667043\C,0,0.474183,-5.810462,-1.458732\C
 ,0,1.796401,-6.144821,-1.75186\C,0,2.832996,-5.352884,-1.243941\O,0,4.
 165095,-5.578338,-1.464561\C,0,4.540517,-6.707499,-2.266616\C,0,6.0487
 28,-6.743983,-2.347959\O,0,6.570669,-7.053288,-1.057053\C,0,7.986556,-
 7.224656,-1.028432\C,0,8.73209,-5.889245,-0.945499\O,0,10.142344,-6.11
 4233,-0.857087\C,0,10.637233,-6.258589,0.475022\C,0,11.041705,-4.90351
 5,1.04705\O,0,11.53316,-5.118426,2.363403\C,0,11.94307,-3.910216,2.988
 438\C,0,2.525187,-4.237702,-0.444446\C,0,1.206895,-3.918391,-0.16191\F
 ,0,-1.493585,-0.759846,1.610946\F,0,-2.270847,-0.111026,-0.446448\H,0,
 -9.326997,0.665556,0.54311\H,0,-8.857297,2.36594,0.726006\H,0,-6.44807
 1,1.818649,-1.440959\H,0,-6.510754,2.171299,-3.898148\H,0,-10.794771,1
 .767946,-3.849577\H,0,-10.731077,1.403114,-1.393289\H,0,-7.09897,0.979
 209,3.390369\H,0,-6.311076,2.169525,4.435684\H,0,-7.048263,2.677742,2.
 91612\H,0,-1.361905,3.010852,2.942218\H,0,-0.838175,1.386685,0.396224\
 H,0,0.639552,3.728611,3.072135\H,0,2.895162,4.690986,2.873419\H,0,5.67
 0064,3.036204,-0.200779\H,0,4.936314,4.408294,-1.05984\H,0,7.146287,4.
 584169,1.063614\H,0,7.417572,4.629052,-0.693156\H,0,6.917241,6.553209,
 -1.83652\H,0,5.202952,6.706871,-1.382598\H,0,6.008515,8.930307,-1.7854
 96\H,0,5.761377,8.746183,-0.04003\H,0,7.827859,10.350607,-2.00281\H,0,
 9.329684,9.872331,-1.197042\H,0,7.816942,8.307817,-3.367725\H,0,9.3233
 13,9.222676,-3.571147\H,0,11.220269,6.605536,-2.042608\H,0,11.334068,8
 .221423,-2.789673\H,0,10.797526,8.049924,-1.096221\H,0,3.445654,2.6641
 7,-0.884825\H,0,1.19329,1.716761,-0.696264\H,0,-7.361324,-2.909426,1.7
 60569\H,0,-7.397702,-3.711199,0.192969\H,0,-6.725298,-4.553554,1.58905
 4\H,0,-1.064336,-2.575745,0.602408\H,0,-1.959195,-5.137739,-0.829864\H
 ,0,-0.323492,-6.43102,-1.859018\H,0,2.003303,-7.011442,-2.368049\H,0,4
 .162635,-7.632238,-1.814506\H,0,4.124426,-6.611321,-3.276651\H,0,6.338
 991,-7.517323,-3.074013\H,0,6.424036,-5.778451,-2.712284\H,0,8.204929,
 -7.822084,-0.137232\H,0,8.328356,-7.788696,-1.907583\H,0,8.566208,-5.2
 95837,-1.849907\H,0,8.364321,-5.310099,-0.089386\H,0,9.896274,-6.73506
 1,1.128864\H,0,11.512486,-6.914621,0.424543\H,0,11.815307,-4.446143,0.
 411108\H,0,10.177419,-4.221414,1.06433\H,0,12.301462,-4.164817,3.98915
 1\H,0,12.756074,-3.423417,2.430547\H,0,11.108701,-3.199515,3.077392\H,
 0,3.339915,-3.636615,-0.05243\H,0,1.00426,-3.055222,0.464394\O,0,-7.30
 3751,1.092216,0.792919\Br,0,-3.820345,3.844675,4.086695\Br,0,-4.380027
 ,-5.70678,0.322145\\Version=ES64L-G16RevA.03\State=2-A\HF=-8339.736710
 7\S2=0.775148\S2-1=0.\S2A=0.750524\RMSD=3.347e-09\Dipole=7.3954092,1.3
 695485,-1.5644257\Quadrupole=-7.0277904,21.3706234,-14.3428329,8.29242
 83,-62.6105701,2.0577476\PG=C01 [X(C49H54B1Br2F2N3O12)]\\@


 I do not feel obliged to believe that the same God who
 has endowed us with sense, reason, and intellect has
 intended us to forgo their use.
                   --Galileo Galilei
 Job cpu time:       2 days 12 hours 48 minutes  0.3 seconds.
 Elapsed time:       0 days  0 hours 57 minutes 52.4 seconds.
 File lengths (MBytes):  RWF=   9240 Int=      0 D2E=      0 Chk=    594 Scr=      1
 Normal termination of Gaussian 16 at Fri Nov 14 00:18:30 2025.
