 Entering Gaussian System, Link 0=g16
 Input=BE_Br_i_sp.gjf
 Output=BE_Br_i_sp.log
 Initial command:
 /public/software/gauss/g16/l1.exe "/public/home/baiding/1113_modified_sp/tmp_BE_Br_i_sp_1602077/Gau-264338.inp" -scrdir="/public/home/baiding/1113_modified_sp/tmp_BE_Br_i_sp_1602077/"
 Entering Link 1 = /public/software/gauss/g16/l1.exe PID=    264339.
  
 Copyright (c) 1988,1990,1992,1993,1995,1998,2003,2009,2016,
            Gaussian, Inc.  All Rights Reserved.
  
 This is part of the Gaussian(R) 16 program.  It is based on
 the Gaussian(R) 09 system (copyright 2009, Gaussian, Inc.),
 the Gaussian(R) 03 system (copyright 2003, Gaussian, Inc.),
 the Gaussian(R) 98 system (copyright 1998, Gaussian, Inc.),
 the Gaussian(R) 94 system (copyright 1995, Gaussian, Inc.),
 the Gaussian 92(TM) system (copyright 1992, Gaussian, Inc.),
 the Gaussian 90(TM) system (copyright 1990, Gaussian, Inc.),
 the Gaussian 88(TM) system (copyright 1988, Gaussian, Inc.),
 the Gaussian 86(TM) system (copyright 1986, Carnegie Mellon
 University), and the Gaussian 82(TM) system (copyright 1983,
 Carnegie Mellon University). Gaussian is a federally registered
 trademark of Gaussian, Inc.
  
 This software contains proprietary and confidential information,
 including trade secrets, belonging to Gaussian, Inc.
  
 This software is provided under written license and may be
 used, copied, transmitted, or stored only in accord with that
 written license.
  
 The following legend is applicable only to US Government
 contracts under FAR:
  
                    RESTRICTED RIGHTS LEGEND
  
 Use, reproduction and disclosure by the US Government is
 subject to restrictions as set forth in subparagraphs (a)
 and (c) of the Commercial Computer Software - Restricted
 Rights clause in FAR 52.227-19.
  
 Gaussian, Inc.
 340 Quinnipiac St., Bldg. 40, Wallingford CT 06492
  
  
 ---------------------------------------------------------------
 Warning -- This program may not be used in any manner that
 competes with the business of Gaussian, Inc. or will provide
 assistance to any competitor of Gaussian, Inc.  The licensee
 of this program is prohibited from giving any competitor of
 Gaussian, Inc. access to this program.  By using this program,
 the user acknowledges that Gaussian, Inc. is engaged in the
 business of creating and licensing software in the field of
 computational chemistry and represents and warrants to the
 licensee that it is not a competitor of Gaussian, Inc. and that
 it will not use this program in any manner prohibited above.
 ---------------------------------------------------------------
  

 Cite this work as:
 Gaussian 16, Revision A.03,
 M. J. Frisch, G. W. Trucks, H. B. Schlegel, G. E. Scuseria, 
 M. A. Robb, J. R. Cheeseman, G. Scalmani, V. Barone, 
 G. A. Petersson, H. Nakatsuji, X. Li, M. Caricato, A. V. Marenich, 
 J. Bloino, B. G. Janesko, R. Gomperts, B. Mennucci, H. P. Hratchian, 
 J. V. Ortiz, A. F. Izmaylov, J. L. Sonnenberg, D. Williams-Young, 
 F. Ding, F. Lipparini, F. Egidi, J. Goings, B. Peng, A. Petrone, 
 T. Henderson, D. Ranasinghe, V. G. Zakrzewski, J. Gao, N. Rega, 
 G. Zheng, W. Liang, M. Hada, M. Ehara, K. Toyota, R. Fukuda, 
 J. Hasegawa, M. Ishida, T. Nakajima, Y. Honda, O. Kitao, H. Nakai, 
 T. Vreven, K. Throssell, J. A. Montgomery, Jr., J. E. Peralta, 
 F. Ogliaro, M. J. Bearpark, J. J. Heyd, E. N. Brothers, K. N. Kudin, 
 V. N. Staroverov, T. A. Keith, R. Kobayashi, J. Normand, 
 K. Raghavachari, A. P. Rendell, J. C. Burant, S. S. Iyengar, 
 J. Tomasi, M. Cossi, J. M. Millam, M. Klene, C. Adamo, R. Cammi, 
 J. W. Ochterski, R. L. Martin, K. Morokuma, O. Farkas, 
 J. B. Foresman, and D. J. Fox, Gaussian, Inc., Wallingford CT, 2016.
 
 ******************************************
 Gaussian 16:  ES64L-G16RevA.03 25-Dec-2016
                13-Nov-2025 
 ******************************************
 %nprocshared=64
 Will use up to   64 processors via shared memory.
 %mem=230GB
 %chk=BE_Br_i_sp.chk
 ----------------------------------------------
 #p M062X/DEF2TZVPP scrf=(solvent=water) em=GD3
 ----------------------------------------------
 1/38=1,172=1/1;
 2/12=2,17=6,18=5,40=1/2;
 3/5=44,7=202,11=2,25=1,30=1,70=2201,72=1,74=-55,124=31/1,2,3;
 4//1;
 5/5=2,38=5,53=1/2;
 6/7=2,8=2,9=2,10=2,28=1/1;
 99/5=1,9=1/99;
 Leave Link    1 at Thu Nov 13 22:48:03 2025, MaxMem= 30870077440 cpu:              10.0 elap:               0.2
 (Enter /public/software/gauss/g16/l101.exe)
 ------------------------------
 Energy calculation for BE_Br_i
 ------------------------------
 Symbolic Z-matrix:
 Charge =  0 Multiplicity = 1
 B                    -2.30381   0.63913   0.46085 
 N                    -3.46093  -0.40082   0.42679 
 C                    -3.31494  -1.72931   0.13657 
 C                    -4.63141  -2.2694    0.01254 
 C                    -5.57429  -1.27155   0.21717 
 C                    -4.81362  -0.08678   0.47719 
 C                    -5.21819   1.22632   0.75308 
 C                    -6.68848   1.52879   0.89432 
 O                    -7.33756   1.25264   1.88579 
 C                    -8.56424   2.5837   -0.16352 
 C                    -9.49391   1.4836   -0.60917 
 C                    -9.56516   1.13731  -1.96735 
 C                    -10.40872   0.11867  -2.39573 
 C                    -11.18426  -0.54504  -1.44355 
 C                    -11.13944  -0.22145  -0.08755 
 C                    -10.28428   0.79681   0.32272 
 N                    -12.07688  -1.61491  -1.88321 
 O                    -12.11516  -1.8912   -3.08627 
 O                    -12.75606  -2.19996  -1.03372 
 C                    -4.29044   2.25636   0.9616 
 N                    -2.91913   2.02539   0.81557 
 C                    -2.24539   3.17399   1.12978 
 C                    -3.22683   4.14161   1.5027 
 C                    -4.49835   3.60699   1.39446 
 C                    -5.7898    4.30218   1.68583 
 C                    -0.83231   3.4323    1.11568 
 C                     0.1529    2.7428    0.47943 
 C                     1.57109   3.05968   0.50556 
 C                     2.13524   4.12095   1.25378 
 C                     3.49651   4.3638    1.2343 
 C                     4.35457   3.55287   0.46591 
 O                     5.67668   3.87457   0.52224 
 C                     6.61225   3.09351  -0.24028 
 C                     8.        3.64724   0.03039 
 O                     8.17566   4.99872  -0.37855 
 C                     8.33695   5.17057  -1.7876 
 C                     8.75808   6.6059   -2.04638 
 O                     10.03621   6.90464  -1.47718 
 C                     11.09953   7.0862   -2.41123 
 C                     11.53788   5.81096  -3.12828 
 O                     11.84234   4.72084  -2.26285 
 C                     13.01136   4.91397  -1.47401 
 C                     3.82281   2.49487  -0.28411 
 C                     2.44993   2.26354  -0.25536 
 C                    -7.06112  -1.41807   0.17816 
 C                    -2.00737  -2.3234    0.04622 
 C                    -1.69203  -3.50097  -0.55447 
 C                    -0.36352  -4.08564  -0.6536 
 C                    -0.21357  -5.30626  -1.3398 
 C                     1.02442  -5.9285   -1.48231 
 C                     2.16134  -5.32578  -0.92733 
 O                     3.42315  -5.83483  -1.00292 
 C                     3.62338  -7.08112  -1.69052 
 C                     5.09475  -7.41623  -1.62618 
 O                     5.43902  -7.71361  -0.27457 
 C                     6.80814  -8.0721   -0.09101 
 C                     7.71187  -6.84212   0.03395 
 O                     9.06606  -7.24119   0.26542 
 C                     9.41213  -7.39701   1.64232 
 C                     9.92835  -6.0821    2.21842 
 O                     10.279   -6.31238   3.57653 
 C                     10.77445  -5.14125   4.21019 
 C                     2.03682  -4.10529  -0.23598 
 C                     0.80069  -3.49889  -0.10279 
 F                    -1.35994   0.2819    1.42845 
 F                    -1.69609   0.67543  -0.80396 
 H                    -8.80326   2.93206   0.841 
 H                    -8.58213   3.42101  -0.86135 
 H                    -8.95917   1.67145  -2.69255 
 H                    -10.47324  -0.15536  -3.4409 
 H                    -11.75741  -0.75565   0.62272 
 H                    -10.2296   1.06063   1.37352 
 H                    -6.41884   3.71826   2.36298 
 H                    -5.60096   5.26812   2.15771 
 H                    -6.36118   4.48352   0.76968 
 H                    -0.56561   4.33262   1.66067 
 H                    -0.11097   1.8914   -0.13672 
 H                     1.50195   4.76168   1.85898 
 H                     3.92717   5.1774    1.8093 
 H                     6.57748   2.04426   0.07713 
 H                     6.35577   3.14315  -1.3044 
 H                     8.19107   3.62882   1.10809 
 H                     8.73357   2.99124  -0.46005 
 H                     9.09348   4.46911  -2.16385 
 H                     7.39537   4.97854  -2.32273 
 H                     8.75082   6.79447  -3.12674 
 H                     8.02726   7.28079  -1.5834 
 H                     10.82633   7.828    -3.17687 
 H                     11.92667   7.50324  -1.8289 
 H                     10.73875   5.44951  -3.78278 
 H                     12.40526   6.05829  -3.7609 
 H                     13.2228   3.9623   -0.97944 
 H                     13.87352   5.19047  -2.09758 
 H                     12.87387   5.68372  -0.70385 
 H                     4.46098   1.85601  -0.88199 
 H                     2.0432    1.44129  -0.83778 
 H                    -7.50228  -1.2968    1.17211 
 H                    -7.51625  -0.67393  -0.48152 
 H                    -7.33663  -2.40594  -0.19502 
 H                    -1.21778  -1.72992   0.49179 
 H                    -2.47393  -4.07947  -1.03513 
 H                    -1.09144  -5.77795  -1.77302 
 H                     1.09255  -6.86682  -2.01886 
 H                     3.02998  -7.86997  -1.21386 
 H                     3.31625  -6.98792  -2.73862 
 H                     5.28175  -8.28761  -2.2706 
 H                     5.68291  -6.57451  -2.015 
 H                     6.85196  -8.65611   0.83412 
 H                     7.15795  -8.7118   -0.91318 
 H                     7.71055  -6.26485  -0.89569 
 H                     7.34362  -6.19073   0.83611 
 H                     8.55983  -7.75643   2.23228 
 H                     10.19995  -8.15587   1.69237 
 H                     10.80218  -5.74106   1.64207 
 H                     9.15518  -5.30128   2.14632 
 H                     11.01782  -5.40581   5.24239 
 H                     11.68149  -4.76741   3.71349 
 H                     10.02416  -4.33738   4.21432 
 H                     2.92851  -3.65376   0.18717 
 H                     0.73836  -2.55791   0.43424 
 O                    -7.16482   2.14362  -0.19408 
 Br                   -2.82771   5.91804   2.01883 
 Br                   -5.07162  -4.08822  -0.2751 
 
 ITRead=  0  0  0  0  0  0  0  0  0  0  0  0  0  0  0  0  0  0  0  0
 ITRead=  0  0  0  0  0  0  0  0  0  0  0  0  0  0  0  0  0  0  0  0
 ITRead=  0  0  0  0  0  0  0  0  0  0  0  0  0  0  0  0  0  0  0  0
 ITRead=  0  0  0  0  0  0  0  0  0  0  0  0  0  0  0  0  0  0  0  0
 ITRead=  0  0  0  0  0  0  0  0  0  0  0  0  0  0  0  0  0  0  0  0
 ITRead=  0  0  0  0  0  0  0  0  0  0  0  0  0  0  0  0  0  0  0  0
 ITRead=  0  0  0
 MicOpt= -1 -1 -1 -1 -1 -1 -1 -1 -1 -1 -1 -1 -1 -1 -1 -1 -1 -1 -1 -1
 MicOpt= -1 -1 -1 -1 -1 -1 -1 -1 -1 -1 -1 -1 -1 -1 -1 -1 -1 -1 -1 -1
 MicOpt= -1 -1 -1 -1 -1 -1 -1 -1 -1 -1 -1 -1 -1 -1 -1 -1 -1 -1 -1 -1
 MicOpt= -1 -1 -1 -1 -1 -1 -1 -1 -1 -1 -1 -1 -1 -1 -1 -1 -1 -1 -1 -1
 MicOpt= -1 -1 -1 -1 -1 -1 -1 -1 -1 -1 -1 -1 -1 -1 -1 -1 -1 -1 -1 -1
 MicOpt= -1 -1 -1 -1 -1 -1 -1 -1 -1 -1 -1 -1 -1 -1 -1 -1 -1 -1 -1 -1
 MicOpt= -1 -1 -1
 NAtoms=    123 NQM=      123 NQMF=       0 NMMI=      0 NMMIF=      0
                NMic=       0 NMicF=      0.
                    Isotopes and Nuclear Properties:
 (Nuclear quadrupole moments (NQMom) in fm**2, nuclear magnetic moments (NMagM)
  in nuclear magnetons)

  Atom         1           2           3           4           5           6           7           8           9          10
 IAtWgt=          11          14          12          12          12          12          12          12          16          12
 AtmWgt=  11.0093053  14.0030740  12.0000000  12.0000000  12.0000000  12.0000000  12.0000000  12.0000000  15.9949146  12.0000000
 NucSpn=           3           2           0           0           0           0           0           0           0           0
 AtZEff=  -0.0000000  -0.0000000  -0.0000000  -0.0000000  -0.0000000  -0.0000000  -0.0000000  -0.0000000  -0.0000000  -0.0000000
 NQMom=    4.0590000   2.0440000   0.0000000   0.0000000   0.0000000   0.0000000   0.0000000   0.0000000   0.0000000   0.0000000
 NMagM=    2.6886370   0.4037610   0.0000000   0.0000000   0.0000000   0.0000000   0.0000000   0.0000000   0.0000000   0.0000000
 AtZNuc=   5.0000000   7.0000000   6.0000000   6.0000000   6.0000000   6.0000000   6.0000000   6.0000000   8.0000000   6.0000000

  Atom        11          12          13          14          15          16          17          18          19          20
 IAtWgt=          12          12          12          12          12          12          14          16          16          12
 AtmWgt=  12.0000000  12.0000000  12.0000000  12.0000000  12.0000000  12.0000000  14.0030740  15.9949146  15.9949146  12.0000000
 NucSpn=           0           0           0           0           0           0           2           0           0           0
 AtZEff=  -0.0000000  -0.0000000  -0.0000000  -0.0000000  -0.0000000  -0.0000000  -0.0000000  -0.0000000  -0.0000000  -0.0000000
 NQMom=    0.0000000   0.0000000   0.0000000   0.0000000   0.0000000   0.0000000   2.0440000   0.0000000   0.0000000   0.0000000
 NMagM=    0.0000000   0.0000000   0.0000000   0.0000000   0.0000000   0.0000000   0.4037610   0.0000000   0.0000000   0.0000000
 AtZNuc=   6.0000000   6.0000000   6.0000000   6.0000000   6.0000000   6.0000000   7.0000000   8.0000000   8.0000000   6.0000000

  Atom        21          22          23          24          25          26          27          28          29          30
 IAtWgt=          14          12          12          12          12          12          12          12          12          12
 AtmWgt=  14.0030740  12.0000000  12.0000000  12.0000000  12.0000000  12.0000000  12.0000000  12.0000000  12.0000000  12.0000000
 NucSpn=           2           0           0           0           0           0           0           0           0           0
 AtZEff=  -0.0000000  -0.0000000  -0.0000000  -0.0000000  -0.0000000  -0.0000000  -0.0000000  -0.0000000  -0.0000000  -0.0000000
 NQMom=    2.0440000   0.0000000   0.0000000   0.0000000   0.0000000   0.0000000   0.0000000   0.0000000   0.0000000   0.0000000
 NMagM=    0.4037610   0.0000000   0.0000000   0.0000000   0.0000000   0.0000000   0.0000000   0.0000000   0.0000000   0.0000000
 AtZNuc=   7.0000000   6.0000000   6.0000000   6.0000000   6.0000000   6.0000000   6.0000000   6.0000000   6.0000000   6.0000000

  Atom        31          32          33          34          35          36          37          38          39          40
 IAtWgt=          12          16          12          12          16          12          12          16          12          12
 AtmWgt=  12.0000000  15.9949146  12.0000000  12.0000000  15.9949146  12.0000000  12.0000000  15.9949146  12.0000000  12.0000000
 NucSpn=           0           0           0           0           0           0           0           0           0           0
 AtZEff=  -0.0000000  -0.0000000  -0.0000000  -0.0000000  -0.0000000  -0.0000000  -0.0000000  -0.0000000  -0.0000000  -0.0000000
 NQMom=    0.0000000   0.0000000   0.0000000   0.0000000   0.0000000   0.0000000   0.0000000   0.0000000   0.0000000   0.0000000
 NMagM=    0.0000000   0.0000000   0.0000000   0.0000000   0.0000000   0.0000000   0.0000000   0.0000000   0.0000000   0.0000000
 AtZNuc=   6.0000000   8.0000000   6.0000000   6.0000000   8.0000000   6.0000000   6.0000000   8.0000000   6.0000000   6.0000000

  Atom        41          42          43          44          45          46          47          48          49          50
 IAtWgt=          16          12          12          12          12          12          12          12          12          12
 AtmWgt=  15.9949146  12.0000000  12.0000000  12.0000000  12.0000000  12.0000000  12.0000000  12.0000000  12.0000000  12.0000000
 NucSpn=           0           0           0           0           0           0           0           0           0           0
 AtZEff=  -0.0000000  -0.0000000  -0.0000000  -0.0000000  -0.0000000  -0.0000000  -0.0000000  -0.0000000  -0.0000000  -0.0000000
 NQMom=    0.0000000   0.0000000   0.0000000   0.0000000   0.0000000   0.0000000   0.0000000   0.0000000   0.0000000   0.0000000
 NMagM=    0.0000000   0.0000000   0.0000000   0.0000000   0.0000000   0.0000000   0.0000000   0.0000000   0.0000000   0.0000000
 AtZNuc=   8.0000000   6.0000000   6.0000000   6.0000000   6.0000000   6.0000000   6.0000000   6.0000000   6.0000000   6.0000000

  Atom        51          52          53          54          55          56          57          58          59          60
 IAtWgt=          12          16          12          12          16          12          12          16          12          12
 AtmWgt=  12.0000000  15.9949146  12.0000000  12.0000000  15.9949146  12.0000000  12.0000000  15.9949146  12.0000000  12.0000000
 NucSpn=           0           0           0           0           0           0           0           0           0           0
 AtZEff=  -0.0000000  -0.0000000  -0.0000000  -0.0000000  -0.0000000  -0.0000000  -0.0000000  -0.0000000  -0.0000000  -0.0000000
 NQMom=    0.0000000   0.0000000   0.0000000   0.0000000   0.0000000   0.0000000   0.0000000   0.0000000   0.0000000   0.0000000
 NMagM=    0.0000000   0.0000000   0.0000000   0.0000000   0.0000000   0.0000000   0.0000000   0.0000000   0.0000000   0.0000000
 AtZNuc=   6.0000000   8.0000000   6.0000000   6.0000000   8.0000000   6.0000000   6.0000000   8.0000000   6.0000000   6.0000000

  Atom        61          62          63          64          65          66          67          68          69          70
 IAtWgt=          16          12          12          12          19          19           1           1           1           1
 AtmWgt=  15.9949146  12.0000000  12.0000000  12.0000000  18.9984033  18.9984033   1.0078250   1.0078250   1.0078250   1.0078250
 NucSpn=           0           0           0           0           1           1           1           1           1           1
 AtZEff=  -0.0000000  -0.0000000  -0.0000000  -0.0000000  -0.0000000  -0.0000000  -0.0000000  -0.0000000  -0.0000000  -0.0000000
 NQMom=    0.0000000   0.0000000   0.0000000   0.0000000   0.0000000   0.0000000   0.0000000   0.0000000   0.0000000   0.0000000
 NMagM=    0.0000000   0.0000000   0.0000000   0.0000000   2.6288670   2.6288670   2.7928460   2.7928460   2.7928460   2.7928460
 AtZNuc=   8.0000000   6.0000000   6.0000000   6.0000000   9.0000000   9.0000000   1.0000000   1.0000000   1.0000000   1.0000000

  Atom        71          72          73          74          75          76          77          78          79          80
 IAtWgt=           1           1           1           1           1           1           1           1           1           1
 AtmWgt=   1.0078250   1.0078250   1.0078250   1.0078250   1.0078250   1.0078250   1.0078250   1.0078250   1.0078250   1.0078250
 NucSpn=           1           1           1           1           1           1           1           1           1           1
 AtZEff=  -0.0000000  -0.0000000  -0.0000000  -0.0000000  -0.0000000  -0.0000000  -0.0000000  -0.0000000  -0.0000000  -0.0000000
 NQMom=    0.0000000   0.0000000   0.0000000   0.0000000   0.0000000   0.0000000   0.0000000   0.0000000   0.0000000   0.0000000
 NMagM=    2.7928460   2.7928460   2.7928460   2.7928460   2.7928460   2.7928460   2.7928460   2.7928460   2.7928460   2.7928460
 AtZNuc=   1.0000000   1.0000000   1.0000000   1.0000000   1.0000000   1.0000000   1.0000000   1.0000000   1.0000000   1.0000000

  Atom        81          82          83          84          85          86          87          88          89          90
 IAtWgt=           1           1           1           1           1           1           1           1           1           1
 AtmWgt=   1.0078250   1.0078250   1.0078250   1.0078250   1.0078250   1.0078250   1.0078250   1.0078250   1.0078250   1.0078250
 NucSpn=           1           1           1           1           1           1           1           1           1           1
 AtZEff=  -0.0000000  -0.0000000  -0.0000000  -0.0000000  -0.0000000  -0.0000000  -0.0000000  -0.0000000  -0.0000000  -0.0000000
 NQMom=    0.0000000   0.0000000   0.0000000   0.0000000   0.0000000   0.0000000   0.0000000   0.0000000   0.0000000   0.0000000
 NMagM=    2.7928460   2.7928460   2.7928460   2.7928460   2.7928460   2.7928460   2.7928460   2.7928460   2.7928460   2.7928460
 AtZNuc=   1.0000000   1.0000000   1.0000000   1.0000000   1.0000000   1.0000000   1.0000000   1.0000000   1.0000000   1.0000000

  Atom        91          92          93          94          95          96          97          98          99         100
 IAtWgt=           1           1           1           1           1           1           1           1           1           1
 AtmWgt=   1.0078250   1.0078250   1.0078250   1.0078250   1.0078250   1.0078250   1.0078250   1.0078250   1.0078250   1.0078250
 NucSpn=           1           1           1           1           1           1           1           1           1           1
 AtZEff=  -0.0000000  -0.0000000  -0.0000000  -0.0000000  -0.0000000  -0.0000000  -0.0000000  -0.0000000  -0.0000000  -0.0000000
 NQMom=    0.0000000   0.0000000   0.0000000   0.0000000   0.0000000   0.0000000   0.0000000   0.0000000   0.0000000   0.0000000
 NMagM=    2.7928460   2.7928460   2.7928460   2.7928460   2.7928460   2.7928460   2.7928460   2.7928460   2.7928460   2.7928460
 AtZNuc=   1.0000000   1.0000000   1.0000000   1.0000000   1.0000000   1.0000000   1.0000000   1.0000000   1.0000000   1.0000000

  Atom       101         102         103         104         105         106         107         108         109         110
 IAtWgt=           1           1           1           1           1           1           1           1           1           1
 AtmWgt=   1.0078250   1.0078250   1.0078250   1.0078250   1.0078250   1.0078250   1.0078250   1.0078250   1.0078250   1.0078250
 NucSpn=           1           1           1           1           1           1           1           1           1           1
 AtZEff=  -0.0000000  -0.0000000  -0.0000000  -0.0000000  -0.0000000  -0.0000000  -0.0000000  -0.0000000  -0.0000000  -0.0000000
 NQMom=    0.0000000   0.0000000   0.0000000   0.0000000   0.0000000   0.0000000   0.0000000   0.0000000   0.0000000   0.0000000
 NMagM=    2.7928460   2.7928460   2.7928460   2.7928460   2.7928460   2.7928460   2.7928460   2.7928460   2.7928460   2.7928460
 AtZNuc=   1.0000000   1.0000000   1.0000000   1.0000000   1.0000000   1.0000000   1.0000000   1.0000000   1.0000000   1.0000000

  Atom       111         112         113         114         115         116         117         118         119         120
 IAtWgt=           1           1           1           1           1           1           1           1           1           1
 AtmWgt=   1.0078250   1.0078250   1.0078250   1.0078250   1.0078250   1.0078250   1.0078250   1.0078250   1.0078250   1.0078250
 NucSpn=           1           1           1           1           1           1           1           1           1           1
 AtZEff=  -0.0000000  -0.0000000  -0.0000000  -0.0000000  -0.0000000  -0.0000000  -0.0000000  -0.0000000  -0.0000000  -0.0000000
 NQMom=    0.0000000   0.0000000   0.0000000   0.0000000   0.0000000   0.0000000   0.0000000   0.0000000   0.0000000   0.0000000
 NMagM=    2.7928460   2.7928460   2.7928460   2.7928460   2.7928460   2.7928460   2.7928460   2.7928460   2.7928460   2.7928460
 AtZNuc=   1.0000000   1.0000000   1.0000000   1.0000000   1.0000000   1.0000000   1.0000000   1.0000000   1.0000000   1.0000000

  Atom       121         122         123
 IAtWgt=          16          79          79
 AtmWgt=  15.9949146  78.9183361  78.9183361
 NucSpn=           0           3           3
 AtZEff=  -0.0000000  -0.0000000  -0.0000000
 NQMom=    0.0000000  31.3000000  31.3000000
 NMagM=    0.0000000   2.1063990   2.1063990
 AtZNuc=   8.0000000  35.0000000  35.0000000
 Leave Link  101 at Thu Nov 13 22:48:03 2025, MaxMem= 30870077440 cpu:               4.7 elap:               0.1
 (Enter /public/software/gauss/g16/l202.exe)
 Stoichiometry    C49H54BBr2F2N3O12
 Framework group  C1[X(C49H54BBr2F2N3O12)]
 Deg. of freedom   363
 Full point group                 C1      NOp   1
 Largest Abelian subgroup         C1      NOp   1
 Largest concise Abelian subgroup C1      NOp   1
                         Standard orientation:                         
 ---------------------------------------------------------------------
 Center     Atomic      Atomic             Coordinates (Angstroms)
 Number     Number       Type             X           Y           Z
 ---------------------------------------------------------------------
      1          5           0        2.303810   -0.639133    0.460850
      2          7           0        3.460933    0.400816    0.426789
      3          6           0        3.314944    1.729311    0.136570
      4          6           0        4.631406    2.269395    0.012543
      5          6           0        5.574294    1.271547    0.217165
      6          6           0        4.813621    0.086783    0.477191
      7          6           0        5.218185   -1.226321    0.753076
      8          6           0        6.688478   -1.528792    0.894317
      9          8           0        7.337562   -1.252642    1.885792
     10          6           0        8.564245   -2.583703   -0.163517
     11          6           0        9.493913   -1.483597   -0.609167
     12          6           0        9.565160   -1.137307   -1.967346
     13          6           0       10.408715   -0.118667   -2.395728
     14          6           0       11.184255    0.545040   -1.443545
     15          6           0       11.139441    0.221451   -0.087549
     16          6           0       10.284283   -0.796806    0.322723
     17          7           0       12.076882    1.614905   -1.883210
     18          8           0       12.115157    1.891195   -3.086273
     19          8           0       12.756057    2.199962   -1.033723
     20          6           0        4.290443   -2.256356    0.961599
     21          7           0        2.919134   -2.025392    0.815574
     22          6           0        2.245391   -3.173985    1.129778
     23          6           0        3.226828   -4.141607    1.502695
     24          6           0        4.498354   -3.606993    1.394458
     25          6           0        5.789800   -4.302178    1.685831
     26          6           0        0.832308   -3.432296    1.115676
     27          6           0       -0.152903   -2.742797    0.479429
     28          6           0       -1.571093   -3.059679    0.505558
     29          6           0       -2.135238   -4.120948    1.253784
     30          6           0       -3.496514   -4.363796    1.234304
     31          6           0       -4.354568   -3.552865    0.465910
     32          8           0       -5.676683   -3.874570    0.522244
     33          6           0       -6.612245   -3.093508   -0.240279
     34          6           0       -7.999998   -3.647237    0.030390
     35          8           0       -8.175658   -4.998719   -0.378548
     36          6           0       -8.336953   -5.170574   -1.787597
     37          6           0       -8.758081   -6.605905   -2.046385
     38          8           0      -10.036211   -6.904644   -1.477182
     39          6           0      -11.099529   -7.086203   -2.411233
     40          6           0      -11.537879   -5.810958   -3.128281
     41          8           0      -11.842338   -4.720840   -2.262852
     42          6           0      -13.011362   -4.913966   -1.474011
     43          6           0       -3.822812   -2.494871   -0.284107
     44          6           0       -2.449925   -2.263537   -0.255357
     45          6           0        7.061115    1.418071    0.178160
     46          6           0        2.007370    2.323397    0.046222
     47          6           0        1.692033    3.500969   -0.554474
     48          6           0        0.363517    4.085641   -0.653597
     49          6           0        0.213568    5.306264   -1.339798
     50          6           0       -1.024418    5.928500   -1.482311
     51          6           0       -2.161335    5.325776   -0.927330
     52          8           0       -3.423153    5.834830   -1.002923
     53          6           0       -3.623375    7.081122   -1.690523
     54          6           0       -5.094749    7.416231   -1.626183
     55          8           0       -5.439023    7.713608   -0.274566
     56          6           0       -6.808142    8.072104   -0.091013
     57          6           0       -7.711871    6.842117    0.033947
     58          8           0       -9.066059    7.241191    0.265419
     59          6           0       -9.412133    7.397009    1.642317
     60          6           0       -9.928348    6.082099    2.218415
     61          8           0      -10.278999    6.312385    3.576534
     62          6           0      -10.774453    5.141254    4.210189
     63          6           0       -2.036823    4.105295   -0.235981
     64          6           0       -0.800693    3.498893   -0.102785
     65          9           0        1.359939   -0.281898    1.428448
     66          9           0        1.696094   -0.675428   -0.803956
     67          1           0        8.803262   -2.932058    0.841000
     68          1           0        8.582132   -3.421006   -0.861353
     69          1           0        8.959170   -1.671446   -2.692545
     70          1           0       10.473236    0.155357   -3.440898
     71          1           0       11.757405    0.755649    0.622716
     72          1           0       10.229599   -1.060629    1.373515
     73          1           0        6.418844   -3.718264    2.362979
     74          1           0        5.600955   -5.268116    2.157706
     75          1           0        6.361176   -4.483518    0.769679
     76          1           0        0.565608   -4.332619    1.660672
     77          1           0        0.110966   -1.891398   -0.136724
     78          1           0       -1.501951   -4.761683    1.858979
     79          1           0       -3.927167   -5.177403    1.809302
     80          1           0       -6.577484   -2.044257    0.077129
     81          1           0       -6.355769   -3.143147   -1.304402
     82          1           0       -8.191068   -3.628824    1.108089
     83          1           0       -8.733568   -2.991235   -0.460047
     84          1           0       -9.093481   -4.469109   -2.163852
     85          1           0       -7.395370   -4.978542   -2.322733
     86          1           0       -8.750821   -6.794468   -3.126743
     87          1           0       -8.027256   -7.280792   -1.583401
     88          1           0      -10.826331   -7.828004   -3.176866
     89          1           0      -11.926670   -7.503237   -1.828904
     90          1           0      -10.738747   -5.449515   -3.782777
     91          1           0      -12.405263   -6.058288   -3.760896
     92          1           0      -13.222802   -3.962299   -0.979436
     93          1           0      -13.873517   -5.190472   -2.097583
     94          1           0      -12.873872   -5.683716   -0.703851
     95          1           0       -4.460976   -1.856006   -0.881988
     96          1           0       -2.043204   -1.441293   -0.837777
     97          1           0        7.502281    1.296797    1.172107
     98          1           0        7.516251    0.673926   -0.481520
     99          1           0        7.336629    2.405943   -0.195023
    100          1           0        1.217784    1.729923    0.491790
    101          1           0        2.473930    4.079468   -1.035130
    102          1           0        1.091436    5.777946   -1.773016
    103          1           0       -1.092545    6.866817   -2.018864
    104          1           0       -3.029984    7.869966   -1.213864
    105          1           0       -3.316249    6.987916   -2.738618
    106          1           0       -5.281747    8.287614   -2.270604
    107          1           0       -5.682907    6.574510   -2.015001
    108          1           0       -6.851962    8.656108    0.834119
    109          1           0       -7.157949    8.711798   -0.913175
    110          1           0       -7.710547    6.264849   -0.895690
    111          1           0       -7.343617    6.190731    0.836107
    112          1           0       -8.559825    7.756432    2.232277
    113          1           0      -10.199948    8.155868    1.692369
    114          1           0      -10.802184    5.741062    1.642067
    115          1           0       -9.155182    5.301284    2.146320
    116          1           0      -11.017821    5.405809    5.242393
    117          1           0      -11.681494    4.767414    3.713488
    118          1           0      -10.024158    4.337376    4.214315
    119          1           0       -2.928507    3.653758    0.187167
    120          1           0       -0.738361    2.557910    0.434236
    121          8           0        7.164821   -2.143618   -0.194084
    122         35           0        2.827714   -5.918041    2.018830
    123         35           0        5.071615    4.088224   -0.275103
 ---------------------------------------------------------------------
 Rotational constants (GHZ):           0.0216138           0.0094796           0.0070134
 Leave Link  202 at Thu Nov 13 22:48:03 2025, MaxMem= 30870077440 cpu:               0.2 elap:               0.0
 (Enter /public/software/gauss/g16/l301.exe)
 Standard basis: def2TZVPP (5D, 7F)
 Ernie: Thresh=  0.10000D-02 Tol=  0.10000D-05 Strict=F.
 There are  3332 symmetry adapted cartesian basis functions of A   symmetry.
 There are  2929 symmetry adapted basis functions of A   symmetry.
  2929 basis functions,  4563 primitive gaussians,  3332 cartesian basis functions
   279 alpha electrons      279 beta electrons
       nuclear repulsion energy     11306.1877190622 Hartrees.
 IExCor= 4336 DFT=T Ex+Corr=M062X ExCW=0 ScaHFX=  0.540000
 ScaDFX=  1.000000  1.000000  1.000000  1.000000 ScalE2=  1.000000  1.000000
 IRadAn=      5 IRanWt=     -1 IRanGd=            0 ICorTp=0 IEmpDi=131
 NAtoms=  123 NActive=  123 NUniq=  123 SFac= 1.00D+00 NAtFMM=   60 NAOKFM=T Big=T
 Integral buffers will be    131072 words long.
 Raffenetti 2 integral format.
 Two-electron integral symmetry is turned on.
 R6Disp:  Grimme-D3 Dispersion energy=       -0.0102506543 Hartrees.
 Nuclear repulsion after empirical dispersion term =    11306.1774684079 Hartrees.
 ------------------------------------------------------------------------------
 Polarizable Continuum Model (PCM)
 =================================
 Model                : PCM.
 Atomic radii         : UFF (Universal Force Field).
 Polarization charges : Total charges.
 Charge compensation  : None.
 Solution method      : On-the-fly selection.
 Cavity type          : Scaled VdW (van der Waals Surface) (Alpha=1.100).
 Cavity algorithm     : GePol (No added spheres)
                        Default sphere list used, NSphG=  123.
                        Lebedev-Laikov grids with approx.  5.0 points / Ang**2.
                        Smoothing algorithm: York/Karplus (Gamma=1.0000).
                        Polarization charges: spherical gaussians, with
                                              point-specific exponents (IZeta= 3).
                        Self-potential: point-specific (ISelfS= 7).
                        Self-field    : sphere-specific E.n sum rule (ISelfD= 2).
 Solvent              : Water, Eps=  78.355300 Eps(inf)=   1.777849
 ------------------------------------------------------------------------------
 GePol: Number of generator spheres                  =     123
 GePol: Total number of spheres                      =     123
 GePol: Number of exposed spheres                    =     123 (100.00%)
 GePol: Number of points                             =    8902
 GePol: Average weight of points                     =       0.13
 GePol: Minimum weight of points                     =   0.17D-10
 GePol: Maximum weight of points                     =    0.20577
 GePol: Number of points with low weight             =     553
 GePol: Fraction of low-weight points (<1% of avg)   =       6.21%
 GePol: Cavity surface area                          =   1142.235 Ang**2
 GePol: Cavity volume                                =   1305.578 Ang**3
 Leave Link  301 at Thu Nov 13 22:48:03 2025, MaxMem= 30870077440 cpu:               5.4 elap:               0.1
 (Enter /public/software/gauss/g16/l302.exe)
 NPDir=0 NMtPBC=     1 NCelOv=     1 NCel=       1 NClECP=     1 NCelD=      1
         NCelK=      1 NCelE2=     1 NClLst=     1 CellRange=     0.0.
 One-electron integrals computed using PRISM.
 One-electron integral symmetry used in STVInt
   1 Symmetry operations used in ECPInt.
 ECPInt:  NShTT=  597871 NPrTT= 1713943 LenC2=  249523 LenP2D=  468118.
 LDataN:  DoStor=T MaxTD1= 6 Len=  172
 Number of processors reduced to  57 by ecpmxn.
 NBasis=  2929 RedAO= T EigKep=  5.23D-06  NBF=  2929
 NBsUse=  2929 1.00D-06 EigRej= -1.00D+00 NBFU=  2929
 Precomputing XC quadrature grid using
 IXCGrd= 4 IRadAn=           5 IRanWt=          -1 IRanGd=           0 AccXCQ= 0.00D+00.
 Generated NRdTot=       0 NPtTot=           0 NUsed=           0 NTot=          32
 NSgBfM=  2510  2510  2510  2510  2510 MxSgAt=   123 MxSgA2=   123.
 Leave Link  302 at Thu Nov 13 22:48:36 2025, MaxMem= 30870077440 cpu:            2052.8 elap:              32.2
 (Enter /public/software/gauss/g16/l303.exe)
 DipDrv:  MaxL=1.
 Leave Link  303 at Thu Nov 13 22:48:37 2025, MaxMem= 30870077440 cpu:              58.3 elap:               1.0
 (Enter /public/software/gauss/g16/l401.exe)
 ExpMin= 6.06D-02 ExpMax= 5.65D+05 ExpMxC= 5.46D+03 IAcc=3 IRadAn=         5 AccDes= 0.00D+00
 Harris functional with IExCor= 1009 and IRadAn=       5 diagonalized for initial guess.
 HarFok:  IExCor= 1009 AccDes= 0.00D+00 IRadAn=         5 IDoV= 1 UseB2=F ITyADJ=14
 ICtDFT=  3500011 ScaDFX=  1.000000  1.000000  1.000000  1.000000
 FoFCou: FMM=F IPFlag=           0 FMFlag=      100000 FMFlg1=        2001
         NFxFlg=           0 DoJE=T BraDBF=F KetDBF=T FulRan=T
         wScrn=  0.000000 ICntrl=       500 IOpCl=  0 I1Cent=   200000004 NGrid=           0
         NMat0=    1 NMatS0=      1 NMatT0=    0 NMatD0=    1 NMtDS0=    0 NMtDT0=    0
 Petite list used in FoFCou.
 Harris En= -8337.05921036610    
 JPrj=0 DoOrth=F DoCkMO=F.
 Leave Link  401 at Thu Nov 13 22:49:01 2025, MaxMem= 30870077440 cpu:            1563.6 elap:              24.6
 (Enter /public/software/gauss/g16/l502.exe)
 Integral symmetry usage will be decided dynamically.
 Closed shell SCF:
 Using DIIS extrapolation, IDIIS=  1040.
 NGot= 30870077440 LenX= 30847631745 LenY= 30836526189
 Requested convergence on RMS density matrix=1.00D-08 within 128 cycles.
 Requested convergence on MAX density matrix=1.00D-06.
 Requested convergence on             energy=1.00D-06.
 No special actions if energy rises.
 Fock matrices will be formed incrementally for  20 cycles.

 Cycle   1  Pass 1  IDiag  1:
 FoFJK:  IHMeth= 1 ICntrl=       0 DoSepK=F KAlg= 0 I1Cent=           0 FoldK=F
 IRaf= 370000000 NMat=       1 IRICut=       1 DoRegI=T DoRafI=F ISym2E= 0 IDoP0=0 IntGTp=1.
 FoFCou: FMM=T IPFlag=           0 FMFlag=      100000 FMFlg1=        2001
         NFxFlg=           0 DoJE=F BraDBF=F KetDBF=F FulRan=T
         wScrn=  0.000000 ICntrl=         0 IOpCl=  0 I1Cent=           0 NGrid=           0
         NMat0=    1 NMatS0=      1 NMatT0=    0 NMatD0=    1 NMtDS0=    0 NMtDT0=    0
 Symmetry not used in FoFCou.
 FMM levels:  10  Number of levels for PrismC:   9
 Inv3:  Mode=1 IEnd=   237736812.
 Iteration    1 A*A^-1 deviation from unit magnitude is 1.24D-14 for   6203.
 Iteration    1 A*A^-1 deviation from orthogonality  is 6.30D-15 for   5485   2217.
 Iteration    1 A^-1*A deviation from unit magnitude is 1.24D-14 for   6203.
 Iteration    1 A^-1*A deviation from orthogonality  is 1.03D-13 for   7435   7427.
 E= -8338.07182825729    
 DIIS: error= 2.39D-02 at cycle   1 NSaved=   1.
 NSaved= 1 IEnMin= 1 EnMin= -8338.07182825729     IErMin= 1 ErrMin= 2.39D-02
 ErrMax= 2.39D-02  0.00D+00 EMaxC= 1.00D-01 BMatC= 2.45D+00 BMatP= 2.45D+00
 IDIUse=3 WtCom= 7.61D-01 WtEn= 2.39D-01
 Coeff-Com:  0.100D+01
 Coeff-En:   0.100D+01
 Coeff:      0.100D+01
 Gap=     0.125 Goal=   None    Shift=    0.000
 GapD=    0.125 DampG=1.000 DampE=0.500 DampFc=0.5000 IDamp=-1.
 Damping current iteration by 5.00D-01
 RMSDP=1.45D-03 MaxDP=4.17D-01              OVMax= 2.61D-01

 Cycle   2  Pass 1  IDiag  1:
 RMSU=  7.23D-04    CP:  1.00D+00
 E= -8338.82438416253     Delta-E=       -0.752555905237 Rises=F Damp=T
 DIIS: error= 6.36D-03 at cycle   2 NSaved=   2.
 NSaved= 2 IEnMin= 2 EnMin= -8338.82438416253     IErMin= 2 ErrMin= 6.36D-03
 ErrMax= 6.36D-03  0.00D+00 EMaxC= 1.00D-01 BMatC= 2.42D-01 BMatP= 2.45D+00
 IDIUse=3 WtCom= 9.36D-01 WtEn= 6.36D-02
 Coeff-Com: -0.123D+00 0.112D+01
 Coeff-En:   0.000D+00 0.100D+01
 Coeff:     -0.115D+00 0.112D+01
 Gap=     0.186 Goal=   None    Shift=    0.000
 RMSDP=5.00D-04 MaxDP=1.58D-01 DE=-7.53D-01 OVMax= 2.05D-01

 Cycle   3  Pass 1  IDiag  1:
 RMSU=  4.97D-04    CP:  9.87D-01  9.91D-01
 E= -8339.49366957071     Delta-E=       -0.669285408181 Rises=F Damp=F
 DIIS: error= 1.20D-02 at cycle   3 NSaved=   3.
 NSaved= 3 IEnMin= 3 EnMin= -8339.49366957071     IErMin= 2 ErrMin= 6.36D-03
 ErrMax= 1.20D-02  0.00D+00 EMaxC= 1.00D-01 BMatC= 1.38D-01 BMatP= 2.42D-01
 IDIUse=3 WtCom= 8.80D-01 WtEn= 1.20D-01
 Coeff-Com: -0.136D+00 0.525D+00 0.612D+00
 Coeff-En:   0.000D+00 0.000D+00 0.100D+01
 Coeff:     -0.120D+00 0.461D+00 0.658D+00
 Gap=     0.122 Goal=   None    Shift=    0.000
 RMSDP=2.14D-04 MaxDP=4.94D-02 DE=-6.69D-01 OVMax= 9.03D-02

 Cycle   4  Pass 1  IDiag  1:
 RMSU=  1.75D-04    CP:  9.89D-01  1.11D+00  8.26D-01
 E= -8339.57360519224     Delta-E=       -0.079935621536 Rises=F Damp=F
 DIIS: error= 5.04D-03 at cycle   4 NSaved=   4.
 NSaved= 4 IEnMin= 4 EnMin= -8339.57360519224     IErMin= 4 ErrMin= 5.04D-03
 ErrMax= 5.04D-03  0.00D+00 EMaxC= 1.00D-01 BMatC= 3.05D-02 BMatP= 1.38D-01
 IDIUse=3 WtCom= 9.50D-01 WtEn= 5.04D-02
 Coeff-Com: -0.411D-01 0.103D+00 0.359D+00 0.579D+00
 Coeff-En:   0.000D+00 0.000D+00 0.187D+00 0.813D+00
 Coeff:     -0.391D-01 0.983D-01 0.350D+00 0.591D+00
 Gap=     0.126 Goal=   None    Shift=    0.000
 RMSDP=9.03D-05 MaxDP=1.82D-02 DE=-7.99D-02 OVMax= 2.64D-02

 Cycle   5  Pass 1  IDiag  1:
 RMSU=  3.83D-05    CP:  9.89D-01  1.08D+00  8.95D-01  5.98D-01
 E= -8339.59604684917     Delta-E=       -0.022441656925 Rises=F Damp=F
 DIIS: error= 3.41D-04 at cycle   5 NSaved=   5.
 NSaved= 5 IEnMin= 5 EnMin= -8339.59604684917     IErMin= 5 ErrMin= 3.41D-04
 ErrMax= 3.41D-04  0.00D+00 EMaxC= 1.00D-01 BMatC= 8.87D-04 BMatP= 3.05D-02
 IDIUse=3 WtCom= 9.97D-01 WtEn= 3.41D-03
 Coeff-Com: -0.103D-01 0.199D-01 0.128D+00 0.270D+00 0.592D+00
 Coeff-En:   0.000D+00 0.000D+00 0.000D+00 0.000D+00 0.100D+01
 Coeff:     -0.103D-01 0.198D-01 0.127D+00 0.269D+00 0.594D+00
 Gap=     0.126 Goal=   None    Shift=    0.000
 RMSDP=1.94D-05 MaxDP=5.49D-03 DE=-2.24D-02 OVMax= 5.77D-03

 Cycle   6  Pass 1  IDiag  1:
 RMSU=  1.34D-05    CP:  9.89D-01  1.09D+00  8.87D-01  6.53D-01  8.56D-01
 E= -8339.59671807361     Delta-E=       -0.000671224439 Rises=F Damp=F
 DIIS: error= 2.09D-04 at cycle   6 NSaved=   6.
 NSaved= 6 IEnMin= 6 EnMin= -8339.59671807361     IErMin= 6 ErrMin= 2.09D-04
 ErrMax= 2.09D-04  0.00D+00 EMaxC= 1.00D-01 BMatC= 1.14D-04 BMatP= 8.87D-04
 IDIUse=3 WtCom= 9.98D-01 WtEn= 2.09D-03
 Coeff-Com: -0.247D-03-0.186D-02 0.244D-01 0.717D-01 0.308D+00 0.598D+00
 Coeff-En:   0.000D+00 0.000D+00 0.000D+00 0.000D+00 0.116D-01 0.988D+00
 Coeff:     -0.246D-03-0.185D-02 0.243D-01 0.715D-01 0.307D+00 0.599D+00
 Gap=     0.127 Goal=   None    Shift=    0.000
 RMSDP=6.23D-06 MaxDP=1.37D-03 DE=-6.71D-04 OVMax= 3.31D-03

 Cycle   7  Pass 1  IDiag  1:
 RMSU=  4.95D-06    CP:  9.89D-01  1.09D+00  8.90D-01  6.42D-01  9.20D-01
                    CP:  9.50D-01
 E= -8339.59681778615     Delta-E=       -0.000099712539 Rises=F Damp=F
 DIIS: error= 6.33D-05 at cycle   7 NSaved=   7.
 NSaved= 7 IEnMin= 7 EnMin= -8339.59681778615     IErMin= 7 ErrMin= 6.33D-05
 ErrMax= 6.33D-05  0.00D+00 EMaxC= 1.00D-01 BMatC= 8.52D-06 BMatP= 1.14D-04
 IDIUse=1 WtCom= 1.00D+00 WtEn= 0.00D+00
 Coeff-Com:  0.117D-02-0.321D-02-0.579D-02-0.463D-02 0.553D-01 0.239D+00
 Coeff-Com:  0.718D+00
 Coeff:      0.117D-02-0.321D-02-0.579D-02-0.463D-02 0.553D-01 0.239D+00
 Coeff:      0.718D+00
 Gap=     0.127 Goal=   None    Shift=    0.000
 RMSDP=2.66D-06 MaxDP=8.03D-04 DE=-9.97D-05 OVMax= 1.49D-03

 Cycle   8  Pass 1  IDiag  1:
 RMSU=  1.88D-06    CP:  9.89D-01  1.09D+00  8.90D-01  6.45D-01  9.43D-01
                    CP:  1.06D+00  1.08D+00
 E= -8339.59682785529     Delta-E=       -0.000010069140 Rises=F Damp=F
 DIIS: error= 2.26D-05 at cycle   8 NSaved=   8.
 NSaved= 8 IEnMin= 8 EnMin= -8339.59682785529     IErMin= 8 ErrMin= 2.26D-05
 ErrMax= 2.26D-05  0.00D+00 EMaxC= 1.00D-01 BMatC= 1.63D-06 BMatP= 8.52D-06
 IDIUse=1 WtCom= 1.00D+00 WtEn= 0.00D+00
 Coeff-Com:  0.510D-03-0.103D-02-0.651D-02-0.144D-01-0.256D-01 0.695D-02
 Coeff-Com:  0.328D+00 0.712D+00
 Coeff:      0.510D-03-0.103D-02-0.651D-02-0.144D-01-0.256D-01 0.695D-02
 Coeff:      0.328D+00 0.712D+00
 Gap=     0.127 Goal=   None    Shift=    0.000
 RMSDP=1.33D-06 MaxDP=2.54D-04 DE=-1.01D-05 OVMax= 9.52D-04

 Cycle   9  Pass 1  IDiag  1:
 RMSU=  7.66D-07    CP:  9.89D-01  1.09D+00  8.91D-01  6.44D-01  9.57D-01
                    CP:  1.10D+00  1.17D+00  1.17D+00
 E= -8339.59683034361     Delta-E=       -0.000002488319 Rises=F Damp=F
 DIIS: error= 7.42D-06 at cycle   9 NSaved=   9.
 NSaved= 9 IEnMin= 9 EnMin= -8339.59683034361     IErMin= 9 ErrMin= 7.42D-06
 ErrMax= 7.42D-06  0.00D+00 EMaxC= 1.00D-01 BMatC= 1.49D-07 BMatP= 1.63D-06
 IDIUse=1 WtCom= 1.00D+00 WtEn= 0.00D+00
 Coeff-Com:  0.314D-04 0.253D-04-0.152D-02-0.444D-02-0.149D-01-0.246D-01
 Coeff-Com:  0.177D-01 0.225D+00 0.803D+00
 Coeff:      0.314D-04 0.253D-04-0.152D-02-0.444D-02-0.149D-01-0.246D-01
 Coeff:      0.177D-01 0.225D+00 0.803D+00
 Gap=     0.127 Goal=   None    Shift=    0.000
 RMSDP=5.40D-07 MaxDP=8.43D-05 DE=-2.49D-06 OVMax= 4.65D-04

 Cycle  10  Pass 1  IDiag  1:
 RMSU=  2.75D-07    CP:  9.89D-01  1.09D+00  8.91D-01  6.43D-01  9.61D-01
                    CP:  1.12D+00  1.21D+00  1.30D+00  1.22D+00
 E= -8339.59683068185     Delta-E=       -0.000000338248 Rises=F Damp=F
 DIIS: error= 2.44D-06 at cycle  10 NSaved=  10.
 NSaved=10 IEnMin=10 EnMin= -8339.59683068185     IErMin=10 ErrMin= 2.44D-06
 ErrMax= 2.44D-06  0.00D+00 EMaxC= 1.00D-01 BMatC= 3.16D-08 BMatP= 1.49D-07
 IDIUse=1 WtCom= 1.00D+00 WtEn= 0.00D+00
 Coeff-Com: -0.743D-04 0.186D-03 0.596D-03 0.965D-03-0.112D-02-0.987D-02
 Coeff-Com: -0.522D-01-0.432D-01 0.319D+00 0.785D+00
 Coeff:     -0.743D-04 0.186D-03 0.596D-03 0.965D-03-0.112D-02-0.987D-02
 Coeff:     -0.522D-01-0.432D-01 0.319D+00 0.785D+00
 Gap=     0.128 Goal=   None    Shift=    0.000
 RMSDP=2.84D-07 MaxDP=7.64D-05 DE=-3.38D-07 OVMax= 2.35D-04

 Cycle  11  Pass 1  IDiag  1:
 RMSU=  1.24D-07    CP:  9.89D-01  1.09D+00  8.91D-01  6.43D-01  9.62D-01
                    CP:  1.13D+00  1.21D+00  1.38D+00  1.41D+00  1.15D+00
 E= -8339.59683075195     Delta-E=       -0.000000070100 Rises=F Damp=F
 DIIS: error= 8.02D-07 at cycle  11 NSaved=  11.
 NSaved=11 IEnMin=11 EnMin= -8339.59683075195     IErMin=11 ErrMin= 8.02D-07
 ErrMax= 8.02D-07  0.00D+00 EMaxC= 1.00D-01 BMatC= 4.23D-09 BMatP= 3.16D-08
 IDIUse=1 WtCom= 1.00D+00 WtEn= 0.00D+00
 Coeff-Com: -0.335D-04 0.689D-04 0.451D-03 0.102D-02 0.135D-02-0.512D-03
 Coeff-Com: -0.225D-01-0.460D-01 0.127D-01 0.297D+00 0.757D+00
 Coeff:     -0.335D-04 0.689D-04 0.451D-03 0.102D-02 0.135D-02-0.512D-03
 Coeff:     -0.225D-01-0.460D-01 0.127D-01 0.297D+00 0.757D+00
 Gap=     0.128 Goal=   None    Shift=    0.000
 RMSDP=1.04D-07 MaxDP=3.18D-05 DE=-7.01D-08 OVMax= 7.12D-05

 Cycle  12  Pass 1  IDiag  1:
 RMSU=  4.60D-08    CP:  9.89D-01  1.09D+00  8.91D-01  6.43D-01  9.62D-01
                    CP:  1.13D+00  1.21D+00  1.40D+00  1.48D+00  1.26D+00
                    CP:  1.24D+00
 E= -8339.59683076039     Delta-E=       -0.000000008433 Rises=F Damp=F
 DIIS: error= 4.99D-07 at cycle  12 NSaved=  12.
 NSaved=12 IEnMin=12 EnMin= -8339.59683076039     IErMin=12 ErrMin= 4.99D-07
 ErrMax= 4.99D-07  0.00D+00 EMaxC= 1.00D-01 BMatC= 5.73D-10 BMatP= 4.23D-09
 IDIUse=1 WtCom= 1.00D+00 WtEn= 0.00D+00
 Coeff-Com: -0.339D-05 0.345D-05 0.927D-04 0.265D-03 0.578D-03 0.116D-02
 Coeff-Com: -0.216D-02-0.130D-01-0.355D-01 0.162D-01 0.269D+00 0.764D+00
 Coeff:     -0.339D-05 0.345D-05 0.927D-04 0.265D-03 0.578D-03 0.116D-02
 Coeff:     -0.216D-02-0.130D-01-0.355D-01 0.162D-01 0.269D+00 0.764D+00
 Gap=     0.128 Goal=   None    Shift=    0.000
 RMSDP=3.72D-08 MaxDP=9.65D-06 DE=-8.43D-09 OVMax= 2.80D-05

 Cycle  13  Pass 1  IDiag  1:
 RMSU=  1.78D-08    CP:  9.89D-01  1.09D+00  8.91D-01  6.43D-01  9.62D-01
                    CP:  1.13D+00  1.21D+00  1.41D+00  1.50D+00  1.31D+00
                    CP:  1.39D+00  1.12D+00
 E= -8339.59683076215     Delta-E=       -0.000000001761 Rises=F Damp=F
 DIIS: error= 4.67D-07 at cycle  13 NSaved=  13.
 NSaved=13 IEnMin=13 EnMin= -8339.59683076215     IErMin=13 ErrMin= 4.67D-07
 ErrMax= 4.67D-07  0.00D+00 EMaxC= 1.00D-01 BMatC= 2.09D-10 BMatP= 5.73D-10
 IDIUse=1 WtCom= 1.00D+00 WtEn= 0.00D+00
 Coeff-Com:  0.462D-05-0.113D-04-0.352D-04-0.422D-04 0.672D-04 0.833D-03
 Coeff-Com:  0.311D-02 0.146D-02-0.206D-01-0.447D-01-0.333D-02 0.411D+00
 Coeff-Com:  0.652D+00
 Coeff:      0.462D-05-0.113D-04-0.352D-04-0.422D-04 0.672D-04 0.833D-03
 Coeff:      0.311D-02 0.146D-02-0.206D-01-0.447D-01-0.333D-02 0.411D+00
 Coeff:      0.652D+00
 Gap=     0.128 Goal=   None    Shift=    0.000
 RMSDP=1.73D-08 MaxDP=4.54D-06 DE=-1.76D-09 OVMax= 1.53D-05

 Cycle  14  Pass 1  IDiag  1:
 RMSU=  8.57D-09    CP:  9.89D-01  1.09D+00  8.91D-01  6.43D-01  9.62D-01
                    CP:  1.13D+00  1.21D+00  1.41D+00  1.50D+00  1.33D+00
                    CP:  1.45D+00  1.27D+00  1.17D+00
 E= -8339.59683076109     Delta-E=        0.000000001055 Rises=F Damp=F
 DIIS: error= 2.08D-07 at cycle  14 NSaved=  14.
 NSaved=14 IEnMin=13 EnMin= -8339.59683076215     IErMin=14 ErrMin= 2.08D-07
 ErrMax= 2.08D-07  0.00D+00 EMaxC= 1.00D-01 BMatC= 3.86D-11 BMatP= 2.09D-10
 IDIUse=1 WtCom= 1.00D+00 WtEn= 0.00D+00
 Coeff-Com:  0.251D-05-0.537D-05-0.333D-04-0.665D-04-0.890D-04 0.160D-03
 Coeff-Com:  0.183D-02 0.325D-02-0.213D-02-0.242D-01-0.583D-01 0.388D-01
 Coeff-Com:  0.318D+00 0.723D+00
 Coeff:      0.251D-05-0.537D-05-0.333D-04-0.665D-04-0.890D-04 0.160D-03
 Coeff:      0.183D-02 0.325D-02-0.213D-02-0.242D-01-0.583D-01 0.388D-01
 Coeff:      0.318D+00 0.723D+00
 Gap=     0.128 Goal=   None    Shift=    0.000
 RMSDP=9.76D-09 MaxDP=2.22D-06 DE= 1.06D-09 OVMax= 1.05D-05

 Cycle  15  Pass 1  IDiag  1:
 RMSU=  4.16D-09    CP:  9.89D-01  1.09D+00  8.91D-01  6.43D-01  9.62D-01
                    CP:  1.13D+00  1.21D+00  1.41D+00  1.51D+00  1.34D+00
                    CP:  1.48D+00  1.36D+00  1.43D+00  1.23D+00
 E= -8339.59683076160     Delta-E=       -0.000000000502 Rises=F Damp=F
 DIIS: error= 7.68D-08 at cycle  15 NSaved=  15.
 NSaved=15 IEnMin=13 EnMin= -8339.59683076215     IErMin=15 ErrMin= 7.68D-08
 ErrMax= 7.68D-08  0.00D+00 EMaxC= 1.00D-01 BMatC= 9.56D-12 BMatP= 3.86D-11
 IDIUse=1 WtCom= 1.00D+00 WtEn= 0.00D+00
 Coeff-Com: -0.911D-07 0.496D-06-0.685D-05-0.201D-04-0.677D-04-0.145D-03
 Coeff-Com:  0.592D-04 0.118D-02 0.421D-02-0.391D-03-0.267D-01-0.863D-01
 Coeff-Com: -0.633D-02 0.347D+00 0.768D+00
 Coeff:     -0.911D-07 0.496D-06-0.685D-05-0.201D-04-0.677D-04-0.145D-03
 Coeff:      0.592D-04 0.118D-02 0.421D-02-0.391D-03-0.267D-01-0.863D-01
 Coeff:     -0.633D-02 0.347D+00 0.768D+00
 Gap=     0.128 Goal=   None    Shift=    0.000
 RMSDP=5.71D-09 MaxDP=1.34D-06 DE=-5.02D-10 OVMax= 7.20D-06

 Cycle  16  Pass 1  IDiag  1:
 RMSU=  1.97D-09    CP:  9.89D-01  1.09D+00  8.91D-01  6.43D-01  9.62D-01
                    CP:  1.13D+00  1.21D+00  1.41D+00  1.51D+00  1.34D+00
                    CP:  1.50D+00  1.40D+00  1.60D+00  1.58D+00  1.35D+00
 E= -8339.59683076233     Delta-E=       -0.000000000735 Rises=F Damp=F
 DIIS: error= 2.68D-08 at cycle  16 NSaved=  16.
 NSaved=16 IEnMin=16 EnMin= -8339.59683076233     IErMin=16 ErrMin= 2.68D-08
 ErrMax= 2.68D-08  0.00D+00 EMaxC= 1.00D-01 BMatC= 2.04D-12 BMatP= 9.56D-12
 IDIUse=1 WtCom= 1.00D+00 WtEn= 0.00D+00
 Coeff-Com: -0.607D-06 0.142D-05 0.572D-05 0.930D-05-0.207D-05-0.920D-04
 Coeff-Com: -0.469D-03-0.408D-03 0.229D-02 0.679D-02 0.724D-02-0.497D-01
 Coeff-Com: -0.944D-01-0.761D-01 0.298D+00 0.907D+00
 Coeff:     -0.607D-06 0.142D-05 0.572D-05 0.930D-05-0.207D-05-0.920D-04
 Coeff:     -0.469D-03-0.408D-03 0.229D-02 0.679D-02 0.724D-02-0.497D-01
 Coeff:     -0.944D-01-0.761D-01 0.298D+00 0.907D+00
 Gap=     0.128 Goal=   None    Shift=    0.000
 RMSDP=3.92D-09 MaxDP=5.88D-07 DE=-7.35D-10 OVMax= 5.38D-06

 Error on total polarization charges =  0.03144
 SCF Done:  E(RM062X) =  -8339.59683076     A.U. after   16 cycles
            NFock= 16  Conv=0.39D-08     -V/T= 2.0028
 KE= 8.315898279580D+03 PE=-4.237023730793D+04 EE= 1.440856472918D+04
 Leave Link  502 at Thu Nov 13 23:20:31 2025, MaxMem= 30870077440 cpu:          118308.2 elap:            1889.3
 (Enter /public/software/gauss/g16/l601.exe)
 Copying SCF densities to generalized density rwf, IOpCl= 0 IROHF=0.
 Hyperfine terms turned off by default for NAtoms > 100.

 **********************************************************************

            Population analysis using the SCF density.

 **********************************************************************

 Orbital symmetries:
       Occupied  (A) (A) (A) (A) (A) (A) (A) (A) (A) (A) (A) (A)
                 (A) (A) (A) (A) (A) (A) (A) (A) (A) (A) (A) (A)
                 (A) (A) (A) (A) (A) (A) (A) (A) (A) (A) (A) (A)
                 (A) (A) (A) (A) (A) (A) (A) (A) (A) (A) (A) (A)
                 (A) (A) (A) (A) (A) (A) (A) (A) (A) (A) (A) (A)
                 (A) (A) (A) (A) (A) (A) (A) (A) (A) (A) (A) (A)
                 (A) (A) (A) (A) (A) (A) (A) (A) (A) (A) (A) (A)
                 (A) (A) (A) (A) (A) (A) (A) (A) (A) (A) (A) (A)
                 (A) (A) (A) (A) (A) (A) (A) (A) (A) (A) (A) (A)
                 (A) (A) (A) (A) (A) (A) (A) (A) (A) (A) (A) (A)
                 (A) (A) (A) (A) (A) (A) (A) (A) (A) (A) (A) (A)
                 (A) (A) (A) (A) (A) (A) (A) (A) (A) (A) (A) (A)
                 (A) (A) (A) (A) (A) (A) (A) (A) (A) (A) (A) (A)
                 (A) (A) (A) (A) (A) (A) (A) (A) (A) (A) (A) (A)
                 (A) (A) (A) (A) (A) (A) (A) (A) (A) (A) (A) (A)
                 (A) (A) (A) (A) (A) (A) (A) (A) (A) (A) (A) (A)
                 (A) (A) (A) (A) (A) (A) (A) (A) (A) (A) (A) (A)
                 (A) (A) (A) (A) (A) (A) (A) (A) (A) (A) (A) (A)
                 (A) (A) (A) (A) (A) (A) (A) (A) (A) (A) (A) (A)
                 (A) (A) (A) (A) (A) (A) (A) (A) (A) (A) (A) (A)
                 (A) (A) (A) (A) (A) (A) (A) (A) (A) (A) (A) (A)
                 (A) (A) (A) (A) (A) (A) (A) (A) (A) (A) (A) (A)
                 (A) (A) (A) (A) (A) (A) (A) (A) (A) (A) (A) (A)
                 (A) (A) (A)
       Virtual   (A) (A) (A) (A) (A) (A) (A) (A) (A) (A) (A) (A)
                 (A) (A) (A) (A) (A) (A) (A) (A) (A) (A) (A) (A)
                 (A) (A) (A) (A) (A) (A) (A) (A) (A) (A) (A) (A)
                 (A) (A) (A) (A) (A) (A) (A) (A) (A) (A) (A) (A)
                 (A) (A) (A) (A) (A) (A) (A) (A) (A) (A) (A) (A)
                 (A) (A) (A) (A) (A) (A) (A) (A) (A) (A) (A) (A)
                 (A) (A) (A) (A) (A) (A) (A) (A) (A) (A) (A) (A)
                 (A) (A) (A) (A) (A) (A) (A) (A) (A) (A) (A) (A)
                 (A) (A) (A) (A) (A) (A) (A) (A) (A) (A) (A) (A)
                 (A) (A) (A) (A) (A) (A) (A) (A) (A) (A) (A) (A)
                 (A) (A) (A) (A) (A) (A) (A) (A) (A) (A) (A) (A)
                 (A) (A) (A) (A) (A) (A) (A) (A) (A) (A) (A) (A)
                 (A) (A) (A) (A) (A) (A) (A) (A) (A) (A) (A) (A)
                 (A) (A) (A) (A) (A) (A) (A) (A) (A) (A) (A) (A)
                 (A) (A) (A) (A) (A) (A) (A) (A) (A) (A) (A) (A)
                 (A) (A) (A) (A) (A) (A) (A) (A) (A) (A) (A) (A)
                 (A) (A) (A) (A) (A) (A) (A) (A) (A) (A) (A) (A)
                 (A) (A) (A) (A) (A) (A) (A) (A) (A) (A) (A) (A)
                 (A) (A) (A) (A) (A) (A) (A) (A) (A) (A) (A) (A)
                 (A) (A) (A) (A) (A) (A) (A) (A) (A) (A) (A) (A)
                 (A) (A) (A) (A) (A) (A) (A) (A) (A) (A) (A) (A)
                 (A) (A) (A) (A) (A) (A) (A) (A) (A) (A) (A) (A)
                 (A) (A) (A) (A) (A) (A) (A) (A) (A) (A) (A) (A)
                 (A) (A) (A) (A) (A) (A) (A) (A) (A) (A) (A) (A)
                 (A) (A) (A) (A) (A) (A) (A) (A) (A) (A) (A) (A)
                 (A) (A) (A) (A) (A) (A) (A) (A) (A) (A) (A) (A)
                 (A) (A) (A) (A) (A) (A) (A) (A) (A) (A) (A) (A)
                 (A) (A) (A) (A) (A) (A) (A) (A) (A) (A) (A) (A)
                 (A) (A) (A) (A) (A) (A) (A) (A) (A) (A) (A) (A)
                 (A) (A) (A) (A) (A) (A) (A) (A) (A) (A) (A) (A)
                 (A) (A) (A) (A) (A) (A) (A) (A) (A) (A) (A) (A)
                 (A) (A) (A) (A) (A) (A) (A) (A) (A) (A) (A) (A)
                 (A) (A) (A) (A) (A) (A) (A) (A) (A) (A) (A) (A)
                 (A) (A) (A) (A) (A) (A) (A) (A) (A) (A) (A) (A)
                 (A) (A) (A) (A) (A) (A) (A) (A) (A) (A) (A) (A)
                 (A) (A) (A) (A) (A) (A) (A) (A) (A) (A) (A) (A)
                 (A) (A) (A) (A) (A) (A) (A) (A) (A) (A) (A) (A)
                 (A) (A) (A) (A) (A) (A) (A) (A) (A) (A) (A) (A)
                 (A) (A) (A) (A) (A) (A) (A) (A) (A) (A) (A) (A)
                 (A) (A) (A) (A) (A) (A) (A) (A) (A) (A) (A) (A)
                 (A) (A) (A) (A) (A) (A) (A) (A) (A) (A) (A) (A)
                 (A) (A) (A) (A) (A) (A) (A) (A) (A) (A) (A) (A)
                 (A) (A) (A) (A) (A) (A) (A) (A) (A) (A) (A) (A)
                 (A) (A) (A) (A) (A) (A) (A) (A) (A) (A) (A) (A)
                 (A) (A) (A) (A) (A) (A) (A) (A) (A) (A) (A) (A)
                 (A) (A) (A) (A) (A) (A) (A) (A) (A) (A) (A) (A)
                 (A) (A) (A) (A) (A) (A) (A) (A) (A) (A) (A) (A)
                 (A) (A) (A) (A) (A) (A) (A) (A) (A) (A) (A) (A)
                 (A) (A) (A) (A) (A) (A) (A) (A) (A) (A) (A) (A)
                 (A) (A) (A) (A) (A) (A) (A) (A) (A) (A) (A) (A)
                 (A) (A) (A) (A) (A) (A) (A) (A) (A) (A) (A) (A)
                 (A) (A) (A) (A) (A) (A) (A) (A) (A) (A) (A) (A)
                 (A) (A) (A) (A) (A) (A) (A) (A) (A) (A) (A) (A)
                 (A) (A) (A) (A) (A) (A) (A) (A) (A) (A) (A) (A)
                 (A) (A) (A) (A) (A) (A) (A) (A) (A) (A) (A) (A)
                 (A) (A) (A) (A) (A) (A) (A) (A) (A) (A) (A) (A)
                 (A) (A) (A) (A) (A) (A) (A) (A) (A) (A) (A) (A)
                 (A) (A) (A) (A) (A) (A) (A) (A) (A) (A) (A) (A)
                 (A) (A) (A) (A) (A) (A) (A) (A) (A) (A) (A) (A)
                 (A) (A) (A) (A) (A) (A) (A) (A) (A) (A) (A) (A)
                 (A) (A) (A) (A) (A) (A) (A) (A) (A) (A) (A) (A)
                 (A) (A) (A) (A) (A) (A) (A) (A) (A) (A) (A) (A)
                 (A) (A) (A) (A) (A) (A) (A) (A) (A) (A) (A) (A)
                 (A) (A) (A) (A) (A) (A) (A) (A) (A) (A) (A) (A)
                 (A) (A) (A) (A) (A) (A) (A) (A) (A) (A) (A) (A)
                 (A) (A) (A) (A) (A) (A) (A) (A) (A) (A) (A) (A)
                 (A) (A) (A) (A) (A) (A) (A) (A) (A) (A) (A) (A)
                 (A) (A) (A) (A) (A) (A) (A) (A) (A) (A) (A) (A)
                 (A) (A) (A) (A) (A) (A) (A) (A) (A) (A) (A) (A)
                 (A) (A) (A) (A) (A) (A) (A) (A) (A) (A) (A) (A)
                 (A) (A) (A) (A) (A) (A) (A) (A) (A) (A) (A) (A)
                 (A) (A) (A) (A) (A) (A) (A) (A) (A) (A) (A) (A)
                 (A) (A) (A) (A) (A) (A) (A) (A) (A) (A) (A) (A)
                 (A) (A) (A) (A) (A) (A) (A) (A) (A) (A) (A) (A)
                 (A) (A) (A) (A) (A) (A) (A) (A) (A) (A) (A) (A)
                 (A) (A) (A) (A) (A) (A) (A) (A) (A) (A) (A) (A)
                 (A) (A) (A) (A) (A) (A) (A) (A) (A) (A) (A) (A)
                 (A) (A) (A) (A) (A) (A) (A) (A) (A) (A) (A) (A)
                 (A) (A) (A) (A) (A) (A) (A) (A) (A) (A) (A) (A)
                 (A) (A) (A) (A) (A) (A) (A) (A) (A) (A) (A) (A)
                 (A) (A) (A) (A) (A) (A) (A) (A) (A) (A) (A) (A)
                 (A) (A) (A) (A) (A) (A) (A) (A) (A) (A) (A) (A)
                 (A) (A) (A) (A) (A) (A) (A) (A) (A) (A) (A) (A)
                 (A) (A) (A) (A) (A) (A) (A) (A) (A) (A) (A) (A)
                 (A) (A) (A) (A) (A) (A) (A) (A) (A) (A) (A) (A)
                 (A) (A) (A) (A) (A) (A) (A) (A) (A) (A) (A) (A)
                 (A) (A) (A) (A) (A) (A) (A) (A) (A) (A) (A) (A)
                 (A) (A) (A) (A) (A) (A) (A) (A) (A) (A) (A) (A)
                 (A) (A) (A) (A) (A) (A) (A) (A) (A) (A) (A) (A)
                 (A) (A) (A) (A) (A) (A) (A) (A) (A) (A) (A) (A)
                 (A) (A) (A) (A) (A) (A) (A) (A) (A) (A) (A) (A)
                 (A) (A) (A) (A) (A) (A) (A) (A) (A) (A) (A) (A)
                 (A) (A) (A) (A) (A) (A) (A) (A) (A) (A) (A) (A)
                 (A) (A) (A) (A) (A) (A) (A) (A) (A) (A) (A) (A)
                 (A) (A) (A) (A) (A) (A) (A) (A) (A) (A) (A) (A)
                 (A) (A) (A) (A) (A) (A) (A) (A) (A) (A) (A) (A)
                 (A) (A) (A) (A) (A) (A) (A) (A) (A) (A) (A) (A)
                 (A) (A) (A) (A) (A) (A) (A) (A) (A) (A) (A) (A)
                 (A) (A) (A) (A) (A) (A) (A) (A) (A) (A) (A) (A)
                 (A) (A) (A) (A) (A) (A) (A) (A) (A) (A) (A) (A)
                 (A) (A) (A) (A) (A) (A) (A) (A) (A) (A) (A) (A)
                 (A) (A) (A) (A) (A) (A) (A) (A) (A) (A) (A) (A)
                 (A) (A) (A) (A) (A) (A) (A) (A) (A) (A) (A) (A)
                 (A) (A) (A) (A) (A) (A) (A) (A) (A) (A) (A) (A)
                 (A) (A) (A) (A) (A) (A) (A) (A) (A) (A) (A) (A)
                 (A) (A) (A) (A) (A) (A) (A) (A) (A) (A) (A) (A)
                 (A) (A) (A) (A) (A) (A) (A) (A) (A) (A) (A) (A)
                 (A) (A) (A) (A) (A) (A) (A) (A) (A) (A) (A) (A)
                 (A) (A) (A) (A) (A) (A) (A) (A) (A) (A) (A) (A)
                 (A) (A) (A) (A) (A) (A) (A) (A) (A) (A) (A) (A)
                 (A) (A) (A) (A) (A) (A) (A) (A) (A) (A) (A) (A)
                 (A) (A) (A) (A) (A) (A) (A) (A) (A) (A) (A) (A)
                 (A) (A) (A) (A) (A) (A) (A) (A) (A) (A) (A) (A)
                 (A) (A) (A) (A) (A) (A) (A) (A) (A) (A) (A) (A)
                 (A) (A) (A) (A) (A) (A) (A) (A) (A) (A) (A) (A)
                 (A) (A) (A) (A) (A) (A) (A) (A) (A) (A) (A) (A)
                 (A) (A) (A) (A) (A) (A) (A) (A) (A) (A) (A) (A)
                 (A) (A) (A) (A) (A) (A) (A) (A) (A) (A) (A) (A)
                 (A) (A) (A) (A) (A) (A) (A) (A) (A) (A) (A) (A)
                 (A) (A) (A) (A) (A) (A) (A) (A) (A) (A) (A) (A)
                 (A) (A) (A) (A) (A) (A) (A) (A) (A) (A) (A) (A)
                 (A) (A) (A) (A) (A) (A) (A) (A) (A) (A) (A) (A)
                 (A) (A) (A) (A) (A) (A) (A) (A) (A) (A) (A) (A)
                 (A) (A) (A) (A) (A) (A) (A) (A) (A) (A) (A) (A)
                 (A) (A) (A) (A) (A) (A) (A) (A) (A) (A) (A) (A)
                 (A) (A) (A) (A) (A) (A) (A) (A) (A) (A) (A) (A)
                 (A) (A) (A) (A) (A) (A) (A) (A) (A) (A) (A) (A)
                 (A) (A) (A) (A) (A) (A) (A) (A) (A) (A) (A) (A)
                 (A) (A) (A) (A) (A) (A) (A) (A) (A) (A) (A) (A)
                 (A) (A) (A) (A) (A) (A) (A) (A) (A) (A) (A) (A)
                 (A) (A) (A) (A) (A) (A) (A) (A) (A) (A) (A) (A)
                 (A) (A) (A) (A) (A) (A) (A) (A) (A) (A) (A) (A)
                 (A) (A) (A) (A) (A) (A) (A) (A) (A) (A) (A) (A)
                 (A) (A) (A) (A) (A) (A) (A) (A) (A) (A) (A) (A)
                 (A) (A) (A) (A) (A) (A) (A) (A) (A) (A) (A) (A)
                 (A) (A) (A) (A) (A) (A) (A) (A) (A) (A) (A) (A)
                 (A) (A) (A) (A) (A) (A) (A) (A) (A) (A) (A) (A)
                 (A) (A) (A) (A) (A) (A) (A) (A) (A) (A) (A) (A)
                 (A) (A) (A) (A) (A) (A) (A) (A) (A) (A) (A) (A)
                 (A) (A) (A) (A) (A) (A) (A) (A) (A) (A) (A) (A)
                 (A) (A) (A) (A) (A) (A) (A) (A) (A) (A) (A) (A)
                 (A) (A) (A) (A) (A) (A) (A) (A) (A) (A) (A) (A)
                 (A) (A) (A) (A) (A) (A) (A) (A) (A) (A) (A) (A)
                 (A) (A) (A) (A) (A) (A) (A) (A) (A) (A) (A) (A)
                 (A) (A) (A) (A) (A) (A) (A) (A) (A) (A) (A) (A)
                 (A) (A) (A) (A) (A) (A) (A) (A) (A) (A) (A) (A)
                 (A) (A) (A) (A) (A) (A) (A) (A) (A) (A) (A) (A)
                 (A) (A) (A) (A) (A) (A) (A) (A) (A) (A) (A) (A)
                 (A) (A) (A) (A) (A) (A) (A) (A) (A) (A) (A) (A)
                 (A) (A) (A) (A) (A) (A) (A) (A) (A) (A) (A) (A)
                 (A) (A) (A) (A) (A) (A) (A) (A) (A) (A) (A) (A)
                 (A) (A) (A) (A) (A) (A) (A) (A) (A) (A) (A) (A)
                 (A) (A) (A) (A) (A) (A) (A) (A) (A) (A) (A) (A)
                 (A) (A) (A) (A) (A) (A) (A) (A) (A) (A) (A) (A)
                 (A) (A) (A) (A) (A) (A) (A) (A) (A) (A) (A) (A)
                 (A) (A) (A) (A) (A) (A) (A) (A) (A) (A) (A) (A)
                 (A) (A) (A) (A) (A) (A) (A) (A) (A) (A) (A) (A)
                 (A) (A) (A) (A) (A) (A) (A) (A) (A) (A) (A) (A)
                 (A) (A) (A) (A) (A) (A) (A) (A) (A) (A) (A) (A)
                 (A) (A) (A) (A) (A) (A) (A) (A) (A) (A) (A) (A)
                 (A) (A) (A) (A) (A) (A) (A) (A) (A) (A) (A) (A)
                 (A) (A) (A) (A) (A) (A) (A) (A) (A) (A) (A) (A)
                 (A) (A) (A) (A) (A) (A) (A) (A) (A) (A) (A) (A)
                 (A) (A) (A) (A) (A) (A) (A) (A) (A) (A) (A) (A)
                 (A) (A) (A) (A) (A) (A) (A) (A) (A) (A) (A) (A)
                 (A) (A) (A) (A) (A) (A) (A) (A) (A) (A) (A) (A)
                 (A) (A) (A) (A) (A) (A) (A) (A) (A) (A) (A) (A)
                 (A) (A) (A) (A) (A) (A) (A) (A) (A) (A) (A) (A)
                 (A) (A) (A) (A) (A) (A) (A) (A) (A) (A) (A) (A)
                 (A) (A) (A) (A) (A) (A) (A) (A) (A) (A) (A) (A)
                 (A) (A) (A) (A) (A) (A) (A) (A) (A) (A) (A) (A)
                 (A) (A) (A) (A) (A) (A) (A) (A) (A) (A) (A) (A)
                 (A) (A) (A) (A) (A) (A) (A) (A) (A) (A) (A) (A)
                 (A) (A) (A) (A) (A) (A) (A) (A) (A) (A) (A) (A)
                 (A) (A) (A) (A) (A) (A) (A) (A) (A) (A) (A) (A)
                 (A) (A) (A) (A) (A) (A) (A) (A) (A) (A) (A) (A)
                 (A) (A) (A) (A) (A) (A) (A) (A) (A) (A) (A) (A)
                 (A) (A) (A) (A) (A) (A) (A) (A) (A) (A) (A) (A)
                 (A) (A) (A) (A) (A) (A) (A) (A) (A) (A) (A) (A)
                 (A) (A) (A) (A) (A) (A) (A) (A) (A) (A) (A) (A)
                 (A) (A) (A) (A) (A) (A) (A) (A) (A) (A) (A) (A)
                 (A) (A) (A) (A) (A) (A) (A) (A) (A) (A) (A) (A)
                 (A) (A) (A) (A) (A) (A) (A) (A) (A) (A) (A) (A)
                 (A) (A) (A) (A) (A) (A) (A) (A) (A) (A) (A) (A)
                 (A) (A) (A) (A) (A) (A) (A) (A) (A) (A) (A) (A)
                 (A) (A) (A) (A) (A) (A) (A) (A) (A) (A) (A) (A)
                 (A) (A) (A) (A) (A) (A) (A) (A) (A) (A) (A) (A)
                 (A) (A) (A) (A) (A) (A) (A) (A) (A) (A) (A) (A)
                 (A) (A) (A) (A) (A) (A) (A) (A) (A) (A) (A) (A)
                 (A) (A) (A) (A) (A) (A) (A) (A) (A) (A) (A) (A)
                 (A) (A) (A) (A) (A) (A) (A) (A) (A) (A) (A) (A)
                 (A) (A) (A) (A) (A) (A) (A) (A) (A) (A) (A) (A)
                 (A) (A) (A) (A) (A) (A) (A) (A) (A) (A) (A) (A)
                 (A) (A) (A) (A) (A) (A) (A) (A) (A) (A) (A) (A)
                 (A) (A) (A) (A) (A) (A) (A) (A) (A) (A) (A) (A)
                 (A) (A) (A) (A) (A) (A) (A) (A) (A) (A) (A) (A)
                 (A) (A) (A) (A) (A) (A) (A) (A) (A) (A) (A) (A)
                 (A) (A) (A) (A) (A) (A) (A) (A) (A) (A) (A) (A)
                 (A) (A) (A) (A) (A) (A) (A) (A) (A) (A) (A) (A)
                 (A) (A) (A) (A) (A) (A) (A) (A) (A) (A) (A) (A)
                 (A) (A) (A) (A) (A) (A) (A) (A) (A) (A) (A) (A)
                 (A) (A) (A) (A) (A) (A) (A) (A) (A) (A) (A) (A)
                 (A) (A) (A) (A) (A) (A) (A) (A) (A) (A) (A) (A)
                 (A) (A) (A) (A) (A) (A) (A) (A) (A) (A) (A) (A)
                 (A) (A) (A) (A) (A) (A) (A) (A) (A) (A) (A) (A)
                 (A) (A) (A) (A) (A) (A) (A) (A) (A) (A) (A) (A)
                 (A) (A) (A) (A) (A) (A) (A) (A) (A) (A) (A) (A)
                 (A) (A) (A) (A) (A) (A) (A) (A) (A) (A) (A) (A)
                 (A) (A) (A) (A) (A) (A) (A) (A) (A) (A) (A) (A)
                 (A) (A) (A) (A) (A) (A) (A) (A) (A) (A) (A) (A)
                 (A) (A) (A) (A) (A) (A) (A) (A) (A) (A) (A) (A)
                 (A) (A) (A) (A) (A) (A) (A) (A) (A) (A) (A) (A)
                 (A) (A) (A) (A) (A) (A) (A) (A) (A) (A) (A) (A)
                 (A) (A) (A) (A) (A) (A) (A) (A) (A) (A) (A) (A)
                 (A) (A) (A) (A) (A) (A) (A) (A) (A) (A) (A) (A)
                 (A) (A) (A) (A) (A) (A) (A) (A) (A) (A) (A) (A)
                 (A) (A) (A) (A) (A) (A) (A) (A) (A) (A) (A) (A)
                 (A) (A) (A) (A) (A) (A) (A) (A) (A) (A) (A) (A)
                 (A) (A) (A) (A) (A) (A) (A) (A) (A) (A) (A) (A)
                 (A) (A) (A) (A) (A) (A) (A) (A) (A) (A) (A) (A)
                 (A) (A) (A) (A) (A) (A) (A) (A) (A) (A)
 The electronic state is 1-A.
 Alpha  occ. eigenvalues -- -485.39098-485.39085 -63.37544 -63.37533 -57.19499
 Alpha  occ. eigenvalues --  -57.19487 -57.19254 -57.19246 -57.19241 -57.19238
 Alpha  occ. eigenvalues --  -25.21184 -25.21153 -19.70563 -19.68040 -19.68034
 Alpha  occ. eigenvalues --  -19.66982 -19.66976 -19.65213 -19.64017 -19.63915
 Alpha  occ. eigenvalues --  -19.63660 -19.63636 -19.63409 -19.63257 -15.01497
 Alpha  occ. eigenvalues --  -14.79975 -14.79695 -10.71502 -10.62347 -10.62330
 Alpha  occ. eigenvalues --  -10.62317 -10.62177 -10.62149 -10.62102 -10.61695
 Alpha  occ. eigenvalues --  -10.60903 -10.60780 -10.60680 -10.60584 -10.60242
 Alpha  occ. eigenvalues --  -10.60059 -10.59484 -10.59298 -10.58837 -10.58815
 Alpha  occ. eigenvalues --  -10.58775 -10.58773 -10.58700 -10.58688 -10.58667
 Alpha  occ. eigenvalues --  -10.58658 -10.58597 -10.58593 -10.58504 -10.58084
 Alpha  occ. eigenvalues --  -10.58069 -10.57908 -10.57791 -10.57386 -10.57340
 Alpha  occ. eigenvalues --  -10.57101 -10.56925 -10.56199 -10.56171 -10.56148
 Alpha  occ. eigenvalues --  -10.56101 -10.56057 -10.56052 -10.56001 -10.55991
 Alpha  occ. eigenvalues --  -10.55335 -10.55323 -10.55244 -10.55241 -10.55059
 Alpha  occ. eigenvalues --  -10.54892  -9.04168  -9.04160  -7.14303  -6.86595
 Alpha  occ. eigenvalues --   -6.86584  -6.85690  -6.85677  -6.85665  -6.85665
 Alpha  occ. eigenvalues --   -2.89975  -2.89964  -2.89647  -2.89631  -2.89617
 Alpha  occ. eigenvalues --   -2.89614  -2.88773  -2.88773  -2.88768  -2.88767
 Alpha  occ. eigenvalues --   -1.37053  -1.33192  -1.29976  -1.26269  -1.20147
 Alpha  occ. eigenvalues --   -1.20130  -1.18582  -1.17110  -1.16809  -1.16763
 Alpha  occ. eigenvalues --   -1.16189  -1.15796  -1.15467  -1.14498  -1.12110
 Alpha  occ. eigenvalues --   -1.10321  -1.00855  -0.97730  -0.97668  -0.95935
 Alpha  occ. eigenvalues --   -0.94826  -0.94097  -0.93446  -0.92400  -0.91220
 Alpha  occ. eigenvalues --   -0.89521  -0.88738  -0.88054  -0.87765  -0.87529
 Alpha  occ. eigenvalues --   -0.86810  -0.86537  -0.86203  -0.85764  -0.85610
 Alpha  occ. eigenvalues --   -0.84435  -0.84214  -0.82778  -0.82121  -0.81574
 Alpha  occ. eigenvalues --   -0.80947  -0.79568  -0.79236  -0.77786  -0.76880
 Alpha  occ. eigenvalues --   -0.76271  -0.74447  -0.74003  -0.72851  -0.72553
 Alpha  occ. eigenvalues --   -0.71869  -0.71325  -0.71163  -0.69797  -0.69597
 Alpha  occ. eigenvalues --   -0.69214  -0.68720  -0.68118  -0.68004  -0.67591
 Alpha  occ. eigenvalues --   -0.66809  -0.66498  -0.66141  -0.65748  -0.64468
 Alpha  occ. eigenvalues --   -0.63503  -0.63284  -0.62684  -0.62572  -0.62141
 Alpha  occ. eigenvalues --   -0.61744  -0.60955  -0.60096  -0.59888  -0.59691
 Alpha  occ. eigenvalues --   -0.59622  -0.59494  -0.59120  -0.58887  -0.58745
 Alpha  occ. eigenvalues --   -0.58280  -0.57666  -0.57364  -0.57232  -0.56989
 Alpha  occ. eigenvalues --   -0.56436  -0.56180  -0.56052  -0.55620  -0.55448
 Alpha  occ. eigenvalues --   -0.54871  -0.54792  -0.54285  -0.54158  -0.54067
 Alpha  occ. eigenvalues --   -0.53948  -0.53717  -0.53508  -0.53414  -0.53316
 Alpha  occ. eigenvalues --   -0.53270  -0.53007  -0.52326  -0.52308  -0.52112
 Alpha  occ. eigenvalues --   -0.51936  -0.51733  -0.51664  -0.51246  -0.50988
 Alpha  occ. eigenvalues --   -0.50578  -0.50546  -0.50114  -0.49864  -0.49832
 Alpha  occ. eigenvalues --   -0.49702  -0.49075  -0.48774  -0.48546  -0.48241
 Alpha  occ. eigenvalues --   -0.48060  -0.47554  -0.47519  -0.47243  -0.47163
 Alpha  occ. eigenvalues --   -0.47124  -0.46796  -0.46559  -0.46414  -0.46366
 Alpha  occ. eigenvalues --   -0.46164  -0.45934  -0.45703  -0.45301  -0.45036
 Alpha  occ. eigenvalues --   -0.44740  -0.44444  -0.44354  -0.44090  -0.43609
 Alpha  occ. eigenvalues --   -0.43495  -0.43331  -0.43211  -0.42985  -0.42854
 Alpha  occ. eigenvalues --   -0.42268  -0.42034  -0.41932  -0.41764  -0.41297
 Alpha  occ. eigenvalues --   -0.41275  -0.40793  -0.40631  -0.40514  -0.40315
 Alpha  occ. eigenvalues --   -0.40000  -0.39835  -0.39820  -0.39784  -0.39745
 Alpha  occ. eigenvalues --   -0.39551  -0.39240  -0.38981  -0.38536  -0.38164
 Alpha  occ. eigenvalues --   -0.36995  -0.36304  -0.36258  -0.35880  -0.35170
 Alpha  occ. eigenvalues --   -0.34369  -0.34229  -0.34122  -0.34043  -0.33959
 Alpha  occ. eigenvalues --   -0.32497  -0.32486  -0.32458  -0.32303  -0.31494
 Alpha  occ. eigenvalues --   -0.31170  -0.29757  -0.27347  -0.23755
 Alpha virt. eigenvalues --   -0.11001  -0.07599  -0.03676  -0.02023  -0.00785
 Alpha virt. eigenvalues --    0.00678   0.00714   0.01055   0.01805   0.03284
 Alpha virt. eigenvalues --    0.04076   0.04371   0.05249   0.06083   0.06512
 Alpha virt. eigenvalues --    0.06674   0.06876   0.07215   0.07560   0.07667
 Alpha virt. eigenvalues --    0.07868   0.08131   0.08358   0.08708   0.08755
 Alpha virt. eigenvalues --    0.08824   0.09020   0.09493   0.09541   0.09675
 Alpha virt. eigenvalues --    0.09704   0.09905   0.10149   0.10322   0.10512
 Alpha virt. eigenvalues --    0.10676   0.10978   0.11084   0.11214   0.11293
 Alpha virt. eigenvalues --    0.11437   0.11792   0.12069   0.12136   0.12256
 Alpha virt. eigenvalues --    0.12475   0.12587   0.12760   0.12870   0.12919
 Alpha virt. eigenvalues --    0.12972   0.13335   0.13566   0.13697   0.13823
 Alpha virt. eigenvalues --    0.13903   0.14115   0.14221   0.14339   0.14436
 Alpha virt. eigenvalues --    0.14646   0.14871   0.15266   0.15300   0.15347
 Alpha virt. eigenvalues --    0.15588   0.15686   0.15742   0.15786   0.15958
 Alpha virt. eigenvalues --    0.16097   0.16297   0.16637   0.16651   0.16805
 Alpha virt. eigenvalues --    0.16843   0.16893   0.17120   0.17368   0.17430
 Alpha virt. eigenvalues --    0.17515   0.17675   0.17782   0.17994   0.18100
 Alpha virt. eigenvalues --    0.18368   0.18479   0.18731   0.18875   0.19073
 Alpha virt. eigenvalues --    0.19210   0.19400   0.19685   0.19877   0.20066
 Alpha virt. eigenvalues --    0.20406   0.20481   0.20757   0.20857   0.20967
 Alpha virt. eigenvalues --    0.21232   0.21250   0.21368   0.21525   0.21711
 Alpha virt. eigenvalues --    0.21849   0.21936   0.22151   0.22222   0.22511
 Alpha virt. eigenvalues --    0.22726   0.22819   0.22882   0.23021   0.23234
 Alpha virt. eigenvalues --    0.23303   0.23523   0.23594   0.23704   0.24048
 Alpha virt. eigenvalues --    0.24114   0.24216   0.24448   0.24598   0.24760
 Alpha virt. eigenvalues --    0.24781   0.24899   0.25103   0.25203   0.25258
 Alpha virt. eigenvalues --    0.25574   0.25783   0.25813   0.25985   0.26105
 Alpha virt. eigenvalues --    0.26518   0.26581   0.26650   0.26763   0.26903
 Alpha virt. eigenvalues --    0.26944   0.27055   0.27151   0.27500   0.27790
 Alpha virt. eigenvalues --    0.27908   0.28118   0.28201   0.28374   0.28475
 Alpha virt. eigenvalues --    0.28707   0.28826   0.29021   0.29150   0.29196
 Alpha virt. eigenvalues --    0.29381   0.29806   0.30012   0.30185   0.30321
 Alpha virt. eigenvalues --    0.30511   0.30644   0.30715   0.30919   0.31152
 Alpha virt. eigenvalues --    0.31223   0.31350   0.31500   0.31703   0.31804
 Alpha virt. eigenvalues --    0.31966   0.32252   0.32321   0.32692   0.32818
 Alpha virt. eigenvalues --    0.32871   0.32978   0.33149   0.33190   0.33320
 Alpha virt. eigenvalues --    0.33602   0.33735   0.33851   0.33979   0.34081
 Alpha virt. eigenvalues --    0.34174   0.34272   0.34488   0.34693   0.34841
 Alpha virt. eigenvalues --    0.35153   0.35201   0.35433   0.35571   0.35673
 Alpha virt. eigenvalues --    0.35911   0.36183   0.36199   0.36334   0.36392
 Alpha virt. eigenvalues --    0.36441   0.36641   0.36729   0.36902   0.37020
 Alpha virt. eigenvalues --    0.37091   0.37141   0.37308   0.37386   0.37513
 Alpha virt. eigenvalues --    0.37634   0.37818   0.38024   0.38204   0.38297
 Alpha virt. eigenvalues --    0.38382   0.38509   0.38620   0.38732   0.38962
 Alpha virt. eigenvalues --    0.39054   0.39133   0.39253   0.39361   0.39483
 Alpha virt. eigenvalues --    0.39511   0.39758   0.39967   0.40037   0.40310
 Alpha virt. eigenvalues --    0.40569   0.40641   0.40721   0.40830   0.41045
 Alpha virt. eigenvalues --    0.41238   0.41304   0.41550   0.41635   0.41823
 Alpha virt. eigenvalues --    0.41886   0.42033   0.42332   0.42440   0.42507
 Alpha virt. eigenvalues --    0.42593   0.42825   0.42898   0.42932   0.43109
 Alpha virt. eigenvalues --    0.43261   0.43492   0.43646   0.43744   0.43896
 Alpha virt. eigenvalues --    0.43970   0.44082   0.44304   0.44460   0.44578
 Alpha virt. eigenvalues --    0.44722   0.44842   0.44893   0.45085   0.45291
 Alpha virt. eigenvalues --    0.45360   0.45467   0.45525   0.45556   0.45895
 Alpha virt. eigenvalues --    0.45915   0.46209   0.46276   0.46523   0.46591
 Alpha virt. eigenvalues --    0.46744   0.46776   0.47009   0.47090   0.47249
 Alpha virt. eigenvalues --    0.47576   0.47719   0.47818   0.47868   0.48052
 Alpha virt. eigenvalues --    0.48141   0.48236   0.48400   0.48724   0.48837
 Alpha virt. eigenvalues --    0.48968   0.49068   0.49189   0.49361   0.49443
 Alpha virt. eigenvalues --    0.49665   0.49846   0.49943   0.50004   0.50106
[...]
 Alpha virt. eigenvalues --    4.53215   4.53568   4.53775   4.53961   4.54189
 Alpha virt. eigenvalues --    4.54477   4.54610   4.54929   4.55265   4.56067
 Alpha virt. eigenvalues --    4.56174   4.56315   4.57497   4.57801   4.58406
 Alpha virt. eigenvalues --    4.58638   4.59224   4.59819   4.60210   4.60464
 Alpha virt. eigenvalues --    4.60752   4.61282   4.61479   4.61531   4.61767
 Alpha virt. eigenvalues --    4.62023   4.62093   4.62471   4.62940   4.63073
 Alpha virt. eigenvalues --    4.63230   4.63522   4.63887   4.64395   4.64783
 Alpha virt. eigenvalues --    4.64878   4.64891   4.65400   4.65764   4.66023
 Alpha virt. eigenvalues --    4.66799   4.67072   4.67501   4.67578   4.67751
 Alpha virt. eigenvalues --    4.67890   4.68092   4.68432   4.68704   4.69231
 Alpha virt. eigenvalues --    4.69631   4.69690   4.69932   4.70359   4.70555
 Alpha virt. eigenvalues --    4.70719   4.70814   4.71123   4.71401   4.71964
 Alpha virt. eigenvalues --    4.72291   4.72415   4.72851   4.73073   4.73251
 Alpha virt. eigenvalues --    4.73660   4.74264   4.74554   4.75071   4.75300
 Alpha virt. eigenvalues --    4.75503   4.75605   4.75799   4.76357   4.76755
 Alpha virt. eigenvalues --    4.77010   4.77499   4.77682   4.77690   4.77923
 Alpha virt. eigenvalues --    4.78659   4.78770   4.79060   4.79290   4.79649
 Alpha virt. eigenvalues --    4.80122   4.80458   4.80946   4.81131   4.81564
 Alpha virt. eigenvalues --    4.81816   4.82135   4.82220   4.82503   4.82741
 Alpha virt. eigenvalues --    4.83057   4.83806   4.84234   4.84260   4.84559
 Alpha virt. eigenvalues --    4.84889   4.85171   4.85591   4.86479   4.86938
 Alpha virt. eigenvalues --    4.87081   4.87419   4.87928   4.88220   4.88431
 Alpha virt. eigenvalues --    4.89411   4.89534   4.89798   4.90231   4.90311
 Alpha virt. eigenvalues --    4.90501   4.90793   4.91663   4.92045   4.92573
 Alpha virt. eigenvalues --    4.92715   4.93039   4.93095   4.93176   4.93669
 Alpha virt. eigenvalues --    4.93817   4.93978   4.94014   4.94172   4.94665
 Alpha virt. eigenvalues --    4.94841   4.95180   4.95314   4.95712   4.95912
 Alpha virt. eigenvalues --    4.95969   4.96146   4.96524   4.96636   4.97991
 Alpha virt. eigenvalues --    4.98216   4.98476   4.98494   4.98881   4.99008
 Alpha virt. eigenvalues --    4.99295   4.99498   5.00019   5.00418   5.00648
 Alpha virt. eigenvalues --    5.01560   5.01688   5.01828   5.02222   5.02678
 Alpha virt. eigenvalues --    5.03338   5.03631   5.03913   5.04031   5.04854
 Alpha virt. eigenvalues --    5.04994   5.05538   5.05771   5.05993   5.06383
 Alpha virt. eigenvalues --    5.06603   5.06763   5.07201   5.07454   5.07946
 Alpha virt. eigenvalues --    5.08282   5.08396   5.08816   5.09638   5.09998
 Alpha virt. eigenvalues --    5.10393   5.10562   5.10659   5.11384   5.12299
 Alpha virt. eigenvalues --    5.12457   5.13027   5.13314   5.13561   5.14013
 Alpha virt. eigenvalues --    5.14166   5.14407   5.14724   5.15189   5.15815
 Alpha virt. eigenvalues --    5.16096   5.16573   5.17156   5.17459   5.17567
 Alpha virt. eigenvalues --    5.17991   5.18296   5.18528   5.18746   5.19056
 Alpha virt. eigenvalues --    5.19572   5.19804   5.20997   5.21395   5.22042
 Alpha virt. eigenvalues --    5.22053   5.22517   5.22918   5.23160   5.23991
 Alpha virt. eigenvalues --    5.24238   5.24795   5.25085   5.25353   5.25739
 Alpha virt. eigenvalues --    5.26300   5.26667   5.27306   5.27524   5.27865
 Alpha virt. eigenvalues --    5.28100   5.28200   5.28397   5.28474   5.28743
 Alpha virt. eigenvalues --    5.28782   5.29084   5.29340   5.29543   5.29737
 Alpha virt. eigenvalues --    5.29968   5.30360   5.30544   5.30631   5.30774
 Alpha virt. eigenvalues --    5.31211   5.31384   5.31610   5.31945   5.32158
 Alpha virt. eigenvalues --    5.32174   5.33275   5.33680   5.33854   5.33967
 Alpha virt. eigenvalues --    5.34247   5.34688   5.35520   5.36209   5.36553
 Alpha virt. eigenvalues --    5.37240   5.37315   5.37828   5.37905   5.38308
 Alpha virt. eigenvalues --    5.38346   5.38639   5.38837   5.39415   5.39633
 Alpha virt. eigenvalues --    5.39873   5.40409   5.40647   5.40727   5.41247
 Alpha virt. eigenvalues --    5.41764   5.42337   5.42729   5.43056   5.43227
 Alpha virt. eigenvalues --    5.43461   5.43624   5.44302   5.44505   5.45002
 Alpha virt. eigenvalues --    5.45436   5.46291   5.46557   5.46793   5.47122
 Alpha virt. eigenvalues --    5.47910   5.48100   5.48586   5.48828   5.49145
 Alpha virt. eigenvalues --    5.49843   5.50166   5.51069   5.51153   5.51448
 Alpha virt. eigenvalues --    5.51778   5.52366   5.52837   5.53328   5.54265
 Alpha virt. eigenvalues --    5.54334   5.55095   5.55184   5.55441   5.55545
 Alpha virt. eigenvalues --    5.56201   5.57000   5.57157   5.57323   5.58237
 Alpha virt. eigenvalues --    5.58699   5.58807   5.58950   5.59157   5.59659
 Alpha virt. eigenvalues --    5.59816   5.60005   5.60041   5.60173   5.60650
 Alpha virt. eigenvalues --    5.61056   5.61197   5.62114   5.62288   5.62674
 Alpha virt. eigenvalues --    5.62989   5.63612   5.63832   5.63973   5.64498
 Alpha virt. eigenvalues --    5.64531   5.64681   5.64856   5.65272   5.65754
 Alpha virt. eigenvalues --    5.65904   5.66640   5.66806   5.67073   5.67647
 Alpha virt. eigenvalues --    5.68268   5.68956   5.69992   5.70832   5.71275
 Alpha virt. eigenvalues --    5.73248   5.74535   5.75732   5.77328   5.77419
 Alpha virt. eigenvalues --    5.79539   5.81904   5.83523   5.83910   5.84643
 Alpha virt. eigenvalues --    5.85633   5.86505   5.87315   5.88046   5.88419
 Alpha virt. eigenvalues --    5.88824   5.88862   5.89917   5.91146   5.91634
 Alpha virt. eigenvalues --    5.92817   5.93166   5.94091   5.95053   5.96351
 Alpha virt. eigenvalues --    5.96849   5.98941   6.00170   6.00455   6.00849
 Alpha virt. eigenvalues --    6.02272   6.03020   6.03500   6.03971   6.04595
 Alpha virt. eigenvalues --    6.05372   6.06485   6.06519   6.08917   6.09527
 Alpha virt. eigenvalues --    6.09743   6.10399   6.10486   6.11641   6.11838
 Alpha virt. eigenvalues --    6.15660   6.17662   6.18729   6.20845   6.21794
 Alpha virt. eigenvalues --    6.22095   6.22280   6.22953   6.24337   6.24903
 Alpha virt. eigenvalues --    6.25365   6.25955   6.26500   6.28174   6.28246
 Alpha virt. eigenvalues --    6.28384   6.30596   6.31294   6.33066   6.35080
 Alpha virt. eigenvalues --    6.36178   6.38629   6.38700   6.39654   6.39912
 Alpha virt. eigenvalues --    6.40476   6.41821   6.42057   6.42810   6.43274
 Alpha virt. eigenvalues --    6.44836   6.58816   6.68309   6.72260   6.72290
 Alpha virt. eigenvalues --    6.72861   6.73313   6.73439   6.74740   6.75802
 Alpha virt. eigenvalues --    6.75883   6.76764   6.77012   6.77691   6.77904
 Alpha virt. eigenvalues --    6.80814   6.80819   6.81290   6.83171   6.83819
 Alpha virt. eigenvalues --    6.84138   6.84467   6.84536   6.84815   6.85241
 Alpha virt. eigenvalues --    6.86118   6.86687   6.87526   6.93281   6.93566
 Alpha virt. eigenvalues --    6.93695   6.95402   6.95788   6.96709   6.98342
 Alpha virt. eigenvalues --    6.98517   6.99318   6.99409   7.00433   7.01262
 Alpha virt. eigenvalues --    7.01655   7.03574   7.04544   7.07296   7.08408
 Alpha virt. eigenvalues --    7.08881   7.10777   7.14042   7.16819   7.20770
 Alpha virt. eigenvalues --    7.21851   7.23890   7.26567   7.26720   7.27159
 Alpha virt. eigenvalues --    7.28574   7.29806   7.30064   7.30120   7.30401
 Alpha virt. eigenvalues --    7.33198   7.33292   7.33323   7.33352   7.33450
 Alpha virt. eigenvalues --    7.34160   7.34314   7.38087   7.38233   7.38761
 Alpha virt. eigenvalues --    7.40052   7.44694   7.44770   7.46834   7.47094
 Alpha virt. eigenvalues --    7.50696   7.91184   7.91683   8.46161   8.49336
 Alpha virt. eigenvalues --    8.56171   8.61367   8.82880   8.87730   8.91437
 Alpha virt. eigenvalues --    8.92676   8.93299   9.00300  15.84691  22.79519
 Alpha virt. eigenvalues --   22.82475  22.87503  22.89893  22.90579  23.09041
 Alpha virt. eigenvalues --   23.11233  23.12967  23.13586  23.14484  23.18901
 Alpha virt. eigenvalues --   23.19076  23.20072  23.23699  23.26434  23.27426
 Alpha virt. eigenvalues --   23.27813  23.28829  23.31457  23.31637  23.31916
 Alpha virt. eigenvalues --   23.32333  23.34198  23.35746  23.35867  23.37401
 Alpha virt. eigenvalues --   23.38400  23.39443  23.39871  23.40314  23.41108
 Alpha virt. eigenvalues --   23.41982  23.43204  23.45547  23.45844  23.47854
 Alpha virt. eigenvalues --   23.50056  23.51012  23.51825  23.55365  23.59117
 Alpha virt. eigenvalues --   23.61905  23.64532  23.74080  23.80360  23.91818
 Alpha virt. eigenvalues --   24.06336  24.09439  24.09832  32.58463  33.11835
 Alpha virt. eigenvalues --   33.24681  44.20579  44.22729  44.25363  44.29943
 Alpha virt. eigenvalues --   44.34643  44.38528  44.44073  44.48452  44.49083
 Alpha virt. eigenvalues --   44.57588  44.62321  44.63694  57.41993  57.58449
          Condensed to atoms (all electrons):
 Mulliken charges:
               1
     1  B    0.339678
     2  N   -0.087451
     3  C    0.154916
     4  C   -0.128104
     5  C    0.104934
     6  C    0.108474
     7  C    0.077932
     8  C    0.154222
     9  O   -0.322208
    10  C   -0.166482
    11  C   -0.054319
    12  C   -0.101385
    13  C   -0.094528
    14  C   -0.010932
    15  C   -0.109809
    16  C   -0.089628
    17  N    0.494283
    18  O   -0.366886
    19  O   -0.366871
    20  C    0.087387
    21  N   -0.087309
    22  C    0.141599
    23  C   -0.123711
    24  C    0.105699
    25  C   -0.454115
    26  C   -0.145477
    27  C   -0.085290
    28  C    0.012262
    29  C   -0.152200
    30  C   -0.195555
    31  C    0.232634
    32  O   -0.278745
    33  C   -0.098662
    34  C   -0.145554
    35  O   -0.326808
    36  C   -0.044638
    37  C   -0.134861
    38  O   -0.334083
    39  C   -0.099427
    40  C   -0.107102
    41  O   -0.345943
    42  C   -0.210050
    43  C   -0.172552
    44  C   -0.147221
    45  C   -0.439665
    46  C   -0.171898
    47  C   -0.039661
    48  C   -0.014069
    49  C   -0.149702
    50  C   -0.172688
    51  C    0.226669
    52  O   -0.280120
    53  C   -0.103223
    54  C   -0.092805
    55  O   -0.340739
    56  C   -0.094331
    57  C   -0.061431
    58  O   -0.362977
    59  C   -0.076988
    60  C   -0.037747
    61  O   -0.352718
    62  C   -0.204187
    63  C   -0.196422
    64  C   -0.141211
    65  F   -0.336393
    66  F   -0.334279
    67  H    0.193913
    68  H    0.190840
    69  H    0.163933
    70  H    0.195129
    71  H    0.195919
    72  H    0.161152
    73  H    0.170891
    74  H    0.135525
    75  H    0.176888
    76  H    0.119701
    77  H    0.129783
    78  H    0.155213
    79  H    0.159515
    80  H    0.166003
    81  H    0.152811
    82  H    0.133963
    83  H    0.132330
    84  H    0.126034
    85  H    0.123926
    86  H    0.132171
    87  H    0.132931
    88  H    0.130944
    89  H    0.139894
    90  H    0.138000
    91  H    0.141106
    92  H    0.137614
    93  H    0.123706
    94  H    0.125943
    95  H    0.155145
    96  H    0.142000
    97  H    0.184801
    98  H    0.138412
    99  H    0.135998
   100  H    0.124730
   101  H    0.128525
   102  H    0.143913
   103  H    0.156755
   104  H    0.151029
   105  H    0.151023
   106  H    0.127369
   107  H    0.129691
   108  H    0.127495
   109  H    0.120388
   110  H    0.133133
   111  H    0.125081
   112  H    0.119134
   113  H    0.133673
   114  H    0.112502
   115  H    0.110449
   116  H    0.136545
   117  H    0.120599
   118  H    0.120201
   119  H    0.159411
   120  H    0.148987
   121  O   -0.215052
   122  Br  -0.079730
   123  Br  -0.077513
 Sum of Mulliken charges =  -0.00000
 Mulliken charges with hydrogens summed into heavy atoms:
               1
     1  B    0.339678
     2  N   -0.087451
     3  C    0.154916
     4  C   -0.128104
     5  C    0.104934
     6  C    0.108474
     7  C    0.077932
     8  C    0.154222
     9  O   -0.322208
    10  C    0.218271
    11  C   -0.054319
    12  C    0.062548
    13  C    0.100601
    14  C   -0.010932
    15  C    0.086109
    16  C    0.071524
    17  N    0.494283
    18  O   -0.366886
    19  O   -0.366871
    20  C    0.087387
    21  N   -0.087309
    22  C    0.141599
    23  C   -0.123711
    24  C    0.105699
    25  C    0.029189
    26  C   -0.025776
    27  C    0.044493
    28  C    0.012262
    29  C    0.003013
    30  C   -0.036040
    31  C    0.232634
    32  O   -0.278745
    33  C    0.220152
    34  C    0.120739
    35  O   -0.326808
    36  C    0.205321
    37  C    0.130241
    38  O   -0.334083
    39  C    0.171411
    40  C    0.172005
    41  O   -0.345943
    42  C    0.177213
    43  C   -0.017407
    44  C   -0.005221
    45  C    0.019546
    46  C   -0.047168
    47  C    0.088865
    48  C   -0.014069
    49  C   -0.005789
    50  C   -0.015933
    51  C    0.226669
    52  O   -0.280120
    53  C    0.198828
    54  C    0.164255
    55  O   -0.340739
    56  C    0.153552
    57  C    0.196783
    58  O   -0.362977
    59  C    0.175819
    60  C    0.185203
    61  O   -0.352718
    62  C    0.173158
    63  C   -0.037011
    64  C    0.007776
    65  F   -0.336393
    66  F   -0.334279
   121  O   -0.215052
   122  Br  -0.079730
   123  Br  -0.077513
 Electronic spatial extent (au):  <R**2>=         141560.9594
 Charge=              0.0000 electrons
 Dipole moment (field-independent basis, Debye):
    X=             -4.9919    Y=             -3.8336    Z=             -6.2594  Tot=              8.8767
 Quadrupole moment (field-independent basis, Debye-Ang):
   XX=           -394.7659   YY=           -404.1727   ZZ=           -420.7401
   XY=            -50.3287   XZ=             51.6371   YZ=              2.2089
 Traceless Quadrupole moment (field-independent basis, Debye-Ang):
   XX=             11.7936   YY=              2.3869   ZZ=            -14.1805
   XY=            -50.3287   XZ=             51.6371   YZ=              2.2089
 Octapole moment (field-independent basis, Debye-Ang**2):
  XXX=          -1489.1460  YYY=             33.3619  ZZZ=            -20.3415  XYY=             15.0524
  XXY=          -1168.9878  XXZ=            -28.3266  XZZ=           -199.4501  YZZ=            -94.9087
  YYZ=           -332.2291  XYZ=            -67.2619
 Hexadecapole moment (field-independent basis, Debye-Ang**3):
 XXXX=        -129887.1545 YYYY=         -47414.8962 ZZZZ=          -5918.7637 XXXY=          -2258.8645
 XXXZ=           7089.1276 YYYX=            983.0351 YYYZ=          -1096.3814 ZZZX=            476.7234
 ZZZY=            -52.5594 XXYY=         -29233.4792 XXZZ=         -21264.8723 YYZZ=          -8507.6721
 XXYZ=           3297.1658 YYXZ=           2866.2969 ZZXY=            610.0809
 N-N= 1.130617746841D+04 E-N=-4.237023730777D+04  KE= 8.315898279580D+03
 Leave Link  601 at Thu Nov 13 23:20:34 2025, MaxMem= 30870077440 cpu:             153.5 elap:               3.0
 (Enter /public/software/gauss/g16/l9999.exe)
 1\1\GINC-CU137\SP\RM062X\def2TZVPP\C49H54B1Br2F2N3O12\BAIDING\13-Nov-2
 025\0\\#p M062X/DEF2TZVPP scrf=(solvent=water) em=GD3\\Energy calculat
 ion for BE_Br_i\\0,1\B,0,-2.30381,0.639133,0.46085\N,0,-3.460933,-0.40
 0816,0.426789\C,0,-3.314944,-1.729311,0.13657\C,0,-4.631406,-2.269395,
 0.012543\C,0,-5.574294,-1.271547,0.217165\C,0,-4.813621,-0.086783,0.47
 7191\C,0,-5.218185,1.226321,0.753076\C,0,-6.688478,1.528792,0.894317\O
 ,0,-7.337562,1.252642,1.885792\C,0,-8.564245,2.583703,-0.163517\C,0,-9
 .493913,1.483597,-0.609167\C,0,-9.56516,1.137307,-1.967346\C,0,-10.408
 715,0.118667,-2.395728\C,0,-11.184255,-0.54504,-1.443545\C,0,-11.13944
 1,-0.221451,-0.087549\C,0,-10.284283,0.796806,0.322723\N,0,-12.076882,
 -1.614905,-1.88321\O,0,-12.115157,-1.891195,-3.086273\O,0,-12.756057,-
 2.199962,-1.033723\C,0,-4.290443,2.256356,0.961599\N,0,-2.919134,2.025
 392,0.815574\C,0,-2.245391,3.173985,1.129778\C,0,-3.226828,4.141607,1.
 502695\C,0,-4.498354,3.606993,1.394458\C,0,-5.7898,4.302178,1.685831\C
 ,0,-0.832308,3.432296,1.115676\C,0,0.152903,2.742797,0.479429\C,0,1.57
 1093,3.059679,0.505558\C,0,2.135238,4.120948,1.253784\C,0,3.496514,4.3
 63796,1.234304\C,0,4.354568,3.552865,0.46591\O,0,5.676683,3.87457,0.52
 2244\C,0,6.612245,3.093508,-0.240279\C,0,7.999998,3.647237,0.03039\O,0
 ,8.175658,4.998719,-0.378548\C,0,8.336953,5.170574,-1.787597\C,0,8.758
 081,6.605905,-2.046385\O,0,10.036211,6.904644,-1.477182\C,0,11.099529,
 7.086203,-2.411233\C,0,11.537879,5.810958,-3.128281\O,0,11.842338,4.72
 084,-2.262852\C,0,13.011362,4.913966,-1.474011\C,0,3.822812,2.494871,-
 0.284107\C,0,2.449925,2.263537,-0.255357\C,0,-7.061115,-1.418071,0.178
 16\C,0,-2.00737,-2.323397,0.046222\C,0,-1.692033,-3.500969,-0.554474\C
 ,0,-0.363517,-4.085641,-0.653597\C,0,-0.213568,-5.306264,-1.339798\C,0
 ,1.024418,-5.9285,-1.482311\C,0,2.161335,-5.325776,-0.92733\O,0,3.4231
 53,-5.83483,-1.002923\C,0,3.623375,-7.081122,-1.690523\C,0,5.094749,-7
 .416231,-1.626183\O,0,5.439023,-7.713608,-0.274566\C,0,6.808142,-8.072
 104,-0.091013\C,0,7.711871,-6.842117,0.033947\O,0,9.066059,-7.241191,0
 .265419\C,0,9.412133,-7.397009,1.642317\C,0,9.928348,-6.082099,2.21841
 5\O,0,10.278999,-6.312385,3.576534\C,0,10.774453,-5.141254,4.210189\C,
 0,2.036823,-4.105295,-0.235981\C,0,0.800693,-3.498893,-0.102785\F,0,-1
 .359939,0.281898,1.428448\F,0,-1.696094,0.675428,-0.803956\H,0,-8.8032
 62,2.932058,0.841\H,0,-8.582132,3.421006,-0.861353\H,0,-8.95917,1.6714
 46,-2.692545\H,0,-10.473236,-0.155357,-3.440898\H,0,-11.757405,-0.7556
 49,0.622716\H,0,-10.229599,1.060629,1.373515\H,0,-6.418844,3.718264,2.
 362979\H,0,-5.600955,5.268116,2.157706\H,0,-6.361176,4.483518,0.769679
 \H,0,-0.565608,4.332619,1.660672\H,0,-0.110966,1.891398,-0.136724\H,0,
 1.501951,4.761683,1.858979\H,0,3.927167,5.177403,1.809302\H,0,6.577484
 ,2.044257,0.077129\H,0,6.355769,3.143147,-1.304402\H,0,8.191068,3.6288
 24,1.108089\H,0,8.733568,2.991235,-0.460047\H,0,9.093481,4.469109,-2.1
 63852\H,0,7.39537,4.978542,-2.322733\H,0,8.750821,6.794468,-3.126743\H
 ,0,8.027256,7.280792,-1.583401\H,0,10.826331,7.828004,-3.176866\H,0,11
 .92667,7.503237,-1.828904\H,0,10.738747,5.449515,-3.782777\H,0,12.4052
 63,6.058288,-3.760896\H,0,13.222802,3.962299,-0.979436\H,0,13.873517,5
 .190472,-2.097583\H,0,12.873872,5.683716,-0.703851\H,0,4.460976,1.8560
 06,-0.881988\H,0,2.043204,1.441293,-0.837777\H,0,-7.502281,-1.296797,1
 .172107\H,0,-7.516251,-0.673926,-0.48152\H,0,-7.336629,-2.405943,-0.19
 5023\H,0,-1.217784,-1.729923,0.49179\H,0,-2.47393,-4.079468,-1.03513\H
 ,0,-1.091436,-5.777946,-1.773016\H,0,1.092545,-6.866817,-2.018864\H,0,
 3.029984,-7.869966,-1.213864\H,0,3.316249,-6.987916,-2.738618\H,0,5.28
 1747,-8.287614,-2.270604\H,0,5.682907,-6.57451,-2.015001\H,0,6.851962,
 -8.656108,0.834119\H,0,7.157949,-8.711798,-0.913175\H,0,7.710547,-6.26
 4849,-0.89569\H,0,7.343617,-6.190731,0.836107\H,0,8.559825,-7.756432,2
 .232277\H,0,10.199948,-8.155868,1.692369\H,0,10.802184,-5.741062,1.642
 067\H,0,9.155182,-5.301284,2.14632\H,0,11.017821,-5.405809,5.242393\H,
 0,11.681494,-4.767414,3.713488\H,0,10.024158,-4.337376,4.214315\H,0,2.
 928507,-3.653758,0.187167\H,0,0.738361,-2.55791,0.434236\O,0,-7.164821
 ,2.143618,-0.194084\Br,0,-2.827714,5.918041,2.01883\Br,0,-5.071615,-4.
 088224,-0.275103\\Version=ES64L-G16RevA.03\State=1-A\HF=-8339.5968308\
 RMSD=3.924e-09\Dipole=1.9639568,1.5082562,-2.4626284\Quadrupole=8.7682
 747,1.7746092,-10.5428839,-37.4181688,-38.3909258,-1.6422984\PG=C01 [X
 (C49H54B1Br2F2N3O12)]\\@


 ABALONE: AN EXPRESSION OF DISBELIEF.
 Job cpu time:       1 days  9 hours 56 minutes 27.2 seconds.
 Elapsed time:       0 days  0 hours 32 minutes 30.9 seconds.
 File lengths (MBytes):  RWF=   5730 Int=      0 D2E=      0 Chk=    496 Scr=      1
 Normal termination of Gaussian 16 at Thu Nov 13 23:20:35 2025.
