 Entering Gaussian System, Link 0=g16
 Input=BE_Br_reduced_sp.gjf
 Output=BE_Br_reduced_sp.log
 Initial command:
 /public/software/gauss/g16/l1.exe "/public/home/baiding/1028_sp/tmp_BE_Br_reduced_sp_1538822/Gau-34717.inp" -scrdir="/public/home/baiding/1028_sp/tmp_BE_Br_reduced_sp_1538822/"
 Entering Link 1 = /public/software/gauss/g16/l1.exe PID=     34718.
  
 Copyright (c) 1988,1990,1992,1993,1995,1998,2003,2009,2016,
            Gaussian, Inc.  All Rights Reserved.
  
 This is part of the Gaussian(R) 16 program.  It is based on
 the Gaussian(R) 09 system (copyright 2009, Gaussian, Inc.),
 the Gaussian(R) 03 system (copyright 2003, Gaussian, Inc.),
 the Gaussian(R) 98 system (copyright 1998, Gaussian, Inc.),
 the Gaussian(R) 94 system (copyright 1995, Gaussian, Inc.),
 the Gaussian 92(TM) system (copyright 1992, Gaussian, Inc.),
 the Gaussian 90(TM) system (copyright 1990, Gaussian, Inc.),
 the Gaussian 88(TM) system (copyright 1988, Gaussian, Inc.),
 the Gaussian 86(TM) system (copyright 1986, Carnegie Mellon
 University), and the Gaussian 82(TM) system (copyright 1983,
 Carnegie Mellon University). Gaussian is a federally registered
 trademark of Gaussian, Inc.
  
 This software contains proprietary and confidential information,
 including trade secrets, belonging to Gaussian, Inc.
  
 This software is provided under written license and may be
 used, copied, transmitted, or stored only in accord with that
 written license.
  
 The following legend is applicable only to US Government
 contracts under FAR:
  
                    RESTRICTED RIGHTS LEGEND
  
 Use, reproduction and disclosure by the US Government is
 subject to restrictions as set forth in subparagraphs (a)
 and (c) of the Commercial Computer Software - Restricted
 Rights clause in FAR 52.227-19.
  
 Gaussian, Inc.
 340 Quinnipiac St., Bldg. 40, Wallingford CT 06492
  
  
 ---------------------------------------------------------------
 Warning -- This program may not be used in any manner that
 competes with the business of Gaussian, Inc. or will provide
 assistance to any competitor of Gaussian, Inc.  The licensee
 of this program is prohibited from giving any competitor of
 Gaussian, Inc. access to this program.  By using this program,
 the user acknowledges that Gaussian, Inc. is engaged in the
 business of creating and licensing software in the field of
 computational chemistry and represents and warrants to the
 licensee that it is not a competitor of Gaussian, Inc. and that
 it will not use this program in any manner prohibited above.
 ---------------------------------------------------------------
  

 Cite this work as:
 Gaussian 16, Revision A.03,
 M. J. Frisch, G. W. Trucks, H. B. Schlegel, G. E. Scuseria, 
 M. A. Robb, J. R. Cheeseman, G. Scalmani, V. Barone, 
 G. A. Petersson, H. Nakatsuji, X. Li, M. Caricato, A. V. Marenich, 
 J. Bloino, B. G. Janesko, R. Gomperts, B. Mennucci, H. P. Hratchian, 
 J. V. Ortiz, A. F. Izmaylov, J. L. Sonnenberg, D. Williams-Young, 
 F. Ding, F. Lipparini, F. Egidi, J. Goings, B. Peng, A. Petrone, 
 T. Henderson, D. Ranasinghe, V. G. Zakrzewski, J. Gao, N. Rega, 
 G. Zheng, W. Liang, M. Hada, M. Ehara, K. Toyota, R. Fukuda, 
 J. Hasegawa, M. Ishida, T. Nakajima, Y. Honda, O. Kitao, H. Nakai, 
 T. Vreven, K. Throssell, J. A. Montgomery, Jr., J. E. Peralta, 
 F. Ogliaro, M. J. Bearpark, J. J. Heyd, E. N. Brothers, K. N. Kudin, 
 V. N. Staroverov, T. A. Keith, R. Kobayashi, J. Normand, 
 K. Raghavachari, A. P. Rendell, J. C. Burant, S. S. Iyengar, 
 J. Tomasi, M. Cossi, J. M. Millam, M. Klene, C. Adamo, R. Cammi, 
 J. W. Ochterski, R. L. Martin, K. Morokuma, O. Farkas, 
 J. B. Foresman, and D. J. Fox, Gaussian, Inc., Wallingford CT, 2016.
 
 ******************************************
 Gaussian 16:  ES64L-G16RevA.03 25-Dec-2016
                28-Oct-2025 
 ******************************************
 %nprocshared=64
 Will use up to   64 processors via shared memory.
 %mem=230GB
 %chk=BE_Br_reduced_sp.chk
 ----------------------------------------------
 #p M062X/DEF2TZVPP scrf=(solvent=water) em=GD3
 ----------------------------------------------
 1/38=1,172=1/1;
 2/12=2,17=6,18=5,40=1/2;
 3/5=44,7=202,11=2,25=1,30=1,70=2201,72=1,74=-55,124=31/1,2,3;
 4//1;
 5/5=2,38=5,53=1/2;
 6/7=2,8=2,9=2,10=2,28=1/1;
 99/5=1,9=1/99;
 Leave Link    1 at Tue Oct 28 15:06:29 2025, MaxMem= 30870077440 cpu:              17.4 elap:               0.3
 (Enter /public/software/gauss/g16/l101.exe)
 ------------------------------------
 Energy calculation for BE_Br_reduced
 ------------------------------------
 Symbolic Z-matrix:
 Charge = -1 Multiplicity = 2
 B                     2.02116  -0.68232  -0.85906 
 N                     2.81043   0.29909  -1.77746 
 C                     2.35708   1.44888  -2.41186 
 C                     3.49592   2.03905  -3.00474 
 C                     4.64326   1.2912   -2.71211 
 C                     4.18785   0.21801  -1.90607 
 C                     4.89348  -0.87467  -1.28282 
 C                     6.16269  -0.60596  -0.62327 
 O                     6.74953   0.49202  -0.7153 
 C                     6.77399  -1.64484   0.33191 
 C                     7.5958   -1.02191   1.43599 
 C                     7.13216  -0.06177   2.36184 
 N                     5.74703   0.42081   2.34776 
 O                     4.87659  -0.29311   1.84479 
 O                     5.5117    1.51905   2.8595 
 C                     7.94255   0.4855    3.35158 
 C                     9.25655   0.0485    3.43664 
 C                     9.77306  -0.89716   2.55304 
 C                     8.93929  -1.40792   1.56575 
 N                     10.11505   0.60166   4.48117 
 O                     9.63513   1.43699   5.25158 
 O                     11.2817   0.20604   4.54292 
 C                     4.1479   -2.09824  -1.09472 
 N                     2.77403  -2.04236  -0.92613 
 C                     2.27877  -3.32799  -0.75 
 C                     3.38324  -4.19224  -0.89283 
 C                     4.55307  -3.45332  -1.12755 
 C                     5.88429  -4.01793  -1.51966 
 Br                    3.34626  -6.09085  -0.92521 
 C                     0.88525  -3.57844  -0.4672 
 C                     0.35185  -4.70425   0.07298 
 C                    -1.06608  -4.94034   0.33653 
 C                    -1.44384  -6.10041   1.0473 
 C                    -2.7722   -6.37609   1.34116 
 C                    -3.78233  -5.49538   0.9272 
 O                    -5.06282  -5.86888   1.25657 
 C                    -6.17143  -5.03577   0.88615 
 C                    -6.36812  -3.89837   1.89235 
 O                    -7.47317  -3.07105   1.54201 
 C                    -8.76842  -3.60168   1.85074 
 C                    -9.54097  -3.87025   0.55742 
 O                    -10.86411  -4.33239   0.81783 
 C                    -11.81297  -3.2898    1.04791 
 C                    -13.18052  -3.91886   1.25538 
 O                    -13.65475  -4.66569   0.13753 
 C                    -14.12653  -3.85631  -0.93353 
 C                    -3.43724  -4.33878   0.21236 
 C                    -2.10012  -4.07636  -0.0759 
 C                     6.0053    1.51449  -3.29344 
 Br                    3.52395   3.5491   -4.15732 
 C                     0.97119   1.8422   -2.37119 
 C                     0.45138   3.05978  -2.67955 
 C                    -0.96093   3.42641  -2.62923 
 C                    -2.00101   2.53201  -2.28481 
 C                    -3.32245   2.94694  -2.24618 
 C                    -3.66572   4.27555  -2.55444 
 O                    -5.00652   4.56083  -2.5004 
 C                    -5.46513   5.89831  -2.75674 
 C                    -5.33122   6.80945  -1.55148 
 O                    -6.1903    6.32039  -0.52241 
 C                    -6.11849   7.06618   0.69305 
 C                    -4.99248   6.55312   1.59738 
 O                    -4.99602   7.20323   2.86629 
 C                    -4.33116   8.46663   2.87985 
 C                    -4.32341   8.99104   4.30616 
 O                    -3.63282   8.15453   5.23085 
 C                    -2.21586   8.23239   5.12691 
 C                    -2.65612   5.18215  -2.90052 
 C                    -1.33045   4.75009  -2.93464 
 F                     0.71095  -0.84016  -1.34543 
 F                     1.97492  -0.20071   0.45835 
 H                     5.9977   -2.28143   0.75985 
 H                     7.44266  -2.29059  -0.24221 
 H                     7.55224   1.22199   4.03953 
 H                     10.80349  -1.21894   2.6346 
 H                     9.33917  -2.1322    0.86457 
 H                     6.44716  -4.41143  -0.66509 
 H                     5.75045  -4.84802  -2.22117 
 H                     6.50181  -3.26538  -2.01458 
 H                     0.22634  -2.75025  -0.69586 
 H                     1.00562  -5.51803   0.37018 
 H                    -0.67344  -6.79314   1.37599 
 H                    -3.04907  -7.2713    1.88934 
 H                    -6.05209  -4.64421  -0.12916 
 H                    -7.03656  -5.70333   0.89371 
 H                    -6.49294  -4.31758   2.89964 
 H                    -5.48986  -3.2463    1.90364 
 H                    -8.6873   -4.52447   2.43667 
 H                    -9.29679  -2.86028   2.46193 
 H                    -9.55928  -2.96145  -0.06033 
 H                    -9.04023  -4.65765  -0.01566 
 H                    -11.56439  -2.70848   1.94717 
 H                    -11.81782  -2.59462   0.19613 
 H                    -13.12689  -4.628     2.08812 
 H                    -13.89511  -3.12666   1.5241 
 H                    -14.54606  -4.53192  -1.68352 
 H                    -14.91248  -3.16562  -0.59562 
 H                    -13.32503  -3.27028  -1.40189 
 H                    -4.19414  -3.64056  -0.12423 
 H                    -1.86522  -3.17894  -0.63993 
 H                     6.55532   2.30385  -2.76931 
 H                     6.60881   0.60775  -3.2468 
 H                     5.9222    1.8188   -4.34227 
 H                     0.29928   1.06517  -2.02998 
 H                     1.11314   3.86475  -2.98141 
 H                    -1.77484   1.49779  -2.04491 
 H                    -4.11509   2.25376  -1.98174 
 H                    -4.95101   6.33129  -3.62041 
 H                    -6.52204   5.78341  -3.01058 
 H                    -4.29002   6.8533   -1.20913 
 H                    -5.63009   7.82573  -1.85059 
 H                    -6.00098   8.137     0.47986 
 H                    -7.07643   6.92705   1.20504 
 H                    -5.15261   5.48726   1.79057 
 H                    -4.01411   6.66656   1.11065 
 H                    -3.30907   8.35606   2.48996 
 H                    -4.84799   9.20253   2.2475 
 H                    -3.89668   10.00519   4.30637 
 H                    -5.3539    9.05366   4.67129 
 H                    -1.80246   7.62885   5.93917 
 H                    -1.84216   7.83638   4.17367 
 H                    -1.86366   9.26819   5.23689 
 H                    -2.88082   6.21453  -3.13938 
 H                    -0.55578   5.46386  -3.20292 
 
 ITRead=  0  0  0  0  0  0  0  0  0  0  0  0  0  0  0  0  0  0  0  0
 ITRead=  0  0  0  0  0  0  0  0  0  0  0  0  0  0  0  0  0  0  0  0
 ITRead=  0  0  0  0  0  0  0  0  0  0  0  0  0  0  0  0  0  0  0  0
 ITRead=  0  0  0  0  0  0  0  0  0  0  0  0  0  0  0  0  0  0  0  0
 ITRead=  0  0  0  0  0  0  0  0  0  0  0  0  0  0  0  0  0  0  0  0
 ITRead=  0  0  0  0  0  0  0  0  0  0  0  0  0  0  0  0  0  0  0  0
 ITRead=  0  0  0  0
 MicOpt= -1 -1 -1 -1 -1 -1 -1 -1 -1 -1 -1 -1 -1 -1 -1 -1 -1 -1 -1 -1
 MicOpt= -1 -1 -1 -1 -1 -1 -1 -1 -1 -1 -1 -1 -1 -1 -1 -1 -1 -1 -1 -1
 MicOpt= -1 -1 -1 -1 -1 -1 -1 -1 -1 -1 -1 -1 -1 -1 -1 -1 -1 -1 -1 -1
 MicOpt= -1 -1 -1 -1 -1 -1 -1 -1 -1 -1 -1 -1 -1 -1 -1 -1 -1 -1 -1 -1
 MicOpt= -1 -1 -1 -1 -1 -1 -1 -1 -1 -1 -1 -1 -1 -1 -1 -1 -1 -1 -1 -1
 MicOpt= -1 -1 -1 -1 -1 -1 -1 -1 -1 -1 -1 -1 -1 -1 -1 -1 -1 -1 -1 -1
 MicOpt= -1 -1 -1 -1
 NAtoms=    124 NQM=      124 NQMF=       0 NMMI=      0 NMMIF=      0
                NMic=       0 NMicF=      0.
                    Isotopes and Nuclear Properties:
 (Nuclear quadrupole moments (NQMom) in fm**2, nuclear magnetic moments (NMagM)
  in nuclear magnetons)

  Atom         1           2           3           4           5           6           7           8           9          10
 IAtWgt=          11          14          12          12          12          12          12          12          16          12
 AtmWgt=  11.0093053  14.0030740  12.0000000  12.0000000  12.0000000  12.0000000  12.0000000  12.0000000  15.9949146  12.0000000
 NucSpn=           3           2           0           0           0           0           0           0           0           0
 AtZEff=  -0.0000000  -0.0000000  -0.0000000  -0.0000000  -0.0000000  -0.0000000  -0.0000000  -0.0000000  -0.0000000  -0.0000000
 NQMom=    4.0590000   2.0440000   0.0000000   0.0000000   0.0000000   0.0000000   0.0000000   0.0000000   0.0000000   0.0000000
 NMagM=    2.6886370   0.4037610   0.0000000   0.0000000   0.0000000   0.0000000   0.0000000   0.0000000   0.0000000   0.0000000
 AtZNuc=   5.0000000   7.0000000   6.0000000   6.0000000   6.0000000   6.0000000   6.0000000   6.0000000   8.0000000   6.0000000

  Atom        11          12          13          14          15          16          17          18          19          20
 IAtWgt=          12          12          14          16          16          12          12          12          12          14
 AtmWgt=  12.0000000  12.0000000  14.0030740  15.9949146  15.9949146  12.0000000  12.0000000  12.0000000  12.0000000  14.0030740
 NucSpn=           0           0           2           0           0           0           0           0           0           2
 AtZEff=  -0.0000000  -0.0000000  -0.0000000  -0.0000000  -0.0000000  -0.0000000  -0.0000000  -0.0000000  -0.0000000  -0.0000000
 NQMom=    0.0000000   0.0000000   2.0440000   0.0000000   0.0000000   0.0000000   0.0000000   0.0000000   0.0000000   2.0440000
 NMagM=    0.0000000   0.0000000   0.4037610   0.0000000   0.0000000   0.0000000   0.0000000   0.0000000   0.0000000   0.4037610
 AtZNuc=   6.0000000   6.0000000   7.0000000   8.0000000   8.0000000   6.0000000   6.0000000   6.0000000   6.0000000   7.0000000

  Atom        21          22          23          24          25          26          27          28          29          30
 IAtWgt=          16          16          12          14          12          12          12          12          79          12
 AtmWgt=  15.9949146  15.9949146  12.0000000  14.0030740  12.0000000  12.0000000  12.0000000  12.0000000  78.9183361  12.0000000
 NucSpn=           0           0           0           2           0           0           0           0           3           0
 AtZEff=  -0.0000000  -0.0000000  -0.0000000  -0.0000000  -0.0000000  -0.0000000  -0.0000000  -0.0000000  -0.0000000  -0.0000000
 NQMom=    0.0000000   0.0000000   0.0000000   2.0440000   0.0000000   0.0000000   0.0000000   0.0000000  31.3000000   0.0000000
 NMagM=    0.0000000   0.0000000   0.0000000   0.4037610   0.0000000   0.0000000   0.0000000   0.0000000   2.1063990   0.0000000
 AtZNuc=   8.0000000   8.0000000   6.0000000   7.0000000   6.0000000   6.0000000   6.0000000   6.0000000  35.0000000   6.0000000

  Atom        31          32          33          34          35          36          37          38          39          40
 IAtWgt=          12          12          12          12          12          16          12          12          16          12
 AtmWgt=  12.0000000  12.0000000  12.0000000  12.0000000  12.0000000  15.9949146  12.0000000  12.0000000  15.9949146  12.0000000
 NucSpn=           0           0           0           0           0           0           0           0           0           0
 AtZEff=  -0.0000000  -0.0000000  -0.0000000  -0.0000000  -0.0000000  -0.0000000  -0.0000000  -0.0000000  -0.0000000  -0.0000000
 NQMom=    0.0000000   0.0000000   0.0000000   0.0000000   0.0000000   0.0000000   0.0000000   0.0000000   0.0000000   0.0000000
 NMagM=    0.0000000   0.0000000   0.0000000   0.0000000   0.0000000   0.0000000   0.0000000   0.0000000   0.0000000   0.0000000
 AtZNuc=   6.0000000   6.0000000   6.0000000   6.0000000   6.0000000   8.0000000   6.0000000   6.0000000   8.0000000   6.0000000

  Atom        41          42          43          44          45          46          47          48          49          50
 IAtWgt=          12          16          12          12          16          12          12          12          12          79
 AtmWgt=  12.0000000  15.9949146  12.0000000  12.0000000  15.9949146  12.0000000  12.0000000  12.0000000  12.0000000  78.9183361
 NucSpn=           0           0           0           0           0           0           0           0           0           3
 AtZEff=  -0.0000000  -0.0000000  -0.0000000  -0.0000000  -0.0000000  -0.0000000  -0.0000000  -0.0000000  -0.0000000  -0.0000000
 NQMom=    0.0000000   0.0000000   0.0000000   0.0000000   0.0000000   0.0000000   0.0000000   0.0000000   0.0000000  31.3000000
 NMagM=    0.0000000   0.0000000   0.0000000   0.0000000   0.0000000   0.0000000   0.0000000   0.0000000   0.0000000   2.1063990
 AtZNuc=   6.0000000   8.0000000   6.0000000   6.0000000   8.0000000   6.0000000   6.0000000   6.0000000   6.0000000  35.0000000

  Atom        51          52          53          54          55          56          57          58          59          60
 IAtWgt=          12          12          12          12          12          12          16          12          12          16
 AtmWgt=  12.0000000  12.0000000  12.0000000  12.0000000  12.0000000  12.0000000  15.9949146  12.0000000  12.0000000  15.9949146
 NucSpn=           0           0           0           0           0           0           0           0           0           0
 AtZEff=  -0.0000000  -0.0000000  -0.0000000  -0.0000000  -0.0000000  -0.0000000  -0.0000000  -0.0000000  -0.0000000  -0.0000000
 NQMom=    0.0000000   0.0000000   0.0000000   0.0000000   0.0000000   0.0000000   0.0000000   0.0000000   0.0000000   0.0000000
 NMagM=    0.0000000   0.0000000   0.0000000   0.0000000   0.0000000   0.0000000   0.0000000   0.0000000   0.0000000   0.0000000
 AtZNuc=   6.0000000   6.0000000   6.0000000   6.0000000   6.0000000   6.0000000   8.0000000   6.0000000   6.0000000   8.0000000

  Atom        61          62          63          64          65          66          67          68          69          70
 IAtWgt=          12          12          16          12          12          16          12          12          12          19
 AtmWgt=  12.0000000  12.0000000  15.9949146  12.0000000  12.0000000  15.9949146  12.0000000  12.0000000  12.0000000  18.9984033
 NucSpn=           0           0           0           0           0           0           0           0           0           1
 AtZEff=  -0.0000000  -0.0000000  -0.0000000  -0.0000000  -0.0000000  -0.0000000  -0.0000000  -0.0000000  -0.0000000  -0.0000000
 NQMom=    0.0000000   0.0000000   0.0000000   0.0000000   0.0000000   0.0000000   0.0000000   0.0000000   0.0000000   0.0000000
 NMagM=    0.0000000   0.0000000   0.0000000   0.0000000   0.0000000   0.0000000   0.0000000   0.0000000   0.0000000   2.6288670
 AtZNuc=   6.0000000   6.0000000   8.0000000   6.0000000   6.0000000   8.0000000   6.0000000   6.0000000   6.0000000   9.0000000

  Atom        71          72          73          74          75          76          77          78          79          80
 IAtWgt=          19           1           1           1           1           1           1           1           1           1
 AtmWgt=  18.9984033   1.0078250   1.0078250   1.0078250   1.0078250   1.0078250   1.0078250   1.0078250   1.0078250   1.0078250
 NucSpn=           1           1           1           1           1           1           1           1           1           1
 AtZEff=  -0.0000000  -0.0000000  -0.0000000  -0.0000000  -0.0000000  -0.0000000  -0.0000000  -0.0000000  -0.0000000  -0.0000000
 NQMom=    0.0000000   0.0000000   0.0000000   0.0000000   0.0000000   0.0000000   0.0000000   0.0000000   0.0000000   0.0000000
 NMagM=    2.6288670   2.7928460   2.7928460   2.7928460   2.7928460   2.7928460   2.7928460   2.7928460   2.7928460   2.7928460
 AtZNuc=   9.0000000   1.0000000   1.0000000   1.0000000   1.0000000   1.0000000   1.0000000   1.0000000   1.0000000   1.0000000

  Atom        81          82          83          84          85          86          87          88          89          90
 IAtWgt=           1           1           1           1           1           1           1           1           1           1
 AtmWgt=   1.0078250   1.0078250   1.0078250   1.0078250   1.0078250   1.0078250   1.0078250   1.0078250   1.0078250   1.0078250
 NucSpn=           1           1           1           1           1           1           1           1           1           1
 AtZEff=  -0.0000000  -0.0000000  -0.0000000  -0.0000000  -0.0000000  -0.0000000  -0.0000000  -0.0000000  -0.0000000  -0.0000000
 NQMom=    0.0000000   0.0000000   0.0000000   0.0000000   0.0000000   0.0000000   0.0000000   0.0000000   0.0000000   0.0000000
 NMagM=    2.7928460   2.7928460   2.7928460   2.7928460   2.7928460   2.7928460   2.7928460   2.7928460   2.7928460   2.7928460
 AtZNuc=   1.0000000   1.0000000   1.0000000   1.0000000   1.0000000   1.0000000   1.0000000   1.0000000   1.0000000   1.0000000

  Atom        91          92          93          94          95          96          97          98          99         100
 IAtWgt=           1           1           1           1           1           1           1           1           1           1
 AtmWgt=   1.0078250   1.0078250   1.0078250   1.0078250   1.0078250   1.0078250   1.0078250   1.0078250   1.0078250   1.0078250
 NucSpn=           1           1           1           1           1           1           1           1           1           1
 AtZEff=  -0.0000000  -0.0000000  -0.0000000  -0.0000000  -0.0000000  -0.0000000  -0.0000000  -0.0000000  -0.0000000  -0.0000000
 NQMom=    0.0000000   0.0000000   0.0000000   0.0000000   0.0000000   0.0000000   0.0000000   0.0000000   0.0000000   0.0000000
 NMagM=    2.7928460   2.7928460   2.7928460   2.7928460   2.7928460   2.7928460   2.7928460   2.7928460   2.7928460   2.7928460
 AtZNuc=   1.0000000   1.0000000   1.0000000   1.0000000   1.0000000   1.0000000   1.0000000   1.0000000   1.0000000   1.0000000

  Atom       101         102         103         104         105         106         107         108         109         110
 IAtWgt=           1           1           1           1           1           1           1           1           1           1
 AtmWgt=   1.0078250   1.0078250   1.0078250   1.0078250   1.0078250   1.0078250   1.0078250   1.0078250   1.0078250   1.0078250
 NucSpn=           1           1           1           1           1           1           1           1           1           1
 AtZEff=  -0.0000000  -0.0000000  -0.0000000  -0.0000000  -0.0000000  -0.0000000  -0.0000000  -0.0000000  -0.0000000  -0.0000000
 NQMom=    0.0000000   0.0000000   0.0000000   0.0000000   0.0000000   0.0000000   0.0000000   0.0000000   0.0000000   0.0000000
 NMagM=    2.7928460   2.7928460   2.7928460   2.7928460   2.7928460   2.7928460   2.7928460   2.7928460   2.7928460   2.7928460
 AtZNuc=   1.0000000   1.0000000   1.0000000   1.0000000   1.0000000   1.0000000   1.0000000   1.0000000   1.0000000   1.0000000

  Atom       111         112         113         114         115         116         117         118         119         120
 IAtWgt=           1           1           1           1           1           1           1           1           1           1
 AtmWgt=   1.0078250   1.0078250   1.0078250   1.0078250   1.0078250   1.0078250   1.0078250   1.0078250   1.0078250   1.0078250
 NucSpn=           1           1           1           1           1           1           1           1           1           1
 AtZEff=  -0.0000000  -0.0000000  -0.0000000  -0.0000000  -0.0000000  -0.0000000  -0.0000000  -0.0000000  -0.0000000  -0.0000000
 NQMom=    0.0000000   0.0000000   0.0000000   0.0000000   0.0000000   0.0000000   0.0000000   0.0000000   0.0000000   0.0000000
 NMagM=    2.7928460   2.7928460   2.7928460   2.7928460   2.7928460   2.7928460   2.7928460   2.7928460   2.7928460   2.7928460
 AtZNuc=   1.0000000   1.0000000   1.0000000   1.0000000   1.0000000   1.0000000   1.0000000   1.0000000   1.0000000   1.0000000

  Atom       121         122         123         124
 IAtWgt=           1           1           1           1
 AtmWgt=   1.0078250   1.0078250   1.0078250   1.0078250
 NucSpn=           1           1           1           1
 AtZEff=  -0.0000000  -0.0000000  -0.0000000  -0.0000000
 NQMom=    0.0000000   0.0000000   0.0000000   0.0000000
 NMagM=    2.7928460   2.7928460   2.7928460   2.7928460
 AtZNuc=   1.0000000   1.0000000   1.0000000   1.0000000
 Leave Link  101 at Tue Oct 28 15:06:29 2025, MaxMem= 30870077440 cpu:               4.7 elap:               0.1
 (Enter /public/software/gauss/g16/l202.exe)
 Stoichiometry    C49H53BBr2F2N4O13(1-,2)
 Framework group  C1[X(C49H53BBr2F2N4O13)]
 Deg. of freedom   366
 Full point group                 C1      NOp   1
 Largest Abelian subgroup         C1      NOp   1
 Largest concise Abelian subgroup C1      NOp   1
                         Standard orientation:                         
 ---------------------------------------------------------------------
 Center     Atomic      Atomic             Coordinates (Angstroms)
 Number     Number       Type             X           Y           Z
 ---------------------------------------------------------------------
      1          5           0        2.021163   -0.682315   -0.859060
      2          7           0        2.810429    0.299085   -1.777458
      3          6           0        2.357079    1.448883   -2.411861
      4          6           0        3.495916    2.039048   -3.004737
      5          6           0        4.643258    1.291203   -2.712109
      6          6           0        4.187853    0.218010   -1.906073
      7          6           0        4.893477   -0.874665   -1.282816
      8          6           0        6.162691   -0.605960   -0.623271
      9          8           0        6.749533    0.492024   -0.715295
     10          6           0        6.773991   -1.644841    0.331908
     11          6           0        7.595795   -1.021906    1.435986
     12          6           0        7.132165   -0.061767    2.361837
     13          7           0        5.747034    0.420811    2.347759
     14          8           0        4.876587   -0.293106    1.844794
     15          8           0        5.511704    1.519047    2.859502
     16          6           0        7.942552    0.485500    3.351579
     17          6           0        9.256548    0.048499    3.436641
     18          6           0        9.773063   -0.897155    2.553038
     19          6           0        8.939289   -1.407915    1.565745
     20          7           0       10.115048    0.601658    4.481174
     21          8           0        9.635134    1.436985    5.251581
     22          8           0       11.281699    0.206041    4.542921
     23          6           0        4.147901   -2.098244   -1.094720
     24          7           0        2.774028   -2.042355   -0.926127
     25          6           0        2.278766   -3.327991   -0.749995
     26          6           0        3.383238   -4.192245   -0.892829
     27          6           0        4.553073   -3.453322   -1.127550
     28          6           0        5.884286   -4.017930   -1.519660
     29         35           0        3.346255   -6.090850   -0.925212
     30          6           0        0.885252   -3.578441   -0.467201
     31          6           0        0.351846   -4.704254    0.072977
     32          6           0       -1.066084   -4.940338    0.336526
     33          6           0       -1.443841   -6.100413    1.047301
     34          6           0       -2.772200   -6.376089    1.341155
     35          6           0       -3.782334   -5.495384    0.927204
     36          8           0       -5.062823   -5.868884    1.256568
     37          6           0       -6.171430   -5.035770    0.886151
     38          6           0       -6.368115   -3.898374    1.892354
     39          8           0       -7.473173   -3.071054    1.542006
     40          6           0       -8.768418   -3.601676    1.850744
     41          6           0       -9.540972   -3.870251    0.557420
     42          8           0      -10.864115   -4.332387    0.817828
     43          6           0      -11.812972   -3.289795    1.047908
     44          6           0      -13.180517   -3.918857    1.255377
     45          8           0      -13.654749   -4.665694    0.137526
     46          6           0      -14.126526   -3.856308   -0.933525
     47          6           0       -3.437241   -4.338780    0.212355
     48          6           0       -2.100115   -4.076361   -0.075895
     49          6           0        6.005304    1.514490   -3.293436
     50         35           0        3.523946    3.549101   -4.157316
     51          6           0        0.971193    1.842196   -2.371189
     52          6           0        0.451378    3.059783   -2.679549
     53          6           0       -0.960931    3.426405   -2.629231
     54          6           0       -2.001011    2.532012   -2.284808
     55          6           0       -3.322449    2.946938   -2.246176
     56          6           0       -3.665721    4.275546   -2.554443
     57          8           0       -5.006515    4.560825   -2.500404
     58          6           0       -5.465125    5.898307   -2.756741
     59          6           0       -5.331220    6.809448   -1.551478
     60          8           0       -6.190303    6.320394   -0.522412
     61          6           0       -6.118491    7.066179    0.693053
     62          6           0       -4.992483    6.553116    1.597377
     63          8           0       -4.996015    7.203229    2.866293
     64          6           0       -4.331158    8.466627    2.879849
     65          6           0       -4.323406    8.991035    4.306161
     66          8           0       -3.632818    8.154534    5.230847
     67          6           0       -2.215858    8.232394    5.126908
     68          6           0       -2.656117    5.182145   -2.900524
     69          6           0       -1.330450    4.750087   -2.934641
     70          9           0        0.710951   -0.840157   -1.345434
     71          9           0        1.974922   -0.200710    0.458348
     72          1           0        5.997702   -2.281433    0.759851
     73          1           0        7.442662   -2.290592   -0.242209
     74          1           0        7.552241    1.221993    4.039530
     75          1           0       10.803491   -1.218938    2.634602
     76          1           0        9.339168   -2.132196    0.864571
     77          1           0        6.447161   -4.411432   -0.665085
     78          1           0        5.750448   -4.848021   -2.221174
     79          1           0        6.501812   -3.265377   -2.014585
     80          1           0        0.226337   -2.750247   -0.695863
     81          1           0        1.005625   -5.518027    0.370182
     82          1           0       -0.673438   -6.793142    1.375994
     83          1           0       -3.049073   -7.271295    1.889340
     84          1           0       -6.052092   -4.644207   -0.129163
     85          1           0       -7.036563   -5.703328    0.893714
     86          1           0       -6.492937   -4.317579    2.899640
     87          1           0       -5.489855   -3.246302    1.903642
     88          1           0       -8.687301   -4.524468    2.436671
     89          1           0       -9.296786   -2.860283    2.461927
     90          1           0       -9.559284   -2.961446   -0.060328
     91          1           0       -9.040234   -4.657646   -0.015656
     92          1           0      -11.564391   -2.708477    1.947173
     93          1           0      -11.817822   -2.594622    0.196125
     94          1           0      -13.126889   -4.627997    2.088115
     95          1           0      -13.895106   -3.126659    1.524104
     96          1           0      -14.546058   -4.531924   -1.683522
     97          1           0      -14.912483   -3.165617   -0.595622
     98          1           0      -13.325035   -3.270278   -1.401888
     99          1           0       -4.194141   -3.640562   -0.124227
    100          1           0       -1.865216   -3.178942   -0.639928
    101          1           0        6.555322    2.303851   -2.769309
    102          1           0        6.608813    0.607754   -3.246796
    103          1           0        5.922204    1.818802   -4.342275
    104          1           0        0.299276    1.065171   -2.029979
    105          1           0        1.113143    3.864753   -2.981410
    106          1           0       -1.774844    1.497791   -2.044909
    107          1           0       -4.115090    2.253758   -1.981742
    108          1           0       -4.951007    6.331287   -3.620407
    109          1           0       -6.522044    5.783409   -3.010583
    110          1           0       -4.290017    6.853299   -1.209125
    111          1           0       -5.630091    7.825725   -1.850592
    112          1           0       -6.000983    8.136995    0.479857
    113          1           0       -7.076426    6.927046    1.205043
    114          1           0       -5.152615    5.487255    1.790569
    115          1           0       -4.014110    6.666556    1.110654
    116          1           0       -3.309075    8.356056    2.489957
    117          1           0       -4.847987    9.202532    2.247500
    118          1           0       -3.896675   10.005193    4.306372
    119          1           0       -5.353896    9.053659    4.671288
    120          1           0       -1.802463    7.628849    5.939166
    121          1           0       -1.842156    7.836382    4.173671
    122          1           0       -1.863657    9.268189    5.236889
    123          1           0       -2.880816    6.214529   -3.139377
    124          1           0       -0.555775    5.463860   -3.202917
 ---------------------------------------------------------------------
 Rotational constants (GHZ):           0.0186683           0.0107492           0.0082913
 Leave Link  202 at Tue Oct 28 15:06:29 2025, MaxMem= 30870077440 cpu:               0.3 elap:               0.0
 (Enter /public/software/gauss/g16/l301.exe)
 Standard basis: def2TZVPP (5D, 7F)
 Ernie: Thresh=  0.10000D-02 Tol=  0.10000D-05 Strict=F.
 There are  3389 symmetry adapted cartesian basis functions of A   symmetry.
 There are  2977 symmetry adapted basis functions of A   symmetry.
  2977 basis functions,  4648 primitive gaussians,  3389 cartesian basis functions
   287 alpha electrons      286 beta electrons
       nuclear repulsion energy     12062.5906704244 Hartrees.
 IExCor= 4336 DFT=T Ex+Corr=M062X ExCW=0 ScaHFX=  0.540000
 ScaDFX=  1.000000  1.000000  1.000000  1.000000 ScalE2=  1.000000  1.000000
 IRadAn=      5 IRanWt=     -1 IRanGd=            0 ICorTp=0 IEmpDi=131
 NAtoms=  124 NActive=  124 NUniq=  124 SFac= 1.00D+00 NAtFMM=   60 NAOKFM=T Big=T
 Integral buffers will be    131072 words long.
 Raffenetti 2 integral format.
 Two-electron integral symmetry is turned on.
 R6Disp:  Grimme-D3 Dispersion energy=       -0.0106254524 Hartrees.
 Nuclear repulsion after empirical dispersion term =    12062.5800449720 Hartrees.
 ------------------------------------------------------------------------------
 Polarizable Continuum Model (PCM)
 =================================
 Model                : PCM.
 Atomic radii         : UFF (Universal Force Field).
 Polarization charges : Total charges.
 Charge compensation  : None.
 Solution method      : On-the-fly selection.
 Cavity type          : Scaled VdW (van der Waals Surface) (Alpha=1.100).
 Cavity algorithm     : GePol (No added spheres)
                        Default sphere list used, NSphG=  124.
                        Lebedev-Laikov grids with approx.  5.0 points / Ang**2.
                        Smoothing algorithm: York/Karplus (Gamma=1.0000).
                        Polarization charges: spherical gaussians, with
                                              point-specific exponents (IZeta= 3).
                        Self-potential: point-specific (ISelfS= 7).
                        Self-field    : sphere-specific E.n sum rule (ISelfD= 2).
 Solvent              : Water, Eps=  78.355300 Eps(inf)=   1.777849
 ------------------------------------------------------------------------------
 GePol: Number of generator spheres                  =     124
 GePol: Total number of spheres                      =     124
 GePol: Number of exposed spheres                    =     124 (100.00%)
 GePol: Number of points                             =    9036
 GePol: Average weight of points                     =       0.13
 GePol: Minimum weight of points                     =   0.78D-10
 GePol: Maximum weight of points                     =    0.20577
 GePol: Number of points with low weight             =     606
 GePol: Fraction of low-weight points (<1% of avg)   =       6.71%
 GePol: Cavity surface area                          =   1153.063 Ang**2
 GePol: Cavity volume                                =   1323.761 Ang**3
 Leave Link  301 at Tue Oct 28 15:06:29 2025, MaxMem= 30870077440 cpu:               4.9 elap:               0.1
 (Enter /public/software/gauss/g16/l302.exe)
 NPDir=0 NMtPBC=     1 NCelOv=     1 NCel=       1 NClECP=     1 NCelD=      1
         NCelK=      1 NCelE2=     1 NClLst=     1 CellRange=     0.0.
 One-electron integrals computed using PRISM.
 One-electron integral symmetry used in STVInt
   1 Symmetry operations used in ECPInt.
 ECPInt:  NShTT=  615495 NPrTT= 1773712 LenC2=  266102 LenP2D=  495520.
 LDataN:  DoStor=T MaxTD1= 6 Len=  172
 Number of processors reduced to  56 by ecpmxn.
 NBasis=  2977 RedAO= T EigKep=  5.27D-06  NBF=  2977
 NBsUse=  2977 1.00D-06 EigRej= -1.00D+00 NBFU=  2977
 Precomputing XC quadrature grid using
 IXCGrd= 4 IRadAn=           5 IRanWt=          -1 IRanGd=           0 AccXCQ= 0.00D+00.
 Generated NRdTot=       0 NPtTot=           0 NUsed=           0 NTot=          32
 NSgBfM=  2622  2616  2616  2622  2622 MxSgAt=   124 MxSgA2=   124.
 Leave Link  302 at Tue Oct 28 15:07:02 2025, MaxMem= 30870077440 cpu:            2099.5 elap:              32.9
 (Enter /public/software/gauss/g16/l303.exe)
 DipDrv:  MaxL=1.
 Leave Link  303 at Tue Oct 28 15:07:03 2025, MaxMem= 30870077440 cpu:              61.1 elap:               1.1
 (Enter /public/software/gauss/g16/l401.exe)
 ExpMin= 6.06D-02 ExpMax= 5.65D+05 ExpMxC= 5.46D+03 IAcc=3 IRadAn=         5 AccDes= 0.00D+00
 Harris functional with IExCor= 1009 and IRadAn=       5 diagonalized for initial guess.
 HarFok:  IExCor= 1009 AccDes= 0.00D+00 IRadAn=         5 IDoV= 1 UseB2=F ITyADJ=14
 ICtDFT=  3500011 ScaDFX=  1.000000  1.000000  1.000000  1.000000
 FoFCou: FMM=F IPFlag=           0 FMFlag=      100000 FMFlg1=        2001
         NFxFlg=           0 DoJE=T BraDBF=F KetDBF=T FulRan=T
         wScrn=  0.000000 ICntrl=       500 IOpCl=  0 I1Cent=   200000004 NGrid=           0
         NMat0=    1 NMatS0=      1 NMatT0=    0 NMatD0=    1 NMtDS0=    0 NMtDT0=    0
 Petite list used in FoFCou.
 Harris En= -8466.49140990021    
 JPrj=0 DoOrth=F DoCkMO=F.
 Initial guess <Sx>= 0.0000 <Sy>= 0.0000 <Sz>= 0.5000 <S**2>= 0.7500 S= 0.5000
 Leave Link  401 at Tue Oct 28 15:07:29 2025, MaxMem= 30870077440 cpu:            1665.5 elap:              26.1
 (Enter /public/software/gauss/g16/l502.exe)
 Integral symmetry usage will be decided dynamically.
 UHF open shell SCF:
 Using DIIS extrapolation, IDIIS=  1040.
 NGot= 30870077440 LenX= 30846861466 LenY= 30835372756
 Requested convergence on RMS density matrix=1.00D-08 within 128 cycles.
 Requested convergence on MAX density matrix=1.00D-06.
 Requested convergence on             energy=1.00D-06.
 No special actions if energy rises.
 Fock matrices will be formed incrementally for  20 cycles.

 Cycle   1  Pass 1  IDiag  1:
 FoFJK:  IHMeth= 1 ICntrl=       0 DoSepK=F KAlg= 0 I1Cent=           0 FoldK=F
 IRaf= 380000000 NMat=       1 IRICut=       1 DoRegI=T DoRafI=F ISym2E= 0 IDoP0=0 IntGTp=1.
 FoFCou: FMM=T IPFlag=           0 FMFlag=      100000 FMFlg1=        2001
         NFxFlg=           0 DoJE=F BraDBF=F KetDBF=F FulRan=T
         wScrn=  0.000000 ICntrl=         0 IOpCl=  1 I1Cent=           0 NGrid=           0
         NMat0=    1 NMatS0=      1 NMatT0=    0 NMatD0=    1 NMtDS0=    0 NMtDT0=    0
 Symmetry not used in FoFCou.
 FMM levels:  10  Number of levels for PrismC:   9
 Inv3:  Mode=1 IEnd=   244947888.
 Iteration    1 A*A^-1 deviation from unit magnitude is 1.13D-14 for   9033.
 Iteration    1 A*A^-1 deviation from orthogonality  is 3.83D-15 for   1378    686.
 Iteration    1 A^-1*A deviation from unit magnitude is 1.09D-14 for   9033.
 Iteration    1 A^-1*A deviation from orthogonality  is 2.09D-14 for   5502   5481.
 E= -8467.29471768771    
 DIIS: error= 2.53D-02 at cycle   1 NSaved=   1.
 NSaved= 1 IEnMin= 1 EnMin= -8467.29471768771     IErMin= 1 ErrMin= 2.53D-02
 ErrMax= 2.53D-02  0.00D+00 EMaxC= 1.00D-01 BMatC= 1.07D+01 BMatP= 1.07D+01
 IDIUse=3 WtCom= 7.47D-01 WtEn= 2.53D-01
 Coeff-Com:  0.100D+01
 Coeff-En:   0.100D+01
 Coeff:      0.100D+01
 Gap=     0.066 Goal=   None    Shift=    0.000
 Gap=     0.107 Goal=   None    Shift=    0.000
 GapD=    0.066 DampG=0.500 DampE=0.500 DampFc=0.2500 IDamp=-1.
 Damping current iteration by 2.50D-01
 RMSDP=1.65D-03 MaxDP=1.14D+00              OVMax= 2.58D-01

 Cycle   2  Pass 1  IDiag  1:
 RMSU=  4.13D-04    CP:  1.00D+00
 E= -8467.87684674450     Delta-E=       -0.582129056791 Rises=F Damp=T
 DIIS: error= 1.17D-02 at cycle   2 NSaved=   2.
 NSaved= 2 IEnMin= 2 EnMin= -8467.87684674450     IErMin= 2 ErrMin= 1.17D-02
 ErrMax= 1.17D-02  0.00D+00 EMaxC= 1.00D-01 BMatC= 3.81D+00 BMatP= 1.07D+01
 IDIUse=3 WtCom= 8.83D-01 WtEn= 1.17D-01
 Coeff-Com: -0.117D+01 0.217D+01
 Coeff-En:   0.000D+00 0.100D+01
 Coeff:     -0.103D+01 0.203D+01
 Gap=     0.134 Goal=   None    Shift=    0.000
 Gap=     0.152 Goal=   None    Shift=    0.000
 RMSDP=6.70D-04 MaxDP=2.96D-01 DE=-5.82D-01 OVMax= 1.88D-01

 Cycle   3  Pass 1  IDiag  1:
 RMSU=  5.46D-04    CP:  9.87D-01  1.93D+00
 E= -8468.92208028987     Delta-E=       -1.045233545370 Rises=F Damp=F
 DIIS: error= 8.13D-03 at cycle   3 NSaved=   3.
 NSaved= 3 IEnMin= 3 EnMin= -8468.92208028987     IErMin= 3 ErrMin= 8.13D-03
 ErrMax= 8.13D-03  0.00D+00 EMaxC= 1.00D-01 BMatC= 3.90D-01 BMatP= 3.81D+00
 IDIUse=3 WtCom= 9.19D-01 WtEn= 8.13D-02
 Coeff-Com: -0.508D+00 0.852D+00 0.656D+00
 Coeff-En:   0.000D+00 0.000D+00 0.100D+01
 Coeff:     -0.467D+00 0.783D+00 0.684D+00
 Gap=     0.122 Goal=   None    Shift=    0.000
 Gap=     0.107 Goal=   None    Shift=    0.000
 RMSDP=1.74D-04 MaxDP=7.95D-02 DE=-1.05D+00 OVMax= 6.28D-02

 Cycle   4  Pass 1  IDiag  1:
 RMSU=  1.65D-04    CP:  9.89D-01  2.04D+00  9.35D-01
 E= -8468.97857036658     Delta-E=       -0.056490076713 Rises=F Damp=F
 DIIS: error= 2.97D-03 at cycle   4 NSaved=   4.
 NSaved= 4 IEnMin= 4 EnMin= -8468.97857036658     IErMin= 4 ErrMin= 2.97D-03
 ErrMax= 2.97D-03  0.00D+00 EMaxC= 1.00D-01 BMatC= 8.29D-02 BMatP= 3.90D-01
 IDIUse=3 WtCom= 9.70D-01 WtEn= 2.97D-02
 Coeff-Com: -0.789D-01 0.120D+00 0.337D+00 0.623D+00
 Coeff-En:   0.000D+00 0.000D+00 0.166D+00 0.834D+00
 Coeff:     -0.765D-01 0.116D+00 0.331D+00 0.629D+00
 Gap=     0.123 Goal=   None    Shift=    0.000
 Gap=     0.112 Goal=   None    Shift=    0.000
 RMSDP=8.17D-05 MaxDP=6.45D-02 DE=-5.65D-02 OVMax= 3.16D-02

 Cycle   5  Pass 1  IDiag  1:
 RMSU=  5.13D-05    CP:  9.87D-01  1.96D+00  9.66D-01  6.86D-01
 E= -8468.99405138806     Delta-E=       -0.015481021477 Rises=F Damp=F
 DIIS: error= 2.12D-04 at cycle   5 NSaved=   5.
 NSaved= 5 IEnMin= 5 EnMin= -8468.99405138806     IErMin= 5 ErrMin= 2.12D-04
 ErrMax= 2.12D-04  0.00D+00 EMaxC= 1.00D-01 BMatC= 2.78D-03 BMatP= 8.29D-02
 IDIUse=3 WtCom= 9.98D-01 WtEn= 2.12D-03
 Coeff-Com: -0.123D-01 0.170D-01 0.115D+00 0.271D+00 0.608D+00
 Coeff-En:   0.000D+00 0.000D+00 0.000D+00 0.000D+00 0.100D+01
 Coeff:     -0.122D-01 0.170D-01 0.115D+00 0.271D+00 0.609D+00
 Gap=     0.126 Goal=   None    Shift=    0.000
 Gap=     0.113 Goal=   None    Shift=    0.000
 RMSDP=2.24D-05 MaxDP=2.25D-02 DE=-1.55D-02 OVMax= 1.02D-02

 Cycle   6  Pass 1  IDiag  1:
 RMSU=  1.93D-05    CP:  9.87D-01  1.98D+00  9.70D-01  7.35D-01  9.23D-01
 E= -8468.99467331198     Delta-E=       -0.000621923915 Rises=F Damp=F
 DIIS: error= 1.73D-04 at cycle   6 NSaved=   6.
 NSaved= 6 IEnMin= 6 EnMin= -8468.99467331198     IErMin= 6 ErrMin= 1.73D-04
 ErrMax= 1.73D-04  0.00D+00 EMaxC= 1.00D-01 BMatC= 5.37D-04 BMatP= 2.78D-03
 IDIUse=3 WtCom= 9.98D-01 WtEn= 1.73D-03
 Coeff-Com:  0.446D-02-0.733D-02 0.180D-01 0.644D-01 0.318D+00 0.602D+00
 Coeff-En:   0.000D+00 0.000D+00 0.000D+00 0.000D+00 0.000D+00 0.100D+01
 Coeff:      0.445D-02-0.731D-02 0.180D-01 0.643D-01 0.318D+00 0.603D+00
 Gap=     0.126 Goal=   None    Shift=    0.000
 Gap=     0.115 Goal=   None    Shift=    0.000
 RMSDP=1.13D-05 MaxDP=6.92D-03 DE=-6.22D-04 OVMax= 1.05D-02

 Cycle   7  Pass 1  IDiag  1:
 RMSU=  7.89D-06    CP:  9.87D-01  1.96D+00  9.76D-01  7.37D-01  1.03D+00
                    CP:  1.08D+00
 E= -8468.99486277138     Delta-E=       -0.000189459406 Rises=F Damp=F
 DIIS: error= 5.02D-05 at cycle   7 NSaved=   7.
 NSaved= 7 IEnMin= 7 EnMin= -8468.99486277138     IErMin= 7 ErrMin= 5.02D-05
 ErrMax= 5.02D-05  0.00D+00 EMaxC= 1.00D-01 BMatC= 8.77D-05 BMatP= 5.37D-04
 IDIUse=1 WtCom= 1.00D+00 WtEn= 0.00D+00
 Coeff-Com:  0.407D-02-0.610D-02-0.157D-01-0.299D-01-0.592D-02 0.237D+00
 Coeff-Com:  0.817D+00
 Coeff:      0.407D-02-0.610D-02-0.157D-01-0.299D-01-0.592D-02 0.237D+00
 Coeff:      0.817D+00
 Gap=     0.127 Goal=   None    Shift=    0.000
 Gap=     0.116 Goal=   None    Shift=    0.000
 RMSDP=8.88D-06 MaxDP=4.64D-03 DE=-1.89D-04 OVMax= 8.05D-03

 Cycle   8  Pass 1  IDiag  1:
 RMSU=  4.38D-06    CP:  9.87D-01  1.96D+00  9.81D-01  7.50D-01  1.06D+00
                    CP:  1.39D+00  1.38D+00
 E= -8468.99493630301     Delta-E=       -0.000073531632 Rises=F Damp=F
 DIIS: error= 3.01D-05 at cycle   8 NSaved=   8.
 NSaved= 8 IEnMin= 8 EnMin= -8468.99493630301     IErMin= 8 ErrMin= 3.01D-05
 ErrMax= 3.01D-05  0.00D+00 EMaxC= 1.00D-01 BMatC= 3.22D-05 BMatP= 8.77D-05
 IDIUse=1 WtCom= 1.00D+00 WtEn= 0.00D+00
 Coeff-Com:  0.392D-03-0.396D-03-0.126D-01-0.345D-01-0.107D+00-0.717D-01
 Coeff-Com:  0.396D+00 0.830D+00
 Coeff:      0.392D-03-0.396D-03-0.126D-01-0.345D-01-0.107D+00-0.717D-01
 Coeff:      0.396D+00 0.830D+00
 Gap=     0.127 Goal=   None    Shift=    0.000
 Gap=     0.117 Goal=   None    Shift=    0.000
 RMSDP=6.41D-06 MaxDP=2.46D-03 DE=-7.35D-05 OVMax= 6.54D-03

 Cycle   9  Pass 1  IDiag  1:
 RMSU=  2.18D-06    CP:  9.87D-01  1.96D+00  9.84D-01  7.54D-01  1.09D+00
                    CP:  1.58D+00  1.80D+00  1.45D+00
 E= -8468.99496969959     Delta-E=       -0.000033396580 Rises=F Damp=F
 DIIS: error= 2.43D-05 at cycle   9 NSaved=   9.
 NSaved= 9 IEnMin= 9 EnMin= -8468.99496969959     IErMin= 9 ErrMin= 2.43D-05
 ErrMax= 2.43D-05  0.00D+00 EMaxC= 1.00D-01 BMatC= 9.76D-06 BMatP= 3.22D-05
 IDIUse=1 WtCom= 1.00D+00 WtEn= 0.00D+00
 Coeff-Com: -0.970D-03 0.156D-02-0.863D-03-0.672D-02-0.487D-01-0.994D-01
 Coeff-Com: -0.655D-01 0.375D+00 0.846D+00
 Coeff:     -0.970D-03 0.156D-02-0.863D-03-0.672D-02-0.487D-01-0.994D-01
 Coeff:     -0.655D-01 0.375D+00 0.846D+00
 Gap=     0.127 Goal=   None    Shift=    0.000
 Gap=     0.118 Goal=   None    Shift=    0.000
 RMSDP=3.95D-06 MaxDP=1.76D-03 DE=-3.34D-05 OVMax= 3.80D-03

 Cycle  10  Pass 1  IDiag  1:
 RMSU=  1.21D-06    CP:  9.87D-01  1.96D+00  9.86D-01  7.57D-01  1.09D+00
                    CP:  1.70D+00  2.04D+00  1.88D+00  1.26D+00
 E= -8468.99497968301     Delta-E=       -0.000009983418 Rises=F Damp=F
 DIIS: error= 1.69D-05 at cycle  10 NSaved=  10.
 NSaved=10 IEnMin=10 EnMin= -8468.99497968301     IErMin=10 ErrMin= 1.69D-05
 ErrMax= 1.69D-05  0.00D+00 EMaxC= 1.00D-01 BMatC= 4.26D-06 BMatP= 9.76D-06
 IDIUse=1 WtCom= 1.00D+00 WtEn= 0.00D+00
 Coeff-Com: -0.660D-03 0.996D-03 0.433D-02 0.940D-02 0.101D-01-0.320D-01
 Coeff-Com: -0.189D+00-0.905D-01 0.527D+00 0.760D+00
 Coeff:     -0.660D-03 0.996D-03 0.433D-02 0.940D-02 0.101D-01-0.320D-01
 Coeff:     -0.189D+00-0.905D-01 0.527D+00 0.760D+00
 Gap=     0.127 Goal=   None    Shift=    0.000
 Gap=     0.118 Goal=   None    Shift=    0.000
 RMSDP=2.17D-06 MaxDP=8.96D-04 DE=-9.98D-06 OVMax= 1.93D-03

 Cycle  11  Pass 1  IDiag  1:
 RMSU=  6.42D-07    CP:  9.87D-01  1.96D+00  9.87D-01  7.59D-01  1.09D+00
                    CP:  1.75D+00  2.16D+00  2.12D+00  1.65D+00  1.27D+00
 E= -8468.99498255057     Delta-E=       -0.000002867553 Rises=F Damp=F
 DIIS: error= 7.35D-06 at cycle  11 NSaved=  11.
 NSaved=11 IEnMin=11 EnMin= -8468.99498255057     IErMin=11 ErrMin= 7.35D-06
 ErrMax= 7.35D-06  0.00D+00 EMaxC= 1.00D-01 BMatC= 6.08D-07 BMatP= 4.26D-06
 IDIUse=1 WtCom= 1.00D+00 WtEn= 0.00D+00
 Coeff-Com: -0.684D-04 0.868D-04 0.202D-02 0.548D-02 0.134D-01 0.577D-02
 Coeff-Com: -0.637D-01-0.112D+00 0.547D-01 0.322D+00 0.773D+00
 Coeff:     -0.684D-04 0.868D-04 0.202D-02 0.548D-02 0.134D-01 0.577D-02
 Coeff:     -0.637D-01-0.112D+00 0.547D-01 0.322D+00 0.773D+00
 Gap=     0.127 Goal=   None    Shift=    0.000
 Gap=     0.118 Goal=   None    Shift=    0.000
 RMSDP=6.93D-07 MaxDP=2.79D-04 DE=-2.87D-06 OVMax= 5.19D-04

 Cycle  12  Pass 1  IDiag  1:
 RMSU=  3.02D-07    CP:  9.87D-01  1.96D+00  9.87D-01  7.59D-01  1.09D+00
                    CP:  1.76D+00  2.19D+00  2.19D+00  1.73D+00  1.53D+00
                    CP:  1.34D+00
 E= -8468.99498295306     Delta-E=       -0.000000402495 Rises=F Damp=F
 DIIS: error= 3.79D-06 at cycle  12 NSaved=  12.
 NSaved=12 IEnMin=12 EnMin= -8468.99498295306     IErMin=12 ErrMin= 3.79D-06
 ErrMax= 3.79D-06  0.00D+00 EMaxC= 1.00D-01 BMatC= 1.19D-07 BMatP= 6.08D-07
 IDIUse=1 WtCom= 1.00D+00 WtEn= 0.00D+00
 Coeff-Com:  0.102D-03-0.159D-03-0.239D-03-0.193D-03 0.233D-02 0.812D-02
 Coeff-Com:  0.180D-01-0.175D-01-0.940D-01-0.588D-01 0.263D+00 0.879D+00
 Coeff:      0.102D-03-0.159D-03-0.239D-03-0.193D-03 0.233D-02 0.812D-02
 Coeff:      0.180D-01-0.175D-01-0.940D-01-0.588D-01 0.263D+00 0.879D+00
 Gap=     0.127 Goal=   None    Shift=    0.000
 Gap=     0.118 Goal=   None    Shift=    0.000
 RMSDP=3.41D-07 MaxDP=1.21D-04 DE=-4.02D-07 OVMax= 1.92D-04

 Cycle  13  Pass 1  IDiag  1:
 RMSU=  1.32D-07    CP:  9.87D-01  1.96D+00  9.87D-01  7.59D-01  1.09D+00
                    CP:  1.75D+00  2.19D+00  2.20D+00  1.77D+00  1.66D+00
                    CP:  1.62D+00  1.42D+00
 E= -8468.99498306192     Delta-E=       -0.000000108859 Rises=F Damp=F
 DIIS: error= 2.48D-06 at cycle  13 NSaved=  13.
 NSaved=13 IEnMin=13 EnMin= -8468.99498306192     IErMin=13 ErrMin= 2.48D-06
 ErrMax= 2.48D-06  0.00D+00 EMaxC= 1.00D-01 BMatC= 3.82D-08 BMatP= 1.19D-07
 IDIUse=1 WtCom= 1.00D+00 WtEn= 0.00D+00
 Coeff-Com:  0.623D-04-0.918D-04-0.561D-03-0.134D-02-0.170D-02 0.246D-02
 Coeff-Com:  0.223D-01 0.171D-01-0.527D-01-0.936D-01-0.559D-01 0.376D+00
 Coeff-Com:  0.788D+00
 Coeff:      0.623D-04-0.918D-04-0.561D-03-0.134D-02-0.170D-02 0.246D-02
 Coeff:      0.223D-01 0.171D-01-0.527D-01-0.936D-01-0.559D-01 0.376D+00
 Coeff:      0.788D+00
 Gap=     0.127 Goal=   None    Shift=    0.000
 Gap=     0.118 Goal=   None    Shift=    0.000
 RMSDP=1.74D-07 MaxDP=5.02D-05 DE=-1.09D-07 OVMax= 1.05D-04

 Cycle  14  Pass 1  IDiag  1:
 RMSU=  6.51D-08    CP:  9.87D-01  1.96D+00  9.87D-01  7.59D-01  1.09D+00
                    CP:  1.75D+00  2.19D+00  2.20D+00  1.78D+00  1.71D+00
                    CP:  1.74D+00  1.73D+00  1.46D+00
 E= -8468.99498309604     Delta-E=       -0.000000034117 Rises=F Damp=F
 DIIS: error= 1.97D-06 at cycle  14 NSaved=  14.
 NSaved=14 IEnMin=14 EnMin= -8468.99498309604     IErMin=14 ErrMin= 1.97D-06
 ErrMax= 1.97D-06  0.00D+00 EMaxC= 1.00D-01 BMatC= 1.15D-08 BMatP= 3.82D-08
 IDIUse=1 WtCom= 1.00D+00 WtEn= 0.00D+00
 Coeff-Com: -0.197D-05 0.481D-05-0.126D-03-0.420D-03-0.116D-02-0.142D-02
 Coeff-Com:  0.355D-02 0.107D-01 0.490D-02-0.166D-01-0.886D-01-0.868D-01
 Coeff-Com:  0.274D+00 0.902D+00
 Coeff:     -0.197D-05 0.481D-05-0.126D-03-0.420D-03-0.116D-02-0.142D-02
 Coeff:      0.355D-02 0.107D-01 0.490D-02-0.166D-01-0.886D-01-0.868D-01
 Coeff:      0.274D+00 0.902D+00
 Gap=     0.127 Goal=   None    Shift=    0.000
 Gap=     0.118 Goal=   None    Shift=    0.000
 RMSDP=1.06D-07 MaxDP=3.28D-05 DE=-3.41D-08 OVMax= 9.36D-05

 Cycle  15  Pass 1  IDiag  1:
 RMSU=  4.39D-08    CP:  9.87D-01  1.96D+00  9.87D-01  7.59D-01  1.09D+00
                    CP:  1.75D+00  2.19D+00  2.20D+00  1.78D+00  1.73D+00
                    CP:  1.78D+00  1.89D+00  1.87D+00  1.44D+00
 E= -8468.99498311308     Delta-E=       -0.000000017040 Rises=F Damp=F
 DIIS: error= 1.60D-06 at cycle  15 NSaved=  15.
 NSaved=15 IEnMin=15 EnMin= -8468.99498311308     IErMin=15 ErrMin= 1.60D-06
 ErrMax= 1.60D-06  0.00D+00 EMaxC= 1.00D-01 BMatC= 6.79D-09 BMatP= 1.15D-08
 IDIUse=1 WtCom= 1.00D+00 WtEn= 0.00D+00
 Coeff-Com: -0.207D-04 0.317D-04 0.119D-03 0.204D-03-0.115D-03-0.175D-02
 Coeff-Com: -0.549D-02 0.899D-04 0.200D-01 0.226D-01-0.320D-01-0.171D+00
 Coeff-Com: -0.107D+00 0.516D+00 0.759D+00
 Coeff:     -0.207D-04 0.317D-04 0.119D-03 0.204D-03-0.115D-03-0.175D-02
 Coeff:     -0.549D-02 0.899D-04 0.200D-01 0.226D-01-0.320D-01-0.171D+00
 Coeff:     -0.107D+00 0.516D+00 0.759D+00
 Gap=     0.127 Goal=   None    Shift=    0.000
 Gap=     0.118 Goal=   None    Shift=    0.000
 RMSDP=6.42D-08 MaxDP=1.61D-05 DE=-1.70D-08 OVMax= 7.55D-05

 Cycle  16  Pass 1  IDiag  1:
 RMSU=  2.78D-08    CP:  9.87D-01  1.96D+00  9.87D-01  7.59D-01  1.09D+00
                    CP:  1.75D+00  2.19D+00  2.20D+00  1.77D+00  1.74D+00
                    CP:  1.80D+00  1.98D+00  2.09D+00  1.92D+00  1.56D+00
 E= -8468.99498312089     Delta-E=       -0.000000007818 Rises=F Damp=F
 DIIS: error= 1.29D-06 at cycle  16 NSaved=  16.
 NSaved=16 IEnMin=16 EnMin= -8468.99498312089     IErMin=16 ErrMin= 1.29D-06
 ErrMax= 1.29D-06  0.00D+00 EMaxC= 1.00D-01 BMatC= 3.17D-09 BMatP= 6.79D-09
 IDIUse=1 WtCom= 1.00D+00 WtEn= 0.00D+00
 Coeff-Com: -0.551D-05 0.823D-05 0.105D-03 0.275D-03 0.513D-03 0.588D-05
 Coeff-Com: -0.393D-02-0.537D-02 0.588D-02 0.181D-01 0.294D-01-0.303D-01
 Coeff-Com: -0.179D+00-0.232D+00 0.331D+00 0.106D+01
 Coeff:     -0.551D-05 0.823D-05 0.105D-03 0.275D-03 0.513D-03 0.588D-05
 Coeff:     -0.393D-02-0.537D-02 0.588D-02 0.181D-01 0.294D-01-0.303D-01
 Coeff:     -0.179D+00-0.232D+00 0.331D+00 0.106D+01
 Gap=     0.127 Goal=   None    Shift=    0.000
 Gap=     0.118 Goal=   None    Shift=    0.000
 RMSDP=6.51D-08 MaxDP=1.95D-05 DE=-7.82D-09 OVMax= 9.53D-05

 Cycle  17  Pass 1  IDiag  1:
 RMSU=  2.02D-08    CP:  9.87D-01  1.96D+00  9.87D-01  7.59D-01  1.09D+00
                    CP:  1.75D+00  2.19D+00  2.19D+00  1.77D+00  1.74D+00
                    CP:  1.81D+00  2.01D+00  2.27D+00  2.34D+00  2.53D+00
                    CP:  1.81D+00
 E= -8468.99498312999     Delta-E=       -0.000000009095 Rises=F Damp=F
 DIIS: error= 9.85D-07 at cycle  17 NSaved=  17.
 NSaved=17 IEnMin=17 EnMin= -8468.99498312999     IErMin=17 ErrMin= 9.85D-07
 ErrMax= 9.85D-07  0.00D+00 EMaxC= 1.00D-01 BMatC= 1.74D-09 BMatP= 3.17D-09
 IDIUse=1 WtCom= 1.00D+00 WtEn= 0.00D+00
 Coeff-Com:  0.840D-05-0.130D-04-0.237D-04 0.647D-06 0.273D-03 0.101D-02
 Coeff-Com:  0.149D-02-0.211D-02-0.867D-02-0.562D-02 0.290D-01 0.833D-01
 Coeff-Com: -0.341D-02-0.387D+00-0.300D+00 0.435D+00 0.116D+01
 Coeff:      0.840D-05-0.130D-04-0.237D-04 0.647D-06 0.273D-03 0.101D-02
 Coeff:      0.149D-02-0.211D-02-0.867D-02-0.562D-02 0.290D-01 0.833D-01
 Coeff:     -0.341D-02-0.387D+00-0.300D+00 0.435D+00 0.116D+01
 Gap=     0.127 Goal=   None    Shift=    0.000
 Gap=     0.118 Goal=   None    Shift=    0.000
 RMSDP=6.65D-08 MaxDP=2.01D-05 DE=-9.09D-09 OVMax= 9.79D-05

 Cycle  18  Pass 1  IDiag  1:
 RMSU=  2.48D-08    CP:  9.87D-01  1.96D+00  9.87D-01  7.59D-01  1.09D+00
                    CP:  1.75D+00  2.19D+00  2.19D+00  1.78D+00  1.74D+00
                    CP:  1.81D+00  2.01D+00  2.36D+00  2.70D+00  3.00D+00
                    CP:  3.00D+00  2.19D+00
 E= -8468.99498313608     Delta-E=       -0.000000006090 Rises=F Damp=F
 DIIS: error= 6.95D-07 at cycle  18 NSaved=  18.
 NSaved=18 IEnMin=18 EnMin= -8468.99498313608     IErMin=18 ErrMin= 6.95D-07
 ErrMax= 6.95D-07  0.00D+00 EMaxC= 1.00D-01 BMatC= 9.69D-10 BMatP= 1.74D-09
 IDIUse=1 WtCom= 1.00D+00 WtEn= 0.00D+00
 Coeff-Com:  0.689D-05-0.109D-04-0.798D-04-0.170D-03-0.205D-03 0.549D-03
 Coeff-Com:  0.326D-02 0.247D-02-0.878D-02-0.156D-01-0.251D-02 0.656D-01
 Coeff-Com:  0.121D+00-0.632D-01-0.403D+00-0.468D+00 0.671D+00 0.110D+01
 Coeff:      0.689D-05-0.109D-04-0.798D-04-0.170D-03-0.205D-03 0.549D-03
 Coeff:      0.326D-02 0.247D-02-0.878D-02-0.156D-01-0.251D-02 0.656D-01
 Coeff:      0.121D+00-0.632D-01-0.403D+00-0.468D+00 0.671D+00 0.110D+01
 Gap=     0.127 Goal=   None    Shift=    0.000
 Gap=     0.118 Goal=   None    Shift=    0.000
 RMSDP=6.48D-08 MaxDP=2.35D-05 DE=-6.09D-09 OVMax= 9.64D-05

 Cycle  19  Pass 1  IDiag  1:
 RMSU=  3.67D-08    CP:  9.87D-01  1.96D+00  9.87D-01  7.59D-01  1.09D+00
                    CP:  1.75D+00  2.19D+00  2.20D+00  1.78D+00  1.74D+00
                    CP:  1.81D+00  2.02D+00  2.44D+00  2.98D+00  3.00D+00
                    CP:  3.00D+00  3.00D+00  2.58D+00
 E= -8468.99498314009     Delta-E=       -0.000000004009 Rises=F Damp=F
 DIIS: error= 3.67D-07 at cycle  19 NSaved=  19.
 NSaved=19 IEnMin=19 EnMin= -8468.99498314009     IErMin=19 ErrMin= 3.67D-07
 ErrMax= 3.67D-07  0.00D+00 EMaxC= 1.00D-01 BMatC= 3.56D-10 BMatP= 9.69D-10
 IDIUse=1 WtCom= 1.00D+00 WtEn= 0.00D+00
 Coeff-Com: -0.151D-05 0.222D-05-0.205D-04-0.663D-04-0.231D-03-0.274D-03
 Coeff-Com:  0.458D-03 0.219D-02 0.105D-02-0.354D-02-0.149D-01-0.198D-01
 Coeff-Com:  0.462D-01 0.181D+00 0.391D-02-0.410D+00-0.356D+00 0.445D+00
 Coeff-Com:  0.112D+01
 Coeff:     -0.151D-05 0.222D-05-0.205D-04-0.663D-04-0.231D-03-0.274D-03
 Coeff:      0.458D-03 0.219D-02 0.105D-02-0.354D-02-0.149D-01-0.198D-01
 Coeff:      0.462D-01 0.181D+00 0.391D-02-0.410D+00-0.356D+00 0.445D+00
 Coeff:      0.112D+01
 Gap=     0.127 Goal=   None    Shift=    0.000
 Gap=     0.118 Goal=   None    Shift=    0.000
 RMSDP=4.61D-08 MaxDP=2.62D-05 DE=-4.01D-09 OVMax= 6.59D-05

 Cycle  20  Pass 1  IDiag  1:
 RMSU=  2.55D-08    CP:  9.87D-01  1.96D+00  9.87D-01  7.59D-01  1.09D+00
                    CP:  1.75D+00  2.19D+00  2.20D+00  1.78D+00  1.74D+00
                    CP:  1.82D+00  2.02D+00  2.49D+00  3.00D+00  3.00D+00
                    CP:  3.00D+00  3.00D+00  3.00D+00  1.78D+00
 E= -8468.99498314122     Delta-E=       -0.000000001131 Rises=F Damp=F
 DIIS: error= 1.54D-07 at cycle  20 NSaved=  20.
 NSaved=20 IEnMin=20 EnMin= -8468.99498314122     IErMin=20 ErrMin= 1.54D-07
 ErrMax= 1.54D-07  0.00D+00 EMaxC= 1.00D-01 BMatC= 1.10D-10 BMatP= 3.56D-10
 IDIUse=1 WtCom= 1.00D+00 WtEn= 0.00D+00
 Coeff-Com: -0.335D-05 0.520D-05 0.220D-04 0.358D-04-0.199D-04-0.321D-03
 Coeff-Com: -0.110D-02 0.508D-04 0.404D-02 0.454D-02-0.540D-02-0.341D-01
 Coeff-Com: -0.279D-01 0.103D+00 0.158D+00 0.258D-02-0.417D+00-0.226D+00
 Coeff-Com:  0.497D+00 0.943D+00
 Coeff:     -0.335D-05 0.520D-05 0.220D-04 0.358D-04-0.199D-04-0.321D-03
 Coeff:     -0.110D-02 0.508D-04 0.404D-02 0.454D-02-0.540D-02-0.341D-01
 Coeff:     -0.279D-01 0.103D+00 0.158D+00 0.258D-02-0.417D+00-0.226D+00
 Coeff:      0.497D+00 0.943D+00
 Gap=     0.127 Goal=   None    Shift=    0.000
 Gap=     0.118 Goal=   None    Shift=    0.000
 RMSDP=2.26D-08 MaxDP=1.43D-05 DE=-1.13D-09 OVMax= 3.10D-05

 Cycle  21  Pass 1  IDiag  1:
 Restarting incremental Fock formation.
 E= -8468.99498314243     Delta-E=       -0.000000001211 Rises=F Damp=F
 DIIS: error= 4.82D-08 at cycle  21 NSaved=  20.
 NSaved=20 IEnMin=20 EnMin= -8468.99498314243     IErMin=20 ErrMin= 4.82D-08
 ErrMax= 4.82D-08  0.00D+00 EMaxC= 1.00D-01 BMatC= 2.34D-11 BMatP= 1.10D-10
 IDIUse=1 WtCom= 1.00D+00 WtEn= 0.00D+00
 Coeff-Com:  0.458D-07 0.914D-05 0.200D-04 0.460D-04-0.175D-04-0.379D-03
 Coeff-Com: -0.507D-03 0.766D-03 0.199D-02 0.191D-02-0.389D-02-0.183D-01
 Coeff-Com: -0.150D-01 0.433D-01 0.976D-01-0.329D-01-0.169D+00-0.132D+00
 Coeff-Com:  0.270D+00 0.956D+00
 Coeff:      0.458D-07 0.914D-05 0.200D-04 0.460D-04-0.175D-04-0.379D-03
 Coeff:     -0.507D-03 0.766D-03 0.199D-02 0.191D-02-0.389D-02-0.183D-01
 Coeff:     -0.150D-01 0.433D-01 0.976D-01-0.329D-01-0.169D+00-0.132D+00
 Coeff:      0.270D+00 0.956D+00
 Gap=     0.127 Goal=   None    Shift=    0.000
 Gap=     0.118 Goal=   None    Shift=    0.000
 RMSDP=1.73D-08 MaxDP=8.16D-06 DE=-1.21D-09 OVMax= 9.23D-06

 Cycle  22  Pass 1  IDiag  1:
 RMSU=  1.73D-08    CP:  1.00D+00
 E= -8468.99498314178     Delta-E=        0.000000000651 Rises=F Damp=F
 DIIS: error= 3.02D-08 at cycle  22 NSaved=  20.
 NSaved=20 IEnMin=19 EnMin= -8468.99498314243     IErMin=20 ErrMin= 3.02D-08
 ErrMax= 3.02D-08  0.00D+00 EMaxC= 1.00D-01 BMatC= 7.63D-12 BMatP= 2.34D-11
 IDIUse=1 WtCom= 1.00D+00 WtEn= 0.00D+00
 Coeff-Com:  0.160D-05 0.489D-05 0.291D-04 0.541D-04 0.618D-04-0.254D-03
 Coeff-Com: -0.556D-03-0.840D-04 0.210D-02 0.652D-02-0.131D-02-0.309D-01
 Coeff-Com: -0.215D-01 0.368D-01 0.962D-01-0.660D-02-0.188D+00-0.160D+00
 Coeff-Com:  0.389D+00 0.878D+00
 Coeff:      0.160D-05 0.489D-05 0.291D-04 0.541D-04 0.618D-04-0.254D-03
 Coeff:     -0.556D-03-0.840D-04 0.210D-02 0.652D-02-0.131D-02-0.309D-01
 Coeff:     -0.215D-01 0.368D-01 0.962D-01-0.660D-02-0.188D+00-0.160D+00
 Coeff:      0.389D+00 0.878D+00
 Gap=     0.127 Goal=   None    Shift=    0.000
 Gap=     0.118 Goal=   None    Shift=    0.000
 RMSDP=6.61D-09 MaxDP=2.80D-06 DE= 6.51D-10 OVMax= 3.91D-06

 Cycle  23  Pass 1  IDiag  1:
 RMSU=  1.86D-09    CP:  1.00D+00  1.37D+00
 E= -8468.99498314112     Delta-E=        0.000000000662 Rises=F Damp=F
 DIIS: error= 1.29D-08 at cycle  23 NSaved=  20.
 NSaved=20 IEnMin=18 EnMin= -8468.99498314243     IErMin=20 ErrMin= 1.29D-08
 ErrMax= 1.29D-08  0.00D+00 EMaxC= 1.00D-01 BMatC= 1.53D-12 BMatP= 7.63D-12
 IDIUse=1 WtCom= 1.00D+00 WtEn= 0.00D+00
 Coeff-Com:  0.124D-05 0.905D-05 0.181D-04 0.548D-04-0.384D-04-0.250D-03
 Coeff-Com: -0.200D-03 0.436D-03 0.219D-02 0.183D-02-0.584D-02-0.125D-01
 Coeff-Com: -0.738D-02 0.328D-01 0.310D-01-0.255D-01-0.107D+00-0.100D+00
 Coeff-Com:  0.241D+00 0.949D+00
 Coeff:      0.124D-05 0.905D-05 0.181D-04 0.548D-04-0.384D-04-0.250D-03
 Coeff:     -0.200D-03 0.436D-03 0.219D-02 0.183D-02-0.584D-02-0.125D-01
 Coeff:     -0.738D-02 0.328D-01 0.310D-01-0.255D-01-0.107D+00-0.100D+00
 Coeff:      0.241D+00 0.949D+00
 Gap=     0.127 Goal=   None    Shift=    0.000
 Gap=     0.118 Goal=   None    Shift=    0.000
 RMSDP=3.18D-09 MaxDP=1.39D-06 DE= 6.62D-10 OVMax= 2.43D-06

 Cycle  24  Pass 1  IDiag  1:
 RMSU=  1.94D-09    CP:  1.00D+00  1.27D+00  2.00D+00
 E= -8468.99498314185     Delta-E=       -0.000000000728 Rises=F Damp=F
 DIIS: error= 7.16D-09 at cycle  24 NSaved=  20.
 NSaved=20 IEnMin=17 EnMin= -8468.99498314243     IErMin=20 ErrMin= 7.16D-09
 ErrMax= 7.16D-09  0.00D+00 EMaxC= 1.00D-01 BMatC= 4.31D-13 BMatP= 1.53D-12
 IDIUse=1 WtCom= 1.00D+00 WtEn= 0.00D+00
 Coeff-Com: -0.278D-05-0.113D-04-0.934D-05 0.388D-04 0.844D-04 0.169D-04
 Coeff-Com: -0.372D-03-0.979D-03 0.650D-03 0.568D-02 0.217D-02-0.105D-01
 Coeff-Com: -0.141D-01 0.940D-02 0.374D-01 0.735D-02-0.114D+00-0.136D+00
 Coeff-Com:  0.267D+00 0.946D+00
 Coeff:     -0.278D-05-0.113D-04-0.934D-05 0.388D-04 0.844D-04 0.169D-04
 Coeff:     -0.372D-03-0.979D-03 0.650D-03 0.568D-02 0.217D-02-0.105D-01
 Coeff:     -0.141D-01 0.940D-02 0.374D-01 0.735D-02-0.114D+00-0.136D+00
 Coeff:      0.267D+00 0.946D+00
 Gap=     0.127 Goal=   None    Shift=    0.000
 Gap=     0.118 Goal=   None    Shift=    0.000
 RMSDP=2.22D-09 MaxDP=1.10D-06 DE=-7.28D-10 OVMax= 1.40D-06

 Cycle  25  Pass 1  IDiag  1:
 RMSU=  4.26D-10    CP:  1.00D+00  1.17D+00  2.48D+00  1.54D+00
 E= -8468.99498314143     Delta-E=        0.000000000418 Rises=F Damp=F
 DIIS: error= 3.84D-09 at cycle  25 NSaved=  20.
 NSaved=20 IEnMin=16 EnMin= -8468.99498314243     IErMin=20 ErrMin= 3.84D-09
 ErrMax= 3.84D-09  0.00D+00 EMaxC= 1.00D-01 BMatC= 1.50D-13 BMatP= 4.31D-13
 IDIUse=1 WtCom= 1.00D+00 WtEn= 0.00D+00
 Coeff-Com: -0.261D-05-0.112D-04 0.927D-05 0.451D-04 0.194D-04-0.151D-03
 Coeff-Com: -0.496D-03 0.666D-05 0.219D-02 0.234D-02-0.177D-02-0.959D-02
 Coeff-Com: -0.250D-02 0.168D-01 0.250D-01-0.174D-01-0.114D+00-0.151D+00
 Coeff-Com:  0.388D+00 0.862D+00
 Coeff:     -0.261D-05-0.112D-04 0.927D-05 0.451D-04 0.194D-04-0.151D-03
 Coeff:     -0.496D-03 0.666D-05 0.219D-02 0.234D-02-0.177D-02-0.959D-02
 Coeff:     -0.250D-02 0.168D-01 0.250D-01-0.174D-01-0.114D+00-0.151D+00
 Coeff:      0.388D+00 0.862D+00
 Gap=     0.127 Goal=   None    Shift=    0.000
 Gap=     0.118 Goal=   None    Shift=    0.000
 RMSDP=4.79D-10 MaxDP=2.63D-07 DE= 4.18D-10 OVMax= 9.10D-07

 Error on total polarization charges =  0.03164
 SCF Done:  E(UM062X) =  -8468.99498314     A.U. after   25 cycles
            NFock= 25  Conv=0.48D-09     -V/T= 2.0029
 <Sx>= 0.0000 <Sy>= 0.0000 <Sz>= 0.5000 <S**2>= 0.7734 S= 0.5116
 <L.S>= 0.000000000000E+00
 KE= 8.444687272396D+03 PE=-4.423508504136D+04 EE= 1.525882274085D+04
 Annihilation of the first spin contaminant:
 S**2 before annihilation     0.7734,   after     0.7505
 Leave Link  502 at Tue Oct 28 16:25:22 2025, MaxMem= 30870077440 cpu:          295298.0 elap:            4672.8
 (Enter /public/software/gauss/g16/l601.exe)
 Copying SCF densities to generalized density rwf, IOpCl= 1 IROHF=0.
 Hyperfine terms turned off by default for NAtoms > 100.

 **********************************************************************

            Population analysis using the SCF density.

 **********************************************************************

 Orbital symmetries:
 Alpha Orbitals:
       Occupied  (A) (A) (A) (A) (A) (A) (A) (A) (A) (A) (A) (A)
                 (A) (A) (A) (A) (A) (A) (A) (A) (A) (A) (A) (A)
                 (A) (A) (A) (A) (A) (A) (A) (A) (A) (A) (A) (A)
                 (A) (A) (A) (A) (A) (A) (A) (A) (A) (A) (A) (A)
                 (A) (A) (A) (A) (A) (A) (A) (A) (A) (A) (A) (A)
                 (A) (A) (A) (A) (A) (A) (A) (A) (A) (A) (A) (A)
                 (A) (A) (A) (A) (A) (A) (A) (A) (A) (A) (A) (A)
                 (A) (A) (A) (A) (A) (A) (A) (A) (A) (A) (A) (A)
                 (A) (A) (A) (A) (A) (A) (A) (A) (A) (A) (A) (A)
                 (A) (A) (A) (A) (A) (A) (A) (A) (A) (A) (A) (A)
                 (A) (A) (A) (A) (A) (A) (A) (A) (A) (A) (A) (A)
                 (A) (A) (A) (A) (A) (A) (A) (A) (A) (A) (A) (A)
                 (A) (A) (A) (A) (A) (A) (A) (A) (A) (A) (A) (A)
                 (A) (A) (A) (A) (A) (A) (A) (A) (A) (A) (A) (A)
                 (A) (A) (A) (A) (A) (A) (A) (A) (A) (A) (A) (A)
                 (A) (A) (A) (A) (A) (A) (A) (A) (A) (A) (A) (A)
                 (A) (A) (A) (A) (A) (A) (A) (A) (A) (A) (A) (A)
                 (A) (A) (A) (A) (A) (A) (A) (A) (A) (A) (A) (A)
                 (A) (A) (A) (A) (A) (A) (A) (A) (A) (A) (A) (A)
                 (A) (A) (A) (A) (A) (A) (A) (A) (A) (A) (A) (A)
                 (A) (A) (A) (A) (A) (A) (A) (A) (A) (A) (A) (A)
                 (A) (A) (A) (A) (A) (A) (A) (A) (A) (A) (A) (A)
                 (A) (A) (A) (A) (A) (A) (A) (A) (A) (A) (A) (A)
                 (A) (A) (A) (A) (A) (A) (A) (A) (A) (A) (A)
       Virtual   (A) (A) (A) (A) (A) (A) (A) (A) (A) (A) (A) (A)
                 (A) (A) (A) (A) (A) (A) (A) (A) (A) (A) (A) (A)
                 (A) (A) (A) (A) (A) (A) (A) (A) (A) (A) (A) (A)
                 (A) (A) (A) (A) (A) (A) (A) (A) (A) (A) (A) (A)
                 (A) (A) (A) (A) (A) (A) (A) (A) (A) (A) (A) (A)
                 (A) (A) (A) (A) (A) (A) (A) (A) (A) (A) (A) (A)
                 (A) (A) (A) (A) (A) (A) (A) (A) (A) (A) (A) (A)
                 (A) (A) (A) (A) (A) (A) (A) (A) (A) (A) (A) (A)
                 (A) (A) (A) (A) (A) (A) (A) (A) (A) (A) (A) (A)
                 (A) (A) (A) (A) (A) (A) (A) (A) (A) (A) (A) (A)
                 (A) (A) (A) (A) (A) (A) (A) (A) (A) (A) (A) (A)
                 (A) (A) (A) (A) (A) (A) (A) (A) (A) (A) (A) (A)
                 (A) (A) (A) (A) (A) (A) (A) (A) (A) (A) (A) (A)
                 (A) (A) (A) (A) (A) (A) (A) (A) (A) (A) (A) (A)
                 (A) (A) (A) (A) (A) (A) (A) (A) (A) (A) (A) (A)
                 (A) (A) (A) (A) (A) (A) (A) (A) (A) (A) (A) (A)
                 (A) (A) (A) (A) (A) (A) (A) (A) (A) (A) (A) (A)
                 (A) (A) (A) (A) (A) (A) (A) (A) (A) (A) (A) (A)
                 (A) (A) (A) (A) (A) (A) (A) (A) (A) (A) (A) (A)
                 (A) (A) (A) (A) (A) (A) (A) (A) (A) (A) (A) (A)
                 (A) (A) (A) (A) (A) (A) (A) (A) (A) (A) (A) (A)
                 (A) (A) (A) (A) (A) (A) (A) (A) (A) (A) (A) (A)
                 (A) (A) (A) (A) (A) (A) (A) (A) (A) (A) (A) (A)
                 (A) (A) (A) (A) (A) (A) (A) (A) (A) (A) (A) (A)
                 (A) (A) (A) (A) (A) (A) (A) (A) (A) (A) (A) (A)
                 (A) (A) (A) (A) (A) (A) (A) (A) (A) (A) (A) (A)
                 (A) (A) (A) (A) (A) (A) (A) (A) (A) (A) (A) (A)
                 (A) (A) (A) (A) (A) (A) (A) (A) (A) (A) (A) (A)
                 (A) (A) (A) (A) (A) (A) (A) (A) (A) (A) (A) (A)
                 (A) (A) (A) (A) (A) (A) (A) (A) (A) (A) (A) (A)
                 (A) (A) (A) (A) (A) (A) (A) (A) (A) (A) (A) (A)
                 (A) (A) (A) (A) (A) (A) (A) (A) (A) (A) (A) (A)
                 (A) (A) (A) (A) (A) (A) (A) (A) (A) (A) (A) (A)
                 (A) (A) (A) (A) (A) (A) (A) (A) (A) (A) (A) (A)
                 (A) (A) (A) (A) (A) (A) (A) (A) (A) (A) (A) (A)
                 (A) (A) (A) (A) (A) (A) (A) (A) (A) (A) (A) (A)
                 (A) (A) (A) (A) (A) (A) (A) (A) (A) (A) (A) (A)
                 (A) (A) (A) (A) (A) (A) (A) (A) (A) (A) (A) (A)
                 (A) (A) (A) (A) (A) (A) (A) (A) (A) (A) (A) (A)
                 (A) (A) (A) (A) (A) (A) (A) (A) (A) (A) (A) (A)
                 (A) (A) (A) (A) (A) (A) (A) (A) (A) (A) (A) (A)
                 (A) (A) (A) (A) (A) (A) (A) (A) (A) (A) (A) (A)
                 (A) (A) (A) (A) (A) (A) (A) (A) (A) (A) (A) (A)
                 (A) (A) (A) (A) (A) (A) (A) (A) (A) (A) (A) (A)
                 (A) (A) (A) (A) (A) (A) (A) (A) (A) (A) (A) (A)
                 (A) (A) (A) (A) (A) (A) (A) (A) (A) (A) (A) (A)
                 (A) (A) (A) (A) (A) (A) (A) (A) (A) (A) (A) (A)
                 (A) (A) (A) (A) (A) (A) (A) (A) (A) (A) (A) (A)
                 (A) (A) (A) (A) (A) (A) (A) (A) (A) (A) (A) (A)
                 (A) (A) (A) (A) (A) (A) (A) (A) (A) (A) (A) (A)
                 (A) (A) (A) (A) (A) (A) (A) (A) (A) (A) (A) (A)
                 (A) (A) (A) (A) (A) (A) (A) (A) (A) (A) (A) (A)
                 (A) (A) (A) (A) (A) (A) (A) (A) (A) (A) (A) (A)
                 (A) (A) (A) (A) (A) (A) (A) (A) (A) (A) (A) (A)
                 (A) (A) (A) (A) (A) (A) (A) (A) (A) (A) (A) (A)
                 (A) (A) (A) (A) (A) (A) (A) (A) (A) (A) (A) (A)
                 (A) (A) (A) (A) (A) (A) (A) (A) (A) (A) (A) (A)
                 (A) (A) (A) (A) (A) (A) (A) (A) (A) (A) (A) (A)
                 (A) (A) (A) (A) (A) (A) (A) (A) (A) (A) (A) (A)
                 (A) (A) (A) (A) (A) (A) (A) (A) (A) (A) (A) (A)
                 (A) (A) (A) (A) (A) (A) (A) (A) (A) (A) (A) (A)
                 (A) (A) (A) (A) (A) (A) (A) (A) (A) (A) (A) (A)
                 (A) (A) (A) (A) (A) (A) (A) (A) (A) (A) (A) (A)
                 (A) (A) (A) (A) (A) (A) (A) (A) (A) (A) (A) (A)
                 (A) (A) (A) (A) (A) (A) (A) (A) (A) (A) (A) (A)
                 (A) (A) (A) (A) (A) (A) (A) (A) (A) (A) (A) (A)
                 (A) (A) (A) (A) (A) (A) (A) (A) (A) (A) (A) (A)
                 (A) (A) (A) (A) (A) (A) (A) (A) (A) (A) (A) (A)
                 (A) (A) (A) (A) (A) (A) (A) (A) (A) (A) (A) (A)
                 (A) (A) (A) (A) (A) (A) (A) (A) (A) (A) (A) (A)
                 (A) (A) (A) (A) (A) (A) (A) (A) (A) (A) (A) (A)
                 (A) (A) (A) (A) (A) (A) (A) (A) (A) (A) (A) (A)
                 (A) (A) (A) (A) (A) (A) (A) (A) (A) (A) (A) (A)
                 (A) (A) (A) (A) (A) (A) (A) (A) (A) (A) (A) (A)
                 (A) (A) (A) (A) (A) (A) (A) (A) (A) (A) (A) (A)
                 (A) (A) (A) (A) (A) (A) (A) (A) (A) (A) (A) (A)
                 (A) (A) (A) (A) (A) (A) (A) (A) (A) (A) (A) (A)
                 (A) (A) (A) (A) (A) (A) (A) (A) (A) (A) (A) (A)
                 (A) (A) (A) (A) (A) (A) (A) (A) (A) (A) (A) (A)
                 (A) (A) (A) (A) (A) (A) (A) (A) (A) (A) (A) (A)
                 (A) (A) (A) (A) (A) (A) (A) (A) (A) (A) (A) (A)
                 (A) (A) (A) (A) (A) (A) (A) (A) (A) (A) (A) (A)
                 (A) (A) (A) (A) (A) (A) (A) (A) (A) (A) (A) (A)
                 (A) (A) (A) (A) (A) (A) (A) (A) (A) (A) (A) (A)
                 (A) (A) (A) (A) (A) (A) (A) (A) (A) (A) (A) (A)
                 (A) (A) (A) (A) (A) (A) (A) (A) (A) (A) (A) (A)
                 (A) (A) (A) (A) (A) (A) (A) (A) (A) (A) (A) (A)
                 (A) (A) (A) (A) (A) (A) (A) (A) (A) (A) (A) (A)
                 (A) (A) (A) (A) (A) (A) (A) (A) (A) (A) (A) (A)
                 (A) (A) (A) (A) (A) (A) (A) (A) (A) (A) (A) (A)
                 (A) (A) (A) (A) (A) (A) (A) (A) (A) (A) (A) (A)
                 (A) (A) (A) (A) (A) (A) (A) (A) (A) (A) (A) (A)
                 (A) (A) (A) (A) (A) (A) (A) (A) (A) (A) (A) (A)
                 (A) (A) (A) (A) (A) (A) (A) (A) (A) (A) (A) (A)
                 (A) (A) (A) (A) (A) (A) (A) (A) (A) (A) (A) (A)
                 (A) (A) (A) (A) (A) (A) (A) (A) (A) (A) (A) (A)
                 (A) (A) (A) (A) (A) (A) (A) (A) (A) (A) (A) (A)
                 (A) (A) (A) (A) (A) (A) (A) (A) (A) (A) (A) (A)
                 (A) (A) (A) (A) (A) (A) (A) (A) (A) (A) (A) (A)
                 (A) (A) (A) (A) (A) (A) (A) (A) (A) (A) (A) (A)
                 (A) (A) (A) (A) (A) (A) (A) (A) (A) (A) (A) (A)
                 (A) (A) (A) (A) (A) (A) (A) (A) (A) (A) (A) (A)
                 (A) (A) (A) (A) (A) (A) (A) (A) (A) (A) (A) (A)
                 (A) (A) (A) (A) (A) (A) (A) (A) (A) (A) (A) (A)
                 (A) (A) (A) (A) (A) (A) (A) (A) (A) (A) (A) (A)
                 (A) (A) (A) (A) (A) (A) (A) (A) (A) (A) (A) (A)
                 (A) (A) (A) (A) (A) (A) (A) (A) (A) (A) (A) (A)
                 (A) (A) (A) (A) (A) (A) (A) (A) (A) (A) (A) (A)
                 (A) (A) (A) (A) (A) (A) (A) (A) (A) (A) (A) (A)
                 (A) (A) (A) (A) (A) (A) (A) (A) (A) (A) (A) (A)
                 (A) (A) (A) (A) (A) (A) (A) (A) (A) (A) (A) (A)
                 (A) (A) (A) (A) (A) (A) (A) (A) (A) (A) (A) (A)
                 (A) (A) (A) (A) (A) (A) (A) (A) (A) (A) (A) (A)
                 (A) (A) (A) (A) (A) (A) (A) (A) (A) (A) (A) (A)
                 (A) (A) (A) (A) (A) (A) (A) (A) (A) (A) (A) (A)
                 (A) (A) (A) (A) (A) (A) (A) (A) (A) (A) (A) (A)
                 (A) (A) (A) (A) (A) (A) (A) (A) (A) (A) (A) (A)
                 (A) (A) (A) (A) (A) (A) (A) (A) (A) (A) (A) (A)
                 (A) (A) (A) (A) (A) (A) (A) (A) (A) (A) (A) (A)
                 (A) (A) (A) (A) (A) (A) (A) (A) (A) (A) (A) (A)
                 (A) (A) (A) (A) (A) (A) (A) (A) (A) (A) (A) (A)
                 (A) (A) (A) (A) (A) (A) (A) (A) (A) (A) (A) (A)
                 (A) (A) (A) (A) (A) (A) (A) (A) (A) (A) (A) (A)
                 (A) (A) (A) (A) (A) (A) (A) (A) (A) (A) (A) (A)
                 (A) (A) (A) (A) (A) (A) (A) (A) (A) (A) (A) (A)
                 (A) (A) (A) (A) (A) (A) (A) (A) (A) (A) (A) (A)
                 (A) (A) (A) (A) (A) (A) (A) (A) (A) (A) (A) (A)
                 (A) (A) (A) (A) (A) (A) (A) (A) (A) (A) (A) (A)
                 (A) (A) (A) (A) (A) (A) (A) (A) (A) (A) (A) (A)
                 (A) (A) (A) (A) (A) (A) (A) (A) (A) (A) (A) (A)
                 (A) (A) (A) (A) (A) (A) (A) (A) (A) (A) (A) (A)
                 (A) (A) (A) (A) (A) (A) (A) (A) (A) (A) (A) (A)
                 (A) (A) (A) (A) (A) (A) (A) (A) (A) (A) (A) (A)
                 (A) (A) (A) (A) (A) (A) (A) (A) (A) (A) (A) (A)
                 (A) (A) (A) (A) (A) (A) (A) (A) (A) (A) (A) (A)
                 (A) (A) (A) (A) (A) (A) (A) (A) (A) (A) (A) (A)
                 (A) (A) (A) (A) (A) (A) (A) (A) (A) (A) (A) (A)
                 (A) (A) (A) (A) (A) (A) (A) (A) (A) (A) (A) (A)
                 (A) (A) (A) (A) (A) (A) (A) (A) (A) (A) (A) (A)
                 (A) (A) (A) (A) (A) (A) (A) (A) (A) (A) (A) (A)
                 (A) (A) (A) (A) (A) (A) (A) (A) (A) (A) (A) (A)
                 (A) (A) (A) (A) (A) (A) (A) (A) (A) (A) (A) (A)
                 (A) (A) (A) (A) (A) (A) (A) (A) (A) (A) (A) (A)
                 (A) (A) (A) (A) (A) (A) (A) (A) (A) (A) (A) (A)
                 (A) (A) (A) (A) (A) (A) (A) (A) (A) (A) (A) (A)
                 (A) (A) (A) (A) (A) (A) (A) (A) (A) (A) (A) (A)
                 (A) (A) (A) (A) (A) (A) (A) (A) (A) (A) (A) (A)
                 (A) (A) (A) (A) (A) (A) (A) (A) (A) (A) (A) (A)
                 (A) (A) (A) (A) (A) (A) (A) (A) (A) (A) (A) (A)
                 (A) (A) (A) (A) (A) (A) (A) (A) (A) (A) (A) (A)
                 (A) (A) (A) (A) (A) (A) (A) (A) (A) (A) (A) (A)
                 (A) (A) (A) (A) (A) (A) (A) (A) (A) (A) (A) (A)
                 (A) (A) (A) (A) (A) (A) (A) (A) (A) (A) (A) (A)
                 (A) (A) (A) (A) (A) (A) (A) (A) (A) (A) (A) (A)
                 (A) (A) (A) (A) (A) (A) (A) (A) (A) (A) (A) (A)
                 (A) (A) (A) (A) (A) (A) (A) (A) (A) (A) (A) (A)
                 (A) (A) (A) (A) (A) (A) (A) (A) (A) (A) (A) (A)
                 (A) (A) (A) (A) (A) (A) (A) (A) (A) (A) (A) (A)
                 (A) (A) (A) (A) (A) (A) (A) (A) (A) (A) (A) (A)
                 (A) (A) (A) (A) (A) (A) (A) (A) (A) (A) (A) (A)
                 (A) (A) (A) (A) (A) (A) (A) (A) (A) (A) (A) (A)
                 (A) (A) (A) (A) (A) (A) (A) (A) (A) (A) (A) (A)
                 (A) (A) (A) (A) (A) (A) (A) (A) (A) (A) (A) (A)
                 (A) (A) (A) (A) (A) (A) (A) (A) (A) (A) (A) (A)
                 (A) (A) (A) (A) (A) (A) (A) (A) (A) (A) (A) (A)
                 (A) (A) (A) (A) (A) (A) (A) (A) (A) (A) (A) (A)
                 (A) (A) (A) (A) (A) (A) (A) (A) (A) (A) (A) (A)
                 (A) (A) (A) (A) (A) (A) (A) (A) (A) (A) (A) (A)
                 (A) (A) (A) (A) (A) (A) (A) (A) (A) (A) (A) (A)
                 (A) (A) (A) (A) (A) (A) (A) (A) (A) (A) (A) (A)
                 (A) (A) (A) (A) (A) (A) (A) (A) (A) (A) (A) (A)
                 (A) (A) (A) (A) (A) (A) (A) (A) (A) (A) (A) (A)
                 (A) (A) (A) (A) (A) (A) (A) (A) (A) (A) (A) (A)
                 (A) (A) (A) (A) (A) (A) (A) (A) (A) (A) (A) (A)
                 (A) (A) (A) (A) (A) (A) (A) (A) (A) (A) (A) (A)
                 (A) (A) (A) (A) (A) (A) (A) (A) (A) (A) (A) (A)
                 (A) (A) (A) (A) (A) (A) (A) (A) (A) (A) (A) (A)
                 (A) (A) (A) (A) (A) (A) (A) (A) (A) (A) (A) (A)
                 (A) (A) (A) (A) (A) (A) (A) (A) (A) (A) (A) (A)
                 (A) (A) (A) (A) (A) (A) (A) (A) (A) (A) (A) (A)
                 (A) (A) (A) (A) (A) (A) (A) (A) (A) (A) (A) (A)
                 (A) (A) (A) (A) (A) (A) (A) (A) (A) (A) (A) (A)
                 (A) (A) (A) (A) (A) (A) (A) (A) (A) (A) (A) (A)
                 (A) (A) (A) (A) (A) (A) (A) (A) (A) (A) (A) (A)
[...]
  Beta virt. eigenvalues --    5.10116   5.10124   5.10529   5.10622   5.11073
  Beta virt. eigenvalues --    5.11406   5.11474   5.12014   5.12483   5.12773
  Beta virt. eigenvalues --    5.13069   5.13663   5.13738   5.13774   5.13940
  Beta virt. eigenvalues --    5.14098   5.14874   5.15296   5.15632   5.16075
  Beta virt. eigenvalues --    5.16255   5.16675   5.16789   5.17079   5.17239
  Beta virt. eigenvalues --    5.17857   5.18009   5.18205   5.18723   5.19427
  Beta virt. eigenvalues --    5.19806   5.20121   5.20624   5.20847   5.21013
  Beta virt. eigenvalues --    5.21631   5.21994   5.22018   5.22247   5.23406
  Beta virt. eigenvalues --    5.23561   5.23991   5.24364   5.24878   5.25188
  Beta virt. eigenvalues --    5.25318   5.25639   5.25882   5.26118   5.26272
  Beta virt. eigenvalues --    5.26568   5.26701   5.27154   5.27343   5.27657
  Beta virt. eigenvalues --    5.28066   5.28829   5.29012   5.29244   5.29396
  Beta virt. eigenvalues --    5.29473   5.29996   5.30145   5.30336   5.30736
  Beta virt. eigenvalues --    5.30952   5.31066   5.31338   5.31457   5.31587
  Beta virt. eigenvalues --    5.31730   5.32207   5.32333   5.33022   5.33417
  Beta virt. eigenvalues --    5.34105   5.34401   5.34692   5.34933   5.35167
  Beta virt. eigenvalues --    5.35694   5.35814   5.36375   5.36784   5.37053
  Beta virt. eigenvalues --    5.37514   5.37538   5.37690   5.37876   5.38089
  Beta virt. eigenvalues --    5.38309   5.38540   5.38858   5.39126   5.39450
  Beta virt. eigenvalues --    5.39649   5.40049   5.40337   5.40411   5.41422
  Beta virt. eigenvalues --    5.41764   5.41832   5.41917   5.42499   5.42906
  Beta virt. eigenvalues --    5.43100   5.43443   5.43963   5.44121   5.44360
  Beta virt. eigenvalues --    5.44514   5.45406   5.46054   5.46524   5.46661
  Beta virt. eigenvalues --    5.47128   5.47621   5.48063   5.49078   5.49355
  Beta virt. eigenvalues --    5.49716   5.49975   5.50744   5.51190   5.51684
  Beta virt. eigenvalues --    5.51840   5.51968   5.52207   5.52851   5.53638
  Beta virt. eigenvalues --    5.54029   5.54298   5.54367   5.55382   5.55745
  Beta virt. eigenvalues --    5.56383   5.56427   5.57079   5.57519   5.58120
  Beta virt. eigenvalues --    5.58282   5.58949   5.59002   5.59289   5.59907
  Beta virt. eigenvalues --    5.60166   5.60841   5.60980   5.61179   5.61358
  Beta virt. eigenvalues --    5.61833   5.62042   5.62324   5.62905   5.63011
  Beta virt. eigenvalues --    5.63282   5.63595   5.63975   5.64148   5.64421
  Beta virt. eigenvalues --    5.64584   5.64590   5.65027   5.65406   5.65756
  Beta virt. eigenvalues --    5.65853   5.66132   5.66556   5.66937   5.67308
  Beta virt. eigenvalues --    5.67613   5.68014   5.68404   5.69133   5.69661
  Beta virt. eigenvalues --    5.70496   5.71859   5.72960   5.74507   5.75317
  Beta virt. eigenvalues --    5.77350   5.77425   5.78481   5.81208   5.81851
  Beta virt. eigenvalues --    5.82534   5.84886   5.84995   5.85103   5.85585
  Beta virt. eigenvalues --    5.86546   5.89324   5.90068   5.91683   5.92020
  Beta virt. eigenvalues --    5.92100   5.92289   5.92309   5.92647   5.93470
  Beta virt. eigenvalues --    5.93981   5.94949   5.98030   5.98456   5.99025
  Beta virt. eigenvalues --    5.99533   5.99999   6.00450   6.00817   6.02567
  Beta virt. eigenvalues --    6.03040   6.03391   6.04026   6.05991   6.06731
  Beta virt. eigenvalues --    6.06901   6.08952   6.09192   6.09240   6.10371
  Beta virt. eigenvalues --    6.12068   6.14939   6.16376   6.20360   6.21889
  Beta virt. eigenvalues --    6.21896   6.22840   6.22918   6.25310   6.25423
  Beta virt. eigenvalues --    6.25563   6.26367   6.26510   6.28062   6.28593
  Beta virt. eigenvalues --    6.28833   6.29229   6.30112   6.30341   6.31094
  Beta virt. eigenvalues --    6.32898   6.33628   6.35547   6.35638   6.35932
  Beta virt. eigenvalues --    6.36384   6.39076   6.40277   6.41005   6.42238
  Beta virt. eigenvalues --    6.43865   6.45149   6.46930   6.48689   6.51730
  Beta virt. eigenvalues --    6.52797   6.55997   6.68092   6.70406   6.70698
  Beta virt. eigenvalues --    6.71522   6.72712   6.72755   6.74372   6.74514
  Beta virt. eigenvalues --    6.75154   6.75471   6.75630   6.76655   6.76994
  Beta virt. eigenvalues --    6.80556   6.80659   6.82763   6.82859   6.82984
  Beta virt. eigenvalues --    6.83129   6.83172   6.84272   6.84434   6.85195
  Beta virt. eigenvalues --    6.86409   6.86622   6.87656   6.89620   6.90752
  Beta virt. eigenvalues --    6.95144   6.96263   6.97231   6.97988   6.98062
  Beta virt. eigenvalues --    6.98732   6.98776   7.00490   7.00808   7.00849
  Beta virt. eigenvalues --    7.02073   7.03332   7.03670   7.05469   7.08264
  Beta virt. eigenvalues --    7.08989   7.09322   7.11007   7.11351   7.15155
  Beta virt. eigenvalues --    7.16893   7.20735   7.23549   7.24059   7.25525
  Beta virt. eigenvalues --    7.26448   7.27042   7.27220   7.28000   7.29506
  Beta virt. eigenvalues --    7.29550   7.29582   7.30205   7.30412   7.31469
  Beta virt. eigenvalues --    7.33901   7.34082   7.34151   7.34514   7.36006
  Beta virt. eigenvalues --    7.36048   7.38849   7.39527   7.40028   7.41853
  Beta virt. eigenvalues --    7.46299   7.47363   7.47461   7.49881   7.50941
  Beta virt. eigenvalues --    7.91459   7.91591   8.44631   8.49660   8.57669
  Beta virt. eigenvalues --    8.60793   8.84504   8.85245   8.92638   8.94705
  Beta virt. eigenvalues --    8.97481   8.99046  15.82986  22.77962  22.79951
  Beta virt. eigenvalues --   22.82395  22.88711  22.89850  23.00988  23.10878
  Beta virt. eigenvalues --   23.11233  23.11922  23.14624  23.17064  23.17086
  Beta virt. eigenvalues --   23.17581  23.18852  23.27053  23.27202  23.27690
  Beta virt. eigenvalues --   23.29262  23.30125  23.31175  23.31326  23.32849
  Beta virt. eigenvalues --   23.34988  23.35411  23.36218  23.36859  23.37227
  Beta virt. eigenvalues --   23.38208  23.39477  23.39554  23.40704  23.40916
  Beta virt. eigenvalues --   23.43023  23.45929  23.47438  23.47731  23.48608
  Beta virt. eigenvalues --   23.53073  23.55088  23.56526  23.58430  23.58508
  Beta virt. eigenvalues --   23.67832  23.70532  23.74562  23.82922  23.99327
  Beta virt. eigenvalues --   24.08644  24.09047  32.59291  32.63518  33.06380
  Beta virt. eigenvalues --   33.23383  44.18552  44.21395  44.25963  44.29049
  Beta virt. eigenvalues --   44.29189  44.29241  44.33142  44.38237  44.39115
  Beta virt. eigenvalues --   44.49915  44.50355  44.61827  44.63129  57.38936
  Beta virt. eigenvalues --   57.57704
          Condensed to atoms (all electrons):
          Atomic-Atomic Spin Densities.
 Mulliken charges and spin densities:
               1          2
     1  B    0.369867  -0.002535
     2  N   -0.113102   0.013436
     3  C    0.089429   0.141710
     4  C   -0.106878  -0.041102
     5  C    0.009621   0.124037
     6  C    0.144762  -0.026928
     7  C   -0.174088   0.358261
     8  C    0.189481   0.001567
     9  O   -0.426725   0.172447
    10  C   -0.389263   0.010527
    11  C    0.069576   0.000579
    12  C   -0.078062  -0.000234
    13  N    0.496638   0.003727
    14  O   -0.322145  -0.009823
    15  O   -0.355855   0.009910
    16  C    0.021091   0.001455
    17  C   -0.062537  -0.000544
    18  C   -0.082638   0.000467
    19  C   -0.073914  -0.000303
    20  N    0.499319   0.000036
    21  O   -0.362253  -0.000128
    22  O   -0.360747   0.000060
    23  C    0.127003  -0.055042
    24  N   -0.097377   0.014400
    25  C    0.069572   0.105377
    26  C   -0.091314  -0.030537
    27  C    0.009102   0.099552
    28  C   -0.461214  -0.004976
    29  Br  -0.116438   0.000344
    30  C   -0.165408  -0.046137
    31  C   -0.109058   0.073997
    32  C   -0.001695  -0.017515
    33  C   -0.127123   0.017091
    34  C   -0.201598  -0.010570
    35  C    0.216560   0.019204
    36  O   -0.308584   0.002830
    37  C   -0.133118  -0.000069
    38  C   -0.097201   0.000024
    39  O   -0.352282   0.000020
    40  C   -0.097689   0.000000
    41  C   -0.055197   0.000007
    42  O   -0.341495  -0.000000
    43  C   -0.055384  -0.000000
    44  C   -0.095914   0.000000
    45  O   -0.348043   0.000000
    46  C   -0.199238   0.000000
    47  C   -0.166998  -0.010149
    48  C   -0.196061   0.020715
    49  C   -0.410421  -0.001053
    50  Br  -0.117716  -0.000207
    51  C   -0.160259  -0.062876
    52  C   -0.095001   0.102716
    53  C   -0.008860  -0.025310
    54  C   -0.156944   0.025576
    55  C   -0.192063  -0.014070
    56  C    0.225114   0.027911
    57  O   -0.298818   0.004216
    58  C   -0.148152  -0.000092
    59  C   -0.061973  -0.000044
    60  O   -0.341283   0.000030
    61  C   -0.094305   0.000039
    62  C   -0.079035  -0.000035
    63  O   -0.340185  -0.000000
    64  C   -0.052010  -0.000005
    65  C   -0.097035  -0.000001
    66  O   -0.347722  -0.000000
    67  C   -0.199881   0.000000
    68  C   -0.172288  -0.015757
    69  C   -0.164693   0.028359
    70  F   -0.378631   0.000457
    71  F   -0.341689   0.000378
    72  H    0.229146  -0.002538
    73  H    0.173448  -0.004136
    74  H    0.211639  -0.000054
    75  H    0.199850  -0.000037
    76  H    0.153916  -0.000081
    77  H    0.156292   0.003749
    78  H    0.143654   0.002902
    79  H    0.140564  -0.003523
    80  H    0.147791   0.001885
    81  H    0.118567  -0.004050
    82  H    0.140807  -0.000459
    83  H    0.156549   0.000167
    84  H    0.152749   0.000116
    85  H    0.163500   0.000028
    86  H    0.133540   0.000004
    87  H    0.149323   0.000062
    88  H    0.132387  -0.000000
    89  H    0.136125   0.000001
    90  H    0.118539  -0.000000
    91  H    0.122950  -0.000002
    92  H    0.123320  -0.000000
    93  H    0.122909   0.000000
    94  H    0.125697   0.000000
    95  H    0.116966   0.000000
    96  H    0.136659   0.000000
    97  H    0.120857  -0.000000
    98  H    0.122919   0.000000
    99  H    0.150224   0.000085
   100  H    0.145482  -0.000728
   101  H    0.147445   0.004557
   102  H    0.125589  -0.001812
   103  H    0.124251   0.002164
   104  H    0.146896   0.002811
   105  H    0.116880  -0.005409
   106  H    0.148470  -0.000988
   107  H    0.154806   0.000174
   108  H    0.148700   0.000215
   109  H    0.153481   0.000017
   110  H    0.136535   0.000173
   111  H    0.133276  -0.000033
   112  H    0.126230  -0.000008
   113  H    0.132387  -0.000003
   114  H    0.130217   0.000019
   115  H    0.119309  -0.000004
   116  H    0.122603   0.000000
   117  H    0.123843   0.000001
   118  H    0.117261   0.000000
   119  H    0.125597   0.000000
   120  H    0.136851  -0.000000
   121  H    0.123344  -0.000000
   122  H    0.120836  -0.000000
   123  H    0.146866   0.000152
   124  H    0.140424  -0.000835
 Sum of Mulliken charges =  -1.00000   1.00000
 Mulliken charges and spin densities with hydrogens summed into heavy atoms:
               1          2
     1  B    0.369867  -0.002535
     2  N   -0.113102   0.013436
     3  C    0.089429   0.141710
     4  C   -0.106878  -0.041102
     5  C    0.009621   0.124037
     6  C    0.144762  -0.026928
     7  C   -0.174088   0.358261
     8  C    0.189481   0.001567
     9  O   -0.426725   0.172447
    10  C    0.013331   0.003853
    11  C    0.069576   0.000579
    12  C   -0.078062  -0.000234
    13  N    0.496638   0.003727
    14  O   -0.322145  -0.009823
    15  O   -0.355855   0.009910
    16  C    0.232730   0.001401
    17  C   -0.062537  -0.000544
    18  C    0.117211   0.000431
    19  C    0.080002  -0.000384
    20  N    0.499319   0.000036
    21  O   -0.362253  -0.000128
    22  O   -0.360747   0.000060
    23  C    0.127003  -0.055042
    24  N   -0.097377   0.014400
    25  C    0.069572   0.105377
    26  C   -0.091314  -0.030537
    27  C    0.009102   0.099552
    28  C   -0.020704  -0.001848
    29  Br  -0.116438   0.000344
    30  C   -0.017617  -0.044252
    31  C    0.009509   0.069947
    32  C   -0.001695  -0.017515
    33  C    0.013684   0.016632
    34  C   -0.045050  -0.010403
    35  C    0.216560   0.019204
    36  O   -0.308584   0.002830
    37  C    0.183130   0.000075
    38  C    0.185662   0.000090
    39  O   -0.352282   0.000020
    40  C    0.170822   0.000001
    41  C    0.186292   0.000005
    42  O   -0.341495  -0.000000
    43  C    0.190845  -0.000000
    44  C    0.146749   0.000000
    45  O   -0.348043   0.000000
    46  C    0.181197   0.000000
    47  C   -0.016774  -0.010064
    48  C   -0.050579   0.019987
    49  C   -0.013136   0.003856
    50  Br  -0.117716  -0.000207
    51  C   -0.013363  -0.060065
    52  C    0.021879   0.097307
    53  C   -0.008860  -0.025310
    54  C   -0.008474   0.024588
    55  C   -0.037257  -0.013895
    56  C    0.225114   0.027911
    57  O   -0.298818   0.004216
    58  C    0.154029   0.000140
    59  C    0.207837   0.000096
    60  O   -0.341283   0.000030
    61  C    0.164313   0.000028
    62  C    0.170491  -0.000020
    63  O   -0.340185  -0.000000
    64  C    0.194436  -0.000004
    65  C    0.145823  -0.000001
    66  O   -0.347722  -0.000000
    67  C    0.181150   0.000000
    68  C   -0.025422  -0.015605
    69  C   -0.024269   0.027524
    70  F   -0.378631   0.000457
    71  F   -0.341689   0.000378
 Electronic spatial extent (au):  <R**2>=         128262.3964
 Charge=             -1.0000 electrons
 Dipole moment (field-independent basis, Debye):
    X=            -13.8036    Y=              4.6161    Z=             -2.2189  Tot=             14.7232
 Quadrupole moment (field-independent basis, Debye-Ang):
   XX=           -502.8261   YY=           -419.6338   ZZ=           -496.7531
   XY=            -88.7520   XZ=            -15.8535   YZ=            -32.5589
 Traceless Quadrupole moment (field-independent basis, Debye-Ang):
   XX=            -29.7551   YY=             53.4372   ZZ=            -23.6821
   XY=            -88.7520   XZ=            -15.8535   YZ=            -32.5589
 Octapole moment (field-independent basis, Debye-Ang**2):
  XXX=           -711.5274  YYY=           1028.7963  ZZZ=           -235.6506  XYY=             52.2860
  XXY=            -25.0954  XXZ=           -502.9645  XZZ=           -287.8194  YZZ=           -142.2591
  YYZ=            -76.9651  XYZ=             59.2257
 Hexadecapole moment (field-independent basis, Debye-Ang**3):
 XXXX=        -103642.1338 YYYY=         -42633.7342 ZZZZ=         -17133.4497 XXXY=          -9151.0944
 XXXZ=          -5452.4017 YYYX=          -4916.3965 YYYZ=           -559.6632 ZZZX=          -1360.0007
 ZZZY=          -1031.7105 XXYY=         -27906.2163 XXZZ=         -22137.5186 YYZZ=         -10926.0594
 XXYZ=          -1531.3090 YYXZ=            753.5679 ZZXY=            138.7133
 N-N= 1.206258004497D+04 E-N=-4.423508504215D+04  KE= 8.444687272396D+03
 Leave Link  601 at Tue Oct 28 16:25:26 2025, MaxMem= 30870077440 cpu:             216.7 elap:               3.9
 (Enter /public/software/gauss/g16/l9999.exe)
 1\1\GINC-CU031\SP\UM062X\def2TZVPP\C49H53B1Br2F2N4O13(1-,2)\BAIDING\28
 -Oct-2025\0\\#p M062X/DEF2TZVPP scrf=(solvent=water) em=GD3\\Energy ca
 lculation for BE_Br_reduced\\-1,2\B,0,2.021163,-0.682315,-0.85906\N,0,
 2.810429,0.299085,-1.777458\C,0,2.357079,1.448883,-2.411861\C,0,3.4959
 16,2.039048,-3.004737\C,0,4.643258,1.291203,-2.712109\C,0,4.187853,0.2
 1801,-1.906073\C,0,4.893477,-0.874665,-1.282816\C,0,6.162691,-0.60596,
 -0.623271\O,0,6.749533,0.492024,-0.715295\C,0,6.773991,-1.644841,0.331
 908\C,0,7.595795,-1.021906,1.435986\C,0,7.132165,-0.061767,2.361837\N,
 0,5.747034,0.420811,2.347759\O,0,4.876587,-0.293106,1.844794\O,0,5.511
 704,1.519047,2.859502\C,0,7.942552,0.4855,3.351579\C,0,9.256548,0.0484
 99,3.436641\C,0,9.773063,-0.897155,2.553038\C,0,8.939289,-1.407915,1.5
 65745\N,0,10.115048,0.601658,4.481174\O,0,9.635134,1.436985,5.251581\O
 ,0,11.281699,0.206041,4.542921\C,0,4.147901,-2.098244,-1.09472\N,0,2.7
 74028,-2.042355,-0.926127\C,0,2.278766,-3.327991,-0.749995\C,0,3.38323
 8,-4.192245,-0.892829\C,0,4.553073,-3.453322,-1.12755\C,0,5.884286,-4.
 01793,-1.51966\Br,0,3.346255,-6.09085,-0.925212\C,0,0.885252,-3.578441
 ,-0.467201\C,0,0.351846,-4.704254,0.072977\C,0,-1.066084,-4.940338,0.3
 36526\C,0,-1.443841,-6.100413,1.047301\C,0,-2.7722,-6.376089,1.341155\
 C,0,-3.782334,-5.495384,0.927204\O,0,-5.062823,-5.868884,1.256568\C,0,
 -6.17143,-5.03577,0.886151\C,0,-6.368115,-3.898374,1.892354\O,0,-7.473
 173,-3.071054,1.542006\C,0,-8.768418,-3.601676,1.850744\C,0,-9.540972,
 -3.870251,0.55742\O,0,-10.864115,-4.332387,0.817828\C,0,-11.812972,-3.
 289795,1.047908\C,0,-13.180517,-3.918857,1.255377\O,0,-13.654749,-4.66
 5694,0.137526\C,0,-14.126526,-3.856308,-0.933525\C,0,-3.437241,-4.3387
 8,0.212355\C,0,-2.100115,-4.076361,-0.075895\C,0,6.005304,1.51449,-3.2
 93436\Br,0,3.523946,3.549101,-4.157316\C,0,0.971193,1.842196,-2.371189
 \C,0,0.451378,3.059783,-2.679549\C,0,-0.960931,3.426405,-2.629231\C,0,
 -2.001011,2.532012,-2.284808\C,0,-3.322449,2.946938,-2.246176\C,0,-3.6
 65721,4.275546,-2.554443\O,0,-5.006515,4.560825,-2.500404\C,0,-5.46512
 5,5.898307,-2.756741\C,0,-5.33122,6.809448,-1.551478\O,0,-6.190303,6.3
 20394,-0.522412\C,0,-6.118491,7.066179,0.693053\C,0,-4.992483,6.553116
 ,1.597377\O,0,-4.996015,7.203229,2.866293\C,0,-4.331158,8.466627,2.879
 849\C,0,-4.323406,8.991035,4.306161\O,0,-3.632818,8.154534,5.230847\C,
 0,-2.215858,8.232394,5.126908\C,0,-2.656117,5.182145,-2.900524\C,0,-1.
 33045,4.750087,-2.934641\F,0,0.710951,-0.840157,-1.345434\F,0,1.974922
 ,-0.20071,0.458348\H,0,5.997702,-2.281433,0.759851\H,0,7.442662,-2.290
 592,-0.242209\H,0,7.552241,1.221993,4.03953\H,0,10.803491,-1.218938,2.
 634602\H,0,9.339168,-2.132196,0.864571\H,0,6.447161,-4.411432,-0.66508
 5\H,0,5.750448,-4.848021,-2.221174\H,0,6.501812,-3.265377,-2.014585\H,
 0,0.226337,-2.750247,-0.695863\H,0,1.005625,-5.518027,0.370182\H,0,-0.
 673438,-6.793142,1.375994\H,0,-3.049073,-7.271295,1.88934\H,0,-6.05209
 2,-4.644207,-0.129163\H,0,-7.036563,-5.703328,0.893714\H,0,-6.492937,-
 4.317579,2.89964\H,0,-5.489855,-3.246302,1.903642\H,0,-8.687301,-4.524
 468,2.436671\H,0,-9.296786,-2.860283,2.461927\H,0,-9.559284,-2.961446,
 -0.060328\H,0,-9.040234,-4.657646,-0.015656\H,0,-11.564391,-2.708477,1
 .947173\H,0,-11.817822,-2.594622,0.196125\H,0,-13.126889,-4.627997,2.0
 88115\H,0,-13.895106,-3.126659,1.524104\H,0,-14.546058,-4.531924,-1.68
 3522\H,0,-14.912483,-3.165617,-0.595622\H,0,-13.325035,-3.270278,-1.40
 1888\H,0,-4.194141,-3.640562,-0.124227\H,0,-1.865216,-3.178942,-0.6399
 28\H,0,6.555322,2.303851,-2.769309\H,0,6.608813,0.607754,-3.246796\H,0
 ,5.922204,1.818802,-4.342275\H,0,0.299276,1.065171,-2.029979\H,0,1.113
 143,3.864753,-2.98141\H,0,-1.774844,1.497791,-2.044909\H,0,-4.11509,2.
 253758,-1.981742\H,0,-4.951007,6.331287,-3.620407\H,0,-6.522044,5.7834
 09,-3.010583\H,0,-4.290017,6.853299,-1.209125\H,0,-5.630091,7.825725,-
 1.850592\H,0,-6.000983,8.136995,0.479857\H,0,-7.076426,6.927046,1.2050
 43\H,0,-5.152615,5.487255,1.790569\H,0,-4.01411,6.666556,1.110654\H,0,
 -3.309075,8.356056,2.489957\H,0,-4.847987,9.202532,2.2475\H,0,-3.89667
 5,10.005193,4.306372\H,0,-5.353896,9.053659,4.671288\H,0,-1.802463,7.6
 28849,5.939166\H,0,-1.842156,7.836382,4.173671\H,0,-1.863657,9.268189,
 5.236889\H,0,-2.880816,6.214529,-3.139377\H,0,-0.555775,5.46386,-3.202
 917\\Version=ES64L-G16RevA.03\State=2-A\HF=-8468.9949831\S2=0.77339\S2
 -1=0.\S2A=0.750453\RMSD=4.794e-10\Dipole=-5.4307633,1.8161279,-0.87298
 64\Quadrupole=-22.1222077,39.729238,-17.6070303,-65.9849216,-11.786718
 2,-24.2067218\PG=C01 [X(C49H53B1Br2F2N4O13)]\\@


 THE PROBLEM WITH THE LADDER OF SUCCESS IS YOU CAN'T
 CLIMB IT WHILE YOU'RE TWIDDLING YOUR THUMBS.
 Job cpu time:       3 days 11 hours 10 minutes 21.7 seconds.
 Elapsed time:       0 days  1 hours 18 minutes 58.2 seconds.
 File lengths (MBytes):  RWF=   9501 Int=      0 D2E=      0 Chk=    614 Scr=      1
 Normal termination of Gaussian 16 at Tue Oct 28 16:25:29 2025.
