 Entering Gaussian System, Link 0=g16
 Input=BE_Br_sp.gjf
 Output=BE_Br_sp.log
 Initial command:
 /public/software/gauss/g16/l1.exe "/public/home/baiding/1028_sp/tmp_BE_Br_sp_1538822/Gau-37492.inp" -scrdir="/public/home/baiding/1028_sp/tmp_BE_Br_sp_1538822/"
 Entering Link 1 = /public/software/gauss/g16/l1.exe PID=     37493.
  
 Copyright (c) 1988,1990,1992,1993,1995,1998,2003,2009,2016,
            Gaussian, Inc.  All Rights Reserved.
  
 This is part of the Gaussian(R) 16 program.  It is based on
 the Gaussian(R) 09 system (copyright 2009, Gaussian, Inc.),
 the Gaussian(R) 03 system (copyright 2003, Gaussian, Inc.),
 the Gaussian(R) 98 system (copyright 1998, Gaussian, Inc.),
 the Gaussian(R) 94 system (copyright 1995, Gaussian, Inc.),
 the Gaussian 92(TM) system (copyright 1992, Gaussian, Inc.),
 the Gaussian 90(TM) system (copyright 1990, Gaussian, Inc.),
 the Gaussian 88(TM) system (copyright 1988, Gaussian, Inc.),
 the Gaussian 86(TM) system (copyright 1986, Carnegie Mellon
 University), and the Gaussian 82(TM) system (copyright 1983,
 Carnegie Mellon University). Gaussian is a federally registered
 trademark of Gaussian, Inc.
  
 This software contains proprietary and confidential information,
 including trade secrets, belonging to Gaussian, Inc.
  
 This software is provided under written license and may be
 used, copied, transmitted, or stored only in accord with that
 written license.
  
 The following legend is applicable only to US Government
 contracts under FAR:
  
                    RESTRICTED RIGHTS LEGEND
  
 Use, reproduction and disclosure by the US Government is
 subject to restrictions as set forth in subparagraphs (a)
 and (c) of the Commercial Computer Software - Restricted
 Rights clause in FAR 52.227-19.
  
 Gaussian, Inc.
 340 Quinnipiac St., Bldg. 40, Wallingford CT 06492
  
  
 ---------------------------------------------------------------
 Warning -- This program may not be used in any manner that
 competes with the business of Gaussian, Inc. or will provide
 assistance to any competitor of Gaussian, Inc.  The licensee
 of this program is prohibited from giving any competitor of
 Gaussian, Inc. access to this program.  By using this program,
 the user acknowledges that Gaussian, Inc. is engaged in the
 business of creating and licensing software in the field of
 computational chemistry and represents and warrants to the
 licensee that it is not a competitor of Gaussian, Inc. and that
 it will not use this program in any manner prohibited above.
 ---------------------------------------------------------------
  

 Cite this work as:
 Gaussian 16, Revision A.03,
 M. J. Frisch, G. W. Trucks, H. B. Schlegel, G. E. Scuseria, 
 M. A. Robb, J. R. Cheeseman, G. Scalmani, V. Barone, 
 G. A. Petersson, H. Nakatsuji, X. Li, M. Caricato, A. V. Marenich, 
 J. Bloino, B. G. Janesko, R. Gomperts, B. Mennucci, H. P. Hratchian, 
 J. V. Ortiz, A. F. Izmaylov, J. L. Sonnenberg, D. Williams-Young, 
 F. Ding, F. Lipparini, F. Egidi, J. Goings, B. Peng, A. Petrone, 
 T. Henderson, D. Ranasinghe, V. G. Zakrzewski, J. Gao, N. Rega, 
 G. Zheng, W. Liang, M. Hada, M. Ehara, K. Toyota, R. Fukuda, 
 J. Hasegawa, M. Ishida, T. Nakajima, Y. Honda, O. Kitao, H. Nakai, 
 T. Vreven, K. Throssell, J. A. Montgomery, Jr., J. E. Peralta, 
 F. Ogliaro, M. J. Bearpark, J. J. Heyd, E. N. Brothers, K. N. Kudin, 
 V. N. Staroverov, T. A. Keith, R. Kobayashi, J. Normand, 
 K. Raghavachari, A. P. Rendell, J. C. Burant, S. S. Iyengar, 
 J. Tomasi, M. Cossi, J. M. Millam, M. Klene, C. Adamo, R. Cammi, 
 J. W. Ochterski, R. L. Martin, K. Morokuma, O. Farkas, 
 J. B. Foresman, and D. J. Fox, Gaussian, Inc., Wallingford CT, 2016.
 
 ******************************************
 Gaussian 16:  ES64L-G16RevA.03 25-Dec-2016
                28-Oct-2025 
 ******************************************
 %nprocshared=64
 Will use up to   64 processors via shared memory.
 %mem=230GB
 %chk=BE_Br_sp.chk
 ----------------------------------------------
 #p M062X/DEF2TZVPP scrf=(solvent=water) em=GD3
 ----------------------------------------------
 1/38=1,172=1/1;
 2/12=2,17=6,18=5,40=1/2;
 3/5=44,7=202,11=2,25=1,30=1,70=2201,72=1,74=-55,124=31/1,2,3;
 4//1;
 5/5=2,38=5,53=1/2;
 6/7=2,8=2,9=2,10=2,28=1/1;
 99/5=1,9=1/99;
 Leave Link    1 at Tue Oct 28 16:25:29 2025, MaxMem= 30870077440 cpu:              18.6 elap:               0.3
 (Enter /public/software/gauss/g16/l101.exe)
 ----------------------------
 Energy calculation for BE_Br
 ----------------------------
 Symbolic Z-matrix:
 Charge =  0 Multiplicity = 1
 B                     1.70368  -0.51502  -0.01629 
 N                     2.71924   0.60003  -0.38545 
 C                     2.38336   1.84097  -0.84468 
 C                     3.59795   2.58252  -0.94947 
 C                     4.67051   1.79583  -0.55268 
 C                     4.09677   0.53134  -0.1867 
 C                     4.68477  -0.64613   0.30828 
 C                     6.19991  -0.69752   0.41915 
 O                     6.77583  -0.23293   1.38621 
 C                     6.93101  -1.34557  -0.75745 
 C                     8.33258  -0.83345  -0.98685 
 C                     9.39308  -0.91015  -0.06269 
 N                     9.26951  -1.6495    1.19804 
 O                     8.60439  -2.68567   1.19808 
 O                     9.87291  -1.21829   2.18037 
 C                     10.63879  -0.33672  -0.29323 
 C                     10.84538   0.30319  -1.50739 
 C                     9.84358   0.39342  -2.4706 
 C                     8.60113  -0.16427  -2.19125 
 N                     12.15567   0.89511  -1.77482 
 O                     13.02601   0.80161  -0.90644 
 O                     12.32575   1.46031  -2.85711 
 C                     3.90423  -1.76253   0.6569 
 N                     2.52651  -1.74965   0.44127 
 C                     1.9862   -2.93367   0.85831 
 C                     3.06318  -3.72125   1.35967 
 C                     4.25582  -3.01926   1.2512 
 C                     5.59598  -3.511     1.6924 
 Br                    2.95442  -5.49919   1.99851 
 C                     0.57884  -3.1961    0.70561 
 C                    -0.14417  -4.14698   1.35301 
 C                    -1.56682  -4.4045    1.18477 
 C                    -2.17774  -5.38985   1.99172 
 C                    -3.5289   -5.67994   1.88336 
 C                    -4.32401  -4.98922   0.95464 
 O                    -5.63966  -5.36121   0.9171 
 C                    -6.55316  -4.70351   0.02301 
 C                    -7.06206  -3.39129   0.62606 
 O                    -7.97535  -2.73554  -0.24735 
 C                    -9.30895  -3.2612   -0.2596 
 C                    -9.62582  -3.82122  -1.64797 
 O                    -10.96276  -4.30663  -1.73661 
 C                    -11.9387  -3.29303  -1.98314 
 C                    -13.29416  -3.95833  -2.15315 
 O                    -13.36754  -4.86023  -3.25461 
 C                    -13.46533  -4.21349  -4.51828 
 C                    -3.74102  -4.00523   0.13884 
 C                    -2.38454  -3.72598   0.25788 
 C                     6.10381   2.2195   -0.51761 
 Br                    3.76983   4.34356  -1.6237 
 C                     1.01649   2.16864  -1.15824 
 C                     0.4878    3.41677  -1.25142 
 C                    -0.89521   3.74467  -1.56249 
 C                    -1.88724   2.78273  -1.86565 
 C                    -3.18737   3.1631   -2.147 
 C                    -3.55279   4.52311  -2.13926 
 O                    -4.85914   4.77519  -2.44786 
 C                    -5.354     6.12655  -2.44551 
 C                    -5.70765   6.62054  -1.05629 
 O                    -6.78527   5.82928  -0.55857 
 C                    -7.17446   6.15918   0.77551 
 C                    -6.34097   5.38716   1.80426 
 O                    -6.80117   5.60392   3.1361 
 C                    -6.33539   6.81721   3.72835 
 C                    -6.7452    6.82743   5.19168 
 O                    -6.18065   5.7689    5.96163 
 C                    -4.81143   5.96923   6.29288 
 C                    -2.58838   5.49588  -1.84193 
 C                    -1.28342   5.0983   -1.56177 
 F                     0.93038  -0.84451  -1.14351 
 F                     0.86276  -0.08484   1.01231 
 H                     6.93204  -2.424    -0.56036 
 H                     6.33801  -1.19462  -1.66198 
 H                     11.42639  -0.40792   0.44453 
 H                     10.02963   0.89642  -3.4109 
 H                     7.80808  -0.07821  -2.92609 
 H                     6.23962  -2.70316   2.03729 
 H                     5.48284  -4.21877   2.5174 
 H                     6.11613  -4.03878   0.88449 
 H                     0.07556  -2.53576   0.00919 
 H                     0.34299  -4.78058   2.0868 
 H                    -1.57296  -5.93105   2.71442 
 H                    -3.99089  -6.43917   2.50621 
 H                    -6.09627  -4.53409  -0.95674 
 H                    -7.3768   -5.41038  -0.10173 
 H                    -7.52192  -3.58979   1.60311 
 H                    -6.23067  -2.69668   0.77767 
 H                    -9.43177  -4.04535   0.4962 
 H                    -9.99512  -2.44283  -0.01098 
 H                    -9.43975  -3.05101  -2.40995 
 H                    -8.96943  -4.67183  -1.85956 
 H                    -12.0081  -2.58661  -1.14393 
 H                    -11.66133  -2.71707  -2.8777 
 H                    -13.51562  -4.55483  -1.26185 
 H                    -14.06178  -3.17507  -2.24148 
 H                    -13.60544  -4.99658  -5.26799 
 H                    -14.32564  -3.52954  -4.55109 
 H                    -12.55967  -3.64689  -4.77136 
 H                    -4.33137  -3.455    -0.58348 
 H                    -1.95947  -2.96392  -0.38751 
 H                     6.52048   2.14081   0.48969 
 H                     6.72419   1.61266  -1.1835 
 H                     6.19832   3.25737  -0.84078 
 H                     0.37176   1.30924  -1.30066 
 H                     1.11982   4.27769  -1.05986 
 H                    -1.63856   1.72645  -1.88333 
 H                    -3.94638   2.42331  -2.38061 
 H                    -4.64035   6.80549  -2.92157 
 H                    -6.25572   6.08873  -3.06153 
 H                    -4.83794   6.56805  -0.38992 
 H                    -6.00879   7.67646  -1.13287 
 H                    -7.10392   7.24267   0.93847 
 H                    -8.2255    5.86968   0.8786 
 H                    -6.4448    4.31475   1.60906 
 H                    -5.27646   5.64638   1.72023 
 H                    -5.24391   6.89182   3.61982 
 H                    -6.7768    7.69917   3.24251 
 H                    -6.48371   7.80446   5.6246 
 H                    -7.831     6.70266   5.26116 
 H                    -4.51815   5.14656   6.95025 
 H                    -4.15947   5.95878   5.40963 
 H                    -4.66418   6.92067   6.82399 
 H                    -2.83673   6.54962  -1.82203 
 H                    -0.54187   5.85867  -1.33195 
 
 ITRead=  0  0  0  0  0  0  0  0  0  0  0  0  0  0  0  0  0  0  0  0
 ITRead=  0  0  0  0  0  0  0  0  0  0  0  0  0  0  0  0  0  0  0  0
 ITRead=  0  0  0  0  0  0  0  0  0  0  0  0  0  0  0  0  0  0  0  0
 ITRead=  0  0  0  0  0  0  0  0  0  0  0  0  0  0  0  0  0  0  0  0
 ITRead=  0  0  0  0  0  0  0  0  0  0  0  0  0  0  0  0  0  0  0  0
 ITRead=  0  0  0  0  0  0  0  0  0  0  0  0  0  0  0  0  0  0  0  0
 ITRead=  0  0  0  0
 MicOpt= -1 -1 -1 -1 -1 -1 -1 -1 -1 -1 -1 -1 -1 -1 -1 -1 -1 -1 -1 -1
 MicOpt= -1 -1 -1 -1 -1 -1 -1 -1 -1 -1 -1 -1 -1 -1 -1 -1 -1 -1 -1 -1
 MicOpt= -1 -1 -1 -1 -1 -1 -1 -1 -1 -1 -1 -1 -1 -1 -1 -1 -1 -1 -1 -1
 MicOpt= -1 -1 -1 -1 -1 -1 -1 -1 -1 -1 -1 -1 -1 -1 -1 -1 -1 -1 -1 -1
 MicOpt= -1 -1 -1 -1 -1 -1 -1 -1 -1 -1 -1 -1 -1 -1 -1 -1 -1 -1 -1 -1
 MicOpt= -1 -1 -1 -1 -1 -1 -1 -1 -1 -1 -1 -1 -1 -1 -1 -1 -1 -1 -1 -1
 MicOpt= -1 -1 -1 -1
 NAtoms=    124 NQM=      124 NQMF=       0 NMMI=      0 NMMIF=      0
                NMic=       0 NMicF=      0.
                    Isotopes and Nuclear Properties:
 (Nuclear quadrupole moments (NQMom) in fm**2, nuclear magnetic moments (NMagM)
  in nuclear magnetons)

  Atom         1           2           3           4           5           6           7           8           9          10
 IAtWgt=          11          14          12          12          12          12          12          12          16          12
 AtmWgt=  11.0093053  14.0030740  12.0000000  12.0000000  12.0000000  12.0000000  12.0000000  12.0000000  15.9949146  12.0000000
 NucSpn=           3           2           0           0           0           0           0           0           0           0
 AtZEff=  -0.0000000  -0.0000000  -0.0000000  -0.0000000  -0.0000000  -0.0000000  -0.0000000  -0.0000000  -0.0000000  -0.0000000
 NQMom=    4.0590000   2.0440000   0.0000000   0.0000000   0.0000000   0.0000000   0.0000000   0.0000000   0.0000000   0.0000000
 NMagM=    2.6886370   0.4037610   0.0000000   0.0000000   0.0000000   0.0000000   0.0000000   0.0000000   0.0000000   0.0000000
 AtZNuc=   5.0000000   7.0000000   6.0000000   6.0000000   6.0000000   6.0000000   6.0000000   6.0000000   8.0000000   6.0000000

  Atom        11          12          13          14          15          16          17          18          19          20
 IAtWgt=          12          12          14          16          16          12          12          12          12          14
 AtmWgt=  12.0000000  12.0000000  14.0030740  15.9949146  15.9949146  12.0000000  12.0000000  12.0000000  12.0000000  14.0030740
 NucSpn=           0           0           2           0           0           0           0           0           0           2
 AtZEff=  -0.0000000  -0.0000000  -0.0000000  -0.0000000  -0.0000000  -0.0000000  -0.0000000  -0.0000000  -0.0000000  -0.0000000
 NQMom=    0.0000000   0.0000000   2.0440000   0.0000000   0.0000000   0.0000000   0.0000000   0.0000000   0.0000000   2.0440000
 NMagM=    0.0000000   0.0000000   0.4037610   0.0000000   0.0000000   0.0000000   0.0000000   0.0000000   0.0000000   0.4037610
 AtZNuc=   6.0000000   6.0000000   7.0000000   8.0000000   8.0000000   6.0000000   6.0000000   6.0000000   6.0000000   7.0000000

  Atom        21          22          23          24          25          26          27          28          29          30
 IAtWgt=          16          16          12          14          12          12          12          12          79          12
 AtmWgt=  15.9949146  15.9949146  12.0000000  14.0030740  12.0000000  12.0000000  12.0000000  12.0000000  78.9183361  12.0000000
 NucSpn=           0           0           0           2           0           0           0           0           3           0
 AtZEff=  -0.0000000  -0.0000000  -0.0000000  -0.0000000  -0.0000000  -0.0000000  -0.0000000  -0.0000000  -0.0000000  -0.0000000
 NQMom=    0.0000000   0.0000000   0.0000000   2.0440000   0.0000000   0.0000000   0.0000000   0.0000000  31.3000000   0.0000000
 NMagM=    0.0000000   0.0000000   0.0000000   0.4037610   0.0000000   0.0000000   0.0000000   0.0000000   2.1063990   0.0000000
 AtZNuc=   8.0000000   8.0000000   6.0000000   7.0000000   6.0000000   6.0000000   6.0000000   6.0000000  35.0000000   6.0000000

  Atom        31          32          33          34          35          36          37          38          39          40
 IAtWgt=          12          12          12          12          12          16          12          12          16          12
 AtmWgt=  12.0000000  12.0000000  12.0000000  12.0000000  12.0000000  15.9949146  12.0000000  12.0000000  15.9949146  12.0000000
 NucSpn=           0           0           0           0           0           0           0           0           0           0
 AtZEff=  -0.0000000  -0.0000000  -0.0000000  -0.0000000  -0.0000000  -0.0000000  -0.0000000  -0.0000000  -0.0000000  -0.0000000
 NQMom=    0.0000000   0.0000000   0.0000000   0.0000000   0.0000000   0.0000000   0.0000000   0.0000000   0.0000000   0.0000000
 NMagM=    0.0000000   0.0000000   0.0000000   0.0000000   0.0000000   0.0000000   0.0000000   0.0000000   0.0000000   0.0000000
 AtZNuc=   6.0000000   6.0000000   6.0000000   6.0000000   6.0000000   8.0000000   6.0000000   6.0000000   8.0000000   6.0000000

  Atom        41          42          43          44          45          46          47          48          49          50
 IAtWgt=          12          16          12          12          16          12          12          12          12          79
 AtmWgt=  12.0000000  15.9949146  12.0000000  12.0000000  15.9949146  12.0000000  12.0000000  12.0000000  12.0000000  78.9183361
 NucSpn=           0           0           0           0           0           0           0           0           0           3
 AtZEff=  -0.0000000  -0.0000000  -0.0000000  -0.0000000  -0.0000000  -0.0000000  -0.0000000  -0.0000000  -0.0000000  -0.0000000
 NQMom=    0.0000000   0.0000000   0.0000000   0.0000000   0.0000000   0.0000000   0.0000000   0.0000000   0.0000000  31.3000000
 NMagM=    0.0000000   0.0000000   0.0000000   0.0000000   0.0000000   0.0000000   0.0000000   0.0000000   0.0000000   2.1063990
 AtZNuc=   6.0000000   8.0000000   6.0000000   6.0000000   8.0000000   6.0000000   6.0000000   6.0000000   6.0000000  35.0000000

  Atom        51          52          53          54          55          56          57          58          59          60
 IAtWgt=          12          12          12          12          12          12          16          12          12          16
 AtmWgt=  12.0000000  12.0000000  12.0000000  12.0000000  12.0000000  12.0000000  15.9949146  12.0000000  12.0000000  15.9949146
 NucSpn=           0           0           0           0           0           0           0           0           0           0
 AtZEff=  -0.0000000  -0.0000000  -0.0000000  -0.0000000  -0.0000000  -0.0000000  -0.0000000  -0.0000000  -0.0000000  -0.0000000
 NQMom=    0.0000000   0.0000000   0.0000000   0.0000000   0.0000000   0.0000000   0.0000000   0.0000000   0.0000000   0.0000000
 NMagM=    0.0000000   0.0000000   0.0000000   0.0000000   0.0000000   0.0000000   0.0000000   0.0000000   0.0000000   0.0000000
 AtZNuc=   6.0000000   6.0000000   6.0000000   6.0000000   6.0000000   6.0000000   8.0000000   6.0000000   6.0000000   8.0000000

  Atom        61          62          63          64          65          66          67          68          69          70
 IAtWgt=          12          12          16          12          12          16          12          12          12          19
 AtmWgt=  12.0000000  12.0000000  15.9949146  12.0000000  12.0000000  15.9949146  12.0000000  12.0000000  12.0000000  18.9984033
 NucSpn=           0           0           0           0           0           0           0           0           0           1
 AtZEff=  -0.0000000  -0.0000000  -0.0000000  -0.0000000  -0.0000000  -0.0000000  -0.0000000  -0.0000000  -0.0000000  -0.0000000
 NQMom=    0.0000000   0.0000000   0.0000000   0.0000000   0.0000000   0.0000000   0.0000000   0.0000000   0.0000000   0.0000000
 NMagM=    0.0000000   0.0000000   0.0000000   0.0000000   0.0000000   0.0000000   0.0000000   0.0000000   0.0000000   2.6288670
 AtZNuc=   6.0000000   6.0000000   8.0000000   6.0000000   6.0000000   8.0000000   6.0000000   6.0000000   6.0000000   9.0000000

  Atom        71          72          73          74          75          76          77          78          79          80
 IAtWgt=          19           1           1           1           1           1           1           1           1           1
 AtmWgt=  18.9984033   1.0078250   1.0078250   1.0078250   1.0078250   1.0078250   1.0078250   1.0078250   1.0078250   1.0078250
 NucSpn=           1           1           1           1           1           1           1           1           1           1
 AtZEff=  -0.0000000  -0.0000000  -0.0000000  -0.0000000  -0.0000000  -0.0000000  -0.0000000  -0.0000000  -0.0000000  -0.0000000
 NQMom=    0.0000000   0.0000000   0.0000000   0.0000000   0.0000000   0.0000000   0.0000000   0.0000000   0.0000000   0.0000000
 NMagM=    2.6288670   2.7928460   2.7928460   2.7928460   2.7928460   2.7928460   2.7928460   2.7928460   2.7928460   2.7928460
 AtZNuc=   9.0000000   1.0000000   1.0000000   1.0000000   1.0000000   1.0000000   1.0000000   1.0000000   1.0000000   1.0000000

  Atom        81          82          83          84          85          86          87          88          89          90
 IAtWgt=           1           1           1           1           1           1           1           1           1           1
 AtmWgt=   1.0078250   1.0078250   1.0078250   1.0078250   1.0078250   1.0078250   1.0078250   1.0078250   1.0078250   1.0078250
 NucSpn=           1           1           1           1           1           1           1           1           1           1
 AtZEff=  -0.0000000  -0.0000000  -0.0000000  -0.0000000  -0.0000000  -0.0000000  -0.0000000  -0.0000000  -0.0000000  -0.0000000
 NQMom=    0.0000000   0.0000000   0.0000000   0.0000000   0.0000000   0.0000000   0.0000000   0.0000000   0.0000000   0.0000000
 NMagM=    2.7928460   2.7928460   2.7928460   2.7928460   2.7928460   2.7928460   2.7928460   2.7928460   2.7928460   2.7928460
 AtZNuc=   1.0000000   1.0000000   1.0000000   1.0000000   1.0000000   1.0000000   1.0000000   1.0000000   1.0000000   1.0000000

  Atom        91          92          93          94          95          96          97          98          99         100
 IAtWgt=           1           1           1           1           1           1           1           1           1           1
 AtmWgt=   1.0078250   1.0078250   1.0078250   1.0078250   1.0078250   1.0078250   1.0078250   1.0078250   1.0078250   1.0078250
 NucSpn=           1           1           1           1           1           1           1           1           1           1
 AtZEff=  -0.0000000  -0.0000000  -0.0000000  -0.0000000  -0.0000000  -0.0000000  -0.0000000  -0.0000000  -0.0000000  -0.0000000
 NQMom=    0.0000000   0.0000000   0.0000000   0.0000000   0.0000000   0.0000000   0.0000000   0.0000000   0.0000000   0.0000000
 NMagM=    2.7928460   2.7928460   2.7928460   2.7928460   2.7928460   2.7928460   2.7928460   2.7928460   2.7928460   2.7928460
 AtZNuc=   1.0000000   1.0000000   1.0000000   1.0000000   1.0000000   1.0000000   1.0000000   1.0000000   1.0000000   1.0000000

  Atom       101         102         103         104         105         106         107         108         109         110
 IAtWgt=           1           1           1           1           1           1           1           1           1           1
 AtmWgt=   1.0078250   1.0078250   1.0078250   1.0078250   1.0078250   1.0078250   1.0078250   1.0078250   1.0078250   1.0078250
 NucSpn=           1           1           1           1           1           1           1           1           1           1
 AtZEff=  -0.0000000  -0.0000000  -0.0000000  -0.0000000  -0.0000000  -0.0000000  -0.0000000  -0.0000000  -0.0000000  -0.0000000
 NQMom=    0.0000000   0.0000000   0.0000000   0.0000000   0.0000000   0.0000000   0.0000000   0.0000000   0.0000000   0.0000000
 NMagM=    2.7928460   2.7928460   2.7928460   2.7928460   2.7928460   2.7928460   2.7928460   2.7928460   2.7928460   2.7928460
 AtZNuc=   1.0000000   1.0000000   1.0000000   1.0000000   1.0000000   1.0000000   1.0000000   1.0000000   1.0000000   1.0000000

  Atom       111         112         113         114         115         116         117         118         119         120
 IAtWgt=           1           1           1           1           1           1           1           1           1           1
 AtmWgt=   1.0078250   1.0078250   1.0078250   1.0078250   1.0078250   1.0078250   1.0078250   1.0078250   1.0078250   1.0078250
 NucSpn=           1           1           1           1           1           1           1           1           1           1
 AtZEff=  -0.0000000  -0.0000000  -0.0000000  -0.0000000  -0.0000000  -0.0000000  -0.0000000  -0.0000000  -0.0000000  -0.0000000
 NQMom=    0.0000000   0.0000000   0.0000000   0.0000000   0.0000000   0.0000000   0.0000000   0.0000000   0.0000000   0.0000000
 NMagM=    2.7928460   2.7928460   2.7928460   2.7928460   2.7928460   2.7928460   2.7928460   2.7928460   2.7928460   2.7928460
 AtZNuc=   1.0000000   1.0000000   1.0000000   1.0000000   1.0000000   1.0000000   1.0000000   1.0000000   1.0000000   1.0000000

  Atom       121         122         123         124
 IAtWgt=           1           1           1           1
 AtmWgt=   1.0078250   1.0078250   1.0078250   1.0078250
 NucSpn=           1           1           1           1
 AtZEff=  -0.0000000  -0.0000000  -0.0000000  -0.0000000
 NQMom=    0.0000000   0.0000000   0.0000000   0.0000000
 NMagM=    2.7928460   2.7928460   2.7928460   2.7928460
 AtZNuc=   1.0000000   1.0000000   1.0000000   1.0000000
 Leave Link  101 at Tue Oct 28 16:25:29 2025, MaxMem= 30870077440 cpu:               4.7 elap:               0.1
 (Enter /public/software/gauss/g16/l202.exe)
 Stoichiometry    C49H53BBr2F2N4O13
 Framework group  C1[X(C49H53BBr2F2N4O13)]
 Deg. of freedom   366
 Full point group                 C1      NOp   1
 Largest Abelian subgroup         C1      NOp   1
 Largest concise Abelian subgroup C1      NOp   1
                         Standard orientation:                         
 ---------------------------------------------------------------------
 Center     Atomic      Atomic             Coordinates (Angstroms)
 Number     Number       Type             X           Y           Z
 ---------------------------------------------------------------------
      1          5           0        1.703682   -0.515022   -0.016290
      2          7           0        2.719238    0.600027   -0.385451
      3          6           0        2.383363    1.840965   -0.844678
      4          6           0        3.597951    2.582520   -0.949469
      5          6           0        4.670514    1.795832   -0.552682
      6          6           0        4.096767    0.531344   -0.186699
      7          6           0        4.684772   -0.646133    0.308282
      8          6           0        6.199909   -0.697519    0.419145
      9          8           0        6.775834   -0.232931    1.386211
     10          6           0        6.931006   -1.345571   -0.757446
     11          6           0        8.332583   -0.833453   -0.986852
     12          6           0        9.393084   -0.910150   -0.062694
     13          7           0        9.269505   -1.649497    1.198044
     14          8           0        8.604393   -2.685669    1.198082
     15          8           0        9.872911   -1.218294    2.180367
     16          6           0       10.638789   -0.336723   -0.293231
     17          6           0       10.845382    0.303191   -1.507392
     18          6           0        9.843579    0.393415   -2.470597
     19          6           0        8.601126   -0.164269   -2.191250
     20          7           0       12.155672    0.895110   -1.774817
     21          8           0       13.026010    0.801613   -0.906440
     22          8           0       12.325753    1.460311   -2.857112
     23          6           0        3.904229   -1.762527    0.656896
     24          7           0        2.526510   -1.749648    0.441270
     25          6           0        1.986198   -2.933669    0.858307
     26          6           0        3.063182   -3.721251    1.359667
     27          6           0        4.255819   -3.019263    1.251203
     28          6           0        5.595977   -3.511001    1.692403
     29         35           0        2.954418   -5.499187    1.998512
     30          6           0        0.578842   -3.196097    0.705614
     31          6           0       -0.144168   -4.146983    1.353011
     32          6           0       -1.566820   -4.404504    1.184765
     33          6           0       -2.177737   -5.389850    1.991719
     34          6           0       -3.528898   -5.679943    1.883357
     35          6           0       -4.324011   -4.989219    0.954639
     36          8           0       -5.639659   -5.361210    0.917102
     37          6           0       -6.553165   -4.703512    0.023013
     38          6           0       -7.062056   -3.391287    0.626058
     39          8           0       -7.975351   -2.735536   -0.247350
     40          6           0       -9.308949   -3.261196   -0.259598
     41          6           0       -9.625820   -3.821217   -1.647968
     42          8           0      -10.962761   -4.306627   -1.736609
     43          6           0      -11.938699   -3.293028   -1.983140
     44          6           0      -13.294163   -3.958330   -2.153146
     45          8           0      -13.367538   -4.860230   -3.254612
     46          6           0      -13.465326   -4.213488   -4.518276
     47          6           0       -3.741021   -4.005232    0.138835
     48          6           0       -2.384539   -3.725982    0.257877
     49          6           0        6.103808    2.219500   -0.517606
     50         35           0        3.769825    4.343565   -1.623702
     51          6           0        1.016494    2.168644   -1.158239
     52          6           0        0.487798    3.416774   -1.251418
     53          6           0       -0.895212    3.744666   -1.562490
     54          6           0       -1.887236    2.782733   -1.865649
     55          6           0       -3.187370    3.163098   -2.147004
     56          6           0       -3.552788    4.523111   -2.139257
     57          8           0       -4.859136    4.775193   -2.447860
     58          6           0       -5.354003    6.126546   -2.445507
     59          6           0       -5.707645    6.620539   -1.056291
     60          8           0       -6.785271    5.829281   -0.558567
     61          6           0       -7.174460    6.159185    0.775509
     62          6           0       -6.340966    5.387158    1.804262
     63          8           0       -6.801168    5.603915    3.136096
     64          6           0       -6.335392    6.817207    3.728346
     65          6           0       -6.745202    6.827431    5.191676
     66          8           0       -6.180648    5.768900    5.961627
     67          6           0       -4.811428    5.969227    6.292879
     68          6           0       -2.588377    5.495879   -1.841932
     69          6           0       -1.283422    5.098299   -1.561768
     70          9           0        0.930378   -0.844505   -1.143511
     71          9           0        0.862758   -0.084837    1.012307
     72          1           0        6.932043   -2.424003   -0.560358
     73          1           0        6.338014   -1.194616   -1.661982
     74          1           0       11.426390   -0.407919    0.444528
     75          1           0       10.029634    0.896417   -3.410904
     76          1           0        7.808080   -0.078213   -2.926093
     77          1           0        6.239619   -2.703157    2.037286
     78          1           0        5.482843   -4.218767    2.517404
     79          1           0        6.116128   -4.038781    0.884491
     80          1           0        0.075562   -2.535757    0.009185
     81          1           0        0.342987   -4.780582    2.086804
     82          1           0       -1.572959   -5.931047    2.714422
     83          1           0       -3.990894   -6.439166    2.506213
     84          1           0       -6.096267   -4.534086   -0.956742
     85          1           0       -7.376796   -5.410381   -0.101725
     86          1           0       -7.521916   -3.589789    1.603114
     87          1           0       -6.230666   -2.696676    0.777666
     88          1           0       -9.431774   -4.045346    0.496204
     89          1           0       -9.995115   -2.442832   -0.010984
     90          1           0       -9.439750   -3.051013   -2.409951
     91          1           0       -8.969431   -4.671829   -1.859556
     92          1           0      -12.008101   -2.586607   -1.143934
     93          1           0      -11.661326   -2.717069   -2.877696
     94          1           0      -13.515621   -4.554834   -1.261853
     95          1           0      -14.061775   -3.175073   -2.241478
     96          1           0      -13.605443   -4.996584   -5.267988
     97          1           0      -14.325642   -3.529536   -4.551089
     98          1           0      -12.559673   -3.646893   -4.771356
     99          1           0       -4.331372   -3.454996   -0.583476
    100          1           0       -1.959469   -2.963924   -0.387514
    101          1           0        6.520483    2.140806    0.489691
    102          1           0        6.724187    1.612661   -1.183498
    103          1           0        6.198318    3.257373   -0.840780
    104          1           0        0.371763    1.309244   -1.300661
    105          1           0        1.119821    4.277688   -1.059863
    106          1           0       -1.638556    1.726446   -1.883333
    107          1           0       -3.946382    2.423307   -2.380614
    108          1           0       -4.640353    6.805493   -2.921572
    109          1           0       -6.255717    6.088731   -3.061532
    110          1           0       -4.837935    6.568045   -0.389924
    111          1           0       -6.008790    7.676460   -1.132867
    112          1           0       -7.103923    7.242674    0.938472
    113          1           0       -8.225497    5.869681    0.878600
    114          1           0       -6.444799    4.314748    1.609060
    115          1           0       -5.276459    5.646376    1.720233
    116          1           0       -5.243907    6.891816    3.619816
    117          1           0       -6.776803    7.699170    3.242512
    118          1           0       -6.483709    7.804463    5.624602
    119          1           0       -7.830997    6.702658    5.261159
    120          1           0       -4.518153    5.146558    6.950253
    121          1           0       -4.159469    5.958775    5.409630
    122          1           0       -4.664176    6.920670    6.823986
    123          1           0       -2.836725    6.549616   -1.822026
    124          1           0       -0.541869    5.858669   -1.331947
 ---------------------------------------------------------------------
 Rotational constants (GHZ):           0.0229810           0.0093764           0.0075737
 Leave Link  202 at Tue Oct 28 16:25:29 2025, MaxMem= 30870077440 cpu:               0.2 elap:               0.0
 (Enter /public/software/gauss/g16/l301.exe)
 Standard basis: def2TZVPP (5D, 7F)
 Ernie: Thresh=  0.10000D-02 Tol=  0.10000D-05 Strict=F.
 There are  3389 symmetry adapted cartesian basis functions of A   symmetry.
 There are  2977 symmetry adapted basis functions of A   symmetry.
  2977 basis functions,  4648 primitive gaussians,  3389 cartesian basis functions
   286 alpha electrons      286 beta electrons
       nuclear repulsion energy     11988.2966656082 Hartrees.
 IExCor= 4336 DFT=T Ex+Corr=M062X ExCW=0 ScaHFX=  0.540000
 ScaDFX=  1.000000  1.000000  1.000000  1.000000 ScalE2=  1.000000  1.000000
 IRadAn=      5 IRanWt=     -1 IRanGd=            0 ICorTp=0 IEmpDi=131
 NAtoms=  124 NActive=  124 NUniq=  124 SFac= 1.00D+00 NAtFMM=   60 NAOKFM=T Big=T
 Integral buffers will be    131072 words long.
 Raffenetti 2 integral format.
 Two-electron integral symmetry is turned on.
 R6Disp:  Grimme-D3 Dispersion energy=       -0.0106268533 Hartrees.
 Nuclear repulsion after empirical dispersion term =    11988.2860387549 Hartrees.
 ------------------------------------------------------------------------------
 Polarizable Continuum Model (PCM)
 =================================
 Model                : PCM.
 Atomic radii         : UFF (Universal Force Field).
 Polarization charges : Total charges.
 Charge compensation  : None.
 Solution method      : On-the-fly selection.
 Cavity type          : Scaled VdW (van der Waals Surface) (Alpha=1.100).
 Cavity algorithm     : GePol (No added spheres)
                        Default sphere list used, NSphG=  124.
                        Lebedev-Laikov grids with approx.  5.0 points / Ang**2.
                        Smoothing algorithm: York/Karplus (Gamma=1.0000).
                        Polarization charges: spherical gaussians, with
                                              point-specific exponents (IZeta= 3).
                        Self-potential: point-specific (ISelfS= 7).
                        Self-field    : sphere-specific E.n sum rule (ISelfD= 2).
 Solvent              : Water, Eps=  78.355300 Eps(inf)=   1.777849
 ------------------------------------------------------------------------------
 GePol: Number of generator spheres                  =     124
 GePol: Total number of spheres                      =     124
 GePol: Number of exposed spheres                    =     124 (100.00%)
 GePol: Number of points                             =    8972
 GePol: Average weight of points                     =       0.13
 GePol: Minimum weight of points                     =   0.16D-10
 GePol: Maximum weight of points                     =    0.20577
 GePol: Number of points with low weight             =     606
 GePol: Fraction of low-weight points (<1% of avg)   =       6.75%
 GePol: Cavity surface area                          =   1142.543 Ang**2
 GePol: Cavity volume                                =   1322.705 Ang**3
 Leave Link  301 at Tue Oct 28 16:25:29 2025, MaxMem= 30870077440 cpu:               5.8 elap:               0.1
 (Enter /public/software/gauss/g16/l302.exe)
 NPDir=0 NMtPBC=     1 NCelOv=     1 NCel=       1 NClECP=     1 NCelD=      1
         NCelK=      1 NCelE2=     1 NClLst=     1 CellRange=     0.0.
 One-electron integrals computed using PRISM.
 One-electron integral symmetry used in STVInt
   1 Symmetry operations used in ECPInt.
 ECPInt:  NShTT=  615495 NPrTT= 1773712 LenC2=  266816 LenP2D=  498160.
 LDataN:  DoStor=T MaxTD1= 6 Len=  172
 Number of processors reduced to  56 by ecpmxn.
 NBasis=  2977 RedAO= T EigKep=  4.26D-06  NBF=  2977
 NBsUse=  2977 1.00D-06 EigRej= -1.00D+00 NBFU=  2977
 Precomputing XC quadrature grid using
 IXCGrd= 4 IRadAn=           5 IRanWt=          -1 IRanGd=           0 AccXCQ= 0.00D+00.
 Generated NRdTot=       0 NPtTot=           0 NUsed=           0 NTot=          32
 NSgBfM=  2496  2496  2496  2496  2496 MxSgAt=   124 MxSgA2=   124.
 Leave Link  302 at Tue Oct 28 16:26:03 2025, MaxMem= 30870077440 cpu:            2110.3 elap:              33.2
 (Enter /public/software/gauss/g16/l303.exe)
 DipDrv:  MaxL=1.
 Leave Link  303 at Tue Oct 28 16:26:04 2025, MaxMem= 30870077440 cpu:              61.7 elap:               1.1
 (Enter /public/software/gauss/g16/l401.exe)
 ExpMin= 6.06D-02 ExpMax= 5.65D+05 ExpMxC= 5.46D+03 IAcc=3 IRadAn=         5 AccDes= 0.00D+00
 Harris functional with IExCor= 1009 and IRadAn=       5 diagonalized for initial guess.
 HarFok:  IExCor= 1009 AccDes= 0.00D+00 IRadAn=         5 IDoV= 1 UseB2=F ITyADJ=14
 ICtDFT=  3500011 ScaDFX=  1.000000  1.000000  1.000000  1.000000
 FoFCou: FMM=F IPFlag=           0 FMFlag=      100000 FMFlg1=        2001
         NFxFlg=           0 DoJE=T BraDBF=F KetDBF=T FulRan=T
         wScrn=  0.000000 ICntrl=       500 IOpCl=  0 I1Cent=   200000004 NGrid=           0
         NMat0=    1 NMatS0=      1 NMatT0=    0 NMatD0=    1 NMtDS0=    0 NMtDT0=    0
 Petite list used in FoFCou.
 Harris En= -8466.26743145515    
 JPrj=0 DoOrth=F DoCkMO=F.
 Leave Link  401 at Tue Oct 28 16:26:29 2025, MaxMem= 30870077440 cpu:            1603.5 elap:              25.2
 (Enter /public/software/gauss/g16/l502.exe)
 Integral symmetry usage will be decided dynamically.
 Closed shell SCF:
 Using DIIS extrapolation, IDIIS=  1040.
 NGot= 30870077440 LenX= 30846861466 LenY= 30835372756
 Requested convergence on RMS density matrix=1.00D-08 within 128 cycles.
 Requested convergence on MAX density matrix=1.00D-06.
 Requested convergence on             energy=1.00D-06.
 No special actions if energy rises.
 Fock matrices will be formed incrementally for  20 cycles.

 Cycle   1  Pass 1  IDiag  1:
 FoFJK:  IHMeth= 1 ICntrl=       0 DoSepK=F KAlg= 0 I1Cent=           0 FoldK=F
 IRaf= 390000000 NMat=       1 IRICut=       1 DoRegI=T DoRafI=F ISym2E= 0 IDoP0=0 IntGTp=1.
 FoFCou: FMM=T IPFlag=           0 FMFlag=      100000 FMFlg1=        2001
         NFxFlg=           0 DoJE=F BraDBF=F KetDBF=F FulRan=T
         wScrn=  0.000000 ICntrl=         0 IOpCl=  0 I1Cent=           0 NGrid=           0
         NMat0=    1 NMatS0=      1 NMatT0=    0 NMatD0=    1 NMtDS0=    0 NMtDT0=    0
 Symmetry not used in FoFCou.
 FMM levels:  10  Number of levels for PrismC:   9
 Inv3:  Mode=1 IEnd=   241490352.
 Iteration    1 A*A^-1 deviation from unit magnitude is 1.74D-14 for   1097.
 Iteration    1 A*A^-1 deviation from orthogonality  is 7.92D-15 for   7765    129.
 Iteration    1 A^-1*A deviation from unit magnitude is 1.80D-14 for   1974.
 Iteration    1 A^-1*A deviation from orthogonality  is 7.80D-13 for   7088   7041.
 E= -8467.23203276034    
 DIIS: error= 1.95D-02 at cycle   1 NSaved=   1.
 NSaved= 1 IEnMin= 1 EnMin= -8467.23203276034     IErMin= 1 ErrMin= 1.95D-02
 ErrMax= 1.95D-02  0.00D+00 EMaxC= 1.00D-01 BMatC= 2.62D+00 BMatP= 2.62D+00
 IDIUse=3 WtCom= 8.05D-01 WtEn= 1.95D-01
 Coeff-Com:  0.100D+01
 Coeff-En:   0.100D+01
 Coeff:      0.100D+01
 Gap=     0.126 Goal=   None    Shift=    0.000
 GapD=    0.126 DampG=1.000 DampE=0.500 DampFc=0.5000 IDamp=-1.
 Damping current iteration by 5.00D-01
 RMSDP=1.51D-03 MaxDP=6.25D-01              OVMax= 2.59D-01

 Cycle   2  Pass 1  IDiag  1:
 RMSU=  7.56D-04    CP:  1.01D+00
 E= -8468.01369384524     Delta-E=       -0.781661084900 Rises=F Damp=T
 DIIS: error= 3.96D-03 at cycle   2 NSaved=   2.
 NSaved= 2 IEnMin= 2 EnMin= -8468.01369384524     IErMin= 2 ErrMin= 3.96D-03
 ErrMax= 3.96D-03  0.00D+00 EMaxC= 1.00D-01 BMatC= 2.60D-01 BMatP= 2.62D+00
 IDIUse=3 WtCom= 9.60D-01 WtEn= 3.96D-02
 Coeff-Com: -0.849D-01 0.108D+01
 Coeff-En:   0.000D+00 0.100D+01
 Coeff:     -0.816D-01 0.108D+01
 Gap=     0.182 Goal=   None    Shift=    0.000
 RMSDP=5.04D-04 MaxDP=1.39D-01 DE=-7.82D-01 OVMax= 2.01D-01

 Cycle   3  Pass 1  IDiag  1:
 RMSU=  4.99D-04    CP:  9.93D-01  1.04D+00
 E= -8468.74102590623     Delta-E=       -0.727332060986 Rises=F Damp=F
 DIIS: error= 7.93D-03 at cycle   3 NSaved=   3.
 NSaved= 3 IEnMin= 3 EnMin= -8468.74102590623     IErMin= 2 ErrMin= 3.96D-03
 ErrMax= 7.93D-03  0.00D+00 EMaxC= 1.00D-01 BMatC= 1.55D-01 BMatP= 2.60D-01
 IDIUse=3 WtCom= 9.21D-01 WtEn= 7.93D-02
 Coeff-Com: -0.126D+00 0.507D+00 0.619D+00
 Coeff-En:   0.000D+00 0.000D+00 0.100D+01
 Coeff:     -0.116D+00 0.467D+00 0.649D+00
 Gap=     0.124 Goal=   None    Shift=    0.000
 RMSDP=1.91D-04 MaxDP=6.09D-02 DE=-7.27D-01 OVMax= 7.65D-02

 Cycle   4  Pass 1  IDiag  1:
 RMSU=  1.67D-04    CP:  9.95D-01  1.14D+00  8.84D-01
 E= -8468.83609496858     Delta-E=       -0.095069062350 Rises=F Damp=F
 DIIS: error= 2.35D-03 at cycle   4 NSaved=   4.
 NSaved= 4 IEnMin= 4 EnMin= -8468.83609496858     IErMin= 4 ErrMin= 2.35D-03
 ErrMax= 2.35D-03  0.00D+00 EMaxC= 1.00D-01 BMatC= 2.42D-02 BMatP= 1.55D-01
 IDIUse=3 WtCom= 9.77D-01 WtEn= 2.35D-02
 Coeff-Com: -0.396D-01 0.992D-01 0.330D+00 0.611D+00
 Coeff-En:   0.000D+00 0.000D+00 0.120D+00 0.880D+00
 Coeff:     -0.387D-01 0.968D-01 0.325D+00 0.617D+00
 Gap=     0.129 Goal=   None    Shift=    0.000
 RMSDP=7.53D-05 MaxDP=2.26D-02 DE=-9.51D-02 OVMax= 2.27D-02

 Cycle   5  Pass 1  IDiag  1:
 RMSU=  3.81D-05    CP:  9.94D-01  1.11D+00  9.31D-01  6.60D-01
 E= -8468.85383177114     Delta-E=       -0.017736802558 Rises=F Damp=F
 DIIS: error= 2.35D-04 at cycle   5 NSaved=   5.
 NSaved= 5 IEnMin= 5 EnMin= -8468.85383177114     IErMin= 5 ErrMin= 2.35D-04
 ErrMax= 2.35D-04  0.00D+00 EMaxC= 1.00D-01 BMatC= 9.22D-04 BMatP= 2.42D-02
 IDIUse=3 WtCom= 9.98D-01 WtEn= 2.35D-03
 Coeff-Com: -0.118D-01 0.233D-01 0.126D+00 0.291D+00 0.571D+00
 Coeff-En:   0.000D+00 0.000D+00 0.000D+00 0.000D+00 0.100D+01
 Coeff:     -0.118D-01 0.232D-01 0.126D+00 0.291D+00 0.572D+00
 Gap=     0.128 Goal=   None    Shift=    0.000
 RMSDP=1.89D-05 MaxDP=6.77D-03 DE=-1.77D-02 OVMax= 6.52D-03

 Cycle   6  Pass 1  IDiag  1:
 RMSU=  1.45D-05    CP:  9.94D-01  1.12D+00  9.27D-01  6.98D-01  8.30D-01
 E= -8468.85452404480     Delta-E=       -0.000692273668 Rises=F Damp=F
 DIIS: error= 1.47D-04 at cycle   6 NSaved=   6.
 NSaved= 6 IEnMin= 6 EnMin= -8468.85452404480     IErMin= 6 ErrMin= 1.47D-04
 ErrMax= 1.47D-04  0.00D+00 EMaxC= 1.00D-01 BMatC= 1.46D-04 BMatP= 9.22D-04
 IDIUse=3 WtCom= 9.99D-01 WtEn= 1.47D-03
 Coeff-Com: -0.709D-03-0.104D-02 0.247D-01 0.772D-01 0.314D+00 0.586D+00
 Coeff-En:   0.000D+00 0.000D+00 0.000D+00 0.000D+00 0.735D-01 0.927D+00
 Coeff:     -0.708D-03-0.104D-02 0.247D-01 0.771D-01 0.314D+00 0.586D+00
 Gap=     0.129 Goal=   None    Shift=    0.000
 RMSDP=6.48D-06 MaxDP=1.55D-03 DE=-6.92D-04 OVMax= 3.74D-03

 Cycle   7  Pass 1  IDiag  1:
 RMSU=  5.33D-06    CP:  9.94D-01  1.12D+00  9.31D-01  6.94D-01  8.92D-01
                    CP:  9.15D-01
 E= -8468.85465261346     Delta-E=       -0.000128568659 Rises=F Damp=F
 DIIS: error= 4.43D-05 at cycle   7 NSaved=   7.
 NSaved= 7 IEnMin= 7 EnMin= -8468.85465261346     IErMin= 7 ErrMin= 4.43D-05
 ErrMax= 4.43D-05  0.00D+00 EMaxC= 1.00D-01 BMatC= 9.71D-06 BMatP= 1.46D-04
 IDIUse=1 WtCom= 1.00D+00 WtEn= 0.00D+00
 Coeff-Com:  0.117D-02-0.329D-02-0.517D-02-0.490D-02 0.581D-01 0.234D+00
 Coeff-Com:  0.720D+00
 Coeff:      0.117D-02-0.329D-02-0.517D-02-0.490D-02 0.581D-01 0.234D+00
 Coeff:      0.720D+00
 Gap=     0.129 Goal=   None    Shift=    0.000
 RMSDP=2.71D-06 MaxDP=5.01D-04 DE=-1.29D-04 OVMax= 1.49D-03

 Cycle   8  Pass 1  IDiag  1:
 RMSU=  2.12D-06    CP:  9.94D-01  1.12D+00  9.32D-01  6.96D-01  9.13D-01
                    CP:  1.00D+00  1.04D+00
 E= -8468.85466352253     Delta-E=       -0.000010909069 Rises=F Damp=F
 DIIS: error= 2.58D-05 at cycle   8 NSaved=   8.
 NSaved= 8 IEnMin= 8 EnMin= -8468.85466352253     IErMin= 8 ErrMin= 2.58D-05
 ErrMax= 2.58D-05  0.00D+00 EMaxC= 1.00D-01 BMatC= 2.00D-06 BMatP= 9.71D-06
 IDIUse=1 WtCom= 1.00D+00 WtEn= 0.00D+00
 Coeff-Com:  0.625D-03-0.129D-02-0.641D-02-0.158D-01-0.264D-01 0.868D-02
 Coeff-Com:  0.338D+00 0.702D+00
 Coeff:      0.625D-03-0.129D-02-0.641D-02-0.158D-01-0.264D-01 0.868D-02
 Coeff:      0.338D+00 0.702D+00
 Gap=     0.130 Goal=   None    Shift=    0.000
 RMSDP=1.45D-06 MaxDP=4.32D-04 DE=-1.09D-05 OVMax= 8.44D-04

 Cycle   9  Pass 1  IDiag  1:
 RMSU=  9.58D-07    CP:  9.94D-01  1.12D+00  9.33D-01  6.96D-01  9.28D-01
                    CP:  1.03D+00  1.16D+00  1.08D+00
 E= -8468.85466605101     Delta-E=       -0.000002528475 Rises=F Damp=F
 DIIS: error= 1.35D-05 at cycle   9 NSaved=   9.
 NSaved= 9 IEnMin= 9 EnMin= -8468.85466605101     IErMin= 9 ErrMin= 1.35D-05
 ErrMax= 1.35D-05  0.00D+00 EMaxC= 1.00D-01 BMatC= 3.44D-07 BMatP= 2.00D-06
 IDIUse=1 WtCom= 1.00D+00 WtEn= 0.00D+00
 Coeff-Com:  0.180D-03-0.280D-03-0.261D-02-0.756D-02-0.199D-01-0.211D-01
 Coeff-Com:  0.858D-01 0.347D+00 0.618D+00
 Coeff:      0.180D-03-0.280D-03-0.261D-02-0.756D-02-0.199D-01-0.211D-01
 Coeff:      0.858D-01 0.347D+00 0.618D+00
 Gap=     0.130 Goal=   None    Shift=    0.000
 RMSDP=4.95D-07 MaxDP=1.28D-04 DE=-2.53D-06 OVMax= 3.98D-04

 Cycle  10  Pass 1  IDiag  1:
 RMSU=  3.64D-07    CP:  9.94D-01  1.12D+00  9.33D-01  6.96D-01  9.29D-01
                    CP:  1.04D+00  1.19D+00  1.20D+00  1.01D+00
 E= -8468.85466645514     Delta-E=       -0.000000404132 Rises=F Damp=F
 DIIS: error= 6.58D-06 at cycle  10 NSaved=  10.
 NSaved=10 IEnMin=10 EnMin= -8468.85466645514     IErMin=10 ErrMin= 6.58D-06
 ErrMax= 6.58D-06  0.00D+00 EMaxC= 1.00D-01 BMatC= 7.87D-08 BMatP= 3.44D-07
 IDIUse=1 WtCom= 1.00D+00 WtEn= 0.00D+00
 Coeff-Com: -0.511D-04 0.154D-03 0.170D-03-0.187D-03-0.434D-02-0.122D-01
 Coeff-Com: -0.370D-01 0.852D-02 0.337D+00 0.707D+00
 Coeff:     -0.511D-04 0.154D-03 0.170D-03-0.187D-03-0.434D-02-0.122D-01
 Coeff:     -0.370D-01 0.852D-02 0.337D+00 0.707D+00
 Gap=     0.130 Goal=   None    Shift=    0.000
 RMSDP=2.81D-07 MaxDP=6.11D-05 DE=-4.04D-07 OVMax= 2.37D-04

 Cycle  11  Pass 1  IDiag  1:
 RMSU=  1.49D-07    CP:  9.94D-01  1.12D+00  9.33D-01  6.96D-01  9.30D-01
                    CP:  1.05D+00  1.20D+00  1.25D+00  1.19D+00  1.05D+00
 E= -8468.85466656972     Delta-E=       -0.000000114582 Rises=F Damp=F
 DIIS: error= 1.65D-06 at cycle  11 NSaved=  11.
 NSaved=11 IEnMin=11 EnMin= -8468.85466656972     IErMin=11 ErrMin= 1.65D-06
 ErrMax= 1.65D-06  0.00D+00 EMaxC= 1.00D-01 BMatC= 9.75D-09 BMatP= 7.87D-08
 IDIUse=1 WtCom= 1.00D+00 WtEn= 0.00D+00
 Coeff-Com: -0.494D-04 0.109D-03 0.503D-03 0.120D-02 0.112D-02-0.163D-02
 Coeff-Com: -0.298D-01-0.541D-01 0.504D-01 0.313D+00 0.719D+00
 Coeff:     -0.494D-04 0.109D-03 0.503D-03 0.120D-02 0.112D-02-0.163D-02
 Coeff:     -0.298D-01-0.541D-01 0.504D-01 0.313D+00 0.719D+00
 Gap=     0.130 Goal=   None    Shift=    0.000
 RMSDP=1.36D-07 MaxDP=4.56D-05 DE=-1.15D-07 OVMax= 9.48D-05

 Cycle  12  Pass 1  IDiag  1:
 RMSU=  6.24D-08    CP:  9.94D-01  1.12D+00  9.33D-01  6.96D-01  9.30D-01
                    CP:  1.05D+00  1.20D+00  1.28D+00  1.25D+00  1.19D+00
                    CP:  1.11D+00
 E= -8468.85466658392     Delta-E=       -0.000000014199 Rises=F Damp=F
 DIIS: error= 3.76D-07 at cycle  12 NSaved=  12.
 NSaved=12 IEnMin=12 EnMin= -8468.85466658392     IErMin=12 ErrMin= 3.76D-07
 ErrMax= 3.76D-07  0.00D+00 EMaxC= 1.00D-01 BMatC= 1.46D-09 BMatP= 9.75D-09
 IDIUse=1 WtCom= 1.00D+00 WtEn= 0.00D+00
 Coeff-Com: -0.167D-04 0.309D-04 0.210D-03 0.594D-03 0.970D-03 0.954D-03
 Coeff-Com: -0.880D-02-0.267D-01-0.212D-01 0.440D-01 0.313D+00 0.697D+00
 Coeff:     -0.167D-04 0.309D-04 0.210D-03 0.594D-03 0.970D-03 0.954D-03
 Coeff:     -0.880D-02-0.267D-01-0.212D-01 0.440D-01 0.313D+00 0.697D+00
 Gap=     0.130 Goal=   None    Shift=    0.000
 RMSDP=3.61D-08 MaxDP=6.76D-06 DE=-1.42D-08 OVMax= 3.43D-05

 Cycle  13  Pass 1  IDiag  1:
 RMSU=  2.16D-08    CP:  9.94D-01  1.12D+00  9.33D-01  6.96D-01  9.30D-01
                    CP:  1.05D+00  1.20D+00  1.28D+00  1.27D+00  1.22D+00
                    CP:  1.21D+00  1.12D+00
 E= -8468.85466658538     Delta-E=       -0.000000001462 Rises=F Damp=F
 DIIS: error= 1.75D-07 at cycle  13 NSaved=  13.
 NSaved=13 IEnMin=13 EnMin= -8468.85466658538     IErMin=13 ErrMin= 1.75D-07
 ErrMax= 1.75D-07  0.00D+00 EMaxC= 1.00D-01 BMatC= 2.16D-10 BMatP= 1.46D-09
 IDIUse=1 WtCom= 1.00D+00 WtEn= 0.00D+00
 Coeff-Com:  0.243D-05-0.731D-05-0.106D-04 0.234D-04 0.166D-03 0.851D-03
 Coeff-Com:  0.183D-02-0.151D-02-0.166D-01-0.395D-01-0.816D-02 0.265D+00
 Coeff-Com:  0.798D+00
 Coeff:      0.243D-05-0.731D-05-0.106D-04 0.234D-04 0.166D-03 0.851D-03
 Coeff:      0.183D-02-0.151D-02-0.166D-01-0.395D-01-0.816D-02 0.265D+00
 Coeff:      0.798D+00
 Gap=     0.130 Goal=   None    Shift=    0.000
 RMSDP=2.09D-08 MaxDP=4.82D-06 DE=-1.46D-09 OVMax= 1.37D-05

 Cycle  14  Pass 1  IDiag  1:
 RMSU=  7.87D-09    CP:  9.94D-01  1.12D+00  9.33D-01  6.96D-01  9.30D-01
                    CP:  1.05D+00  1.20D+00  1.29D+00  1.28D+00  1.24D+00
                    CP:  1.27D+00  1.28D+00  1.09D+00
 E= -8468.85466658712     Delta-E=       -0.000000001735 Rises=F Damp=F
 DIIS: error= 1.02D-07 at cycle  14 NSaved=  14.
 NSaved=14 IEnMin=14 EnMin= -8468.85466658712     IErMin=14 ErrMin= 1.02D-07
 ErrMax= 1.02D-07  0.00D+00 EMaxC= 1.00D-01 BMatC= 4.45D-11 BMatP= 2.16D-10
 IDIUse=1 WtCom= 1.00D+00 WtEn= 0.00D+00
 Coeff-Com:  0.326D-05-0.730D-05-0.337D-04-0.658D-04-0.596D-04 0.299D-03
 Coeff-Com:  0.204D-02 0.285D-02-0.409D-02-0.233D-01-0.447D-01 0.239D-01
 Coeff-Com:  0.365D+00 0.678D+00
 Coeff:      0.326D-05-0.730D-05-0.337D-04-0.658D-04-0.596D-04 0.299D-03
 Coeff:      0.204D-02 0.285D-02-0.409D-02-0.233D-01-0.447D-01 0.239D-01
 Coeff:      0.365D+00 0.678D+00
 Gap=     0.130 Goal=   None    Shift=    0.000
 RMSDP=5.63D-09 MaxDP=2.25D-06 DE=-1.74D-09 OVMax= 3.13D-06

 Cycle  15  Pass 1  IDiag  1:
 RMSU=  3.65D-09    CP:  9.94D-01  1.12D+00  9.33D-01  6.96D-01  9.30D-01
                    CP:  1.05D+00  1.20D+00  1.29D+00  1.28D+00  1.24D+00
                    CP:  1.28D+00  1.30D+00  1.21D+00  1.10D+00
 E= -8468.85466658742     Delta-E=       -0.000000000306 Rises=F Damp=F
 DIIS: error= 5.19D-08 at cycle  15 NSaved=  15.
 NSaved=15 IEnMin=15 EnMin= -8468.85466658742     IErMin=15 ErrMin= 5.19D-08
 ErrMax= 5.19D-08  0.00D+00 EMaxC= 1.00D-01 BMatC= 8.74D-12 BMatP= 4.45D-11
 IDIUse=1 WtCom= 1.00D+00 WtEn= 0.00D+00
 Coeff-Com:  0.688D-06-0.129D-05-0.116D-04-0.295D-04-0.640D-04-0.429D-04
 Coeff-Com:  0.489D-03 0.153D-02 0.173D-02-0.243D-02-0.188D-01-0.463D-01
 Coeff-Com: -0.757D-03 0.313D+00 0.752D+00
 Coeff:      0.688D-06-0.129D-05-0.116D-04-0.295D-04-0.640D-04-0.429D-04
 Coeff:      0.489D-03 0.153D-02 0.173D-02-0.243D-02-0.188D-01-0.463D-01
 Coeff:     -0.757D-03 0.313D+00 0.752D+00
 Gap=     0.130 Goal=   None    Shift=    0.000
 RMSDP=3.09D-09 MaxDP=4.99D-07 DE=-3.06D-10 OVMax= 2.11D-06

 Error on total polarization charges =  0.03054
 SCF Done:  E(RM062X) =  -8468.85466659     A.U. after   15 cycles
            NFock= 15  Conv=0.31D-08     -V/T= 2.0029
 KE= 8.444541487301D+03 PE=-4.403502884611D+04 EE= 1.513334665347D+04
 Leave Link  502 at Tue Oct 28 16:58:34 2025, MaxMem= 30870077440 cpu:          120561.1 elap:            1925.3
 (Enter /public/software/gauss/g16/l601.exe)
 Copying SCF densities to generalized density rwf, IOpCl= 0 IROHF=0.
 Hyperfine terms turned off by default for NAtoms > 100.

 **********************************************************************

            Population analysis using the SCF density.

 **********************************************************************

 Orbital symmetries:
       Occupied  (A) (A) (A) (A) (A) (A) (A) (A) (A) (A) (A) (A)
                 (A) (A) (A) (A) (A) (A) (A) (A) (A) (A) (A) (A)
                 (A) (A) (A) (A) (A) (A) (A) (A) (A) (A) (A) (A)
                 (A) (A) (A) (A) (A) (A) (A) (A) (A) (A) (A) (A)
                 (A) (A) (A) (A) (A) (A) (A) (A) (A) (A) (A) (A)
                 (A) (A) (A) (A) (A) (A) (A) (A) (A) (A) (A) (A)
                 (A) (A) (A) (A) (A) (A) (A) (A) (A) (A) (A) (A)
                 (A) (A) (A) (A) (A) (A) (A) (A) (A) (A) (A) (A)
                 (A) (A) (A) (A) (A) (A) (A) (A) (A) (A) (A) (A)
                 (A) (A) (A) (A) (A) (A) (A) (A) (A) (A) (A) (A)
                 (A) (A) (A) (A) (A) (A) (A) (A) (A) (A) (A) (A)
                 (A) (A) (A) (A) (A) (A) (A) (A) (A) (A) (A) (A)
                 (A) (A) (A) (A) (A) (A) (A) (A) (A) (A) (A) (A)
                 (A) (A) (A) (A) (A) (A) (A) (A) (A) (A) (A) (A)
                 (A) (A) (A) (A) (A) (A) (A) (A) (A) (A) (A) (A)
                 (A) (A) (A) (A) (A) (A) (A) (A) (A) (A) (A) (A)
                 (A) (A) (A) (A) (A) (A) (A) (A) (A) (A) (A) (A)
                 (A) (A) (A) (A) (A) (A) (A) (A) (A) (A) (A) (A)
                 (A) (A) (A) (A) (A) (A) (A) (A) (A) (A) (A) (A)
                 (A) (A) (A) (A) (A) (A) (A) (A) (A) (A) (A) (A)
                 (A) (A) (A) (A) (A) (A) (A) (A) (A) (A) (A) (A)
                 (A) (A) (A) (A) (A) (A) (A) (A) (A) (A) (A) (A)
                 (A) (A) (A) (A) (A) (A) (A) (A) (A) (A) (A) (A)
                 (A) (A) (A) (A) (A) (A) (A) (A) (A) (A)
       Virtual   (A) (A) (A) (A) (A) (A) (A) (A) (A) (A) (A) (A)
                 (A) (A) (A) (A) (A) (A) (A) (A) (A) (A) (A) (A)
                 (A) (A) (A) (A) (A) (A) (A) (A) (A) (A) (A) (A)
                 (A) (A) (A) (A) (A) (A) (A) (A) (A) (A) (A) (A)
                 (A) (A) (A) (A) (A) (A) (A) (A) (A) (A) (A) (A)
                 (A) (A) (A) (A) (A) (A) (A) (A) (A) (A) (A) (A)
                 (A) (A) (A) (A) (A) (A) (A) (A) (A) (A) (A) (A)
                 (A) (A) (A) (A) (A) (A) (A) (A) (A) (A) (A) (A)
                 (A) (A) (A) (A) (A) (A) (A) (A) (A) (A) (A) (A)
                 (A) (A) (A) (A) (A) (A) (A) (A) (A) (A) (A) (A)
                 (A) (A) (A) (A) (A) (A) (A) (A) (A) (A) (A) (A)
                 (A) (A) (A) (A) (A) (A) (A) (A) (A) (A) (A) (A)
                 (A) (A) (A) (A) (A) (A) (A) (A) (A) (A) (A) (A)
                 (A) (A) (A) (A) (A) (A) (A) (A) (A) (A) (A) (A)
                 (A) (A) (A) (A) (A) (A) (A) (A) (A) (A) (A) (A)
                 (A) (A) (A) (A) (A) (A) (A) (A) (A) (A) (A) (A)
                 (A) (A) (A) (A) (A) (A) (A) (A) (A) (A) (A) (A)
                 (A) (A) (A) (A) (A) (A) (A) (A) (A) (A) (A) (A)
                 (A) (A) (A) (A) (A) (A) (A) (A) (A) (A) (A) (A)
                 (A) (A) (A) (A) (A) (A) (A) (A) (A) (A) (A) (A)
                 (A) (A) (A) (A) (A) (A) (A) (A) (A) (A) (A) (A)
                 (A) (A) (A) (A) (A) (A) (A) (A) (A) (A) (A) (A)
                 (A) (A) (A) (A) (A) (A) (A) (A) (A) (A) (A) (A)
                 (A) (A) (A) (A) (A) (A) (A) (A) (A) (A) (A) (A)
                 (A) (A) (A) (A) (A) (A) (A) (A) (A) (A) (A) (A)
                 (A) (A) (A) (A) (A) (A) (A) (A) (A) (A) (A) (A)
                 (A) (A) (A) (A) (A) (A) (A) (A) (A) (A) (A) (A)
                 (A) (A) (A) (A) (A) (A) (A) (A) (A) (A) (A) (A)
                 (A) (A) (A) (A) (A) (A) (A) (A) (A) (A) (A) (A)
                 (A) (A) (A) (A) (A) (A) (A) (A) (A) (A) (A) (A)
                 (A) (A) (A) (A) (A) (A) (A) (A) (A) (A) (A) (A)
                 (A) (A) (A) (A) (A) (A) (A) (A) (A) (A) (A) (A)
                 (A) (A) (A) (A) (A) (A) (A) (A) (A) (A) (A) (A)
                 (A) (A) (A) (A) (A) (A) (A) (A) (A) (A) (A) (A)
                 (A) (A) (A) (A) (A) (A) (A) (A) (A) (A) (A) (A)
                 (A) (A) (A) (A) (A) (A) (A) (A) (A) (A) (A) (A)
                 (A) (A) (A) (A) (A) (A) (A) (A) (A) (A) (A) (A)
                 (A) (A) (A) (A) (A) (A) (A) (A) (A) (A) (A) (A)
                 (A) (A) (A) (A) (A) (A) (A) (A) (A) (A) (A) (A)
                 (A) (A) (A) (A) (A) (A) (A) (A) (A) (A) (A) (A)
                 (A) (A) (A) (A) (A) (A) (A) (A) (A) (A) (A) (A)
                 (A) (A) (A) (A) (A) (A) (A) (A) (A) (A) (A) (A)
                 (A) (A) (A) (A) (A) (A) (A) (A) (A) (A) (A) (A)
                 (A) (A) (A) (A) (A) (A) (A) (A) (A) (A) (A) (A)
                 (A) (A) (A) (A) (A) (A) (A) (A) (A) (A) (A) (A)
                 (A) (A) (A) (A) (A) (A) (A) (A) (A) (A) (A) (A)
                 (A) (A) (A) (A) (A) (A) (A) (A) (A) (A) (A) (A)
                 (A) (A) (A) (A) (A) (A) (A) (A) (A) (A) (A) (A)
                 (A) (A) (A) (A) (A) (A) (A) (A) (A) (A) (A) (A)
                 (A) (A) (A) (A) (A) (A) (A) (A) (A) (A) (A) (A)
                 (A) (A) (A) (A) (A) (A) (A) (A) (A) (A) (A) (A)
                 (A) (A) (A) (A) (A) (A) (A) (A) (A) (A) (A) (A)
                 (A) (A) (A) (A) (A) (A) (A) (A) (A) (A) (A) (A)
                 (A) (A) (A) (A) (A) (A) (A) (A) (A) (A) (A) (A)
                 (A) (A) (A) (A) (A) (A) (A) (A) (A) (A) (A) (A)
                 (A) (A) (A) (A) (A) (A) (A) (A) (A) (A) (A) (A)
                 (A) (A) (A) (A) (A) (A) (A) (A) (A) (A) (A) (A)
                 (A) (A) (A) (A) (A) (A) (A) (A) (A) (A) (A) (A)
                 (A) (A) (A) (A) (A) (A) (A) (A) (A) (A) (A) (A)
                 (A) (A) (A) (A) (A) (A) (A) (A) (A) (A) (A) (A)
                 (A) (A) (A) (A) (A) (A) (A) (A) (A) (A) (A) (A)
                 (A) (A) (A) (A) (A) (A) (A) (A) (A) (A) (A) (A)
                 (A) (A) (A) (A) (A) (A) (A) (A) (A) (A) (A) (A)
                 (A) (A) (A) (A) (A) (A) (A) (A) (A) (A) (A) (A)
                 (A) (A) (A) (A) (A) (A) (A) (A) (A) (A) (A) (A)
                 (A) (A) (A) (A) (A) (A) (A) (A) (A) (A) (A) (A)
                 (A) (A) (A) (A) (A) (A) (A) (A) (A) (A) (A) (A)
                 (A) (A) (A) (A) (A) (A) (A) (A) (A) (A) (A) (A)
                 (A) (A) (A) (A) (A) (A) (A) (A) (A) (A) (A) (A)
                 (A) (A) (A) (A) (A) (A) (A) (A) (A) (A) (A) (A)
                 (A) (A) (A) (A) (A) (A) (A) (A) (A) (A) (A) (A)
                 (A) (A) (A) (A) (A) (A) (A) (A) (A) (A) (A) (A)
                 (A) (A) (A) (A) (A) (A) (A) (A) (A) (A) (A) (A)
                 (A) (A) (A) (A) (A) (A) (A) (A) (A) (A) (A) (A)
                 (A) (A) (A) (A) (A) (A) (A) (A) (A) (A) (A) (A)
                 (A) (A) (A) (A) (A) (A) (A) (A) (A) (A) (A) (A)
                 (A) (A) (A) (A) (A) (A) (A) (A) (A) (A) (A) (A)
                 (A) (A) (A) (A) (A) (A) (A) (A) (A) (A) (A) (A)
                 (A) (A) (A) (A) (A) (A) (A) (A) (A) (A) (A) (A)
                 (A) (A) (A) (A) (A) (A) (A) (A) (A) (A) (A) (A)
                 (A) (A) (A) (A) (A) (A) (A) (A) (A) (A) (A) (A)
                 (A) (A) (A) (A) (A) (A) (A) (A) (A) (A) (A) (A)
                 (A) (A) (A) (A) (A) (A) (A) (A) (A) (A) (A) (A)
                 (A) (A) (A) (A) (A) (A) (A) (A) (A) (A) (A) (A)
                 (A) (A) (A) (A) (A) (A) (A) (A) (A) (A) (A) (A)
                 (A) (A) (A) (A) (A) (A) (A) (A) (A) (A) (A) (A)
                 (A) (A) (A) (A) (A) (A) (A) (A) (A) (A) (A) (A)
                 (A) (A) (A) (A) (A) (A) (A) (A) (A) (A) (A) (A)
                 (A) (A) (A) (A) (A) (A) (A) (A) (A) (A) (A) (A)
                 (A) (A) (A) (A) (A) (A) (A) (A) (A) (A) (A) (A)
                 (A) (A) (A) (A) (A) (A) (A) (A) (A) (A) (A) (A)
                 (A) (A) (A) (A) (A) (A) (A) (A) (A) (A) (A) (A)
                 (A) (A) (A) (A) (A) (A) (A) (A) (A) (A) (A) (A)
                 (A) (A) (A) (A) (A) (A) (A) (A) (A) (A) (A) (A)
                 (A) (A) (A) (A) (A) (A) (A) (A) (A) (A) (A) (A)
                 (A) (A) (A) (A) (A) (A) (A) (A) (A) (A) (A) (A)
                 (A) (A) (A) (A) (A) (A) (A) (A) (A) (A) (A) (A)
                 (A) (A) (A) (A) (A) (A) (A) (A) (A) (A) (A) (A)
                 (A) (A) (A) (A) (A) (A) (A) (A) (A) (A) (A) (A)
                 (A) (A) (A) (A) (A) (A) (A) (A) (A) (A) (A) (A)
                 (A) (A) (A) (A) (A) (A) (A) (A) (A) (A) (A) (A)
                 (A) (A) (A) (A) (A) (A) (A) (A) (A) (A) (A) (A)
                 (A) (A) (A) (A) (A) (A) (A) (A) (A) (A) (A) (A)
                 (A) (A) (A) (A) (A) (A) (A) (A) (A) (A) (A) (A)
                 (A) (A) (A) (A) (A) (A) (A) (A) (A) (A) (A) (A)
                 (A) (A) (A) (A) (A) (A) (A) (A) (A) (A) (A) (A)
                 (A) (A) (A) (A) (A) (A) (A) (A) (A) (A) (A) (A)
                 (A) (A) (A) (A) (A) (A) (A) (A) (A) (A) (A) (A)
                 (A) (A) (A) (A) (A) (A) (A) (A) (A) (A) (A) (A)
                 (A) (A) (A) (A) (A) (A) (A) (A) (A) (A) (A) (A)
                 (A) (A) (A) (A) (A) (A) (A) (A) (A) (A) (A) (A)
                 (A) (A) (A) (A) (A) (A) (A) (A) (A) (A) (A) (A)
                 (A) (A) (A) (A) (A) (A) (A) (A) (A) (A) (A) (A)
                 (A) (A) (A) (A) (A) (A) (A) (A) (A) (A) (A) (A)
                 (A) (A) (A) (A) (A) (A) (A) (A) (A) (A) (A) (A)
                 (A) (A) (A) (A) (A) (A) (A) (A) (A) (A) (A) (A)
                 (A) (A) (A) (A) (A) (A) (A) (A) (A) (A) (A) (A)
                 (A) (A) (A) (A) (A) (A) (A) (A) (A) (A) (A) (A)
                 (A) (A) (A) (A) (A) (A) (A) (A) (A) (A) (A) (A)
                 (A) (A) (A) (A) (A) (A) (A) (A) (A) (A) (A) (A)
                 (A) (A) (A) (A) (A) (A) (A) (A) (A) (A) (A) (A)
                 (A) (A) (A) (A) (A) (A) (A) (A) (A) (A) (A) (A)
                 (A) (A) (A) (A) (A) (A) (A) (A) (A) (A) (A) (A)
                 (A) (A) (A) (A) (A) (A) (A) (A) (A) (A) (A) (A)
                 (A) (A) (A) (A) (A) (A) (A) (A) (A) (A) (A) (A)
                 (A) (A) (A) (A) (A) (A) (A) (A) (A) (A) (A) (A)
                 (A) (A) (A) (A) (A) (A) (A) (A) (A) (A) (A) (A)
                 (A) (A) (A) (A) (A) (A) (A) (A) (A) (A) (A) (A)
                 (A) (A) (A) (A) (A) (A) (A) (A) (A) (A) (A) (A)
                 (A) (A) (A) (A) (A) (A) (A) (A) (A) (A) (A) (A)
                 (A) (A) (A) (A) (A) (A) (A) (A) (A) (A) (A) (A)
                 (A) (A) (A) (A) (A) (A) (A) (A) (A) (A) (A) (A)
                 (A) (A) (A) (A) (A) (A) (A) (A) (A) (A) (A) (A)
                 (A) (A) (A) (A) (A) (A) (A) (A) (A) (A) (A) (A)
                 (A) (A) (A) (A) (A) (A) (A) (A) (A) (A) (A) (A)
                 (A) (A) (A) (A) (A) (A) (A) (A) (A) (A) (A) (A)
                 (A) (A) (A) (A) (A) (A) (A) (A) (A) (A) (A) (A)
                 (A) (A) (A) (A) (A) (A) (A) (A) (A) (A) (A) (A)
                 (A) (A) (A) (A) (A) (A) (A) (A) (A) (A) (A) (A)
                 (A) (A) (A) (A) (A) (A) (A) (A) (A) (A) (A) (A)
                 (A) (A) (A) (A) (A) (A) (A) (A) (A) (A) (A) (A)
                 (A) (A) (A) (A) (A) (A) (A) (A) (A) (A) (A) (A)
                 (A) (A) (A) (A) (A) (A) (A) (A) (A) (A) (A) (A)
                 (A) (A) (A) (A) (A) (A) (A) (A) (A) (A) (A) (A)
                 (A) (A) (A) (A) (A) (A) (A) (A) (A) (A) (A) (A)
                 (A) (A) (A) (A) (A) (A) (A) (A) (A) (A) (A) (A)
                 (A) (A) (A) (A) (A) (A) (A) (A) (A) (A) (A) (A)
                 (A) (A) (A) (A) (A) (A) (A) (A) (A) (A) (A) (A)
                 (A) (A) (A) (A) (A) (A) (A) (A) (A) (A) (A) (A)
                 (A) (A) (A) (A) (A) (A) (A) (A) (A) (A) (A) (A)
                 (A) (A) (A) (A) (A) (A) (A) (A) (A) (A) (A) (A)
                 (A) (A) (A) (A) (A) (A) (A) (A) (A) (A) (A) (A)
                 (A) (A) (A) (A) (A) (A) (A) (A) (A) (A) (A) (A)
                 (A) (A) (A) (A) (A) (A) (A) (A) (A) (A) (A) (A)
                 (A) (A) (A) (A) (A) (A) (A) (A) (A) (A) (A) (A)
                 (A) (A) (A) (A) (A) (A) (A) (A) (A) (A) (A) (A)
                 (A) (A) (A) (A) (A) (A) (A) (A) (A) (A) (A) (A)
                 (A) (A) (A) (A) (A) (A) (A) (A) (A) (A) (A) (A)
                 (A) (A) (A) (A) (A) (A) (A) (A) (A) (A) (A) (A)
                 (A) (A) (A) (A) (A) (A) (A) (A) (A) (A) (A) (A)
                 (A) (A) (A) (A) (A) (A) (A) (A) (A) (A) (A) (A)
                 (A) (A) (A) (A) (A) (A) (A) (A) (A) (A) (A) (A)
                 (A) (A) (A) (A) (A) (A) (A) (A) (A) (A) (A) (A)
                 (A) (A) (A) (A) (A) (A) (A) (A) (A) (A) (A) (A)
                 (A) (A) (A) (A) (A) (A) (A) (A) (A) (A) (A) (A)
                 (A) (A) (A) (A) (A) (A) (A) (A) (A) (A) (A) (A)
                 (A) (A) (A) (A) (A) (A) (A) (A) (A) (A) (A) (A)
                 (A) (A) (A) (A) (A) (A) (A) (A) (A) (A) (A) (A)
                 (A) (A) (A) (A) (A) (A) (A) (A) (A) (A) (A) (A)
                 (A) (A) (A) (A) (A) (A) (A) (A) (A) (A) (A) (A)
                 (A) (A) (A) (A) (A) (A) (A) (A) (A) (A) (A) (A)
                 (A) (A) (A) (A) (A) (A) (A) (A) (A) (A) (A) (A)
                 (A) (A) (A) (A) (A) (A) (A) (A) (A) (A) (A) (A)
                 (A) (A) (A) (A) (A) (A) (A) (A) (A) (A) (A) (A)
                 (A) (A) (A) (A) (A) (A) (A) (A) (A) (A) (A) (A)
                 (A) (A) (A) (A) (A) (A) (A) (A) (A) (A) (A) (A)
                 (A) (A) (A) (A) (A) (A) (A) (A) (A) (A) (A) (A)
                 (A) (A) (A) (A) (A) (A) (A) (A) (A) (A) (A) (A)
                 (A) (A) (A) (A) (A) (A) (A) (A) (A) (A) (A) (A)
                 (A) (A) (A) (A) (A) (A) (A) (A) (A) (A) (A) (A)
                 (A) (A) (A) (A) (A) (A) (A) (A) (A) (A) (A) (A)
                 (A) (A) (A) (A) (A) (A) (A) (A) (A) (A) (A) (A)
                 (A) (A) (A) (A) (A) (A) (A) (A) (A) (A) (A) (A)
                 (A) (A) (A) (A) (A) (A) (A) (A) (A) (A) (A) (A)
                 (A) (A) (A) (A) (A) (A) (A) (A) (A) (A) (A) (A)
                 (A) (A) (A) (A) (A) (A) (A) (A) (A) (A) (A) (A)
                 (A) (A) (A) (A) (A) (A) (A) (A) (A) (A) (A) (A)
                 (A) (A) (A) (A) (A) (A) (A) (A) (A) (A) (A) (A)
                 (A) (A) (A) (A) (A) (A) (A) (A) (A) (A) (A) (A)
                 (A) (A) (A) (A) (A) (A) (A) (A) (A) (A) (A) (A)
                 (A) (A) (A) (A) (A) (A) (A) (A) (A) (A) (A) (A)
                 (A) (A) (A) (A) (A) (A) (A) (A) (A) (A) (A) (A)
                 (A) (A) (A) (A) (A) (A) (A) (A) (A) (A) (A) (A)
                 (A) (A) (A) (A) (A) (A) (A) (A) (A) (A) (A) (A)
                 (A) (A) (A) (A) (A) (A) (A) (A) (A) (A) (A) (A)
                 (A) (A) (A) (A) (A) (A) (A) (A) (A) (A) (A) (A)
                 (A) (A) (A) (A) (A) (A) (A) (A) (A) (A) (A) (A)
                 (A) (A) (A) (A) (A) (A) (A) (A) (A) (A) (A) (A)
                 (A) (A) (A) (A) (A) (A) (A) (A) (A) (A) (A) (A)
                 (A) (A) (A) (A) (A) (A) (A) (A) (A) (A) (A) (A)
                 (A) (A) (A) (A) (A) (A) (A) (A) (A) (A) (A) (A)
                 (A) (A) (A) (A) (A) (A) (A) (A) (A) (A) (A) (A)
                 (A) (A) (A) (A) (A) (A) (A) (A) (A) (A) (A) (A)
                 (A) (A) (A) (A) (A) (A) (A) (A) (A) (A) (A) (A)
                 (A) (A) (A) (A) (A) (A) (A) (A) (A) (A) (A) (A)
                 (A) (A) (A) (A) (A) (A) (A) (A) (A) (A) (A) (A)
                 (A) (A) (A) (A) (A) (A) (A) (A) (A) (A) (A) (A)
                 (A) (A) (A) (A) (A) (A) (A) (A) (A) (A) (A) (A)
                 (A) (A) (A) (A) (A) (A) (A) (A) (A) (A) (A) (A)
                 (A) (A) (A) (A) (A) (A) (A) (A) (A) (A) (A) (A)
                 (A) (A) (A) (A) (A) (A) (A) (A) (A) (A) (A) (A)
                 (A) (A) (A) (A) (A) (A) (A) (A) (A) (A) (A) (A)
                 (A) (A) (A) (A) (A) (A) (A) (A) (A) (A) (A) (A)
                 (A) (A) (A) (A) (A) (A) (A) (A) (A) (A) (A) (A)
                 (A) (A) (A) (A) (A) (A) (A) (A) (A) (A) (A) (A)
                 (A) (A) (A) (A) (A) (A) (A) (A) (A) (A) (A) (A)
                 (A) (A) (A) (A) (A) (A) (A) (A) (A) (A) (A) (A)
                 (A) (A) (A) (A) (A) (A) (A) (A) (A) (A) (A) (A)
                 (A) (A) (A) (A) (A) (A) (A) (A) (A) (A) (A) (A)
                 (A) (A) (A) (A) (A) (A) (A) (A) (A) (A) (A) (A)
                 (A) (A) (A) (A) (A) (A) (A) (A) (A) (A) (A) (A)
                 (A) (A) (A) (A) (A) (A) (A) (A) (A) (A) (A) (A)
                 (A) (A) (A) (A) (A) (A) (A) (A) (A) (A) (A) (A)
                 (A) (A) (A) (A) (A) (A) (A) (A) (A) (A) (A) (A)
                 (A) (A) (A)
 The electronic state is 1-A.
 Alpha  occ. eigenvalues -- -485.39162-485.39152 -63.37608 -63.37596 -57.19563
 Alpha  occ. eigenvalues --  -57.19551 -57.19317 -57.19310 -57.19307 -57.19298
 Alpha  occ. eigenvalues --  -25.21168 -25.21096 -19.69163 -19.69119 -19.68798
 Alpha  occ. eigenvalues --  -19.68789 -19.67177 -19.66915 -19.66787 -19.64228
 Alpha  occ. eigenvalues --  -19.64030 -19.63741 -19.63704 -19.63312 -19.63299
 Alpha  occ. eigenvalues --  -15.02519 -15.02337 -14.79842 -14.79751 -10.68557
 Alpha  occ. eigenvalues --  -10.64141 -10.63577 -10.62439 -10.62365 -10.62325
 Alpha  occ. eigenvalues --  -10.62270 -10.61980 -10.61835 -10.60984 -10.60975
 Alpha  occ. eigenvalues --  -10.60865 -10.60721 -10.60578 -10.60233 -10.60141
 Alpha  occ. eigenvalues --  -10.59795 -10.59474 -10.59470 -10.58938 -10.58930
 Alpha  occ. eigenvalues --  -10.58928 -10.58876 -10.58816 -10.58786 -10.58755
 Alpha  occ. eigenvalues --  -10.58748 -10.58730 -10.58682 -10.58667 -10.58652
 Alpha  occ. eigenvalues --  -10.57782 -10.57772 -10.57184 -10.57150 -10.56236
 Alpha  occ. eigenvalues --  -10.56229 -10.56213 -10.56189 -10.56152 -10.56109
 Alpha  occ. eigenvalues --  -10.56028 -10.55977 -10.55598 -10.55434 -10.55246
 Alpha  occ. eigenvalues --  -10.55135 -10.55091 -10.54989  -9.04232  -9.04219
 Alpha  occ. eigenvalues --   -7.14168  -6.86660  -6.86646  -6.85753  -6.85744
 Alpha  occ. eigenvalues --   -6.85728  -6.85714  -2.90040  -2.90026  -2.89711
 Alpha  occ. eigenvalues --   -2.89700  -2.89681  -2.89665  -2.88835  -2.88835
 Alpha  occ. eigenvalues --   -2.88825  -2.88824  -1.38295  -1.37921  -1.33139
 Alpha  occ. eigenvalues --   -1.29887  -1.21333  -1.20007  -1.19918  -1.19894
 Alpha  occ. eigenvalues --   -1.19500  -1.16908  -1.16826  -1.16188  -1.16084
 Alpha  occ. eigenvalues --   -1.14938  -1.14895  -1.12249  -1.10469  -1.03667
 Alpha  occ. eigenvalues --   -0.97797  -0.97737  -0.96553  -0.95817  -0.94901
 Alpha  occ. eigenvalues --   -0.94188  -0.93162  -0.92473  -0.91285  -0.89342
 Alpha  occ. eigenvalues --   -0.88773  -0.88195  -0.88058  -0.87383  -0.86764
 Alpha  occ. eigenvalues --   -0.86690  -0.85925  -0.85715  -0.84610  -0.84489
 Alpha  occ. eigenvalues --   -0.83460  -0.82355  -0.81925  -0.81430  -0.80990
 Alpha  occ. eigenvalues --   -0.80401  -0.79734  -0.77963  -0.77693  -0.77044
 Alpha  occ. eigenvalues --   -0.74639  -0.73892  -0.73332  -0.72484  -0.71536
 Alpha  occ. eigenvalues --   -0.71018  -0.70909  -0.70499  -0.70032  -0.69685
 Alpha  occ. eigenvalues --   -0.68751  -0.68379  -0.68068  -0.67919  -0.67847
 Alpha  occ. eigenvalues --   -0.67026  -0.66645  -0.66320  -0.65158  -0.64316
 Alpha  occ. eigenvalues --   -0.63578  -0.63554  -0.62680  -0.62337  -0.62254
 Alpha  occ. eigenvalues --   -0.62210  -0.61687  -0.60949  -0.60690  -0.59994
 Alpha  occ. eigenvalues --   -0.59597  -0.59443  -0.59153  -0.58995  -0.58907
 Alpha  occ. eigenvalues --   -0.58456  -0.58169  -0.57931  -0.57690  -0.57522
 Alpha  occ. eigenvalues --   -0.57223  -0.56939  -0.56522  -0.56413  -0.56288
 Alpha  occ. eigenvalues --   -0.55754  -0.55553  -0.55015  -0.54738  -0.54634
 Alpha  occ. eigenvalues --   -0.54276  -0.53998  -0.53675  -0.53599  -0.53512
 Alpha  occ. eigenvalues --   -0.53080  -0.53038  -0.52981  -0.52543  -0.52462
 Alpha  occ. eigenvalues --   -0.52233  -0.51589  -0.51179  -0.51122  -0.50941
 Alpha  occ. eigenvalues --   -0.50605  -0.50515  -0.50336  -0.50001  -0.49836
 Alpha  occ. eigenvalues --   -0.49631  -0.49362  -0.49249  -0.49068  -0.48841
 Alpha  occ. eigenvalues --   -0.48613  -0.48410  -0.48079  -0.47802  -0.47586
 Alpha  occ. eigenvalues --   -0.47478  -0.47293  -0.47151  -0.47009  -0.46625
 Alpha  occ. eigenvalues --   -0.46402  -0.46075  -0.45711  -0.45648  -0.45626
 Alpha  occ. eigenvalues --   -0.45369  -0.45125  -0.44542  -0.44482  -0.44170
 Alpha  occ. eigenvalues --   -0.43624  -0.43511  -0.43307  -0.43272  -0.43259
 Alpha  occ. eigenvalues --   -0.42901  -0.42366  -0.42277  -0.42032  -0.41915
 Alpha  occ. eigenvalues --   -0.41689  -0.41529  -0.41134  -0.40783  -0.40656
 Alpha  occ. eigenvalues --   -0.40631  -0.40477  -0.40450  -0.40167  -0.40031
 Alpha  occ. eigenvalues --   -0.39835  -0.39291  -0.39270  -0.38720  -0.38569
 Alpha  occ. eigenvalues --   -0.38276  -0.37871  -0.37181  -0.36670  -0.36207
 Alpha  occ. eigenvalues --   -0.36050  -0.35902  -0.35789  -0.35114  -0.34271
 Alpha  occ. eigenvalues --   -0.33678  -0.33668  -0.32645  -0.32579  -0.32531
 Alpha  occ. eigenvalues --   -0.32338  -0.31543  -0.31185  -0.29697  -0.27346
 Alpha  occ. eigenvalues --   -0.23968
 Alpha virt. eigenvalues --   -0.10991  -0.08658  -0.07087  -0.03825  -0.02721
 Alpha virt. eigenvalues --   -0.02158  -0.00783   0.00637   0.00728   0.01869
 Alpha virt. eigenvalues --    0.03172   0.03983   0.04412   0.05001   0.05399
 Alpha virt. eigenvalues --    0.06192   0.06288   0.07035   0.07088   0.07327
 Alpha virt. eigenvalues --    0.07460   0.07556   0.08198   0.08439   0.08522
 Alpha virt. eigenvalues --    0.08680   0.09033   0.09045   0.09112   0.09525
 Alpha virt. eigenvalues --    0.09586   0.09620   0.09972   0.10235   0.10531
 Alpha virt. eigenvalues --    0.10610   0.10664   0.10789   0.11190   0.11395
 Alpha virt. eigenvalues --    0.11437   0.11492   0.11567   0.11645   0.11914
 Alpha virt. eigenvalues --    0.12298   0.12370   0.12422   0.12683   0.12762
 Alpha virt. eigenvalues --    0.13035   0.13169   0.13434   0.13515   0.13535
 Alpha virt. eigenvalues --    0.13748   0.13911   0.14245   0.14417   0.14453
 Alpha virt. eigenvalues --    0.14725   0.14839   0.14908   0.14958   0.15008
 Alpha virt. eigenvalues --    0.15031   0.15229   0.15412   0.15667   0.15831
 Alpha virt. eigenvalues --    0.15995   0.16234   0.16501   0.16546   0.16774
 Alpha virt. eigenvalues --    0.16852   0.16941   0.17014   0.17104   0.17178
 Alpha virt. eigenvalues --    0.17339   0.17376   0.17478   0.17762   0.18053
 Alpha virt. eigenvalues --    0.18377   0.18506   0.18836   0.18979   0.19259
 Alpha virt. eigenvalues --    0.19471   0.19568   0.19838   0.19970   0.19999
 Alpha virt. eigenvalues --    0.20205   0.20289   0.20415   0.20548   0.20973
 Alpha virt. eigenvalues --    0.21112   0.21153   0.21261   0.21465   0.21706
 Alpha virt. eigenvalues --    0.21719   0.21789   0.21917   0.22020   0.22233
 Alpha virt. eigenvalues --    0.22323   0.22490   0.22754   0.22913   0.23020
 Alpha virt. eigenvalues --    0.23138   0.23210   0.23391   0.23768   0.23924
 Alpha virt. eigenvalues --    0.24074   0.24183   0.24304   0.24506   0.24652
 Alpha virt. eigenvalues --    0.24740   0.24891   0.25069   0.25077   0.25344
 Alpha virt. eigenvalues --    0.25367   0.25637   0.25710   0.25719   0.25894
 Alpha virt. eigenvalues --    0.26077   0.26206   0.26417   0.26522   0.26617
 Alpha virt. eigenvalues --    0.26636   0.26795   0.26945   0.27072   0.27193
 Alpha virt. eigenvalues --    0.27351   0.27457   0.27778   0.27904   0.28218
 Alpha virt. eigenvalues --    0.28322   0.28437   0.28586   0.28869   0.29045
 Alpha virt. eigenvalues --    0.29102   0.29304   0.29580   0.29750   0.29831
 Alpha virt. eigenvalues --    0.29895   0.30293   0.30314   0.30460   0.30539
 Alpha virt. eigenvalues --    0.30653   0.30856   0.30941   0.31248   0.31407
 Alpha virt. eigenvalues --    0.31534   0.31603   0.31794   0.32164   0.32312
 Alpha virt. eigenvalues --    0.32433   0.32552   0.32822   0.32904   0.33160
 Alpha virt. eigenvalues --    0.33280   0.33408   0.33636   0.33851   0.34000
 Alpha virt. eigenvalues --    0.34038   0.34099   0.34308   0.34394   0.34727
 Alpha virt. eigenvalues --    0.34831   0.34926   0.35030   0.35131   0.35363
 Alpha virt. eigenvalues --    0.35430   0.35634   0.35789   0.36066   0.36236
 Alpha virt. eigenvalues --    0.36305   0.36419   0.36587   0.36717   0.36900
 Alpha virt. eigenvalues --    0.36986   0.37124   0.37294   0.37436   0.37548
 Alpha virt. eigenvalues --    0.37593   0.37699   0.37771   0.37841   0.38071
 Alpha virt. eigenvalues --    0.38142   0.38403   0.38490   0.38651   0.38709
 Alpha virt. eigenvalues --    0.38938   0.38958   0.39073   0.39251   0.39328
 Alpha virt. eigenvalues --    0.39410   0.39510   0.39667   0.39760   0.39902
 Alpha virt. eigenvalues --    0.40032   0.40202   0.40275   0.40421   0.40713
 Alpha virt. eigenvalues --    0.40788   0.41026   0.41159   0.41292   0.41539
 Alpha virt. eigenvalues --    0.41652   0.41760   0.41950   0.42057   0.42136
 Alpha virt. eigenvalues --    0.42291   0.42431   0.42502   0.42567   0.42799
 Alpha virt. eigenvalues --    0.42905   0.43039   0.43103   0.43317   0.43402
 Alpha virt. eigenvalues --    0.43798   0.43870   0.43912   0.44121   0.44330
 Alpha virt. eigenvalues --    0.44560   0.44623   0.44654   0.44831   0.45034
 Alpha virt. eigenvalues --    0.45207   0.45235   0.45341   0.45452   0.45528
 Alpha virt. eigenvalues --    0.45727   0.45931   0.45999   0.46101   0.46263
 Alpha virt. eigenvalues --    0.46373   0.46558   0.46686   0.46865   0.46960
 Alpha virt. eigenvalues --    0.47040   0.47095   0.47502   0.47672   0.47715
 Alpha virt. eigenvalues --    0.47774   0.47908   0.48069   0.48185   0.48255
 Alpha virt. eigenvalues --    0.48398   0.48511   0.48646   0.48902   0.49014
 Alpha virt. eigenvalues --    0.49122   0.49359   0.49563   0.49652   0.49772
 Alpha virt. eigenvalues --    0.49890   0.50125   0.50171   0.50295   0.50379
 Alpha virt. eigenvalues --    0.50444   0.50505   0.50675   0.50906   0.50993
 Alpha virt. eigenvalues --    0.51202   0.51517   0.51576   0.51682   0.51724
 Alpha virt. eigenvalues --    0.51840   0.52155   0.52276   0.52369   0.52519
 Alpha virt. eigenvalues --    0.52576   0.52658   0.52828   0.53036   0.53180
 Alpha virt. eigenvalues --    0.53335   0.53484   0.53608   0.53789   0.53875
[...]
 Alpha virt. eigenvalues --    4.63597   4.63999   4.64296   4.64494   4.64652
 Alpha virt. eigenvalues --    4.64860   4.65068   4.65686   4.65963   4.66476
 Alpha virt. eigenvalues --    4.66645   4.67203   4.67712   4.68177   4.68349
 Alpha virt. eigenvalues --    4.69029   4.69275   4.69549   4.69751   4.69895
 Alpha virt. eigenvalues --    4.70200   4.70479   4.70923   4.71156   4.71247
 Alpha virt. eigenvalues --    4.71393   4.71586   4.71930   4.72325   4.72543
 Alpha virt. eigenvalues --    4.72871   4.73686   4.73935   4.74206   4.74320
 Alpha virt. eigenvalues --    4.74431   4.74822   4.74971   4.75248   4.75537
 Alpha virt. eigenvalues --    4.75861   4.76044   4.76486   4.76810   4.76871
 Alpha virt. eigenvalues --    4.76961   4.77195   4.77411   4.77711   4.77717
 Alpha virt. eigenvalues --    4.78298   4.78586   4.78683   4.79107   4.79472
 Alpha virt. eigenvalues --    4.79942   4.80651   4.81081   4.81237   4.81465
 Alpha virt. eigenvalues --    4.81979   4.82471   4.82928   4.83097   4.83311
 Alpha virt. eigenvalues --    4.83557   4.83661   4.84017   4.84145   4.84851
 Alpha virt. eigenvalues --    4.85053   4.85774   4.86155   4.86424   4.86791
 Alpha virt. eigenvalues --    4.87312   4.87487   4.88254   4.88660   4.88731
 Alpha virt. eigenvalues --    4.88795   4.88997   4.89407   4.89787   4.90643
 Alpha virt. eigenvalues --    4.90944   4.91074   4.91155   4.91612   4.91824
 Alpha virt. eigenvalues --    4.92088   4.92460   4.92543   4.92875   4.92970
 Alpha virt. eigenvalues --    4.93486   4.93879   4.93930   4.93991   4.94110
 Alpha virt. eigenvalues --    4.94513   4.94717   4.95047   4.95137   4.95442
 Alpha virt. eigenvalues --    4.95581   4.95720   4.96434   4.96510   4.97137
 Alpha virt. eigenvalues --    4.97609   4.98166   4.98347   4.98744   4.99022
 Alpha virt. eigenvalues --    4.99169   4.99827   5.00126   5.00453   5.00941
 Alpha virt. eigenvalues --    5.01139   5.01194   5.01787   5.02496   5.02524
 Alpha virt. eigenvalues --    5.02989   5.03129   5.03826   5.04171   5.04303
 Alpha virt. eigenvalues --    5.04608   5.04946   5.05148   5.05504   5.05732
 Alpha virt. eigenvalues --    5.06279   5.06664   5.06914   5.07198   5.07294
 Alpha virt. eigenvalues --    5.08977   5.09554   5.09654   5.09828   5.09965
 Alpha virt. eigenvalues --    5.10260   5.10669   5.10925   5.11092   5.11768
 Alpha virt. eigenvalues --    5.12418   5.12608   5.12891   5.13124   5.13374
 Alpha virt. eigenvalues --    5.13729   5.13779   5.14313   5.14640   5.14844
 Alpha virt. eigenvalues --    5.15291   5.15772   5.16184   5.16364   5.16495
 Alpha virt. eigenvalues --    5.17049   5.17256   5.17596   5.18097   5.18511
 Alpha virt. eigenvalues --    5.18777   5.18903   5.19049   5.19311   5.19577
 Alpha virt. eigenvalues --    5.19817   5.21200   5.21763   5.22012   5.22092
 Alpha virt. eigenvalues --    5.22531   5.22716   5.23419   5.23739   5.23923
 Alpha virt. eigenvalues --    5.24173   5.24396   5.24636   5.25228   5.25426
 Alpha virt. eigenvalues --    5.25538   5.25644   5.26122   5.26212   5.26472
 Alpha virt. eigenvalues --    5.26956   5.27120   5.27712   5.28485   5.28934
 Alpha virt. eigenvalues --    5.29062   5.29197   5.29616   5.29786   5.30005
 Alpha virt. eigenvalues --    5.30326   5.30716   5.30980   5.31426   5.31454
 Alpha virt. eigenvalues --    5.31519   5.31774   5.32197   5.32320   5.32496
 Alpha virt. eigenvalues --    5.32743   5.33078   5.34661   5.34831   5.34966
 Alpha virt. eigenvalues --    5.35040   5.35597   5.35746   5.36314   5.36621
 Alpha virt. eigenvalues --    5.37059   5.37108   5.37405   5.37654   5.37891
 Alpha virt. eigenvalues --    5.38504   5.38666   5.38778   5.38956   5.39448
 Alpha virt. eigenvalues --    5.39535   5.39915   5.40271   5.40280   5.40728
 Alpha virt. eigenvalues --    5.41529   5.41737   5.42340   5.42516   5.43014
 Alpha virt. eigenvalues --    5.43262   5.43426   5.44028   5.44269   5.44509
 Alpha virt. eigenvalues --    5.44667   5.45697   5.45802   5.46605   5.46716
 Alpha virt. eigenvalues --    5.47210   5.47489   5.48404   5.49195   5.49353
 Alpha virt. eigenvalues --    5.49639   5.49817   5.50742   5.50962   5.51655
 Alpha virt. eigenvalues --    5.51686   5.51963   5.52094   5.52873   5.53008
 Alpha virt. eigenvalues --    5.54111   5.54253   5.54301   5.54843   5.55709
 Alpha virt. eigenvalues --    5.55893   5.56546   5.56697   5.57009   5.57771
 Alpha virt. eigenvalues --    5.58194   5.58692   5.58724   5.58916   5.59409
 Alpha virt. eigenvalues --    5.59760   5.60241   5.60844   5.61168   5.61269
 Alpha virt. eigenvalues --    5.61736   5.62002   5.62606   5.62857   5.62993
 Alpha virt. eigenvalues --    5.63108   5.63719   5.64005   5.64127   5.64258
 Alpha virt. eigenvalues --    5.64456   5.64718   5.64996   5.65087   5.65167
 Alpha virt. eigenvalues --    5.65849   5.65962   5.66737   5.67103   5.67300
 Alpha virt. eigenvalues --    5.67456   5.67812   5.68555   5.68892   5.69324
 Alpha virt. eigenvalues --    5.70683   5.71123   5.73337   5.74165   5.74938
 Alpha virt. eigenvalues --    5.75876   5.77591   5.78576   5.82029   5.82662
 Alpha virt. eigenvalues --    5.83364   5.84496   5.84772   5.84829   5.85215
 Alpha virt. eigenvalues --    5.86393   5.88886   5.89576   5.90017   5.91731
 Alpha virt. eigenvalues --    5.91924   5.92034   5.92205   5.92275   5.93473
 Alpha virt. eigenvalues --    5.95088   5.96697   5.97494   5.97845   5.98529
 Alpha virt. eigenvalues --    5.99382   6.00230   6.00496   6.02261   6.02702
 Alpha virt. eigenvalues --    6.02931   6.03863   6.05646   6.06330   6.06896
 Alpha virt. eigenvalues --    6.08688   6.08906   6.09142   6.09501   6.10312
 Alpha virt. eigenvalues --    6.15166   6.15429   6.17603   6.20784   6.21599
 Alpha virt. eigenvalues --    6.22505   6.22740   6.22805   6.25146   6.25266
 Alpha virt. eigenvalues --    6.25337   6.26241   6.26520   6.27858   6.28448
 Alpha virt. eigenvalues --    6.28655   6.28877   6.29803   6.30089   6.30318
 Alpha virt. eigenvalues --    6.32328   6.32751   6.35604   6.35784   6.36021
 Alpha virt. eigenvalues --    6.36550   6.39354   6.39731   6.40595   6.40699
 Alpha virt. eigenvalues --    6.42926   6.44947   6.45142   6.46563   6.46909
 Alpha virt. eigenvalues --    6.48543   6.50199   6.65154   6.68482   6.69771
 Alpha virt. eigenvalues --    6.70244   6.72644   6.72701   6.74360   6.74451
 Alpha virt. eigenvalues --    6.74959   6.75226   6.75651   6.76624   6.76992
 Alpha virt. eigenvalues --    6.80252   6.80429   6.82643   6.82871   6.82984
 Alpha virt. eigenvalues --    6.83122   6.83478   6.84304   6.84334   6.85218
 Alpha virt. eigenvalues --    6.86444   6.86537   6.87463   6.89188   6.89655
 Alpha virt. eigenvalues --    6.93640   6.94249   6.96656   6.97011   6.97600
 Alpha virt. eigenvalues --    6.98438   6.98704   6.98731   6.99038   6.99668
 Alpha virt. eigenvalues --    7.00786   7.01698   7.03424   7.04103   7.04726
 Alpha virt. eigenvalues --    7.06463   7.08022   7.08948   7.10104   7.11047
 Alpha virt. eigenvalues --    7.16893   7.20507   7.21866   7.22250   7.23671
 Alpha virt. eigenvalues --    7.26322   7.26824   7.26904   7.27114   7.27311
 Alpha virt. eigenvalues --    7.27597   7.28879   7.29376   7.30433   7.31369
 Alpha virt. eigenvalues --    7.33495   7.33713   7.34133   7.34236   7.34501
 Alpha virt. eigenvalues --    7.36045   7.38322   7.38660   7.39347   7.39759
 Alpha virt. eigenvalues --    7.41454   7.45263   7.47153   7.47201   7.50147
 Alpha virt. eigenvalues --    7.91630   7.91769   8.46308   8.47133   8.56649
 Alpha virt. eigenvalues --    8.59196   8.82165   8.87730   8.91023   8.91436
 Alpha virt. eigenvalues --    8.91878   9.00081  15.85626  22.78628  22.80162
 Alpha virt. eigenvalues --   22.81724  22.89688  22.90290  23.06069  23.09961
 Alpha virt. eigenvalues --   23.10622  23.11749  23.12886  23.16470  23.17280
 Alpha virt. eigenvalues --   23.18607  23.19970  23.26204  23.26971  23.27175
 Alpha virt. eigenvalues --   23.29059  23.30024  23.31059  23.31083  23.32539
 Alpha virt. eigenvalues --   23.34283  23.34644  23.35634  23.36120  23.36285
 Alpha virt. eigenvalues --   23.38109  23.38752  23.40309  23.40760  23.41726
 Alpha virt. eigenvalues --   23.42704  23.45693  23.47109  23.47509  23.48666
 Alpha virt. eigenvalues --   23.50503  23.50770  23.53774  23.58368  23.58392
 Alpha virt. eigenvalues --   23.65982  23.72625  23.80275  23.88880  23.98714
 Alpha virt. eigenvalues --   24.08990  24.09164  32.58932  32.62760  33.11089
 Alpha virt. eigenvalues --   33.26980  44.17525  44.21103  44.23521  44.26270
 Alpha virt. eigenvalues --   44.28881  44.29104  44.29108  44.38191  44.38894
 Alpha virt. eigenvalues --   44.49964  44.50180  44.61686  44.62957  57.36425
 Alpha virt. eigenvalues --   57.57628
          Condensed to atoms (all electrons):
 Mulliken charges:
               1
     1  B    0.340327
     2  N   -0.078233
     3  C    0.138145
     4  C   -0.113371
     5  C    0.101309
     6  C    0.080196
     7  C    0.207886
     8  C   -0.124408
     9  O   -0.272798
    10  C   -0.468988
    11  C    0.133381
    12  C   -0.017266
    13  N    0.485147
    14  O   -0.333860
    15  O   -0.335290
    16  C    0.000833
    17  C   -0.050124
    18  C   -0.057366
    19  C   -0.116010
    20  N    0.500265
    21  O   -0.357628
    22  O   -0.355678
    23  C    0.098082
    24  N   -0.084842
    25  C    0.139651
    26  C   -0.140598
    27  C    0.156615
    28  C   -0.504974
    29  Br  -0.075075
    30  C   -0.162236
    31  C   -0.041844
    32  C   -0.012669
    33  C   -0.119284
    34  C   -0.198941
    35  C    0.231079
    36  O   -0.300613
    37  C   -0.132852
    38  C   -0.098940
    39  O   -0.352008
    40  C   -0.100561
    41  C   -0.053895
    42  O   -0.340879
    43  C   -0.056142
    44  C   -0.096766
    45  O   -0.347978
    46  C   -0.198773
    47  C   -0.162165
    48  C   -0.184266
    49  C   -0.424193
    50  Br  -0.075892
    51  C   -0.167745
    52  C   -0.041480
    53  C   -0.014346
    54  C   -0.142865
    55  C   -0.192283
    56  C    0.240740
    57  O   -0.290729
    58  C   -0.150464
    59  C   -0.062436
    60  O   -0.340903
    61  C   -0.096319
    62  C   -0.078386
    63  O   -0.339754
    64  C   -0.050198
    65  C   -0.098505
    66  O   -0.347618
    67  C   -0.198768
    68  C   -0.172144
    69  C   -0.154804
    70  F   -0.357216
    71  F   -0.326372
    72  H    0.266501
    73  H    0.201606
    74  H    0.209712
    75  H    0.203778
    76  H    0.176751
    77  H    0.175411
    78  H    0.152847
    79  H    0.180515
    80  H    0.125764
    81  H    0.130919
    82  H    0.145709
    83  H    0.160590
    84  H    0.154743
    85  H    0.165539
    86  H    0.135852
    87  H    0.149686
    88  H    0.132870
    89  H    0.138766
    90  H    0.118562
    91  H    0.122741
    92  H    0.123549
    93  H    0.123306
    94  H    0.125917
    95  H    0.117132
    96  H    0.136695
    97  H    0.120672
    98  H    0.122737
    99  H    0.152808
   100  H    0.151273
   101  H    0.182821
   102  H    0.154568
   103  H    0.135789
   104  H    0.125170
   105  H    0.129710
   106  H    0.152907
   107  H    0.159111
   108  H    0.151994
   109  H    0.156066
   110  H    0.136802
   111  H    0.134998
   112  H    0.128344
   113  H    0.133531
   114  H    0.130216
   115  H    0.118667
   116  H    0.122365
   117  H    0.122592
   118  H    0.117682
   119  H    0.125793
   120  H    0.136765
   121  H    0.122707
   122  H    0.120382
   123  H    0.150061
   124  H    0.145089
 Sum of Mulliken charges =  -0.00000
 Mulliken charges with hydrogens summed into heavy atoms:
               1
     1  B    0.340327
     2  N   -0.078233
     3  C    0.138145
     4  C   -0.113371
     5  C    0.101309
     6  C    0.080196
     7  C    0.207886
     8  C   -0.124408
     9  O   -0.272798
    10  C   -0.000882
    11  C    0.133381
    12  C   -0.017266
    13  N    0.485147
    14  O   -0.333860
    15  O   -0.335290
    16  C    0.210545
    17  C   -0.050124
    18  C    0.146413
    19  C    0.060741
    20  N    0.500265
    21  O   -0.357628
    22  O   -0.355678
    23  C    0.098082
    24  N   -0.084842
    25  C    0.139651
    26  C   -0.140598
    27  C    0.156615
    28  C    0.003800
    29  Br  -0.075075
    30  C   -0.036472
    31  C    0.089075
    32  C   -0.012669
    33  C    0.026426
    34  C   -0.038351
    35  C    0.231079
    36  O   -0.300613
    37  C    0.187431
    38  C    0.186598
    39  O   -0.352008
    40  C    0.171075
    41  C    0.187408
    42  O   -0.340879
    43  C    0.190712
    44  C    0.146283
    45  O   -0.347978
    46  C    0.181332
    47  C   -0.009357
    48  C   -0.032992
    49  C    0.048984
    50  Br  -0.075892
    51  C   -0.042575
    52  C    0.088229
    53  C   -0.014346
    54  C    0.010042
    55  C   -0.033172
    56  C    0.240740
    57  O   -0.290729
    58  C    0.157597
    59  C    0.209364
    60  O   -0.340903
    61  C    0.165556
    62  C    0.170496
    63  O   -0.339754
    64  C    0.194759
    65  C    0.144970
    66  O   -0.347618
    67  C    0.181086
    68  C   -0.022083
    69  C   -0.009715
    70  F   -0.357216
    71  F   -0.326372
 Electronic spatial extent (au):  <R**2>=         135216.6379
 Charge=             -0.0000 electrons
 Dipole moment (field-independent basis, Debye):
    X=             -4.2373    Y=              8.0050    Z=             -6.7744  Tot=             11.3105
 Quadrupole moment (field-independent basis, Debye-Ang):
   XX=           -501.4375   YY=           -373.5763   ZZ=           -447.2656
   XY=            -65.7230   XZ=            -18.5663   YZ=             -3.0481
 Traceless Quadrupole moment (field-independent basis, Debye-Ang):
   XX=            -60.6777   YY=             67.1835   ZZ=             -6.5058
   XY=            -65.7230   XZ=            -18.5663   YZ=             -3.0481
 Octapole moment (field-independent basis, Debye-Ang**2):
  XXX=          -1570.0266  YYY=            895.1406  ZZZ=            -67.7127  XYY=            -96.0198
  XXY=            224.8257  XXZ=           -385.2553  XZZ=            -35.0129  YZZ=              2.7181
  YYZ=            176.7092  XYZ=            176.6071
 Hexadecapole moment (field-independent basis, Debye-Ang**3):
 XXXX=        -141065.9866 YYYY=         -35655.1381 ZZZZ=         -11576.3596 XXXY=          -7840.5986
 XXXZ=           1668.3228 YYYX=          -5548.9518 YYYZ=           -348.5838 ZZZX=           1016.7115
 ZZZY=            -65.6690 XXYY=         -29198.8360 XXZZ=         -22649.4269 YYZZ=          -7986.7671
 XXYZ=           -425.0350 YYXZ=          -1050.0468 ZZXY=            108.5828
 N-N= 1.198828603875D+04 E-N=-4.403502886672D+04  KE= 8.444541487301D+03
 Leave Link  601 at Tue Oct 28 16:58:37 2025, MaxMem= 30870077440 cpu:             135.1 elap:               2.7
 (Enter /public/software/gauss/g16/l9999.exe)
 1\1\GINC-CU031\SP\RM062X\def2TZVPP\C49H53B1Br2F2N4O13\BAIDING\28-Oct-2
 025\0\\#p M062X/DEF2TZVPP scrf=(solvent=water) em=GD3\\Energy calculat
 ion for BE_Br\\0,1\B,0,1.703682,-0.515022,-0.01629\N,0,2.719238,0.6000
 27,-0.385451\C,0,2.383363,1.840965,-0.844678\C,0,3.597951,2.58252,-0.9
 49469\C,0,4.670514,1.795832,-0.552682\C,0,4.096767,0.531344,-0.186699\
 C,0,4.684772,-0.646133,0.308282\C,0,6.199909,-0.697519,0.419145\O,0,6.
 775834,-0.232931,1.386211\C,0,6.931006,-1.345571,-0.757446\C,0,8.33258
 3,-0.833453,-0.986852\C,0,9.393084,-0.91015,-0.062694\N,0,9.269505,-1.
 649497,1.198044\O,0,8.604393,-2.685669,1.198082\O,0,9.872911,-1.218294
 ,2.180367\C,0,10.638789,-0.336723,-0.293231\C,0,10.845382,0.303191,-1.
 507392\C,0,9.843579,0.393415,-2.470597\C,0,8.601126,-0.164269,-2.19125
 \N,0,12.155672,0.89511,-1.774817\O,0,13.02601,0.801613,-0.90644\O,0,12
 .325753,1.460311,-2.857112\C,0,3.904229,-1.762527,0.656896\N,0,2.52651
 ,-1.749648,0.44127\C,0,1.986198,-2.933669,0.858307\C,0,3.063182,-3.721
 251,1.359667\C,0,4.255819,-3.019263,1.251203\C,0,5.595977,-3.511001,1.
 692403\Br,0,2.954418,-5.499187,1.998512\C,0,0.578842,-3.196097,0.70561
 4\C,0,-0.144168,-4.146983,1.353011\C,0,-1.56682,-4.404504,1.184765\C,0
 ,-2.177737,-5.38985,1.991719\C,0,-3.528898,-5.679943,1.883357\C,0,-4.3
 24011,-4.989219,0.954639\O,0,-5.639659,-5.36121,0.917102\C,0,-6.553165
 ,-4.703512,0.023013\C,0,-7.062056,-3.391287,0.626058\O,0,-7.975351,-2.
 735536,-0.24735\C,0,-9.308949,-3.261196,-0.259598\C,0,-9.62582,-3.8212
 17,-1.647968\O,0,-10.962761,-4.306627,-1.736609\C,0,-11.938699,-3.2930
 28,-1.98314\C,0,-13.294163,-3.95833,-2.153146\O,0,-13.367538,-4.86023,
 -3.254612\C,0,-13.465326,-4.213488,-4.518276\C,0,-3.741021,-4.005232,0
 .138835\C,0,-2.384539,-3.725982,0.257877\C,0,6.103808,2.2195,-0.517606
 \Br,0,3.769825,4.343565,-1.623702\C,0,1.016494,2.168644,-1.158239\C,0,
 0.487798,3.416774,-1.251418\C,0,-0.895212,3.744666,-1.56249\C,0,-1.887
 236,2.782733,-1.865649\C,0,-3.18737,3.163098,-2.147004\C,0,-3.552788,4
 .523111,-2.139257\O,0,-4.859136,4.775193,-2.44786\C,0,-5.354003,6.1265
 46,-2.445507\C,0,-5.707645,6.620539,-1.056291\O,0,-6.785271,5.829281,-
 0.558567\C,0,-7.17446,6.159185,0.775509\C,0,-6.340966,5.387158,1.80426
 2\O,0,-6.801168,5.603915,3.136096\C,0,-6.335392,6.817207,3.728346\C,0,
 -6.745202,6.827431,5.191676\O,0,-6.180648,5.7689,5.961627\C,0,-4.81142
 8,5.969227,6.292879\C,0,-2.588377,5.495879,-1.841932\C,0,-1.283422,5.0
 98299,-1.561768\F,0,0.930378,-0.844505,-1.143511\F,0,0.862758,-0.08483
 7,1.012307\H,0,6.932043,-2.424003,-0.560358\H,0,6.338014,-1.194616,-1.
 661982\H,0,11.42639,-0.407919,0.444528\H,0,10.029634,0.896417,-3.41090
 4\H,0,7.80808,-0.078213,-2.926093\H,0,6.239619,-2.703157,2.037286\H,0,
 5.482843,-4.218767,2.517404\H,0,6.116128,-4.038781,0.884491\H,0,0.0755
 62,-2.535757,0.009185\H,0,0.342987,-4.780582,2.086804\H,0,-1.572959,-5
 .931047,2.714422\H,0,-3.990894,-6.439166,2.506213\H,0,-6.096267,-4.534
 086,-0.956742\H,0,-7.376796,-5.410381,-0.101725\H,0,-7.521916,-3.58978
 9,1.603114\H,0,-6.230666,-2.696676,0.777666\H,0,-9.431774,-4.045346,0.
 496204\H,0,-9.995115,-2.442832,-0.010984\H,0,-9.43975,-3.051013,-2.409
 951\H,0,-8.969431,-4.671829,-1.859556\H,0,-12.008101,-2.586607,-1.1439
 34\H,0,-11.661326,-2.717069,-2.877696\H,0,-13.515621,-4.554834,-1.2618
 53\H,0,-14.061775,-3.175073,-2.241478\H,0,-13.605443,-4.996584,-5.2679
 88\H,0,-14.325642,-3.529536,-4.551089\H,0,-12.559673,-3.646893,-4.7713
 56\H,0,-4.331372,-3.454996,-0.583476\H,0,-1.959469,-2.963924,-0.387514
 \H,0,6.520483,2.140806,0.489691\H,0,6.724187,1.612661,-1.183498\H,0,6.
 198318,3.257373,-0.84078\H,0,0.371763,1.309244,-1.300661\H,0,1.119821,
 4.277688,-1.059863\H,0,-1.638556,1.726446,-1.883333\H,0,-3.946382,2.42
 3307,-2.380614\H,0,-4.640353,6.805493,-2.921572\H,0,-6.255717,6.088731
 ,-3.061532\H,0,-4.837935,6.568045,-0.389924\H,0,-6.00879,7.67646,-1.13
 2867\H,0,-7.103923,7.242674,0.938472\H,0,-8.225497,5.869681,0.8786\H,0
 ,-6.444799,4.314748,1.60906\H,0,-5.276459,5.646376,1.720233\H,0,-5.243
 907,6.891816,3.619816\H,0,-6.776803,7.69917,3.242512\H,0,-6.483709,7.8
 04463,5.624602\H,0,-7.830997,6.702658,5.261159\H,0,-4.518153,5.146558,
 6.950253\H,0,-4.159469,5.958775,5.40963\H,0,-4.664176,6.92067,6.823986
 \H,0,-2.836725,6.549616,-1.822026\H,0,-0.541869,5.858669,-1.331947\\Ve
 rsion=ES64L-G16RevA.03\State=1-A\HF=-8468.8546666\RMSD=3.090e-09\Dipol
 e=-1.6670979,3.1494234,-2.6652577\Quadrupole=-45.1124084,49.9493078,-4
 .8368994,-48.8634516,-13.8035833,-2.2662188\PG=C01 [X(C49H53B1Br2F2N4O
 13)]\\@


 IN THE UNIVERSE THE DIFFICULT THINGS ARE DONE AS IF THEY WERE EASY.

                                                          -- LAO-TSU
 Job cpu time:       1 days 10 hours 35 minutes 55.5 seconds.
 Elapsed time:       0 days  0 hours 33 minutes  8.8 seconds.
 File lengths (MBytes):  RWF=   5896 Int=      0 D2E=      0 Chk=    512 Scr=      1
 Normal termination of Gaussian 16 at Tue Oct 28 16:58:39 2025.
