 Entering Gaussian System, Link 0=g16
 Input=BE_CO_reduced_sp.gjf
 Output=BE_CO_reduced_sp.log
 Initial command:
 /public/software/gauss/g16/l1.exe "/public/home/baiding/1105_BE_sp/tmp_BE_CO_reduced_sp_1568733/Gau-1930657.inp" -scrdir="/public/home/baiding/1105_BE_sp/tmp_BE_CO_reduced_sp_1568733/"
 Entering Link 1 = /public/software/gauss/g16/l1.exe PID=   1930658.
  
 Copyright (c) 1988,1990,1992,1993,1995,1998,2003,2009,2016,
            Gaussian, Inc.  All Rights Reserved.
  
 This is part of the Gaussian(R) 16 program.  It is based on
 the Gaussian(R) 09 system (copyright 2009, Gaussian, Inc.),
 the Gaussian(R) 03 system (copyright 2003, Gaussian, Inc.),
 the Gaussian(R) 98 system (copyright 1998, Gaussian, Inc.),
 the Gaussian(R) 94 system (copyright 1995, Gaussian, Inc.),
 the Gaussian 92(TM) system (copyright 1992, Gaussian, Inc.),
 the Gaussian 90(TM) system (copyright 1990, Gaussian, Inc.),
 the Gaussian 88(TM) system (copyright 1988, Gaussian, Inc.),
 the Gaussian 86(TM) system (copyright 1986, Carnegie Mellon
 University), and the Gaussian 82(TM) system (copyright 1983,
 Carnegie Mellon University). Gaussian is a federally registered
 trademark of Gaussian, Inc.
  
 This software contains proprietary and confidential information,
 including trade secrets, belonging to Gaussian, Inc.
  
 This software is provided under written license and may be
 used, copied, transmitted, or stored only in accord with that
 written license.
  
 The following legend is applicable only to US Government
 contracts under FAR:
  
                    RESTRICTED RIGHTS LEGEND
  
 Use, reproduction and disclosure by the US Government is
 subject to restrictions as set forth in subparagraphs (a)
 and (c) of the Commercial Computer Software - Restricted
 Rights clause in FAR 52.227-19.
  
 Gaussian, Inc.
 340 Quinnipiac St., Bldg. 40, Wallingford CT 06492
  
  
 ---------------------------------------------------------------
 Warning -- This program may not be used in any manner that
 competes with the business of Gaussian, Inc. or will provide
 assistance to any competitor of Gaussian, Inc.  The licensee
 of this program is prohibited from giving any competitor of
 Gaussian, Inc. access to this program.  By using this program,
 the user acknowledges that Gaussian, Inc. is engaged in the
 business of creating and licensing software in the field of
 computational chemistry and represents and warrants to the
 licensee that it is not a competitor of Gaussian, Inc. and that
 it will not use this program in any manner prohibited above.
 ---------------------------------------------------------------
  

 Cite this work as:
 Gaussian 16, Revision A.03,
 M. J. Frisch, G. W. Trucks, H. B. Schlegel, G. E. Scuseria, 
 M. A. Robb, J. R. Cheeseman, G. Scalmani, V. Barone, 
 G. A. Petersson, H. Nakatsuji, X. Li, M. Caricato, A. V. Marenich, 
 J. Bloino, B. G. Janesko, R. Gomperts, B. Mennucci, H. P. Hratchian, 
 J. V. Ortiz, A. F. Izmaylov, J. L. Sonnenberg, D. Williams-Young, 
 F. Ding, F. Lipparini, F. Egidi, J. Goings, B. Peng, A. Petrone, 
 T. Henderson, D. Ranasinghe, V. G. Zakrzewski, J. Gao, N. Rega, 
 G. Zheng, W. Liang, M. Hada, M. Ehara, K. Toyota, R. Fukuda, 
 J. Hasegawa, M. Ishida, T. Nakajima, Y. Honda, O. Kitao, H. Nakai, 
 T. Vreven, K. Throssell, J. A. Montgomery, Jr., J. E. Peralta, 
 F. Ogliaro, M. J. Bearpark, J. J. Heyd, E. N. Brothers, K. N. Kudin, 
 V. N. Staroverov, T. A. Keith, R. Kobayashi, J. Normand, 
 K. Raghavachari, A. P. Rendell, J. C. Burant, S. S. Iyengar, 
 J. Tomasi, M. Cossi, J. M. Millam, M. Klene, C. Adamo, R. Cammi, 
 J. W. Ochterski, R. L. Martin, K. Morokuma, O. Farkas, 
 J. B. Foresman, and D. J. Fox, Gaussian, Inc., Wallingford CT, 2016.
 
 ******************************************
 Gaussian 16:  ES64L-G16RevA.03 25-Dec-2016
                 5-Nov-2025 
 ******************************************
 %nprocshared=64
 Will use up to   64 processors via shared memory.
 %mem=230GB
 %chk=BE_CO_reduced_sp.chk
 ----------------------------------------------
 #p M062X/DEF2TZVPP scrf=(solvent=water) em=GD3
 ----------------------------------------------
 1/38=1,172=1/1;
 2/12=2,17=6,18=5,40=1/2;
 3/5=44,7=202,11=2,25=1,30=1,70=2201,72=1,74=-55,124=31/1,2,3;
 4//1;
 5/5=2,38=5,53=1/2;
 6/7=2,8=2,9=2,10=2,28=1/1;
 99/5=1,9=1/99;
 Leave Link    1 at Wed Nov  5 21:57:26 2025, MaxMem= 30870077440 cpu:              10.1 elap:               0.2
 (Enter /public/software/gauss/g16/l101.exe)
 ------------------------------------
 Energy calculation for BE_CO_reduced
 ------------------------------------
 Symbolic Z-matrix:
 Charge = -1 Multiplicity = 2
 B                    -3.14234   0.16483   1.13744 
 N                    -4.26176  -0.89511   1.04615 
 C                    -4.08658  -2.15039   0.48694 
 C                    -5.36158  -2.69042   0.24113 
 C                    -6.33189  -1.77138   0.63481 
 C                    -5.625    -0.63801   1.16421 
 C                    -6.0514    0.61993   1.68178 
 C                    -7.48357   0.94083   1.78997 
 O                    -8.32204   0.15838   2.26046 
 C                    -7.98422   2.2635    1.17603 
 C                    -8.63039   1.97285  -0.16126 
 C                    -7.90631   2.13122  -1.3537 
 C                    -8.48503   1.84721  -2.58495 
 C                    -9.80502   1.39325  -2.61345 
 C                    -10.55158   1.21805  -1.44604 
 C                    -9.9555    1.50928  -0.22537 
 N                    -10.42284   1.09785  -3.89739 
 O                    -9.75495   1.2558   -4.92671 
 O                    -11.59383   0.69888  -3.91381 
 C                    -5.0746    1.58156   2.10586 
 N                    -3.72846   1.44179   1.76885 
 C                    -3.01952   2.47618   2.36523 
 C                    -3.92518   3.23927   3.11647 
 C                    -5.20775   2.69909   2.97705 
 C                    -6.41951   3.19336   3.71429 
 C                    -1.62268   2.80879   2.23922 
 C                    -0.69395   2.35169   1.3594 
 C                     0.70595   2.76511   1.29555 
 C                     1.31673   3.65076   2.21406 
 C                     2.65011   4.00975   2.09438 
 C                     3.43609   3.49435   1.04977 
 O                     4.74326   3.90977   1.02442 
 C                     5.5885    3.42987  -0.03029 
 C                     6.97113   4.02161   0.17742 
 O                     7.01064   5.44494   0.13129 
 C                     6.88461   5.99228  -1.18137 
 C                     7.17787   7.47478  -1.12533 
 O                     8.55197   7.66206  -0.79056 
 C                     8.91134   9.01764  -0.52873 
 C                     8.96479   9.89371  -1.77785 
 O                     9.78947   9.37057  -2.81695 
 C                     11.18395   9.44153  -2.53786 
 C                     2.862     2.61152   0.12853 
 C                     1.51801   2.26117   0.26202 
 C                    -7.80296  -2.01967   0.4698 
 C                    -2.79157  -2.72845   0.25424 
 C                    -2.57483  -3.90197  -0.40024 
 C                    -1.28677  -4.54173  -0.63803 
 C                    -1.24535  -5.76073  -1.34139 
 C                    -0.04982  -6.42883  -1.60644 
 C                     1.15756  -5.87752  -1.16296 
 O                     2.39298  -6.4368   -1.36439 
 C                     2.46798  -7.69521  -2.04984 
 C                     3.92157  -8.09699  -2.13069 
 O                     4.393    -8.38485  -0.81457 
 C                     5.74705  -8.83467  -0.76936 
 C                     6.74562  -7.67519  -0.82064 
 O                     8.0844   -8.17075  -0.71231 
 C                     8.57317  -8.26832   0.62707 
 C                     9.25969  -6.97154   1.04239 
 O                     9.73228  -7.13822   2.37336 
 C                     10.40362  -5.98093   2.85402 
 C                     1.14539  -4.66115  -0.45861 
 C                    -0.04999  -4.00959  -0.20223 
 F                    -2.08287  -0.32619   1.92988 
 F                    -2.6355    0.42225  -0.16178 
 H                    -5.55967  -3.67029  -0.17359 
 H                    -8.72343   2.69896   1.85399 
 H                    -7.16276   2.96559   1.03805 
 H                    -6.88173   2.48685  -1.31555 
 H                    -7.93132   1.97439  -3.50624 
 H                    -11.5739   0.86656  -1.49997 
 H                    -10.52294   1.38034   0.68999 
 H                    -3.65767   4.1075    3.70622 
 H                    -6.1124    3.66455   4.65333 
 H                    -6.98825   3.94413   3.15297 
 H                    -7.11173   2.38357   3.96464 
 H                    -1.32712   3.58173   2.94697 
 H                    -0.99282   1.63231   0.60493 
 H                     0.74236   4.06191   3.03835 
 H                     3.10853   4.68981   2.80581 
 H                     5.66337   2.33566   0.00617 
 H                     5.16958   3.71238  -1.00298 
 H                     7.33816   3.74357   1.1702 
 H                     7.64726   3.58841  -0.57379 
 H                     7.58739   5.49579  -1.86652 
 H                     5.86967   5.85306  -1.57798 
 H                     6.93961   7.911    -2.10492 
 H                     6.53544   7.95821  -0.37434 
 H                     8.21089   9.47603   0.18589 
 H                     9.89325   8.97243  -0.04862 
 H                     7.96836   9.99572  -2.21816 
 H                     9.30321   10.8983  -1.47978 
 H                     11.70692   9.14689  -3.45128 
 H                     11.48606   10.46347  -2.26821 
 H                     11.48538   8.76254  -1.73002 
 H                     3.44318   2.194    -0.68465 
 H                     1.08359   1.57459  -0.45996 
 H                    -8.31879  -2.13989   1.42678 
 H                    -8.30663  -1.20371  -0.05779 
 H                    -7.9496   -2.93423  -0.11268 
 H                    -1.94817  -2.17586   0.65361 
 H                    -3.43122  -4.44252  -0.80038 
 H                    -2.17693  -6.19808  -1.69101 
 H                    -0.07227  -7.36447  -2.15174 
 H                     1.89207  -8.45401  -1.50653 
 H                     2.06132  -7.60201  -3.06397 
 H                     4.00192  -8.988    -2.77008 
 H                     4.50278  -7.29083  -2.59706 
 H                     5.85907  -9.37319   0.17723 
 H                     5.95094  -9.53941  -1.5874 
 H                     6.68313  -7.15033  -1.77861 
 H                     6.52105  -6.95448  -0.025 
 H                     7.76687  -8.5085    1.33084 
 H                     9.29459  -9.09159   0.64757 
 H                     10.09316  -6.75527   0.35675 
 H                     8.55357  -6.12863   0.98664 
 H                     10.72822  -6.19256   3.87578 
 H                     11.28433  -5.7425    2.24078 
 H                     9.73897  -5.1053    2.86371 
 H                     2.08913  -4.24526  -0.11954 
 H                    -0.02414  -3.07297   0.34557 
 
 ITRead=  0  0  0  0  0  0  0  0  0  0  0  0  0  0  0  0  0  0  0  0
 ITRead=  0  0  0  0  0  0  0  0  0  0  0  0  0  0  0  0  0  0  0  0
 ITRead=  0  0  0  0  0  0  0  0  0  0  0  0  0  0  0  0  0  0  0  0
 ITRead=  0  0  0  0  0  0  0  0  0  0  0  0  0  0  0  0  0  0  0  0
 ITRead=  0  0  0  0  0  0  0  0  0  0  0  0  0  0  0  0  0  0  0  0
 ITRead=  0  0  0  0  0  0  0  0  0  0  0  0  0  0  0  0  0  0  0  0
 ITRead=  0  0
 MicOpt= -1 -1 -1 -1 -1 -1 -1 -1 -1 -1 -1 -1 -1 -1 -1 -1 -1 -1 -1 -1
 MicOpt= -1 -1 -1 -1 -1 -1 -1 -1 -1 -1 -1 -1 -1 -1 -1 -1 -1 -1 -1 -1
 MicOpt= -1 -1 -1 -1 -1 -1 -1 -1 -1 -1 -1 -1 -1 -1 -1 -1 -1 -1 -1 -1
 MicOpt= -1 -1 -1 -1 -1 -1 -1 -1 -1 -1 -1 -1 -1 -1 -1 -1 -1 -1 -1 -1
 MicOpt= -1 -1 -1 -1 -1 -1 -1 -1 -1 -1 -1 -1 -1 -1 -1 -1 -1 -1 -1 -1
 MicOpt= -1 -1 -1 -1 -1 -1 -1 -1 -1 -1 -1 -1 -1 -1 -1 -1 -1 -1 -1 -1
 MicOpt= -1 -1
 NAtoms=    122 NQM=      122 NQMF=       0 NMMI=      0 NMMIF=      0
                NMic=       0 NMicF=      0.
                    Isotopes and Nuclear Properties:
 (Nuclear quadrupole moments (NQMom) in fm**2, nuclear magnetic moments (NMagM)
  in nuclear magnetons)

  Atom         1           2           3           4           5           6           7           8           9          10
 IAtWgt=          11          14          12          12          12          12          12          12          16          12
 AtmWgt=  11.0093053  14.0030740  12.0000000  12.0000000  12.0000000  12.0000000  12.0000000  12.0000000  15.9949146  12.0000000
 NucSpn=           3           2           0           0           0           0           0           0           0           0
 AtZEff=  -0.0000000  -0.0000000  -0.0000000  -0.0000000  -0.0000000  -0.0000000  -0.0000000  -0.0000000  -0.0000000  -0.0000000
 NQMom=    4.0590000   2.0440000   0.0000000   0.0000000   0.0000000   0.0000000   0.0000000   0.0000000   0.0000000   0.0000000
 NMagM=    2.6886370   0.4037610   0.0000000   0.0000000   0.0000000   0.0000000   0.0000000   0.0000000   0.0000000   0.0000000
 AtZNuc=   5.0000000   7.0000000   6.0000000   6.0000000   6.0000000   6.0000000   6.0000000   6.0000000   8.0000000   6.0000000

  Atom        11          12          13          14          15          16          17          18          19          20
 IAtWgt=          12          12          12          12          12          12          14          16          16          12
 AtmWgt=  12.0000000  12.0000000  12.0000000  12.0000000  12.0000000  12.0000000  14.0030740  15.9949146  15.9949146  12.0000000
 NucSpn=           0           0           0           0           0           0           2           0           0           0
 AtZEff=  -0.0000000  -0.0000000  -0.0000000  -0.0000000  -0.0000000  -0.0000000  -0.0000000  -0.0000000  -0.0000000  -0.0000000
 NQMom=    0.0000000   0.0000000   0.0000000   0.0000000   0.0000000   0.0000000   2.0440000   0.0000000   0.0000000   0.0000000
 NMagM=    0.0000000   0.0000000   0.0000000   0.0000000   0.0000000   0.0000000   0.4037610   0.0000000   0.0000000   0.0000000
 AtZNuc=   6.0000000   6.0000000   6.0000000   6.0000000   6.0000000   6.0000000   7.0000000   8.0000000   8.0000000   6.0000000

  Atom        21          22          23          24          25          26          27          28          29          30
 IAtWgt=          14          12          12          12          12          12          12          12          12          12
 AtmWgt=  14.0030740  12.0000000  12.0000000  12.0000000  12.0000000  12.0000000  12.0000000  12.0000000  12.0000000  12.0000000
 NucSpn=           2           0           0           0           0           0           0           0           0           0
 AtZEff=  -0.0000000  -0.0000000  -0.0000000  -0.0000000  -0.0000000  -0.0000000  -0.0000000  -0.0000000  -0.0000000  -0.0000000
 NQMom=    2.0440000   0.0000000   0.0000000   0.0000000   0.0000000   0.0000000   0.0000000   0.0000000   0.0000000   0.0000000
 NMagM=    0.4037610   0.0000000   0.0000000   0.0000000   0.0000000   0.0000000   0.0000000   0.0000000   0.0000000   0.0000000
 AtZNuc=   7.0000000   6.0000000   6.0000000   6.0000000   6.0000000   6.0000000   6.0000000   6.0000000   6.0000000   6.0000000

  Atom        31          32          33          34          35          36          37          38          39          40
 IAtWgt=          12          16          12          12          16          12          12          16          12          12
 AtmWgt=  12.0000000  15.9949146  12.0000000  12.0000000  15.9949146  12.0000000  12.0000000  15.9949146  12.0000000  12.0000000
 NucSpn=           0           0           0           0           0           0           0           0           0           0
 AtZEff=  -0.0000000  -0.0000000  -0.0000000  -0.0000000  -0.0000000  -0.0000000  -0.0000000  -0.0000000  -0.0000000  -0.0000000
 NQMom=    0.0000000   0.0000000   0.0000000   0.0000000   0.0000000   0.0000000   0.0000000   0.0000000   0.0000000   0.0000000
 NMagM=    0.0000000   0.0000000   0.0000000   0.0000000   0.0000000   0.0000000   0.0000000   0.0000000   0.0000000   0.0000000
 AtZNuc=   6.0000000   8.0000000   6.0000000   6.0000000   8.0000000   6.0000000   6.0000000   8.0000000   6.0000000   6.0000000

  Atom        41          42          43          44          45          46          47          48          49          50
 IAtWgt=          16          12          12          12          12          12          12          12          12          12
 AtmWgt=  15.9949146  12.0000000  12.0000000  12.0000000  12.0000000  12.0000000  12.0000000  12.0000000  12.0000000  12.0000000
 NucSpn=           0           0           0           0           0           0           0           0           0           0
 AtZEff=  -0.0000000  -0.0000000  -0.0000000  -0.0000000  -0.0000000  -0.0000000  -0.0000000  -0.0000000  -0.0000000  -0.0000000
 NQMom=    0.0000000   0.0000000   0.0000000   0.0000000   0.0000000   0.0000000   0.0000000   0.0000000   0.0000000   0.0000000
 NMagM=    0.0000000   0.0000000   0.0000000   0.0000000   0.0000000   0.0000000   0.0000000   0.0000000   0.0000000   0.0000000
 AtZNuc=   8.0000000   6.0000000   6.0000000   6.0000000   6.0000000   6.0000000   6.0000000   6.0000000   6.0000000   6.0000000

  Atom        51          52          53          54          55          56          57          58          59          60
 IAtWgt=          12          16          12          12          16          12          12          16          12          12
 AtmWgt=  12.0000000  15.9949146  12.0000000  12.0000000  15.9949146  12.0000000  12.0000000  15.9949146  12.0000000  12.0000000
 NucSpn=           0           0           0           0           0           0           0           0           0           0
 AtZEff=  -0.0000000  -0.0000000  -0.0000000  -0.0000000  -0.0000000  -0.0000000  -0.0000000  -0.0000000  -0.0000000  -0.0000000
 NQMom=    0.0000000   0.0000000   0.0000000   0.0000000   0.0000000   0.0000000   0.0000000   0.0000000   0.0000000   0.0000000
 NMagM=    0.0000000   0.0000000   0.0000000   0.0000000   0.0000000   0.0000000   0.0000000   0.0000000   0.0000000   0.0000000
 AtZNuc=   6.0000000   8.0000000   6.0000000   6.0000000   8.0000000   6.0000000   6.0000000   8.0000000   6.0000000   6.0000000

  Atom        61          62          63          64          65          66          67          68          69          70
 IAtWgt=          16          12          12          12          19          19           1           1           1           1
 AtmWgt=  15.9949146  12.0000000  12.0000000  12.0000000  18.9984033  18.9984033   1.0078250   1.0078250   1.0078250   1.0078250
 NucSpn=           0           0           0           0           1           1           1           1           1           1
 AtZEff=  -0.0000000  -0.0000000  -0.0000000  -0.0000000  -0.0000000  -0.0000000  -0.0000000  -0.0000000  -0.0000000  -0.0000000
 NQMom=    0.0000000   0.0000000   0.0000000   0.0000000   0.0000000   0.0000000   0.0000000   0.0000000   0.0000000   0.0000000
 NMagM=    0.0000000   0.0000000   0.0000000   0.0000000   2.6288670   2.6288670   2.7928460   2.7928460   2.7928460   2.7928460
 AtZNuc=   8.0000000   6.0000000   6.0000000   6.0000000   9.0000000   9.0000000   1.0000000   1.0000000   1.0000000   1.0000000

  Atom        71          72          73          74          75          76          77          78          79          80
 IAtWgt=           1           1           1           1           1           1           1           1           1           1
 AtmWgt=   1.0078250   1.0078250   1.0078250   1.0078250   1.0078250   1.0078250   1.0078250   1.0078250   1.0078250   1.0078250
 NucSpn=           1           1           1           1           1           1           1           1           1           1
 AtZEff=  -0.0000000  -0.0000000  -0.0000000  -0.0000000  -0.0000000  -0.0000000  -0.0000000  -0.0000000  -0.0000000  -0.0000000
 NQMom=    0.0000000   0.0000000   0.0000000   0.0000000   0.0000000   0.0000000   0.0000000   0.0000000   0.0000000   0.0000000
 NMagM=    2.7928460   2.7928460   2.7928460   2.7928460   2.7928460   2.7928460   2.7928460   2.7928460   2.7928460   2.7928460
 AtZNuc=   1.0000000   1.0000000   1.0000000   1.0000000   1.0000000   1.0000000   1.0000000   1.0000000   1.0000000   1.0000000

  Atom        81          82          83          84          85          86          87          88          89          90
 IAtWgt=           1           1           1           1           1           1           1           1           1           1
 AtmWgt=   1.0078250   1.0078250   1.0078250   1.0078250   1.0078250   1.0078250   1.0078250   1.0078250   1.0078250   1.0078250
 NucSpn=           1           1           1           1           1           1           1           1           1           1
 AtZEff=  -0.0000000  -0.0000000  -0.0000000  -0.0000000  -0.0000000  -0.0000000  -0.0000000  -0.0000000  -0.0000000  -0.0000000
 NQMom=    0.0000000   0.0000000   0.0000000   0.0000000   0.0000000   0.0000000   0.0000000   0.0000000   0.0000000   0.0000000
 NMagM=    2.7928460   2.7928460   2.7928460   2.7928460   2.7928460   2.7928460   2.7928460   2.7928460   2.7928460   2.7928460
 AtZNuc=   1.0000000   1.0000000   1.0000000   1.0000000   1.0000000   1.0000000   1.0000000   1.0000000   1.0000000   1.0000000

  Atom        91          92          93          94          95          96          97          98          99         100
 IAtWgt=           1           1           1           1           1           1           1           1           1           1
 AtmWgt=   1.0078250   1.0078250   1.0078250   1.0078250   1.0078250   1.0078250   1.0078250   1.0078250   1.0078250   1.0078250
 NucSpn=           1           1           1           1           1           1           1           1           1           1
 AtZEff=  -0.0000000  -0.0000000  -0.0000000  -0.0000000  -0.0000000  -0.0000000  -0.0000000  -0.0000000  -0.0000000  -0.0000000
 NQMom=    0.0000000   0.0000000   0.0000000   0.0000000   0.0000000   0.0000000   0.0000000   0.0000000   0.0000000   0.0000000
 NMagM=    2.7928460   2.7928460   2.7928460   2.7928460   2.7928460   2.7928460   2.7928460   2.7928460   2.7928460   2.7928460
 AtZNuc=   1.0000000   1.0000000   1.0000000   1.0000000   1.0000000   1.0000000   1.0000000   1.0000000   1.0000000   1.0000000

  Atom       101         102         103         104         105         106         107         108         109         110
 IAtWgt=           1           1           1           1           1           1           1           1           1           1
 AtmWgt=   1.0078250   1.0078250   1.0078250   1.0078250   1.0078250   1.0078250   1.0078250   1.0078250   1.0078250   1.0078250
 NucSpn=           1           1           1           1           1           1           1           1           1           1
 AtZEff=  -0.0000000  -0.0000000  -0.0000000  -0.0000000  -0.0000000  -0.0000000  -0.0000000  -0.0000000  -0.0000000  -0.0000000
 NQMom=    0.0000000   0.0000000   0.0000000   0.0000000   0.0000000   0.0000000   0.0000000   0.0000000   0.0000000   0.0000000
 NMagM=    2.7928460   2.7928460   2.7928460   2.7928460   2.7928460   2.7928460   2.7928460   2.7928460   2.7928460   2.7928460
 AtZNuc=   1.0000000   1.0000000   1.0000000   1.0000000   1.0000000   1.0000000   1.0000000   1.0000000   1.0000000   1.0000000

  Atom       111         112         113         114         115         116         117         118         119         120
 IAtWgt=           1           1           1           1           1           1           1           1           1           1
 AtmWgt=   1.0078250   1.0078250   1.0078250   1.0078250   1.0078250   1.0078250   1.0078250   1.0078250   1.0078250   1.0078250
 NucSpn=           1           1           1           1           1           1           1           1           1           1
 AtZEff=  -0.0000000  -0.0000000  -0.0000000  -0.0000000  -0.0000000  -0.0000000  -0.0000000  -0.0000000  -0.0000000  -0.0000000
 NQMom=    0.0000000   0.0000000   0.0000000   0.0000000   0.0000000   0.0000000   0.0000000   0.0000000   0.0000000   0.0000000
 NMagM=    2.7928460   2.7928460   2.7928460   2.7928460   2.7928460   2.7928460   2.7928460   2.7928460   2.7928460   2.7928460
 AtZNuc=   1.0000000   1.0000000   1.0000000   1.0000000   1.0000000   1.0000000   1.0000000   1.0000000   1.0000000   1.0000000

  Atom       121         122
 IAtWgt=           1           1
 AtmWgt=   1.0078250   1.0078250
 NucSpn=           1           1
 AtZEff=  -0.0000000  -0.0000000
 NQMom=    0.0000000   0.0000000
 NMagM=    2.7928460   2.7928460
 AtZNuc=   1.0000000   1.0000000
 Leave Link  101 at Wed Nov  5 21:57:26 2025, MaxMem= 30870077440 cpu:               4.6 elap:               0.1
 (Enter /public/software/gauss/g16/l202.exe)
 Stoichiometry    C49H56BF2N3O11(1-,2)
 Framework group  C1[X(C49H56BF2N3O11)]
 Deg. of freedom   360
 Full point group                 C1      NOp   1
 Largest Abelian subgroup         C1      NOp   1
 Largest concise Abelian subgroup C1      NOp   1
                         Standard orientation:                         
 ---------------------------------------------------------------------
 Center     Atomic      Atomic             Coordinates (Angstroms)
 Number     Number       Type             X           Y           Z
 ---------------------------------------------------------------------
      1          5           0       -3.142337   -0.164832   -1.137442
      2          7           0       -4.261762    0.895111   -1.046153
      3          6           0       -4.086580    2.150393   -0.486940
      4          6           0       -5.361578    2.690420   -0.241130
      5          6           0       -6.331888    1.771384   -0.634813
      6          6           0       -5.624999    0.638007   -1.164210
      7          6           0       -6.051397   -0.619928   -1.681784
      8          6           0       -7.483570   -0.940834   -1.789970
      9          8           0       -8.322040   -0.158379   -2.260460
     10          6           0       -7.984224   -2.263503   -1.176032
     11          6           0       -8.630388   -1.972852    0.161256
     12          6           0       -7.906309   -2.131218    1.353701
     13          6           0       -8.485035   -1.847211    2.584950
     14          6           0       -9.805024   -1.393251    2.613452
     15          6           0      -10.551581   -1.218048    1.446036
     16          6           0       -9.955501   -1.509282    0.225374
     17          7           0      -10.422836   -1.097849    3.897393
     18          8           0       -9.754953   -1.255803    4.926708
     19          8           0      -11.593827   -0.698882    3.913807
     20          6           0       -5.074597   -1.581558   -2.105858
     21          7           0       -3.728458   -1.441794   -1.768853
     22          6           0       -3.019518   -2.476181   -2.365229
     23          6           0       -3.925182   -3.239267   -3.116474
     24          6           0       -5.207745   -2.699089   -2.977048
     25          6           0       -6.419514   -3.193364   -3.714292
     26          6           0       -1.622683   -2.808789   -2.239220
     27          6           0       -0.693946   -2.351685   -1.359400
     28          6           0        0.705947   -2.765112   -1.295547
     29          6           0        1.316726   -3.650759   -2.214060
     30          6           0        2.650106   -4.009754   -2.094377
     31          6           0        3.436087   -3.494349   -1.049770
     32          8           0        4.743259   -3.909774   -1.024419
     33          6           0        5.588500   -3.429870    0.030285
     34          6           0        6.971130   -4.021609   -0.177420
     35          8           0        7.010642   -5.444936   -0.131294
     36          6           0        6.884611   -5.992284    1.181371
     37          6           0        7.177866   -7.474783    1.125335
     38          8           0        8.551967   -7.662062    0.790557
     39          6           0        8.911342   -9.017643    0.528726
     40          6           0        8.964789   -9.893714    1.777846
     41          8           0        9.789473   -9.370573    2.816945
     42          6           0       11.183953   -9.441531    2.537859
     43          6           0        2.862002   -2.611519   -0.128529
     44          6           0        1.518008   -2.261173   -0.262019
     45          6           0       -7.802961    2.019673   -0.469804
     46          6           0       -2.791565    2.728452   -0.254243
     47          6           0       -2.574826    3.901967    0.400237
     48          6           0       -1.286773    4.541728    0.638025
     49          6           0       -1.245352    5.760734    1.341392
     50          6           0       -0.049816    6.428834    1.606442
     51          6           0        1.157563    5.877520    1.162959
     52          8           0        2.392979    6.436796    1.364390
     53          6           0        2.467980    7.695212    2.049842
     54          6           0        3.921574    8.096987    2.130685
     55          8           0        4.393001    8.384850    0.814569
     56          6           0        5.747054    8.834666    0.769364
     57          6           0        6.745622    7.675189    0.820639
     58          8           0        8.084399    8.170752    0.712309
     59          6           0        8.573170    8.268320   -0.627071
     60          6           0        9.259686    6.971536   -1.042389
     61          8           0        9.732278    7.138217   -2.373364
     62          6           0       10.403621    5.980925   -2.854020
     63          6           0        1.145392    4.661151    0.458607
     64          6           0       -0.049987    4.009593    0.202227
     65          9           0       -2.082872    0.326188   -1.929878
     66          9           0       -2.635498   -0.422254    0.161782
     67          1           0       -5.559670    3.670289    0.173590
     68          1           0       -8.723433   -2.698963   -1.853987
     69          1           0       -7.162760   -2.965593   -1.038051
     70          1           0       -6.881731   -2.486850    1.315548
     71          1           0       -7.931318   -1.974387    3.506238
     72          1           0      -11.573901   -0.866563    1.499965
     73          1           0      -10.522937   -1.380335   -0.689986
     74          1           0       -3.657666   -4.107495   -3.706215
     75          1           0       -6.112395   -3.664551   -4.653330
     76          1           0       -6.988253   -3.944134   -3.152965
     77          1           0       -7.111729   -2.383572   -3.964641
     78          1           0       -1.327120   -3.581730   -2.946965
     79          1           0       -0.992824   -1.632305   -0.604930
     80          1           0        0.742357   -4.061912   -3.038347
     81          1           0        3.108533   -4.689807   -2.805807
     82          1           0        5.663367   -2.335656   -0.006170
     83          1           0        5.169575   -3.712377    1.002979
     84          1           0        7.338158   -3.743565   -1.170203
     85          1           0        7.647258   -3.588412    0.573787
     86          1           0        7.587394   -5.495794    1.866517
     87          1           0        5.869668   -5.853058    1.577982
     88          1           0        6.939608   -7.911003    2.104919
     89          1           0        6.535443   -7.958207    0.374336
     90          1           0        8.210892   -9.476035   -0.185890
     91          1           0        9.893254   -8.972429    0.048622
     92          1           0        7.968356   -9.995717    2.218158
     93          1           0        9.303205  -10.898303    1.479781
     94          1           0       11.706923   -9.146893    3.451278
     95          1           0       11.486060  -10.463466    2.268205
     96          1           0       11.485376   -8.762539    1.730023
     97          1           0        3.443181   -2.194002    0.684651
     98          1           0        1.083592   -1.574586    0.459963
     99          1           0       -8.318790    2.139888   -1.426783
    100          1           0       -8.306630    1.203706    0.057789
    101          1           0       -7.949604    2.934225    0.112679
    102          1           0       -1.948168    2.175857   -0.653612
    103          1           0       -3.431216    4.442518    0.800375
    104          1           0       -2.176933    6.198078    1.691011
    105          1           0       -0.072273    7.364473    2.151742
    106          1           0        1.892070    8.454009    1.506526
    107          1           0        2.061317    7.602007    3.063970
    108          1           0        4.001924    8.987996    2.770082
    109          1           0        4.502783    7.290826    2.597064
    110          1           0        5.859069    9.373194   -0.177226
    111          1           0        5.950942    9.539407    1.587398
    112          1           0        6.683126    7.150331    1.778605
    113          1           0        6.521047    6.954478    0.025001
    114          1           0        7.766874    8.508497   -1.330839
    115          1           0        9.294587    9.091594   -0.647567
    116          1           0       10.093160    6.755274   -0.356745
    117          1           0        8.553567    6.128634   -0.986643
    118          1           0       10.728218    6.192563   -3.875780
    119          1           0       11.284334    5.742500   -2.240779
    120          1           0        9.738970    5.105304   -2.863706
    121          1           0        2.089133    4.245263    0.119543
    122          1           0       -0.024139    3.072968   -0.345574
 ---------------------------------------------------------------------
 Rotational constants (GHZ):           0.0195745           0.0120017           0.0081924
 Leave Link  202 at Wed Nov  5 21:57:26 2025, MaxMem= 30870077440 cpu:               0.2 elap:               0.0
 (Enter /public/software/gauss/g16/l301.exe)
 Standard basis: def2TZVPP (5D, 7F)
 Ernie: Thresh=  0.10000D-02 Tol=  0.10000D-05 Strict=F.
 There are  3216 symmetry adapted cartesian basis functions of A   symmetry.
 There are  2830 symmetry adapted basis functions of A   symmetry.
  2830 basis functions,  4318 primitive gaussians,  3216 cartesian basis functions
   242 alpha electrons      241 beta electrons
       nuclear repulsion energy      8703.8857079386 Hartrees.
 IExCor= 4336 DFT=T Ex+Corr=M062X ExCW=0 ScaHFX=  0.540000
 ScaDFX=  1.000000  1.000000  1.000000  1.000000 ScalE2=  1.000000  1.000000
 IRadAn=      5 IRanWt=     -1 IRanGd=            0 ICorTp=0 IEmpDi=131
 NAtoms=  122 NActive=  122 NUniq=  122 SFac= 1.00D+00 NAtFMM=   60 NAOKFM=T Big=T
 Integral buffers will be    131072 words long.
 Raffenetti 2 integral format.
 Two-electron integral symmetry is turned on.
 R6Disp:  Grimme-D3 Dispersion energy=       -0.0094329468 Hartrees.
 Nuclear repulsion after empirical dispersion term =     8703.8762749918 Hartrees.
 ------------------------------------------------------------------------------
 Polarizable Continuum Model (PCM)
 =================================
 Model                : PCM.
 Atomic radii         : UFF (Universal Force Field).
 Polarization charges : Total charges.
 Charge compensation  : None.
 Solution method      : On-the-fly selection.
 Cavity type          : Scaled VdW (van der Waals Surface) (Alpha=1.100).
 Cavity algorithm     : GePol (No added spheres)
                        Default sphere list used, NSphG=  122.
                        Lebedev-Laikov grids with approx.  5.0 points / Ang**2.
                        Smoothing algorithm: York/Karplus (Gamma=1.0000).
                        Polarization charges: spherical gaussians, with
                                              point-specific exponents (IZeta= 3).
                        Self-potential: point-specific (ISelfS= 7).
                        Self-field    : sphere-specific E.n sum rule (ISelfD= 2).
 Solvent              : Water, Eps=  78.355300 Eps(inf)=   1.777849
 ------------------------------------------------------------------------------
 GePol: Number of generator spheres                  =     122
 GePol: Total number of spheres                      =     122
 GePol: Number of exposed spheres                    =     122 (100.00%)
 GePol: Number of points                             =    8606
 GePol: Average weight of points                     =       0.13
 GePol: Minimum weight of points                     =   0.20D-11
 GePol: Maximum weight of points                     =    0.20577
 GePol: Number of points with low weight             =     587
 GePol: Fraction of low-weight points (<1% of avg)   =       6.82%
 GePol: Cavity surface area                          =   1100.856 Ang**2
 GePol: Cavity volume                                =   1238.965 Ang**3
 Leave Link  301 at Wed Nov  5 21:57:27 2025, MaxMem= 30870077440 cpu:               4.8 elap:               0.1
 (Enter /public/software/gauss/g16/l302.exe)
 NPDir=0 NMtPBC=     1 NCelOv=     1 NCel=       1 NClECP=     1 NCelD=      1
         NCelK=      1 NCelE2=     1 NClLst=     1 CellRange=     0.0.
 One-electron integrals computed using PRISM.
 One-electron integral symmetry used in STVInt
   1 Symmetry operations used in ECPInt.
 ECPInt:  NShTT=  564453 NPrTT= 1565416 LenC2=  232435 LenP2D=  430218.
 LDataN:  DoStor=T MaxTD1= 6 Len=  172
 Number of processors reduced to  59 by ecpmxn.
 NBasis=  2830 RedAO= T EigKep=  6.28D-06  NBF=  2830
 NBsUse=  2830 1.00D-06 EigRej= -1.00D+00 NBFU=  2830
 Precomputing XC quadrature grid using
 IXCGrd= 4 IRadAn=           5 IRanWt=          -1 IRanGd=           0 AccXCQ= 0.00D+00.
 Generated NRdTot=       0 NPtTot=           0 NUsed=           0 NTot=          32
 NSgBfM=  2389  2389  2389  2389  2389 MxSgAt=   122 MxSgA2=   122.
 Leave Link  302 at Wed Nov  5 21:57:55 2025, MaxMem= 30870077440 cpu:            1786.9 elap:              28.0
 (Enter /public/software/gauss/g16/l303.exe)
 DipDrv:  MaxL=1.
 Leave Link  303 at Wed Nov  5 21:57:56 2025, MaxMem= 30870077440 cpu:              54.4 elap:               0.9
 (Enter /public/software/gauss/g16/l401.exe)
 ExpMin= 6.06D-02 ExpMax= 3.55D+04 ExpMxC= 1.21D+03 IAcc=3 IRadAn=         5 AccDes= 0.00D+00
 Harris functional with IExCor= 1009 and IRadAn=       5 diagonalized for initial guess.
 HarFok:  IExCor= 1009 AccDes= 0.00D+00 IRadAn=         5 IDoV= 1 UseB2=F ITyADJ=14
 ICtDFT=  3500011 ScaDFX=  1.000000  1.000000  1.000000  1.000000
 FoFCou: FMM=F IPFlag=           0 FMFlag=      100000 FMFlg1=        2001
         NFxFlg=           0 DoJE=T BraDBF=F KetDBF=T FulRan=T
         wScrn=  0.000000 ICntrl=       500 IOpCl=  0 I1Cent=   200000004 NGrid=           0
         NMat0=    1 NMatS0=      1 NMatT0=    0 NMatD0=    1 NMtDS0=    0 NMtDT0=    0
 Petite list used in FoFCou.
 Harris En= -3115.80726505718    
 JPrj=0 DoOrth=F DoCkMO=F.
 Initial guess <Sx>= 0.0000 <Sy>= 0.0000 <Sz>= 0.5000 <S**2>= 0.7500 S= 0.5000
 Leave Link  401 at Wed Nov  5 21:58:19 2025, MaxMem= 30870077440 cpu:            1472.1 elap:              23.1
 (Enter /public/software/gauss/g16/l502.exe)
 Integral symmetry usage will be decided dynamically.
 UHF open shell SCF:
 Using DIIS extrapolation, IDIIS=  1040.
 NGot= 30870077440 LenX= 30849159162 LenY= 30838813290
 Requested convergence on RMS density matrix=1.00D-08 within 128 cycles.
 Requested convergence on MAX density matrix=1.00D-06.
 Requested convergence on             energy=1.00D-06.
 No special actions if energy rises.
 Fock matrices will be formed incrementally for  20 cycles.

 Cycle   1  Pass 1  IDiag  1:
 FoFJK:  IHMeth= 1 ICntrl=       0 DoSepK=F KAlg= 0 I1Cent=           0 FoldK=F
 IRaf= 370000000 NMat=       1 IRICut=       1 DoRegI=T DoRafI=F ISym2E= 0 IDoP0=0 IntGTp=1.
 FoFCou: FMM=T IPFlag=           0 FMFlag=      100000 FMFlg1=        2001
         NFxFlg=           0 DoJE=F BraDBF=F KetDBF=F FulRan=T
         wScrn=  0.000000 ICntrl=         0 IOpCl=  1 I1Cent=           0 NGrid=           0
         NMat0=    1 NMatS0=      1 NMatT0=    0 NMatD0=    1 NMtDS0=    0 NMtDT0=    0
 Symmetry not used in FoFCou.
 FMM levels:  10  Number of levels for PrismC:   9
 Inv3:  Mode=1 IEnd=   222189708.
 Iteration    1 A*A^-1 deviation from unit magnitude is 1.82D-14 for   1993.
 Iteration    1 A*A^-1 deviation from orthogonality  is 6.85D-15 for   8585   3885.
 Iteration    1 A^-1*A deviation from unit magnitude is 1.95D-14 for   1993.
 Iteration    1 A^-1*A deviation from orthogonality  is 4.68D-13 for   3743   3665.
 E= -3115.76185035049    
 DIIS: error= 2.80D-02 at cycle   1 NSaved=   1.
 NSaved= 1 IEnMin= 1 EnMin= -3115.76185035049     IErMin= 1 ErrMin= 2.80D-02
 ErrMax= 2.80D-02  0.00D+00 EMaxC= 1.00D-01 BMatC= 8.14D+00 BMatP= 8.14D+00
 IDIUse=3 WtCom= 7.20D-01 WtEn= 2.80D-01
 Coeff-Com:  0.100D+01
 Coeff-En:   0.100D+01
 Coeff:      0.100D+01
 Gap=     0.080 Goal=   None    Shift=    0.000
 Gap=     0.119 Goal=   None    Shift=    0.000
 GapD=    0.080 DampG=0.500 DampE=0.500 DampFc=0.2500 IDamp=-1.
 Damping current iteration by 2.50D-01
 RMSDP=1.74D-03 MaxDP=6.84D-01              OVMax= 2.61D-01

 Cycle   2  Pass 1  IDiag  1:
 RMSU=  4.35D-04    CP:  1.01D+00
 E= -3116.28447605989     Delta-E=       -0.522625709402 Rises=F Damp=T
 DIIS: error= 1.27D-02 at cycle   2 NSaved=   2.
 NSaved= 2 IEnMin= 2 EnMin= -3116.28447605989     IErMin= 2 ErrMin= 1.27D-02
 ErrMax= 1.27D-02  0.00D+00 EMaxC= 1.00D-01 BMatC= 2.99D+00 BMatP= 8.14D+00
 IDIUse=3 WtCom= 8.73D-01 WtEn= 1.27D-01
 Coeff-Com: -0.123D+01 0.223D+01
 Coeff-En:   0.000D+00 0.100D+01
 Coeff:     -0.107D+01 0.207D+01
 Gap=     0.117 Goal=   None    Shift=    0.000
 Gap=     0.152 Goal=   None    Shift=    0.000
 RMSDP=6.95D-04 MaxDP=3.02D-01 DE=-5.23D-01 OVMax= 2.08D-01

 Cycle   3  Pass 1  IDiag  1:
 RMSU=  4.98D-04    CP:  1.00D+00  2.11D+00
 E= -3117.24814495052     Delta-E=       -0.963668890627 Rises=F Damp=F
 DIIS: error= 1.05D-02 at cycle   3 NSaved=   3.
 NSaved= 3 IEnMin= 3 EnMin= -3117.24814495052     IErMin= 3 ErrMin= 1.05D-02
 ErrMax= 1.05D-02  0.00D+00 EMaxC= 1.00D-01 BMatC= 2.91D-01 BMatP= 2.99D+00
 IDIUse=3 WtCom= 8.95D-01 WtEn= 1.05D-01
 Coeff-Com: -0.515D+00 0.856D+00 0.659D+00
 Coeff-En:   0.000D+00 0.000D+00 0.100D+01
 Coeff:     -0.461D+00 0.765D+00 0.695D+00
 Gap=     0.107 Goal=   None    Shift=    0.000
 Gap=     0.128 Goal=   None    Shift=    0.000
 RMSDP=1.66D-04 MaxDP=6.87D-02 DE=-9.64D-01 OVMax= 7.84D-02

 Cycle   4  Pass 1  IDiag  1:
 RMSU=  1.56D-04    CP:  1.01D+00  2.16D+00  8.92D-01
 E= -3117.28935794917     Delta-E=       -0.041212998649 Rises=F Damp=F
 DIIS: error= 4.91D-03 at cycle   4 NSaved=   4.
 NSaved= 4 IEnMin= 4 EnMin= -3117.28935794917     IErMin= 4 ErrMin= 4.91D-03
 ErrMax= 4.91D-03  0.00D+00 EMaxC= 1.00D-01 BMatC= 8.05D-02 BMatP= 2.91D-01
 IDIUse=3 WtCom= 9.51D-01 WtEn= 4.91D-02
 Coeff-Com: -0.734D-01 0.114D+00 0.359D+00 0.600D+00
 Coeff-En:   0.000D+00 0.000D+00 0.217D+00 0.783D+00
 Coeff:     -0.698D-01 0.108D+00 0.352D+00 0.609D+00
 Gap=     0.108 Goal=   None    Shift=    0.000
 Gap=     0.131 Goal=   None    Shift=    0.000
 RMSDP=8.02D-05 MaxDP=2.01D-02 DE=-4.12D-02 OVMax= 2.40D-02

 Cycle   5  Pass 1  IDiag  1:
 RMSU=  5.01D-05    CP:  1.00D+00  2.11D+00  9.43D-01  6.62D-01
 E= -3117.30484008269     Delta-E=       -0.015482133529 Rises=F Damp=F
 DIIS: error= 4.02D-04 at cycle   5 NSaved=   5.
 NSaved= 5 IEnMin= 5 EnMin= -3117.30484008269     IErMin= 5 ErrMin= 4.02D-04
 ErrMax= 4.02D-04  0.00D+00 EMaxC= 1.00D-01 BMatC= 2.42D-03 BMatP= 8.05D-02
 IDIUse=3 WtCom= 9.96D-01 WtEn= 4.02D-03
 Coeff-Com: -0.101D-01 0.143D-01 0.124D+00 0.263D+00 0.609D+00
 Coeff-En:   0.000D+00 0.000D+00 0.000D+00 0.000D+00 0.100D+01
 Coeff:     -0.101D-01 0.142D-01 0.124D+00 0.262D+00 0.611D+00
 Gap=     0.110 Goal=   None    Shift=    0.000
 Gap=     0.132 Goal=   None    Shift=    0.000
 RMSDP=2.51D-05 MaxDP=1.89D-02 DE=-1.55D-02 OVMax= 7.14D-03

 Cycle   6  Pass 1  IDiag  1:
 RMSU=  1.70D-05    CP:  1.00D+00  2.15D+00  9.34D-01  7.21D-01  9.99D-01
 E= -3117.30535916782     Delta-E=       -0.000519085124 Rises=F Damp=F
 DIIS: error= 1.68D-04 at cycle   6 NSaved=   6.
 NSaved= 6 IEnMin= 6 EnMin= -3117.30535916782     IErMin= 6 ErrMin= 1.68D-04
 ErrMax= 1.68D-04  0.00D+00 EMaxC= 1.00D-01 BMatC= 3.38D-04 BMatP= 2.42D-03
 IDIUse=3 WtCom= 9.98D-01 WtEn= 1.68D-03
 Coeff-Com:  0.397D-02-0.665D-02 0.158D-01 0.504D-01 0.282D+00 0.654D+00
 Coeff-En:   0.000D+00 0.000D+00 0.000D+00 0.000D+00 0.000D+00 0.100D+01
 Coeff:      0.396D-02-0.664D-02 0.158D-01 0.504D-01 0.282D+00 0.655D+00
 Gap=     0.111 Goal=   None    Shift=    0.000
 Gap=     0.133 Goal=   None    Shift=    0.000
 RMSDP=9.93D-06 MaxDP=3.56D-03 DE=-5.19D-04 OVMax= 5.58D-03

 Cycle   7  Pass 1  IDiag  1:
 RMSU=  6.03D-06    CP:  1.00D+00  2.14D+00  9.41D-01  7.19D-01  1.11D+00
                    CP:  1.06D+00
 E= -3117.30547517329     Delta-E=       -0.000116005476 Rises=F Damp=F
 DIIS: error= 5.36D-05 at cycle   7 NSaved=   7.
 NSaved= 7 IEnMin= 7 EnMin= -3117.30547517329     IErMin= 7 ErrMin= 5.36D-05
 ErrMax= 5.36D-05  0.00D+00 EMaxC= 1.00D-01 BMatC= 6.14D-05 BMatP= 3.38D-04
 IDIUse=1 WtCom= 1.00D+00 WtEn= 0.00D+00
 Coeff-Com:  0.336D-02-0.513D-02-0.183D-01-0.328D-01-0.960D-02 0.251D+00
 Coeff-Com:  0.811D+00
 Coeff:      0.336D-02-0.513D-02-0.183D-01-0.328D-01-0.960D-02 0.251D+00
 Coeff:      0.811D+00
 Gap=     0.112 Goal=   None    Shift=    0.000
 Gap=     0.134 Goal=   None    Shift=    0.000
 RMSDP=7.56D-06 MaxDP=6.91D-03 DE=-1.16D-04 OVMax= 3.85D-03

 Cycle   8  Pass 1  IDiag  1:
 RMSU=  3.62D-06    CP:  1.00D+00  2.14D+00  9.44D-01  7.35D-01  1.18D+00
                    CP:  1.27D+00  1.57D+00
 E= -3117.30552027802     Delta-E=       -0.000045104722 Rises=F Damp=F
 DIIS: error= 3.40D-05 at cycle   8 NSaved=   8.
 NSaved= 8 IEnMin= 8 EnMin= -3117.30552027802     IErMin= 8 ErrMin= 3.40D-05
 ErrMax= 3.40D-05  0.00D+00 EMaxC= 1.00D-01 BMatC= 2.08D-05 BMatP= 6.14D-05
 IDIUse=1 WtCom= 1.00D+00 WtEn= 0.00D+00
 Coeff-Com:  0.359D-03-0.372D-03-0.126D-01-0.296D-01-0.877D-01-0.912D-01
 Coeff-Com:  0.370D+00 0.851D+00
 Coeff:      0.359D-03-0.372D-03-0.126D-01-0.296D-01-0.877D-01-0.912D-01
 Coeff:      0.370D+00 0.851D+00
 Gap=     0.112 Goal=   None    Shift=    0.000
 Gap=     0.135 Goal=   None    Shift=    0.000
 RMSDP=4.74D-06 MaxDP=2.09D-03 DE=-4.51D-05 OVMax= 2.95D-03

 Cycle   9  Pass 1  IDiag  1:
 RMSU=  1.85D-06    CP:  1.00D+00  2.14D+00  9.46D-01  7.38D-01  1.22D+00
                    CP:  1.37D+00  2.05D+00  1.37D+00
 E= -3117.30553963904     Delta-E=       -0.000019361025 Rises=F Damp=F
 DIIS: error= 1.70D-05 at cycle   9 NSaved=   9.
 NSaved= 9 IEnMin= 9 EnMin= -3117.30553963904     IErMin= 9 ErrMin= 1.70D-05
 ErrMax= 1.70D-05  0.00D+00 EMaxC= 1.00D-01 BMatC= 4.32D-06 BMatP= 2.08D-05
 IDIUse=1 WtCom= 1.00D+00 WtEn= 0.00D+00
 Coeff-Com: -0.901D-03 0.141D-02 0.197D-02 0.111D-02-0.233D-01-0.102D+00
 Coeff-Com: -0.133D+00 0.245D+00 0.101D+01
 Coeff:     -0.901D-03 0.141D-02 0.197D-02 0.111D-02-0.233D-01-0.102D+00
 Coeff:     -0.133D+00 0.245D+00 0.101D+01
 Gap=     0.113 Goal=   None    Shift=    0.000
 Gap=     0.135 Goal=   None    Shift=    0.000
 RMSDP=3.06D-06 MaxDP=1.17D-03 DE=-1.94D-05 OVMax= 1.98D-03

 Cycle  10  Pass 1  IDiag  1:
 RMSU=  1.05D-06    CP:  1.00D+00  2.13D+00  9.47D-01  7.41D-01  1.23D+00
                    CP:  1.42D+00  2.37D+00  1.76D+00  1.65D+00
 E= -3117.30554524885     Delta-E=       -0.000005609807 Rises=F Damp=F
 DIIS: error= 8.36D-06 at cycle  10 NSaved=  10.
 NSaved=10 IEnMin=10 EnMin= -3117.30554524885     IErMin=10 ErrMin= 8.36D-06
 ErrMax= 8.36D-06  0.00D+00 EMaxC= 1.00D-01 BMatC= 1.28D-06 BMatP= 4.32D-06
 IDIUse=1 WtCom= 1.00D+00 WtEn= 0.00D+00
 Coeff-Com: -0.467D-03 0.696D-03 0.373D-02 0.737D-02 0.979D-02-0.224D-01
 Coeff-Com: -0.141D+00-0.889D-01 0.448D+00 0.783D+00
 Coeff:     -0.467D-03 0.696D-03 0.373D-02 0.737D-02 0.979D-02-0.224D-01
 Coeff:     -0.141D+00-0.889D-01 0.448D+00 0.783D+00
 Gap=     0.113 Goal=   None    Shift=    0.000
 Gap=     0.136 Goal=   None    Shift=    0.000
 RMSDP=1.57D-06 MaxDP=1.10D-03 DE=-5.61D-06 OVMax= 8.03D-04

 Cycle  11  Pass 1  IDiag  1:
 RMSU=  5.28D-07    CP:  1.00D+00  2.13D+00  9.47D-01  7.40D-01  1.23D+00
                    CP:  1.41D+00  2.47D+00  1.91D+00  2.15D+00  1.52D+00
 E= -3117.30554639248     Delta-E=       -0.000001143628 Rises=F Damp=F
 DIIS: error= 3.89D-06 at cycle  11 NSaved=  11.
 NSaved=11 IEnMin=11 EnMin= -3117.30554639248     IErMin=11 ErrMin= 3.89D-06
 ErrMax= 3.89D-06  0.00D+00 EMaxC= 1.00D-01 BMatC= 2.29D-07 BMatP= 1.28D-06
 IDIUse=1 WtCom= 1.00D+00 WtEn= 0.00D+00
 Coeff-Com:  0.380D-04-0.660D-04 0.749D-03 0.205D-02 0.734D-02 0.127D-01
 Coeff-Com: -0.174D-01-0.740D-01-0.677D-01 0.231D+00 0.905D+00
 Coeff:      0.380D-04-0.660D-04 0.749D-03 0.205D-02 0.734D-02 0.127D-01
 Coeff:     -0.174D-01-0.740D-01-0.677D-01 0.231D+00 0.905D+00
 Gap=     0.113 Goal=   None    Shift=    0.000
 Gap=     0.136 Goal=   None    Shift=    0.000
 RMSDP=9.60D-07 MaxDP=1.06D-03 DE=-1.14D-06 OVMax= 4.91D-04

 Cycle  12  Pass 1  IDiag  1:
 RMSU=  2.38D-07    CP:  1.00D+00  2.13D+00  9.46D-01  7.40D-01  1.23D+00
                    CP:  1.39D+00  2.49D+00  1.97D+00  2.46D+00  1.96D+00
                    CP:  1.53D+00
 E= -3117.30554673387     Delta-E=       -0.000000341395 Rises=F Damp=F
 DIIS: error= 2.52D-06 at cycle  12 NSaved=  12.
 NSaved=12 IEnMin=12 EnMin= -3117.30554673387     IErMin=12 ErrMin= 2.52D-06
 ErrMax= 2.52D-06  0.00D+00 EMaxC= 1.00D-01 BMatC= 7.25D-08 BMatP= 2.29D-07
 IDIUse=1 WtCom= 1.00D+00 WtEn= 0.00D+00
 Coeff-Com:  0.122D-03-0.184D-03-0.726D-03-0.133D-02-0.488D-03 0.786D-02
 Coeff-Com:  0.297D-01 0.345D-02-0.131D+00-0.137D+00 0.269D+00 0.960D+00
 Coeff:      0.122D-03-0.184D-03-0.726D-03-0.133D-02-0.488D-03 0.786D-02
 Coeff:      0.297D-01 0.345D-02-0.131D+00-0.137D+00 0.269D+00 0.960D+00
 Gap=     0.113 Goal=   None    Shift=    0.000
 Gap=     0.136 Goal=   None    Shift=    0.000
 RMSDP=6.67D-07 MaxDP=7.77D-04 DE=-3.41D-07 OVMax= 3.95D-04

 Cycle  13  Pass 1  IDiag  1:
 RMSU=  1.20D-07    CP:  1.00D+00  2.13D+00  9.46D-01  7.39D-01  1.22D+00
                    CP:  1.38D+00  2.50D+00  2.00D+00  2.65D+00  2.26D+00
                    CP:  2.03D+00  1.58D+00
 E= -3117.30554687290     Delta-E=       -0.000000139029 Rises=F Damp=F
 DIIS: error= 1.45D-06 at cycle  13 NSaved=  13.
 NSaved=13 IEnMin=13 EnMin= -3117.30554687290     IErMin=13 ErrMin= 1.45D-06
 ErrMax= 1.45D-06  0.00D+00 EMaxC= 1.00D-01 BMatC= 2.59D-08 BMatP= 7.25D-08
 IDIUse=1 WtCom= 1.00D+00 WtEn= 0.00D+00
 Coeff-Com:  0.331D-04-0.472D-04-0.491D-03-0.113D-02-0.219D-02-0.996D-03
 Coeff-Com:  0.167D-01 0.230D-01-0.282D-01-0.121D+00-0.172D+00 0.343D+00
 Coeff-Com:  0.943D+00
 Coeff:      0.331D-04-0.472D-04-0.491D-03-0.113D-02-0.219D-02-0.996D-03
 Coeff:      0.167D-01 0.230D-01-0.282D-01-0.121D+00-0.172D+00 0.343D+00
 Coeff:      0.943D+00
 Gap=     0.113 Goal=   None    Shift=    0.000
 Gap=     0.136 Goal=   None    Shift=    0.000
 RMSDP=3.84D-07 MaxDP=4.54D-04 DE=-1.39D-07 OVMax= 2.58D-04

 Cycle  14  Pass 1  IDiag  1:
 RMSU=  5.77D-08    CP:  1.00D+00  2.13D+00  9.46D-01  7.38D-01  1.22D+00
                    CP:  1.37D+00  2.50D+00  2.01D+00  2.75D+00  2.43D+00
                    CP:  2.31D+00  2.11D+00  1.58D+00
 E= -3117.30554692472     Delta-E=       -0.000000051816 Rises=F Damp=F
 DIIS: error= 8.80D-07 at cycle  14 NSaved=  14.
 NSaved=14 IEnMin=14 EnMin= -3117.30554692472     IErMin=14 ErrMin= 8.80D-07
 ErrMax= 8.80D-07  0.00D+00 EMaxC= 1.00D-01 BMatC= 8.76D-09 BMatP= 2.59D-08
 IDIUse=1 WtCom= 1.00D+00 WtEn= 0.00D+00
 Coeff-Com: -0.315D-04 0.482D-04 0.817D-04 0.332D-04-0.696D-03-0.364D-02
 Coeff-Com: -0.473D-02 0.698D-02 0.380D-01 0.265D-02-0.166D+00-0.206D+00
 Coeff-Com:  0.376D+00 0.957D+00
 Coeff:     -0.315D-04 0.482D-04 0.817D-04 0.332D-04-0.696D-03-0.364D-02
 Coeff:     -0.473D-02 0.698D-02 0.380D-01 0.265D-02-0.166D+00-0.206D+00
 Coeff:      0.376D+00 0.957D+00
 Gap=     0.113 Goal=   None    Shift=    0.000
 Gap=     0.136 Goal=   None    Shift=    0.000
 RMSDP=1.93D-07 MaxDP=1.80D-04 DE=-5.18D-08 OVMax= 1.50D-04

 Cycle  15  Pass 1  IDiag  1:
 RMSU=  3.94D-08    CP:  1.00D+00  2.13D+00  9.46D-01  7.38D-01  1.22D+00
                    CP:  1.37D+00  2.50D+00  2.01D+00  2.80D+00  2.50D+00
                    CP:  2.45D+00  2.42D+00  2.10D+00  1.51D+00
 E= -3117.30554694230     Delta-E=       -0.000000017584 Rises=F Damp=F
 DIIS: error= 4.76D-07 at cycle  15 NSaved=  15.
 NSaved=15 IEnMin=15 EnMin= -3117.30554694230     IErMin=15 ErrMin= 4.76D-07
 ErrMax= 4.76D-07  0.00D+00 EMaxC= 1.00D-01 BMatC= 2.44D-09 BMatP= 8.76D-09
 IDIUse=1 WtCom= 1.00D+00 WtEn= 0.00D+00
 Coeff-Com: -0.170D-04 0.256D-04 0.166D-03 0.326D-03 0.401D-03-0.897D-03
 Coeff-Com: -0.635D-02-0.514D-02 0.208D-01 0.384D-01 0.479D-03-0.167D+00
 Coeff-Com: -0.166D+00 0.337D+00 0.948D+00
 Coeff:     -0.170D-04 0.256D-04 0.166D-03 0.326D-03 0.401D-03-0.897D-03
 Coeff:     -0.635D-02-0.514D-02 0.208D-01 0.384D-01 0.479D-03-0.167D+00
 Coeff:     -0.166D+00 0.337D+00 0.948D+00
 Gap=     0.113 Goal=   None    Shift=    0.000
 Gap=     0.136 Goal=   None    Shift=    0.000
 RMSDP=6.44D-08 MaxDP=1.41D-05 DE=-1.76D-08 OVMax= 6.00D-05

 Cycle  16  Pass 1  IDiag  1:
 RMSU=  2.04D-08    CP:  1.00D+00  2.13D+00  9.46D-01  7.38D-01  1.22D+00
                    CP:  1.37D+00  2.50D+00  2.01D+00  2.80D+00  2.51D+00
                    CP:  2.47D+00  2.53D+00  2.34D+00  2.06D+00  1.49D+00
 E= -3117.30554694609     Delta-E=       -0.000000003793 Rises=F Damp=F
 DIIS: error= 2.84D-07 at cycle  16 NSaved=  16.
 NSaved=16 IEnMin=16 EnMin= -3117.30554694609     IErMin=16 ErrMin= 2.84D-07
 ErrMax= 2.84D-07  0.00D+00 EMaxC= 1.00D-01 BMatC= 6.54D-10 BMatP= 2.44D-09
 IDIUse=1 WtCom= 1.00D+00 WtEn= 0.00D+00
 Coeff-Com:  0.301D-05-0.450D-05 0.351D-04 0.104D-03 0.316D-03 0.673D-03
 Coeff-Com: -0.868D-03-0.361D-02-0.334D-02 0.121D-01 0.439D-01 0.123D-02
 Coeff-Com: -0.157D+00-0.138D+00 0.308D+00 0.936D+00
 Coeff:      0.301D-05-0.450D-05 0.351D-04 0.104D-03 0.316D-03 0.673D-03
 Coeff:     -0.868D-03-0.361D-02-0.334D-02 0.121D-01 0.439D-01 0.123D-02
 Coeff:     -0.157D+00-0.138D+00 0.308D+00 0.936D+00
 Gap=     0.113 Goal=   None    Shift=    0.000
 Gap=     0.136 Goal=   None    Shift=    0.000
 RMSDP=3.77D-08 MaxDP=2.88D-05 DE=-3.79D-09 OVMax= 3.20D-05

 Cycle  17  Pass 1  IDiag  1:
 RMSU=  1.06D-08    CP:  1.00D+00  2.13D+00  9.46D-01  7.38D-01  1.22D+00
                    CP:  1.37D+00  2.51D+00  2.02D+00  2.80D+00  2.51D+00
                    CP:  2.46D+00  2.55D+00  2.44D+00  2.32D+00  1.92D+00
                    CP:  1.66D+00
 E= -3117.30554694728     Delta-E=       -0.000000001182 Rises=F Damp=F
 DIIS: error= 2.29D-07 at cycle  17 NSaved=  17.
 NSaved=17 IEnMin=17 EnMin= -3117.30554694728     IErMin=17 ErrMin= 2.29D-07
 ErrMax= 2.29D-07  0.00D+00 EMaxC= 1.00D-01 BMatC= 2.63D-10 BMatP= 6.54D-10
 IDIUse=1 WtCom= 1.00D+00 WtEn= 0.00D+00
 Coeff-Com:  0.572D-05-0.870D-05-0.325D-04-0.449D-04 0.276D-04 0.577D-03
 Coeff-Com:  0.145D-02-0.106D-03-0.793D-02-0.575D-02 0.213D-01 0.537D-01
 Coeff-Com: -0.241D-01-0.167D+00-0.150D+00 0.460D+00 0.818D+00
 Coeff:      0.572D-05-0.870D-05-0.325D-04-0.449D-04 0.276D-04 0.577D-03
 Coeff:      0.145D-02-0.106D-03-0.793D-02-0.575D-02 0.213D-01 0.537D-01
 Coeff:     -0.241D-01-0.167D+00-0.150D+00 0.460D+00 0.818D+00
 Gap=     0.113 Goal=   None    Shift=    0.000
 Gap=     0.136 Goal=   None    Shift=    0.000
 RMSDP=2.56D-08 MaxDP=2.35D-05 DE=-1.18D-09 OVMax= 1.78D-05

 Cycle  18  Pass 1  IDiag  1:
 RMSU=  6.20D-09    CP:  1.00D+00  2.13D+00  9.46D-01  7.38D-01  1.22D+00
                    CP:  1.37D+00  2.50D+00  2.01D+00  2.80D+00  2.51D+00
                    CP:  2.44D+00  2.55D+00  2.46D+00  2.45D+00  2.13D+00
                    CP:  2.17D+00  1.41D+00
 E= -3117.30554694754     Delta-E=       -0.000000000267 Rises=F Damp=F
 DIIS: error= 1.69D-07 at cycle  18 NSaved=  18.
 NSaved=18 IEnMin=18 EnMin= -3117.30554694754     IErMin=18 ErrMin= 1.69D-07
 ErrMax= 1.69D-07  0.00D+00 EMaxC= 1.00D-01 BMatC= 9.81D-11 BMatP= 2.63D-10
 IDIUse=1 WtCom= 1.00D+00 WtEn= 0.00D+00
 Coeff-Com:  0.208D-05-0.328D-05-0.295D-04-0.558D-04-0.767D-04 0.144D-03
 Coeff-Com:  0.107D-02 0.109D-02-0.368D-02-0.688D-02-0.587D-03 0.310D-01
 Coeff-Com:  0.308D-01-0.556D-01-0.176D+00-0.878D-02 0.471D+00 0.717D+00
 Coeff:      0.208D-05-0.328D-05-0.295D-04-0.558D-04-0.767D-04 0.144D-03
 Coeff:      0.107D-02 0.109D-02-0.368D-02-0.688D-02-0.587D-03 0.310D-01
 Coeff:      0.308D-01-0.556D-01-0.176D+00-0.878D-02 0.471D+00 0.717D+00
 Gap=     0.113 Goal=   None    Shift=    0.000
 Gap=     0.136 Goal=   None    Shift=    0.000
 RMSDP=1.31D-08 MaxDP=8.95D-06 DE=-2.67D-10 OVMax= 1.02D-05

 Cycle  19  Pass 1  IDiag  1:
 RMSU=  3.04D-09    CP:  1.00D+00  2.13D+00  9.46D-01  7.38D-01  1.22D+00
                    CP:  1.37D+00  2.50D+00  2.01D+00  2.79D+00  2.51D+00
                    CP:  2.44D+00  2.55D+00  2.47D+00  2.50D+00  2.22D+00
                    CP:  2.44D+00  1.87D+00  1.33D+00
 E= -3117.30554694735     Delta-E=        0.000000000193 Rises=F Damp=F
 DIIS: error= 6.53D-08 at cycle  19 NSaved=  19.
 NSaved=19 IEnMin=18 EnMin= -3117.30554694754     IErMin=19 ErrMin= 6.53D-08
 ErrMax= 6.53D-08  0.00D+00 EMaxC= 1.00D-01 BMatC= 2.25D-11 BMatP= 9.81D-11
 IDIUse=1 WtCom= 1.00D+00 WtEn= 0.00D+00
 Coeff-Com: -0.143D-05 0.205D-05-0.789D-06-0.639D-05-0.418D-04-0.143D-03
 Coeff-Com: -0.102D-03 0.575D-03 0.129D-02-0.784D-03-0.815D-02-0.663D-02
 Coeff-Com:  0.201D-01 0.386D-01-0.163D-01-0.176D+00-0.967D-01 0.299D+00
 Coeff-Com:  0.946D+00
 Coeff:     -0.143D-05 0.205D-05-0.789D-06-0.639D-05-0.418D-04-0.143D-03
 Coeff:     -0.102D-03 0.575D-03 0.129D-02-0.784D-03-0.815D-02-0.663D-02
 Coeff:      0.201D-01 0.386D-01-0.163D-01-0.176D+00-0.967D-01 0.299D+00
 Coeff:      0.946D+00
 Gap=     0.113 Goal=   None    Shift=    0.000
 Gap=     0.136 Goal=   None    Shift=    0.000
 RMSDP=7.90D-09 MaxDP=3.00D-06 DE= 1.93D-10 OVMax= 8.13D-06

 Cycle  20  Pass 1  IDiag  1:
 RMSU=  1.96D-09    CP:  1.00D+00  2.13D+00  9.46D-01  7.38D-01  1.22D+00
                    CP:  1.37D+00  2.50D+00  2.01D+00  2.79D+00  2.51D+00
                    CP:  2.43D+00  2.55D+00  2.48D+00  2.52D+00  2.27D+00
                    CP:  2.62D+00  2.19D+00  1.83D+00  1.47D+00
 E= -3117.30554694792     Delta-E=       -0.000000000569 Rises=F Damp=F
 DIIS: error= 2.76D-08 at cycle  20 NSaved=  20.
 NSaved=20 IEnMin=20 EnMin= -3117.30554694792     IErMin=20 ErrMin= 2.76D-08
 ErrMax= 2.76D-08  0.00D+00 EMaxC= 1.00D-01 BMatC= 6.02D-12 BMatP= 2.25D-11
 IDIUse=1 WtCom= 1.00D+00 WtEn= 0.00D+00
 Coeff-Com: -0.122D-05 0.183D-05 0.657D-05 0.998D-05-0.230D-05-0.101D-03
 Coeff-Com: -0.314D-03 0.182D-04 0.146D-02 0.132D-02-0.347D-02-0.102D-01
 Coeff-Com:  0.162D-02 0.313D-01 0.348D-01-0.829D-01-0.154D+00-0.394D-01
 Coeff-Com:  0.423D+00 0.797D+00
 Coeff:     -0.122D-05 0.183D-05 0.657D-05 0.998D-05-0.230D-05-0.101D-03
 Coeff:     -0.314D-03 0.182D-04 0.146D-02 0.132D-02-0.347D-02-0.102D-01
 Coeff:      0.162D-02 0.313D-01 0.348D-01-0.829D-01-0.154D+00-0.394D-01
 Coeff:      0.423D+00 0.797D+00
 Gap=     0.113 Goal=   None    Shift=    0.000
 Gap=     0.136 Goal=   None    Shift=    0.000
 RMSDP=3.31D-09 MaxDP=1.69D-06 DE=-5.69D-10 OVMax= 4.10D-06

 Cycle  21  Pass 1  IDiag  1:
 Restarting incremental Fock formation.
 E= -3117.30554694724     Delta-E=        0.000000000677 Rises=F Damp=F
 DIIS: error= 1.04D-08 at cycle  21 NSaved=  20.
 NSaved=20 IEnMin=19 EnMin= -3117.30554694792     IErMin=20 ErrMin= 1.04D-08
 ErrMax= 1.04D-08  0.00D+00 EMaxC= 1.00D-01 BMatC= 1.60D-12 BMatP= 6.02D-12
 IDIUse=1 WtCom= 1.00D+00 WtEn= 0.00D+00
 Coeff-Com:  0.509D-07 0.199D-05 0.389D-05 0.984D-05 0.995D-05-0.577D-04
 Coeff-Com: -0.142D-03 0.573D-04 0.555D-03 0.113D-02-0.104D-02-0.525D-02
 Coeff-Com: -0.147D-02 0.135D-01 0.229D-01-0.113D-01-0.906D-01-0.145D+00
 Coeff-Com:  0.227D+00 0.989D+00
 Coeff:      0.509D-07 0.199D-05 0.389D-05 0.984D-05 0.995D-05-0.577D-04
 Coeff:     -0.142D-03 0.573D-04 0.555D-03 0.113D-02-0.104D-02-0.525D-02
 Coeff:     -0.147D-02 0.135D-01 0.229D-01-0.113D-01-0.906D-01-0.145D+00
 Coeff:      0.227D+00 0.989D+00
 Gap=     0.113 Goal=   None    Shift=    0.000
 Gap=     0.136 Goal=   None    Shift=    0.000
 RMSDP=5.88D-09 MaxDP=1.32D-06 DE= 6.77D-10 OVMax= 2.77D-06

 Cycle  22  Pass 1  IDiag  1:
 RMSU=  5.88D-09    CP:  1.00D+00
 E= -3117.30554694762     Delta-E=       -0.000000000375 Rises=F Damp=F
 DIIS: error= 6.88D-09 at cycle  22 NSaved=  20.
 NSaved=20 IEnMin=18 EnMin= -3117.30554694792     IErMin=20 ErrMin= 6.88D-09
 ErrMax= 6.88D-09  0.00D+00 EMaxC= 1.00D-01 BMatC= 5.37D-13 BMatP= 1.60D-12
 IDIUse=1 WtCom= 1.00D+00 WtEn= 0.00D+00
 Coeff-Com:  0.337D-06 0.805D-06 0.574D-05 0.171D-04 0.267D-04-0.648D-04
 Coeff-Com: -0.208D-03-0.217D-04 0.105D-02 0.164D-02-0.215D-02-0.698D-02
 Coeff-Com: -0.360D-02 0.269D-01 0.356D-01-0.213D-01-0.164D+00-0.133D+00
 Coeff-Com:  0.318D+00 0.947D+00
 Coeff:      0.337D-06 0.805D-06 0.574D-05 0.171D-04 0.267D-04-0.648D-04
 Coeff:     -0.208D-03-0.217D-04 0.105D-02 0.164D-02-0.215D-02-0.698D-02
 Coeff:     -0.360D-02 0.269D-01 0.356D-01-0.213D-01-0.164D+00-0.133D+00
 Coeff:      0.318D+00 0.947D+00
 Gap=     0.113 Goal=   None    Shift=    0.000
 Gap=     0.136 Goal=   None    Shift=    0.000
 RMSDP=2.17D-09 MaxDP=6.51D-07 DE=-3.75D-10 OVMax= 1.73D-06

 Error on total polarization charges =  0.03146
 SCF Done:  E(UM062X) =  -3117.30554695     A.U. after   22 cycles
            NFock= 22  Conv=0.22D-08     -V/T= 2.0054
 <Sx>= 0.0000 <Sy>= 0.0000 <Sz>= 0.5000 <S**2>= 0.7843 S= 0.5170
 <L.S>= 0.000000000000E+00
 KE= 3.100630511485D+03 PE=-2.472620361874D+04 EE= 9.804391285313D+03
 Annihilation of the first spin contaminant:
 S**2 before annihilation     0.7843,   after     0.7510
 Leave Link  502 at Wed Nov  5 22:59:18 2025, MaxMem= 30870077440 cpu:          230967.9 elap:            3658.8
 (Enter /public/software/gauss/g16/l601.exe)
 Copying SCF densities to generalized density rwf, IOpCl= 1 IROHF=0.
 Hyperfine terms turned off by default for NAtoms > 100.

 **********************************************************************

            Population analysis using the SCF density.

 **********************************************************************

 Orbital symmetries:
 Alpha Orbitals:
       Occupied  (A) (A) (A) (A) (A) (A) (A) (A) (A) (A) (A) (A)
                 (A) (A) (A) (A) (A) (A) (A) (A) (A) (A) (A) (A)
                 (A) (A) (A) (A) (A) (A) (A) (A) (A) (A) (A) (A)
                 (A) (A) (A) (A) (A) (A) (A) (A) (A) (A) (A) (A)
                 (A) (A) (A) (A) (A) (A) (A) (A) (A) (A) (A) (A)
                 (A) (A) (A) (A) (A) (A) (A) (A) (A) (A) (A) (A)
                 (A) (A) (A) (A) (A) (A) (A) (A) (A) (A) (A) (A)
                 (A) (A) (A) (A) (A) (A) (A) (A) (A) (A) (A) (A)
                 (A) (A) (A) (A) (A) (A) (A) (A) (A) (A) (A) (A)
                 (A) (A) (A) (A) (A) (A) (A) (A) (A) (A) (A) (A)
                 (A) (A) (A) (A) (A) (A) (A) (A) (A) (A) (A) (A)
                 (A) (A) (A) (A) (A) (A) (A) (A) (A) (A) (A) (A)
                 (A) (A) (A) (A) (A) (A) (A) (A) (A) (A) (A) (A)
                 (A) (A) (A) (A) (A) (A) (A) (A) (A) (A) (A) (A)
                 (A) (A) (A) (A) (A) (A) (A) (A) (A) (A) (A) (A)
                 (A) (A) (A) (A) (A) (A) (A) (A) (A) (A) (A) (A)
                 (A) (A) (A) (A) (A) (A) (A) (A) (A) (A) (A) (A)
                 (A) (A) (A) (A) (A) (A) (A) (A) (A) (A) (A) (A)
                 (A) (A) (A) (A) (A) (A) (A) (A) (A) (A) (A) (A)
                 (A) (A) (A) (A) (A) (A) (A) (A) (A) (A) (A) (A)
                 (A) (A)
       Virtual   (A) (A) (A) (A) (A) (A) (A) (A) (A) (A) (A) (A)
                 (A) (A) (A) (A) (A) (A) (A) (A) (A) (A) (A) (A)
                 (A) (A) (A) (A) (A) (A) (A) (A) (A) (A) (A) (A)
                 (A) (A) (A) (A) (A) (A) (A) (A) (A) (A) (A) (A)
                 (A) (A) (A) (A) (A) (A) (A) (A) (A) (A) (A) (A)
                 (A) (A) (A) (A) (A) (A) (A) (A) (A) (A) (A) (A)
                 (A) (A) (A) (A) (A) (A) (A) (A) (A) (A) (A) (A)
                 (A) (A) (A) (A) (A) (A) (A) (A) (A) (A) (A) (A)
                 (A) (A) (A) (A) (A) (A) (A) (A) (A) (A) (A) (A)
                 (A) (A) (A) (A) (A) (A) (A) (A) (A) (A) (A) (A)
                 (A) (A) (A) (A) (A) (A) (A) (A) (A) (A) (A) (A)
                 (A) (A) (A) (A) (A) (A) (A) (A) (A) (A) (A) (A)
                 (A) (A) (A) (A) (A) (A) (A) (A) (A) (A) (A) (A)
                 (A) (A) (A) (A) (A) (A) (A) (A) (A) (A) (A) (A)
                 (A) (A) (A) (A) (A) (A) (A) (A) (A) (A) (A) (A)
                 (A) (A) (A) (A) (A) (A) (A) (A) (A) (A) (A) (A)
                 (A) (A) (A) (A) (A) (A) (A) (A) (A) (A) (A) (A)
                 (A) (A) (A) (A) (A) (A) (A) (A) (A) (A) (A) (A)
                 (A) (A) (A) (A) (A) (A) (A) (A) (A) (A) (A) (A)
                 (A) (A) (A) (A) (A) (A) (A) (A) (A) (A) (A) (A)
                 (A) (A) (A) (A) (A) (A) (A) (A) (A) (A) (A) (A)
                 (A) (A) (A) (A) (A) (A) (A) (A) (A) (A) (A) (A)
                 (A) (A) (A) (A) (A) (A) (A) (A) (A) (A) (A) (A)
                 (A) (A) (A) (A) (A) (A) (A) (A) (A) (A) (A) (A)
                 (A) (A) (A) (A) (A) (A) (A) (A) (A) (A) (A) (A)
                 (A) (A) (A) (A) (A) (A) (A) (A) (A) (A) (A) (A)
                 (A) (A) (A) (A) (A) (A) (A) (A) (A) (A) (A) (A)
                 (A) (A) (A) (A) (A) (A) (A) (A) (A) (A) (A) (A)
                 (A) (A) (A) (A) (A) (A) (A) (A) (A) (A) (A) (A)
                 (A) (A) (A) (A) (A) (A) (A) (A) (A) (A) (A) (A)
                 (A) (A) (A) (A) (A) (A) (A) (A) (A) (A) (A) (A)
                 (A) (A) (A) (A) (A) (A) (A) (A) (A) (A) (A) (A)
                 (A) (A) (A) (A) (A) (A) (A) (A) (A) (A) (A) (A)
                 (A) (A) (A) (A) (A) (A) (A) (A) (A) (A) (A) (A)
                 (A) (A) (A) (A) (A) (A) (A) (A) (A) (A) (A) (A)
                 (A) (A) (A) (A) (A) (A) (A) (A) (A) (A) (A) (A)
                 (A) (A) (A) (A) (A) (A) (A) (A) (A) (A) (A) (A)
                 (A) (A) (A) (A) (A) (A) (A) (A) (A) (A) (A) (A)
                 (A) (A) (A) (A) (A) (A) (A) (A) (A) (A) (A) (A)
                 (A) (A) (A) (A) (A) (A) (A) (A) (A) (A) (A) (A)
                 (A) (A) (A) (A) (A) (A) (A) (A) (A) (A) (A) (A)
                 (A) (A) (A) (A) (A) (A) (A) (A) (A) (A) (A) (A)
                 (A) (A) (A) (A) (A) (A) (A) (A) (A) (A) (A) (A)
                 (A) (A) (A) (A) (A) (A) (A) (A) (A) (A) (A) (A)
                 (A) (A) (A) (A) (A) (A) (A) (A) (A) (A) (A) (A)
                 (A) (A) (A) (A) (A) (A) (A) (A) (A) (A) (A) (A)
                 (A) (A) (A) (A) (A) (A) (A) (A) (A) (A) (A) (A)
                 (A) (A) (A) (A) (A) (A) (A) (A) (A) (A) (A) (A)
                 (A) (A) (A) (A) (A) (A) (A) (A) (A) (A) (A) (A)
                 (A) (A) (A) (A) (A) (A) (A) (A) (A) (A) (A) (A)
                 (A) (A) (A) (A) (A) (A) (A) (A) (A) (A) (A) (A)
                 (A) (A) (A) (A) (A) (A) (A) (A) (A) (A) (A) (A)
                 (A) (A) (A) (A) (A) (A) (A) (A) (A) (A) (A) (A)
                 (A) (A) (A) (A) (A) (A) (A) (A) (A) (A) (A) (A)
                 (A) (A) (A) (A) (A) (A) (A) (A) (A) (A) (A) (A)
                 (A) (A) (A) (A) (A) (A) (A) (A) (A) (A) (A) (A)
                 (A) (A) (A) (A) (A) (A) (A) (A) (A) (A) (A) (A)
                 (A) (A) (A) (A) (A) (A) (A) (A) (A) (A) (A) (A)
                 (A) (A) (A) (A) (A) (A) (A) (A) (A) (A) (A) (A)
                 (A) (A) (A) (A) (A) (A) (A) (A) (A) (A) (A) (A)
                 (A) (A) (A) (A) (A) (A) (A) (A) (A) (A) (A) (A)
                 (A) (A) (A) (A) (A) (A) (A) (A) (A) (A) (A) (A)
                 (A) (A) (A) (A) (A) (A) (A) (A) (A) (A) (A) (A)
                 (A) (A) (A) (A) (A) (A) (A) (A) (A) (A) (A) (A)
                 (A) (A) (A) (A) (A) (A) (A) (A) (A) (A) (A) (A)
                 (A) (A) (A) (A) (A) (A) (A) (A) (A) (A) (A) (A)
                 (A) (A) (A) (A) (A) (A) (A) (A) (A) (A) (A) (A)
                 (A) (A) (A) (A) (A) (A) (A) (A) (A) (A) (A) (A)
                 (A) (A) (A) (A) (A) (A) (A) (A) (A) (A) (A) (A)
                 (A) (A) (A) (A) (A) (A) (A) (A) (A) (A) (A) (A)
                 (A) (A) (A) (A) (A) (A) (A) (A) (A) (A) (A) (A)
                 (A) (A) (A) (A) (A) (A) (A) (A) (A) (A) (A) (A)
                 (A) (A) (A) (A) (A) (A) (A) (A) (A) (A) (A) (A)
                 (A) (A) (A) (A) (A) (A) (A) (A) (A) (A) (A) (A)
                 (A) (A) (A) (A) (A) (A) (A) (A) (A) (A) (A) (A)
                 (A) (A) (A) (A) (A) (A) (A) (A) (A) (A) (A) (A)
                 (A) (A) (A) (A) (A) (A) (A) (A) (A) (A) (A) (A)
                 (A) (A) (A) (A) (A) (A) (A) (A) (A) (A) (A) (A)
                 (A) (A) (A) (A) (A) (A) (A) (A) (A) (A) (A) (A)
                 (A) (A) (A) (A) (A) (A) (A) (A) (A) (A) (A) (A)
                 (A) (A) (A) (A) (A) (A) (A) (A) (A) (A) (A) (A)
                 (A) (A) (A) (A) (A) (A) (A) (A) (A) (A) (A) (A)
                 (A) (A) (A) (A) (A) (A) (A) (A) (A) (A) (A) (A)
                 (A) (A) (A) (A) (A) (A) (A) (A) (A) (A) (A) (A)
                 (A) (A) (A) (A) (A) (A) (A) (A) (A) (A) (A) (A)
                 (A) (A) (A) (A) (A) (A) (A) (A) (A) (A) (A) (A)
                 (A) (A) (A) (A) (A) (A) (A) (A) (A) (A) (A) (A)
                 (A) (A) (A) (A) (A) (A) (A) (A) (A) (A) (A) (A)
                 (A) (A) (A) (A) (A) (A) (A) (A) (A) (A) (A) (A)
                 (A) (A) (A) (A) (A) (A) (A) (A) (A) (A) (A) (A)
                 (A) (A) (A) (A) (A) (A) (A) (A) (A) (A) (A) (A)
                 (A) (A) (A) (A) (A) (A) (A) (A) (A) (A) (A) (A)
                 (A) (A) (A) (A) (A) (A) (A) (A) (A) (A) (A) (A)
                 (A) (A) (A) (A) (A) (A) (A) (A) (A) (A) (A) (A)
                 (A) (A) (A) (A) (A) (A) (A) (A) (A) (A) (A) (A)
                 (A) (A) (A) (A) (A) (A) (A) (A) (A) (A) (A) (A)
                 (A) (A) (A) (A) (A) (A) (A) (A) (A) (A) (A) (A)
                 (A) (A) (A) (A) (A) (A) (A) (A) (A) (A) (A) (A)
                 (A) (A) (A) (A) (A) (A) (A) (A) (A) (A) (A) (A)
                 (A) (A) (A) (A) (A) (A) (A) (A) (A) (A) (A) (A)
                 (A) (A) (A) (A) (A) (A) (A) (A) (A) (A) (A) (A)
                 (A) (A) (A) (A) (A) (A) (A) (A) (A) (A) (A) (A)
                 (A) (A) (A) (A) (A) (A) (A) (A) (A) (A) (A) (A)
                 (A) (A) (A) (A) (A) (A) (A) (A) (A) (A) (A) (A)
                 (A) (A) (A) (A) (A) (A) (A) (A) (A) (A) (A) (A)
                 (A) (A) (A) (A) (A) (A) (A) (A) (A) (A) (A) (A)
                 (A) (A) (A) (A) (A) (A) (A) (A) (A) (A) (A) (A)
                 (A) (A) (A) (A) (A) (A) (A) (A) (A) (A) (A) (A)
                 (A) (A) (A) (A) (A) (A) (A) (A) (A) (A) (A) (A)
                 (A) (A) (A) (A) (A) (A) (A) (A) (A) (A) (A) (A)
                 (A) (A) (A) (A) (A) (A) (A) (A) (A) (A) (A) (A)
                 (A) (A) (A) (A) (A) (A) (A) (A) (A) (A) (A) (A)
                 (A) (A) (A) (A) (A) (A) (A) (A) (A) (A) (A) (A)
                 (A) (A) (A) (A) (A) (A) (A) (A) (A) (A) (A) (A)
                 (A) (A) (A) (A) (A) (A) (A) (A) (A) (A) (A) (A)
                 (A) (A) (A) (A) (A) (A) (A) (A) (A) (A) (A) (A)
                 (A) (A) (A) (A) (A) (A) (A) (A) (A) (A) (A) (A)
                 (A) (A) (A) (A) (A) (A) (A) (A) (A) (A) (A) (A)
                 (A) (A) (A) (A) (A) (A) (A) (A) (A) (A) (A) (A)
                 (A) (A) (A) (A) (A) (A) (A) (A) (A) (A) (A) (A)
                 (A) (A) (A) (A) (A) (A) (A) (A) (A) (A) (A) (A)
                 (A) (A) (A) (A) (A) (A) (A) (A) (A) (A) (A) (A)
                 (A) (A) (A) (A) (A) (A) (A) (A) (A) (A) (A) (A)
                 (A) (A) (A) (A) (A) (A) (A) (A) (A) (A) (A) (A)
                 (A) (A) (A) (A) (A) (A) (A) (A) (A) (A) (A) (A)
                 (A) (A) (A) (A) (A) (A) (A) (A) (A) (A) (A) (A)
                 (A) (A) (A) (A) (A) (A) (A) (A) (A) (A) (A) (A)
                 (A) (A) (A) (A) (A) (A) (A) (A) (A) (A) (A) (A)
                 (A) (A) (A) (A) (A) (A) (A) (A) (A) (A) (A) (A)
                 (A) (A) (A) (A) (A) (A) (A) (A) (A) (A) (A) (A)
                 (A) (A) (A) (A) (A) (A) (A) (A) (A) (A) (A) (A)
                 (A) (A) (A) (A) (A) (A) (A) (A) (A) (A) (A) (A)
                 (A) (A) (A) (A) (A) (A) (A) (A) (A) (A) (A) (A)
                 (A) (A) (A) (A) (A) (A) (A) (A) (A) (A) (A) (A)
                 (A) (A) (A) (A) (A) (A) (A) (A) (A) (A) (A) (A)
                 (A) (A) (A) (A) (A) (A) (A) (A) (A) (A) (A) (A)
                 (A) (A) (A) (A) (A) (A) (A) (A) (A) (A) (A) (A)
                 (A) (A) (A) (A) (A) (A) (A) (A) (A) (A) (A) (A)
                 (A) (A) (A) (A) (A) (A) (A) (A) (A) (A) (A) (A)
                 (A) (A) (A) (A) (A) (A) (A) (A) (A) (A) (A) (A)
                 (A) (A) (A) (A) (A) (A) (A) (A) (A) (A) (A) (A)
                 (A) (A) (A) (A) (A) (A) (A) (A) (A) (A) (A) (A)
                 (A) (A) (A) (A) (A) (A) (A) (A) (A) (A) (A) (A)
                 (A) (A) (A) (A) (A) (A) (A) (A) (A) (A) (A) (A)
                 (A) (A) (A) (A) (A) (A) (A) (A) (A) (A) (A) (A)
                 (A) (A) (A) (A) (A) (A) (A) (A) (A) (A) (A) (A)
                 (A) (A) (A) (A) (A) (A) (A) (A) (A) (A) (A) (A)
                 (A) (A) (A) (A) (A) (A) (A) (A) (A) (A) (A) (A)
                 (A) (A) (A) (A) (A) (A) (A) (A) (A) (A) (A) (A)
                 (A) (A) (A) (A) (A) (A) (A) (A) (A) (A) (A) (A)
                 (A) (A) (A) (A) (A) (A) (A) (A) (A) (A) (A) (A)
                 (A) (A) (A) (A) (A) (A) (A) (A) (A) (A) (A) (A)
                 (A) (A) (A) (A) (A) (A) (A) (A) (A) (A) (A) (A)
                 (A) (A) (A) (A) (A) (A) (A) (A) (A) (A) (A) (A)
                 (A) (A) (A) (A) (A) (A) (A) (A) (A) (A) (A) (A)
                 (A) (A) (A) (A) (A) (A) (A) (A) (A) (A) (A) (A)
                 (A) (A) (A) (A) (A) (A) (A) (A) (A) (A) (A) (A)
                 (A) (A) (A) (A) (A) (A) (A) (A) (A) (A) (A) (A)
                 (A) (A) (A) (A) (A) (A) (A) (A) (A) (A) (A) (A)
                 (A) (A) (A) (A) (A) (A) (A) (A) (A) (A) (A) (A)
                 (A) (A) (A) (A) (A) (A) (A) (A) (A) (A) (A) (A)
                 (A) (A) (A) (A) (A) (A) (A) (A) (A) (A) (A) (A)
                 (A) (A) (A) (A) (A) (A) (A) (A) (A) (A) (A) (A)
                 (A) (A) (A) (A) (A) (A) (A) (A) (A) (A) (A) (A)
                 (A) (A) (A) (A) (A) (A) (A) (A) (A) (A) (A) (A)
                 (A) (A) (A) (A) (A) (A) (A) (A) (A) (A) (A) (A)
                 (A) (A) (A) (A) (A) (A) (A) (A) (A) (A) (A) (A)
                 (A) (A) (A) (A) (A) (A) (A) (A) (A) (A) (A) (A)
                 (A) (A) (A) (A) (A) (A) (A) (A) (A) (A) (A) (A)
                 (A) (A) (A) (A) (A) (A) (A) (A) (A) (A) (A) (A)
                 (A) (A) (A) (A) (A) (A) (A) (A) (A) (A) (A) (A)
                 (A) (A) (A) (A) (A) (A) (A) (A) (A) (A) (A) (A)
                 (A) (A) (A) (A) (A) (A) (A) (A) (A) (A) (A) (A)
                 (A) (A) (A) (A) (A) (A) (A) (A) (A) (A) (A) (A)
                 (A) (A) (A) (A) (A) (A) (A) (A) (A) (A) (A) (A)
                 (A) (A) (A) (A) (A) (A) (A) (A) (A) (A) (A) (A)
                 (A) (A) (A) (A) (A) (A) (A) (A) (A) (A) (A) (A)
                 (A) (A) (A) (A) (A) (A) (A) (A) (A) (A) (A) (A)
                 (A) (A) (A) (A) (A) (A) (A) (A) (A) (A) (A) (A)
                 (A) (A) (A) (A) (A) (A) (A) (A) (A) (A) (A) (A)
                 (A) (A) (A) (A) (A) (A) (A) (A) (A) (A) (A) (A)
                 (A) (A) (A) (A) (A) (A) (A) (A) (A) (A) (A) (A)
                 (A) (A) (A) (A) (A) (A) (A) (A) (A) (A) (A) (A)
                 (A) (A) (A) (A) (A) (A) (A) (A) (A) (A) (A) (A)
                 (A) (A) (A) (A) (A) (A) (A) (A) (A) (A) (A) (A)
                 (A) (A) (A) (A) (A) (A) (A) (A) (A) (A) (A) (A)
                 (A) (A) (A) (A) (A) (A) (A) (A) (A) (A) (A) (A)
                 (A) (A) (A) (A) (A) (A) (A) (A) (A) (A) (A) (A)
                 (A) (A) (A) (A) (A) (A) (A) (A) (A) (A) (A) (A)
                 (A) (A) (A) (A) (A) (A) (A) (A) (A) (A) (A) (A)
                 (A) (A) (A) (A) (A) (A) (A) (A) (A) (A) (A) (A)
                 (A) (A) (A) (A) (A) (A) (A) (A) (A) (A) (A) (A)
                 (A) (A) (A) (A) (A) (A) (A) (A) (A) (A) (A) (A)
                 (A) (A) (A) (A) (A) (A) (A) (A) (A) (A) (A) (A)
                 (A) (A) (A) (A) (A) (A) (A) (A) (A) (A) (A) (A)
                 (A) (A) (A) (A) (A) (A) (A) (A) (A) (A) (A) (A)
                 (A) (A) (A) (A) (A) (A) (A) (A) (A) (A) (A) (A)
                 (A) (A) (A) (A) (A) (A) (A) (A) (A) (A) (A) (A)
                 (A) (A) (A) (A) (A) (A) (A) (A) (A) (A) (A) (A)
                 (A) (A) (A) (A) (A) (A) (A) (A) (A) (A) (A) (A)
                 (A) (A) (A) (A) (A) (A) (A) (A) (A) (A) (A) (A)
                 (A) (A) (A) (A) (A) (A) (A) (A) (A) (A) (A) (A)
                 (A) (A) (A) (A) (A) (A) (A) (A) (A) (A) (A) (A)
                 (A) (A) (A) (A) (A) (A) (A) (A) (A) (A) (A) (A)
                 (A) (A) (A) (A) (A) (A) (A) (A) (A) (A) (A) (A)
                 (A) (A) (A) (A) (A) (A) (A) (A) (A) (A) (A) (A)
                 (A) (A) (A) (A) (A) (A) (A) (A) (A) (A) (A) (A)
                 (A) (A) (A) (A) (A) (A) (A) (A) (A) (A) (A) (A)
                 (A) (A) (A) (A) (A) (A) (A) (A) (A) (A) (A) (A)
                 (A) (A) (A) (A) (A) (A) (A) (A) (A) (A) (A) (A)
                 (A) (A) (A) (A) (A) (A) (A) (A) (A) (A) (A) (A)
                 (A) (A) (A) (A) (A) (A) (A) (A) (A) (A) (A) (A)
                 (A) (A) (A) (A) (A) (A) (A) (A) (A) (A) (A) (A)
                 (A) (A) (A) (A) (A) (A) (A) (A) (A) (A) (A) (A)
                 (A) (A) (A) (A) (A) (A) (A) (A) (A) (A) (A) (A)
                 (A) (A) (A) (A) (A) (A) (A) (A)
 Beta  Orbitals:
       Occupied  (A) (A) (A) (A) (A) (A) (A) (A) (A) (A) (A) (A)
                 (A) (A) (A) (A) (A) (A) (A) (A) (A) (A) (A) (A)
                 (A) (A) (A) (A) (A) (A) (A) (A) (A) (A) (A) (A)
                 (A) (A) (A) (A) (A) (A) (A) (A) (A) (A) (A) (A)
                 (A) (A) (A) (A) (A) (A) (A) (A) (A) (A) (A) (A)
                 (A) (A) (A) (A) (A) (A) (A) (A) (A) (A) (A) (A)
                 (A) (A) (A) (A) (A) (A) (A) (A) (A) (A) (A) (A)
                 (A) (A) (A) (A) (A) (A) (A) (A) (A) (A) (A) (A)
                 (A) (A) (A) (A) (A) (A) (A) (A) (A) (A) (A) (A)
                 (A) (A) (A) (A) (A) (A) (A) (A) (A) (A) (A) (A)
                 (A) (A) (A) (A) (A) (A) (A) (A) (A) (A) (A) (A)
                 (A) (A) (A) (A) (A) (A) (A) (A) (A) (A) (A) (A)
                 (A) (A) (A) (A) (A) (A) (A) (A) (A) (A) (A) (A)
                 (A) (A) (A) (A) (A) (A) (A) (A) (A) (A) (A) (A)
                 (A) (A) (A) (A) (A) (A) (A) (A) (A) (A) (A) (A)
                 (A) (A) (A) (A) (A) (A) (A) (A) (A) (A) (A) (A)
                 (A) (A) (A) (A) (A) (A) (A) (A) (A) (A) (A) (A)
                 (A) (A) (A) (A) (A) (A) (A) (A) (A) (A) (A) (A)
                 (A) (A) (A) (A) (A) (A) (A) (A) (A) (A) (A) (A)
                 (A) (A) (A) (A) (A) (A) (A) (A) (A) (A) (A) (A)
                 (A)
       Virtual   (A) (A) (A) (A) (A) (A) (A) (A) (A) (A) (A) (A)
                 (A) (A) (A) (A) (A) (A) (A) (A) (A) (A) (A) (A)
                 (A) (A) (A) (A) (A) (A) (A) (A) (A) (A) (A) (A)
                 (A) (A) (A) (A) (A) (A) (A) (A) (A) (A) (A) (A)
                 (A) (A) (A) (A) (A) (A) (A) (A) (A) (A) (A) (A)
                 (A) (A) (A) (A) (A) (A) (A) (A) (A) (A) (A) (A)
                 (A) (A) (A) (A) (A) (A) (A) (A) (A) (A) (A) (A)
[...]
  Beta virt. eigenvalues --    4.94731   4.95494   4.95516   4.95941   4.96176
  Beta virt. eigenvalues --    4.96604   4.96939   4.96966   4.97521   4.97914
  Beta virt. eigenvalues --    4.98314   4.98474   4.98775   4.98977   4.99673
  Beta virt. eigenvalues --    5.00010   5.00237   5.00358   5.00437   5.00896
  Beta virt. eigenvalues --    5.01310   5.01616   5.01914   5.02576   5.02771
  Beta virt. eigenvalues --    5.03245   5.03963   5.04001   5.04128   5.04487
  Beta virt. eigenvalues --    5.04572   5.05136   5.05529   5.06147   5.06398
  Beta virt. eigenvalues --    5.06874   5.07188   5.07366   5.07703   5.07996
  Beta virt. eigenvalues --    5.08261   5.08537   5.08761   5.09199   5.09460
  Beta virt. eigenvalues --    5.09866   5.10167   5.10693   5.10788   5.10830
  Beta virt. eigenvalues --    5.11275   5.11603   5.12235   5.12475   5.13144
  Beta virt. eigenvalues --    5.13634   5.13886   5.14381   5.14485   5.14623
  Beta virt. eigenvalues --    5.15004   5.15179   5.16230   5.16595   5.16924
  Beta virt. eigenvalues --    5.17133   5.17605   5.17883   5.18347   5.18906
  Beta virt. eigenvalues --    5.19275   5.19952   5.20278   5.20594   5.20851
  Beta virt. eigenvalues --    5.22087   5.22176   5.22763   5.23132   5.23476
  Beta virt. eigenvalues --    5.23852   5.23993   5.24246   5.24744   5.25087
  Beta virt. eigenvalues --    5.25621   5.25784   5.26376   5.26677   5.26849
  Beta virt. eigenvalues --    5.27138   5.27667   5.28004   5.28292   5.28310
  Beta virt. eigenvalues --    5.28540   5.28866   5.28930   5.29319   5.29325
  Beta virt. eigenvalues --    5.29537   5.29834   5.30060   5.30343   5.30682
  Beta virt. eigenvalues --    5.30877   5.31147   5.31484   5.31835   5.31989
  Beta virt. eigenvalues --    5.32104   5.33007   5.33540   5.33728   5.33943
  Beta virt. eigenvalues --    5.33987   5.34005   5.34661   5.35318   5.35927
  Beta virt. eigenvalues --    5.36180   5.36279   5.37403   5.37479   5.37699
  Beta virt. eigenvalues --    5.37787   5.38006   5.38299   5.38539   5.38909
  Beta virt. eigenvalues --    5.39271   5.39461   5.40130   5.40452   5.40650
  Beta virt. eigenvalues --    5.41128   5.41768   5.41870   5.42095   5.42278
  Beta virt. eigenvalues --    5.42362   5.42731   5.43375   5.43889   5.44027
  Beta virt. eigenvalues --    5.44379   5.44462   5.44521   5.45191   5.45587
  Beta virt. eigenvalues --    5.46887   5.47350   5.47653   5.47878   5.48942
  Beta virt. eigenvalues --    5.49233   5.49368   5.49816   5.50115   5.50676
  Beta virt. eigenvalues --    5.51423   5.51648   5.52254   5.52522   5.53368
  Beta virt. eigenvalues --    5.53756   5.54994   5.55429   5.55498   5.55665
  Beta virt. eigenvalues --    5.56135   5.56478   5.56779   5.57132   5.57676
  Beta virt. eigenvalues --    5.58018   5.58900   5.59109   5.59229   5.59374
  Beta virt. eigenvalues --    5.59993   5.60148   5.60525   5.60781   5.60932
  Beta virt. eigenvalues --    5.61082   5.61230   5.61325   5.61717   5.62146
  Beta virt. eigenvalues --    5.62526   5.62745   5.63389   5.63848   5.63880
  Beta virt. eigenvalues --    5.64661   5.64947   5.65082   5.65440   5.65771
  Beta virt. eigenvalues --    5.65885   5.66234   5.67114   5.67606   5.67703
  Beta virt. eigenvalues --    5.67748   5.68026   5.68981   5.69546   5.69976
  Beta virt. eigenvalues --    5.70173   5.70543   5.71304   5.73265   5.74501
  Beta virt. eigenvalues --    5.74780   5.76695   5.77174   5.77939   5.80234
  Beta virt. eigenvalues --    5.81846   5.83471   5.83784   5.84517   5.86537
  Beta virt. eigenvalues --    5.87084   5.87778   5.87879   5.88700   5.89024
  Beta virt. eigenvalues --    5.91133   5.91401   5.91568   5.92042   5.93562
  Beta virt. eigenvalues --    5.94663   5.94770   5.95619   5.98204   5.98895
  Beta virt. eigenvalues --    5.99459   5.99811   6.00262   6.01926   6.02881
  Beta virt. eigenvalues --    6.04056   6.04315   6.04834   6.05303   6.05570
  Beta virt. eigenvalues --    6.06720   6.07178   6.08834   6.09014   6.10617
  Beta virt. eigenvalues --    6.11180   6.12829   6.13568   6.14569   6.19064
  Beta virt. eigenvalues --    6.20102   6.21998   6.22631   6.23526   6.24572
  Beta virt. eigenvalues --    6.24755   6.25308   6.25965   6.27366   6.28113
  Beta virt. eigenvalues --    6.28397   6.28949   6.30053   6.30663   6.31431
  Beta virt. eigenvalues --    6.32943   6.33588   6.34919   6.35513   6.35876
  Beta virt. eigenvalues --    6.40191   6.40817   6.41029   6.41342   6.43590
  Beta virt. eigenvalues --    6.44600   6.45123   6.51229   6.54125   6.66370
  Beta virt. eigenvalues --    6.72295   6.72793   6.72944   6.72997   6.74746
  Beta virt. eigenvalues --    6.74839   6.76160   6.76507   6.76854   6.77655
  Beta virt. eigenvalues --    6.77869   6.80796   6.81013   6.83331   6.84223
  Beta virt. eigenvalues --    6.84419   6.84735   6.84908   6.85029   6.85259
  Beta virt. eigenvalues --    6.87024   6.87495   6.91434   6.93633   6.94026
  Beta virt. eigenvalues --    6.95691   6.95752   6.97077   6.98017   6.98250
  Beta virt. eigenvalues --    7.00283   7.01053   7.01136   7.01419   7.01722
  Beta virt. eigenvalues --    7.02558   7.05651   7.07066   7.07416   7.08730
  Beta virt. eigenvalues --    7.09744   7.12367   7.18768   7.20730   7.23801
  Beta virt. eigenvalues --    7.24948   7.26595   7.28203   7.28602   7.28649
  Beta virt. eigenvalues --    7.30330   7.30413   7.31796   7.32671   7.33437
  Beta virt. eigenvalues --    7.33765   7.34349   7.34687   7.34706   7.35195
  Beta virt. eigenvalues --    7.37386   7.38278   7.38728   7.41872   7.45506
  Beta virt. eigenvalues --    7.47111   7.47458   7.51871   8.48072   8.49452
  Beta virt. eigenvalues --    8.57715   8.61923   8.82747   8.88066   8.92796
  Beta virt. eigenvalues --    8.93112   8.95272   9.01759  15.85702  22.85595
  Beta virt. eigenvalues --   22.87263  22.89840  22.92529  23.00603  23.10256
  Beta virt. eigenvalues --   23.12939  23.13397  23.15382  23.18924  23.18992
  Beta virt. eigenvalues --   23.20068  23.24477  23.28096  23.28172  23.28267
  Beta virt. eigenvalues --   23.29265  23.30475  23.31764  23.32548  23.34156
  Beta virt. eigenvalues --   23.34168  23.35257  23.36567  23.36761  23.37989
  Beta virt. eigenvalues --   23.38287  23.39867  23.40953  23.42694  23.43315
  Beta virt. eigenvalues --   23.45302  23.45834  23.47130  23.51425  23.51994
  Beta virt. eigenvalues --   23.53906  23.54701  23.55602  23.58700  23.61760
  Beta virt. eigenvalues --   23.61906  23.68999  23.76114  23.84575  23.92922
  Beta virt. eigenvalues --   24.07908  24.10032  24.10527  32.58389  33.14659
  Beta virt. eigenvalues --   33.26356  44.20344  44.23675  44.25072  44.29849
  Beta virt. eigenvalues --   44.33786  44.38325  44.43173  44.47143  44.49188
  Beta virt. eigenvalues --   44.62310  44.63710  57.42805  57.55320
          Condensed to atoms (all electrons):
          Atomic-Atomic Spin Densities.
 Mulliken charges and spin densities:
               1          2
     1  B    0.373850   0.002710
     2  N   -0.137063   0.013691
     3  C   -0.007295   0.209828
     4  C   -0.137875  -0.087129
     5  C   -0.014818   0.175242
     6  C    0.086928  -0.088810
     7  C   -0.022413   0.373957
     8  C    0.068555  -0.005926
     9  O   -0.393929   0.104496
    10  C   -0.338318   0.016137
    11  C    0.066380  -0.002549
    12  C   -0.129084  -0.002614
    13  C   -0.105857   0.000351
    14  C   -0.028231  -0.001884
    15  C   -0.091971   0.002300
    16  C   -0.177612  -0.005616
    17  N    0.490483   0.000074
    18  O   -0.374985  -0.000198
    19  O   -0.374992  -0.000136
    20  C    0.110992  -0.098011
    21  N   -0.154688   0.017076
    22  C   -0.059315   0.130195
    23  C   -0.126138  -0.054688
    24  C   -0.078662   0.143918
    25  C   -0.440388  -0.008082
    26  C   -0.095691  -0.068326
    27  C   -0.124891   0.096825
    28  C    0.014012  -0.023618
    29  C   -0.164449   0.024884
    30  C   -0.199126  -0.013140
    31  C    0.211894   0.025214
    32  O   -0.290254   0.003396
    33  C   -0.098086  -0.000246
    34  C   -0.151427  -0.000079
    35  O   -0.329570   0.000004
    36  C   -0.063579   0.000065
    37  C   -0.073155  -0.000010
    38  O   -0.328961  -0.000000
    39  C   -0.109151  -0.000000
    40  C   -0.089623  -0.000000
    41  O   -0.349046  -0.000000
    42  C   -0.207262   0.000000
    43  C   -0.174302  -0.014776
    44  C   -0.164309   0.026659
    45  C   -0.398387  -0.008112
    46  C   -0.136432  -0.095750
    47  C   -0.092153   0.149987
    48  C   -0.013005  -0.038677
    49  C   -0.165628   0.043544
    50  C   -0.175777  -0.023243
    51  C    0.209150   0.040825
    52  O   -0.289492   0.005641
    53  C   -0.098613  -0.000438
    54  C   -0.092201  -0.000171
    55  O   -0.340502   0.000030
    56  C   -0.093127   0.000004
    57  C   -0.064123   0.000000
    58  O   -0.363836  -0.000000
    59  C   -0.077766   0.000000
    60  C   -0.037721   0.000000
    61  O   -0.353061   0.000000
    62  C   -0.204296   0.000000
    63  C   -0.197615  -0.021474
    64  C   -0.155553   0.040175
    65  F   -0.366035   0.000718
    66  F   -0.364739   0.000696
    67  H    0.153427   0.000138
    68  H    0.186639   0.004120
    69  H    0.167206  -0.006802
    70  H    0.157357   0.000472
    71  H    0.192402  -0.000053
    72  H    0.191609  -0.000011
    73  H    0.155385   0.000129
    74  H    0.149369   0.000293
    75  H    0.133160   0.003375
    76  H    0.137990   0.005894
    77  H    0.153640   0.000396
    78  H    0.089627   0.003824
    79  H    0.111234  -0.005884
    80  H    0.150084  -0.000818
    81  H    0.153482   0.000156
    82  H    0.161623   0.000276
    83  H    0.149719   0.000305
    84  H    0.133747  -0.000009
    85  H    0.135366  -0.000021
    86  H    0.123208  -0.000006
    87  H    0.116213  -0.000039
    88  H    0.116293   0.000000
    89  H    0.122347   0.000000
    90  H    0.128342  -0.000000
    91  H    0.142219  -0.000000
    92  H    0.137940  -0.000000
    93  H    0.128430  -0.000000
    94  H    0.137273  -0.000000
    95  H    0.121246  -0.000000
    96  H    0.124608  -0.000000
    97  H    0.150096   0.000182
    98  H    0.136993  -0.000733
    99  H    0.148870   0.007393
   100  H    0.117205   0.007851
   101  H    0.114244   0.000114
   102  H    0.123004   0.003829
   103  H    0.103782  -0.007961
   104  H    0.138222  -0.001295
   105  H    0.152485   0.000277
   106  H    0.147272   0.000479
   107  H    0.145328   0.000482
   108  H    0.125799  -0.000026
   109  H    0.128100  -0.000004
   110  H    0.126487  -0.000001
   111  H    0.120037   0.000001
   112  H    0.134901   0.000000
   113  H    0.126007   0.000001
   114  H    0.119308  -0.000000
   115  H    0.133921   0.000000
   116  H    0.112669  -0.000000
   117  H    0.110616  -0.000000
   118  H    0.136538   0.000000
   119  H    0.120850  -0.000000
   120  H    0.120405  -0.000000
   121  H    0.154915   0.000272
   122  H    0.145099  -0.001539
 Sum of Mulliken charges =  -1.00000   1.00000
 Mulliken charges and spin densities with hydrogens summed into heavy atoms:
               1          2
     1  B    0.373850   0.002710
     2  N   -0.137063   0.013691
     3  C   -0.007295   0.209828
     4  C    0.015552  -0.086991
     5  C   -0.014818   0.175242
     6  C    0.086928  -0.088810
     7  C   -0.022413   0.373957
     8  C    0.068555  -0.005926
     9  O   -0.393929   0.104496
    10  C    0.015527   0.013454
    11  C    0.066380  -0.002549
    12  C    0.028273  -0.002142
    13  C    0.086544   0.000298
    14  C   -0.028231  -0.001884
    15  C    0.099638   0.002290
    16  C   -0.022227  -0.005487
    17  N    0.490483   0.000074
    18  O   -0.374985  -0.000198
    19  O   -0.374992  -0.000136
    20  C    0.110992  -0.098011
    21  N   -0.154688   0.017076
    22  C   -0.059315   0.130195
    23  C    0.023231  -0.054396
    24  C   -0.078662   0.143918
    25  C   -0.015597   0.001583
    26  C   -0.006064  -0.064501
    27  C   -0.013657   0.090940
    28  C    0.014012  -0.023618
    29  C   -0.014365   0.024066
    30  C   -0.045645  -0.012984
    31  C    0.211894   0.025214
    32  O   -0.290254   0.003396
    33  C    0.213255   0.000335
    34  C    0.117686  -0.000108
    35  O   -0.329570   0.000004
    36  C    0.175841   0.000021
    37  C    0.165484  -0.000010
    38  O   -0.328961  -0.000000
    39  C    0.161410  -0.000000
    40  C    0.176746  -0.000000
    41  O   -0.349046  -0.000000
    42  C    0.175866   0.000000
    43  C   -0.024206  -0.014594
    44  C   -0.027316   0.025927
    45  C   -0.018068   0.007247
    46  C   -0.013428  -0.091921
    47  C    0.011630   0.142026
    48  C   -0.013005  -0.038677
    49  C   -0.027406   0.042249
    50  C   -0.023292  -0.022966
    51  C    0.209150   0.040825
    52  O   -0.289492   0.005641
    53  C    0.193987   0.000524
    54  C    0.161697  -0.000201
    55  O   -0.340502   0.000030
    56  C    0.153397   0.000004
    57  C    0.196784   0.000001
    58  O   -0.363836  -0.000000
    59  C    0.175463   0.000000
    60  C    0.185563  -0.000000
    61  O   -0.353061   0.000000
    62  C    0.173497   0.000000
    63  C   -0.042700  -0.021201
    64  C   -0.010453   0.038635
    65  F   -0.366035   0.000718
    66  F   -0.364739   0.000696
 Electronic spatial extent (au):  <R**2>=         125840.3271
 Charge=             -1.0000 electrons
 Dipole moment (field-independent basis, Debye):
    X=             23.0667    Y=             -1.9172    Z=              4.2748  Tot=             23.5377
 Quadrupole moment (field-independent basis, Debye-Ang):
   XX=           -538.8033   YY=           -361.1625   ZZ=           -436.1540
   XY=             -6.4062   XZ=             36.5009   YZ=             34.5515
 Traceless Quadrupole moment (field-independent basis, Debye-Ang):
   XX=            -93.4300   YY=             84.2107   ZZ=              9.2193
   XY=             -6.4062   XZ=             36.5009   YZ=             34.5515
 Octapole moment (field-independent basis, Debye-Ang**2):
  XXX=           1963.4114  YYY=           -322.6308  ZZZ=            -95.0706  XYY=            123.9854
  XXY=           -355.8942  XXZ=           -508.6708  XZZ=            447.8869  YZZ=             75.2773
  YYZ=            190.9497  XYZ=            -36.9595
 Hexadecapole moment (field-independent basis, Debye-Ang**3):
 XXXX=        -111583.3518 YYYY=         -52358.3238 ZZZZ=          -9232.4955 XXXY=          -3297.8393
 XXXZ=           5577.6582 YYYX=          -5507.1223 YYYZ=           2212.2852 ZZZX=           1226.8872
 ZZZY=            521.8808 XXYY=         -24727.5179 XXZZ=         -22598.8999 YYZZ=         -11156.9927
 XXYZ=            994.5109 YYXZ=            261.3910 ZZXY=            324.8252
 N-N= 8.703876274992D+03 E-N=-2.472620362188D+04  KE= 3.100630511485D+03
 Leave Link  601 at Wed Nov  5 22:59:22 2025, MaxMem= 30870077440 cpu:             230.2 elap:               4.2
 (Enter /public/software/gauss/g16/l9999.exe)
 1\1\GINC-CU161\SP\UM062X\def2TZVPP\C49H56B1F2N3O11(1-,2)\BAIDING\05-No
 v-2025\0\\#p M062X/DEF2TZVPP scrf=(solvent=water) em=GD3\\Energy calcu
 lation for BE_CO_reduced\\-1,2\B,0,-3.142337,0.164832,1.137442\N,0,-4.
 261762,-0.895111,1.046153\C,0,-4.08658,-2.150393,0.48694\C,0,-5.361578
 ,-2.69042,0.24113\C,0,-6.331888,-1.771384,0.634813\C,0,-5.624999,-0.63
 8007,1.16421\C,0,-6.051397,0.619928,1.681784\C,0,-7.48357,0.940834,1.7
 8997\O,0,-8.32204,0.158379,2.26046\C,0,-7.984224,2.263503,1.176032\C,0
 ,-8.630388,1.972852,-0.161256\C,0,-7.906309,2.131218,-1.353701\C,0,-8.
 485035,1.847211,-2.58495\C,0,-9.805024,1.393251,-2.613452\C,0,-10.5515
 81,1.218048,-1.446036\C,0,-9.955501,1.509282,-0.225374\N,0,-10.422836,
 1.097849,-3.897393\O,0,-9.754953,1.255803,-4.926708\O,0,-11.593827,0.6
 98882,-3.913807\C,0,-5.074597,1.581558,2.105858\N,0,-3.728458,1.441794
 ,1.768853\C,0,-3.019518,2.476181,2.365229\C,0,-3.925182,3.239267,3.116
 474\C,0,-5.207745,2.699089,2.977048\C,0,-6.419514,3.193364,3.714292\C,
 0,-1.622683,2.808789,2.23922\C,0,-0.693946,2.351685,1.3594\C,0,0.70594
 7,2.765112,1.295547\C,0,1.316726,3.650759,2.21406\C,0,2.650106,4.00975
 4,2.094377\C,0,3.436087,3.494349,1.04977\O,0,4.743259,3.909774,1.02441
 9\C,0,5.5885,3.42987,-0.030285\C,0,6.97113,4.021609,0.17742\O,0,7.0106
 42,5.444936,0.131294\C,0,6.884611,5.992284,-1.181371\C,0,7.177866,7.47
 4783,-1.125335\O,0,8.551967,7.662062,-0.790557\C,0,8.911342,9.017643,-
 0.528726\C,0,8.964789,9.893714,-1.777846\O,0,9.789473,9.370573,-2.8169
 45\C,0,11.183953,9.441531,-2.537859\C,0,2.862002,2.611519,0.128529\C,0
 ,1.518008,2.261173,0.262019\C,0,-7.802961,-2.019673,0.469804\C,0,-2.79
 1565,-2.728452,0.254243\C,0,-2.574826,-3.901967,-0.400237\C,0,-1.28677
 3,-4.541728,-0.638025\C,0,-1.245352,-5.760734,-1.341392\C,0,-0.049816,
 -6.428834,-1.606442\C,0,1.157563,-5.87752,-1.162959\O,0,2.392979,-6.43
 6796,-1.36439\C,0,2.46798,-7.695212,-2.049842\C,0,3.921574,-8.096987,-
 2.130685\O,0,4.393001,-8.38485,-0.814569\C,0,5.747054,-8.834666,-0.769
 364\C,0,6.745622,-7.675189,-0.820639\O,0,8.084399,-8.170752,-0.712309\
 C,0,8.57317,-8.26832,0.627071\C,0,9.259686,-6.971536,1.042389\O,0,9.73
 2278,-7.138217,2.373364\C,0,10.403621,-5.980925,2.85402\C,0,1.145392,-
 4.661151,-0.458607\C,0,-0.049987,-4.009593,-0.202227\F,0,-2.082872,-0.
 326188,1.929878\F,0,-2.635498,0.422254,-0.161782\H,0,-5.55967,-3.67028
 9,-0.17359\H,0,-8.723433,2.698963,1.853987\H,0,-7.16276,2.965593,1.038
 051\H,0,-6.881731,2.48685,-1.315548\H,0,-7.931318,1.974387,-3.506238\H
 ,0,-11.573901,0.866563,-1.499965\H,0,-10.522937,1.380335,0.689986\H,0,
 -3.657666,4.107495,3.706215\H,0,-6.112395,3.664551,4.65333\H,0,-6.9882
 53,3.944134,3.152965\H,0,-7.111729,2.383572,3.964641\H,0,-1.32712,3.58
 173,2.946965\H,0,-0.992824,1.632305,0.60493\H,0,0.742357,4.061912,3.03
 8347\H,0,3.108533,4.689807,2.805807\H,0,5.663367,2.335656,0.00617\H,0,
 5.169575,3.712377,-1.002979\H,0,7.338158,3.743565,1.170203\H,0,7.64725
 8,3.588412,-0.573787\H,0,7.587394,5.495794,-1.866517\H,0,5.869668,5.85
 3058,-1.577982\H,0,6.939608,7.911003,-2.104919\H,0,6.535443,7.958207,-
 0.374336\H,0,8.210892,9.476035,0.18589\H,0,9.893254,8.972429,-0.048622
 \H,0,7.968356,9.995717,-2.218158\H,0,9.303205,10.898303,-1.479781\H,0,
 11.706923,9.146893,-3.451278\H,0,11.48606,10.463466,-2.268205\H,0,11.4
 85376,8.762539,-1.730023\H,0,3.443181,2.194002,-0.684651\H,0,1.083592,
 1.574586,-0.459963\H,0,-8.31879,-2.139888,1.426783\H,0,-8.30663,-1.203
 706,-0.057789\H,0,-7.949604,-2.934225,-0.112679\H,0,-1.948168,-2.17585
 7,0.653612\H,0,-3.431216,-4.442518,-0.800375\H,0,-2.176933,-6.198078,-
 1.691011\H,0,-0.072273,-7.364473,-2.151742\H,0,1.89207,-8.454009,-1.50
 6526\H,0,2.061317,-7.602007,-3.06397\H,0,4.001924,-8.987996,-2.770082\
 H,0,4.502783,-7.290826,-2.597064\H,0,5.859069,-9.373194,0.177226\H,0,5
 .950942,-9.539407,-1.587398\H,0,6.683126,-7.150331,-1.778605\H,0,6.521
 047,-6.954478,-0.025001\H,0,7.766874,-8.508497,1.330839\H,0,9.294587,-
 9.091594,0.647567\H,0,10.09316,-6.755274,0.356745\H,0,8.553567,-6.1286
 34,0.986643\H,0,10.728218,-6.192563,3.87578\H,0,11.284334,-5.7425,2.24
 0779\H,0,9.73897,-5.105304,2.863706\H,0,2.089133,-4.245263,-0.119543\H
 ,0,-0.024139,-3.072968,0.345574\\Version=ES64L-G16RevA.03\State=2-A\HF
 =-3117.3055469\S2=0.784303\S2-1=0.\S2A=0.750951\RMSD=2.174e-09\Dipole=
 9.0751378,0.7542948,-1.6818363\Quadrupole=-69.4629351,62.6086236,6.854
 3116,4.7628245,-27.1375136,25.6882186\PG=C01 [X(C49H56B1F2N3O11)]\\@


 DIATOMIC MOLECULES ARE PECULIAR BECAUSE THEY ONLY HAVE TWO ENDS,
 AND THESE ENDS ARE VERY CLOSE TOGETHER.
 KLAUS RUEDENBERG, REV.MOD.PHYS. PG 176, 32, (1960)
 Job cpu time:       2 days 17 hours  9 minutes 38.8 seconds.
 Elapsed time:       0 days  1 hours  1 minutes 56.1 seconds.
 File lengths (MBytes):  RWF=   8591 Int=      0 D2E=      0 Chk=    555 Scr=      1
 Normal termination of Gaussian 16 at Wed Nov  5 22:59:24 2025.
