 Entering Gaussian System, Link 0=g16
 Input=BE_CN_reduced_sp.gjf
 Output=BE_CN_reduced_sp.log
 Initial command:
 /public/software/gauss/g16/l1.exe "/public/home/baiding/1030_sp/tmp_BE_CN_reduced_sp_1544648/Gau-117141.inp" -scrdir="/public/home/baiding/1030_sp/tmp_BE_CN_reduced_sp_1544648/"
 Entering Link 1 = /public/software/gauss/g16/l1.exe PID=    117142.
  
 Copyright (c) 1988,1990,1992,1993,1995,1998,2003,2009,2016,
            Gaussian, Inc.  All Rights Reserved.
  
 This is part of the Gaussian(R) 16 program.  It is based on
 the Gaussian(R) 09 system (copyright 2009, Gaussian, Inc.),
 the Gaussian(R) 03 system (copyright 2003, Gaussian, Inc.),
 the Gaussian(R) 98 system (copyright 1998, Gaussian, Inc.),
 the Gaussian(R) 94 system (copyright 1995, Gaussian, Inc.),
 the Gaussian 92(TM) system (copyright 1992, Gaussian, Inc.),
 the Gaussian 90(TM) system (copyright 1990, Gaussian, Inc.),
 the Gaussian 88(TM) system (copyright 1988, Gaussian, Inc.),
 the Gaussian 86(TM) system (copyright 1986, Carnegie Mellon
 University), and the Gaussian 82(TM) system (copyright 1983,
 Carnegie Mellon University). Gaussian is a federally registered
 trademark of Gaussian, Inc.
  
 This software contains proprietary and confidential information,
 including trade secrets, belonging to Gaussian, Inc.
  
 This software is provided under written license and may be
 used, copied, transmitted, or stored only in accord with that
 written license.
  
 The following legend is applicable only to US Government
 contracts under FAR:
  
                    RESTRICTED RIGHTS LEGEND
  
 Use, reproduction and disclosure by the US Government is
 subject to restrictions as set forth in subparagraphs (a)
 and (c) of the Commercial Computer Software - Restricted
 Rights clause in FAR 52.227-19.
  
 Gaussian, Inc.
 340 Quinnipiac St., Bldg. 40, Wallingford CT 06492
  
  
 ---------------------------------------------------------------
 Warning -- This program may not be used in any manner that
 competes with the business of Gaussian, Inc. or will provide
 assistance to any competitor of Gaussian, Inc.  The licensee
 of this program is prohibited from giving any competitor of
 Gaussian, Inc. access to this program.  By using this program,
 the user acknowledges that Gaussian, Inc. is engaged in the
 business of creating and licensing software in the field of
 computational chemistry and represents and warrants to the
 licensee that it is not a competitor of Gaussian, Inc. and that
 it will not use this program in any manner prohibited above.
 ---------------------------------------------------------------
  

 Cite this work as:
 Gaussian 16, Revision A.03,
 M. J. Frisch, G. W. Trucks, H. B. Schlegel, G. E. Scuseria, 
 M. A. Robb, J. R. Cheeseman, G. Scalmani, V. Barone, 
 G. A. Petersson, H. Nakatsuji, X. Li, M. Caricato, A. V. Marenich, 
 J. Bloino, B. G. Janesko, R. Gomperts, B. Mennucci, H. P. Hratchian, 
 J. V. Ortiz, A. F. Izmaylov, J. L. Sonnenberg, D. Williams-Young, 
 F. Ding, F. Lipparini, F. Egidi, J. Goings, B. Peng, A. Petrone, 
 T. Henderson, D. Ranasinghe, V. G. Zakrzewski, J. Gao, N. Rega, 
 G. Zheng, W. Liang, M. Hada, M. Ehara, K. Toyota, R. Fukuda, 
 J. Hasegawa, M. Ishida, T. Nakajima, Y. Honda, O. Kitao, H. Nakai, 
 T. Vreven, K. Throssell, J. A. Montgomery, Jr., J. E. Peralta, 
 F. Ogliaro, M. J. Bearpark, J. J. Heyd, E. N. Brothers, K. N. Kudin, 
 V. N. Staroverov, T. A. Keith, R. Kobayashi, J. Normand, 
 K. Raghavachari, A. P. Rendell, J. C. Burant, S. S. Iyengar, 
 J. Tomasi, M. Cossi, J. M. Millam, M. Klene, C. Adamo, R. Cammi, 
 J. W. Ochterski, R. L. Martin, K. Morokuma, O. Farkas, 
 J. B. Foresman, and D. J. Fox, Gaussian, Inc., Wallingford CT, 2016.
 
 ******************************************
 Gaussian 16:  ES64L-G16RevA.03 25-Dec-2016
                30-Oct-2025 
 ******************************************
 %nprocshared=64
 Will use up to   64 processors via shared memory.
 %mem=230GB
 %chk=BE_CN_reduced_sp.chk
 ----------------------------------------------
 #p M062X/DEF2TZVPP scrf=(solvent=water) em=GD3
 ----------------------------------------------
 1/38=1,172=1/1;
 2/12=2,17=6,18=5,40=1/2;
 3/5=44,7=202,11=2,25=1,30=1,70=2201,72=1,74=-55,124=31/1,2,3;
 4//1;
 5/5=2,38=5,53=1/2;
 6/7=2,8=2,9=2,10=2,28=1/1;
 99/5=1,9=1/99;
 Leave Link    1 at Thu Oct 30 18:47:36 2025, MaxMem= 30870077440 cpu:              14.0 elap:               0.2
 (Enter /public/software/gauss/g16/l101.exe)
 ------------------------------------
 Energy calculation for BE_CN_reduced
 ------------------------------------
 Symbolic Z-matrix:
 Charge = -1 Multiplicity = 2
 B                     3.06984   0.45308   0.24151 
 N                     3.66245   1.83834  -0.08468 
 C                     2.97259   2.9422   -0.57399 
 C                     3.92532   3.90807  -0.94599 
 C                     5.20541   3.42762  -0.68409 
 C                     5.0324    2.11945  -0.12899 
 C                     5.98659   1.13922   0.26072 
 C                     7.43533   1.47633   0.18589 
 O                     7.93119   2.38773   0.85075 
 C                     8.26042   0.7193   -0.86069 
 C                     9.72278   1.08476  -0.88971 
 C                     10.60144   0.63115   0.10716 
 C                     11.94728   0.97673   0.0861 
 C                     12.43784   1.79504  -0.94712 
 C                     11.57136   2.25767  -1.95115 
 C                     10.22726   1.9006   -1.91249 
 C                     13.82139   2.15431  -0.97679 
 N                     14.95029   2.44757  -1.00052 
 C                     5.56062  -0.16184   0.65318 
 N                     4.22663  -0.52439   0.52149 
 C                     4.06613  -1.81779   0.99459 
 C                     5.31633  -2.26576   1.45224 
 C                     6.25661  -1.24846   1.26535 
 C                     7.68924  -1.32449   1.70903 
 C                     2.8031   -2.50634   0.9485 
 C                     2.55967  -3.7212    1.50848 
 C                     1.31248  -4.47587   1.45199 
 C                     1.22244  -5.70482   2.13286 
 C                     0.06291  -6.48075   2.12339 
 C                    -1.05672  -6.03341   1.41345 
 O                    -2.24909  -6.70629   1.33125 
 C                    -2.36243  -7.97818   1.98649 
 C                    -3.74346  -8.54062   1.71351 
 O                    -3.90404  -8.9337    0.34879 
 C                    -4.61282  -8.00379  -0.47705 
 C                    -6.11992  -8.15232  -0.37839 
 O                    -6.48103  -9.44917  -0.85149 
 C                    -7.84731  -9.79443  -0.63069 
 C                    -8.82133  -9.11119  -1.57451 
 O                    -8.52963  -9.5099   -2.90954 
 C                    -9.40198  -8.90129  -3.8517 
 C                    -0.99476  -4.81026   0.7244 
 C                     0.16398  -4.05037   0.74341 
 C                     6.46309   4.19138  -0.98288 
 C                     1.55849   3.16679  -0.69839 
 C                     0.49456   2.45506  -0.23311 
 C                    -0.91204   2.79185  -0.43327 
 C                    -1.37117   3.87799  -1.20622 
 C                    -2.72801   4.15512  -1.36048 
 C                    -3.68328   3.3365   -0.7412 
 O                    -5.04639   3.49026  -0.84177 
 C                    -5.59133   4.60298  -1.56902 
 C                    -5.59339   5.88952  -0.75503 
 O                    -6.33878   5.75889   0.45926 
 C                    -7.7446    5.9721    0.32414 
 C                    -8.08702   7.44182   0.54511 
 O                    -9.49791   7.57873   0.41663 
 C                    -9.94451   8.91449   0.62714 
 C                    -11.46235   8.91581   0.4616 
 O                    -12.01502   10.22158   0.59377 
 C                    -12.2078   10.62846   1.9465 
 C                    -3.25415   2.24891   0.03325 
 C                    -1.89916   1.98671   0.1791 
 F                     2.28382  -0.0175   -0.834 
 F                     2.23539   0.5226    1.38713 
 H                     3.68355   4.87869  -1.36165 
 H                     8.11785  -0.35589  -0.72166 
 H                     7.79503   0.95287  -1.82658 
 H                     10.22857  -0.00289   0.90475 
 H                     12.62109   0.6198    0.85749 
 H                     11.95335   2.88666  -2.74793 
 H                     9.55897   2.25659  -2.69087 
 H                     5.51721  -3.24048   1.87809 
 H                     8.08183  -0.34823   2.00843 
 H                     7.77465  -1.99168   2.57259 
 H                     8.35815  -1.72205   0.93548 
 H                     2.01214  -2.00218   0.40264 
 H                     3.35959  -4.20686   2.06562 
 H                     2.08594  -6.06321   2.68725 
 H                     0.04494  -7.41791   2.6663 
 H                    -1.59577  -8.66446   1.60733 
 H                    -2.2233   -7.85966   3.06882 
 H                    -3.86687  -9.43651   2.33221 
 H                    -4.51185  -7.8183    2.01284 
 H                    -4.33644  -6.97115  -0.23776 
 H                    -4.29541  -8.21083  -1.50446 
 H                    -6.45832  -8.02243   0.66059 
 H                    -6.58602  -7.35961  -0.98137 
 H                    -7.90763  -10.87814  -0.77473 
 H                    -8.14088  -9.56851   0.40476 
 H                    -9.8446   -9.4087   -1.29479 
 H                    -8.76364  -8.01611  -1.48327 
 H                    -10.45057  -9.17745  -3.66866 
 H                    -9.32281  -7.80488  -3.82581 
 H                    -9.1098   -9.2548   -4.84368 
 H                    -1.86943  -4.47497   0.17547 
 H                     0.17874  -3.11339   0.1956 
 H                     6.99503   4.49858  -0.07648 
 H                     7.17465   3.61404  -1.58378 
 H                     6.21295   5.09415  -1.5479 
 H                     1.35378   4.0899   -1.23878 
 H                     0.67154   1.56819   0.36335 
 H                    -0.65965   4.52758  -1.70652 
 H                    -3.02457   5.00486  -1.96336 
 H                    -5.06336   4.7532   -2.51705 
 H                    -6.61547   4.30074  -1.80218 
 H                    -4.57599   6.15856  -0.45759 
 H                    -5.98585   6.70061  -1.38222 
 H                    -8.11044   5.64554  -0.65708 
 H                    -8.23787   5.36007   1.08605 
 H                    -7.75573   7.75539   1.54618 
 H                    -7.57029   8.07354  -0.19317 
 H                    -9.65461   9.25784   1.63068 
 H                    -9.48988   9.59641  -0.10685 
 H                    -11.71322   8.56936  -0.54627 
 H                    -11.91862   8.22395   1.18361 
 H                    -12.85976   9.92529   2.48305 
 H                    -11.2623   10.71871   2.49574 
 H                    -12.69008   11.6087   1.91797 
 H                    -3.99869   1.61828   0.5093 
 H                    -1.58692   1.1377    0.78165 
 
 ITRead=  0  0  0  0  0  0  0  0  0  0  0  0  0  0  0  0  0  0  0  0
 ITRead=  0  0  0  0  0  0  0  0  0  0  0  0  0  0  0  0  0  0  0  0
 ITRead=  0  0  0  0  0  0  0  0  0  0  0  0  0  0  0  0  0  0  0  0
 ITRead=  0  0  0  0  0  0  0  0  0  0  0  0  0  0  0  0  0  0  0  0
 ITRead=  0  0  0  0  0  0  0  0  0  0  0  0  0  0  0  0  0  0  0  0
 ITRead=  0  0  0  0  0  0  0  0  0  0  0  0  0  0  0  0  0  0  0  0
 ITRead=  0
 MicOpt= -1 -1 -1 -1 -1 -1 -1 -1 -1 -1 -1 -1 -1 -1 -1 -1 -1 -1 -1 -1
 MicOpt= -1 -1 -1 -1 -1 -1 -1 -1 -1 -1 -1 -1 -1 -1 -1 -1 -1 -1 -1 -1
 MicOpt= -1 -1 -1 -1 -1 -1 -1 -1 -1 -1 -1 -1 -1 -1 -1 -1 -1 -1 -1 -1
 MicOpt= -1 -1 -1 -1 -1 -1 -1 -1 -1 -1 -1 -1 -1 -1 -1 -1 -1 -1 -1 -1
 MicOpt= -1 -1 -1 -1 -1 -1 -1 -1 -1 -1 -1 -1 -1 -1 -1 -1 -1 -1 -1 -1
 MicOpt= -1 -1 -1 -1 -1 -1 -1 -1 -1 -1 -1 -1 -1 -1 -1 -1 -1 -1 -1 -1
 MicOpt= -1
 NAtoms=    121 NQM=      121 NQMF=       0 NMMI=      0 NMMIF=      0
                NMic=       0 NMicF=      0.
                    Isotopes and Nuclear Properties:
 (Nuclear quadrupole moments (NQMom) in fm**2, nuclear magnetic moments (NMagM)
  in nuclear magnetons)

  Atom         1           2           3           4           5           6           7           8           9          10
 IAtWgt=          11          14          12          12          12          12          12          12          16          12
 AtmWgt=  11.0093053  14.0030740  12.0000000  12.0000000  12.0000000  12.0000000  12.0000000  12.0000000  15.9949146  12.0000000
 NucSpn=           3           2           0           0           0           0           0           0           0           0
 AtZEff=  -0.0000000  -0.0000000  -0.0000000  -0.0000000  -0.0000000  -0.0000000  -0.0000000  -0.0000000  -0.0000000  -0.0000000
 NQMom=    4.0590000   2.0440000   0.0000000   0.0000000   0.0000000   0.0000000   0.0000000   0.0000000   0.0000000   0.0000000
 NMagM=    2.6886370   0.4037610   0.0000000   0.0000000   0.0000000   0.0000000   0.0000000   0.0000000   0.0000000   0.0000000
 AtZNuc=   5.0000000   7.0000000   6.0000000   6.0000000   6.0000000   6.0000000   6.0000000   6.0000000   8.0000000   6.0000000

  Atom        11          12          13          14          15          16          17          18          19          20
 IAtWgt=          12          12          12          12          12          12          12          14          12          14
 AtmWgt=  12.0000000  12.0000000  12.0000000  12.0000000  12.0000000  12.0000000  12.0000000  14.0030740  12.0000000  14.0030740
 NucSpn=           0           0           0           0           0           0           0           2           0           2
 AtZEff=  -0.0000000  -0.0000000  -0.0000000  -0.0000000  -0.0000000  -0.0000000  -0.0000000  -0.0000000  -0.0000000  -0.0000000
 NQMom=    0.0000000   0.0000000   0.0000000   0.0000000   0.0000000   0.0000000   0.0000000   2.0440000   0.0000000   2.0440000
 NMagM=    0.0000000   0.0000000   0.0000000   0.0000000   0.0000000   0.0000000   0.0000000   0.4037610   0.0000000   0.4037610
 AtZNuc=   6.0000000   6.0000000   6.0000000   6.0000000   6.0000000   6.0000000   6.0000000   7.0000000   6.0000000   7.0000000

  Atom        21          22          23          24          25          26          27          28          29          30
 IAtWgt=          12          12          12          12          12          12          12          12          12          12
 AtmWgt=  12.0000000  12.0000000  12.0000000  12.0000000  12.0000000  12.0000000  12.0000000  12.0000000  12.0000000  12.0000000
 NucSpn=           0           0           0           0           0           0           0           0           0           0
 AtZEff=  -0.0000000  -0.0000000  -0.0000000  -0.0000000  -0.0000000  -0.0000000  -0.0000000  -0.0000000  -0.0000000  -0.0000000
 NQMom=    0.0000000   0.0000000   0.0000000   0.0000000   0.0000000   0.0000000   0.0000000   0.0000000   0.0000000   0.0000000
 NMagM=    0.0000000   0.0000000   0.0000000   0.0000000   0.0000000   0.0000000   0.0000000   0.0000000   0.0000000   0.0000000
 AtZNuc=   6.0000000   6.0000000   6.0000000   6.0000000   6.0000000   6.0000000   6.0000000   6.0000000   6.0000000   6.0000000

  Atom        31          32          33          34          35          36          37          38          39          40
 IAtWgt=          16          12          12          16          12          12          16          12          12          16
 AtmWgt=  15.9949146  12.0000000  12.0000000  15.9949146  12.0000000  12.0000000  15.9949146  12.0000000  12.0000000  15.9949146
 NucSpn=           0           0           0           0           0           0           0           0           0           0
 AtZEff=  -0.0000000  -0.0000000  -0.0000000  -0.0000000  -0.0000000  -0.0000000  -0.0000000  -0.0000000  -0.0000000  -0.0000000
 NQMom=    0.0000000   0.0000000   0.0000000   0.0000000   0.0000000   0.0000000   0.0000000   0.0000000   0.0000000   0.0000000
 NMagM=    0.0000000   0.0000000   0.0000000   0.0000000   0.0000000   0.0000000   0.0000000   0.0000000   0.0000000   0.0000000
 AtZNuc=   8.0000000   6.0000000   6.0000000   8.0000000   6.0000000   6.0000000   8.0000000   6.0000000   6.0000000   8.0000000

  Atom        41          42          43          44          45          46          47          48          49          50
 IAtWgt=          12          12          12          12          12          12          12          12          12          12
 AtmWgt=  12.0000000  12.0000000  12.0000000  12.0000000  12.0000000  12.0000000  12.0000000  12.0000000  12.0000000  12.0000000
 NucSpn=           0           0           0           0           0           0           0           0           0           0
 AtZEff=  -0.0000000  -0.0000000  -0.0000000  -0.0000000  -0.0000000  -0.0000000  -0.0000000  -0.0000000  -0.0000000  -0.0000000
 NQMom=    0.0000000   0.0000000   0.0000000   0.0000000   0.0000000   0.0000000   0.0000000   0.0000000   0.0000000   0.0000000
 NMagM=    0.0000000   0.0000000   0.0000000   0.0000000   0.0000000   0.0000000   0.0000000   0.0000000   0.0000000   0.0000000
 AtZNuc=   6.0000000   6.0000000   6.0000000   6.0000000   6.0000000   6.0000000   6.0000000   6.0000000   6.0000000   6.0000000

  Atom        51          52          53          54          55          56          57          58          59          60
 IAtWgt=          16          12          12          16          12          12          16          12          12          16
 AtmWgt=  15.9949146  12.0000000  12.0000000  15.9949146  12.0000000  12.0000000  15.9949146  12.0000000  12.0000000  15.9949146
 NucSpn=           0           0           0           0           0           0           0           0           0           0
 AtZEff=  -0.0000000  -0.0000000  -0.0000000  -0.0000000  -0.0000000  -0.0000000  -0.0000000  -0.0000000  -0.0000000  -0.0000000
 NQMom=    0.0000000   0.0000000   0.0000000   0.0000000   0.0000000   0.0000000   0.0000000   0.0000000   0.0000000   0.0000000
 NMagM=    0.0000000   0.0000000   0.0000000   0.0000000   0.0000000   0.0000000   0.0000000   0.0000000   0.0000000   0.0000000
 AtZNuc=   8.0000000   6.0000000   6.0000000   8.0000000   6.0000000   6.0000000   8.0000000   6.0000000   6.0000000   8.0000000

  Atom        61          62          63          64          65          66          67          68          69          70
 IAtWgt=          12          12          12          19          19           1           1           1           1           1
 AtmWgt=  12.0000000  12.0000000  12.0000000  18.9984033  18.9984033   1.0078250   1.0078250   1.0078250   1.0078250   1.0078250
 NucSpn=           0           0           0           1           1           1           1           1           1           1
 AtZEff=  -0.0000000  -0.0000000  -0.0000000  -0.0000000  -0.0000000  -0.0000000  -0.0000000  -0.0000000  -0.0000000  -0.0000000
 NQMom=    0.0000000   0.0000000   0.0000000   0.0000000   0.0000000   0.0000000   0.0000000   0.0000000   0.0000000   0.0000000
 NMagM=    0.0000000   0.0000000   0.0000000   2.6288670   2.6288670   2.7928460   2.7928460   2.7928460   2.7928460   2.7928460
 AtZNuc=   6.0000000   6.0000000   6.0000000   9.0000000   9.0000000   1.0000000   1.0000000   1.0000000   1.0000000   1.0000000

  Atom        71          72          73          74          75          76          77          78          79          80
 IAtWgt=           1           1           1           1           1           1           1           1           1           1
 AtmWgt=   1.0078250   1.0078250   1.0078250   1.0078250   1.0078250   1.0078250   1.0078250   1.0078250   1.0078250   1.0078250
 NucSpn=           1           1           1           1           1           1           1           1           1           1
 AtZEff=  -0.0000000  -0.0000000  -0.0000000  -0.0000000  -0.0000000  -0.0000000  -0.0000000  -0.0000000  -0.0000000  -0.0000000
 NQMom=    0.0000000   0.0000000   0.0000000   0.0000000   0.0000000   0.0000000   0.0000000   0.0000000   0.0000000   0.0000000
 NMagM=    2.7928460   2.7928460   2.7928460   2.7928460   2.7928460   2.7928460   2.7928460   2.7928460   2.7928460   2.7928460
 AtZNuc=   1.0000000   1.0000000   1.0000000   1.0000000   1.0000000   1.0000000   1.0000000   1.0000000   1.0000000   1.0000000

  Atom        81          82          83          84          85          86          87          88          89          90
 IAtWgt=           1           1           1           1           1           1           1           1           1           1
 AtmWgt=   1.0078250   1.0078250   1.0078250   1.0078250   1.0078250   1.0078250   1.0078250   1.0078250   1.0078250   1.0078250
 NucSpn=           1           1           1           1           1           1           1           1           1           1
 AtZEff=  -0.0000000  -0.0000000  -0.0000000  -0.0000000  -0.0000000  -0.0000000  -0.0000000  -0.0000000  -0.0000000  -0.0000000
 NQMom=    0.0000000   0.0000000   0.0000000   0.0000000   0.0000000   0.0000000   0.0000000   0.0000000   0.0000000   0.0000000
 NMagM=    2.7928460   2.7928460   2.7928460   2.7928460   2.7928460   2.7928460   2.7928460   2.7928460   2.7928460   2.7928460
 AtZNuc=   1.0000000   1.0000000   1.0000000   1.0000000   1.0000000   1.0000000   1.0000000   1.0000000   1.0000000   1.0000000

  Atom        91          92          93          94          95          96          97          98          99         100
 IAtWgt=           1           1           1           1           1           1           1           1           1           1
 AtmWgt=   1.0078250   1.0078250   1.0078250   1.0078250   1.0078250   1.0078250   1.0078250   1.0078250   1.0078250   1.0078250
 NucSpn=           1           1           1           1           1           1           1           1           1           1
 AtZEff=  -0.0000000  -0.0000000  -0.0000000  -0.0000000  -0.0000000  -0.0000000  -0.0000000  -0.0000000  -0.0000000  -0.0000000
 NQMom=    0.0000000   0.0000000   0.0000000   0.0000000   0.0000000   0.0000000   0.0000000   0.0000000   0.0000000   0.0000000
 NMagM=    2.7928460   2.7928460   2.7928460   2.7928460   2.7928460   2.7928460   2.7928460   2.7928460   2.7928460   2.7928460
 AtZNuc=   1.0000000   1.0000000   1.0000000   1.0000000   1.0000000   1.0000000   1.0000000   1.0000000   1.0000000   1.0000000

  Atom       101         102         103         104         105         106         107         108         109         110
 IAtWgt=           1           1           1           1           1           1           1           1           1           1
 AtmWgt=   1.0078250   1.0078250   1.0078250   1.0078250   1.0078250   1.0078250   1.0078250   1.0078250   1.0078250   1.0078250
 NucSpn=           1           1           1           1           1           1           1           1           1           1
 AtZEff=  -0.0000000  -0.0000000  -0.0000000  -0.0000000  -0.0000000  -0.0000000  -0.0000000  -0.0000000  -0.0000000  -0.0000000
 NQMom=    0.0000000   0.0000000   0.0000000   0.0000000   0.0000000   0.0000000   0.0000000   0.0000000   0.0000000   0.0000000
 NMagM=    2.7928460   2.7928460   2.7928460   2.7928460   2.7928460   2.7928460   2.7928460   2.7928460   2.7928460   2.7928460
 AtZNuc=   1.0000000   1.0000000   1.0000000   1.0000000   1.0000000   1.0000000   1.0000000   1.0000000   1.0000000   1.0000000

  Atom       111         112         113         114         115         116         117         118         119         120
 IAtWgt=           1           1           1           1           1           1           1           1           1           1
 AtmWgt=   1.0078250   1.0078250   1.0078250   1.0078250   1.0078250   1.0078250   1.0078250   1.0078250   1.0078250   1.0078250
 NucSpn=           1           1           1           1           1           1           1           1           1           1
 AtZEff=  -0.0000000  -0.0000000  -0.0000000  -0.0000000  -0.0000000  -0.0000000  -0.0000000  -0.0000000  -0.0000000  -0.0000000
 NQMom=    0.0000000   0.0000000   0.0000000   0.0000000   0.0000000   0.0000000   0.0000000   0.0000000   0.0000000   0.0000000
 NMagM=    2.7928460   2.7928460   2.7928460   2.7928460   2.7928460   2.7928460   2.7928460   2.7928460   2.7928460   2.7928460
 AtZNuc=   1.0000000   1.0000000   1.0000000   1.0000000   1.0000000   1.0000000   1.0000000   1.0000000   1.0000000   1.0000000

  Atom       121
 IAtWgt=           1
 AtmWgt=   1.0078250
 NucSpn=           1
 AtZEff=  -0.0000000
 NQMom=    0.0000000
 NMagM=    2.7928460
 AtZNuc=   1.0000000
 Leave Link  101 at Thu Oct 30 18:47:36 2025, MaxMem= 30870077440 cpu:               4.5 elap:               0.1
 (Enter /public/software/gauss/g16/l202.exe)
 Stoichiometry    C50H56BF2N3O9(1-,2)
 Framework group  C1[X(C50H56BF2N3O9)]
 Deg. of freedom   357
 Full point group                 C1      NOp   1
 Largest Abelian subgroup         C1      NOp   1
 Largest concise Abelian subgroup C1      NOp   1
                         Standard orientation:                         
 ---------------------------------------------------------------------
 Center     Atomic      Atomic             Coordinates (Angstroms)
 Number     Number       Type             X           Y           Z
 ---------------------------------------------------------------------
      1          5           0        3.069836   -0.453078   -0.241514
      2          7           0        3.662448   -1.838344    0.084676
      3          6           0        2.972593   -2.942196    0.573992
      4          6           0        3.925316   -3.908069    0.945992
      5          6           0        5.205407   -3.427617    0.684085
      6          6           0        5.032395   -2.119455    0.128994
      7          6           0        5.986586   -1.139217   -0.260716
      8          6           0        7.435327   -1.476332   -0.185889
      9          8           0        7.931193   -2.387729   -0.850746
     10          6           0        8.260421   -0.719296    0.860687
     11          6           0        9.722775   -1.084760    0.889710
     12          6           0       10.601436   -0.631148   -0.107155
     13          6           0       11.947279   -0.976730   -0.086097
     14          6           0       12.437842   -1.795044    0.947123
     15          6           0       11.571356   -2.257665    1.951154
     16          6           0       10.227263   -1.900601    1.912494
     17          6           0       13.821386   -2.154314    0.976790
     18          7           0       14.950286   -2.447571    1.000524
     19          6           0        5.560620    0.161835   -0.653181
     20          7           0        4.226627    0.524388   -0.521493
     21          6           0        4.066126    1.817790   -0.994588
     22          6           0        5.316331    2.265763   -1.452237
     23          6           0        6.256605    1.248455   -1.265353
     24          6           0        7.689238    1.324493   -1.709030
     25          6           0        2.803098    2.506343   -0.948502
     26          6           0        2.559673    3.721201   -1.508484
     27          6           0        1.312480    4.475866   -1.451986
     28          6           0        1.222444    5.704820   -2.132863
     29          6           0        0.062911    6.480752   -2.123392
     30          6           0       -1.056718    6.033408   -1.413453
     31          8           0       -2.249091    6.706293   -1.331254
     32          6           0       -2.362429    7.978179   -1.986493
     33          6           0       -3.743460    8.540615   -1.713507
     34          8           0       -3.904041    8.933700   -0.348787
     35          6           0       -4.612815    8.003786    0.477046
     36          6           0       -6.119916    8.152319    0.378390
     37          8           0       -6.481034    9.449169    0.851493
     38          6           0       -7.847311    9.794433    0.630692
     39          6           0       -8.821330    9.111192    1.574505
     40          8           0       -8.529629    9.509898    2.909540
     41          6           0       -9.401985    8.901288    3.851704
     42          6           0       -0.994763    4.810258   -0.724396
     43          6           0        0.163981    4.050374   -0.743409
     44          6           0        6.463091   -4.191381    0.982876
     45          6           0        1.558488   -3.166792    0.698393
     46          6           0        0.494563   -2.455059    0.233112
     47          6           0       -0.912039   -2.791852    0.433269
     48          6           0       -1.371170   -3.877990    1.206221
     49          6           0       -2.728013   -4.155120    1.360480
     50          6           0       -3.683275   -3.336503    0.741201
     51          8           0       -5.046386   -3.490255    0.841769
     52          6           0       -5.591327   -4.602979    1.569016
     53          6           0       -5.593393   -5.889516    0.755030
     54          8           0       -6.338775   -5.758893   -0.459263
     55          6           0       -7.744599   -5.972095   -0.324139
     56          6           0       -8.087018   -7.441824   -0.545107
     57          8           0       -9.497912   -7.578727   -0.416629
     58          6           0       -9.944514   -8.914487   -0.627142
     59          6           0      -11.462345   -8.915807   -0.461595
     60          8           0      -12.015016  -10.221580   -0.593765
     61          6           0      -12.207798  -10.628456   -1.946500
     62          6           0       -3.254154   -2.248912   -0.033252
     63          6           0       -1.899156   -1.986710   -0.179104
     64          9           0        2.283815    0.017502    0.834002
     65          9           0        2.235393   -0.522603   -1.387131
     66          1           0        3.683549   -4.878689    1.361652
     67          1           0        8.117846    0.355894    0.721661
     68          1           0        7.795025   -0.952869    1.826579
     69          1           0       10.228570    0.002893   -0.904751
     70          1           0       12.621094   -0.619795   -0.857491
     71          1           0       11.953353   -2.886659    2.747925
     72          1           0        9.558971   -2.256585    2.690874
     73          1           0        5.517207    3.240483   -1.878089
     74          1           0        8.081829    0.348225   -2.008429
     75          1           0        7.774654    1.991684   -2.572594
     76          1           0        8.358149    1.722045   -0.935478
     77          1           0        2.012142    2.002183   -0.402637
     78          1           0        3.359591    4.206859   -2.065624
     79          1           0        2.085940    6.063210   -2.687248
     80          1           0        0.044942    7.417908   -2.666296
     81          1           0       -1.595769    8.664456   -1.607331
     82          1           0       -2.223301    7.859662   -3.068821
     83          1           0       -3.866868    9.436506   -2.332212
     84          1           0       -4.511850    7.818302   -2.012839
     85          1           0       -4.336440    6.971146    0.237755
     86          1           0       -4.295408    8.210830    1.504460
     87          1           0       -6.458316    8.022435   -0.660591
     88          1           0       -6.586015    7.359612    0.981374
     89          1           0       -7.907631   10.878136    0.774727
     90          1           0       -8.140879    9.568510   -0.404757
     91          1           0       -9.844598    9.408698    1.294792
     92          1           0       -8.763639    8.016114    1.483265
     93          1           0      -10.450565    9.177448    3.668655
     94          1           0       -9.322811    7.804879    3.825809
     95          1           0       -9.109802    9.254803    4.843680
     96          1           0       -1.869432    4.474970   -0.175469
     97          1           0        0.178741    3.113394   -0.195602
     98          1           0        6.995026   -4.498577    0.076475
     99          1           0        7.174648   -3.614037    1.583779
    100          1           0        6.212953   -5.094146    1.547901
    101          1           0        1.353782   -4.089896    1.238780
    102          1           0        0.671535   -1.568191   -0.363346
    103          1           0       -0.659646   -4.527578    1.706524
    104          1           0       -3.024570   -5.004864    1.963362
    105          1           0       -5.063362   -4.753199    2.517048
    106          1           0       -6.615473   -4.300736    1.802181
    107          1           0       -4.575989   -6.158564    0.457593
    108          1           0       -5.985851   -6.700615    1.382219
    109          1           0       -8.110439   -5.645536    0.657083
    110          1           0       -8.237867   -5.360071   -1.086049
    111          1           0       -7.755734   -7.755390   -1.546179
    112          1           0       -7.570285   -8.073542    0.193170
    113          1           0       -9.654612   -9.257836   -1.630675
    114          1           0       -9.489878   -9.596408    0.106852
    115          1           0      -11.713223   -8.569356    0.546271
    116          1           0      -11.918623   -8.223945   -1.183614
    117          1           0      -12.859763   -9.925294   -2.483052
    118          1           0      -11.262299  -10.718715   -2.495738
    119          1           0      -12.690077  -11.608695   -1.917972
    120          1           0       -3.998685   -1.618277   -0.509296
    121          1           0       -1.586920   -1.137701   -0.781652
 ---------------------------------------------------------------------
 Rotational constants (GHZ):           0.0181219           0.0114444           0.0072956
 Leave Link  202 at Thu Oct 30 18:47:36 2025, MaxMem= 30870077440 cpu:               0.2 elap:               0.0
 (Enter /public/software/gauss/g16/l301.exe)
 Standard basis: def2TZVPP (5D, 7F)
 Ernie: Thresh=  0.10000D-02 Tol=  0.10000D-05 Strict=F.
 There are  3180 symmetry adapted cartesian basis functions of A   symmetry.
 There are  2799 symmetry adapted basis functions of A   symmetry.
  2799 basis functions,  4267 primitive gaussians,  3180 cartesian basis functions
   237 alpha electrons      236 beta electrons
       nuclear repulsion energy      8237.5100593795 Hartrees.
 IExCor= 4336 DFT=T Ex+Corr=M062X ExCW=0 ScaHFX=  0.540000
 ScaDFX=  1.000000  1.000000  1.000000  1.000000 ScalE2=  1.000000  1.000000
 IRadAn=      5 IRanWt=     -1 IRanGd=            0 ICorTp=0 IEmpDi=131
 NAtoms=  121 NActive=  121 NUniq=  121 SFac= 1.00D+00 NAtFMM=   60 NAOKFM=T Big=T
 Integral buffers will be    131072 words long.
 Raffenetti 2 integral format.
 Two-electron integral symmetry is turned on.
 R6Disp:  Grimme-D3 Dispersion energy=       -0.0090172097 Hartrees.
 Nuclear repulsion after empirical dispersion term =     8237.5010421698 Hartrees.
 ------------------------------------------------------------------------------
 Polarizable Continuum Model (PCM)
 =================================
 Model                : PCM.
 Atomic radii         : UFF (Universal Force Field).
 Polarization charges : Total charges.
 Charge compensation  : None.
 Solution method      : On-the-fly selection.
 Cavity type          : Scaled VdW (van der Waals Surface) (Alpha=1.100).
 Cavity algorithm     : GePol (No added spheres)
                        Default sphere list used, NSphG=  121.
                        Lebedev-Laikov grids with approx.  5.0 points / Ang**2.
                        Smoothing algorithm: York/Karplus (Gamma=1.0000).
                        Polarization charges: spherical gaussians, with
                                              point-specific exponents (IZeta= 3).
                        Self-potential: point-specific (ISelfS= 7).
                        Self-field    : sphere-specific E.n sum rule (ISelfD= 2).
 Solvent              : Water, Eps=  78.355300 Eps(inf)=   1.777849
 ------------------------------------------------------------------------------
 GePol: Number of generator spheres                  =     121
 GePol: Total number of spheres                      =     121
 GePol: Number of exposed spheres                    =     121 (100.00%)
 GePol: Number of points                             =    8530
 GePol: Average weight of points                     =       0.13
 GePol: Minimum weight of points                     =   0.58D-11
 GePol: Maximum weight of points                     =    0.20577
 GePol: Number of points with low weight             =     594
 GePol: Fraction of low-weight points (<1% of avg)   =       6.96%
 GePol: Cavity surface area                          =   1090.729 Ang**2
 GePol: Cavity volume                                =   1234.912 Ang**3
 Leave Link  301 at Thu Oct 30 18:47:36 2025, MaxMem= 30870077440 cpu:               4.5 elap:               0.1
 (Enter /public/software/gauss/g16/l302.exe)
 NPDir=0 NMtPBC=     1 NCelOv=     1 NCel=       1 NClECP=     1 NCelD=      1
         NCelK=      1 NCelE2=     1 NClLst=     1 CellRange=     0.0.
 One-electron integrals computed using PRISM.
 One-electron integral symmetry used in STVInt
   1 Symmetry operations used in ECPInt.
 ECPInt:  NShTT=  552826 NPrTT= 1530224 LenC2=  219945 LenP2D=  409221.
 LDataN:  DoStor=T MaxTD1= 6 Len=  172
 Number of processors reduced to  60 by ecpmxn.
 NBasis=  2799 RedAO= T EigKep=  5.95D-06  NBF=  2799
 NBsUse=  2799 1.00D-06 EigRej= -1.00D+00 NBFU=  2799
 Precomputing XC quadrature grid using
 IXCGrd= 4 IRadAn=           5 IRanWt=          -1 IRanGd=           0 AccXCQ= 0.00D+00.
 Generated NRdTot=       0 NPtTot=           0 NUsed=           0 NTot=          32
 NSgBfM=  2346  2346  2346  2346  2346 MxSgAt=   121 MxSgA2=   121.
 Leave Link  302 at Thu Oct 30 18:48:03 2025, MaxMem= 30870077440 cpu:            1735.3 elap:              27.2
 (Enter /public/software/gauss/g16/l303.exe)
 DipDrv:  MaxL=1.
 Leave Link  303 at Thu Oct 30 18:48:04 2025, MaxMem= 30870077440 cpu:              54.0 elap:               0.9
 (Enter /public/software/gauss/g16/l401.exe)
 ExpMin= 6.06D-02 ExpMax= 3.55D+04 ExpMxC= 1.21D+03 IAcc=3 IRadAn=         5 AccDes= 0.00D+00
 Harris functional with IExCor= 1009 and IRadAn=       5 diagonalized for initial guess.
 HarFok:  IExCor= 1009 AccDes= 0.00D+00 IRadAn=         5 IDoV= 1 UseB2=F ITyADJ=14
 ICtDFT=  3500011 ScaDFX=  1.000000  1.000000  1.000000  1.000000
 FoFCou: FMM=F IPFlag=           0 FMFlag=      100000 FMFlg1=        2001
         NFxFlg=           0 DoJE=T BraDBF=F KetDBF=T FulRan=T
         wScrn=  0.000000 ICntrl=       500 IOpCl=  0 I1Cent=   200000004 NGrid=           0
         NMat0=    1 NMatS0=      1 NMatT0=    0 NMatD0=    1 NMtDS0=    0 NMtDT0=    0
 Petite list used in FoFCou.
 Harris En= -3003.55577309455    
 JPrj=0 DoOrth=F DoCkMO=F.
 Initial guess <Sx>= 0.0000 <Sy>= 0.0000 <Sz>= 0.5000 <S**2>= 0.7500 S= 0.5000
 Leave Link  401 at Thu Oct 30 18:48:27 2025, MaxMem= 30870077440 cpu:            1402.3 elap:              22.0
 (Enter /public/software/gauss/g16/l502.exe)
 Integral symmetry usage will be decided dynamically.
 UHF open shell SCF:
 Using DIIS extrapolation, IDIIS=  1040.
 NGot= 30870077440 LenX= 30849622267 LenY= 30839506687
 Requested convergence on RMS density matrix=1.00D-08 within 128 cycles.
 Requested convergence on MAX density matrix=1.00D-06.
 Requested convergence on             energy=1.00D-06.
 No special actions if energy rises.
 Fock matrices will be formed incrementally for  20 cycles.

 Cycle   1  Pass 1  IDiag  1:
 FoFJK:  IHMeth= 1 ICntrl=       0 DoSepK=F KAlg= 0 I1Cent=           0 FoldK=F
 IRaf= 360000000 NMat=       1 IRICut=       1 DoRegI=T DoRafI=F ISym2E= 0 IDoP0=0 IntGTp=1.
 FoFCou: FMM=T IPFlag=           0 FMFlag=      100000 FMFlg1=        2001
         NFxFlg=           0 DoJE=F BraDBF=F KetDBF=F FulRan=T
         wScrn=  0.000000 ICntrl=         0 IOpCl=  1 I1Cent=           0 NGrid=           0
         NMat0=    1 NMatS0=      1 NMatT0=    0 NMatD0=    1 NMtDS0=    0 NMtDT0=    0
 Symmetry not used in FoFCou.
 FMM levels:  10  Number of levels for PrismC:   9
 Inv3:  Mode=1 IEnd=   218282700.
 Iteration    1 A*A^-1 deviation from unit magnitude is 1.83D-14 for   2122.
 Iteration    1 A*A^-1 deviation from orthogonality  is 1.47D-14 for   5320   2122.
 Iteration    1 A^-1*A deviation from unit magnitude is 1.39D-14 for   2122.
 Iteration    1 A^-1*A deviation from orthogonality  is 1.03D-12 for   5639   5518.
 E= -3003.59653808667    
 DIIS: error= 1.62D-02 at cycle   1 NSaved=   1.
 NSaved= 1 IEnMin= 1 EnMin= -3003.59653808667     IErMin= 1 ErrMin= 1.62D-02
 ErrMax= 1.62D-02  0.00D+00 EMaxC= 1.00D-01 BMatC= 7.42D+00 BMatP= 7.42D+00
 IDIUse=3 WtCom= 8.38D-01 WtEn= 1.62D-01
 Coeff-Com:  0.100D+01
 Coeff-En:   0.100D+01
 Coeff:      0.100D+01
 Gap=     0.157 Goal=   None    Shift=    0.000
 Gap=     0.123 Goal=   None    Shift=    0.000
 GapD=    0.123 DampG=1.000 DampE=0.500 DampFc=0.5000 IDamp=-1.
 Damping current iteration by 5.00D-01
 RMSDP=1.51D-03 MaxDP=6.69D-01              OVMax= 1.72D-01

 Cycle   2  Pass 1  IDiag  1:
 RMSU=  7.55D-04    CP:  1.00D+00
 E= -3004.34261707071     Delta-E=       -0.746078984044 Rises=F Damp=T
 DIIS: error= 4.94D-03 at cycle   2 NSaved=   2.
 NSaved= 2 IEnMin= 2 EnMin= -3004.34261707071     IErMin= 2 ErrMin= 4.94D-03
 ErrMax= 4.94D-03  0.00D+00 EMaxC= 1.00D-01 BMatC= 7.52D-01 BMatP= 7.42D+00
 IDIUse=3 WtCom= 9.51D-01 WtEn= 4.94D-02
 Coeff-Com: -0.186D+00 0.119D+01
 Coeff-En:   0.000D+00 0.100D+01
 Coeff:     -0.177D+00 0.118D+01
 Gap=     0.139 Goal=   None    Shift=    0.000
 Gap=     0.136 Goal=   None    Shift=    0.000
 RMSDP=4.66D-04 MaxDP=1.15D-01 DE=-7.46D-01 OVMax= 1.28D-01

 Cycle   3  Pass 1  IDiag  1:
 RMSU=  4.63D-04    CP:  9.88D-01  1.03D+00
 E= -3004.96887235728     Delta-E=       -0.626255286570 Rises=F Damp=F
 DIIS: error= 6.13D-03 at cycle   3 NSaved=   3.
 NSaved= 3 IEnMin= 3 EnMin= -3004.96887235728     IErMin= 2 ErrMin= 4.94D-03
 ErrMax= 6.13D-03  0.00D+00 EMaxC= 1.00D-01 BMatC= 3.24D-01 BMatP= 7.52D-01
 IDIUse=3 WtCom= 9.39D-01 WtEn= 6.13D-02
 Coeff-Com: -0.147D+00 0.520D+00 0.627D+00
 Coeff-En:   0.000D+00 0.000D+00 0.100D+01
 Coeff:     -0.138D+00 0.488D+00 0.650D+00
 Gap=     0.148 Goal=   None    Shift=    0.000
 Gap=     0.132 Goal=   None    Shift=    0.000
 RMSDP=1.97D-04 MaxDP=8.90D-02 DE=-6.26D-01 OVMax= 6.47D-02

 Cycle   4  Pass 1  IDiag  1:
 RMSU=  1.62D-04    CP:  9.91D-01  1.15D+00  8.54D-01
 E= -3005.01744329035     Delta-E=       -0.048570933073 Rises=F Damp=F
 DIIS: error= 3.75D-03 at cycle   4 NSaved=   4.
 NSaved= 4 IEnMin= 4 EnMin= -3005.01744329035     IErMin= 4 ErrMin= 3.75D-03
 ErrMax= 3.75D-03  0.00D+00 EMaxC= 1.00D-01 BMatC= 8.57D-02 BMatP= 3.24D-01
 IDIUse=3 WtCom= 9.62D-01 WtEn= 3.75D-02
 Coeff-Com: -0.492D-01 0.122D+00 0.374D+00 0.553D+00
 Coeff-En:   0.000D+00 0.000D+00 0.218D+00 0.782D+00
 Coeff:     -0.474D-01 0.118D+00 0.368D+00 0.562D+00
 Gap=     0.145 Goal=   None    Shift=    0.000
 Gap=     0.136 Goal=   None    Shift=    0.000
 RMSDP=8.04D-05 MaxDP=3.80D-02 DE=-4.86D-02 OVMax= 2.73D-02

 Cycle   5  Pass 1  IDiag  1:
 RMSU=  4.05D-05    CP:  9.89D-01  1.11D+00  9.15D-01  6.57D-01
 E= -3005.03498602064     Delta-E=       -0.017542730291 Rises=F Damp=F
 DIIS: error= 9.19D-04 at cycle   5 NSaved=   5.
 NSaved= 5 IEnMin= 5 EnMin= -3005.03498602064     IErMin= 5 ErrMin= 9.19D-04
 ErrMax= 9.19D-04  0.00D+00 EMaxC= 1.00D-01 BMatC= 2.94D-03 BMatP= 8.57D-02
 IDIUse=3 WtCom= 9.91D-01 WtEn= 9.19D-03
 Coeff-Com: -0.144D-01 0.293D-01 0.138D+00 0.260D+00 0.587D+00
 Coeff-En:   0.000D+00 0.000D+00 0.000D+00 0.000D+00 0.100D+01
 Coeff:     -0.143D-01 0.290D-01 0.137D+00 0.258D+00 0.591D+00
 Gap=     0.144 Goal=   None    Shift=    0.000
 Gap=     0.137 Goal=   None    Shift=    0.000
 RMSDP=1.99D-05 MaxDP=9.62D-03 DE=-1.75D-02 OVMax= 6.71D-03

 Cycle   6  Pass 1  IDiag  1:
 RMSU=  1.69D-05    CP:  9.90D-01  1.12D+00  9.11D-01  6.86D-01  1.01D+00
 E= -3005.03561308446     Delta-E=       -0.000627063813 Rises=F Damp=F
 DIIS: error= 2.99D-04 at cycle   6 NSaved=   6.
 NSaved= 6 IEnMin= 6 EnMin= -3005.03561308446     IErMin= 6 ErrMin= 2.99D-04
 ErrMax= 2.99D-04  0.00D+00 EMaxC= 1.00D-01 BMatC= 3.79D-04 BMatP= 2.94D-03
 IDIUse=3 WtCom= 9.97D-01 WtEn= 2.99D-03
 Coeff-Com: -0.526D-03-0.127D-02 0.184D-01 0.515D-01 0.278D+00 0.654D+00
 Coeff-En:   0.000D+00 0.000D+00 0.000D+00 0.000D+00 0.000D+00 0.100D+01
 Coeff:     -0.525D-03-0.127D-02 0.183D-01 0.513D-01 0.277D+00 0.655D+00
 Gap=     0.146 Goal=   None    Shift=    0.000
 Gap=     0.138 Goal=   None    Shift=    0.000
 RMSDP=9.46D-06 MaxDP=3.79D-03 DE=-6.27D-04 OVMax= 4.46D-03

 Cycle   7  Pass 1  IDiag  1:
 RMSU=  6.26D-06    CP:  9.90D-01  1.12D+00  9.12D-01  7.01D-01  1.15D+00
                    CP:  1.19D+00
 E= -3005.03574924588     Delta-E=       -0.000136161418 Rises=F Damp=F
 DIIS: error= 1.10D-04 at cycle   7 NSaved=   7.
 NSaved= 7 IEnMin= 7 EnMin= -3005.03574924588     IErMin= 7 ErrMin= 1.10D-04
 ErrMax= 1.10D-04  0.00D+00 EMaxC= 1.00D-01 BMatC= 6.74D-05 BMatP= 3.79D-04
 IDIUse=3 WtCom= 9.99D-01 WtEn= 1.10D-03
 Coeff-Com:  0.252D-02-0.591D-02-0.196D-01-0.314D-01-0.835D-02 0.242D+00
 Coeff-Com:  0.821D+00
 Coeff-En:   0.000D+00 0.000D+00 0.000D+00 0.000D+00 0.000D+00 0.000D+00
 Coeff-En:   0.100D+01
 Coeff:      0.251D-02-0.591D-02-0.195D-01-0.314D-01-0.834D-02 0.242D+00
 Coeff:      0.821D+00
 Gap=     0.146 Goal=   None    Shift=    0.000
 Gap=     0.139 Goal=   None    Shift=    0.000
 RMSDP=8.58D-06 MaxDP=3.61D-03 DE=-1.36D-04 OVMax= 4.01D-03

 Cycle   8  Pass 1  IDiag  1:
 RMSU=  3.47D-06    CP:  9.90D-01  1.12D+00  9.15D-01  7.09D-01  1.27D+00
                    CP:  1.45D+00  1.57D+00
 E= -3005.03580126348     Delta-E=       -0.000052017602 Rises=F Damp=F
 DIIS: error= 6.85D-05 at cycle   8 NSaved=   8.
 NSaved= 8 IEnMin= 8 EnMin= -3005.03580126348     IErMin= 8 ErrMin= 6.85D-05
 ErrMax= 6.85D-05  0.00D+00 EMaxC= 1.00D-01 BMatC= 2.59D-05 BMatP= 6.74D-05
 IDIUse=1 WtCom= 1.00D+00 WtEn= 0.00D+00
 Coeff-Com:  0.150D-02-0.272D-02-0.162D-01-0.339D-01-0.962D-01-0.948D-01
 Coeff-Com:  0.416D+00 0.826D+00
 Coeff:      0.150D-02-0.272D-02-0.162D-01-0.339D-01-0.962D-01-0.948D-01
 Coeff:      0.416D+00 0.826D+00
 Gap=     0.147 Goal=   None    Shift=    0.000
 Gap=     0.140 Goal=   None    Shift=    0.000
 RMSDP=6.45D-06 MaxDP=3.64D-03 DE=-5.20D-05 OVMax= 3.64D-03

 Cycle   9  Pass 1  IDiag  1:
 RMSU=  1.72D-06    CP:  9.90D-01  1.12D+00  9.16D-01  7.19D-01  1.35D+00
                    CP:  1.66D+00  2.12D+00  1.42D+00
 E= -3005.03582427167     Delta-E=       -0.000023008191 Rises=F Damp=F
 DIIS: error= 2.79D-05 at cycle   9 NSaved=   9.
 NSaved= 9 IEnMin= 9 EnMin= -3005.03582427167     IErMin= 9 ErrMin= 2.79D-05
 ErrMax= 2.79D-05  0.00D+00 EMaxC= 1.00D-01 BMatC= 5.94D-06 BMatP= 2.59D-05
 IDIUse=1 WtCom= 1.00D+00 WtEn= 0.00D+00
 Coeff-Com: -0.205D-03 0.739D-03-0.220D-03-0.363D-02-0.355D-01-0.108D+00
 Coeff-Com: -0.827D-01 0.327D+00 0.902D+00
 Coeff:     -0.205D-03 0.739D-03-0.220D-03-0.363D-02-0.355D-01-0.108D+00
 Coeff:     -0.827D-01 0.327D+00 0.902D+00
 Gap=     0.147 Goal=   None    Shift=    0.000
 Gap=     0.141 Goal=   None    Shift=    0.000
 RMSDP=3.68D-06 MaxDP=1.77D-03 DE=-2.30D-05 OVMax= 2.12D-03

 Cycle  10  Pass 1  IDiag  1:
 RMSU=  1.03D-06    CP:  9.89D-01  1.12D+00  9.17D-01  7.22D-01  1.38D+00
                    CP:  1.76D+00  2.46D+00  1.86D+00  1.40D+00
 E= -3005.03583028340     Delta-E=       -0.000006011731 Rises=F Damp=F
 DIIS: error= 1.26D-05 at cycle  10 NSaved=  10.
 NSaved=10 IEnMin=10 EnMin= -3005.03583028340     IErMin=10 ErrMin= 1.26D-05
 ErrMax= 1.26D-05  0.00D+00 EMaxC= 1.00D-01 BMatC= 1.93D-06 BMatP= 5.94D-06
 IDIUse=1 WtCom= 1.00D+00 WtEn= 0.00D+00
 Coeff-Com: -0.490D-03 0.110D-02 0.388D-02 0.662D-02 0.505D-02-0.293D-01
 Coeff-Com: -0.143D+00-0.415D-01 0.470D+00 0.727D+00
 Coeff:     -0.490D-03 0.110D-02 0.388D-02 0.662D-02 0.505D-02-0.293D-01
 Coeff:     -0.143D+00-0.415D-01 0.470D+00 0.727D+00
 Gap=     0.147 Goal=   None    Shift=    0.000
 Gap=     0.141 Goal=   None    Shift=    0.000
 RMSDP=1.52D-06 MaxDP=9.17D-04 DE=-6.01D-06 OVMax= 9.83D-04

 Cycle  11  Pass 1  IDiag  1:
 RMSU=  4.87D-07    CP:  9.89D-01  1.12D+00  9.17D-01  7.23D-01  1.39D+00
                    CP:  1.79D+00  2.59D+00  2.06D+00  1.69D+00  1.23D+00
 E= -3005.03583164330     Delta-E=       -0.000001359902 Rises=F Damp=F
 DIIS: error= 4.30D-06 at cycle  11 NSaved=  11.
 NSaved=11 IEnMin=11 EnMin= -3005.03583164330     IErMin=11 ErrMin= 4.30D-06
 ErrMax= 4.30D-06  0.00D+00 EMaxC= 1.00D-01 BMatC= 3.13D-07 BMatP= 1.93D-06
 IDIUse=1 WtCom= 1.00D+00 WtEn= 0.00D+00
 Coeff-Com: -0.153D-03 0.297D-03 0.160D-02 0.347D-02 0.868D-02 0.978D-02
 Coeff-Com: -0.409D-01-0.794D-01 0.103D-01 0.266D+00 0.820D+00
 Coeff:     -0.153D-03 0.297D-03 0.160D-02 0.347D-02 0.868D-02 0.978D-02
 Coeff:     -0.409D-01-0.794D-01 0.103D-01 0.266D+00 0.820D+00
 Gap=     0.147 Goal=   None    Shift=    0.000
 Gap=     0.141 Goal=   None    Shift=    0.000
 RMSDP=6.47D-07 MaxDP=3.04D-04 DE=-1.36D-06 OVMax= 4.93D-04

 Cycle  12  Pass 1  IDiag  1:
 RMSU=  2.54D-07    CP:  9.89D-01  1.12D+00  9.17D-01  7.24D-01  1.39D+00
                    CP:  1.80D+00  2.64D+00  2.13D+00  1.84D+00  1.51D+00
                    CP:  1.37D+00
 E= -3005.03583203966     Delta-E=       -0.000000396358 Rises=F Damp=F
 DIIS: error= 2.88D-06 at cycle  12 NSaved=  12.
 NSaved=12 IEnMin=12 EnMin= -3005.03583203966     IErMin=12 ErrMin= 2.88D-06
 ErrMax= 2.88D-06  0.00D+00 EMaxC= 1.00D-01 BMatC= 1.08D-07 BMatP= 3.13D-07
 IDIUse=1 WtCom= 1.00D+00 WtEn= 0.00D+00
 Coeff-Com:  0.753D-04-0.182D-03-0.471D-03-0.610D-03 0.111D-02 0.930D-02
 Coeff-Com:  0.196D-01-0.109D-01-0.109D+00-0.106D+00 0.296D+00 0.901D+00
 Coeff:      0.753D-04-0.182D-03-0.471D-03-0.610D-03 0.111D-02 0.930D-02
 Coeff:      0.196D-01-0.109D-01-0.109D+00-0.106D+00 0.296D+00 0.901D+00
 Gap=     0.147 Goal=   None    Shift=    0.000
 Gap=     0.141 Goal=   None    Shift=    0.000
 RMSDP=4.27D-07 MaxDP=2.45D-04 DE=-3.96D-07 OVMax= 4.17D-04

 Cycle  13  Pass 1  IDiag  1:
 RMSU=  1.33D-07    CP:  9.89D-01  1.12D+00  9.17D-01  7.24D-01  1.39D+00
                    CP:  1.81D+00  2.66D+00  2.16D+00  1.93D+00  1.69D+00
                    CP:  1.83D+00  1.54D+00
 E= -3005.03583222764     Delta-E=       -0.000000187983 Rises=F Damp=F
 DIIS: error= 1.96D-06 at cycle  13 NSaved=  13.
 NSaved=13 IEnMin=13 EnMin= -3005.03583222764     IErMin=13 ErrMin= 1.96D-06
 ErrMax= 1.96D-06  0.00D+00 EMaxC= 1.00D-01 BMatC= 3.93D-08 BMatP= 1.08D-07
 IDIUse=1 WtCom= 1.00D+00 WtEn= 0.00D+00
 Coeff-Com:  0.870D-04-0.181D-03-0.784D-03-0.159D-02-0.273D-02 0.266D-04
 Coeff-Com:  0.219D-01 0.272D-01-0.472D-01-0.147D+00-0.179D+00 0.332D+00
 Coeff-Com:  0.997D+00
 Coeff:      0.870D-04-0.181D-03-0.784D-03-0.159D-02-0.273D-02 0.266D-04
 Coeff:      0.219D-01 0.272D-01-0.472D-01-0.147D+00-0.179D+00 0.332D+00
 Coeff:      0.997D+00
 Gap=     0.147 Goal=   None    Shift=    0.000
 Gap=     0.141 Goal=   None    Shift=    0.000
 RMSDP=3.41D-07 MaxDP=1.70D-04 DE=-1.88D-07 OVMax= 3.52D-04

 Cycle  14  Pass 1  IDiag  1:
 RMSU=  7.26D-08    CP:  9.89D-01  1.12D+00  9.17D-01  7.24D-01  1.40D+00
                    CP:  1.81D+00  2.67D+00  2.19D+00  1.98D+00  1.82D+00
                    CP:  2.21D+00  2.10D+00  1.79D+00
 E= -3005.03583231891     Delta-E=       -0.000000091266 Rises=F Damp=F
 DIIS: error= 1.20D-06 at cycle  14 NSaved=  14.
 NSaved=14 IEnMin=14 EnMin= -3005.03583231891     IErMin=14 ErrMin= 1.20D-06
 ErrMax= 1.20D-06  0.00D+00 EMaxC= 1.00D-01 BMatC= 1.16D-08 BMatP= 3.93D-08
 IDIUse=1 WtCom= 1.00D+00 WtEn= 0.00D+00
 Coeff-Com: -0.781D-05 0.237D-04-0.310D-05-0.183D-03-0.104D-02-0.352D-02
 Coeff-Com: -0.299D-02 0.115D-01 0.296D-01 0.363D-02-0.165D+00-0.261D+00
 Coeff-Com:  0.259D+00 0.113D+01
 Coeff:     -0.781D-05 0.237D-04-0.310D-05-0.183D-03-0.104D-02-0.352D-02
 Coeff:     -0.299D-02 0.115D-01 0.296D-01 0.363D-02-0.165D+00-0.261D+00
 Coeff:      0.259D+00 0.113D+01
 Gap=     0.147 Goal=   None    Shift=    0.000
 Gap=     0.141 Goal=   None    Shift=    0.000
 RMSDP=2.41D-07 MaxDP=1.28D-04 DE=-9.13D-08 OVMax= 2.29D-04

 Cycle  15  Pass 1  IDiag  1:
 RMSU=  4.46D-08    CP:  9.89D-01  1.12D+00  9.17D-01  7.24D-01  1.40D+00
                    CP:  1.81D+00  2.68D+00  2.20D+00  2.02D+00  1.89D+00
                    CP:  2.44D+00  2.50D+00  2.58D+00  1.74D+00
 E= -3005.03583234967     Delta-E=       -0.000000030759 Rises=F Damp=F
 DIIS: error= 6.63D-07 at cycle  15 NSaved=  15.
 NSaved=15 IEnMin=15 EnMin= -3005.03583234967     IErMin=15 ErrMin= 6.63D-07
 ErrMax= 6.63D-07  0.00D+00 EMaxC= 1.00D-01 BMatC= 2.91D-09 BMatP= 1.16D-08
 IDIUse=1 WtCom= 1.00D+00 WtEn= 0.00D+00
 Coeff-Com: -0.248D-04 0.545D-04 0.204D-03 0.344D-03 0.313D-03-0.119D-02
 Coeff-Com: -0.706D-02-0.380D-02 0.220D-01 0.431D-01-0.329D-02-0.168D+00
 Coeff-Com: -0.180D+00 0.391D+00 0.906D+00
 Coeff:     -0.248D-04 0.545D-04 0.204D-03 0.344D-03 0.313D-03-0.119D-02
 Coeff:     -0.706D-02-0.380D-02 0.220D-01 0.431D-01-0.329D-02-0.168D+00
 Coeff:     -0.180D+00 0.391D+00 0.906D+00
 Gap=     0.147 Goal=   None    Shift=    0.000
 Gap=     0.141 Goal=   None    Shift=    0.000
 RMSDP=8.51D-08 MaxDP=4.71D-05 DE=-3.08D-08 OVMax= 7.43D-05

 Cycle  16  Pass 1  IDiag  1:
 RMSU=  2.08D-08    CP:  9.89D-01  1.12D+00  9.17D-01  7.24D-01  1.40D+00
                    CP:  1.81D+00  2.68D+00  2.20D+00  2.03D+00  1.90D+00
                    CP:  2.50D+00  2.61D+00  2.89D+00  2.16D+00  1.47D+00
 E= -3005.03583235361     Delta-E=       -0.000000003940 Rises=F Damp=F
 DIIS: error= 3.35D-07 at cycle  16 NSaved=  16.
 NSaved=16 IEnMin=16 EnMin= -3005.03583235361     IErMin=16 ErrMin= 3.35D-07
 ErrMax= 3.35D-07  0.00D+00 EMaxC= 1.00D-01 BMatC= 7.02D-10 BMatP= 2.91D-09
 IDIUse=1 WtCom= 1.00D+00 WtEn= 0.00D+00
 Coeff-Com: -0.672D-05 0.136D-04 0.744D-04 0.165D-03 0.340D-03 0.386D-03
 Coeff-Com: -0.174D-02-0.411D-02 0.112D-02 0.156D-01 0.341D-01-0.550D-02
 Coeff-Com: -0.125D+00-0.102D+00 0.338D+00 0.848D+00
 Coeff:     -0.672D-05 0.136D-04 0.744D-04 0.165D-03 0.340D-03 0.386D-03
 Coeff:     -0.174D-02-0.411D-02 0.112D-02 0.156D-01 0.341D-01-0.550D-02
 Coeff:     -0.125D+00-0.102D+00 0.338D+00 0.848D+00
 Gap=     0.147 Goal=   None    Shift=    0.000
 Gap=     0.141 Goal=   None    Shift=    0.000
 RMSDP=3.62D-08 MaxDP=1.57D-05 DE=-3.94D-09 OVMax= 2.98D-05

 Cycle  17  Pass 1  IDiag  1:
 RMSU=  1.30D-08    CP:  9.89D-01  1.12D+00  9.17D-01  7.24D-01  1.40D+00
                    CP:  1.81D+00  2.68D+00  2.20D+00  2.03D+00  1.90D+00
                    CP:  2.52D+00  2.63D+00  3.00D+00  2.30D+00  1.82D+00
                    CP:  1.56D+00
 E= -3005.03583235379     Delta-E=       -0.000000000186 Rises=F Damp=F
 DIIS: error= 2.10D-07 at cycle  17 NSaved=  17.
 NSaved=17 IEnMin=17 EnMin= -3005.03583235379     IErMin=17 ErrMin= 2.10D-07
 ErrMax= 2.10D-07  0.00D+00 EMaxC= 1.00D-01 BMatC= 1.94D-10 BMatP= 7.02D-10
 IDIUse=1 WtCom= 1.00D+00 WtEn= 0.00D+00
 Coeff-Com:  0.245D-05-0.567D-05-0.132D-04-0.661D-05 0.561D-04 0.343D-03
 Coeff-Com:  0.838D-03-0.704D-03-0.421D-02-0.322D-02 0.132D-01 0.360D-01
 Coeff-Com: -0.425D-02-0.123D+00-0.929D-01 0.325D+00 0.852D+00
 Coeff:      0.245D-05-0.567D-05-0.132D-04-0.661D-05 0.561D-04 0.343D-03
 Coeff:      0.838D-03-0.704D-03-0.421D-02-0.322D-02 0.132D-01 0.360D-01
 Coeff:     -0.425D-02-0.123D+00-0.929D-01 0.325D+00 0.852D+00
 Gap=     0.147 Goal=   None    Shift=    0.000
 Gap=     0.141 Goal=   None    Shift=    0.000
 RMSDP=1.96D-08 MaxDP=1.45D-05 DE=-1.86D-10 OVMax= 1.15D-05

 Cycle  18  Pass 1  IDiag  1:
 RMSU=  6.24D-09    CP:  9.89D-01  1.12D+00  9.17D-01  7.24D-01  1.40D+00
                    CP:  1.81D+00  2.68D+00  2.20D+00  2.03D+00  1.90D+00
                    CP:  2.52D+00  2.62D+00  3.00D+00  2.35D+00  2.02D+00
                    CP:  2.04D+00  1.52D+00
 E= -3005.03583235428     Delta-E=       -0.000000000489 Rises=F Damp=F
 DIIS: error= 1.13D-07 at cycle  18 NSaved=  18.
 NSaved=18 IEnMin=18 EnMin= -3005.03583235428     IErMin=18 ErrMin= 1.13D-07
 ErrMax= 1.13D-07  0.00D+00 EMaxC= 1.00D-01 BMatC= 5.43D-11 BMatP= 1.94D-10
 IDIUse=1 WtCom= 1.00D+00 WtEn= 0.00D+00
 Coeff-Com:  0.276D-05-0.589D-05-0.258D-04-0.462D-04-0.667D-04 0.309D-04
 Coeff-Com:  0.836D-03 0.841D-03-0.198D-02-0.549D-02-0.418D-02 0.159D-01
 Coeff-Com:  0.321D-01-0.206D-01-0.128D+00-0.969D-01 0.323D+00 0.885D+00
 Coeff:      0.276D-05-0.589D-05-0.258D-04-0.462D-04-0.667D-04 0.309D-04
 Coeff:      0.836D-03 0.841D-03-0.198D-02-0.549D-02-0.418D-02 0.159D-01
 Coeff:      0.321D-01-0.206D-01-0.128D+00-0.969D-01 0.323D+00 0.885D+00
 Gap=     0.147 Goal=   None    Shift=    0.000
 Gap=     0.141 Goal=   None    Shift=    0.000
 RMSDP=1.50D-08 MaxDP=1.15D-05 DE=-4.89D-10 OVMax= 7.28D-06

 Cycle  19  Pass 1  IDiag  1:
 RMSU=  2.74D-09    CP:  9.89D-01  1.12D+00  9.17D-01  7.24D-01  1.40D+00
                    CP:  1.81D+00  2.68D+00  2.20D+00  2.03D+00  1.90D+00
                    CP:  2.52D+00  2.61D+00  3.00D+00  2.36D+00  2.13D+00
                    CP:  2.35D+00  2.01D+00  1.56D+00
 E= -3005.03583235468     Delta-E=       -0.000000000400 Rises=F Damp=F
 DIIS: error= 5.28D-08 at cycle  19 NSaved=  19.
 NSaved=19 IEnMin=19 EnMin= -3005.03583235468     IErMin=19 ErrMin= 5.28D-08
 ErrMax= 5.28D-08  0.00D+00 EMaxC= 1.00D-01 BMatC= 1.41D-11 BMatP= 5.43D-11
 IDIUse=1 WtCom= 1.00D+00 WtEn= 0.00D+00
 Coeff-Com: -0.438D-06 0.974D-06 0.708D-07-0.331D-05-0.249D-04-0.102D-03
 Coeff-Com: -0.119D-03 0.347D-03 0.105D-02-0.349D-04-0.462D-02-0.889D-02
 Coeff-Com:  0.623D-02 0.347D-01 0.107D-01-0.119D+00-0.218D+00 0.163D+00
 Coeff-Com:  0.114D+01
 Coeff:     -0.438D-06 0.974D-06 0.708D-07-0.331D-05-0.249D-04-0.102D-03
 Coeff:     -0.119D-03 0.347D-03 0.105D-02-0.349D-04-0.462D-02-0.889D-02
 Coeff:      0.623D-02 0.347D-01 0.107D-01-0.119D+00-0.218D+00 0.163D+00
 Coeff:      0.114D+01
 Gap=     0.147 Goal=   None    Shift=    0.000
 Gap=     0.141 Goal=   None    Shift=    0.000
 RMSDP=1.02D-08 MaxDP=8.00D-06 DE=-4.00D-10 OVMax= 6.14D-06

 Cycle  20  Pass 1  IDiag  1:
 RMSU=  1.78D-09    CP:  9.89D-01  1.12D+00  9.17D-01  7.24D-01  1.40D+00
                    CP:  1.81D+00  2.68D+00  2.20D+00  2.03D+00  1.90D+00
                    CP:  2.52D+00  2.61D+00  3.00D+00  2.36D+00  2.20D+00
                    CP:  2.55D+00  2.35D+00  2.12D+00  1.66D+00
 E= -3005.03583235462     Delta-E=        0.000000000065 Rises=F Damp=F
 DIIS: error= 2.28D-08 at cycle  20 NSaved=  20.
 NSaved=20 IEnMin=19 EnMin= -3005.03583235468     IErMin=20 ErrMin= 2.28D-08
 ErrMax= 2.28D-08  0.00D+00 EMaxC= 1.00D-01 BMatC= 4.45D-12 BMatP= 1.41D-11
 IDIUse=1 WtCom= 1.00D+00 WtEn= 0.00D+00
 Coeff-Com: -0.765D-06 0.166D-05 0.531D-05 0.841D-05 0.347D-05-0.463D-04
 Coeff-Com: -0.232D-03-0.555D-04 0.862D-03 0.115D-02-0.667D-03-0.695D-02
 Coeff-Com: -0.491D-02 0.176D-01 0.338D-01-0.249D-01-0.161D+00-0.145D+00
 Coeff-Com:  0.434D+00 0.857D+00
 Coeff:     -0.765D-06 0.166D-05 0.531D-05 0.841D-05 0.347D-05-0.463D-04
 Coeff:     -0.232D-03-0.555D-04 0.862D-03 0.115D-02-0.667D-03-0.695D-02
 Coeff:     -0.491D-02 0.176D-01 0.338D-01-0.249D-01-0.161D+00-0.145D+00
 Coeff:      0.434D+00 0.857D+00
 Gap=     0.147 Goal=   None    Shift=    0.000
 Gap=     0.141 Goal=   None    Shift=    0.000
 RMSDP=4.16D-09 MaxDP=3.09D-06 DE= 6.55D-11 OVMax= 3.26D-06

 Cycle  21  Pass 1  IDiag  1:
 Restarting incremental Fock formation.
 E= -3005.03583235467     Delta-E=       -0.000000000056 Rises=F Damp=F
 DIIS: error= 8.86D-09 at cycle  21 NSaved=  20.
 NSaved=20 IEnMin=18 EnMin= -3005.03583235468     IErMin=20 ErrMin= 8.86D-09
 ErrMax= 8.86D-09  0.00D+00 EMaxC= 1.00D-01 BMatC= 1.33D-12 BMatP= 4.45D-12
 IDIUse=1 WtCom= 1.00D+00 WtEn= 0.00D+00
 Coeff-Com:  0.135D-07 0.991D-06 0.246D-05 0.789D-05 0.233D-04-0.150D-04
 Coeff-Com: -0.123D-03-0.119D-03 0.286D-03 0.128D-02 0.889D-03-0.364D-02
 Coeff-Com: -0.619D-02 0.673D-02 0.332D-01 0.231D-01-0.962D-01-0.254D+00
 Coeff-Com:  0.270D+00 0.102D+01
 Coeff:      0.135D-07 0.991D-06 0.246D-05 0.789D-05 0.233D-04-0.150D-04
 Coeff:     -0.123D-03-0.119D-03 0.286D-03 0.128D-02 0.889D-03-0.364D-02
 Coeff:     -0.619D-02 0.673D-02 0.332D-01 0.231D-01-0.962D-01-0.254D+00
 Coeff:      0.270D+00 0.102D+01
 Gap=     0.147 Goal=   None    Shift=    0.000
 Gap=     0.141 Goal=   None    Shift=    0.000
 RMSDP=3.21D-09 MaxDP=1.19D-06 DE=-5.64D-11 OVMax= 2.48D-06

 Cycle  22  Pass 1  IDiag  1:
 RMSU=  3.20D-09    CP:  1.00D+00
 E= -3005.03583235475     Delta-E=       -0.000000000080 Rises=F Damp=F
 DIIS: error= 6.22D-09 at cycle  22 NSaved=  20.
 NSaved=20 IEnMin=20 EnMin= -3005.03583235475     IErMin=20 ErrMin= 6.22D-09
 ErrMax= 6.22D-09  0.00D+00 EMaxC= 1.00D-01 BMatC= 4.02D-13 BMatP= 1.33D-12
 IDIUse=1 WtCom= 1.00D+00 WtEn= 0.00D+00
 Coeff-Com:  0.635D-06 0.124D-05 0.506D-05 0.122D-04 0.642D-05-0.483D-04
 Coeff-Com: -0.131D-03 0.436D-04 0.541D-03 0.131D-02-0.725D-03-0.486D-02
 Coeff-Com: -0.393D-02 0.166D-01 0.386D-01 0.400D-02-0.176D+00-0.123D+00
 Coeff-Com:  0.302D+00 0.946D+00
 Coeff:      0.635D-06 0.124D-05 0.506D-05 0.122D-04 0.642D-05-0.483D-04
 Coeff:     -0.131D-03 0.436D-04 0.541D-03 0.131D-02-0.725D-03-0.486D-02
 Coeff:     -0.393D-02 0.166D-01 0.386D-01 0.400D-02-0.176D+00-0.123D+00
 Coeff:      0.302D+00 0.946D+00
 Gap=     0.147 Goal=   None    Shift=    0.000
 Gap=     0.141 Goal=   None    Shift=    0.000
 RMSDP=1.21D-09 MaxDP=4.72D-07 DE=-8.00D-11 OVMax= 1.33D-06

 Error on total polarization charges =  0.03401
 SCF Done:  E(UM062X) =  -3005.03583235     A.U. after   22 cycles
            NFock= 22  Conv=0.12D-08     -V/T= 2.0054
 <Sx>= 0.0000 <Sy>= 0.0000 <Sz>= 0.5000 <S**2>= 0.7895 S= 0.5196
 <L.S>= 0.000000000000E+00
 KE= 2.988783536220D+03 PE=-2.352557640910D+04 EE= 9.294255998359D+03
 Annihilation of the first spin contaminant:
 S**2 before annihilation     0.7895,   after     0.7512
 Leave Link  502 at Thu Oct 30 19:46:15 2025, MaxMem= 30870077440 cpu:          218996.4 elap:            3468.5
 (Enter /public/software/gauss/g16/l601.exe)
 Copying SCF densities to generalized density rwf, IOpCl= 1 IROHF=0.
 Hyperfine terms turned off by default for NAtoms > 100.

 **********************************************************************

            Population analysis using the SCF density.

 **********************************************************************

 Orbital symmetries:
 Alpha Orbitals:
       Occupied  (A) (A) (A) (A) (A) (A) (A) (A) (A) (A) (A) (A)
                 (A) (A) (A) (A) (A) (A) (A) (A) (A) (A) (A) (A)
                 (A) (A) (A) (A) (A) (A) (A) (A) (A) (A) (A) (A)
                 (A) (A) (A) (A) (A) (A) (A) (A) (A) (A) (A) (A)
                 (A) (A) (A) (A) (A) (A) (A) (A) (A) (A) (A) (A)
                 (A) (A) (A) (A) (A) (A) (A) (A) (A) (A) (A) (A)
                 (A) (A) (A) (A) (A) (A) (A) (A) (A) (A) (A) (A)
                 (A) (A) (A) (A) (A) (A) (A) (A) (A) (A) (A) (A)
                 (A) (A) (A) (A) (A) (A) (A) (A) (A) (A) (A) (A)
                 (A) (A) (A) (A) (A) (A) (A) (A) (A) (A) (A) (A)
                 (A) (A) (A) (A) (A) (A) (A) (A) (A) (A) (A) (A)
                 (A) (A) (A) (A) (A) (A) (A) (A) (A) (A) (A) (A)
                 (A) (A) (A) (A) (A) (A) (A) (A) (A) (A) (A) (A)
                 (A) (A) (A) (A) (A) (A) (A) (A) (A) (A) (A) (A)
                 (A) (A) (A) (A) (A) (A) (A) (A) (A) (A) (A) (A)
                 (A) (A) (A) (A) (A) (A) (A) (A) (A) (A) (A) (A)
                 (A) (A) (A) (A) (A) (A) (A) (A) (A) (A) (A) (A)
                 (A) (A) (A) (A) (A) (A) (A) (A) (A) (A) (A) (A)
                 (A) (A) (A) (A) (A) (A) (A) (A) (A) (A) (A) (A)
                 (A) (A) (A) (A) (A) (A) (A) (A) (A)
       Virtual   (A) (A) (A) (A) (A) (A) (A) (A) (A) (A) (A) (A)
                 (A) (A) (A) (A) (A) (A) (A) (A) (A) (A) (A) (A)
                 (A) (A) (A) (A) (A) (A) (A) (A) (A) (A) (A) (A)
                 (A) (A) (A) (A) (A) (A) (A) (A) (A) (A) (A) (A)
                 (A) (A) (A) (A) (A) (A) (A) (A) (A) (A) (A) (A)
                 (A) (A) (A) (A) (A) (A) (A) (A) (A) (A) (A) (A)
                 (A) (A) (A) (A) (A) (A) (A) (A) (A) (A) (A) (A)
                 (A) (A) (A) (A) (A) (A) (A) (A) (A) (A) (A) (A)
                 (A) (A) (A) (A) (A) (A) (A) (A) (A) (A) (A) (A)
                 (A) (A) (A) (A) (A) (A) (A) (A) (A) (A) (A) (A)
                 (A) (A) (A) (A) (A) (A) (A) (A) (A) (A) (A) (A)
                 (A) (A) (A) (A) (A) (A) (A) (A) (A) (A) (A) (A)
                 (A) (A) (A) (A) (A) (A) (A) (A) (A) (A) (A) (A)
                 (A) (A) (A) (A) (A) (A) (A) (A) (A) (A) (A) (A)
                 (A) (A) (A) (A) (A) (A) (A) (A) (A) (A) (A) (A)
                 (A) (A) (A) (A) (A) (A) (A) (A) (A) (A) (A) (A)
                 (A) (A) (A) (A) (A) (A) (A) (A) (A) (A) (A) (A)
                 (A) (A) (A) (A) (A) (A) (A) (A) (A) (A) (A) (A)
                 (A) (A) (A) (A) (A) (A) (A) (A) (A) (A) (A) (A)
                 (A) (A) (A) (A) (A) (A) (A) (A) (A) (A) (A) (A)
                 (A) (A) (A) (A) (A) (A) (A) (A) (A) (A) (A) (A)
                 (A) (A) (A) (A) (A) (A) (A) (A) (A) (A) (A) (A)
                 (A) (A) (A) (A) (A) (A) (A) (A) (A) (A) (A) (A)
                 (A) (A) (A) (A) (A) (A) (A) (A) (A) (A) (A) (A)
                 (A) (A) (A) (A) (A) (A) (A) (A) (A) (A) (A) (A)
                 (A) (A) (A) (A) (A) (A) (A) (A) (A) (A) (A) (A)
                 (A) (A) (A) (A) (A) (A) (A) (A) (A) (A) (A) (A)
                 (A) (A) (A) (A) (A) (A) (A) (A) (A) (A) (A) (A)
                 (A) (A) (A) (A) (A) (A) (A) (A) (A) (A) (A) (A)
                 (A) (A) (A) (A) (A) (A) (A) (A) (A) (A) (A) (A)
                 (A) (A) (A) (A) (A) (A) (A) (A) (A) (A) (A) (A)
                 (A) (A) (A) (A) (A) (A) (A) (A) (A) (A) (A) (A)
                 (A) (A) (A) (A) (A) (A) (A) (A) (A) (A) (A) (A)
                 (A) (A) (A) (A) (A) (A) (A) (A) (A) (A) (A) (A)
                 (A) (A) (A) (A) (A) (A) (A) (A) (A) (A) (A) (A)
                 (A) (A) (A) (A) (A) (A) (A) (A) (A) (A) (A) (A)
                 (A) (A) (A) (A) (A) (A) (A) (A) (A) (A) (A) (A)
                 (A) (A) (A) (A) (A) (A) (A) (A) (A) (A) (A) (A)
                 (A) (A) (A) (A) (A) (A) (A) (A) (A) (A) (A) (A)
                 (A) (A) (A) (A) (A) (A) (A) (A) (A) (A) (A) (A)
                 (A) (A) (A) (A) (A) (A) (A) (A) (A) (A) (A) (A)
                 (A) (A) (A) (A) (A) (A) (A) (A) (A) (A) (A) (A)
                 (A) (A) (A) (A) (A) (A) (A) (A) (A) (A) (A) (A)
                 (A) (A) (A) (A) (A) (A) (A) (A) (A) (A) (A) (A)
                 (A) (A) (A) (A) (A) (A) (A) (A) (A) (A) (A) (A)
                 (A) (A) (A) (A) (A) (A) (A) (A) (A) (A) (A) (A)
                 (A) (A) (A) (A) (A) (A) (A) (A) (A) (A) (A) (A)
                 (A) (A) (A) (A) (A) (A) (A) (A) (A) (A) (A) (A)
                 (A) (A) (A) (A) (A) (A) (A) (A) (A) (A) (A) (A)
                 (A) (A) (A) (A) (A) (A) (A) (A) (A) (A) (A) (A)
                 (A) (A) (A) (A) (A) (A) (A) (A) (A) (A) (A) (A)
                 (A) (A) (A) (A) (A) (A) (A) (A) (A) (A) (A) (A)
                 (A) (A) (A) (A) (A) (A) (A) (A) (A) (A) (A) (A)
                 (A) (A) (A) (A) (A) (A) (A) (A) (A) (A) (A) (A)
                 (A) (A) (A) (A) (A) (A) (A) (A) (A) (A) (A) (A)
                 (A) (A) (A) (A) (A) (A) (A) (A) (A) (A) (A) (A)
                 (A) (A) (A) (A) (A) (A) (A) (A) (A) (A) (A) (A)
                 (A) (A) (A) (A) (A) (A) (A) (A) (A) (A) (A) (A)
                 (A) (A) (A) (A) (A) (A) (A) (A) (A) (A) (A) (A)
                 (A) (A) (A) (A) (A) (A) (A) (A) (A) (A) (A) (A)
                 (A) (A) (A) (A) (A) (A) (A) (A) (A) (A) (A) (A)
                 (A) (A) (A) (A) (A) (A) (A) (A) (A) (A) (A) (A)
                 (A) (A) (A) (A) (A) (A) (A) (A) (A) (A) (A) (A)
                 (A) (A) (A) (A) (A) (A) (A) (A) (A) (A) (A) (A)
                 (A) (A) (A) (A) (A) (A) (A) (A) (A) (A) (A) (A)
                 (A) (A) (A) (A) (A) (A) (A) (A) (A) (A) (A) (A)
                 (A) (A) (A) (A) (A) (A) (A) (A) (A) (A) (A) (A)
                 (A) (A) (A) (A) (A) (A) (A) (A) (A) (A) (A) (A)
                 (A) (A) (A) (A) (A) (A) (A) (A) (A) (A) (A) (A)
                 (A) (A) (A) (A) (A) (A) (A) (A) (A) (A) (A) (A)
                 (A) (A) (A) (A) (A) (A) (A) (A) (A) (A) (A) (A)
                 (A) (A) (A) (A) (A) (A) (A) (A) (A) (A) (A) (A)
                 (A) (A) (A) (A) (A) (A) (A) (A) (A) (A) (A) (A)
                 (A) (A) (A) (A) (A) (A) (A) (A) (A) (A) (A) (A)
                 (A) (A) (A) (A) (A) (A) (A) (A) (A) (A) (A) (A)
                 (A) (A) (A) (A) (A) (A) (A) (A) (A) (A) (A) (A)
                 (A) (A) (A) (A) (A) (A) (A) (A) (A) (A) (A) (A)
                 (A) (A) (A) (A) (A) (A) (A) (A) (A) (A) (A) (A)
                 (A) (A) (A) (A) (A) (A) (A) (A) (A) (A) (A) (A)
                 (A) (A) (A) (A) (A) (A) (A) (A) (A) (A) (A) (A)
                 (A) (A) (A) (A) (A) (A) (A) (A) (A) (A) (A) (A)
                 (A) (A) (A) (A) (A) (A) (A) (A) (A) (A) (A) (A)
                 (A) (A) (A) (A) (A) (A) (A) (A) (A) (A) (A) (A)
                 (A) (A) (A) (A) (A) (A) (A) (A) (A) (A) (A) (A)
                 (A) (A) (A) (A) (A) (A) (A) (A) (A) (A) (A) (A)
                 (A) (A) (A) (A) (A) (A) (A) (A) (A) (A) (A) (A)
                 (A) (A) (A) (A) (A) (A) (A) (A) (A) (A) (A) (A)
                 (A) (A) (A) (A) (A) (A) (A) (A) (A) (A) (A) (A)
                 (A) (A) (A) (A) (A) (A) (A) (A) (A) (A) (A) (A)
                 (A) (A) (A) (A) (A) (A) (A) (A) (A) (A) (A) (A)
                 (A) (A) (A) (A) (A) (A) (A) (A) (A) (A) (A) (A)
                 (A) (A) (A) (A) (A) (A) (A) (A) (A) (A) (A) (A)
                 (A) (A) (A) (A) (A) (A) (A) (A) (A) (A) (A) (A)
                 (A) (A) (A) (A) (A) (A) (A) (A) (A) (A) (A) (A)
                 (A) (A) (A) (A) (A) (A) (A) (A) (A) (A) (A) (A)
                 (A) (A) (A) (A) (A) (A) (A) (A) (A) (A) (A) (A)
                 (A) (A) (A) (A) (A) (A) (A) (A) (A) (A) (A) (A)
                 (A) (A) (A) (A) (A) (A) (A) (A) (A) (A) (A) (A)
                 (A) (A) (A) (A) (A) (A) (A) (A) (A) (A) (A) (A)
                 (A) (A) (A) (A) (A) (A) (A) (A) (A) (A) (A) (A)
                 (A) (A) (A) (A) (A) (A) (A) (A) (A) (A) (A) (A)
                 (A) (A) (A) (A) (A) (A) (A) (A) (A) (A) (A) (A)
                 (A) (A) (A) (A) (A) (A) (A) (A) (A) (A) (A) (A)
                 (A) (A) (A) (A) (A) (A) (A) (A) (A) (A) (A) (A)
                 (A) (A) (A) (A) (A) (A) (A) (A) (A) (A) (A) (A)
                 (A) (A) (A) (A) (A) (A) (A) (A) (A) (A) (A) (A)
                 (A) (A) (A) (A) (A) (A) (A) (A) (A) (A) (A) (A)
                 (A) (A) (A) (A) (A) (A) (A) (A) (A) (A) (A) (A)
                 (A) (A) (A) (A) (A) (A) (A) (A) (A) (A) (A) (A)
                 (A) (A) (A) (A) (A) (A) (A) (A) (A) (A) (A) (A)
                 (A) (A) (A) (A) (A) (A) (A) (A) (A) (A) (A) (A)
                 (A) (A) (A) (A) (A) (A) (A) (A) (A) (A) (A) (A)
                 (A) (A) (A) (A) (A) (A) (A) (A) (A) (A) (A) (A)
                 (A) (A) (A) (A) (A) (A) (A) (A) (A) (A) (A) (A)
                 (A) (A) (A) (A) (A) (A) (A) (A) (A) (A) (A) (A)
                 (A) (A) (A) (A) (A) (A) (A) (A) (A) (A) (A) (A)
                 (A) (A) (A) (A) (A) (A) (A) (A) (A) (A) (A) (A)
                 (A) (A) (A) (A) (A) (A) (A) (A) (A) (A) (A) (A)
                 (A) (A) (A) (A) (A) (A) (A) (A) (A) (A) (A) (A)
                 (A) (A) (A) (A) (A) (A) (A) (A) (A) (A) (A) (A)
                 (A) (A) (A) (A) (A) (A) (A) (A) (A) (A) (A) (A)
                 (A) (A) (A) (A) (A) (A) (A) (A) (A) (A) (A) (A)
                 (A) (A) (A) (A) (A) (A) (A) (A) (A) (A) (A) (A)
                 (A) (A) (A) (A) (A) (A) (A) (A) (A) (A) (A) (A)
                 (A) (A) (A) (A) (A) (A) (A) (A) (A) (A) (A) (A)
                 (A) (A) (A) (A) (A) (A) (A) (A) (A) (A) (A) (A)
                 (A) (A) (A) (A) (A) (A) (A) (A) (A) (A) (A) (A)
                 (A) (A) (A) (A) (A) (A) (A) (A) (A) (A) (A) (A)
                 (A) (A) (A) (A) (A) (A) (A) (A) (A) (A) (A) (A)
                 (A) (A) (A) (A) (A) (A) (A) (A) (A) (A) (A) (A)
                 (A) (A) (A) (A) (A) (A) (A) (A) (A) (A) (A) (A)
                 (A) (A) (A) (A) (A) (A) (A) (A) (A) (A) (A) (A)
                 (A) (A) (A) (A) (A) (A) (A) (A) (A) (A) (A) (A)
                 (A) (A) (A) (A) (A) (A) (A) (A) (A) (A) (A) (A)
                 (A) (A) (A) (A) (A) (A) (A) (A) (A) (A) (A) (A)
                 (A) (A) (A) (A) (A) (A) (A) (A) (A) (A) (A) (A)
                 (A) (A) (A) (A) (A) (A) (A) (A) (A) (A) (A) (A)
                 (A) (A) (A) (A) (A) (A) (A) (A) (A) (A) (A) (A)
                 (A) (A) (A) (A) (A) (A) (A) (A) (A) (A) (A) (A)
                 (A) (A) (A) (A) (A) (A) (A) (A) (A) (A) (A) (A)
                 (A) (A) (A) (A) (A) (A) (A) (A) (A) (A) (A) (A)
                 (A) (A) (A) (A) (A) (A) (A) (A) (A) (A) (A) (A)
                 (A) (A) (A) (A) (A) (A) (A) (A) (A) (A) (A) (A)
                 (A) (A) (A) (A) (A) (A) (A) (A) (A) (A) (A) (A)
                 (A) (A) (A) (A) (A) (A) (A) (A) (A) (A) (A) (A)
                 (A) (A) (A) (A) (A) (A) (A) (A) (A) (A) (A) (A)
                 (A) (A) (A) (A) (A) (A) (A) (A) (A) (A) (A) (A)
                 (A) (A) (A) (A) (A) (A) (A) (A) (A) (A) (A) (A)
                 (A) (A) (A) (A) (A) (A) (A) (A) (A) (A) (A) (A)
                 (A) (A) (A) (A) (A) (A) (A) (A) (A) (A) (A) (A)
                 (A) (A) (A) (A) (A) (A) (A) (A) (A) (A) (A) (A)
                 (A) (A) (A) (A) (A) (A) (A) (A) (A) (A) (A) (A)
                 (A) (A) (A) (A) (A) (A) (A) (A) (A) (A) (A) (A)
                 (A) (A) (A) (A) (A) (A) (A) (A) (A) (A) (A) (A)
                 (A) (A) (A) (A) (A) (A) (A) (A) (A) (A) (A) (A)
                 (A) (A) (A) (A) (A) (A) (A) (A) (A) (A) (A) (A)
                 (A) (A) (A) (A) (A) (A) (A) (A) (A) (A) (A) (A)
                 (A) (A) (A) (A) (A) (A) (A) (A) (A) (A) (A) (A)
                 (A) (A) (A) (A) (A) (A) (A) (A) (A) (A) (A) (A)
                 (A) (A) (A) (A) (A) (A) (A) (A) (A) (A) (A) (A)
                 (A) (A) (A) (A) (A) (A) (A) (A) (A) (A) (A) (A)
                 (A) (A) (A) (A) (A) (A) (A) (A) (A) (A) (A) (A)
                 (A) (A) (A) (A) (A) (A) (A) (A) (A) (A) (A) (A)
                 (A) (A) (A) (A) (A) (A) (A) (A) (A) (A) (A) (A)
                 (A) (A) (A) (A) (A) (A) (A) (A) (A) (A) (A) (A)
                 (A) (A) (A) (A) (A) (A) (A) (A) (A) (A) (A) (A)
                 (A) (A) (A) (A) (A) (A) (A) (A) (A) (A) (A) (A)
                 (A) (A) (A) (A) (A) (A) (A) (A) (A) (A) (A) (A)
                 (A) (A) (A) (A) (A) (A) (A) (A) (A) (A) (A) (A)
                 (A) (A) (A) (A) (A) (A) (A) (A) (A) (A) (A) (A)
                 (A) (A) (A) (A) (A) (A) (A) (A) (A) (A) (A) (A)
                 (A) (A) (A) (A) (A) (A) (A) (A) (A) (A) (A) (A)
                 (A) (A) (A) (A) (A) (A) (A) (A) (A) (A) (A) (A)
                 (A) (A) (A) (A) (A) (A) (A) (A) (A) (A) (A) (A)
                 (A) (A) (A) (A) (A) (A) (A) (A) (A) (A) (A) (A)
                 (A) (A) (A) (A) (A) (A) (A) (A) (A) (A) (A) (A)
                 (A) (A) (A) (A) (A) (A) (A) (A) (A) (A) (A) (A)
                 (A) (A) (A) (A) (A) (A) (A) (A) (A) (A) (A) (A)
                 (A) (A) (A) (A) (A) (A) (A) (A) (A) (A) (A) (A)
                 (A) (A) (A) (A) (A) (A) (A) (A) (A) (A) (A) (A)
                 (A) (A) (A) (A) (A) (A) (A) (A) (A) (A) (A) (A)
                 (A) (A) (A) (A) (A) (A) (A) (A) (A) (A) (A) (A)
                 (A) (A) (A) (A) (A) (A) (A) (A) (A) (A) (A) (A)
                 (A) (A) (A) (A) (A) (A) (A) (A) (A) (A) (A) (A)
                 (A) (A) (A) (A) (A) (A) (A) (A) (A) (A) (A) (A)
                 (A) (A) (A) (A) (A) (A) (A) (A) (A) (A) (A) (A)
                 (A) (A) (A) (A) (A) (A) (A) (A) (A) (A) (A) (A)
                 (A) (A) (A) (A) (A) (A) (A) (A) (A) (A) (A) (A)
                 (A) (A) (A) (A) (A) (A) (A) (A) (A) (A) (A) (A)
                 (A) (A) (A) (A) (A) (A) (A) (A) (A) (A) (A) (A)
                 (A) (A) (A) (A) (A) (A) (A) (A) (A) (A) (A) (A)
                 (A) (A) (A) (A) (A) (A) (A) (A) (A) (A) (A) (A)
                 (A) (A) (A) (A) (A) (A) (A) (A) (A) (A) (A) (A)
                 (A) (A) (A) (A) (A) (A) (A) (A) (A) (A) (A) (A)
                 (A) (A) (A) (A) (A) (A) (A) (A) (A) (A) (A) (A)
                 (A) (A) (A) (A) (A) (A) (A) (A) (A) (A) (A) (A)
                 (A) (A) (A) (A) (A) (A) (A) (A) (A) (A) (A) (A)
                 (A) (A) (A) (A) (A) (A) (A) (A) (A) (A) (A) (A)
                 (A) (A) (A) (A) (A) (A) (A) (A) (A) (A) (A) (A)
                 (A) (A) (A) (A) (A) (A) (A) (A) (A) (A) (A) (A)
                 (A) (A) (A) (A) (A) (A) (A) (A) (A) (A) (A) (A)
                 (A) (A) (A) (A) (A) (A) (A) (A) (A) (A) (A) (A)
                 (A) (A) (A) (A) (A) (A) (A) (A) (A) (A) (A) (A)
                 (A) (A) (A) (A) (A) (A) (A) (A) (A) (A) (A) (A)
                 (A) (A) (A) (A) (A) (A) (A) (A) (A) (A) (A) (A)
                 (A) (A) (A) (A) (A) (A) (A) (A) (A) (A) (A) (A)
                 (A) (A) (A) (A) (A) (A) (A) (A) (A) (A) (A) (A)
                 (A) (A) (A) (A) (A) (A) (A) (A) (A) (A) (A) (A)
                 (A) (A) (A) (A) (A) (A) (A) (A) (A) (A) (A) (A)
                 (A) (A) (A) (A) (A) (A) (A) (A) (A) (A) (A) (A)
                 (A) (A) (A) (A) (A) (A) (A) (A) (A) (A) (A) (A)
                 (A) (A) (A) (A) (A) (A) (A) (A) (A) (A) (A) (A)
                 (A) (A) (A) (A) (A) (A) (A) (A) (A) (A) (A) (A)
                 (A) (A) (A) (A) (A) (A)
 Beta  Orbitals:
       Occupied  (A) (A) (A) (A) (A) (A) (A) (A) (A) (A) (A) (A)
                 (A) (A) (A) (A) (A) (A) (A) (A) (A) (A) (A) (A)
                 (A) (A) (A) (A) (A) (A) (A) (A) (A) (A) (A) (A)
                 (A) (A) (A) (A) (A) (A) (A) (A) (A) (A) (A) (A)
                 (A) (A) (A) (A) (A) (A) (A) (A) (A) (A) (A) (A)
                 (A) (A) (A) (A) (A) (A) (A) (A) (A) (A) (A) (A)
                 (A) (A) (A) (A) (A) (A) (A) (A) (A) (A) (A) (A)
                 (A) (A) (A) (A) (A) (A) (A) (A) (A) (A) (A) (A)
                 (A) (A) (A) (A) (A) (A) (A) (A) (A) (A) (A) (A)
                 (A) (A) (A) (A) (A) (A) (A) (A) (A) (A) (A) (A)
                 (A) (A) (A) (A) (A) (A) (A) (A) (A) (A) (A) (A)
                 (A) (A) (A) (A) (A) (A) (A) (A) (A) (A) (A) (A)
                 (A) (A) (A) (A) (A) (A) (A) (A) (A) (A) (A) (A)
                 (A) (A) (A) (A) (A) (A) (A) (A) (A) (A) (A) (A)
                 (A) (A) (A) (A) (A) (A) (A) (A) (A) (A) (A) (A)
                 (A) (A) (A) (A) (A) (A) (A) (A) (A) (A) (A) (A)
                 (A) (A) (A) (A) (A) (A) (A) (A) (A) (A) (A) (A)
                 (A) (A) (A) (A) (A) (A) (A) (A) (A) (A) (A) (A)
                 (A) (A) (A) (A) (A) (A) (A) (A) (A) (A) (A) (A)
                 (A) (A) (A) (A) (A) (A) (A) (A)
       Virtual   (A) (A) (A) (A) (A) (A) (A) (A) (A) (A) (A) (A)
                 (A) (A) (A) (A) (A) (A) (A) (A) (A) (A) (A) (A)
                 (A) (A) (A) (A) (A) (A) (A) (A) (A) (A) (A) (A)
                 (A) (A) (A) (A) (A) (A) (A) (A) (A) (A) (A) (A)
                 (A) (A) (A) (A) (A) (A) (A) (A) (A) (A) (A) (A)
                 (A) (A) (A) (A) (A) (A) (A) (A) (A) (A) (A) (A)
                 (A) (A) (A) (A) (A) (A) (A) (A) (A) (A) (A) (A)
                 (A) (A) (A) (A) (A) (A) (A) (A) (A) (A) (A) (A)
                 (A) (A) (A) (A) (A) (A) (A) (A) (A) (A) (A) (A)
                 (A) (A) (A) (A) (A) (A) (A) (A) (A) (A) (A) (A)
                 (A) (A) (A) (A) (A) (A) (A) (A) (A) (A) (A) (A)
                 (A) (A) (A) (A) (A) (A) (A) (A) (A) (A) (A) (A)
                 (A) (A) (A) (A) (A) (A) (A) (A) (A) (A) (A) (A)
[...]
  Beta virt. eigenvalues --    4.84911   4.85157   4.85293   4.85534   4.85847
  Beta virt. eigenvalues --    4.86406   4.86811   4.86850   4.87519   4.88018
  Beta virt. eigenvalues --    4.88204   4.88521   4.88944   4.89105   4.89905
  Beta virt. eigenvalues --    4.90509   4.90636   4.91056   4.91220   4.91530
  Beta virt. eigenvalues --    4.91864   4.92403   4.92619   4.93073   4.93174
  Beta virt. eigenvalues --    4.93304   4.93915   4.94004   4.94165   4.94472
  Beta virt. eigenvalues --    4.94592   4.94717   4.94732   4.94989   4.95482
  Beta virt. eigenvalues --    4.95680   4.95963   4.96352   4.96942   4.97346
  Beta virt. eigenvalues --    4.97657   4.98144   4.98739   4.99048   4.99520
  Beta virt. eigenvalues --    4.99802   5.00054   5.00531   5.01024   5.01141
  Beta virt. eigenvalues --    5.01292   5.01747   5.02551   5.02729   5.02805
  Beta virt. eigenvalues --    5.03616   5.03706   5.03864   5.04248   5.04499
  Beta virt. eigenvalues --    5.04655   5.05213   5.05907   5.06106   5.06481
  Beta virt. eigenvalues --    5.06949   5.07307   5.07565   5.08232   5.08588
  Beta virt. eigenvalues --    5.08715   5.09051   5.09491   5.09680   5.09926
  Beta virt. eigenvalues --    5.10117   5.10218   5.10830   5.11104   5.11447
  Beta virt. eigenvalues --    5.11649   5.12335   5.12952   5.13478   5.13809
  Beta virt. eigenvalues --    5.14101   5.14573   5.14835   5.14935   5.15293
  Beta virt. eigenvalues --    5.16322   5.16597   5.16972   5.17282   5.17461
  Beta virt. eigenvalues --    5.17807   5.18213   5.18732   5.19074   5.19289
  Beta virt. eigenvalues --    5.19463   5.19688   5.21228   5.22811   5.22891
  Beta virt. eigenvalues --    5.23110   5.23581   5.23713   5.23874   5.24059
  Beta virt. eigenvalues --    5.24340   5.24390   5.24868   5.25461   5.25609
  Beta virt. eigenvalues --    5.25876   5.26004   5.26485   5.26866   5.27028
  Beta virt. eigenvalues --    5.27203   5.28137   5.28447   5.28469   5.28692
  Beta virt. eigenvalues --    5.29227   5.29316   5.29403   5.30430   5.30775
  Beta virt. eigenvalues --    5.30861   5.31001   5.31072   5.31303   5.31721
  Beta virt. eigenvalues --    5.31910   5.32088   5.32302   5.33008   5.33409
  Beta virt. eigenvalues --    5.33476   5.34082   5.34281   5.34474   5.34840
  Beta virt. eigenvalues --    5.35216   5.35688   5.35740   5.36397   5.36682
  Beta virt. eigenvalues --    5.37257   5.37784   5.37917   5.38462   5.38724
  Beta virt. eigenvalues --    5.39099   5.39303   5.39441   5.40054   5.40374
  Beta virt. eigenvalues --    5.41245   5.41464   5.41843   5.42087   5.42405
  Beta virt. eigenvalues --    5.42673   5.43190   5.43484   5.43702   5.43838
  Beta virt. eigenvalues --    5.44114   5.45023   5.45307   5.45712   5.46033
  Beta virt. eigenvalues --    5.46681   5.46900   5.47407   5.48037   5.48091
  Beta virt. eigenvalues --    5.48299   5.49367   5.50077   5.50436   5.50612
  Beta virt. eigenvalues --    5.50837   5.50910   5.51488   5.52879   5.53353
  Beta virt. eigenvalues --    5.53698   5.54505   5.55057   5.55537   5.55730
  Beta virt. eigenvalues --    5.55829   5.56548   5.56656   5.56939   5.57356
  Beta virt. eigenvalues --    5.57959   5.58116   5.58441   5.59163   5.59851
  Beta virt. eigenvalues --    5.60111   5.60250   5.60453   5.61040   5.61168
  Beta virt. eigenvalues --    5.61440   5.61527   5.62169   5.62283   5.62427
  Beta virt. eigenvalues --    5.62549   5.62772   5.62900   5.63065   5.63261
  Beta virt. eigenvalues --    5.63889   5.64065   5.64222   5.64793   5.65004
  Beta virt. eigenvalues --    5.66120   5.66535   5.66692   5.67112   5.67467
  Beta virt. eigenvalues --    5.68094   5.68654   5.68962   5.69058   5.69836
  Beta virt. eigenvalues --    5.70270   5.70744   5.70784   5.72429   5.73941
  Beta virt. eigenvalues --    5.74948   5.75573   5.77209   5.78953   5.79989
  Beta virt. eigenvalues --    5.81726   5.82976   5.84760   5.85332   5.85546
  Beta virt. eigenvalues --    5.86925   5.87789   5.88084   5.90030   5.91113
  Beta virt. eigenvalues --    5.91846   5.92173   5.92809   5.94518   5.95118
  Beta virt. eigenvalues --    5.95907   5.96242   5.96363   5.97753   5.98853
  Beta virt. eigenvalues --    5.99827   5.99974   6.01468   6.02709   6.03113
  Beta virt. eigenvalues --    6.03859   6.04820   6.05268   6.05797   6.05926
  Beta virt. eigenvalues --    6.06671   6.07389   6.08828   6.09313   6.11534
  Beta virt. eigenvalues --    6.12023   6.12641   6.18223   6.18304   6.19229
  Beta virt. eigenvalues --    6.20712   6.21366   6.22267   6.23046   6.23166
  Beta virt. eigenvalues --    6.24991   6.27065   6.27848   6.28518   6.29678
  Beta virt. eigenvalues --    6.31770   6.32016   6.32623   6.33660   6.37342
  Beta virt. eigenvalues --    6.37900   6.42558   6.43978   6.45299   6.45838
  Beta virt. eigenvalues --    6.46094   6.47819   6.51910   6.64782   6.71299
  Beta virt. eigenvalues --    6.72439   6.72830   6.73940   6.74625   6.75184
  Beta virt. eigenvalues --    6.75998   6.76779   6.77774   6.78692   6.81049
  Beta virt. eigenvalues --    6.82520   6.82745   6.83874   6.84595   6.85939
  Beta virt. eigenvalues --    6.86312   6.87401   6.90100   6.93929   6.95795
  Beta virt. eigenvalues --    6.96143   6.96771   6.97983   6.98502   6.98727
  Beta virt. eigenvalues --    6.99644   7.00170   7.00977   7.01415   7.01648
  Beta virt. eigenvalues --    7.05032   7.05955   7.07411   7.08494   7.09383
  Beta virt. eigenvalues --    7.12790   7.19181   7.23295   7.25195   7.26336
  Beta virt. eigenvalues --    7.26646   7.28129   7.28623   7.29315   7.30321
  Beta virt. eigenvalues --    7.30745   7.32116   7.32928   7.34641   7.35006
  Beta virt. eigenvalues --    7.35458   7.35910   7.36975   7.37668   7.39388
  Beta virt. eigenvalues --    7.40698   7.47635   7.47883   8.47686   8.49026
  Beta virt. eigenvalues --    8.58140   8.62424   8.81694   8.88687   8.91599
  Beta virt. eigenvalues --    8.93616   8.94990   9.02395  15.86779  22.76290
  Beta virt. eigenvalues --   22.86786  22.87513  22.92438  23.01549  23.10868
  Beta virt. eigenvalues --   23.12832  23.13628  23.15551  23.17845  23.19131
  Beta virt. eigenvalues --   23.23393  23.25131  23.27782  23.27928  23.28629
  Beta virt. eigenvalues --   23.29302  23.30195  23.31147  23.32268  23.33727
  Beta virt. eigenvalues --   23.34445  23.36073  23.36588  23.36774  23.38810
  Beta virt. eigenvalues --   23.39496  23.39782  23.42396  23.42499  23.42781
  Beta virt. eigenvalues --   23.45252  23.46961  23.48218  23.52597  23.53379
  Beta virt. eigenvalues --   23.53732  23.55416  23.56487  23.57964  23.61175
  Beta virt. eigenvalues --   23.62274  23.63939  23.70678  23.73381  23.85945
  Beta virt. eigenvalues --   23.92739  24.09581  24.10536  24.17778  32.19994
  Beta virt. eigenvalues --   33.16624  33.27616  44.27381  44.28812  44.34702
  Beta virt. eigenvalues --   44.40980  44.42365  44.47267  44.48509  44.61690
  Beta virt. eigenvalues --   44.64250  57.38216  57.58029
          Condensed to atoms (all electrons):
          Atomic-Atomic Spin Densities.
 Mulliken charges and spin densities:
               1          2
     1  B    0.374293   0.003749
     2  N   -0.142602   0.025872
     3  C   -0.076885   0.201296
     4  C   -0.115182  -0.089292
     5  C   -0.030779   0.182740
     6  C    0.074661  -0.101950
     7  C    0.046922   0.392101
     8  C   -0.030970  -0.023939
     9  O   -0.354238   0.050145
    10  C   -0.434801   0.002308
    11  C    0.164665  -0.001458
    12  C   -0.170024   0.001724
    13  C   -0.144920  -0.000455
    14  C    0.096819   0.001625
    15  C   -0.130889  -0.001124
    16  C   -0.132166   0.001936
    17  C   -0.184044  -0.000401
    18  N   -0.084973   0.000605
    19  C    0.082929  -0.095505
    20  N   -0.136879   0.021446
    21  C   -0.020042   0.165403
    22  C   -0.135216  -0.074101
    23  C   -0.034775   0.164017
    24  C   -0.473949  -0.010252
    25  C   -0.137024  -0.075730
    26  C   -0.096871   0.116322
    27  C   -0.012256  -0.030119
    28  C   -0.167927   0.034200
    29  C   -0.171981  -0.018669
    30  C    0.214126   0.032375
    31  O   -0.300959   0.004234
    32  C   -0.077586  -0.000323
    33  C   -0.123905  -0.000155
    34  O   -0.350234   0.000010
    35  C   -0.104401   0.000060
    36  C   -0.048733   0.000004
    37  O   -0.333770  -0.000000
    38  C   -0.103240   0.000000
    39  C   -0.049371  -0.000000
    40  O   -0.343254   0.000000
    41  C   -0.202260   0.000000
    42  C   -0.198029  -0.017044
    43  C   -0.159054   0.032125
    44  C   -0.413953  -0.008538
    45  C   -0.078616  -0.111637
    46  C   -0.134580   0.157549
    47  C    0.019884  -0.036454
    48  C   -0.215499   0.047591
    49  C   -0.168954  -0.023011
    50  C    0.216774   0.042522
    51  O   -0.302626   0.005480
    52  C   -0.143873  -0.000019
    53  C   -0.099602  -0.000166
    54  O   -0.351418   0.000084
    55  C   -0.079981   0.000005
    56  C   -0.049323   0.000009
    57  O   -0.349398   0.000000
    58  C   -0.046873  -0.000001
    59  C   -0.075633  -0.000000
    60  O   -0.356481  -0.000000
    61  C   -0.195224  -0.000000
    62  C   -0.197226  -0.023954
    63  C   -0.130522   0.037198
    64  F   -0.366101   0.000980
    65  F   -0.370325   0.001319
    66  H    0.146417   0.000674
    67  H    0.226835  -0.003544
    68  H    0.187893   0.000758
    69  H    0.165454  -0.000202
    70  H    0.167910   0.000026
    71  H    0.168561   0.000013
    72  H    0.148710  -0.000189
    73  H    0.156064   0.000522
    74  H    0.155607   0.001380
    75  H    0.139617   0.003637
    76  H    0.140500   0.008041
    77  H    0.110141   0.003101
    78  H    0.101486  -0.006274
    79  H    0.137142  -0.000988
    80  H    0.153384   0.000196
    81  H    0.140789   0.000382
    82  H    0.144347   0.000360
    83  H    0.134174  -0.000024
    84  H    0.139694  -0.000005
    85  H    0.125728  -0.000018
    86  H    0.130864  -0.000007
    87  H    0.117246   0.000001
    88  H    0.124640  -0.000000
    89  H    0.127162   0.000000
    90  H    0.116737  -0.000000
    91  H    0.125563   0.000000
    92  H    0.117471   0.000000
    93  H    0.118164  -0.000000
    94  H    0.119703   0.000000
    95  H    0.136126   0.000000
    96  H    0.156069   0.000197
    97  H    0.145607  -0.001243
    98  H    0.153679   0.008090
    99  H    0.128536   0.006394
   100  H    0.117157   0.000564
   101  H    0.085984   0.005389
   102  H    0.116352  -0.008495
   103  H    0.148628  -0.001669
   104  H    0.142837   0.000156
   105  H    0.156043   0.000308
   106  H    0.158807  -0.000003
   107  H    0.154412   0.000202
   108  H    0.141791  -0.000026
   109  H    0.116557   0.000002
   110  H    0.134866   0.000001
   111  H    0.116114   0.000000
   112  H    0.112443  -0.000006
   113  H    0.117752  -0.000000
   114  H    0.113372   0.000000
   115  H    0.127435   0.000000
   116  H    0.113695  -0.000000
   117  H    0.120032  -0.000000
   118  H    0.120768   0.000000
   119  H    0.137089  -0.000000
   120  H    0.152920   0.000414
   121  H    0.136252  -0.000849
 Sum of Mulliken charges =  -1.00000   1.00000
 Mulliken charges and spin densities with hydrogens summed into heavy atoms:
               1          2
     1  B    0.374293   0.003749
     2  N   -0.142602   0.025872
     3  C   -0.076885   0.201296
     4  C    0.031235  -0.088617
     5  C   -0.030779   0.182740
     6  C    0.074661  -0.101950
     7  C    0.046922   0.392101
     8  C   -0.030970  -0.023939
     9  O   -0.354238   0.050145
    10  C   -0.020072  -0.000478
    11  C    0.164665  -0.001458
    12  C   -0.004570   0.001522
    13  C    0.022990  -0.000429
    14  C    0.096819   0.001625
    15  C    0.037672  -0.001111
    16  C    0.016544   0.001747
    17  C   -0.184044  -0.000401
    18  N   -0.084973   0.000605
    19  C    0.082929  -0.095505
    20  N   -0.136879   0.021446
    21  C   -0.020042   0.165403
    22  C    0.020848  -0.073579
    23  C   -0.034775   0.164017
    24  C   -0.038224   0.002806
    25  C   -0.026883  -0.072629
    26  C    0.004615   0.110047
    27  C   -0.012256  -0.030119
    28  C   -0.030784   0.033211
    29  C   -0.018598  -0.018472
    30  C    0.214126   0.032375
    31  O   -0.300959   0.004234
    32  C    0.207550   0.000420
    33  C    0.149963  -0.000184
    34  O   -0.350234   0.000010
    35  C    0.152191   0.000035
    36  C    0.193153   0.000005
    37  O   -0.333770  -0.000000
    38  C    0.140660   0.000000
    39  C    0.193662  -0.000000
    40  O   -0.343254   0.000000
    41  C    0.171732   0.000000
    42  C   -0.041960  -0.016846
    43  C   -0.013447   0.030883
    44  C   -0.014581   0.006511
    45  C    0.007368  -0.106249
    46  C   -0.018228   0.149054
    47  C    0.019884  -0.036454
    48  C   -0.066871   0.045921
    49  C   -0.026117  -0.022856
    50  C    0.216774   0.042522
    51  O   -0.302626   0.005480
    52  C    0.170976   0.000285
    53  C    0.196600   0.000010
    54  O   -0.351418   0.000084
    55  C    0.171442   0.000008
    56  C    0.179234   0.000003
    57  O   -0.349398   0.000000
    58  C    0.184252  -0.000001
    59  C    0.165497  -0.000000
    60  O   -0.356481  -0.000000
    61  C    0.182664  -0.000000
    62  C   -0.044305  -0.023540
    63  C    0.005731   0.036349
    64  F   -0.366101   0.000980
    65  F   -0.370325   0.001319
 Electronic spatial extent (au):  <R**2>=         137290.4762
 Charge=             -1.0000 electrons
 Dipole moment (field-independent basis, Debye):
    X=            -25.9058    Y=              2.1156    Z=              1.0771  Tot=             26.0143
 Quadrupole moment (field-independent basis, Debye-Ang):
   XX=           -580.9252   YY=           -417.3953   ZZ=           -376.4050
   XY=             60.9120   XZ=             20.3896   YZ=            -46.3897
 Traceless Quadrupole moment (field-independent basis, Debye-Ang):
   XX=           -122.6834   YY=             40.8465   ZZ=             81.8369
   XY=             60.9120   XZ=             20.3896   YZ=            -46.3897
 Octapole moment (field-independent basis, Debye-Ang**2):
  XXX=          -4203.5736  YYY=           -675.7246  ZZZ=             26.9065  XYY=           -277.2997
  XXY=           1147.4261  XXZ=           -217.6767  XZZ=           -186.4415  YZZ=             -0.4093
  YYZ=           -399.2710  XYZ=           -120.3343
 Hexadecapole moment (field-independent basis, Debye-Ang**3):
 XXXX=        -165848.0233 YYYY=         -73975.2976 ZZZZ=          -4002.8556 XXXY=           6430.6525
 XXXZ=          -1164.7751 YYYX=           3125.1313 YYYZ=          -2099.5063 ZZZX=            -66.3302
 ZZZY=            168.5241 XXYY=         -30978.8523 XXZZ=         -18005.7421 YYZZ=         -11025.4358
 XXYZ=           1556.1247 YYXZ=           2982.2433 ZZXY=            431.3406
 N-N= 8.237501042170D+03 E-N=-2.352557640956D+04  KE= 2.988783536220D+03
 Leave Link  601 at Thu Oct 30 19:46:19 2025, MaxMem= 30870077440 cpu:             226.1 elap:               4.1
 (Enter /public/software/gauss/g16/l9999.exe)
 1\1\GINC-CU141\SP\UM062X\def2TZVPP\C50H56B1F2N3O9(1-,2)\BAIDING\30-Oct
 -2025\0\\#p M062X/DEF2TZVPP scrf=(solvent=water) em=GD3\\Energy calcul
 ation for BE_CN_reduced\\-1,2\B,0,3.069836,0.453078,0.241514\N,0,3.662
 448,1.838344,-0.084676\C,0,2.972593,2.942196,-0.573992\C,0,3.925316,3.
 908069,-0.945992\C,0,5.205407,3.427617,-0.684085\C,0,5.032395,2.119455
 ,-0.128994\C,0,5.986586,1.139217,0.260716\C,0,7.435327,1.476332,0.1858
 89\O,0,7.931193,2.387729,0.850746\C,0,8.260421,0.719296,-0.860687\C,0,
 9.722775,1.08476,-0.88971\C,0,10.601436,0.631148,0.107155\C,0,11.94727
 9,0.97673,0.086097\C,0,12.437842,1.795044,-0.947123\C,0,11.571356,2.25
 7665,-1.951154\C,0,10.227263,1.900601,-1.912494\C,0,13.821386,2.154314
 ,-0.97679\N,0,14.950286,2.447571,-1.000524\C,0,5.56062,-0.161835,0.653
 181\N,0,4.226627,-0.524388,0.521493\C,0,4.066126,-1.81779,0.994588\C,0
 ,5.316331,-2.265763,1.452237\C,0,6.256605,-1.248455,1.265353\C,0,7.689
 238,-1.324493,1.70903\C,0,2.803098,-2.506343,0.948502\C,0,2.559673,-3.
 721201,1.508484\C,0,1.31248,-4.475866,1.451986\C,0,1.222444,-5.70482,2
 .132863\C,0,0.062911,-6.480752,2.123392\C,0,-1.056718,-6.033408,1.4134
 53\O,0,-2.249091,-6.706293,1.331254\C,0,-2.362429,-7.978179,1.986493\C
 ,0,-3.74346,-8.540615,1.713507\O,0,-3.904041,-8.9337,0.348787\C,0,-4.6
 12815,-8.003786,-0.477046\C,0,-6.119916,-8.152319,-0.37839\O,0,-6.4810
 34,-9.449169,-0.851493\C,0,-7.847311,-9.794433,-0.630692\C,0,-8.82133,
 -9.111192,-1.574505\O,0,-8.529629,-9.509898,-2.90954\C,0,-9.401985,-8.
 901288,-3.851704\C,0,-0.994763,-4.810258,0.724396\C,0,0.163981,-4.0503
 74,0.743409\C,0,6.463091,4.191381,-0.982876\C,0,1.558488,3.166792,-0.6
 98393\C,0,0.494563,2.455059,-0.233112\C,0,-0.912039,2.791852,-0.433269
 \C,0,-1.37117,3.87799,-1.206221\C,0,-2.728013,4.15512,-1.36048\C,0,-3.
 683275,3.336503,-0.741201\O,0,-5.046386,3.490255,-0.841769\C,0,-5.5913
 27,4.602979,-1.569016\C,0,-5.593393,5.889516,-0.75503\O,0,-6.338775,5.
 758893,0.459263\C,0,-7.744599,5.972095,0.324139\C,0,-8.087018,7.441824
 ,0.545107\O,0,-9.497912,7.578727,0.416629\C,0,-9.944514,8.914487,0.627
 142\C,0,-11.462345,8.915807,0.461595\O,0,-12.015016,10.22158,0.593765\
 C,0,-12.207798,10.628456,1.9465\C,0,-3.254154,2.248912,0.033252\C,0,-1
 .899156,1.98671,0.179104\F,0,2.283815,-0.017502,-0.834002\F,0,2.235393
 ,0.522603,1.387131\H,0,3.683549,4.878689,-1.361652\H,0,8.117846,-0.355
 894,-0.721661\H,0,7.795025,0.952869,-1.826579\H,0,10.22857,-0.002893,0
 .904751\H,0,12.621094,0.619795,0.857491\H,0,11.953353,2.886659,-2.7479
 25\H,0,9.558971,2.256585,-2.690874\H,0,5.517207,-3.240483,1.878089\H,0
 ,8.081829,-0.348225,2.008429\H,0,7.774654,-1.991684,2.572594\H,0,8.358
 149,-1.722045,0.935478\H,0,2.012142,-2.002183,0.402637\H,0,3.359591,-4
 .206859,2.065624\H,0,2.08594,-6.06321,2.687248\H,0,0.044942,-7.417908,
 2.666296\H,0,-1.595769,-8.664456,1.607331\H,0,-2.223301,-7.859662,3.06
 8821\H,0,-3.866868,-9.436506,2.332212\H,0,-4.51185,-7.818302,2.012839\
 H,0,-4.33644,-6.971146,-0.237755\H,0,-4.295408,-8.21083,-1.50446\H,0,-
 6.458316,-8.022435,0.660591\H,0,-6.586015,-7.359612,-0.981374\H,0,-7.9
 07631,-10.878136,-0.774727\H,0,-8.140879,-9.56851,0.404757\H,0,-9.8445
 98,-9.408698,-1.294792\H,0,-8.763639,-8.016114,-1.483265\H,0,-10.45056
 5,-9.177448,-3.668655\H,0,-9.322811,-7.804879,-3.825809\H,0,-9.109802,
 -9.254803,-4.84368\H,0,-1.869432,-4.47497,0.175469\H,0,0.178741,-3.113
 394,0.195602\H,0,6.995026,4.498577,-0.076475\H,0,7.174648,3.614037,-1.
 583779\H,0,6.212953,5.094146,-1.547901\H,0,1.353782,4.089896,-1.23878\
 H,0,0.671535,1.568191,0.363346\H,0,-0.659646,4.527578,-1.706524\H,0,-3
 .02457,5.004864,-1.963362\H,0,-5.063362,4.753199,-2.517048\H,0,-6.6154
 73,4.300736,-1.802181\H,0,-4.575989,6.158564,-0.457593\H,0,-5.985851,6
 .700615,-1.382219\H,0,-8.110439,5.645536,-0.657083\H,0,-8.237867,5.360
 071,1.086049\H,0,-7.755734,7.75539,1.546179\H,0,-7.570285,8.073542,-0.
 19317\H,0,-9.654612,9.257836,1.630675\H,0,-9.489878,9.596408,-0.106852
 \H,0,-11.713223,8.569356,-0.546271\H,0,-11.918623,8.223945,1.183614\H,
 0,-12.859763,9.925294,2.483052\H,0,-11.262299,10.718715,2.495738\H,0,-
 12.690077,11.608695,1.917972\H,0,-3.998685,1.618277,0.509296\H,0,-1.58
 692,1.137701,0.781652\\Version=ES64L-G16RevA.03\State=2-A\HF=-3005.035
 8324\S2=0.789516\S2-1=0.\S2A=0.75124\RMSD=1.206e-09\Dipole=-10.1921227
 ,-0.8323276,-0.4237488\Quadrupole=-91.2120694,30.3683719,60.8436976,-4
 5.2865664,-15.1591706,-34.4896258\PG=C01 [X(C50H56B1F2N3O9)]\\@


 MYSTERY IS THE WISDOM OF BLOCKHEADS... HORACE WALPOLE 
 Job cpu time:       2 days 13 hours 47 minutes 43.5 seconds.
 Elapsed time:       0 days  0 hours 58 minutes 43.6 seconds.
 File lengths (MBytes):  RWF=   8409 Int=      0 D2E=      0 Chk=    543 Scr=      1
 Normal termination of Gaussian 16 at Thu Oct 30 19:46:21 2025.
