 Entering Gaussian System, Link 0=g16
 Input=BE_CHO_reduced_sp.gjf
 Output=BE_CHO_reduced_sp.log
 Initial command:
 /public/software/gauss/g16/l1.exe "/public/home/baiding/1030_sp/tmp_BE_CHO_reduced_sp_1544648/Gau-111962.inp" -scrdir="/public/home/baiding/1030_sp/tmp_BE_CHO_reduced_sp_1544648/"
 Entering Link 1 = /public/software/gauss/g16/l1.exe PID=    111963.
  
 Copyright (c) 1988,1990,1992,1993,1995,1998,2003,2009,2016,
            Gaussian, Inc.  All Rights Reserved.
  
 This is part of the Gaussian(R) 16 program.  It is based on
 the Gaussian(R) 09 system (copyright 2009, Gaussian, Inc.),
 the Gaussian(R) 03 system (copyright 2003, Gaussian, Inc.),
 the Gaussian(R) 98 system (copyright 1998, Gaussian, Inc.),
 the Gaussian(R) 94 system (copyright 1995, Gaussian, Inc.),
 the Gaussian 92(TM) system (copyright 1992, Gaussian, Inc.),
 the Gaussian 90(TM) system (copyright 1990, Gaussian, Inc.),
 the Gaussian 88(TM) system (copyright 1988, Gaussian, Inc.),
 the Gaussian 86(TM) system (copyright 1986, Carnegie Mellon
 University), and the Gaussian 82(TM) system (copyright 1983,
 Carnegie Mellon University). Gaussian is a federally registered
 trademark of Gaussian, Inc.
  
 This software contains proprietary and confidential information,
 including trade secrets, belonging to Gaussian, Inc.
  
 This software is provided under written license and may be
 used, copied, transmitted, or stored only in accord with that
 written license.
  
 The following legend is applicable only to US Government
 contracts under FAR:
  
                    RESTRICTED RIGHTS LEGEND
  
 Use, reproduction and disclosure by the US Government is
 subject to restrictions as set forth in subparagraphs (a)
 and (c) of the Commercial Computer Software - Restricted
 Rights clause in FAR 52.227-19.
  
 Gaussian, Inc.
 340 Quinnipiac St., Bldg. 40, Wallingford CT 06492
  
  
 ---------------------------------------------------------------
 Warning -- This program may not be used in any manner that
 competes with the business of Gaussian, Inc. or will provide
 assistance to any competitor of Gaussian, Inc.  The licensee
 of this program is prohibited from giving any competitor of
 Gaussian, Inc. access to this program.  By using this program,
 the user acknowledges that Gaussian, Inc. is engaged in the
 business of creating and licensing software in the field of
 computational chemistry and represents and warrants to the
 licensee that it is not a competitor of Gaussian, Inc. and that
 it will not use this program in any manner prohibited above.
 ---------------------------------------------------------------
  

 Cite this work as:
 Gaussian 16, Revision A.03,
 M. J. Frisch, G. W. Trucks, H. B. Schlegel, G. E. Scuseria, 
 M. A. Robb, J. R. Cheeseman, G. Scalmani, V. Barone, 
 G. A. Petersson, H. Nakatsuji, X. Li, M. Caricato, A. V. Marenich, 
 J. Bloino, B. G. Janesko, R. Gomperts, B. Mennucci, H. P. Hratchian, 
 J. V. Ortiz, A. F. Izmaylov, J. L. Sonnenberg, D. Williams-Young, 
 F. Ding, F. Lipparini, F. Egidi, J. Goings, B. Peng, A. Petrone, 
 T. Henderson, D. Ranasinghe, V. G. Zakrzewski, J. Gao, N. Rega, 
 G. Zheng, W. Liang, M. Hada, M. Ehara, K. Toyota, R. Fukuda, 
 J. Hasegawa, M. Ishida, T. Nakajima, Y. Honda, O. Kitao, H. Nakai, 
 T. Vreven, K. Throssell, J. A. Montgomery, Jr., J. E. Peralta, 
 F. Ogliaro, M. J. Bearpark, J. J. Heyd, E. N. Brothers, K. N. Kudin, 
 V. N. Staroverov, T. A. Keith, R. Kobayashi, J. Normand, 
 K. Raghavachari, A. P. Rendell, J. C. Burant, S. S. Iyengar, 
 J. Tomasi, M. Cossi, J. M. Millam, M. Klene, C. Adamo, R. Cammi, 
 J. W. Ochterski, R. L. Martin, K. Morokuma, O. Farkas, 
 J. B. Foresman, and D. J. Fox, Gaussian, Inc., Wallingford CT, 2016.
 
 ******************************************
 Gaussian 16:  ES64L-G16RevA.03 25-Dec-2016
                30-Oct-2025 
 ******************************************
 %nprocshared=64
 Will use up to   64 processors via shared memory.
 %mem=230GB
 %chk=BE_CHO_reduced_sp.chk
 ----------------------------------------------
 #p M062X/DEF2TZVPP scrf=(solvent=water) em=GD3
 ----------------------------------------------
 1/38=1,172=1/1;
 2/12=2,17=6,18=5,40=1/2;
 3/5=44,7=202,11=2,25=1,30=1,70=2201,72=1,74=-55,124=31/1,2,3;
 4//1;
 5/5=2,38=5,53=1/2;
 6/7=2,8=2,9=2,10=2,28=1/1;
 99/5=1,9=1/99;
 Leave Link    1 at Thu Oct 30 16:31:56 2025, MaxMem= 30870077440 cpu:              16.9 elap:               0.3
 (Enter /public/software/gauss/g16/l101.exe)
 -------------------------------------
 Energy calculation for BE_CHO_reduced
 -------------------------------------
 Symbolic Z-matrix:
 Charge = -1 Multiplicity = 2
 B                    -2.79353  -0.67177   0.23106 
 N                    -3.86036   0.2834    0.80613 
 C                    -3.62447   1.41438   1.58177 
 C                    -4.83918   1.7807    2.18453 
 C                    -5.83986   0.89454   1.78423 
 C                    -5.21493  -0.03552   0.90309 
 C                    -5.73612  -1.19551   0.26232 
 C                    -7.20593  -1.43094   0.20713 
 O                    -7.72044  -2.43871   0.69505 
 C                    -8.02782  -0.4306   -0.61474 
 C                    -9.52594  -0.51528  -0.46338 
 C                    -10.25643   0.57537   0.02951 
 C                    -11.64146   0.50454   0.15705 
 C                    -12.32391  -0.66425  -0.2082 
 C                    -11.59971  -1.75964  -0.71074 
 C                    -10.22017  -1.68253  -0.83702 
 C                    -13.78425  -0.71774  -0.06689 
 O                    -14.48203  -1.68695  -0.35628 
 C                    -4.86138  -2.14476  -0.33064 
 N                    -3.47715  -1.96226  -0.26908 
 C                    -2.86851  -2.99617  -0.97407 
 C                    -3.8889   -3.81906  -1.48583 
 C                    -5.1302   -3.31516  -1.10997 
 C                    -6.43979  -3.92341  -1.52077 
 C                    -1.47733  -3.27981  -1.19904 
 C                    -0.34685  -2.71129  -0.69529 
 C                     1.02224  -3.10493  -1.01486 
 C                     1.36789  -4.13436  -1.92253 
 C                     2.69081  -4.46138  -2.17588 
 C                     3.73202  -3.77     -1.53389 
 O                     5.00438  -4.17075  -1.85632 
 C                     6.10589  -3.49113  -1.23777 
 C                     7.38584  -4.1133   -1.74334 
 O                     7.48862  -5.4429   -1.2472 
 C                     8.67491  -6.09669  -1.6891 
 C                     8.71789  -7.49262  -1.09324 
 O                     8.73451  -7.51935   0.33354 
 C                     9.9717   -7.11358   0.91587 
 C                     9.90005  -7.46027   2.40135 
 O                     11.09392  -7.09934   3.08985 
 C                     11.13667  -5.72905   3.48089 
 C                     3.42329  -2.74391  -0.63412 
 C                     2.08686  -2.42834  -0.38794 
 C                    -7.25599   0.92801   2.28071 
 C                    -2.40963   2.16175   1.77362 
 C                    -1.21187   2.09115   1.13263 
 C                    -0.0422    2.9183    1.41673 
 C                     1.09201   2.8052    0.58886 
 C                     2.24349   3.56709   0.78599 
 C                     2.29217   4.47686   1.84799 
 O                     3.35804   5.28831   2.15808 
 C                     4.65424   5.06335   1.57513 
 C                     4.94477   5.99059   0.41299 
 O                     4.19061   5.59687  -0.73212 
 C                     4.50157   6.31918  -1.92586 
 C                     3.72476   7.62166  -2.07307 
 O                     4.07409   8.64931  -1.14382 
 C                     5.31023   9.3027   -1.42625 
 C                     5.39199   10.516   -0.50175 
 O                     6.63175   11.20593  -0.62201 
 C                     6.70398   12.06264  -1.7596 
 C                     1.17719   4.60632   2.69313 
 C                     0.03698   3.84652   2.4804 
 F                    -2.10348  -0.06901  -0.8491 
 F                    -1.85529  -0.96866   1.24794 
 H                    -4.96163   2.62329   2.85413 
 H                    -7.66414   0.5829   -0.43449 
 H                    -7.75001  -0.65992  -1.6549 
 H                    -9.73611   1.48698   0.30592 
 H                    -12.20077   1.3551    0.53786 
 H                    -12.13298  -2.65932  -1.00125 
 H                    -9.6683   -2.52723  -1.23558 
 H                    -14.24886   0.20408   0.33348 
 H                    -3.71703  -4.71082  -2.07616 
 H                    -7.1085   -3.19523  -1.99337 
 H                    -6.25708  -4.72048  -2.24746 
 H                    -6.9883   -4.3557   -0.67783 
 H                    -1.35926  -4.11951  -1.8821 
 H                    -0.43431  -1.90639   0.02378 
 H                     0.59148  -4.68858  -2.4405 
 H                     2.94316  -5.2541   -2.87355 
 H                     6.09143  -2.42636  -1.49987 
 H                     6.04314  -3.58562  -0.14706 
 H                     7.39837  -4.10902  -2.84351 
 H                     8.2319   -3.50214  -1.395 
 H                     8.68452  -6.18636  -2.78646 
 H                     9.56038  -5.51177  -1.40018 
 H                     7.81677  -8.03972  -1.38779 
 H                     9.59195  -8.02204  -1.49947 
 H                     10.81135  -7.6488    0.44881 
 H                     10.13942  -6.03711   0.77991 
 H                     9.02509  -6.97529   2.85675 
 H                     9.78509  -8.54307   2.51479 
 H                     12.0693  -5.58407   4.03182 
 H                     11.12776  -5.04774   2.62086 
 H                     10.29159  -5.47729   4.13652 
 H                     4.20364  -2.19119  -0.12522 
 H                     1.8605   -1.62945   0.31346 
 H                    -7.9087    1.54797   1.65537 
 H                    -7.70675  -0.06723   2.33302 
 H                    -7.28534   1.35411   3.28871 
 H                    -2.53126   2.92145   2.54439 
 H                    -1.0904    1.38899   0.31624 
 H                     1.06679   2.10523  -0.2425 
 H                     3.07417   3.46697   0.09954 
 H                     5.36987   5.28855   2.37163 
 H                     4.77894   4.01455   1.29109 
 H                     4.71184   7.02265   0.70088 
 H                     6.02222   5.93334   0.19471 
 H                     5.58468   6.48832  -1.99599 
 H                     4.21202   5.66942  -2.75936 
 H                     3.84858   7.98759  -3.10385 
 H                     2.66146   7.42059  -1.90718 
 H                     6.16844   8.64342  -1.23843 
 H                     5.33952   9.60623  -2.48213 
 H                     4.54832   11.19315  -0.69741 
 H                     5.3234    10.1794   0.53791 
 H                     5.87958   12.78912  -1.76193 
 H                     7.65216   12.60174  -1.69176 
 H                     6.68393   11.50648  -2.70517 
 H                     1.22884   5.30882   3.51939 
 H                    -0.79993   3.9679    3.16106 
 
 ITRead=  0  0  0  0  0  0  0  0  0  0  0  0  0  0  0  0  0  0  0  0
 ITRead=  0  0  0  0  0  0  0  0  0  0  0  0  0  0  0  0  0  0  0  0
 ITRead=  0  0  0  0  0  0  0  0  0  0  0  0  0  0  0  0  0  0  0  0
 ITRead=  0  0  0  0  0  0  0  0  0  0  0  0  0  0  0  0  0  0  0  0
 ITRead=  0  0  0  0  0  0  0  0  0  0  0  0  0  0  0  0  0  0  0  0
 ITRead=  0  0  0  0  0  0  0  0  0  0  0  0  0  0  0  0  0  0  0  0
 ITRead=  0  0
 MicOpt= -1 -1 -1 -1 -1 -1 -1 -1 -1 -1 -1 -1 -1 -1 -1 -1 -1 -1 -1 -1
 MicOpt= -1 -1 -1 -1 -1 -1 -1 -1 -1 -1 -1 -1 -1 -1 -1 -1 -1 -1 -1 -1
 MicOpt= -1 -1 -1 -1 -1 -1 -1 -1 -1 -1 -1 -1 -1 -1 -1 -1 -1 -1 -1 -1
 MicOpt= -1 -1 -1 -1 -1 -1 -1 -1 -1 -1 -1 -1 -1 -1 -1 -1 -1 -1 -1 -1
 MicOpt= -1 -1 -1 -1 -1 -1 -1 -1 -1 -1 -1 -1 -1 -1 -1 -1 -1 -1 -1 -1
 MicOpt= -1 -1 -1 -1 -1 -1 -1 -1 -1 -1 -1 -1 -1 -1 -1 -1 -1 -1 -1 -1
 MicOpt= -1 -1
 NAtoms=    122 NQM=      122 NQMF=       0 NMMI=      0 NMMIF=      0
                NMic=       0 NMicF=      0.
                    Isotopes and Nuclear Properties:
 (Nuclear quadrupole moments (NQMom) in fm**2, nuclear magnetic moments (NMagM)
  in nuclear magnetons)

  Atom         1           2           3           4           5           6           7           8           9          10
 IAtWgt=          11          14          12          12          12          12          12          12          16          12
 AtmWgt=  11.0093053  14.0030740  12.0000000  12.0000000  12.0000000  12.0000000  12.0000000  12.0000000  15.9949146  12.0000000
 NucSpn=           3           2           0           0           0           0           0           0           0           0
 AtZEff=  -0.0000000  -0.0000000  -0.0000000  -0.0000000  -0.0000000  -0.0000000  -0.0000000  -0.0000000  -0.0000000  -0.0000000
 NQMom=    4.0590000   2.0440000   0.0000000   0.0000000   0.0000000   0.0000000   0.0000000   0.0000000   0.0000000   0.0000000
 NMagM=    2.6886370   0.4037610   0.0000000   0.0000000   0.0000000   0.0000000   0.0000000   0.0000000   0.0000000   0.0000000
 AtZNuc=   5.0000000   7.0000000   6.0000000   6.0000000   6.0000000   6.0000000   6.0000000   6.0000000   8.0000000   6.0000000

  Atom        11          12          13          14          15          16          17          18          19          20
 IAtWgt=          12          12          12          12          12          12          12          16          12          14
 AtmWgt=  12.0000000  12.0000000  12.0000000  12.0000000  12.0000000  12.0000000  12.0000000  15.9949146  12.0000000  14.0030740
 NucSpn=           0           0           0           0           0           0           0           0           0           2
 AtZEff=  -0.0000000  -0.0000000  -0.0000000  -0.0000000  -0.0000000  -0.0000000  -0.0000000  -0.0000000  -0.0000000  -0.0000000
 NQMom=    0.0000000   0.0000000   0.0000000   0.0000000   0.0000000   0.0000000   0.0000000   0.0000000   0.0000000   2.0440000
 NMagM=    0.0000000   0.0000000   0.0000000   0.0000000   0.0000000   0.0000000   0.0000000   0.0000000   0.0000000   0.4037610
 AtZNuc=   6.0000000   6.0000000   6.0000000   6.0000000   6.0000000   6.0000000   6.0000000   8.0000000   6.0000000   7.0000000

  Atom        21          22          23          24          25          26          27          28          29          30
 IAtWgt=          12          12          12          12          12          12          12          12          12          12
 AtmWgt=  12.0000000  12.0000000  12.0000000  12.0000000  12.0000000  12.0000000  12.0000000  12.0000000  12.0000000  12.0000000
 NucSpn=           0           0           0           0           0           0           0           0           0           0
 AtZEff=  -0.0000000  -0.0000000  -0.0000000  -0.0000000  -0.0000000  -0.0000000  -0.0000000  -0.0000000  -0.0000000  -0.0000000
 NQMom=    0.0000000   0.0000000   0.0000000   0.0000000   0.0000000   0.0000000   0.0000000   0.0000000   0.0000000   0.0000000
 NMagM=    0.0000000   0.0000000   0.0000000   0.0000000   0.0000000   0.0000000   0.0000000   0.0000000   0.0000000   0.0000000
 AtZNuc=   6.0000000   6.0000000   6.0000000   6.0000000   6.0000000   6.0000000   6.0000000   6.0000000   6.0000000   6.0000000

  Atom        31          32          33          34          35          36          37          38          39          40
 IAtWgt=          16          12          12          16          12          12          16          12          12          16
 AtmWgt=  15.9949146  12.0000000  12.0000000  15.9949146  12.0000000  12.0000000  15.9949146  12.0000000  12.0000000  15.9949146
 NucSpn=           0           0           0           0           0           0           0           0           0           0
 AtZEff=  -0.0000000  -0.0000000  -0.0000000  -0.0000000  -0.0000000  -0.0000000  -0.0000000  -0.0000000  -0.0000000  -0.0000000
 NQMom=    0.0000000   0.0000000   0.0000000   0.0000000   0.0000000   0.0000000   0.0000000   0.0000000   0.0000000   0.0000000
 NMagM=    0.0000000   0.0000000   0.0000000   0.0000000   0.0000000   0.0000000   0.0000000   0.0000000   0.0000000   0.0000000
 AtZNuc=   8.0000000   6.0000000   6.0000000   8.0000000   6.0000000   6.0000000   8.0000000   6.0000000   6.0000000   8.0000000

  Atom        41          42          43          44          45          46          47          48          49          50
 IAtWgt=          12          12          12          12          12          12          12          12          12          12
 AtmWgt=  12.0000000  12.0000000  12.0000000  12.0000000  12.0000000  12.0000000  12.0000000  12.0000000  12.0000000  12.0000000
 NucSpn=           0           0           0           0           0           0           0           0           0           0
 AtZEff=  -0.0000000  -0.0000000  -0.0000000  -0.0000000  -0.0000000  -0.0000000  -0.0000000  -0.0000000  -0.0000000  -0.0000000
 NQMom=    0.0000000   0.0000000   0.0000000   0.0000000   0.0000000   0.0000000   0.0000000   0.0000000   0.0000000   0.0000000
 NMagM=    0.0000000   0.0000000   0.0000000   0.0000000   0.0000000   0.0000000   0.0000000   0.0000000   0.0000000   0.0000000
 AtZNuc=   6.0000000   6.0000000   6.0000000   6.0000000   6.0000000   6.0000000   6.0000000   6.0000000   6.0000000   6.0000000

  Atom        51          52          53          54          55          56          57          58          59          60
 IAtWgt=          16          12          12          16          12          12          16          12          12          16
 AtmWgt=  15.9949146  12.0000000  12.0000000  15.9949146  12.0000000  12.0000000  15.9949146  12.0000000  12.0000000  15.9949146
 NucSpn=           0           0           0           0           0           0           0           0           0           0
 AtZEff=  -0.0000000  -0.0000000  -0.0000000  -0.0000000  -0.0000000  -0.0000000  -0.0000000  -0.0000000  -0.0000000  -0.0000000
 NQMom=    0.0000000   0.0000000   0.0000000   0.0000000   0.0000000   0.0000000   0.0000000   0.0000000   0.0000000   0.0000000
 NMagM=    0.0000000   0.0000000   0.0000000   0.0000000   0.0000000   0.0000000   0.0000000   0.0000000   0.0000000   0.0000000
 AtZNuc=   8.0000000   6.0000000   6.0000000   8.0000000   6.0000000   6.0000000   8.0000000   6.0000000   6.0000000   8.0000000

  Atom        61          62          63          64          65          66          67          68          69          70
 IAtWgt=          12          12          12          19          19           1           1           1           1           1
 AtmWgt=  12.0000000  12.0000000  12.0000000  18.9984033  18.9984033   1.0078250   1.0078250   1.0078250   1.0078250   1.0078250
 NucSpn=           0           0           0           1           1           1           1           1           1           1
 AtZEff=  -0.0000000  -0.0000000  -0.0000000  -0.0000000  -0.0000000  -0.0000000  -0.0000000  -0.0000000  -0.0000000  -0.0000000
 NQMom=    0.0000000   0.0000000   0.0000000   0.0000000   0.0000000   0.0000000   0.0000000   0.0000000   0.0000000   0.0000000
 NMagM=    0.0000000   0.0000000   0.0000000   2.6288670   2.6288670   2.7928460   2.7928460   2.7928460   2.7928460   2.7928460
 AtZNuc=   6.0000000   6.0000000   6.0000000   9.0000000   9.0000000   1.0000000   1.0000000   1.0000000   1.0000000   1.0000000

  Atom        71          72          73          74          75          76          77          78          79          80
 IAtWgt=           1           1           1           1           1           1           1           1           1           1
 AtmWgt=   1.0078250   1.0078250   1.0078250   1.0078250   1.0078250   1.0078250   1.0078250   1.0078250   1.0078250   1.0078250
 NucSpn=           1           1           1           1           1           1           1           1           1           1
 AtZEff=  -0.0000000  -0.0000000  -0.0000000  -0.0000000  -0.0000000  -0.0000000  -0.0000000  -0.0000000  -0.0000000  -0.0000000
 NQMom=    0.0000000   0.0000000   0.0000000   0.0000000   0.0000000   0.0000000   0.0000000   0.0000000   0.0000000   0.0000000
 NMagM=    2.7928460   2.7928460   2.7928460   2.7928460   2.7928460   2.7928460   2.7928460   2.7928460   2.7928460   2.7928460
 AtZNuc=   1.0000000   1.0000000   1.0000000   1.0000000   1.0000000   1.0000000   1.0000000   1.0000000   1.0000000   1.0000000

  Atom        81          82          83          84          85          86          87          88          89          90
 IAtWgt=           1           1           1           1           1           1           1           1           1           1
 AtmWgt=   1.0078250   1.0078250   1.0078250   1.0078250   1.0078250   1.0078250   1.0078250   1.0078250   1.0078250   1.0078250
 NucSpn=           1           1           1           1           1           1           1           1           1           1
 AtZEff=  -0.0000000  -0.0000000  -0.0000000  -0.0000000  -0.0000000  -0.0000000  -0.0000000  -0.0000000  -0.0000000  -0.0000000
 NQMom=    0.0000000   0.0000000   0.0000000   0.0000000   0.0000000   0.0000000   0.0000000   0.0000000   0.0000000   0.0000000
 NMagM=    2.7928460   2.7928460   2.7928460   2.7928460   2.7928460   2.7928460   2.7928460   2.7928460   2.7928460   2.7928460
 AtZNuc=   1.0000000   1.0000000   1.0000000   1.0000000   1.0000000   1.0000000   1.0000000   1.0000000   1.0000000   1.0000000

  Atom        91          92          93          94          95          96          97          98          99         100
 IAtWgt=           1           1           1           1           1           1           1           1           1           1
 AtmWgt=   1.0078250   1.0078250   1.0078250   1.0078250   1.0078250   1.0078250   1.0078250   1.0078250   1.0078250   1.0078250
 NucSpn=           1           1           1           1           1           1           1           1           1           1
 AtZEff=  -0.0000000  -0.0000000  -0.0000000  -0.0000000  -0.0000000  -0.0000000  -0.0000000  -0.0000000  -0.0000000  -0.0000000
 NQMom=    0.0000000   0.0000000   0.0000000   0.0000000   0.0000000   0.0000000   0.0000000   0.0000000   0.0000000   0.0000000
 NMagM=    2.7928460   2.7928460   2.7928460   2.7928460   2.7928460   2.7928460   2.7928460   2.7928460   2.7928460   2.7928460
 AtZNuc=   1.0000000   1.0000000   1.0000000   1.0000000   1.0000000   1.0000000   1.0000000   1.0000000   1.0000000   1.0000000

  Atom       101         102         103         104         105         106         107         108         109         110
 IAtWgt=           1           1           1           1           1           1           1           1           1           1
 AtmWgt=   1.0078250   1.0078250   1.0078250   1.0078250   1.0078250   1.0078250   1.0078250   1.0078250   1.0078250   1.0078250
 NucSpn=           1           1           1           1           1           1           1           1           1           1
 AtZEff=  -0.0000000  -0.0000000  -0.0000000  -0.0000000  -0.0000000  -0.0000000  -0.0000000  -0.0000000  -0.0000000  -0.0000000
 NQMom=    0.0000000   0.0000000   0.0000000   0.0000000   0.0000000   0.0000000   0.0000000   0.0000000   0.0000000   0.0000000
 NMagM=    2.7928460   2.7928460   2.7928460   2.7928460   2.7928460   2.7928460   2.7928460   2.7928460   2.7928460   2.7928460
 AtZNuc=   1.0000000   1.0000000   1.0000000   1.0000000   1.0000000   1.0000000   1.0000000   1.0000000   1.0000000   1.0000000

  Atom       111         112         113         114         115         116         117         118         119         120
 IAtWgt=           1           1           1           1           1           1           1           1           1           1
 AtmWgt=   1.0078250   1.0078250   1.0078250   1.0078250   1.0078250   1.0078250   1.0078250   1.0078250   1.0078250   1.0078250
 NucSpn=           1           1           1           1           1           1           1           1           1           1
 AtZEff=  -0.0000000  -0.0000000  -0.0000000  -0.0000000  -0.0000000  -0.0000000  -0.0000000  -0.0000000  -0.0000000  -0.0000000
 NQMom=    0.0000000   0.0000000   0.0000000   0.0000000   0.0000000   0.0000000   0.0000000   0.0000000   0.0000000   0.0000000
 NMagM=    2.7928460   2.7928460   2.7928460   2.7928460   2.7928460   2.7928460   2.7928460   2.7928460   2.7928460   2.7928460
 AtZNuc=   1.0000000   1.0000000   1.0000000   1.0000000   1.0000000   1.0000000   1.0000000   1.0000000   1.0000000   1.0000000

  Atom       121         122
 IAtWgt=           1           1
 AtmWgt=   1.0078250   1.0078250
 NucSpn=           1           1
 AtZEff=  -0.0000000  -0.0000000
 NQMom=    0.0000000   0.0000000
 NMagM=    2.7928460   2.7928460
 AtZNuc=   1.0000000   1.0000000
 Leave Link  101 at Thu Oct 30 16:31:56 2025, MaxMem= 30870077440 cpu:               4.5 elap:               0.1
 (Enter /public/software/gauss/g16/l202.exe)
 Stoichiometry    C50H57BF2N2O10(1-,2)
 Framework group  C1[X(C50H57BF2N2O10)]
 Deg. of freedom   360
 Full point group                 C1      NOp   1
 Largest Abelian subgroup         C1      NOp   1
 Largest concise Abelian subgroup C1      NOp   1
                         Standard orientation:                         
 ---------------------------------------------------------------------
 Center     Atomic      Atomic             Coordinates (Angstroms)
 Number     Number       Type             X           Y           Z
 ---------------------------------------------------------------------
      1          5           0       -2.793525   -0.671770    0.231063
      2          7           0       -3.860362    0.283396    0.806126
      3          6           0       -3.624465    1.414377    1.581768
      4          6           0       -4.839184    1.780696    2.184534
      5          6           0       -5.839860    0.894535    1.784232
      6          6           0       -5.214932   -0.035521    0.903086
      7          6           0       -5.736121   -1.195507    0.262318
      8          6           0       -7.205932   -1.430936    0.207131
      9          8           0       -7.720444   -2.438714    0.695052
     10          6           0       -8.027815   -0.430603   -0.614735
     11          6           0       -9.525944   -0.515275   -0.463378
     12          6           0      -10.256427    0.575365    0.029513
     13          6           0      -11.641459    0.504542    0.157049
     14          6           0      -12.323913   -0.664245   -0.208203
     15          6           0      -11.599714   -1.759642   -0.710741
     16          6           0      -10.220172   -1.682534   -0.837019
     17          6           0      -13.784255   -0.717736   -0.066893
     18          8           0      -14.482030   -1.686949   -0.356278
     19          6           0       -4.861376   -2.144759   -0.330640
     20          7           0       -3.477148   -1.962259   -0.269076
     21          6           0       -2.868510   -2.996174   -0.974072
     22          6           0       -3.888903   -3.819059   -1.485833
     23          6           0       -5.130203   -3.315160   -1.109967
     24          6           0       -6.439787   -3.923409   -1.520774
     25          6           0       -1.477332   -3.279814   -1.199039
     26          6           0       -0.346846   -2.711290   -0.695286
     27          6           0        1.022241   -3.104933   -1.014862
     28          6           0        1.367892   -4.134360   -1.922533
     29          6           0        2.690812   -4.461382   -2.175881
     30          6           0        3.732023   -3.769996   -1.533889
     31          8           0        5.004381   -4.170745   -1.856315
     32          6           0        6.105891   -3.491128   -1.237765
     33          6           0        7.385842   -4.113300   -1.743335
     34          8           0        7.488619   -5.442898   -1.247196
     35          6           0        8.674906   -6.096686   -1.689102
     36          6           0        8.717885   -7.492624   -1.093239
     37          8           0        8.734506   -7.519347    0.333542
     38          6           0        9.971701   -7.113576    0.915866
     39          6           0        9.900053   -7.460269    2.401351
     40          8           0       11.093918   -7.099337    3.089848
     41          6           0       11.136672   -5.729050    3.480890
     42          6           0        3.423294   -2.743907   -0.634121
     43          6           0        2.086863   -2.428338   -0.387935
     44          6           0       -7.255991    0.928007    2.280708
     45          6           0       -2.409630    2.161745    1.773622
     46          6           0       -1.211871    2.091151    1.132631
     47          6           0       -0.042201    2.918304    1.416733
     48          6           0        1.092013    2.805198    0.588857
     49          6           0        2.243491    3.567093    0.785989
     50          6           0        2.292170    4.476856    1.847991
     51          8           0        3.358035    5.288305    2.158076
     52          6           0        4.654243    5.063349    1.575126
     53          6           0        4.944767    5.990587    0.412989
     54          8           0        4.190610    5.596873   -0.732115
     55          6           0        4.501571    6.319178   -1.925863
     56          6           0        3.724764    7.621656   -2.073073
     57          8           0        4.074092    8.649313   -1.143815
     58          6           0        5.310227    9.302696   -1.426253
     59          6           0        5.391986   10.516003   -0.501747
     60          8           0        6.631748   11.205931   -0.622007
     61          6           0        6.703978   12.062642   -1.759604
     62          6           0        1.177188    4.606324    2.693129
     63          6           0        0.036980    3.846517    2.480404
     64          9           0       -2.103482   -0.069012   -0.849095
     65          9           0       -1.855287   -0.968657    1.247939
     66          1           0       -4.961630    2.623294    2.854128
     67          1           0       -7.664140    0.582903   -0.434487
     68          1           0       -7.750006   -0.659923   -1.654899
     69          1           0       -9.736106    1.486983    0.305917
     70          1           0      -12.200766    1.355102    0.537857
     71          1           0      -12.132976   -2.659324   -1.001248
     72          1           0       -9.668303   -2.527231   -1.235576
     73          1           0      -14.248864    0.204075    0.333484
     74          1           0       -3.717031   -4.710823   -2.076163
     75          1           0       -7.108495   -3.195230   -1.993372
     76          1           0       -6.257077   -4.720475   -2.247461
     77          1           0       -6.988302   -4.355696   -0.677827
     78          1           0       -1.359255   -4.119511   -1.882097
     79          1           0       -0.434312   -1.906387    0.023777
     80          1           0        0.591476   -4.688576   -2.440498
     81          1           0        2.943164   -5.254097   -2.873547
     82          1           0        6.091431   -2.426357   -1.499867
     83          1           0        6.043143   -3.585616   -0.147058
     84          1           0        7.398365   -4.109023   -2.843513
     85          1           0        8.231898   -3.502138   -1.395003
     86          1           0        8.684519   -6.186364   -2.786458
     87          1           0        9.560383   -5.511769   -1.400177
     88          1           0        7.816767   -8.039724   -1.387788
     89          1           0        9.591953   -8.022036   -1.499470
     90          1           0       10.811350   -7.648795    0.448808
     91          1           0       10.139416   -6.037110    0.779907
     92          1           0        9.025087   -6.975287    2.856748
     93          1           0        9.785094   -8.543072    2.514785
     94          1           0       12.069304   -5.584067    4.031822
     95          1           0       11.127757   -5.047742    2.620861
     96          1           0       10.291589   -5.477289    4.136524
     97          1           0        4.203638   -2.191194   -0.125220
     98          1           0        1.860500   -1.629452    0.313460
     99          1           0       -7.908701    1.547972    1.655373
    100          1           0       -7.706750   -0.067227    2.333017
    101          1           0       -7.285340    1.354110    3.288712
    102          1           0       -2.531256    2.921451    2.544393
    103          1           0       -1.090404    1.388985    0.316244
    104          1           0        1.066791    2.105232   -0.242502
    105          1           0        3.074170    3.466970    0.099543
    106          1           0        5.369874    5.288551    2.371629
    107          1           0        4.778936    4.014545    1.291086
    108          1           0        4.711835    7.022654    0.700883
    109          1           0        6.022222    5.933335    0.194712
    110          1           0        5.584679    6.488317   -1.995990
    111          1           0        4.212020    5.669419   -2.759360
    112          1           0        3.848578    7.987586   -3.103852
    113          1           0        2.661464    7.420592   -1.907176
    114          1           0        6.168443    8.643419   -1.238425
    115          1           0        5.339517    9.606225   -2.482131
    116          1           0        4.548320   11.193148   -0.697406
    117          1           0        5.323404   10.179402    0.537914
    118          1           0        5.879576   12.789120   -1.761928
    119          1           0        7.652158   12.601744   -1.691759
    120          1           0        6.683931   11.506482   -2.705172
    121          1           0        1.228838    5.308816    3.519389
    122          1           0       -0.799930    3.967897    3.161059
 ---------------------------------------------------------------------
 Rotational constants (GHZ):           0.0219497           0.0122231           0.0083507
 Leave Link  202 at Thu Oct 30 16:31:56 2025, MaxMem= 30870077440 cpu:               0.2 elap:               0.0
 (Enter /public/software/gauss/g16/l301.exe)
 Standard basis: def2TZVPP (5D, 7F)
 Ernie: Thresh=  0.10000D-02 Tol=  0.10000D-05 Strict=F.
 There are  3195 symmetry adapted cartesian basis functions of A   symmetry.
 There are  2813 symmetry adapted basis functions of A   symmetry.
  2813 basis functions,  4284 primitive gaussians,  3195 cartesian basis functions
   238 alpha electrons      237 beta electrons
       nuclear repulsion energy      8542.2859038727 Hartrees.
 IExCor= 4336 DFT=T Ex+Corr=M062X ExCW=0 ScaHFX=  0.540000
 ScaDFX=  1.000000  1.000000  1.000000  1.000000 ScalE2=  1.000000  1.000000
 IRadAn=      5 IRanWt=     -1 IRanGd=            0 ICorTp=0 IEmpDi=131
 NAtoms=  122 NActive=  122 NUniq=  122 SFac= 1.00D+00 NAtFMM=   60 NAOKFM=T Big=T
 Integral buffers will be    131072 words long.
 Raffenetti 2 integral format.
 Two-electron integral symmetry is turned on.
 R6Disp:  Grimme-D3 Dispersion energy=       -0.0097721322 Hartrees.
 Nuclear repulsion after empirical dispersion term =     8542.2761317405 Hartrees.
 ------------------------------------------------------------------------------
 Polarizable Continuum Model (PCM)
 =================================
 Model                : PCM.
 Atomic radii         : UFF (Universal Force Field).
 Polarization charges : Total charges.
 Charge compensation  : None.
 Solution method      : On-the-fly selection.
 Cavity type          : Scaled VdW (van der Waals Surface) (Alpha=1.100).
 Cavity algorithm     : GePol (No added spheres)
                        Default sphere list used, NSphG=  122.
                        Lebedev-Laikov grids with approx.  5.0 points / Ang**2.
                        Smoothing algorithm: York/Karplus (Gamma=1.0000).
                        Polarization charges: spherical gaussians, with
                                              point-specific exponents (IZeta= 3).
                        Self-potential: point-specific (ISelfS= 7).
                        Self-field    : sphere-specific E.n sum rule (ISelfD= 2).
 Solvent              : Water, Eps=  78.355300 Eps(inf)=   1.777849
 ------------------------------------------------------------------------------
 GePol: Number of generator spheres                  =     122
 GePol: Total number of spheres                      =     122
 GePol: Number of exposed spheres                    =     122 (100.00%)
 GePol: Number of points                             =    8459
 GePol: Average weight of points                     =       0.13
 GePol: Minimum weight of points                     =   0.12D-11
 GePol: Maximum weight of points                     =    0.20577
 GePol: Number of points with low weight             =     580
 GePol: Fraction of low-weight points (<1% of avg)   =       6.86%
 GePol: Cavity surface area                          =   1082.175 Ang**2
 GePol: Cavity volume                                =   1230.574 Ang**3
 Leave Link  301 at Thu Oct 30 16:31:56 2025, MaxMem= 30870077440 cpu:               5.3 elap:               0.1
 (Enter /public/software/gauss/g16/l302.exe)
 NPDir=0 NMtPBC=     1 NCelOv=     1 NCel=       1 NClECP=     1 NCelD=      1
         NCelK=      1 NCelE2=     1 NClLst=     1 CellRange=     0.0.
 One-electron integrals computed using PRISM.
 One-electron integral symmetry used in STVInt
   1 Symmetry operations used in ECPInt.
 ECPInt:  NShTT=  559153 NPrTT= 1544247 LenC2=  236543 LenP2D=  435686.
 LDataN:  DoStor=T MaxTD1= 6 Len=  172
 Number of processors reduced to  59 by ecpmxn.
 NBasis=  2813 RedAO= T EigKep=  5.85D-06  NBF=  2813
 NBsUse=  2813 1.00D-06 EigRej= -1.00D+00 NBFU=  2813
 Precomputing XC quadrature grid using
 IXCGrd= 4 IRadAn=           5 IRanWt=          -1 IRanGd=           0 AccXCQ= 0.00D+00.
 Generated NRdTot=       0 NPtTot=           0 NUsed=           0 NTot=          32
 NSgBfM=  2369  2369  2369  2369  2369 MxSgAt=   122 MxSgA2=   122.
 Leave Link  302 at Thu Oct 30 16:32:24 2025, MaxMem= 30870077440 cpu:            1762.3 elap:              27.6
 (Enter /public/software/gauss/g16/l303.exe)
 DipDrv:  MaxL=1.
 Leave Link  303 at Thu Oct 30 16:32:25 2025, MaxMem= 30870077440 cpu:              54.5 elap:               0.9
 (Enter /public/software/gauss/g16/l401.exe)
 ExpMin= 6.06D-02 ExpMax= 3.55D+04 ExpMxC= 1.21D+03 IAcc=3 IRadAn=         5 AccDes= 0.00D+00
 Harris functional with IExCor= 1009 and IRadAn=       5 diagonalized for initial guess.
 HarFok:  IExCor= 1009 AccDes= 0.00D+00 IRadAn=         5 IDoV= 1 UseB2=F ITyADJ=14
 ICtDFT=  3500011 ScaDFX=  1.000000  1.000000  1.000000  1.000000
 FoFCou: FMM=F IPFlag=           0 FMFlag=      100000 FMFlg1=        2001
         NFxFlg=           0 DoJE=T BraDBF=F KetDBF=T FulRan=T
         wScrn=  0.000000 ICntrl=       500 IOpCl=  0 I1Cent=   200000004 NGrid=           0
         NMat0=    1 NMatS0=      1 NMatT0=    0 NMatD0=    1 NMtDS0=    0 NMtDT0=    0
 Petite list used in FoFCou.
 Harris En= -3024.64138759578    
 JPrj=0 DoOrth=F DoCkMO=F.
 Initial guess <Sx>= 0.0000 <Sy>= 0.0000 <Sz>= 0.5000 <S**2>= 0.7500 S= 0.5000
 Leave Link  401 at Thu Oct 30 16:32:47 2025, MaxMem= 30870077440 cpu:            1439.6 elap:              22.6
 (Enter /public/software/gauss/g16/l502.exe)
 Integral symmetry usage will be decided dynamically.
 UHF open shell SCF:
 Using DIIS extrapolation, IDIIS=  1040.
 NGot= 30870077440 LenX= 30849429916 LenY= 30839218696
 Requested convergence on RMS density matrix=1.00D-08 within 128 cycles.
 Requested convergence on MAX density matrix=1.00D-06.
 Requested convergence on             energy=1.00D-06.
 No special actions if energy rises.
 Fock matrices will be formed incrementally for  20 cycles.

 Cycle   1  Pass 1  IDiag  1:
 FoFJK:  IHMeth= 1 ICntrl=       0 DoSepK=F KAlg= 0 I1Cent=           0 FoldK=F
 IRaf= 380000000 NMat=       1 IRICut=       1 DoRegI=T DoRafI=F ISym2E= 0 IDoP0=0 IntGTp=1.
 FoFCou: FMM=T IPFlag=           0 FMFlag=      100000 FMFlg1=        2001
         NFxFlg=           0 DoJE=F BraDBF=F KetDBF=F FulRan=T
         wScrn=  0.000000 ICntrl=         0 IOpCl=  1 I1Cent=           0 NGrid=           0
         NMat0=    1 NMatS0=      1 NMatT0=    0 NMatD0=    1 NMtDS0=    0 NMtDT0=    0
 Symmetry not used in FoFCou.
 FMM levels:  10  Number of levels for PrismC:   9
 Inv3:  Mode=1 IEnd=   214664043.
 Iteration    1 A*A^-1 deviation from unit magnitude is 2.10D-14 for   1463.
 Iteration    1 A*A^-1 deviation from orthogonality  is 7.37D-15 for   7992    644.
 Iteration    1 A^-1*A deviation from unit magnitude is 2.10D-14 for   1463.
 Iteration    1 A^-1*A deviation from orthogonality  is 3.23D-13 for   1694   1679.
 E= -3024.65943928696    
 DIIS: error= 1.66D-02 at cycle   1 NSaved=   1.
 NSaved= 1 IEnMin= 1 EnMin= -3024.65943928696     IErMin= 1 ErrMin= 1.66D-02
 ErrMax= 1.66D-02  0.00D+00 EMaxC= 1.00D-01 BMatC= 7.52D+00 BMatP= 7.52D+00
 IDIUse=3 WtCom= 8.34D-01 WtEn= 1.66D-01
 Coeff-Com:  0.100D+01
 Coeff-En:   0.100D+01
 Coeff:      0.100D+01
 Gap=     0.124 Goal=   None    Shift=    0.000
 Gap=     0.121 Goal=   None    Shift=    0.000
 GapD=    0.121 DampG=1.000 DampE=0.500 DampFc=0.5000 IDamp=-1.
 Damping current iteration by 5.00D-01
 RMSDP=1.55D-03 MaxDP=5.44D-01              OVMax= 1.73D-01

 Cycle   2  Pass 1  IDiag  1:
 RMSU=  7.76D-04    CP:  1.01D+00
 E= -3025.41147009270     Delta-E=       -0.752030805737 Rises=F Damp=T
 DIIS: error= 5.16D-03 at cycle   2 NSaved=   2.
 NSaved= 2 IEnMin= 2 EnMin= -3025.41147009270     IErMin= 2 ErrMin= 5.16D-03
 ErrMax= 5.16D-03  0.00D+00 EMaxC= 1.00D-01 BMatC= 7.57D-01 BMatP= 7.52D+00
 IDIUse=3 WtCom= 9.48D-01 WtEn= 5.16D-02
 Coeff-Com: -0.177D+00 0.118D+01
 Coeff-En:   0.000D+00 0.100D+01
 Coeff:     -0.168D+00 0.117D+01
 Gap=     0.122 Goal=   None    Shift=    0.000
 Gap=     0.135 Goal=   None    Shift=    0.000
 RMSDP=4.67D-04 MaxDP=1.18D-01 DE=-7.52D-01 OVMax= 1.28D-01

 Cycle   3  Pass 1  IDiag  1:
 RMSU=  4.64D-04    CP:  9.93D-01  1.03D+00
 E= -3026.04966123064     Delta-E=       -0.638191137943 Rises=F Damp=F
 DIIS: error= 4.40D-03 at cycle   3 NSaved=   3.
 NSaved= 3 IEnMin= 3 EnMin= -3026.04966123064     IErMin= 3 ErrMin= 4.40D-03
 ErrMax= 4.40D-03  0.00D+00 EMaxC= 1.00D-01 BMatC= 3.23D-01 BMatP= 7.57D-01
 IDIUse=3 WtCom= 9.56D-01 WtEn= 4.40D-02
 Coeff-Com: -0.143D+00 0.510D+00 0.633D+00
 Coeff-En:   0.000D+00 0.000D+00 0.100D+01
 Coeff:     -0.137D+00 0.488D+00 0.649D+00
 Gap=     0.136 Goal=   None    Shift=    0.000
 Gap=     0.131 Goal=   None    Shift=    0.000
 RMSDP=1.87D-04 MaxDP=7.07D-02 DE=-6.38D-01 OVMax= 6.23D-02

 Cycle   4  Pass 1  IDiag  1:
 RMSU=  1.58D-04    CP:  9.96D-01  1.13D+00  8.62D-01
 E= -3026.09860622557     Delta-E=       -0.048944994931 Rises=F Damp=F
 DIIS: error= 2.21D-03 at cycle   4 NSaved=   4.
 NSaved= 4 IEnMin= 4 EnMin= -3026.09860622557     IErMin= 4 ErrMin= 2.21D-03
 ErrMax= 2.21D-03  0.00D+00 EMaxC= 1.00D-01 BMatC= 7.30D-02 BMatP= 3.23D-01
 IDIUse=3 WtCom= 9.78D-01 WtEn= 2.21D-02
 Coeff-Com: -0.478D-01 0.117D+00 0.360D+00 0.571D+00
 Coeff-En:   0.000D+00 0.000D+00 0.181D+00 0.819D+00
 Coeff:     -0.468D-01 0.114D+00 0.356D+00 0.577D+00
 Gap=     0.132 Goal=   None    Shift=    0.000
 Gap=     0.134 Goal=   None    Shift=    0.000
 RMSDP=7.82D-05 MaxDP=3.23D-02 DE=-4.89D-02 OVMax= 2.69D-02

 Cycle   5  Pass 1  IDiag  1:
 RMSU=  4.24D-05    CP:  9.94D-01  1.10D+00  9.19D-01  6.53D-01
 E= -3026.11312920748     Delta-E=       -0.014522981906 Rises=F Damp=F
 DIIS: error= 2.94D-04 at cycle   5 NSaved=   5.
 NSaved= 5 IEnMin= 5 EnMin= -3026.11312920748     IErMin= 5 ErrMin= 2.94D-04
 ErrMax= 2.94D-04  0.00D+00 EMaxC= 1.00D-01 BMatC= 2.27D-03 BMatP= 7.30D-02
 IDIUse=3 WtCom= 9.97D-01 WtEn= 2.94D-03
 Coeff-Com: -0.134D-01 0.266D-01 0.125D+00 0.251D+00 0.611D+00
 Coeff-En:   0.000D+00 0.000D+00 0.000D+00 0.000D+00 0.100D+01
 Coeff:     -0.133D-01 0.265D-01 0.125D+00 0.250D+00 0.612D+00
 Gap=     0.132 Goal=   None    Shift=    0.000
 Gap=     0.135 Goal=   None    Shift=    0.000
 RMSDP=2.20D-05 MaxDP=1.13D-02 DE=-1.45D-02 OVMax= 7.43D-03

 Cycle   6  Pass 1  IDiag  1:
 RMSU=  1.83D-05    CP:  9.95D-01  1.11D+00  9.13D-01  6.86D-01  1.02D+00
 E= -3026.11363669144     Delta-E=       -0.000507483963 Rises=F Damp=F
 DIIS: error= 1.28D-04 at cycle   6 NSaved=   6.
 NSaved= 6 IEnMin= 6 EnMin= -3026.11363669144     IErMin= 6 ErrMin= 1.28D-04
 ErrMax= 1.28D-04  0.00D+00 EMaxC= 1.00D-01 BMatC= 3.18D-04 BMatP= 2.27D-03
 IDIUse=3 WtCom= 9.99D-01 WtEn= 1.28D-03
 Coeff-Com: -0.161D-03-0.198D-02 0.131D-01 0.427D-01 0.276D+00 0.670D+00
 Coeff-En:   0.000D+00 0.000D+00 0.000D+00 0.000D+00 0.000D+00 0.100D+01
 Coeff:     -0.161D-03-0.198D-02 0.131D-01 0.427D-01 0.276D+00 0.671D+00
 Gap=     0.133 Goal=   None    Shift=    0.000
 Gap=     0.137 Goal=   None    Shift=    0.000
 RMSDP=9.26D-06 MaxDP=2.88D-03 DE=-5.07D-04 OVMax= 5.18D-03

 Cycle   7  Pass 1  IDiag  1:
 RMSU=  6.30D-06    CP:  9.95D-01  1.11D+00  9.16D-01  6.93D-01  1.16D+00
                    CP:  1.12D+00
 E= -3026.11376095245     Delta-E=       -0.000124261009 Rises=F Damp=F
 DIIS: error= 4.61D-05 at cycle   7 NSaved=   7.
 NSaved= 7 IEnMin= 7 EnMin= -3026.11376095245     IErMin= 7 ErrMin= 4.61D-05
 ErrMax= 4.61D-05  0.00D+00 EMaxC= 1.00D-01 BMatC= 5.62D-05 BMatP= 3.18D-04
 IDIUse=1 WtCom= 1.00D+00 WtEn= 0.00D+00
 Coeff-Com:  0.267D-02-0.599D-02-0.212D-01-0.388D-01-0.350D-01 0.207D+00
 Coeff-Com:  0.892D+00
 Coeff:      0.267D-02-0.599D-02-0.212D-01-0.388D-01-0.350D-01 0.207D+00
 Coeff:      0.892D+00
 Gap=     0.134 Goal=   None    Shift=    0.000
 Gap=     0.138 Goal=   None    Shift=    0.000
 RMSDP=9.03D-06 MaxDP=5.15D-03 DE=-1.24D-04 OVMax= 4.41D-03

 Cycle   8  Pass 1  IDiag  1:
 RMSU=  3.61D-06    CP:  9.95D-01  1.11D+00  9.19D-01  7.05D-01  1.28D+00
                    CP:  1.39D+00  1.56D+00
 E= -3026.11381275113     Delta-E=       -0.000051798681 Rises=F Damp=F
 DIIS: error= 2.82D-05 at cycle   8 NSaved=   8.
 NSaved= 8 IEnMin= 8 EnMin= -3026.11381275113     IErMin= 8 ErrMin= 2.82D-05
 ErrMax= 2.82D-05  0.00D+00 EMaxC= 1.00D-01 BMatC= 2.06D-05 BMatP= 5.62D-05
 IDIUse=1 WtCom= 1.00D+00 WtEn= 0.00D+00
 Coeff-Com:  0.127D-02-0.217D-02-0.133D-01-0.310D-01-0.985D-01-0.113D+00
 Coeff-Com:  0.405D+00 0.852D+00
 Coeff:      0.127D-02-0.217D-02-0.133D-01-0.310D-01-0.985D-01-0.113D+00
 Coeff:      0.405D+00 0.852D+00
 Gap=     0.134 Goal=   None    Shift=    0.000
 Gap=     0.139 Goal=   None    Shift=    0.000
 RMSDP=5.62D-06 MaxDP=2.90D-03 DE=-5.18D-05 OVMax= 3.31D-03

 Cycle   9  Pass 1  IDiag  1:
 RMSU=  1.76D-06    CP:  9.95D-01  1.11D+00  9.19D-01  7.11D-01  1.35D+00
                    CP:  1.54D+00  2.09D+00  1.31D+00
 E= -3026.11383296523     Delta-E=       -0.000020214102 Rises=F Damp=F
 DIIS: error= 1.24D-05 at cycle   9 NSaved=   9.
 NSaved= 9 IEnMin= 9 EnMin= -3026.11383296523     IErMin= 9 ErrMin= 1.24D-05
 ErrMax= 1.24D-05  0.00D+00 EMaxC= 1.00D-01 BMatC= 4.60D-06 BMatP= 2.06D-05
 IDIUse=1 WtCom= 1.00D+00 WtEn= 0.00D+00
 Coeff-Com: -0.394D-03 0.108D-02 0.185D-02 0.893D-03-0.250D-01-0.980D-01
 Coeff-Com: -0.128D+00 0.298D+00 0.950D+00
 Coeff:     -0.394D-03 0.108D-02 0.185D-02 0.893D-03-0.250D-01-0.980D-01
 Coeff:     -0.128D+00 0.298D+00 0.950D+00
 Gap=     0.135 Goal=   None    Shift=    0.000
 Gap=     0.139 Goal=   None    Shift=    0.000
 RMSDP=3.35D-06 MaxDP=1.94D-03 DE=-2.02D-05 OVMax= 2.06D-03

 Cycle  10  Pass 1  IDiag  1:
 RMSU=  8.69D-07    CP:  9.95D-01  1.11D+00  9.20D-01  7.15D-01  1.38D+00
                    CP:  1.63D+00  2.39D+00  1.69D+00  1.44D+00
 E= -3026.11383809947     Delta-E=       -0.000005134239 Rises=F Damp=F
 DIIS: error= 8.11D-06 at cycle  10 NSaved=  10.
 NSaved=10 IEnMin=10 EnMin= -3026.11383809947     IErMin=10 ErrMin= 8.11D-06
 ErrMax= 8.11D-06  0.00D+00 EMaxC= 1.00D-01 BMatC= 1.27D-06 BMatP= 4.60D-06
 IDIUse=1 WtCom= 1.00D+00 WtEn= 0.00D+00
 Coeff-Com: -0.465D-03 0.101D-02 0.370D-02 0.727D-02 0.898D-02-0.185D-01
 Coeff-Com: -0.145D+00-0.411D-01 0.439D+00 0.745D+00
 Coeff:     -0.465D-03 0.101D-02 0.370D-02 0.727D-02 0.898D-02-0.185D-01
 Coeff:     -0.145D+00-0.411D-01 0.439D+00 0.745D+00
 Gap=     0.135 Goal=   None    Shift=    0.000
 Gap=     0.139 Goal=   None    Shift=    0.000
 RMSDP=1.18D-06 MaxDP=5.27D-04 DE=-5.13D-06 OVMax= 7.75D-04

 Cycle  11  Pass 1  IDiag  1:
 RMSU=  4.35D-07    CP:  9.95D-01  1.11D+00  9.20D-01  7.16D-01  1.38D+00
                    CP:  1.64D+00  2.50D+00  1.82D+00  1.72D+00  1.31D+00
 E= -3026.11383907825     Delta-E=       -0.000000978778 Rises=F Damp=F
 DIIS: error= 3.88D-06 at cycle  11 NSaved=  11.
 NSaved=11 IEnMin=11 EnMin= -3026.11383907825     IErMin=11 ErrMin= 3.88D-06
 ErrMax= 3.88D-06  0.00D+00 EMaxC= 1.00D-01 BMatC= 2.28D-07 BMatP= 1.27D-06
 IDIUse=1 WtCom= 1.00D+00 WtEn= 0.00D+00
 Coeff-Com: -0.809D-04 0.138D-03 0.906D-03 0.244D-02 0.749D-02 0.122D-01
 Coeff-Com: -0.270D-01-0.685D-01-0.340D-01 0.243D+00 0.863D+00
 Coeff:     -0.809D-04 0.138D-03 0.906D-03 0.244D-02 0.749D-02 0.122D-01
 Coeff:     -0.270D-01-0.685D-01-0.340D-01 0.243D+00 0.863D+00
 Gap=     0.135 Goal=   None    Shift=    0.000
 Gap=     0.139 Goal=   None    Shift=    0.000
 RMSDP=5.59D-07 MaxDP=2.64D-04 DE=-9.79D-07 OVMax= 4.67D-04

 Cycle  12  Pass 1  IDiag  1:
 RMSU=  2.23D-07    CP:  9.95D-01  1.11D+00  9.20D-01  7.16D-01  1.38D+00
                    CP:  1.64D+00  2.54D+00  1.86D+00  1.87D+00  1.62D+00
                    CP:  1.44D+00
 E= -3026.11383939964     Delta-E=       -0.000000321394 Rises=F Damp=F
 DIIS: error= 2.24D-06 at cycle  12 NSaved=  12.
 NSaved=12 IEnMin=12 EnMin= -3026.11383939964     IErMin=12 ErrMin= 2.24D-06
 ErrMax= 2.24D-06  0.00D+00 EMaxC= 1.00D-01 BMatC= 8.39D-08 BMatP= 2.28D-07
 IDIUse=1 WtCom= 1.00D+00 WtEn= 0.00D+00
 Coeff-Com:  0.965D-04-0.219D-03-0.697D-03-0.119D-02-0.247D-03 0.765D-02
 Coeff-Com:  0.271D-01-0.649D-02-0.125D+00-0.124D+00 0.313D+00 0.910D+00
 Coeff:      0.965D-04-0.219D-03-0.697D-03-0.119D-02-0.247D-03 0.765D-02
 Coeff:      0.271D-01-0.649D-02-0.125D+00-0.124D+00 0.313D+00 0.910D+00
 Gap=     0.135 Goal=   None    Shift=    0.000
 Gap=     0.139 Goal=   None    Shift=    0.000
 RMSDP=3.88D-07 MaxDP=1.71D-04 DE=-3.21D-07 OVMax= 3.89D-04

 Cycle  13  Pass 1  IDiag  1:
 RMSU=  1.26D-07    CP:  9.95D-01  1.11D+00  9.20D-01  7.16D-01  1.38D+00
                    CP:  1.65D+00  2.56D+00  1.88D+00  1.95D+00  1.84D+00
                    CP:  1.92D+00  1.46D+00
 E= -3026.11383954815     Delta-E=       -0.000000148508 Rises=F Damp=F
 DIIS: error= 1.49D-06 at cycle  13 NSaved=  13.
 NSaved=13 IEnMin=13 EnMin= -3026.11383954815     IErMin=13 ErrMin= 1.49D-06
 ErrMax= 1.49D-06  0.00D+00 EMaxC= 1.00D-01 BMatC= 3.02D-08 BMatP= 8.39D-08
 IDIUse=1 WtCom= 1.00D+00 WtEn= 0.00D+00
 Coeff-Com:  0.672D-04-0.136D-03-0.590D-03-0.136D-02-0.255D-02-0.116D-02
 Coeff-Com:  0.198D-01 0.226D-01-0.401D-01-0.139D+00-0.173D+00 0.348D+00
 Coeff-Com:  0.968D+00
 Coeff:      0.672D-04-0.136D-03-0.590D-03-0.136D-02-0.255D-02-0.116D-02
 Coeff:      0.198D-01 0.226D-01-0.401D-01-0.139D+00-0.173D+00 0.348D+00
 Coeff:      0.968D+00
 Gap=     0.135 Goal=   None    Shift=    0.000
 Gap=     0.139 Goal=   None    Shift=    0.000
 RMSDP=2.72D-07 MaxDP=1.15D-04 DE=-1.49D-07 OVMax= 2.93D-04

 Cycle  14  Pass 1  IDiag  1:
 RMSU=  6.39D-08    CP:  9.95D-01  1.11D+00  9.20D-01  7.16D-01  1.38D+00
                    CP:  1.65D+00  2.57D+00  1.90D+00  2.00D+00  1.99D+00
                    CP:  2.22D+00  1.99D+00  1.65D+00
 E= -3026.11383961424     Delta-E=       -0.000000066086 Rises=F Damp=F
 DIIS: error= 8.96D-07 at cycle  14 NSaved=  14.
 NSaved=14 IEnMin=14 EnMin= -3026.11383961424     IErMin=14 ErrMin= 8.96D-07
 ErrMax= 8.96D-07  0.00D+00 EMaxC= 1.00D-01 BMatC= 9.93D-09 BMatP= 3.02D-08
 IDIUse=1 WtCom= 1.00D+00 WtEn= 0.00D+00
 Coeff-Com: -0.139D-04 0.359D-04 0.665D-04-0.582D-04-0.820D-03-0.363D-02
 Coeff-Com: -0.393D-02 0.109D-01 0.352D-01-0.442D-02-0.186D+00-0.229D+00
 Coeff-Com:  0.364D+00 0.102D+01
 Coeff:     -0.139D-04 0.359D-04 0.665D-04-0.582D-04-0.820D-03-0.363D-02
 Coeff:     -0.393D-02 0.109D-01 0.352D-01-0.442D-02-0.186D+00-0.229D+00
 Coeff:      0.364D+00 0.102D+01
 Gap=     0.135 Goal=   None    Shift=    0.000
 Gap=     0.139 Goal=   None    Shift=    0.000
 RMSDP=1.83D-07 MaxDP=7.73D-05 DE=-6.61D-08 OVMax= 1.80D-04

 Cycle  15  Pass 1  IDiag  1:
 RMSU=  3.91D-08    CP:  9.95D-01  1.11D+00  9.20D-01  7.16D-01  1.39D+00
                    CP:  1.65D+00  2.57D+00  1.91D+00  2.03D+00  2.06D+00
                    CP:  2.40D+00  2.34D+00  2.28D+00  1.64D+00
 E= -3026.11383963433     Delta-E=       -0.000000020093 Rises=F Damp=F
 DIIS: error= 3.93D-07 at cycle  15 NSaved=  15.
 NSaved=15 IEnMin=15 EnMin= -3026.11383963433     IErMin=15 ErrMin= 3.93D-07
 ErrMax= 3.93D-07  0.00D+00 EMaxC= 1.00D-01 BMatC= 2.24D-09 BMatP= 9.93D-09
 IDIUse=1 WtCom= 1.00D+00 WtEn= 0.00D+00
 Coeff-Com: -0.217D-04 0.467D-04 0.181D-03 0.340D-03 0.424D-03-0.769D-03
 Coeff-Com: -0.675D-02-0.379D-02 0.222D-01 0.402D-01-0.411D-02-0.169D+00
 Coeff-Com: -0.159D+00 0.344D+00 0.936D+00
 Coeff:     -0.217D-04 0.467D-04 0.181D-03 0.340D-03 0.424D-03-0.769D-03
 Coeff:     -0.675D-02-0.379D-02 0.222D-01 0.402D-01-0.411D-02-0.169D+00
 Coeff:     -0.159D+00 0.344D+00 0.936D+00
 Gap=     0.135 Goal=   None    Shift=    0.000
 Gap=     0.139 Goal=   None    Shift=    0.000
 RMSDP=6.81D-08 MaxDP=3.15D-05 DE=-2.01D-08 OVMax= 5.30D-05

 Cycle  16  Pass 1  IDiag  1:
 RMSU=  1.94D-08    CP:  9.95D-01  1.11D+00  9.20D-01  7.16D-01  1.39D+00
                    CP:  1.65D+00  2.57D+00  1.91D+00  2.03D+00  2.08D+00
                    CP:  2.43D+00  2.45D+00  2.54D+00  2.11D+00  1.38D+00
 E= -3026.11383963718     Delta-E=       -0.000000002849 Rises=F Damp=F
 DIIS: error= 1.93D-07 at cycle  16 NSaved=  16.
 NSaved=16 IEnMin=16 EnMin= -3026.11383963718     IErMin=16 ErrMin= 1.93D-07
 ErrMax= 1.93D-07  0.00D+00 EMaxC= 1.00D-01 BMatC= 4.21D-10 BMatP= 2.24D-09
 IDIUse=1 WtCom= 1.00D+00 WtEn= 0.00D+00
 Coeff-Com: -0.376D-05 0.720D-05 0.449D-04 0.117D-03 0.282D-03 0.454D-03
 Coeff-Com: -0.125D-02-0.335D-02 0.107D-03 0.137D-01 0.326D-01-0.807D-02
 Coeff-Com: -0.119D+00-0.866D-01 0.283D+00 0.889D+00
 Coeff:     -0.376D-05 0.720D-05 0.449D-04 0.117D-03 0.282D-03 0.454D-03
 Coeff:     -0.125D-02-0.335D-02 0.107D-03 0.137D-01 0.326D-01-0.807D-02
 Coeff:     -0.119D+00-0.866D-01 0.283D+00 0.889D+00
 Gap=     0.135 Goal=   None    Shift=    0.000
 Gap=     0.139 Goal=   None    Shift=    0.000
 RMSDP=2.63D-08 MaxDP=1.25D-05 DE=-2.85D-09 OVMax= 1.93D-05

 Cycle  17  Pass 1  IDiag  1:
 RMSU=  9.49D-09    CP:  9.95D-01  1.11D+00  9.20D-01  7.16D-01  1.39D+00
                    CP:  1.65D+00  2.57D+00  1.91D+00  2.03D+00  2.08D+00
                    CP:  2.42D+00  2.47D+00  2.61D+00  2.26D+00  1.67D+00
                    CP:  1.56D+00
 E= -3026.11383963819     Delta-E=       -0.000000001011 Rises=F Damp=F
 DIIS: error= 9.22D-08 at cycle  17 NSaved=  17.
 NSaved=17 IEnMin=17 EnMin= -3026.11383963819     IErMin=17 ErrMin= 9.22D-08
 ErrMax= 9.22D-08  0.00D+00 EMaxC= 1.00D-01 BMatC= 1.14D-10 BMatP= 4.21D-10
 IDIUse=1 WtCom= 1.00D+00 WtEn= 0.00D+00
 Coeff-Com:  0.312D-05-0.686D-05-0.223D-04-0.313D-04-0.478D-05 0.259D-03
 Coeff-Com:  0.101D-02-0.240D-03-0.458D-02-0.406D-02 0.111D-01 0.363D-01
 Coeff-Com: -0.418D-03-0.101D+00-0.132D+00 0.288D+00 0.906D+00
 Coeff:      0.312D-05-0.686D-05-0.223D-04-0.313D-04-0.478D-05 0.259D-03
 Coeff:      0.101D-02-0.240D-03-0.458D-02-0.406D-02 0.111D-01 0.363D-01
 Coeff:     -0.418D-03-0.101D+00-0.132D+00 0.288D+00 0.906D+00
 Gap=     0.135 Goal=   None    Shift=    0.000
 Gap=     0.139 Goal=   None    Shift=    0.000
 RMSDP=1.55D-08 MaxDP=1.07D-05 DE=-1.01D-09 OVMax= 8.26D-06

 Cycle  18  Pass 1  IDiag  1:
 RMSU=  4.35D-09    CP:  9.95D-01  1.11D+00  9.20D-01  7.16D-01  1.39D+00
                    CP:  1.65D+00  2.57D+00  1.91D+00  2.03D+00  2.08D+00
                    CP:  2.41D+00  2.46D+00  2.62D+00  2.31D+00  1.81D+00
                    CP:  1.99D+00  1.45D+00
 E= -3026.11383963836     Delta-E=       -0.000000000166 Rises=F Damp=F
 DIIS: error= 5.39D-08 at cycle  18 NSaved=  18.
 NSaved=18 IEnMin=18 EnMin= -3026.11383963836     IErMin=18 ErrMin= 5.39D-08
 ErrMax= 5.39D-08  0.00D+00 EMaxC= 1.00D-01 BMatC= 3.42D-11 BMatP= 1.14D-10
 IDIUse=1 WtCom= 1.00D+00 WtEn= 0.00D+00
 Coeff-Com:  0.213D-05-0.452D-05-0.199D-04-0.387D-04-0.636D-04 0.117D-04
 Coeff-Com:  0.732D-03 0.681D-03-0.192D-02-0.479D-02-0.327D-02 0.164D-01
 Coeff-Com:  0.258D-01-0.205D-01-0.114D+00-0.823D-01 0.355D+00 0.828D+00
 Coeff:      0.213D-05-0.452D-05-0.199D-04-0.387D-04-0.636D-04 0.117D-04
 Coeff:      0.732D-03 0.681D-03-0.192D-02-0.479D-02-0.327D-02 0.164D-01
 Coeff:      0.258D-01-0.205D-01-0.114D+00-0.823D-01 0.355D+00 0.828D+00
 Gap=     0.135 Goal=   None    Shift=    0.000
 Gap=     0.139 Goal=   None    Shift=    0.000
 RMSDP=8.94D-09 MaxDP=5.29D-06 DE=-1.66D-10 OVMax= 5.21D-06

 Cycle  19  Pass 1  IDiag  1:
 RMSU=  2.05D-09    CP:  9.95D-01  1.11D+00  9.20D-01  7.16D-01  1.39D+00
                    CP:  1.65D+00  2.57D+00  1.91D+00  2.03D+00  2.08D+00
                    CP:  2.41D+00  2.46D+00  2.63D+00  2.33D+00  1.87D+00
                    CP:  2.20D+00  1.86D+00  1.48D+00
 E= -3026.11383963807     Delta-E=        0.000000000286 Rises=F Damp=F
 DIIS: error= 3.09D-08 at cycle  19 NSaved=  19.
 NSaved=19 IEnMin=18 EnMin= -3026.11383963836     IErMin=19 ErrMin= 3.09D-08
 ErrMax= 3.09D-08  0.00D+00 EMaxC= 1.00D-01 BMatC= 1.04D-11 BMatP= 3.42D-11
 IDIUse=1 WtCom= 1.00D+00 WtEn= 0.00D+00
 Coeff-Com: -0.547D-06 0.119D-05 0.146D-05 0.723D-07-0.205D-04-0.930D-04
 Coeff-Com: -0.140D-03 0.351D-03 0.101D-02-0.160D-03-0.502D-02-0.739D-02
 Coeff-Com:  0.926D-02 0.295D-01 0.901D-02-0.142D+00-0.202D+00 0.297D+00
 Coeff-Com:  0.101D+01
 Coeff:     -0.547D-06 0.119D-05 0.146D-05 0.723D-07-0.205D-04-0.930D-04
 Coeff:     -0.140D-03 0.351D-03 0.101D-02-0.160D-03-0.502D-02-0.739D-02
 Coeff:      0.926D-02 0.295D-01 0.901D-02-0.142D+00-0.202D+00 0.297D+00
 Coeff:      0.101D+01
 Gap=     0.135 Goal=   None    Shift=    0.000
 Gap=     0.139 Goal=   None    Shift=    0.000
 RMSDP=6.41D-09 MaxDP=3.94D-06 DE= 2.86D-10 OVMax= 4.55D-06

 Cycle  20  Pass 1  IDiag  1:
 RMSU=  1.26D-09    CP:  9.95D-01  1.11D+00  9.20D-01  7.16D-01  1.39D+00
                    CP:  1.65D+00  2.57D+00  1.91D+00  2.03D+00  2.08D+00
                    CP:  2.40D+00  2.46D+00  2.63D+00  2.34D+00  1.92D+00
                    CP:  2.34D+00  2.16D+00  2.04D+00  1.60D+00
 E= -3026.11383963824     Delta-E=       -0.000000000167 Rises=F Damp=F
 DIIS: error= 1.45D-08 at cycle  20 NSaved=  20.
 NSaved=20 IEnMin=18 EnMin= -3026.11383963836     IErMin=20 ErrMin= 1.45D-08
 ErrMax= 1.45D-08  0.00D+00 EMaxC= 1.00D-01 BMatC= 2.53D-12 BMatP= 1.04D-11
 IDIUse=1 WtCom= 1.00D+00 WtEn= 0.00D+00
 Coeff-Com: -0.562D-06 0.122D-05 0.386D-05 0.702D-05 0.412D-05-0.276D-04
 Coeff-Com: -0.187D-03-0.201D-04 0.685D-03 0.875D-03-0.802D-03-0.577D-02
 Coeff-Com: -0.249D-02 0.131D-01 0.282D-01-0.297D-01-0.141D+00-0.970D-01
 Coeff-Com:  0.341D+00 0.892D+00
 Coeff:     -0.562D-06 0.122D-05 0.386D-05 0.702D-05 0.412D-05-0.276D-04
 Coeff:     -0.187D-03-0.201D-04 0.685D-03 0.875D-03-0.802D-03-0.577D-02
 Coeff:     -0.249D-02 0.131D-01 0.282D-01-0.297D-01-0.141D+00-0.970D-01
 Coeff:      0.341D+00 0.892D+00
 Gap=     0.135 Goal=   None    Shift=    0.000
 Gap=     0.139 Goal=   None    Shift=    0.000
 RMSDP=2.68D-09 MaxDP=1.40D-06 DE=-1.67D-10 OVMax= 2.48D-06

 Cycle  21  Pass 1  IDiag  1:
 Restarting incremental Fock formation.
 E= -3026.11383963805     Delta-E=        0.000000000193 Rises=F Damp=F
 DIIS: error= 5.85D-09 at cycle  21 NSaved=  20.
 NSaved=20 IEnMin=17 EnMin= -3026.11383963836     IErMin=20 ErrMin= 5.85D-09
 ErrMax= 5.85D-09  0.00D+00 EMaxC= 1.00D-01 BMatC= 7.81D-13 BMatP= 2.53D-12
 IDIUse=1 WtCom= 1.00D+00 WtEn= 0.00D+00
 Coeff-Com:  0.926D-08 0.710D-06 0.189D-05 0.663D-05 0.184D-04-0.194D-04
 Coeff-Com: -0.104D-03-0.659D-04 0.325D-03 0.118D-02 0.103D-03-0.369D-02
 Coeff-Com: -0.410D-02 0.767D-02 0.309D-01 0.110D-01-0.123D+00-0.180D+00
 Coeff-Com:  0.328D+00 0.932D+00
 Coeff:      0.926D-08 0.710D-06 0.189D-05 0.663D-05 0.184D-04-0.194D-04
 Coeff:     -0.104D-03-0.659D-04 0.325D-03 0.118D-02 0.103D-03-0.369D-02
 Coeff:     -0.410D-02 0.767D-02 0.309D-01 0.110D-01-0.123D+00-0.180D+00
 Coeff:      0.328D+00 0.932D+00
 Gap=     0.135 Goal=   None    Shift=    0.000
 Gap=     0.139 Goal=   None    Shift=    0.000
 RMSDP=2.53D-09 MaxDP=6.61D-07 DE= 1.93D-10 OVMax= 1.68D-06

 Error on total polarization charges =  0.03233
 SCF Done:  E(UM062X) =  -3026.11383964     A.U. after   21 cycles
            NFock= 21  Conv=0.25D-08     -V/T= 2.0054
 <Sx>= 0.0000 <Sy>= 0.0000 <Sz>= 0.5000 <S**2>= 0.7901 S= 0.5199
 <L.S>= 0.000000000000E+00
 KE= 3.009806776315D+03 PE=-2.418862648947D+04 EE= 9.610429741773D+03
 Annihilation of the first spin contaminant:
 S**2 before annihilation     0.7901,   after     0.7513
 Leave Link  502 at Thu Oct 30 17:32:22 2025, MaxMem= 30870077440 cpu:          225690.9 elap:            3574.8
 (Enter /public/software/gauss/g16/l601.exe)
 Copying SCF densities to generalized density rwf, IOpCl= 1 IROHF=0.
 Hyperfine terms turned off by default for NAtoms > 100.

 **********************************************************************

            Population analysis using the SCF density.

 **********************************************************************

 Orbital symmetries:
 Alpha Orbitals:
       Occupied  (A) (A) (A) (A) (A) (A) (A) (A) (A) (A) (A) (A)
                 (A) (A) (A) (A) (A) (A) (A) (A) (A) (A) (A) (A)
                 (A) (A) (A) (A) (A) (A) (A) (A) (A) (A) (A) (A)
                 (A) (A) (A) (A) (A) (A) (A) (A) (A) (A) (A) (A)
                 (A) (A) (A) (A) (A) (A) (A) (A) (A) (A) (A) (A)
                 (A) (A) (A) (A) (A) (A) (A) (A) (A) (A) (A) (A)
                 (A) (A) (A) (A) (A) (A) (A) (A) (A) (A) (A) (A)
                 (A) (A) (A) (A) (A) (A) (A) (A) (A) (A) (A) (A)
                 (A) (A) (A) (A) (A) (A) (A) (A) (A) (A) (A) (A)
                 (A) (A) (A) (A) (A) (A) (A) (A) (A) (A) (A) (A)
                 (A) (A) (A) (A) (A) (A) (A) (A) (A) (A) (A) (A)
                 (A) (A) (A) (A) (A) (A) (A) (A) (A) (A) (A) (A)
                 (A) (A) (A) (A) (A) (A) (A) (A) (A) (A) (A) (A)
                 (A) (A) (A) (A) (A) (A) (A) (A) (A) (A) (A) (A)
                 (A) (A) (A) (A) (A) (A) (A) (A) (A) (A) (A) (A)
                 (A) (A) (A) (A) (A) (A) (A) (A) (A) (A) (A) (A)
                 (A) (A) (A) (A) (A) (A) (A) (A) (A) (A) (A) (A)
                 (A) (A) (A) (A) (A) (A) (A) (A) (A) (A) (A) (A)
                 (A) (A) (A) (A) (A) (A) (A) (A) (A) (A) (A) (A)
                 (A) (A) (A) (A) (A) (A) (A) (A) (A) (A)
       Virtual   (A) (A) (A) (A) (A) (A) (A) (A) (A) (A) (A) (A)
                 (A) (A) (A) (A) (A) (A) (A) (A) (A) (A) (A) (A)
                 (A) (A) (A) (A) (A) (A) (A) (A) (A) (A) (A) (A)
                 (A) (A) (A) (A) (A) (A) (A) (A) (A) (A) (A) (A)
                 (A) (A) (A) (A) (A) (A) (A) (A) (A) (A) (A) (A)
                 (A) (A) (A) (A) (A) (A) (A) (A) (A) (A) (A) (A)
                 (A) (A) (A) (A) (A) (A) (A) (A) (A) (A) (A) (A)
                 (A) (A) (A) (A) (A) (A) (A) (A) (A) (A) (A) (A)
                 (A) (A) (A) (A) (A) (A) (A) (A) (A) (A) (A) (A)
                 (A) (A) (A) (A) (A) (A) (A) (A) (A) (A) (A) (A)
                 (A) (A) (A) (A) (A) (A) (A) (A) (A) (A) (A) (A)
                 (A) (A) (A) (A) (A) (A) (A) (A) (A) (A) (A) (A)
                 (A) (A) (A) (A) (A) (A) (A) (A) (A) (A) (A) (A)
                 (A) (A) (A) (A) (A) (A) (A) (A) (A) (A) (A) (A)
                 (A) (A) (A) (A) (A) (A) (A) (A) (A) (A) (A) (A)
                 (A) (A) (A) (A) (A) (A) (A) (A) (A) (A) (A) (A)
                 (A) (A) (A) (A) (A) (A) (A) (A) (A) (A) (A) (A)
                 (A) (A) (A) (A) (A) (A) (A) (A) (A) (A) (A) (A)
                 (A) (A) (A) (A) (A) (A) (A) (A) (A) (A) (A) (A)
                 (A) (A) (A) (A) (A) (A) (A) (A) (A) (A) (A) (A)
                 (A) (A) (A) (A) (A) (A) (A) (A) (A) (A) (A) (A)
                 (A) (A) (A) (A) (A) (A) (A) (A) (A) (A) (A) (A)
                 (A) (A) (A) (A) (A) (A) (A) (A) (A) (A) (A) (A)
                 (A) (A) (A) (A) (A) (A) (A) (A) (A) (A) (A) (A)
                 (A) (A) (A) (A) (A) (A) (A) (A) (A) (A) (A) (A)
                 (A) (A) (A) (A) (A) (A) (A) (A) (A) (A) (A) (A)
                 (A) (A) (A) (A) (A) (A) (A) (A) (A) (A) (A) (A)
                 (A) (A) (A) (A) (A) (A) (A) (A) (A) (A) (A) (A)
                 (A) (A) (A) (A) (A) (A) (A) (A) (A) (A) (A) (A)
                 (A) (A) (A) (A) (A) (A) (A) (A) (A) (A) (A) (A)
                 (A) (A) (A) (A) (A) (A) (A) (A) (A) (A) (A) (A)
                 (A) (A) (A) (A) (A) (A) (A) (A) (A) (A) (A) (A)
                 (A) (A) (A) (A) (A) (A) (A) (A) (A) (A) (A) (A)
                 (A) (A) (A) (A) (A) (A) (A) (A) (A) (A) (A) (A)
                 (A) (A) (A) (A) (A) (A) (A) (A) (A) (A) (A) (A)
                 (A) (A) (A) (A) (A) (A) (A) (A) (A) (A) (A) (A)
                 (A) (A) (A) (A) (A) (A) (A) (A) (A) (A) (A) (A)
                 (A) (A) (A) (A) (A) (A) (A) (A) (A) (A) (A) (A)
                 (A) (A) (A) (A) (A) (A) (A) (A) (A) (A) (A) (A)
                 (A) (A) (A) (A) (A) (A) (A) (A) (A) (A) (A) (A)
                 (A) (A) (A) (A) (A) (A) (A) (A) (A) (A) (A) (A)
                 (A) (A) (A) (A) (A) (A) (A) (A) (A) (A) (A) (A)
                 (A) (A) (A) (A) (A) (A) (A) (A) (A) (A) (A) (A)
                 (A) (A) (A) (A) (A) (A) (A) (A) (A) (A) (A) (A)
                 (A) (A) (A) (A) (A) (A) (A) (A) (A) (A) (A) (A)
                 (A) (A) (A) (A) (A) (A) (A) (A) (A) (A) (A) (A)
                 (A) (A) (A) (A) (A) (A) (A) (A) (A) (A) (A) (A)
                 (A) (A) (A) (A) (A) (A) (A) (A) (A) (A) (A) (A)
                 (A) (A) (A) (A) (A) (A) (A) (A) (A) (A) (A) (A)
                 (A) (A) (A) (A) (A) (A) (A) (A) (A) (A) (A) (A)
                 (A) (A) (A) (A) (A) (A) (A) (A) (A) (A) (A) (A)
                 (A) (A) (A) (A) (A) (A) (A) (A) (A) (A) (A) (A)
                 (A) (A) (A) (A) (A) (A) (A) (A) (A) (A) (A) (A)
                 (A) (A) (A) (A) (A) (A) (A) (A) (A) (A) (A) (A)
                 (A) (A) (A) (A) (A) (A) (A) (A) (A) (A) (A) (A)
                 (A) (A) (A) (A) (A) (A) (A) (A) (A) (A) (A) (A)
                 (A) (A) (A) (A) (A) (A) (A) (A) (A) (A) (A) (A)
                 (A) (A) (A) (A) (A) (A) (A) (A) (A) (A) (A) (A)
                 (A) (A) (A) (A) (A) (A) (A) (A) (A) (A) (A) (A)
                 (A) (A) (A) (A) (A) (A) (A) (A) (A) (A) (A) (A)
                 (A) (A) (A) (A) (A) (A) (A) (A) (A) (A) (A) (A)
                 (A) (A) (A) (A) (A) (A) (A) (A) (A) (A) (A) (A)
                 (A) (A) (A) (A) (A) (A) (A) (A) (A) (A) (A) (A)
                 (A) (A) (A) (A) (A) (A) (A) (A) (A) (A) (A) (A)
                 (A) (A) (A) (A) (A) (A) (A) (A) (A) (A) (A) (A)
                 (A) (A) (A) (A) (A) (A) (A) (A) (A) (A) (A) (A)
                 (A) (A) (A) (A) (A) (A) (A) (A) (A) (A) (A) (A)
                 (A) (A) (A) (A) (A) (A) (A) (A) (A) (A) (A) (A)
                 (A) (A) (A) (A) (A) (A) (A) (A) (A) (A) (A) (A)
                 (A) (A) (A) (A) (A) (A) (A) (A) (A) (A) (A) (A)
                 (A) (A) (A) (A) (A) (A) (A) (A) (A) (A) (A) (A)
                 (A) (A) (A) (A) (A) (A) (A) (A) (A) (A) (A) (A)
                 (A) (A) (A) (A) (A) (A) (A) (A) (A) (A) (A) (A)
                 (A) (A) (A) (A) (A) (A) (A) (A) (A) (A) (A) (A)
                 (A) (A) (A) (A) (A) (A) (A) (A) (A) (A) (A) (A)
                 (A) (A) (A) (A) (A) (A) (A) (A) (A) (A) (A) (A)
                 (A) (A) (A) (A) (A) (A) (A) (A) (A) (A) (A) (A)
                 (A) (A) (A) (A) (A) (A) (A) (A) (A) (A) (A) (A)
                 (A) (A) (A) (A) (A) (A) (A) (A) (A) (A) (A) (A)
                 (A) (A) (A) (A) (A) (A) (A) (A) (A) (A) (A) (A)
                 (A) (A) (A) (A) (A) (A) (A) (A) (A) (A) (A) (A)
                 (A) (A) (A) (A) (A) (A) (A) (A) (A) (A) (A) (A)
                 (A) (A) (A) (A) (A) (A) (A) (A) (A) (A) (A) (A)
                 (A) (A) (A) (A) (A) (A) (A) (A) (A) (A) (A) (A)
                 (A) (A) (A) (A) (A) (A) (A) (A) (A) (A) (A) (A)
                 (A) (A) (A) (A) (A) (A) (A) (A) (A) (A) (A) (A)
                 (A) (A) (A) (A) (A) (A) (A) (A) (A) (A) (A) (A)
                 (A) (A) (A) (A) (A) (A) (A) (A) (A) (A) (A) (A)
                 (A) (A) (A) (A) (A) (A) (A) (A) (A) (A) (A) (A)
                 (A) (A) (A) (A) (A) (A) (A) (A) (A) (A) (A) (A)
                 (A) (A) (A) (A) (A) (A) (A) (A) (A) (A) (A) (A)
                 (A) (A) (A) (A) (A) (A) (A) (A) (A) (A) (A) (A)
                 (A) (A) (A) (A) (A) (A) (A) (A) (A) (A) (A) (A)
                 (A) (A) (A) (A) (A) (A) (A) (A) (A) (A) (A) (A)
                 (A) (A) (A) (A) (A) (A) (A) (A) (A) (A) (A) (A)
                 (A) (A) (A) (A) (A) (A) (A) (A) (A) (A) (A) (A)
                 (A) (A) (A) (A) (A) (A) (A) (A) (A) (A) (A) (A)
                 (A) (A) (A) (A) (A) (A) (A) (A) (A) (A) (A) (A)
                 (A) (A) (A) (A) (A) (A) (A) (A) (A) (A) (A) (A)
                 (A) (A) (A) (A) (A) (A) (A) (A) (A) (A) (A) (A)
                 (A) (A) (A) (A) (A) (A) (A) (A) (A) (A) (A) (A)
                 (A) (A) (A) (A) (A) (A) (A) (A) (A) (A) (A) (A)
                 (A) (A) (A) (A) (A) (A) (A) (A) (A) (A) (A) (A)
                 (A) (A) (A) (A) (A) (A) (A) (A) (A) (A) (A) (A)
                 (A) (A) (A) (A) (A) (A) (A) (A) (A) (A) (A) (A)
                 (A) (A) (A) (A) (A) (A) (A) (A) (A) (A) (A) (A)
                 (A) (A) (A) (A) (A) (A) (A) (A) (A) (A) (A) (A)
                 (A) (A) (A) (A) (A) (A) (A) (A) (A) (A) (A) (A)
                 (A) (A) (A) (A) (A) (A) (A) (A) (A) (A) (A) (A)
                 (A) (A) (A) (A) (A) (A) (A) (A) (A) (A) (A) (A)
                 (A) (A) (A) (A) (A) (A) (A) (A) (A) (A) (A) (A)
                 (A) (A) (A) (A) (A) (A) (A) (A) (A) (A) (A) (A)
                 (A) (A) (A) (A) (A) (A) (A) (A) (A) (A) (A) (A)
                 (A) (A) (A) (A) (A) (A) (A) (A) (A) (A) (A) (A)
                 (A) (A) (A) (A) (A) (A) (A) (A) (A) (A) (A) (A)
                 (A) (A) (A) (A) (A) (A) (A) (A) (A) (A) (A) (A)
                 (A) (A) (A) (A) (A) (A) (A) (A) (A) (A) (A) (A)
                 (A) (A) (A) (A) (A) (A) (A) (A) (A) (A) (A) (A)
                 (A) (A) (A) (A) (A) (A) (A) (A) (A) (A) (A) (A)
                 (A) (A) (A) (A) (A) (A) (A) (A) (A) (A) (A) (A)
                 (A) (A) (A) (A) (A) (A) (A) (A) (A) (A) (A) (A)
                 (A) (A) (A) (A) (A) (A) (A) (A) (A) (A) (A) (A)
                 (A) (A) (A) (A) (A) (A) (A) (A) (A) (A) (A) (A)
                 (A) (A) (A) (A) (A) (A) (A) (A) (A) (A) (A) (A)
                 (A) (A) (A) (A) (A) (A) (A) (A) (A) (A) (A) (A)
                 (A) (A) (A) (A) (A) (A) (A) (A) (A) (A) (A) (A)
                 (A) (A) (A) (A) (A) (A) (A) (A) (A) (A) (A) (A)
                 (A) (A) (A) (A) (A) (A) (A) (A) (A) (A) (A) (A)
                 (A) (A) (A) (A) (A) (A) (A) (A) (A) (A) (A) (A)
                 (A) (A) (A) (A) (A) (A) (A) (A) (A) (A) (A) (A)
                 (A) (A) (A) (A) (A) (A) (A) (A) (A) (A) (A) (A)
                 (A) (A) (A) (A) (A) (A) (A) (A) (A) (A) (A) (A)
                 (A) (A) (A) (A) (A) (A) (A) (A) (A) (A) (A) (A)
                 (A) (A) (A) (A) (A) (A) (A) (A) (A) (A) (A) (A)
                 (A) (A) (A) (A) (A) (A) (A) (A) (A) (A) (A) (A)
                 (A) (A) (A) (A) (A) (A) (A) (A) (A) (A) (A) (A)
                 (A) (A) (A) (A) (A) (A) (A) (A) (A) (A) (A) (A)
                 (A) (A) (A) (A) (A) (A) (A) (A) (A) (A) (A) (A)
                 (A) (A) (A) (A) (A) (A) (A) (A) (A) (A) (A) (A)
                 (A) (A) (A) (A) (A) (A) (A) (A) (A) (A) (A) (A)
                 (A) (A) (A) (A) (A) (A) (A) (A) (A) (A) (A) (A)
                 (A) (A) (A) (A) (A) (A) (A) (A) (A) (A) (A) (A)
                 (A) (A) (A) (A) (A) (A) (A) (A) (A) (A) (A) (A)
                 (A) (A) (A) (A) (A) (A) (A) (A) (A) (A) (A) (A)
                 (A) (A) (A) (A) (A) (A) (A) (A) (A) (A) (A) (A)
                 (A) (A) (A) (A) (A) (A) (A) (A) (A) (A) (A) (A)
                 (A) (A) (A) (A) (A) (A) (A) (A) (A) (A) (A) (A)
                 (A) (A) (A) (A) (A) (A) (A) (A) (A) (A) (A) (A)
                 (A) (A) (A) (A) (A) (A) (A) (A) (A) (A) (A) (A)
                 (A) (A) (A) (A) (A) (A) (A) (A) (A) (A) (A) (A)
                 (A) (A) (A) (A) (A) (A) (A) (A) (A) (A) (A) (A)
                 (A) (A) (A) (A) (A) (A) (A) (A) (A) (A) (A) (A)
                 (A) (A) (A) (A) (A) (A) (A) (A) (A) (A) (A) (A)
                 (A) (A) (A) (A) (A) (A) (A) (A) (A) (A) (A) (A)
                 (A) (A) (A) (A) (A) (A) (A) (A) (A) (A) (A) (A)
                 (A) (A) (A) (A) (A) (A) (A) (A) (A) (A) (A) (A)
                 (A) (A) (A) (A) (A) (A) (A) (A) (A) (A) (A) (A)
                 (A) (A) (A) (A) (A) (A) (A) (A) (A) (A) (A) (A)
                 (A) (A) (A) (A) (A) (A) (A) (A) (A) (A) (A) (A)
                 (A) (A) (A) (A) (A) (A) (A) (A) (A) (A) (A) (A)
                 (A) (A) (A) (A) (A) (A) (A) (A) (A) (A) (A) (A)
                 (A) (A) (A) (A) (A) (A) (A) (A) (A) (A) (A) (A)
                 (A) (A) (A) (A) (A) (A) (A) (A) (A) (A) (A) (A)
                 (A) (A) (A) (A) (A) (A) (A) (A) (A) (A) (A) (A)
                 (A) (A) (A) (A) (A) (A) (A) (A) (A) (A) (A) (A)
                 (A) (A) (A) (A) (A) (A) (A) (A) (A) (A) (A) (A)
                 (A) (A) (A) (A) (A) (A) (A) (A) (A) (A) (A) (A)
                 (A) (A) (A) (A) (A) (A) (A) (A) (A) (A) (A) (A)
                 (A) (A) (A) (A) (A) (A) (A) (A) (A) (A) (A) (A)
                 (A) (A) (A) (A) (A) (A) (A) (A) (A) (A) (A) (A)
                 (A) (A) (A) (A) (A) (A) (A) (A) (A) (A) (A) (A)
                 (A) (A) (A) (A) (A) (A) (A) (A) (A) (A) (A) (A)
                 (A) (A) (A) (A) (A) (A) (A) (A) (A) (A) (A) (A)
                 (A) (A) (A) (A) (A) (A) (A) (A) (A) (A) (A) (A)
                 (A) (A) (A) (A) (A) (A) (A) (A) (A) (A) (A) (A)
                 (A) (A) (A) (A) (A) (A) (A) (A) (A) (A) (A) (A)
                 (A) (A) (A) (A) (A) (A) (A) (A) (A) (A) (A) (A)
                 (A) (A) (A) (A) (A) (A) (A) (A) (A) (A) (A) (A)
                 (A) (A) (A) (A) (A) (A) (A) (A) (A) (A) (A) (A)
                 (A) (A) (A) (A) (A) (A) (A) (A) (A) (A) (A) (A)
                 (A) (A) (A) (A) (A) (A) (A) (A) (A) (A) (A) (A)
                 (A) (A) (A) (A) (A) (A) (A) (A) (A) (A) (A) (A)
                 (A) (A) (A) (A) (A) (A) (A) (A) (A) (A) (A) (A)
                 (A) (A) (A) (A) (A) (A) (A) (A) (A) (A) (A) (A)
                 (A) (A) (A) (A) (A) (A) (A) (A) (A) (A) (A) (A)
                 (A) (A) (A) (A) (A) (A) (A) (A) (A) (A) (A) (A)
                 (A) (A) (A) (A) (A) (A) (A) (A) (A) (A) (A) (A)
                 (A) (A) (A) (A) (A) (A) (A) (A) (A) (A) (A) (A)
                 (A) (A) (A) (A) (A) (A) (A) (A) (A) (A) (A) (A)
                 (A) (A) (A) (A) (A) (A) (A) (A) (A) (A) (A) (A)
                 (A) (A) (A) (A) (A) (A) (A) (A) (A) (A) (A) (A)
                 (A) (A) (A) (A) (A) (A) (A) (A) (A) (A) (A) (A)
                 (A) (A) (A) (A) (A) (A) (A) (A) (A) (A) (A) (A)
                 (A) (A) (A) (A) (A) (A) (A) (A) (A) (A) (A) (A)
                 (A) (A) (A) (A) (A) (A) (A) (A) (A) (A) (A) (A)
                 (A) (A) (A) (A) (A) (A) (A) (A) (A) (A) (A) (A)
                 (A) (A) (A) (A) (A) (A) (A) (A) (A) (A) (A) (A)
                 (A) (A) (A) (A) (A) (A) (A) (A) (A) (A) (A) (A)
                 (A) (A) (A) (A) (A) (A) (A) (A) (A) (A) (A) (A)
                 (A) (A) (A) (A) (A) (A) (A) (A) (A) (A) (A) (A)
                 (A) (A) (A) (A) (A) (A) (A) (A) (A) (A) (A) (A)
                 (A) (A) (A) (A) (A) (A) (A) (A) (A) (A) (A) (A)
                 (A) (A) (A) (A) (A) (A) (A) (A) (A) (A) (A) (A)
                 (A) (A) (A) (A) (A) (A) (A) (A) (A) (A) (A) (A)
                 (A) (A) (A) (A) (A) (A) (A) (A) (A) (A) (A) (A)
                 (A) (A) (A) (A) (A) (A) (A) (A) (A) (A) (A) (A)
                 (A) (A) (A) (A) (A) (A) (A) (A) (A) (A) (A) (A)
                 (A) (A) (A) (A) (A) (A) (A) (A) (A) (A) (A) (A)
                 (A) (A) (A) (A) (A) (A) (A) (A) (A) (A) (A) (A)
                 (A) (A) (A) (A) (A) (A) (A) (A) (A) (A) (A) (A)
                 (A) (A) (A) (A) (A) (A) (A) (A) (A) (A) (A) (A)
                 (A) (A) (A) (A) (A) (A) (A) (A) (A) (A) (A) (A)
                 (A) (A) (A) (A) (A) (A) (A) (A) (A) (A) (A) (A)
                 (A) (A) (A) (A) (A) (A) (A) (A) (A) (A) (A) (A)
                 (A) (A) (A) (A) (A) (A) (A)
 Beta  Orbitals:
       Occupied  (A) (A) (A) (A) (A) (A) (A) (A) (A) (A) (A) (A)
                 (A) (A) (A) (A) (A) (A) (A) (A) (A) (A) (A) (A)
                 (A) (A) (A) (A) (A) (A) (A) (A) (A) (A) (A) (A)
                 (A) (A) (A) (A) (A) (A) (A) (A) (A) (A) (A) (A)
                 (A) (A) (A) (A) (A) (A) (A) (A) (A) (A) (A) (A)
                 (A) (A) (A) (A) (A) (A) (A) (A) (A) (A) (A) (A)
                 (A) (A) (A) (A) (A) (A) (A) (A) (A) (A) (A) (A)
                 (A) (A) (A) (A) (A) (A) (A) (A) (A) (A) (A) (A)
                 (A) (A) (A) (A) (A) (A) (A) (A) (A) (A) (A) (A)
                 (A) (A) (A) (A) (A) (A) (A) (A) (A) (A) (A) (A)
                 (A) (A) (A) (A) (A) (A) (A) (A) (A) (A) (A) (A)
                 (A) (A) (A) (A) (A) (A) (A) (A) (A) (A) (A) (A)
                 (A) (A) (A) (A) (A) (A) (A) (A) (A) (A) (A) (A)
                 (A) (A) (A) (A) (A) (A) (A) (A) (A) (A) (A) (A)
                 (A) (A) (A) (A) (A) (A) (A) (A) (A) (A) (A) (A)
                 (A) (A) (A) (A) (A) (A) (A) (A) (A) (A) (A) (A)
                 (A) (A) (A) (A) (A) (A) (A) (A) (A) (A) (A) (A)
                 (A) (A) (A) (A) (A) (A) (A) (A) (A) (A) (A) (A)
                 (A) (A) (A) (A) (A) (A) (A) (A) (A) (A) (A) (A)
                 (A) (A) (A) (A) (A) (A) (A) (A) (A)
       Virtual   (A) (A) (A) (A) (A) (A) (A) (A) (A) (A) (A) (A)
                 (A) (A) (A) (A) (A) (A) (A) (A) (A) (A) (A) (A)
                 (A) (A) (A) (A) (A) (A) (A) (A) (A) (A) (A) (A)
                 (A) (A) (A) (A) (A) (A) (A) (A) (A) (A) (A) (A)
                 (A) (A) (A) (A) (A) (A) (A) (A) (A) (A) (A) (A)
                 (A) (A) (A) (A) (A) (A) (A) (A) (A) (A) (A) (A)
                 (A) (A) (A) (A) (A) (A) (A) (A) (A) (A) (A) (A)
                 (A) (A) (A) (A) (A) (A) (A) (A) (A) (A) (A) (A)
                 (A) (A) (A) (A) (A) (A) (A) (A) (A) (A) (A) (A)
                 (A) (A) (A) (A) (A) (A) (A) (A) (A) (A) (A) (A)
                 (A) (A) (A) (A) (A) (A) (A) (A) (A) (A) (A) (A)
                 (A) (A) (A) (A) (A) (A) (A) (A) (A) (A) (A) (A)
                 (A) (A) (A) (A) (A) (A) (A) (A) (A) (A) (A) (A)
                 (A) (A) (A) (A) (A) (A) (A) (A) (A) (A) (A) (A)
                 (A) (A) (A) (A) (A) (A) (A) (A) (A) (A) (A) (A)
                 (A) (A) (A) (A) (A) (A) (A) (A) (A) (A) (A) (A)
                 (A) (A) (A) (A) (A) (A) (A) (A) (A) (A) (A) (A)
                 (A) (A) (A) (A) (A) (A) (A) (A) (A) (A) (A) (A)
                 (A) (A) (A) (A) (A) (A) (A) (A) (A) (A) (A) (A)
                 (A) (A) (A) (A) (A) (A) (A) (A) (A) (A) (A) (A)
                 (A) (A) (A) (A) (A) (A) (A) (A) (A) (A) (A) (A)
                 (A) (A) (A) (A) (A) (A) (A) (A) (A) (A) (A) (A)
                 (A) (A) (A) (A) (A) (A) (A) (A) (A) (A) (A) (A)
                 (A) (A) (A) (A) (A) (A) (A) (A) (A) (A) (A) (A)
                 (A) (A) (A) (A) (A) (A) (A) (A) (A) (A) (A) (A)
[...]
  Beta virt. eigenvalues --    4.92789   4.92852   4.93186   4.93385   4.93617
  Beta virt. eigenvalues --    4.93761   4.94004   4.94453   4.94477   4.94726
  Beta virt. eigenvalues --    4.94848   4.95183   4.95315   4.95592   4.95880
  Beta virt. eigenvalues --    4.96245   4.96561   4.96909   4.97005   4.97077
  Beta virt. eigenvalues --    4.97490   4.97869   4.98324   4.98719   4.98798
  Beta virt. eigenvalues --    4.99331   4.99760   4.99830   4.99854   5.00457
  Beta virt. eigenvalues --    5.00667   5.01015   5.01390   5.02278   5.02474
  Beta virt. eigenvalues --    5.02710   5.03055   5.03107   5.03375   5.03957
  Beta virt. eigenvalues --    5.04171   5.04769   5.04934   5.05341   5.05827
  Beta virt. eigenvalues --    5.06185   5.06469   5.06695   5.06934   5.07114
  Beta virt. eigenvalues --    5.07910   5.08814   5.09520   5.09796   5.09823
  Beta virt. eigenvalues --    5.10268   5.10515   5.10746   5.11551   5.11665
  Beta virt. eigenvalues --    5.12232   5.12287   5.12699   5.12731   5.13098
  Beta virt. eigenvalues --    5.13664   5.14535   5.14820   5.15377   5.15833
  Beta virt. eigenvalues --    5.15963   5.16714   5.16976   5.17605   5.17942
  Beta virt. eigenvalues --    5.18237   5.18556   5.18578   5.19094   5.19591
  Beta virt. eigenvalues --    5.20213   5.20753   5.21109   5.21783   5.22895
  Beta virt. eigenvalues --    5.23215   5.23302   5.23670   5.23797   5.24335
  Beta virt. eigenvalues --    5.24572   5.24681   5.24828   5.25256   5.25558
  Beta virt. eigenvalues --    5.26099   5.26212   5.26318   5.26617   5.26892
  Beta virt. eigenvalues --    5.27081   5.27622   5.27731   5.28733   5.28890
  Beta virt. eigenvalues --    5.29030   5.29209   5.29241   5.29365   5.30134
  Beta virt. eigenvalues --    5.30341   5.30540   5.30677   5.30842   5.31356
  Beta virt. eigenvalues --    5.31554   5.31679   5.31794   5.32356   5.32917
  Beta virt. eigenvalues --    5.32989   5.33152   5.33398   5.33439   5.33896
  Beta virt. eigenvalues --    5.34747   5.35418   5.36076   5.36484   5.37368
  Beta virt. eigenvalues --    5.37446   5.37933   5.37978   5.38300   5.38641
  Beta virt. eigenvalues --    5.38954   5.39125   5.39586   5.39734   5.39883
  Beta virt. eigenvalues --    5.39995   5.40723   5.40760   5.41004   5.41549
  Beta virt. eigenvalues --    5.41783   5.41955   5.42592   5.43165   5.43484
  Beta virt. eigenvalues --    5.44091   5.44420   5.44526   5.45194   5.45984
  Beta virt. eigenvalues --    5.46028   5.46243   5.47109   5.47230   5.47500
  Beta virt. eigenvalues --    5.47846   5.48054   5.48978   5.49151   5.50029
  Beta virt. eigenvalues --    5.50386   5.50934   5.51013   5.51290   5.51867
  Beta virt. eigenvalues --    5.52365   5.53042   5.53391   5.53706   5.54989
  Beta virt. eigenvalues --    5.55347   5.55886   5.56040   5.56140   5.56661
  Beta virt. eigenvalues --    5.57518   5.58404   5.58618   5.59410   5.59528
  Beta virt. eigenvalues --    5.59770   5.60311   5.60602   5.60692   5.60776
  Beta virt. eigenvalues --    5.60978   5.61679   5.61920   5.62161   5.62237
  Beta virt. eigenvalues --    5.62432   5.62667   5.62851   5.63146   5.63319
  Beta virt. eigenvalues --    5.63444   5.63958   5.64577   5.64781   5.65351
  Beta virt. eigenvalues --    5.65895   5.66051   5.66602   5.67114   5.67273
  Beta virt. eigenvalues --    5.67896   5.67950   5.68623   5.69432   5.69697
  Beta virt. eigenvalues --    5.70306   5.71372   5.71920   5.72343   5.73831
  Beta virt. eigenvalues --    5.74092   5.75416   5.76021   5.77372   5.78740
  Beta virt. eigenvalues --    5.79719   5.81460   5.82567   5.82681   5.84830
  Beta virt. eigenvalues --    5.85776   5.86868   5.87096   5.87432   5.88864
  Beta virt. eigenvalues --    5.90344   5.91051   5.91925   5.93909   5.94237
  Beta virt. eigenvalues --    5.95174   5.96228   5.96281   5.97138   5.98635
  Beta virt. eigenvalues --    6.00401   6.00636   6.01313   6.02197   6.02982
  Beta virt. eigenvalues --    6.04036   6.04324   6.04978   6.05654   6.05792
  Beta virt. eigenvalues --    6.05893   6.06270   6.07256   6.07459   6.10700
  Beta virt. eigenvalues --    6.10856   6.12020   6.12381   6.12502   6.17178
  Beta virt. eigenvalues --    6.18183   6.18416   6.20906   6.23517   6.24480
  Beta virt. eigenvalues --    6.24537   6.26705   6.26875   6.27654   6.28474
  Beta virt. eigenvalues --    6.28942   6.29777   6.30147   6.31018   6.32761
  Beta virt. eigenvalues --    6.33213   6.34828   6.35500   6.36313   6.41206
  Beta virt. eigenvalues --    6.41297   6.44465   6.45358   6.45652   6.48890
  Beta virt. eigenvalues --    6.52807   6.55812   6.65367   6.71537   6.72503
  Beta virt. eigenvalues --    6.72551   6.73091   6.74827   6.75155   6.76259
  Beta virt. eigenvalues --    6.76674   6.77348   6.77685   6.80468   6.82631
  Beta virt. eigenvalues --    6.83301   6.84220   6.84746   6.84869   6.85322
  Beta virt. eigenvalues --    6.85704   6.86707   6.88544   6.91210   6.93820
  Beta virt. eigenvalues --    6.96198   6.97235   6.98437   6.98520   6.99515
  Beta virt. eigenvalues --    7.00136   7.00447   7.00548   7.01269   7.01285
  Beta virt. eigenvalues --    7.01871   7.02796   7.03252   7.03675   7.05924
  Beta virt. eigenvalues --    7.06477   7.08097   7.09594   7.12617   7.19039
  Beta virt. eigenvalues --    7.23580   7.25514   7.26487   7.27197   7.27833
  Beta virt. eigenvalues --    7.28628   7.29126   7.30305   7.32866   7.32895
  Beta virt. eigenvalues --    7.33336   7.33819   7.34756   7.34870   7.35463
  Beta virt. eigenvalues --    7.38919   7.39380   7.39752   7.43556   7.46590
  Beta virt. eigenvalues --    7.47273   8.48221   8.52950   8.58293   8.63918
  Beta virt. eigenvalues --    8.82594   8.88214   8.92395   8.95606   8.96556
  Beta virt. eigenvalues --    9.02668  15.85848  22.76752  22.86795  22.87497
  Beta virt. eigenvalues --   22.92084  22.96247  23.10758  23.13080  23.14450
  Beta virt. eigenvalues --   23.15475  23.19029  23.19657  23.24729  23.26227
  Beta virt. eigenvalues --   23.27459  23.28673  23.28808  23.29593  23.32224
  Beta virt. eigenvalues --   23.33084  23.33136  23.33529  23.35332  23.35367
  Beta virt. eigenvalues --   23.35870  23.36815  23.37430  23.37713  23.38368
  Beta virt. eigenvalues --   23.40861  23.42908  23.44031  23.46260  23.46490
  Beta virt. eigenvalues --   23.48017  23.50017  23.52126  23.54668  23.55088
  Beta virt. eigenvalues --   23.55788  23.56493  23.58038  23.58044  23.60548
  Beta virt. eigenvalues --   23.69530  23.73230  23.85306  23.91567  24.09706
  Beta virt. eigenvalues --   24.10375  24.11646  33.17752  33.25282  44.00489
  Beta virt. eigenvalues --   44.26994  44.27210  44.28212  44.43333  44.45248
  Beta virt. eigenvalues --   44.48287  44.51445  44.62125  44.62326  57.44723
  Beta virt. eigenvalues --   57.60612
          Condensed to atoms (all electrons):
          Atomic-Atomic Spin Densities.
 Mulliken charges and spin densities:
               1          2
     1  B    0.378297   0.002197
     2  N   -0.156002   0.020351
     3  C   -0.065018   0.164901
     4  C   -0.126701  -0.073779
     5  C   -0.041271   0.170068
     6  C    0.071139  -0.097787
     7  C    0.065517   0.385050
     8  C   -0.039370  -0.014781
     9  O   -0.359113   0.051515
    10  C   -0.391605   0.000140
    11  C    0.124916  -0.000400
    12  C   -0.133792   0.001480
    13  C   -0.117994   0.000203
    14  C   -0.021439  -0.000087
    15  C   -0.151005   0.000379
    16  C   -0.167847  -0.000110
    17  C    0.168471   0.000014
    18  O   -0.381423  -0.000038
    19  C    0.075460  -0.104327
    20  N   -0.145553   0.023684
    21  C   -0.072475   0.204714
    22  C   -0.110591  -0.088239
    23  C   -0.021230   0.182358
    24  C   -0.421865  -0.008533
    25  C   -0.081153  -0.113098
    26  C   -0.129186   0.159713
    27  C    0.019767  -0.036522
    28  C   -0.172991   0.041447
    29  C   -0.195381  -0.021826
    30  C    0.207229   0.041825
    31  O   -0.292625   0.005615
    32  C   -0.098136  -0.000468
    33  C   -0.092299  -0.000165
    34  O   -0.327152   0.000027
    35  C   -0.069487   0.000005
    36  C   -0.120913  -0.000003
    37  O   -0.342022  -0.000000
    38  C   -0.037587   0.000001
    39  C   -0.080187  -0.000000
    40  O   -0.358014   0.000000
    41  C   -0.192190   0.000000
    42  C   -0.173504  -0.024330
    43  C   -0.164520   0.044160
    44  C   -0.456305  -0.009563
    45  C   -0.089804  -0.089018
    46  C   -0.134032   0.127417
    47  C    0.025893  -0.030672
    48  C   -0.171278   0.034167
    49  C   -0.166692  -0.019418
    50  C    0.211608   0.033708
    51  O   -0.312051   0.004448
    52  C   -0.151976  -0.000339
    53  C   -0.026748   0.000172
    54  O   -0.330799   0.000009
    55  C   -0.123442   0.000073
    56  C   -0.076942  -0.000036
    57  O   -0.350086   0.000001
    58  C   -0.073499   0.000002
    59  C   -0.066333  -0.000000
    60  O   -0.355889  -0.000000
    61  C   -0.197211  -0.000000
    62  C   -0.188141  -0.017303
    63  C   -0.172303   0.033384
    64  F   -0.362994   0.000913
    65  F   -0.364238   0.000832
    66  H    0.150384   0.000476
    67  H    0.189487  -0.003192
    68  H    0.211093  -0.000387
    69  H    0.167256  -0.000900
    70  H    0.155294   0.000000
    71  H    0.161268   0.000003
    72  H    0.150445  -0.000342
    73  H    0.088881   0.000000
    74  H    0.145997   0.000540
    75  H    0.130177   0.007204
    76  H    0.118917   0.000424
    77  H    0.155956   0.007692
    78  H    0.082870   0.005554
    79  H    0.116263  -0.008829
    80  H    0.151567  -0.001435
    81  H    0.153046   0.000265
    82  H    0.145706   0.000512
    83  H    0.144152   0.000488
    84  H    0.123471  -0.000006
    85  H    0.123584  -0.000025
    86  H    0.134458   0.000002
    87  H    0.123935   0.000003
    88  H    0.130113   0.000000
    89  H    0.124835   0.000000
    90  H    0.115841  -0.000000
    91  H    0.116821  -0.000000
    92  H    0.114189   0.000000
    93  H    0.127051   0.000000
    94  H    0.136854  -0.000000
    95  H    0.119394   0.000000
    96  H    0.119838  -0.000000
    97  H    0.150920   0.000313
    98  H    0.131728  -0.001327
    99  H    0.131526   0.007735
   100  H    0.160563   0.001529
   101  H    0.138109   0.003870
   102  H    0.084978   0.004594
   103  H    0.116143  -0.007624
   104  H    0.133306  -0.001032
   105  H    0.138900   0.000219
   106  H    0.152423   0.000172
   107  H    0.152607   0.000231
   108  H    0.124841  -0.000010
   109  H    0.124741   0.000037
   110  H    0.135510   0.000000
   111  H    0.133108  -0.000006
   112  H    0.124495   0.000001
   113  H    0.130355   0.000005
   114  H    0.119682  -0.000001
   115  H    0.139010   0.000000
   116  H    0.117265   0.000000
   117  H    0.125840   0.000000
   118  H    0.120283  -0.000000
   119  H    0.137751   0.000000
   120  H    0.121157  -0.000000
   121  H    0.151114   0.000215
   122  H    0.148607  -0.001097
 Sum of Mulliken charges =  -1.00000   1.00000
 Mulliken charges and spin densities with hydrogens summed into heavy atoms:
               1          2
     1  B    0.378297   0.002197
     2  N   -0.156002   0.020351
     3  C   -0.065018   0.164901
     4  C    0.023683  -0.073304
     5  C   -0.041271   0.170068
     6  C    0.071139  -0.097787
     7  C    0.065517   0.385050
     8  C   -0.039370  -0.014781
     9  O   -0.359113   0.051515
    10  C    0.008976  -0.003440
    11  C    0.124916  -0.000400
    12  C    0.033464   0.000580
    13  C    0.037300   0.000203
    14  C   -0.021439  -0.000087
    15  C    0.010262   0.000382
    16  C   -0.017401  -0.000452
    17  C    0.257351   0.000014
    18  O   -0.381423  -0.000038
    19  C    0.075460  -0.104327
    20  N   -0.145553   0.023684
    21  C   -0.072475   0.204714
    22  C    0.035406  -0.087699
    23  C   -0.021230   0.182358
    24  C   -0.016815   0.006787
    25  C    0.001717  -0.107543
    26  C   -0.012923   0.150884
    27  C    0.019767  -0.036522
    28  C   -0.021424   0.040012
    29  C   -0.042335  -0.021562
    30  C    0.207229   0.041825
    31  O   -0.292625   0.005615
    32  C    0.191723   0.000533
    33  C    0.154756  -0.000196
    34  O   -0.327152   0.000027
    35  C    0.188905   0.000010
    36  C    0.134035  -0.000003
    37  O   -0.342022  -0.000000
    38  C    0.195075   0.000000
    39  C    0.161053  -0.000000
    40  O   -0.358014   0.000000
    41  C    0.183896   0.000000
    42  C   -0.022584  -0.024017
    43  C   -0.032792   0.042833
    44  C   -0.026106   0.003571
    45  C   -0.004826  -0.084424
    46  C   -0.017889   0.119793
    47  C    0.025893  -0.030672
    48  C   -0.037972   0.033135
    49  C   -0.027792  -0.019198
    50  C    0.211608   0.033708
    51  O   -0.312051   0.004448
    52  C    0.153054   0.000065
    53  C    0.222834   0.000199
    54  O   -0.330799   0.000009
    55  C    0.145175   0.000067
    56  C    0.177909  -0.000030
    57  O   -0.350086   0.000001
    58  C    0.185192   0.000001
    59  C    0.176772  -0.000000
    60  O   -0.355889  -0.000000
    61  C    0.181980  -0.000000
    62  C   -0.037027  -0.017088
    63  C   -0.023697   0.032287
    64  F   -0.362994   0.000913
    65  F   -0.364238   0.000832
 Electronic spatial extent (au):  <R**2>=         121563.6425
 Charge=             -1.0000 electrons
 Dipole moment (field-independent basis, Debye):
    X=             24.7950    Y=             12.6419    Z=             -7.3537  Tot=             28.7869
 Quadrupole moment (field-independent basis, Debye-Ang):
   XX=           -501.4046   YY=           -420.7760   ZZ=           -380.8391
   XY=            -38.9921   XZ=            -32.7833   YZ=              0.3007
 Traceless Quadrupole moment (field-independent basis, Debye-Ang):
   XX=            -67.0647   YY=             13.5639   ZZ=             53.5008
   XY=            -38.9921   XZ=            -32.7833   YZ=              0.3007
 Octapole moment (field-independent basis, Debye-Ang**2):
  XXX=           2931.8696  YYY=            519.9851  ZZZ=            -33.0373  XYY=             74.8863
  XXY=           1035.4181  XXZ=           -247.7687  XZZ=            156.2249  YZZ=            103.3643
  YYZ=           -494.6762  XYZ=            -61.1921
 Hexadecapole moment (field-independent basis, Debye-Ang**3):
 XXXX=        -134023.5487 YYYY=         -53026.2040 ZZZZ=          -5507.9413 XXXY=          -9583.5634
 XXXZ=          -4573.4204 YYYX=           3098.7199 YYYZ=          -1838.5371 ZZZX=           -197.8111
 ZZZY=           -186.3197 XXYY=         -28697.9691 XXZZ=         -17722.4246 YYZZ=          -9148.4902
 XXYZ=           1623.5065 YYXZ=          -3266.1296 ZZXY=            401.1378
 N-N= 8.542276131741D+03 E-N=-2.418862649317D+04  KE= 3.009806776315D+03
 Leave Link  601 at Thu Oct 30 17:32:26 2025, MaxMem= 30870077440 cpu:             189.7 elap:               3.5
 (Enter /public/software/gauss/g16/l9999.exe)
 1\1\GINC-CU141\SP\UM062X\def2TZVPP\C50H57B1F2N2O10(1-,2)\BAIDING\30-Oc
 t-2025\0\\#p M062X/DEF2TZVPP scrf=(solvent=water) em=GD3\\Energy calcu
 lation for BE_CHO_reduced\\-1,2\B,0,-2.793525,-0.67177,0.231063\N,0,-3
 .860362,0.283396,0.806126\C,0,-3.624465,1.414377,1.581768\C,0,-4.83918
 4,1.780696,2.184534\C,0,-5.83986,0.894535,1.784232\C,0,-5.214932,-0.03
 5521,0.903086\C,0,-5.736121,-1.195507,0.262318\C,0,-7.205932,-1.430936
 ,0.207131\O,0,-7.720444,-2.438714,0.695052\C,0,-8.027815,-0.430603,-0.
 614735\C,0,-9.525944,-0.515275,-0.463378\C,0,-10.256427,0.575365,0.029
 513\C,0,-11.641459,0.504542,0.157049\C,0,-12.323913,-0.664245,-0.20820
 3\C,0,-11.599714,-1.759642,-0.710741\C,0,-10.220172,-1.682534,-0.83701
 9\C,0,-13.784255,-0.717736,-0.066893\O,0,-14.48203,-1.686949,-0.356278
 \C,0,-4.861376,-2.144759,-0.33064\N,0,-3.477148,-1.962259,-0.269076\C,
 0,-2.86851,-2.996174,-0.974072\C,0,-3.888903,-3.819059,-1.485833\C,0,-
 5.130203,-3.31516,-1.109967\C,0,-6.439787,-3.923409,-1.520774\C,0,-1.4
 77332,-3.279814,-1.199039\C,0,-0.346846,-2.71129,-0.695286\C,0,1.02224
 1,-3.104933,-1.014862\C,0,1.367892,-4.13436,-1.922533\C,0,2.690812,-4.
 461382,-2.175881\C,0,3.732023,-3.769996,-1.533889\O,0,5.004381,-4.1707
 45,-1.856315\C,0,6.105891,-3.491128,-1.237765\C,0,7.385842,-4.1133,-1.
 743335\O,0,7.488619,-5.442898,-1.247196\C,0,8.674906,-6.096686,-1.6891
 02\C,0,8.717885,-7.492624,-1.093239\O,0,8.734506,-7.519347,0.333542\C,
 0,9.971701,-7.113576,0.915866\C,0,9.900053,-7.460269,2.401351\O,0,11.0
 93918,-7.099337,3.089848\C,0,11.136672,-5.72905,3.48089\C,0,3.423294,-
 2.743907,-0.634121\C,0,2.086863,-2.428338,-0.387935\C,0,-7.255991,0.92
 8007,2.280708\C,0,-2.40963,2.161745,1.773622\C,0,-1.211871,2.091151,1.
 132631\C,0,-0.042201,2.918304,1.416733\C,0,1.092013,2.805198,0.588857\
 C,0,2.243491,3.567093,0.785989\C,0,2.29217,4.476856,1.847991\O,0,3.358
 035,5.288305,2.158076\C,0,4.654243,5.063349,1.575126\C,0,4.944767,5.99
 0587,0.412989\O,0,4.19061,5.596873,-0.732115\C,0,4.501571,6.319178,-1.
 925863\C,0,3.724764,7.621656,-2.073073\O,0,4.074092,8.649313,-1.143815
 \C,0,5.310227,9.302696,-1.426253\C,0,5.391986,10.516003,-0.501747\O,0,
 6.631748,11.205931,-0.622007\C,0,6.703978,12.062642,-1.759604\C,0,1.17
 7188,4.606324,2.693129\C,0,0.03698,3.846517,2.480404\F,0,-2.103482,-0.
 069012,-0.849095\F,0,-1.855287,-0.968657,1.247939\H,0,-4.96163,2.62329
 4,2.854128\H,0,-7.66414,0.582903,-0.434487\H,0,-7.750006,-0.659923,-1.
 654899\H,0,-9.736106,1.486983,0.305917\H,0,-12.200766,1.355102,0.53785
 7\H,0,-12.132976,-2.659324,-1.001248\H,0,-9.668303,-2.527231,-1.235576
 \H,0,-14.248864,0.204075,0.333484\H,0,-3.717031,-4.710823,-2.076163\H,
 0,-7.108495,-3.19523,-1.993372\H,0,-6.257077,-4.720475,-2.247461\H,0,-
 6.988302,-4.355696,-0.677827\H,0,-1.359255,-4.119511,-1.882097\H,0,-0.
 434312,-1.906387,0.023777\H,0,0.591476,-4.688576,-2.440498\H,0,2.94316
 4,-5.254097,-2.873547\H,0,6.091431,-2.426357,-1.499867\H,0,6.043143,-3
 .585616,-0.147058\H,0,7.398365,-4.109023,-2.843513\H,0,8.231898,-3.502
 138,-1.395003\H,0,8.684519,-6.186364,-2.786458\H,0,9.560383,-5.511769,
 -1.400177\H,0,7.816767,-8.039724,-1.387788\H,0,9.591953,-8.022036,-1.4
 9947\H,0,10.81135,-7.648795,0.448808\H,0,10.139416,-6.03711,0.779907\H
 ,0,9.025087,-6.975287,2.856748\H,0,9.785094,-8.543072,2.514785\H,0,12.
 069304,-5.584067,4.031822\H,0,11.127757,-5.047742,2.620861\H,0,10.2915
 89,-5.477289,4.136524\H,0,4.203638,-2.191194,-0.12522\H,0,1.8605,-1.62
 9452,0.31346\H,0,-7.908701,1.547972,1.655373\H,0,-7.70675,-0.067227,2.
 333017\H,0,-7.28534,1.35411,3.288712\H,0,-2.531256,2.921451,2.544393\H
 ,0,-1.090404,1.388985,0.316244\H,0,1.066791,2.105232,-0.242502\H,0,3.0
 7417,3.46697,0.099543\H,0,5.369874,5.288551,2.371629\H,0,4.778936,4.01
 4545,1.291086\H,0,4.711835,7.022654,0.700883\H,0,6.022222,5.933335,0.1
 94712\H,0,5.584679,6.488317,-1.99599\H,0,4.21202,5.669419,-2.75936\H,0
 ,3.848578,7.987586,-3.103852\H,0,2.661464,7.420592,-1.907176\H,0,6.168
 443,8.643419,-1.238425\H,0,5.339517,9.606225,-2.482131\H,0,4.54832,11.
 193148,-0.697406\H,0,5.323404,10.179402,0.537914\H,0,5.879576,12.78912
 ,-1.761928\H,0,7.652158,12.601744,-1.691759\H,0,6.683931,11.506482,-2.
 705172\H,0,1.228838,5.308816,3.519389\H,0,-0.79993,3.967897,3.161059\\
 Version=ES64L-G16RevA.03\State=2-A\HF=-3026.1138396\S2=0.790146\S2-1=0
 .\S2A=0.751289\RMSD=2.527e-09\Dipole=9.755093,4.9737195,-2.8931665\Qua
 drupole=-49.8609597,10.0844154,39.7765443,-28.9896904,-24.3735552,0.22
 35641\PG=C01 [X(C50H57B1F2N2O10)]\\@


 A successful marriage requires falling in love
 many times, always with the same person.
                           -- Mignon McLaughlin
 Job cpu time:       2 days 15 hours 40 minutes  1.1 seconds.
 Elapsed time:       0 days  1 hours  0 minutes 30.7 seconds.
 File lengths (MBytes):  RWF=   8461 Int=      0 D2E=      0 Chk=    548 Scr=      1
 Normal termination of Gaussian 16 at Thu Oct 30 17:32:28 2025.
