 Entering Gaussian System, Link 0=g16
 Input=BE_CN_sp.gjf
 Output=BE_CN_sp.log
 Initial command:
 /public/software/gauss/g16/l1.exe "/public/home/baiding/1030_sp/tmp_BE_CN_sp_1544648/Gau-119625.inp" -scrdir="/public/home/baiding/1030_sp/tmp_BE_CN_sp_1544648/"
 Entering Link 1 = /public/software/gauss/g16/l1.exe PID=    119626.
  
 Copyright (c) 1988,1990,1992,1993,1995,1998,2003,2009,2016,
            Gaussian, Inc.  All Rights Reserved.
  
 This is part of the Gaussian(R) 16 program.  It is based on
 the Gaussian(R) 09 system (copyright 2009, Gaussian, Inc.),
 the Gaussian(R) 03 system (copyright 2003, Gaussian, Inc.),
 the Gaussian(R) 98 system (copyright 1998, Gaussian, Inc.),
 the Gaussian(R) 94 system (copyright 1995, Gaussian, Inc.),
 the Gaussian 92(TM) system (copyright 1992, Gaussian, Inc.),
 the Gaussian 90(TM) system (copyright 1990, Gaussian, Inc.),
 the Gaussian 88(TM) system (copyright 1988, Gaussian, Inc.),
 the Gaussian 86(TM) system (copyright 1986, Carnegie Mellon
 University), and the Gaussian 82(TM) system (copyright 1983,
 Carnegie Mellon University). Gaussian is a federally registered
 trademark of Gaussian, Inc.
  
 This software contains proprietary and confidential information,
 including trade secrets, belonging to Gaussian, Inc.
  
 This software is provided under written license and may be
 used, copied, transmitted, or stored only in accord with that
 written license.
  
 The following legend is applicable only to US Government
 contracts under FAR:
  
                    RESTRICTED RIGHTS LEGEND
  
 Use, reproduction and disclosure by the US Government is
 subject to restrictions as set forth in subparagraphs (a)
 and (c) of the Commercial Computer Software - Restricted
 Rights clause in FAR 52.227-19.
  
 Gaussian, Inc.
 340 Quinnipiac St., Bldg. 40, Wallingford CT 06492
  
  
 ---------------------------------------------------------------
 Warning -- This program may not be used in any manner that
 competes with the business of Gaussian, Inc. or will provide
 assistance to any competitor of Gaussian, Inc.  The licensee
 of this program is prohibited from giving any competitor of
 Gaussian, Inc. access to this program.  By using this program,
 the user acknowledges that Gaussian, Inc. is engaged in the
 business of creating and licensing software in the field of
 computational chemistry and represents and warrants to the
 licensee that it is not a competitor of Gaussian, Inc. and that
 it will not use this program in any manner prohibited above.
 ---------------------------------------------------------------
  

 Cite this work as:
 Gaussian 16, Revision A.03,
 M. J. Frisch, G. W. Trucks, H. B. Schlegel, G. E. Scuseria, 
 M. A. Robb, J. R. Cheeseman, G. Scalmani, V. Barone, 
 G. A. Petersson, H. Nakatsuji, X. Li, M. Caricato, A. V. Marenich, 
 J. Bloino, B. G. Janesko, R. Gomperts, B. Mennucci, H. P. Hratchian, 
 J. V. Ortiz, A. F. Izmaylov, J. L. Sonnenberg, D. Williams-Young, 
 F. Ding, F. Lipparini, F. Egidi, J. Goings, B. Peng, A. Petrone, 
 T. Henderson, D. Ranasinghe, V. G. Zakrzewski, J. Gao, N. Rega, 
 G. Zheng, W. Liang, M. Hada, M. Ehara, K. Toyota, R. Fukuda, 
 J. Hasegawa, M. Ishida, T. Nakajima, Y. Honda, O. Kitao, H. Nakai, 
 T. Vreven, K. Throssell, J. A. Montgomery, Jr., J. E. Peralta, 
 F. Ogliaro, M. J. Bearpark, J. J. Heyd, E. N. Brothers, K. N. Kudin, 
 V. N. Staroverov, T. A. Keith, R. Kobayashi, J. Normand, 
 K. Raghavachari, A. P. Rendell, J. C. Burant, S. S. Iyengar, 
 J. Tomasi, M. Cossi, J. M. Millam, M. Klene, C. Adamo, R. Cammi, 
 J. W. Ochterski, R. L. Martin, K. Morokuma, O. Farkas, 
 J. B. Foresman, and D. J. Fox, Gaussian, Inc., Wallingford CT, 2016.
 
 ******************************************
 Gaussian 16:  ES64L-G16RevA.03 25-Dec-2016
                30-Oct-2025 
 ******************************************
 %nprocshared=64
 Will use up to   64 processors via shared memory.
 %mem=230GB
 %chk=BE_CN_sp.chk
 ----------------------------------------------
 #p M062X/DEF2TZVPP scrf=(solvent=water) em=GD3
 ----------------------------------------------
 1/38=1,172=1/1;
 2/12=2,17=6,18=5,40=1/2;
 3/5=44,7=202,11=2,25=1,30=1,70=2201,72=1,74=-55,124=31/1,2,3;
 4//1;
 5/5=2,38=5,53=1/2;
 6/7=2,8=2,9=2,10=2,28=1/1;
 99/5=1,9=1/99;
 Leave Link    1 at Thu Oct 30 19:46:21 2025, MaxMem= 30870077440 cpu:              11.0 elap:               0.2
 (Enter /public/software/gauss/g16/l101.exe)
 ----------------------------
 Energy calculation for BE_CN
 ----------------------------
 Symbolic Z-matrix:
 Charge =  0 Multiplicity = 1
 B                     3.19004   0.142     0.17436 
 N                     3.89048   1.52466   0.11543 
 C                     3.32963   2.75051  -0.13924 
 C                     4.36703   3.71666  -0.15771 
 C                     5.57815   3.09154   0.0749 
 C                     5.27581   1.69919   0.23307 
 C                     6.12302   0.60521   0.4761 
 C                     7.62376   0.82633   0.48902 
 O                     8.20807   1.07381   1.53055 
 C                     8.31081   0.69585  -0.86308 
 C                     9.77594   1.04962  -0.86897 
 C                     10.7091   0.25033  -0.1905 
 C                     12.06085   0.57264  -0.1962 
 C                     12.49852   1.71409  -0.8909 
 C                     11.57584   2.5217   -1.57549 
 C                     10.22604   2.1842   -1.55743 
 C                     13.8884   2.0508   -0.90385 
 N                     15.02199   2.32538  -0.91399 
 C                     5.62009  -0.68379   0.68224 
 N                     4.2475   -0.91186   0.59682 
 C                     4.00763  -2.23114   0.85246 
 C                     5.25051  -2.86627   1.12073 
 C                     6.26     -1.92782   1.02286 
 C                     7.70992  -2.20053   1.28447 
 C                     2.68578  -2.79842   0.84578 
 C                     2.4398   -4.12655   0.99359 
 C                     1.13972  -4.77841   1.00196 
 C                     1.08059  -6.16926   1.21244 
 C                    -0.12616  -6.86455   1.2369 
 C                    -1.32358  -6.16405   1.04226 
 O                    -2.56343  -6.73257   1.04544 
 C                    -2.67454  -8.15104   1.25399 
 C                    -4.13828  -8.5352    1.16922 
 O                    -4.6437   -8.42675  -0.16268 
 C                    -5.40913  -7.24806  -0.43552 
 C                    -6.86583  -7.38324  -0.03299 
 O                    -7.45434  -8.43093  -0.80235 
 C                    -8.79283  -8.75096  -0.42547 
 C                    -9.82843  -7.76119  -0.92992 
 O                    -9.81056  -7.76127  -2.35366 
 C                    -10.75502  -6.85135  -2.9004 
 C                    -1.29085  -4.77367   0.82656 
 C                    -0.0848   -4.09647   0.80747 
 C                     6.90052   3.78942   0.1779 
 C                     1.95881   3.11592  -0.39345 
 C                     0.82429   2.36887  -0.36186 
 C                    -0.52076   2.84198  -0.66255 
 C                    -0.83339   4.16026  -1.05171 
 C                    -2.13884   4.55412  -1.32625 
 C                    -3.18502   3.62292  -1.22162 
 O                    -4.50162   3.88277  -1.48782 
 C                    -4.91943   5.20987  -1.85581 
 C                    -5.08891   6.12122  -0.64872 
 O                    -6.04645   5.61097   0.28297 
 C                    -7.40369   5.94917  -0.00773 
 C                    -7.78369   7.26481   0.66379 
 O                    -9.14832   7.52704   0.35577 
 C                    -9.62442   8.73323   0.9447 
 C                    -11.09169   8.88061   0.54914 
 O                    -11.65798   10.09939   1.01953 
 C                    -12.05465   10.058    2.38837 
 C                    -2.89894   2.30471  -0.83312 
 C                    -1.59316   1.92784  -0.56148 
 F                     2.64338  -0.18738  -1.07247 
 F                     2.16317   0.1567    1.13699 
 H                     4.21179   4.77524  -0.31899 
 H                     8.15274  -0.34369  -1.18173 
 H                     7.75069   1.30658  -1.57918 
 H                     10.37434  -0.63426   0.34175 
 H                     12.77896  -0.04895   0.32742 
 H                     11.91869   3.39894  -2.11315 
 H                     9.51281   2.80581  -2.08995 
 H                     5.37918  -3.90698   1.38348 
 H                     8.10204  -1.57198   2.08955 
 H                     7.8403   -3.24546   1.5758 
 H                     8.3313   -2.02352   0.40005 
 H                     1.86396  -2.10267   0.72616 
 H                     3.28385  -4.80166   1.12075 
 H                     2.00599  -6.71846   1.36354 
 H                    -0.12385  -7.93407   1.40642 
 H                    -2.10056  -8.68577   0.48862 
 H                    -2.28005  -8.41618   2.24273 
 H                    -4.22442  -9.58469   1.47213 
 H                    -4.729    -7.93438   1.87062 
 H                    -4.97839  -6.37169   0.0608 
 H                    -5.34529  -7.09126  -1.51739 
 H                    -6.95587  -7.60861   1.04036 
 H                    -7.36607  -6.4208   -0.21377 
 H                    -8.99759  -9.73609  -0.8573 
 H                    -8.87935  -8.83056   0.66779 
 H                    -10.81754  -8.06731  -0.55355 
 H                    -9.63232  -6.74825  -0.54734 
 H                    -11.78232  -7.10845  -2.60405 
 H                    -10.55114  -5.81839  -2.58351 
 H                    -10.67426  -6.91109  -3.98864 
 H                    -2.22781  -4.24739   0.67483 
 H                    -0.09278  -3.02528   0.63445 
 H                     7.36241   3.64202   1.15893 
 H                     7.61788   3.44493  -0.57416 
 H                     6.75961   4.86282   0.02953 
 H                     1.87339   4.17019  -0.6454 
 H                     0.8808    1.3258   -0.07777 
 H                    -0.047     4.90252  -1.14419 
 H                    -2.32735   5.57984  -1.6178 
 H                    -4.22613   5.65445  -2.57741 
 H                    -5.87744   5.06133  -2.3598 
 H                    -4.14755   6.20938  -0.09897 
 H                    -5.36591   7.12248  -1.00323 
 H                    -7.58115   6.01444  -1.08818 
 H                    -8.02768   5.14053   0.38596 
 H                    -7.6396    7.183     1.75133 
 H                    -7.1433    8.08273   0.30059 
 H                    -9.50915   8.69246   2.03734 
 H                    -9.05154   9.59764   0.57706 
 H                    -11.16684   8.90206  -0.54292 
 H                    -11.66644   8.01742   0.91385 
 H                    -12.76592   9.24048   2.57048 
 H                    -11.20205   9.93928   3.06861 
 H                    -12.54496   11.01014   2.60603 
 H                    -3.71474   1.59333  -0.75464 
 H                    -1.38675   0.90335  -0.26419 
 
 ITRead=  0  0  0  0  0  0  0  0  0  0  0  0  0  0  0  0  0  0  0  0
 ITRead=  0  0  0  0  0  0  0  0  0  0  0  0  0  0  0  0  0  0  0  0
 ITRead=  0  0  0  0  0  0  0  0  0  0  0  0  0  0  0  0  0  0  0  0
 ITRead=  0  0  0  0  0  0  0  0  0  0  0  0  0  0  0  0  0  0  0  0
 ITRead=  0  0  0  0  0  0  0  0  0  0  0  0  0  0  0  0  0  0  0  0
 ITRead=  0  0  0  0  0  0  0  0  0  0  0  0  0  0  0  0  0  0  0  0
 ITRead=  0
 MicOpt= -1 -1 -1 -1 -1 -1 -1 -1 -1 -1 -1 -1 -1 -1 -1 -1 -1 -1 -1 -1
 MicOpt= -1 -1 -1 -1 -1 -1 -1 -1 -1 -1 -1 -1 -1 -1 -1 -1 -1 -1 -1 -1
 MicOpt= -1 -1 -1 -1 -1 -1 -1 -1 -1 -1 -1 -1 -1 -1 -1 -1 -1 -1 -1 -1
 MicOpt= -1 -1 -1 -1 -1 -1 -1 -1 -1 -1 -1 -1 -1 -1 -1 -1 -1 -1 -1 -1
 MicOpt= -1 -1 -1 -1 -1 -1 -1 -1 -1 -1 -1 -1 -1 -1 -1 -1 -1 -1 -1 -1
 MicOpt= -1 -1 -1 -1 -1 -1 -1 -1 -1 -1 -1 -1 -1 -1 -1 -1 -1 -1 -1 -1
 MicOpt= -1
 NAtoms=    121 NQM=      121 NQMF=       0 NMMI=      0 NMMIF=      0
                NMic=       0 NMicF=      0.
                    Isotopes and Nuclear Properties:
 (Nuclear quadrupole moments (NQMom) in fm**2, nuclear magnetic moments (NMagM)
  in nuclear magnetons)

  Atom         1           2           3           4           5           6           7           8           9          10
 IAtWgt=          11          14          12          12          12          12          12          12          16          12
 AtmWgt=  11.0093053  14.0030740  12.0000000  12.0000000  12.0000000  12.0000000  12.0000000  12.0000000  15.9949146  12.0000000
 NucSpn=           3           2           0           0           0           0           0           0           0           0
 AtZEff=  -0.0000000  -0.0000000  -0.0000000  -0.0000000  -0.0000000  -0.0000000  -0.0000000  -0.0000000  -0.0000000  -0.0000000
 NQMom=    4.0590000   2.0440000   0.0000000   0.0000000   0.0000000   0.0000000   0.0000000   0.0000000   0.0000000   0.0000000
 NMagM=    2.6886370   0.4037610   0.0000000   0.0000000   0.0000000   0.0000000   0.0000000   0.0000000   0.0000000   0.0000000
 AtZNuc=   5.0000000   7.0000000   6.0000000   6.0000000   6.0000000   6.0000000   6.0000000   6.0000000   8.0000000   6.0000000

  Atom        11          12          13          14          15          16          17          18          19          20
 IAtWgt=          12          12          12          12          12          12          12          14          12          14
 AtmWgt=  12.0000000  12.0000000  12.0000000  12.0000000  12.0000000  12.0000000  12.0000000  14.0030740  12.0000000  14.0030740
 NucSpn=           0           0           0           0           0           0           0           2           0           2
 AtZEff=  -0.0000000  -0.0000000  -0.0000000  -0.0000000  -0.0000000  -0.0000000  -0.0000000  -0.0000000  -0.0000000  -0.0000000
 NQMom=    0.0000000   0.0000000   0.0000000   0.0000000   0.0000000   0.0000000   0.0000000   2.0440000   0.0000000   2.0440000
 NMagM=    0.0000000   0.0000000   0.0000000   0.0000000   0.0000000   0.0000000   0.0000000   0.4037610   0.0000000   0.4037610
 AtZNuc=   6.0000000   6.0000000   6.0000000   6.0000000   6.0000000   6.0000000   6.0000000   7.0000000   6.0000000   7.0000000

  Atom        21          22          23          24          25          26          27          28          29          30
 IAtWgt=          12          12          12          12          12          12          12          12          12          12
 AtmWgt=  12.0000000  12.0000000  12.0000000  12.0000000  12.0000000  12.0000000  12.0000000  12.0000000  12.0000000  12.0000000
 NucSpn=           0           0           0           0           0           0           0           0           0           0
 AtZEff=  -0.0000000  -0.0000000  -0.0000000  -0.0000000  -0.0000000  -0.0000000  -0.0000000  -0.0000000  -0.0000000  -0.0000000
 NQMom=    0.0000000   0.0000000   0.0000000   0.0000000   0.0000000   0.0000000   0.0000000   0.0000000   0.0000000   0.0000000
 NMagM=    0.0000000   0.0000000   0.0000000   0.0000000   0.0000000   0.0000000   0.0000000   0.0000000   0.0000000   0.0000000
 AtZNuc=   6.0000000   6.0000000   6.0000000   6.0000000   6.0000000   6.0000000   6.0000000   6.0000000   6.0000000   6.0000000

  Atom        31          32          33          34          35          36          37          38          39          40
 IAtWgt=          16          12          12          16          12          12          16          12          12          16
 AtmWgt=  15.9949146  12.0000000  12.0000000  15.9949146  12.0000000  12.0000000  15.9949146  12.0000000  12.0000000  15.9949146
 NucSpn=           0           0           0           0           0           0           0           0           0           0
 AtZEff=  -0.0000000  -0.0000000  -0.0000000  -0.0000000  -0.0000000  -0.0000000  -0.0000000  -0.0000000  -0.0000000  -0.0000000
 NQMom=    0.0000000   0.0000000   0.0000000   0.0000000   0.0000000   0.0000000   0.0000000   0.0000000   0.0000000   0.0000000
 NMagM=    0.0000000   0.0000000   0.0000000   0.0000000   0.0000000   0.0000000   0.0000000   0.0000000   0.0000000   0.0000000
 AtZNuc=   8.0000000   6.0000000   6.0000000   8.0000000   6.0000000   6.0000000   8.0000000   6.0000000   6.0000000   8.0000000

  Atom        41          42          43          44          45          46          47          48          49          50
 IAtWgt=          12          12          12          12          12          12          12          12          12          12
 AtmWgt=  12.0000000  12.0000000  12.0000000  12.0000000  12.0000000  12.0000000  12.0000000  12.0000000  12.0000000  12.0000000
 NucSpn=           0           0           0           0           0           0           0           0           0           0
 AtZEff=  -0.0000000  -0.0000000  -0.0000000  -0.0000000  -0.0000000  -0.0000000  -0.0000000  -0.0000000  -0.0000000  -0.0000000
 NQMom=    0.0000000   0.0000000   0.0000000   0.0000000   0.0000000   0.0000000   0.0000000   0.0000000   0.0000000   0.0000000
 NMagM=    0.0000000   0.0000000   0.0000000   0.0000000   0.0000000   0.0000000   0.0000000   0.0000000   0.0000000   0.0000000
 AtZNuc=   6.0000000   6.0000000   6.0000000   6.0000000   6.0000000   6.0000000   6.0000000   6.0000000   6.0000000   6.0000000

  Atom        51          52          53          54          55          56          57          58          59          60
 IAtWgt=          16          12          12          16          12          12          16          12          12          16
 AtmWgt=  15.9949146  12.0000000  12.0000000  15.9949146  12.0000000  12.0000000  15.9949146  12.0000000  12.0000000  15.9949146
 NucSpn=           0           0           0           0           0           0           0           0           0           0
 AtZEff=  -0.0000000  -0.0000000  -0.0000000  -0.0000000  -0.0000000  -0.0000000  -0.0000000  -0.0000000  -0.0000000  -0.0000000
 NQMom=    0.0000000   0.0000000   0.0000000   0.0000000   0.0000000   0.0000000   0.0000000   0.0000000   0.0000000   0.0000000
 NMagM=    0.0000000   0.0000000   0.0000000   0.0000000   0.0000000   0.0000000   0.0000000   0.0000000   0.0000000   0.0000000
 AtZNuc=   8.0000000   6.0000000   6.0000000   8.0000000   6.0000000   6.0000000   8.0000000   6.0000000   6.0000000   8.0000000

  Atom        61          62          63          64          65          66          67          68          69          70
 IAtWgt=          12          12          12          19          19           1           1           1           1           1
 AtmWgt=  12.0000000  12.0000000  12.0000000  18.9984033  18.9984033   1.0078250   1.0078250   1.0078250   1.0078250   1.0078250
 NucSpn=           0           0           0           1           1           1           1           1           1           1
 AtZEff=  -0.0000000  -0.0000000  -0.0000000  -0.0000000  -0.0000000  -0.0000000  -0.0000000  -0.0000000  -0.0000000  -0.0000000
 NQMom=    0.0000000   0.0000000   0.0000000   0.0000000   0.0000000   0.0000000   0.0000000   0.0000000   0.0000000   0.0000000
 NMagM=    0.0000000   0.0000000   0.0000000   2.6288670   2.6288670   2.7928460   2.7928460   2.7928460   2.7928460   2.7928460
 AtZNuc=   6.0000000   6.0000000   6.0000000   9.0000000   9.0000000   1.0000000   1.0000000   1.0000000   1.0000000   1.0000000

  Atom        71          72          73          74          75          76          77          78          79          80
 IAtWgt=           1           1           1           1           1           1           1           1           1           1
 AtmWgt=   1.0078250   1.0078250   1.0078250   1.0078250   1.0078250   1.0078250   1.0078250   1.0078250   1.0078250   1.0078250
 NucSpn=           1           1           1           1           1           1           1           1           1           1
 AtZEff=  -0.0000000  -0.0000000  -0.0000000  -0.0000000  -0.0000000  -0.0000000  -0.0000000  -0.0000000  -0.0000000  -0.0000000
 NQMom=    0.0000000   0.0000000   0.0000000   0.0000000   0.0000000   0.0000000   0.0000000   0.0000000   0.0000000   0.0000000
 NMagM=    2.7928460   2.7928460   2.7928460   2.7928460   2.7928460   2.7928460   2.7928460   2.7928460   2.7928460   2.7928460
 AtZNuc=   1.0000000   1.0000000   1.0000000   1.0000000   1.0000000   1.0000000   1.0000000   1.0000000   1.0000000   1.0000000

  Atom        81          82          83          84          85          86          87          88          89          90
 IAtWgt=           1           1           1           1           1           1           1           1           1           1
 AtmWgt=   1.0078250   1.0078250   1.0078250   1.0078250   1.0078250   1.0078250   1.0078250   1.0078250   1.0078250   1.0078250
 NucSpn=           1           1           1           1           1           1           1           1           1           1
 AtZEff=  -0.0000000  -0.0000000  -0.0000000  -0.0000000  -0.0000000  -0.0000000  -0.0000000  -0.0000000  -0.0000000  -0.0000000
 NQMom=    0.0000000   0.0000000   0.0000000   0.0000000   0.0000000   0.0000000   0.0000000   0.0000000   0.0000000   0.0000000
 NMagM=    2.7928460   2.7928460   2.7928460   2.7928460   2.7928460   2.7928460   2.7928460   2.7928460   2.7928460   2.7928460
 AtZNuc=   1.0000000   1.0000000   1.0000000   1.0000000   1.0000000   1.0000000   1.0000000   1.0000000   1.0000000   1.0000000

  Atom        91          92          93          94          95          96          97          98          99         100
 IAtWgt=           1           1           1           1           1           1           1           1           1           1
 AtmWgt=   1.0078250   1.0078250   1.0078250   1.0078250   1.0078250   1.0078250   1.0078250   1.0078250   1.0078250   1.0078250
 NucSpn=           1           1           1           1           1           1           1           1           1           1
 AtZEff=  -0.0000000  -0.0000000  -0.0000000  -0.0000000  -0.0000000  -0.0000000  -0.0000000  -0.0000000  -0.0000000  -0.0000000
 NQMom=    0.0000000   0.0000000   0.0000000   0.0000000   0.0000000   0.0000000   0.0000000   0.0000000   0.0000000   0.0000000
 NMagM=    2.7928460   2.7928460   2.7928460   2.7928460   2.7928460   2.7928460   2.7928460   2.7928460   2.7928460   2.7928460
 AtZNuc=   1.0000000   1.0000000   1.0000000   1.0000000   1.0000000   1.0000000   1.0000000   1.0000000   1.0000000   1.0000000

  Atom       101         102         103         104         105         106         107         108         109         110
 IAtWgt=           1           1           1           1           1           1           1           1           1           1
 AtmWgt=   1.0078250   1.0078250   1.0078250   1.0078250   1.0078250   1.0078250   1.0078250   1.0078250   1.0078250   1.0078250
 NucSpn=           1           1           1           1           1           1           1           1           1           1
 AtZEff=  -0.0000000  -0.0000000  -0.0000000  -0.0000000  -0.0000000  -0.0000000  -0.0000000  -0.0000000  -0.0000000  -0.0000000
 NQMom=    0.0000000   0.0000000   0.0000000   0.0000000   0.0000000   0.0000000   0.0000000   0.0000000   0.0000000   0.0000000
 NMagM=    2.7928460   2.7928460   2.7928460   2.7928460   2.7928460   2.7928460   2.7928460   2.7928460   2.7928460   2.7928460
 AtZNuc=   1.0000000   1.0000000   1.0000000   1.0000000   1.0000000   1.0000000   1.0000000   1.0000000   1.0000000   1.0000000

  Atom       111         112         113         114         115         116         117         118         119         120
 IAtWgt=           1           1           1           1           1           1           1           1           1           1
 AtmWgt=   1.0078250   1.0078250   1.0078250   1.0078250   1.0078250   1.0078250   1.0078250   1.0078250   1.0078250   1.0078250
 NucSpn=           1           1           1           1           1           1           1           1           1           1
 AtZEff=  -0.0000000  -0.0000000  -0.0000000  -0.0000000  -0.0000000  -0.0000000  -0.0000000  -0.0000000  -0.0000000  -0.0000000
 NQMom=    0.0000000   0.0000000   0.0000000   0.0000000   0.0000000   0.0000000   0.0000000   0.0000000   0.0000000   0.0000000
 NMagM=    2.7928460   2.7928460   2.7928460   2.7928460   2.7928460   2.7928460   2.7928460   2.7928460   2.7928460   2.7928460
 AtZNuc=   1.0000000   1.0000000   1.0000000   1.0000000   1.0000000   1.0000000   1.0000000   1.0000000   1.0000000   1.0000000

  Atom       121
 IAtWgt=           1
 AtmWgt=   1.0078250
 NucSpn=           1
 AtZEff=  -0.0000000
 NQMom=    0.0000000
 NMagM=    2.7928460
 AtZNuc=   1.0000000
 Leave Link  101 at Thu Oct 30 19:46:21 2025, MaxMem= 30870077440 cpu:               4.6 elap:               0.1
 (Enter /public/software/gauss/g16/l202.exe)
 Stoichiometry    C50H56BF2N3O9
 Framework group  C1[X(C50H56BF2N3O9)]
 Deg. of freedom   357
 Full point group                 C1      NOp   1
 Largest Abelian subgroup         C1      NOp   1
 Largest concise Abelian subgroup C1      NOp   1
                         Standard orientation:                         
 ---------------------------------------------------------------------
 Center     Atomic      Atomic             Coordinates (Angstroms)
 Number     Number       Type             X           Y           Z
 ---------------------------------------------------------------------
      1          5           0        3.190036   -0.142002   -0.174355
      2          7           0        3.890481   -1.524657   -0.115430
      3          6           0        3.329632   -2.750509    0.139244
      4          6           0        4.367030   -3.716655    0.157705
      5          6           0        5.578145   -3.091536   -0.074896
      6          6           0        5.275811   -1.699185   -0.233069
      7          6           0        6.123019   -0.605208   -0.476104
      8          6           0        7.623761   -0.826325   -0.489019
      9          8           0        8.208067   -1.073815   -1.530549
     10          6           0        8.310809   -0.695849    0.863082
     11          6           0        9.775938   -1.049622    0.868968
     12          6           0       10.709097   -0.250326    0.190498
     13          6           0       12.060849   -0.572642    0.196196
     14          6           0       12.498518   -1.714086    0.890895
     15          6           0       11.575844   -2.521700    1.575489
     16          6           0       10.226044   -2.184203    1.557432
     17          6           0       13.888396   -2.050804    0.903846
     18          7           0       15.021988   -2.325378    0.913989
     19          6           0        5.620085    0.683785   -0.682237
     20          7           0        4.247499    0.911864   -0.596817
     21          6           0        4.007631    2.231135   -0.852460
     22          6           0        5.250513    2.866269   -1.120730
     23          6           0        6.260000    1.927823   -1.022857
     24          6           0        7.709924    2.200528   -1.284470
     25          6           0        2.685776    2.798424   -0.845784
     26          6           0        2.439798    4.126553   -0.993588
     27          6           0        1.139721    4.778406   -1.001957
     28          6           0        1.080594    6.169264   -1.212444
     29          6           0       -0.126156    6.864547   -1.236901
     30          6           0       -1.323578    6.164053   -1.042256
     31          8           0       -2.563425    6.732565   -1.045440
     32          6           0       -2.674542    8.151039   -1.253991
     33          6           0       -4.138280    8.535197   -1.169223
     34          8           0       -4.643700    8.426755    0.162682
     35          6           0       -5.409125    7.248059    0.435517
     36          6           0       -6.865833    7.383239    0.032991
     37          8           0       -7.454342    8.430926    0.802349
     38          6           0       -8.792828    8.750959    0.425472
     39          6           0       -9.828427    7.761187    0.929924
     40          8           0       -9.810555    7.761269    2.353656
     41          6           0      -10.755017    6.851350    2.900395
     42          6           0       -1.290847    4.773665   -0.826559
     43          6           0       -0.084796    4.096469   -0.807471
     44          6           0        6.900517   -3.789422   -0.177900
     45          6           0        1.958813   -3.115920    0.393451
     46          6           0        0.824289   -2.368867    0.361863
     47          6           0       -0.520762   -2.841976    0.662547
     48          6           0       -0.833393   -4.160265    1.051705
     49          6           0       -2.138836   -4.554120    1.326248
     50          6           0       -3.185017   -3.622924    1.221619
     51          8           0       -4.501621   -3.882765    1.487816
     52          6           0       -4.919432   -5.209868    1.855809
     53          6           0       -5.088914   -6.121224    0.648722
     54          8           0       -6.046448   -5.610975   -0.282972
     55          6           0       -7.403695   -5.949171    0.007729
     56          6           0       -7.783687   -7.264807   -0.663793
     57          8           0       -9.148320   -7.527037   -0.355769
     58          6           0       -9.624418   -8.733227   -0.944702
     59          6           0      -11.091694   -8.880614   -0.549138
     60          8           0      -11.657980  -10.099389   -1.019531
     61          6           0      -12.054654  -10.057998   -2.388367
     62          6           0       -2.898941   -2.304712    0.833117
     63          6           0       -1.593160   -1.927841    0.561484
     64          9           0        2.643375    0.187384    1.072466
     65          9           0        2.163168   -0.156697   -1.136995
     66          1           0        4.211793   -4.775244    0.318993
     67          1           0        8.152738    0.343692    1.181734
     68          1           0        7.750694   -1.306575    1.579182
     69          1           0       10.374342    0.634263   -0.341749
     70          1           0       12.778965    0.048948   -0.327424
     71          1           0       11.918686   -3.398944    2.113147
     72          1           0        9.512806   -2.805809    2.089948
     73          1           0        5.379182    3.906983   -1.383483
     74          1           0        8.102042    1.571979   -2.089553
     75          1           0        7.840296    3.245455   -1.575803
     76          1           0        8.331295    2.023522   -0.400052
     77          1           0        1.863958    2.102665   -0.726162
     78          1           0        3.283850    4.801660   -1.120754
     79          1           0        2.005995    6.718457   -1.363535
     80          1           0       -0.123852    7.934067   -1.406423
     81          1           0       -2.100564    8.685767   -0.488623
     82          1           0       -2.280049    8.416179   -2.242732
     83          1           0       -4.224422    9.584693   -1.472133
     84          1           0       -4.728996    7.934384   -1.870617
     85          1           0       -4.978386    6.371692   -0.060796
     86          1           0       -5.345294    7.091263    1.517385
     87          1           0       -6.955870    7.608611   -1.040358
     88          1           0       -7.366066    6.420803    0.213765
     89          1           0       -8.997586    9.736091    0.857299
     90          1           0       -8.879354    8.830561   -0.667792
     91          1           0      -10.817544    8.067309    0.553547
     92          1           0       -9.632321    6.748254    0.547343
     93          1           0      -11.782315    7.108451    2.604047
     94          1           0      -10.551139    5.818388    2.583506
     95          1           0      -10.674261    6.911092    3.988640
     96          1           0       -2.227810    4.247389   -0.674833
     97          1           0       -0.092776    3.025280   -0.634451
     98          1           0        7.362409   -3.642024   -1.158929
     99          1           0        7.617882   -3.444930    0.574155
    100          1           0        6.759610   -4.862818   -0.029526
    101          1           0        1.873391   -4.170195    0.645404
    102          1           0        0.880800   -1.325799    0.077767
    103          1           0       -0.047003   -4.902520    1.144186
    104          1           0       -2.327352   -5.579843    1.617801
    105          1           0       -4.226131   -5.654451    2.577405
    106          1           0       -5.877436   -5.061330    2.359802
    107          1           0       -4.147552   -6.209382    0.098972
    108          1           0       -5.365912   -7.122479    1.003228
    109          1           0       -7.581151   -6.014440    1.088181
    110          1           0       -8.027681   -5.140528   -0.385962
    111          1           0       -7.639598   -7.182999   -1.751328
    112          1           0       -7.143303   -8.082735   -0.300585
    113          1           0       -9.509154   -8.692462   -2.037340
    114          1           0       -9.051543   -9.597644   -0.577056
    115          1           0      -11.166835   -8.902064    0.542924
    116          1           0      -11.666443   -8.017423   -0.913852
    117          1           0      -12.765922   -9.240479   -2.570476
    118          1           0      -11.202046   -9.939279   -3.068615
    119          1           0      -12.544956  -11.010139   -2.606029
    120          1           0       -3.714744   -1.593332    0.754641
    121          1           0       -1.386745   -0.903346    0.264188
 ---------------------------------------------------------------------
 Rotational constants (GHZ):           0.0199462           0.0111756           0.0073764
 Leave Link  202 at Thu Oct 30 19:46:21 2025, MaxMem= 30870077440 cpu:               0.2 elap:               0.0
 (Enter /public/software/gauss/g16/l301.exe)
 Standard basis: def2TZVPP (5D, 7F)
 Ernie: Thresh=  0.10000D-02 Tol=  0.10000D-05 Strict=F.
 There are  3180 symmetry adapted cartesian basis functions of A   symmetry.
 There are  2799 symmetry adapted basis functions of A   symmetry.
  2799 basis functions,  4267 primitive gaussians,  3180 cartesian basis functions
   236 alpha electrons      236 beta electrons
       nuclear repulsion energy      8259.5001331795 Hartrees.
 IExCor= 4336 DFT=T Ex+Corr=M062X ExCW=0 ScaHFX=  0.540000
 ScaDFX=  1.000000  1.000000  1.000000  1.000000 ScalE2=  1.000000  1.000000
 IRadAn=      5 IRanWt=     -1 IRanGd=            0 ICorTp=0 IEmpDi=131
 NAtoms=  121 NActive=  121 NUniq=  121 SFac= 1.00D+00 NAtFMM=   60 NAOKFM=T Big=T
 Integral buffers will be    131072 words long.
 Raffenetti 2 integral format.
 Two-electron integral symmetry is turned on.
 R6Disp:  Grimme-D3 Dispersion energy=       -0.0090522297 Hartrees.
 Nuclear repulsion after empirical dispersion term =     8259.4910809498 Hartrees.
 ------------------------------------------------------------------------------
 Polarizable Continuum Model (PCM)
 =================================
 Model                : PCM.
 Atomic radii         : UFF (Universal Force Field).
 Polarization charges : Total charges.
 Charge compensation  : None.
 Solution method      : On-the-fly selection.
 Cavity type          : Scaled VdW (van der Waals Surface) (Alpha=1.100).
 Cavity algorithm     : GePol (No added spheres)
                        Default sphere list used, NSphG=  121.
                        Lebedev-Laikov grids with approx.  5.0 points / Ang**2.
                        Smoothing algorithm: York/Karplus (Gamma=1.0000).
                        Polarization charges: spherical gaussians, with
                                              point-specific exponents (IZeta= 3).
                        Self-potential: point-specific (ISelfS= 7).
                        Self-field    : sphere-specific E.n sum rule (ISelfD= 2).
 Solvent              : Water, Eps=  78.355300 Eps(inf)=   1.777849
 ------------------------------------------------------------------------------
 GePol: Number of generator spheres                  =     121
 GePol: Total number of spheres                      =     121
 GePol: Number of exposed spheres                    =     121 (100.00%)
 GePol: Number of points                             =    8543
 GePol: Average weight of points                     =       0.13
 GePol: Minimum weight of points                     =   0.62D-11
 GePol: Maximum weight of points                     =    0.20577
 GePol: Number of points with low weight             =     605
 GePol: Fraction of low-weight points (<1% of avg)   =       7.08%
 GePol: Cavity surface area                          =   1087.998 Ang**2
 GePol: Cavity volume                                =   1230.073 Ang**3
 Leave Link  301 at Thu Oct 30 19:46:22 2025, MaxMem= 30870077440 cpu:               6.4 elap:               0.1
 (Enter /public/software/gauss/g16/l302.exe)
 NPDir=0 NMtPBC=     1 NCelOv=     1 NCel=       1 NClECP=     1 NCelD=      1
         NCelK=      1 NCelE2=     1 NClLst=     1 CellRange=     0.0.
 One-electron integrals computed using PRISM.
 One-electron integral symmetry used in STVInt
   1 Symmetry operations used in ECPInt.
 ECPInt:  NShTT=  552826 NPrTT= 1530224 LenC2=  221150 LenP2D=  410899.
 LDataN:  DoStor=T MaxTD1= 6 Len=  172
 Number of processors reduced to  60 by ecpmxn.
 NBasis=  2799 RedAO= T EigKep=  4.14D-06  NBF=  2799
 NBsUse=  2799 1.00D-06 EigRej= -1.00D+00 NBFU=  2799
 Precomputing XC quadrature grid using
 IXCGrd= 4 IRadAn=           5 IRanWt=          -1 IRanGd=           0 AccXCQ= 0.00D+00.
 Generated NRdTot=       0 NPtTot=           0 NUsed=           0 NTot=          32
 NSgBfM=  2379  2379  2379  2379  2379 MxSgAt=   121 MxSgA2=   121.
 Leave Link  302 at Thu Oct 30 19:46:49 2025, MaxMem= 30870077440 cpu:            1763.2 elap:              27.7
 (Enter /public/software/gauss/g16/l303.exe)
 DipDrv:  MaxL=1.
 Leave Link  303 at Thu Oct 30 19:46:50 2025, MaxMem= 30870077440 cpu:              53.3 elap:               0.9
 (Enter /public/software/gauss/g16/l401.exe)
 ExpMin= 6.06D-02 ExpMax= 3.55D+04 ExpMxC= 1.21D+03 IAcc=3 IRadAn=         5 AccDes= 0.00D+00
 Harris functional with IExCor= 1009 and IRadAn=       5 diagonalized for initial guess.
 HarFok:  IExCor= 1009 AccDes= 0.00D+00 IRadAn=         5 IDoV= 1 UseB2=F ITyADJ=14
 ICtDFT=  3500011 ScaDFX=  1.000000  1.000000  1.000000  1.000000
 FoFCou: FMM=F IPFlag=           0 FMFlag=      100000 FMFlg1=        2001
         NFxFlg=           0 DoJE=T BraDBF=F KetDBF=T FulRan=T
         wScrn=  0.000000 ICntrl=       500 IOpCl=  0 I1Cent=   200000004 NGrid=           0
         NMat0=    1 NMatS0=      1 NMatT0=    0 NMatD0=    1 NMtDS0=    0 NMtDT0=    0
 Petite list used in FoFCou.
 Harris En= -3003.33385029082    
 JPrj=0 DoOrth=F DoCkMO=F.
 Leave Link  401 at Thu Oct 30 19:47:11 2025, MaxMem= 30870077440 cpu:            1347.5 elap:              21.2
 (Enter /public/software/gauss/g16/l502.exe)
 Integral symmetry usage will be decided dynamically.
 Closed shell SCF:
 Using DIIS extrapolation, IDIIS=  1040.
 NGot= 30870077440 LenX= 30849622267 LenY= 30839506687
 Requested convergence on RMS density matrix=1.00D-08 within 128 cycles.
 Requested convergence on MAX density matrix=1.00D-06.
 Requested convergence on             energy=1.00D-06.
 No special actions if energy rises.
 Fock matrices will be formed incrementally for  20 cycles.

 Cycle   1  Pass 1  IDiag  1:
 FoFJK:  IHMeth= 1 ICntrl=       0 DoSepK=F KAlg= 0 I1Cent=           0 FoldK=F
 IRaf= 360000000 NMat=       1 IRICut=       1 DoRegI=T DoRafI=F ISym2E= 0 IDoP0=0 IntGTp=1.
 FoFCou: FMM=T IPFlag=           0 FMFlag=      100000 FMFlg1=        2001
         NFxFlg=           0 DoJE=F BraDBF=F KetDBF=F FulRan=T
         wScrn=  0.000000 ICntrl=         0 IOpCl=  0 I1Cent=           0 NGrid=           0
         NMat0=    1 NMatS0=      1 NMatT0=    0 NMatD0=    1 NMtDS0=    0 NMtDT0=    0
 Symmetry not used in FoFCou.
 FMM levels:  10  Number of levels for PrismC:   9
 Inv3:  Mode=1 IEnd=   218948547.
 Iteration    1 A*A^-1 deviation from unit magnitude is 1.29D-14 for   5875.
 Iteration    1 A*A^-1 deviation from orthogonality  is 7.35D-15 for   8514   3704.
 Iteration    1 A^-1*A deviation from unit magnitude is 1.29D-14 for   5875.
 Iteration    1 A^-1*A deviation from orthogonality  is 4.71D-15 for   8536   3838.
 E= -3003.53551983492    
 DIIS: error= 1.39D-02 at cycle   1 NSaved=   1.
 NSaved= 1 IEnMin= 1 EnMin= -3003.53551983492     IErMin= 1 ErrMin= 1.39D-02
 ErrMax= 1.39D-02  0.00D+00 EMaxC= 1.00D-01 BMatC= 1.80D+00 BMatP= 1.80D+00
 IDIUse=3 WtCom= 8.61D-01 WtEn= 1.39D-01
 Coeff-Com:  0.100D+01
 Coeff-En:   0.100D+01
 Coeff:      0.100D+01
 Gap=     0.118 Goal=   None    Shift=    0.000
 GapD=    0.118 DampG=1.000 DampE=0.500 DampFc=0.5000 IDamp=-1.
 Damping current iteration by 5.00D-01
 RMSDP=1.42D-03 MaxDP=6.08D-01              OVMax= 1.69D-01

 Cycle   2  Pass 1  IDiag  1:
 RMSU=  7.12D-04    CP:  1.01D+00
 E= -3004.23751281821     Delta-E=       -0.701992983288 Rises=F Damp=T
 DIIS: error= 4.92D-03 at cycle   2 NSaved=   2.
 NSaved= 2 IEnMin= 2 EnMin= -3004.23751281821     IErMin= 2 ErrMin= 4.92D-03
 ErrMax= 4.92D-03  0.00D+00 EMaxC= 1.00D-01 BMatC= 1.89D-01 BMatP= 1.80D+00
 IDIUse=3 WtCom= 9.51D-01 WtEn= 4.92D-02
 Coeff-Com: -0.179D+00 0.118D+01
 Coeff-En:   0.000D+00 0.100D+01
 Coeff:     -0.170D+00 0.117D+01
 Gap=     0.141 Goal=   None    Shift=    0.000
 RMSDP=4.67D-04 MaxDP=9.31D-02 DE=-7.02D-01 OVMax= 1.58D-01

 Cycle   3  Pass 1  IDiag  1:
 RMSU=  4.63D-04    CP:  9.87D-01  1.01D+00
 E= -3004.82189880901     Delta-E=       -0.584385990805 Rises=F Damp=F
 DIIS: error= 6.81D-03 at cycle   3 NSaved=   3.
 NSaved= 3 IEnMin= 3 EnMin= -3004.82189880901     IErMin= 2 ErrMin= 4.92D-03
 ErrMax= 6.81D-03  0.00D+00 EMaxC= 1.00D-01 BMatC= 9.44D-02 BMatP= 1.89D-01
 IDIUse=3 WtCom= 9.32D-01 WtEn= 6.81D-02
 Coeff-Com: -0.153D+00 0.542D+00 0.611D+00
 Coeff-En:   0.000D+00 0.000D+00 0.100D+01
 Coeff:     -0.143D+00 0.505D+00 0.637D+00
 Gap=     0.127 Goal=   None    Shift=    0.000
 RMSDP=1.85D-04 MaxDP=5.76D-02 DE=-5.84D-01 OVMax= 6.42D-02

 Cycle   4  Pass 1  IDiag  1:
 RMSU=  1.39D-04    CP:  9.92D-01  1.15D+00  8.32D-01
 E= -3004.88094798151     Delta-E=       -0.059049172498 Rises=F Damp=F
 DIIS: error= 3.79D-03 at cycle   4 NSaved=   4.
 NSaved= 4 IEnMin= 4 EnMin= -3004.88094798151     IErMin= 4 ErrMin= 3.79D-03
 ErrMax= 3.79D-03  0.00D+00 EMaxC= 1.00D-01 BMatC= 2.33D-02 BMatP= 9.44D-02
 IDIUse=3 WtCom= 9.62D-01 WtEn= 3.79D-02
 Coeff-Com: -0.523D-01 0.131D+00 0.368D+00 0.554D+00
 Coeff-En:   0.000D+00 0.000D+00 0.209D+00 0.791D+00
 Coeff:     -0.503D-01 0.126D+00 0.362D+00 0.563D+00
 Gap=     0.129 Goal=   None    Shift=    0.000
 RMSDP=7.76D-05 MaxDP=2.29D-02 DE=-5.90D-02 OVMax= 2.58D-02

 Cycle   5  Pass 1  IDiag  1:
 RMSU=  3.40D-05    CP:  9.89D-01  1.10D+00  8.99D-01  6.35D-01
 E= -3004.90007719259     Delta-E=       -0.019129211078 Rises=F Damp=F
 DIIS: error= 8.37D-04 at cycle   5 NSaved=   5.
 NSaved= 5 IEnMin= 5 EnMin= -3004.90007719259     IErMin= 5 ErrMin= 8.37D-04
 ErrMax= 8.37D-04  0.00D+00 EMaxC= 1.00D-01 BMatC= 7.46D-04 BMatP= 2.33D-02
 IDIUse=3 WtCom= 9.92D-01 WtEn= 8.37D-03
 Coeff-Com: -0.151D-01 0.309D-01 0.134D+00 0.259D+00 0.591D+00
 Coeff-En:   0.000D+00 0.000D+00 0.000D+00 0.000D+00 0.100D+01
 Coeff:     -0.150D-01 0.306D-01 0.133D+00 0.257D+00 0.594D+00
 Gap=     0.130 Goal=   None    Shift=    0.000
 RMSDP=1.55D-05 MaxDP=3.79D-03 DE=-1.91D-02 OVMax= 4.36D-03

 Cycle   6  Pass 1  IDiag  1:
 RMSU=  1.21D-05    CP:  9.89D-01  1.11D+00  8.93D-01  6.48D-01  8.49D-01
 E= -3004.90065435801     Delta-E=       -0.000577165420 Rises=F Damp=F
 DIIS: error= 2.50D-04 at cycle   6 NSaved=   6.
 NSaved= 6 IEnMin= 6 EnMin= -3004.90065435801     IErMin= 6 ErrMin= 2.50D-04
 ErrMax= 2.50D-04  0.00D+00 EMaxC= 1.00D-01 BMatC= 7.52D-05 BMatP= 7.46D-04
 IDIUse=3 WtCom= 9.98D-01 WtEn= 2.50D-03
 Coeff-Com: -0.150D-02 0.102D-02 0.244D-01 0.605D-01 0.280D+00 0.636D+00
 Coeff-En:   0.000D+00 0.000D+00 0.000D+00 0.000D+00 0.000D+00 0.100D+01
 Coeff:     -0.150D-02 0.102D-02 0.243D-01 0.604D-01 0.279D+00 0.637D+00
 Gap=     0.130 Goal=   None    Shift=    0.000
 RMSDP=3.95D-06 MaxDP=8.69D-04 DE=-5.77D-04 OVMax= 2.38D-03

 Cycle   7  Pass 1  IDiag  1:
 RMSU=  3.52D-06    CP:  9.89D-01  1.11D+00  8.93D-01  6.49D-01  8.99D-01
                    CP:  9.76D-01
 E= -3004.90072176540     Delta-E=       -0.000067407398 Rises=F Damp=F
 DIIS: error= 8.60D-05 at cycle   7 NSaved=   7.
 NSaved= 7 IEnMin= 7 EnMin= -3004.90072176540     IErMin= 7 ErrMin= 8.60D-05
 ErrMax= 8.60D-05  0.00D+00 EMaxC= 1.00D-01 BMatC= 7.73D-06 BMatP= 7.52D-05
 IDIUse=1 WtCom= 1.00D+00 WtEn= 0.00D+00
 Coeff-Com:  0.123D-02-0.331D-02-0.658D-02-0.770D-02 0.485D-01 0.269D+00
 Coeff-Com:  0.699D+00
 Coeff:      0.123D-02-0.331D-02-0.658D-02-0.770D-02 0.485D-01 0.269D+00
 Coeff:      0.699D+00
 Gap=     0.131 Goal=   None    Shift=    0.000
 RMSDP=3.02D-06 MaxDP=1.05D-03 DE=-6.74D-05 OVMax= 1.56D-03

 Cycle   8  Pass 1  IDiag  1:
 RMSU=  1.95D-06    CP:  9.89D-01  1.10D+00  8.95D-01  6.48D-01  9.32D-01
                    CP:  1.05D+00  9.57D-01
 E= -3004.90073111643     Delta-E=       -0.000009351030 Rises=F Damp=F
 DIIS: error= 4.62D-05 at cycle   8 NSaved=   8.
 NSaved= 8 IEnMin= 8 EnMin= -3004.90073111643     IErMin= 8 ErrMin= 4.62D-05
 ErrMax= 4.62D-05  0.00D+00 EMaxC= 1.00D-01 BMatC= 1.53D-06 BMatP= 7.73D-06
 IDIUse=1 WtCom= 1.00D+00 WtEn= 0.00D+00
 Coeff-Com:  0.903D-03-0.190D-02-0.750D-02-0.147D-01-0.226D-01 0.224D-01
 Coeff-Com:  0.335D+00 0.689D+00
 Coeff:      0.903D-03-0.190D-02-0.750D-02-0.147D-01-0.226D-01 0.224D-01
 Coeff:      0.335D+00 0.689D+00
 Gap=     0.131 Goal=   None    Shift=    0.000
 RMSDP=1.06D-06 MaxDP=2.45D-04 DE=-9.35D-06 OVMax= 7.48D-04

 Cycle   9  Pass 1  IDiag  1:
 RMSU=  6.84D-07    CP:  9.89D-01  1.10D+00  8.96D-01  6.48D-01  9.45D-01
                    CP:  1.08D+00  1.04D+00  1.18D+00
 E= -3004.90073330221     Delta-E=       -0.000002185778 Rises=F Damp=F
 DIIS: error= 1.87D-05 at cycle   9 NSaved=   9.
 NSaved= 9 IEnMin= 9 EnMin= -3004.90073330221     IErMin= 9 ErrMin= 1.87D-05
 ErrMax= 1.87D-05  0.00D+00 EMaxC= 1.00D-01 BMatC= 2.33D-07 BMatP= 1.53D-06
 IDIUse=1 WtCom= 1.00D+00 WtEn= 0.00D+00
 Coeff-Com:  0.214D-03-0.375D-03-0.228D-02-0.540D-02-0.160D-01-0.267D-01
 Coeff-Com:  0.429D-01 0.307D+00 0.701D+00
 Coeff:      0.214D-03-0.375D-03-0.228D-02-0.540D-02-0.160D-01-0.267D-01
 Coeff:      0.429D-01 0.307D+00 0.701D+00
 Gap=     0.131 Goal=   None    Shift=    0.000
 RMSDP=4.46D-07 MaxDP=1.65D-04 DE=-2.19D-06 OVMax= 4.77D-04

 Cycle  10  Pass 1  IDiag  1:
 RMSU=  2.88D-07    CP:  9.89D-01  1.10D+00  8.96D-01  6.48D-01  9.48D-01
                    CP:  1.09D+00  1.05D+00  1.28D+00  1.04D+00
 E= -3004.90073367550     Delta-E=       -0.000000373289 Rises=F Damp=F
 DIIS: error= 7.28D-06 at cycle  10 NSaved=  10.
 NSaved=10 IEnMin=10 EnMin= -3004.90073367550     IErMin=10 ErrMin= 7.28D-06
 ErrMax= 7.28D-06  0.00D+00 EMaxC= 1.00D-01 BMatC= 5.44D-08 BMatP= 2.33D-07
 IDIUse=1 WtCom= 1.00D+00 WtEn= 0.00D+00
 Coeff-Com: -0.799D-04 0.204D-03 0.387D-03 0.322D-03-0.330D-02-0.168D-01
 Coeff-Com: -0.481D-01 0.667D-02 0.362D+00 0.699D+00
 Coeff:     -0.799D-04 0.204D-03 0.387D-03 0.322D-03-0.330D-02-0.168D-01
 Coeff:     -0.481D-01 0.667D-02 0.362D+00 0.699D+00
 Gap=     0.131 Goal=   None    Shift=    0.000
 RMSDP=2.71D-07 MaxDP=8.58D-05 DE=-3.73D-07 OVMax= 2.07D-04

 Cycle  11  Pass 1  IDiag  1:
 RMSU=  1.22D-07    CP:  9.89D-01  1.10D+00  8.96D-01  6.48D-01  9.49D-01
                    CP:  1.09D+00  1.05D+00  1.37D+00  1.19D+00  1.09D+00
 E= -3004.90073376186     Delta-E=       -0.000000086357 Rises=F Damp=F
 DIIS: error= 1.69D-06 at cycle  11 NSaved=  11.
 NSaved=11 IEnMin=11 EnMin= -3004.90073376186     IErMin=11 ErrMin= 1.69D-06
 ErrMax= 1.69D-06  0.00D+00 EMaxC= 1.00D-01 BMatC= 6.85D-09 BMatP= 5.44D-08
 IDIUse=1 WtCom= 1.00D+00 WtEn= 0.00D+00
 Coeff-Com: -0.737D-04 0.161D-03 0.567D-03 0.113D-02 0.115D-02-0.276D-02
 Coeff-Com: -0.289D-01-0.504D-01 0.554D-01 0.307D+00 0.717D+00
 Coeff:     -0.737D-04 0.161D-03 0.567D-03 0.113D-02 0.115D-02-0.276D-02
 Coeff:     -0.289D-01-0.504D-01 0.554D-01 0.307D+00 0.717D+00
 Gap=     0.131 Goal=   None    Shift=    0.000
 RMSDP=1.20D-07 MaxDP=4.39D-05 DE=-8.64D-08 OVMax= 7.42D-05

 Cycle  12  Pass 1  IDiag  1:
 RMSU=  4.89D-08    CP:  9.89D-01  1.10D+00  8.96D-01  6.48D-01  9.50D-01
                    CP:  1.09D+00  1.05D+00  1.39D+00  1.24D+00  1.23D+00
                    CP:  1.11D+00
 E= -3004.90073377430     Delta-E=       -0.000000012438 Rises=F Damp=F
 DIIS: error= 3.99D-07 at cycle  12 NSaved=  12.
 NSaved=12 IEnMin=12 EnMin= -3004.90073377430     IErMin=12 ErrMin= 3.99D-07
 ErrMax= 3.99D-07  0.00D+00 EMaxC= 1.00D-01 BMatC= 1.02D-09 BMatP= 6.85D-09
 IDIUse=1 WtCom= 1.00D+00 WtEn= 0.00D+00
 Coeff-Com: -0.212D-04 0.422D-04 0.191D-03 0.465D-03 0.854D-03 0.998D-03
 Coeff-Com: -0.611D-02-0.240D-01-0.221D-01 0.352D-01 0.306D+00 0.709D+00
 Coeff:     -0.212D-04 0.422D-04 0.191D-03 0.465D-03 0.854D-03 0.998D-03
 Coeff:     -0.611D-02-0.240D-01-0.221D-01 0.352D-01 0.306D+00 0.709D+00
 Gap=     0.131 Goal=   None    Shift=    0.000
 RMSDP=2.78D-08 MaxDP=6.54D-06 DE=-1.24D-08 OVMax= 3.05D-05

 Cycle  13  Pass 1  IDiag  1:
 RMSU=  1.75D-08    CP:  9.89D-01  1.10D+00  8.96D-01  6.48D-01  9.50D-01
                    CP:  1.09D+00  1.05D+00  1.40D+00  1.26D+00  1.27D+00
                    CP:  1.19D+00  1.14D+00
 E= -3004.90073377593     Delta-E=       -0.000000001630 Rises=F Damp=F
 DIIS: error= 1.42D-07 at cycle  13 NSaved=  13.
 NSaved=13 IEnMin=13 EnMin= -3004.90073377593     IErMin=13 ErrMin= 1.42D-07
 ErrMax= 1.42D-07  0.00D+00 EMaxC= 1.00D-01 BMatC= 1.54D-10 BMatP= 1.02D-09
 IDIUse=1 WtCom= 1.00D+00 WtEn= 0.00D+00
 Coeff-Com:  0.380D-05-0.944D-05-0.202D-04 0.658D-05 0.118D-03 0.838D-03
 Coeff-Com:  0.257D-02-0.143D-02-0.161D-01-0.389D-01-0.408D-02 0.267D+00
 Coeff-Com:  0.790D+00
 Coeff:      0.380D-05-0.944D-05-0.202D-04 0.658D-05 0.118D-03 0.838D-03
 Coeff:      0.257D-02-0.143D-02-0.161D-01-0.389D-01-0.408D-02 0.267D+00
 Coeff:      0.790D+00
 Gap=     0.131 Goal=   None    Shift=    0.000
 RMSDP=1.48D-08 MaxDP=2.94D-06 DE=-1.63D-09 OVMax= 1.44D-05

 Cycle  14  Pass 1  IDiag  1:
 RMSU=  7.28D-09    CP:  9.89D-01  1.10D+00  8.96D-01  6.48D-01  9.50D-01
                    CP:  1.09D+00  1.05D+00  1.40D+00  1.26D+00  1.28D+00
                    CP:  1.24D+00  1.28D+00  1.26D+00
 E= -3004.90073377584     Delta-E=        0.000000000082 Rises=F Damp=F
 DIIS: error= 6.65D-08 at cycle  14 NSaved=  14.
 NSaved=14 IEnMin=13 EnMin= -3004.90073377593     IErMin=14 ErrMin= 6.65D-08
 ErrMax= 6.65D-08  0.00D+00 EMaxC= 1.00D-01 BMatC= 2.38D-11 BMatP= 1.54D-10
 IDIUse=1 WtCom= 1.00D+00 WtEn= 0.00D+00
 Coeff-Com:  0.396D-05-0.855D-05-0.330D-04-0.565D-04-0.831D-04 0.132D-03
 Coeff-Com:  0.172D-02 0.262D-02-0.142D-02-0.180D-01-0.455D-01-0.113D-01
 Coeff-Com:  0.273D+00 0.799D+00
 Coeff:      0.396D-05-0.855D-05-0.330D-04-0.565D-04-0.831D-04 0.132D-03
 Coeff:      0.172D-02 0.262D-02-0.142D-02-0.180D-01-0.455D-01-0.113D-01
 Coeff:      0.273D+00 0.799D+00
 Gap=     0.131 Goal=   None    Shift=    0.000
 RMSDP=6.29D-09 MaxDP=1.17D-06 DE= 8.19D-11 OVMax= 8.78D-06

 Cycle  15  Pass 1  IDiag  1:
 RMSU=  3.25D-09    CP:  9.89D-01  1.10D+00  8.96D-01  6.48D-01  9.50D-01
                    CP:  1.09D+00  1.05D+00  1.40D+00  1.26D+00  1.29D+00
                    CP:  1.26D+00  1.32D+00  1.47D+00  1.31D+00
 E= -3004.90073377613     Delta-E=       -0.000000000291 Rises=F Damp=F
 DIIS: error= 3.42D-08 at cycle  15 NSaved=  15.
 NSaved=15 IEnMin=15 EnMin= -3004.90073377613     IErMin=15 ErrMin= 3.42D-08
 ErrMax= 3.42D-08  0.00D+00 EMaxC= 1.00D-01 BMatC= 6.10D-12 BMatP= 2.38D-11
 IDIUse=1 WtCom= 1.00D+00 WtEn= 0.00D+00
 Coeff-Com:  0.573D-06-0.106D-05-0.787D-05-0.197D-04-0.549D-04-0.119D-03
 Coeff-Com:  0.134D-03 0.118D-02 0.289D-02 0.755D-03-0.170D-01-0.582D-01
 Coeff-Com: -0.581D-01 0.311D+00 0.817D+00
 Coeff:      0.573D-06-0.106D-05-0.787D-05-0.197D-04-0.549D-04-0.119D-03
 Coeff:      0.134D-03 0.118D-02 0.289D-02 0.755D-03-0.170D-01-0.582D-01
 Coeff:     -0.581D-01 0.311D+00 0.817D+00
 Gap=     0.131 Goal=   None    Shift=    0.000
 RMSDP=3.81D-09 MaxDP=6.43D-07 DE=-2.91D-10 OVMax= 5.91D-06

 Error on total polarization charges =  0.03273
 SCF Done:  E(RM062X) =  -3004.90073378     A.U. after   15 cycles
            NFock= 15  Conv=0.38D-08     -V/T= 2.0054
 KE= 2.988662689189D+03 PE=-2.353002337061D+04 EE= 9.276968866693D+03
 Leave Link  502 at Thu Oct 30 20:13:49 2025, MaxMem= 30870077440 cpu:           99853.0 elap:            1597.3
 (Enter /public/software/gauss/g16/l601.exe)
 Copying SCF densities to generalized density rwf, IOpCl= 0 IROHF=0.
 Hyperfine terms turned off by default for NAtoms > 100.

 **********************************************************************

            Population analysis using the SCF density.

 **********************************************************************

 Orbital symmetries:
       Occupied  (A) (A) (A) (A) (A) (A) (A) (A) (A) (A) (A) (A)
                 (A) (A) (A) (A) (A) (A) (A) (A) (A) (A) (A) (A)
                 (A) (A) (A) (A) (A) (A) (A) (A) (A) (A) (A) (A)
                 (A) (A) (A) (A) (A) (A) (A) (A) (A) (A) (A) (A)
                 (A) (A) (A) (A) (A) (A) (A) (A) (A) (A) (A) (A)
                 (A) (A) (A) (A) (A) (A) (A) (A) (A) (A) (A) (A)
                 (A) (A) (A) (A) (A) (A) (A) (A) (A) (A) (A) (A)
                 (A) (A) (A) (A) (A) (A) (A) (A) (A) (A) (A) (A)
                 (A) (A) (A) (A) (A) (A) (A) (A) (A) (A) (A) (A)
                 (A) (A) (A) (A) (A) (A) (A) (A) (A) (A) (A) (A)
                 (A) (A) (A) (A) (A) (A) (A) (A) (A) (A) (A) (A)
                 (A) (A) (A) (A) (A) (A) (A) (A) (A) (A) (A) (A)
                 (A) (A) (A) (A) (A) (A) (A) (A) (A) (A) (A) (A)
                 (A) (A) (A) (A) (A) (A) (A) (A) (A) (A) (A) (A)
                 (A) (A) (A) (A) (A) (A) (A) (A) (A) (A) (A) (A)
                 (A) (A) (A) (A) (A) (A) (A) (A) (A) (A) (A) (A)
                 (A) (A) (A) (A) (A) (A) (A) (A) (A) (A) (A) (A)
                 (A) (A) (A) (A) (A) (A) (A) (A) (A) (A) (A) (A)
                 (A) (A) (A) (A) (A) (A) (A) (A) (A) (A) (A) (A)
                 (A) (A) (A) (A) (A) (A) (A) (A)
       Virtual   (A) (A) (A) (A) (A) (A) (A) (A) (A) (A) (A) (A)
                 (A) (A) (A) (A) (A) (A) (A) (A) (A) (A) (A) (A)
                 (A) (A) (A) (A) (A) (A) (A) (A) (A) (A) (A) (A)
                 (A) (A) (A) (A) (A) (A) (A) (A) (A) (A) (A) (A)
                 (A) (A) (A) (A) (A) (A) (A) (A) (A) (A) (A) (A)
                 (A) (A) (A) (A) (A) (A) (A) (A) (A) (A) (A) (A)
                 (A) (A) (A) (A) (A) (A) (A) (A) (A) (A) (A) (A)
                 (A) (A) (A) (A) (A) (A) (A) (A) (A) (A) (A) (A)
                 (A) (A) (A) (A) (A) (A) (A) (A) (A) (A) (A) (A)
                 (A) (A) (A) (A) (A) (A) (A) (A) (A) (A) (A) (A)
                 (A) (A) (A) (A) (A) (A) (A) (A) (A) (A) (A) (A)
                 (A) (A) (A) (A) (A) (A) (A) (A) (A) (A) (A) (A)
                 (A) (A) (A) (A) (A) (A) (A) (A) (A) (A) (A) (A)
                 (A) (A) (A) (A) (A) (A) (A) (A) (A) (A) (A) (A)
                 (A) (A) (A) (A) (A) (A) (A) (A) (A) (A) (A) (A)
                 (A) (A) (A) (A) (A) (A) (A) (A) (A) (A) (A) (A)
                 (A) (A) (A) (A) (A) (A) (A) (A) (A) (A) (A) (A)
                 (A) (A) (A) (A) (A) (A) (A) (A) (A) (A) (A) (A)
                 (A) (A) (A) (A) (A) (A) (A) (A) (A) (A) (A) (A)
                 (A) (A) (A) (A) (A) (A) (A) (A) (A) (A) (A) (A)
                 (A) (A) (A) (A) (A) (A) (A) (A) (A) (A) (A) (A)
                 (A) (A) (A) (A) (A) (A) (A) (A) (A) (A) (A) (A)
                 (A) (A) (A) (A) (A) (A) (A) (A) (A) (A) (A) (A)
                 (A) (A) (A) (A) (A) (A) (A) (A) (A) (A) (A) (A)
                 (A) (A) (A) (A) (A) (A) (A) (A) (A) (A) (A) (A)
                 (A) (A) (A) (A) (A) (A) (A) (A) (A) (A) (A) (A)
                 (A) (A) (A) (A) (A) (A) (A) (A) (A) (A) (A) (A)
                 (A) (A) (A) (A) (A) (A) (A) (A) (A) (A) (A) (A)
                 (A) (A) (A) (A) (A) (A) (A) (A) (A) (A) (A) (A)
                 (A) (A) (A) (A) (A) (A) (A) (A) (A) (A) (A) (A)
                 (A) (A) (A) (A) (A) (A) (A) (A) (A) (A) (A) (A)
                 (A) (A) (A) (A) (A) (A) (A) (A) (A) (A) (A) (A)
                 (A) (A) (A) (A) (A) (A) (A) (A) (A) (A) (A) (A)
                 (A) (A) (A) (A) (A) (A) (A) (A) (A) (A) (A) (A)
                 (A) (A) (A) (A) (A) (A) (A) (A) (A) (A) (A) (A)
                 (A) (A) (A) (A) (A) (A) (A) (A) (A) (A) (A) (A)
                 (A) (A) (A) (A) (A) (A) (A) (A) (A) (A) (A) (A)
                 (A) (A) (A) (A) (A) (A) (A) (A) (A) (A) (A) (A)
                 (A) (A) (A) (A) (A) (A) (A) (A) (A) (A) (A) (A)
                 (A) (A) (A) (A) (A) (A) (A) (A) (A) (A) (A) (A)
                 (A) (A) (A) (A) (A) (A) (A) (A) (A) (A) (A) (A)
                 (A) (A) (A) (A) (A) (A) (A) (A) (A) (A) (A) (A)
                 (A) (A) (A) (A) (A) (A) (A) (A) (A) (A) (A) (A)
                 (A) (A) (A) (A) (A) (A) (A) (A) (A) (A) (A) (A)
                 (A) (A) (A) (A) (A) (A) (A) (A) (A) (A) (A) (A)
                 (A) (A) (A) (A) (A) (A) (A) (A) (A) (A) (A) (A)
                 (A) (A) (A) (A) (A) (A) (A) (A) (A) (A) (A) (A)
                 (A) (A) (A) (A) (A) (A) (A) (A) (A) (A) (A) (A)
                 (A) (A) (A) (A) (A) (A) (A) (A) (A) (A) (A) (A)
                 (A) (A) (A) (A) (A) (A) (A) (A) (A) (A) (A) (A)
                 (A) (A) (A) (A) (A) (A) (A) (A) (A) (A) (A) (A)
                 (A) (A) (A) (A) (A) (A) (A) (A) (A) (A) (A) (A)
                 (A) (A) (A) (A) (A) (A) (A) (A) (A) (A) (A) (A)
                 (A) (A) (A) (A) (A) (A) (A) (A) (A) (A) (A) (A)
                 (A) (A) (A) (A) (A) (A) (A) (A) (A) (A) (A) (A)
                 (A) (A) (A) (A) (A) (A) (A) (A) (A) (A) (A) (A)
                 (A) (A) (A) (A) (A) (A) (A) (A) (A) (A) (A) (A)
                 (A) (A) (A) (A) (A) (A) (A) (A) (A) (A) (A) (A)
                 (A) (A) (A) (A) (A) (A) (A) (A) (A) (A) (A) (A)
                 (A) (A) (A) (A) (A) (A) (A) (A) (A) (A) (A) (A)
                 (A) (A) (A) (A) (A) (A) (A) (A) (A) (A) (A) (A)
                 (A) (A) (A) (A) (A) (A) (A) (A) (A) (A) (A) (A)
                 (A) (A) (A) (A) (A) (A) (A) (A) (A) (A) (A) (A)
                 (A) (A) (A) (A) (A) (A) (A) (A) (A) (A) (A) (A)
                 (A) (A) (A) (A) (A) (A) (A) (A) (A) (A) (A) (A)
                 (A) (A) (A) (A) (A) (A) (A) (A) (A) (A) (A) (A)
                 (A) (A) (A) (A) (A) (A) (A) (A) (A) (A) (A) (A)
                 (A) (A) (A) (A) (A) (A) (A) (A) (A) (A) (A) (A)
                 (A) (A) (A) (A) (A) (A) (A) (A) (A) (A) (A) (A)
                 (A) (A) (A) (A) (A) (A) (A) (A) (A) (A) (A) (A)
                 (A) (A) (A) (A) (A) (A) (A) (A) (A) (A) (A) (A)
                 (A) (A) (A) (A) (A) (A) (A) (A) (A) (A) (A) (A)
                 (A) (A) (A) (A) (A) (A) (A) (A) (A) (A) (A) (A)
                 (A) (A) (A) (A) (A) (A) (A) (A) (A) (A) (A) (A)
                 (A) (A) (A) (A) (A) (A) (A) (A) (A) (A) (A) (A)
                 (A) (A) (A) (A) (A) (A) (A) (A) (A) (A) (A) (A)
                 (A) (A) (A) (A) (A) (A) (A) (A) (A) (A) (A) (A)
                 (A) (A) (A) (A) (A) (A) (A) (A) (A) (A) (A) (A)
                 (A) (A) (A) (A) (A) (A) (A) (A) (A) (A) (A) (A)
                 (A) (A) (A) (A) (A) (A) (A) (A) (A) (A) (A) (A)
                 (A) (A) (A) (A) (A) (A) (A) (A) (A) (A) (A) (A)
                 (A) (A) (A) (A) (A) (A) (A) (A) (A) (A) (A) (A)
                 (A) (A) (A) (A) (A) (A) (A) (A) (A) (A) (A) (A)
                 (A) (A) (A) (A) (A) (A) (A) (A) (A) (A) (A) (A)
                 (A) (A) (A) (A) (A) (A) (A) (A) (A) (A) (A) (A)
                 (A) (A) (A) (A) (A) (A) (A) (A) (A) (A) (A) (A)
                 (A) (A) (A) (A) (A) (A) (A) (A) (A) (A) (A) (A)
                 (A) (A) (A) (A) (A) (A) (A) (A) (A) (A) (A) (A)
                 (A) (A) (A) (A) (A) (A) (A) (A) (A) (A) (A) (A)
                 (A) (A) (A) (A) (A) (A) (A) (A) (A) (A) (A) (A)
                 (A) (A) (A) (A) (A) (A) (A) (A) (A) (A) (A) (A)
                 (A) (A) (A) (A) (A) (A) (A) (A) (A) (A) (A) (A)
                 (A) (A) (A) (A) (A) (A) (A) (A) (A) (A) (A) (A)
                 (A) (A) (A) (A) (A) (A) (A) (A) (A) (A) (A) (A)
                 (A) (A) (A) (A) (A) (A) (A) (A) (A) (A) (A) (A)
                 (A) (A) (A) (A) (A) (A) (A) (A) (A) (A) (A) (A)
                 (A) (A) (A) (A) (A) (A) (A) (A) (A) (A) (A) (A)
                 (A) (A) (A) (A) (A) (A) (A) (A) (A) (A) (A) (A)
                 (A) (A) (A) (A) (A) (A) (A) (A) (A) (A) (A) (A)
                 (A) (A) (A) (A) (A) (A) (A) (A) (A) (A) (A) (A)
                 (A) (A) (A) (A) (A) (A) (A) (A) (A) (A) (A) (A)
                 (A) (A) (A) (A) (A) (A) (A) (A) (A) (A) (A) (A)
                 (A) (A) (A) (A) (A) (A) (A) (A) (A) (A) (A) (A)
                 (A) (A) (A) (A) (A) (A) (A) (A) (A) (A) (A) (A)
                 (A) (A) (A) (A) (A) (A) (A) (A) (A) (A) (A) (A)
                 (A) (A) (A) (A) (A) (A) (A) (A) (A) (A) (A) (A)
                 (A) (A) (A) (A) (A) (A) (A) (A) (A) (A) (A) (A)
                 (A) (A) (A) (A) (A) (A) (A) (A) (A) (A) (A) (A)
                 (A) (A) (A) (A) (A) (A) (A) (A) (A) (A) (A) (A)
                 (A) (A) (A) (A) (A) (A) (A) (A) (A) (A) (A) (A)
                 (A) (A) (A) (A) (A) (A) (A) (A) (A) (A) (A) (A)
                 (A) (A) (A) (A) (A) (A) (A) (A) (A) (A) (A) (A)
                 (A) (A) (A) (A) (A) (A) (A) (A) (A) (A) (A) (A)
                 (A) (A) (A) (A) (A) (A) (A) (A) (A) (A) (A) (A)
                 (A) (A) (A) (A) (A) (A) (A) (A) (A) (A) (A) (A)
                 (A) (A) (A) (A) (A) (A) (A) (A) (A) (A) (A) (A)
                 (A) (A) (A) (A) (A) (A) (A) (A) (A) (A) (A) (A)
                 (A) (A) (A) (A) (A) (A) (A) (A) (A) (A) (A) (A)
                 (A) (A) (A) (A) (A) (A) (A) (A) (A) (A) (A) (A)
                 (A) (A) (A) (A) (A) (A) (A) (A) (A) (A) (A) (A)
                 (A) (A) (A) (A) (A) (A) (A) (A) (A) (A) (A) (A)
                 (A) (A) (A) (A) (A) (A) (A) (A) (A) (A) (A) (A)
                 (A) (A) (A) (A) (A) (A) (A) (A) (A) (A) (A) (A)
                 (A) (A) (A) (A) (A) (A) (A) (A) (A) (A) (A) (A)
                 (A) (A) (A) (A) (A) (A) (A) (A) (A) (A) (A) (A)
                 (A) (A) (A) (A) (A) (A) (A) (A) (A) (A) (A) (A)
                 (A) (A) (A) (A) (A) (A) (A) (A) (A) (A) (A) (A)
                 (A) (A) (A) (A) (A) (A) (A) (A) (A) (A) (A) (A)
                 (A) (A) (A) (A) (A) (A) (A) (A) (A) (A) (A) (A)
                 (A) (A) (A) (A) (A) (A) (A) (A) (A) (A) (A) (A)
                 (A) (A) (A) (A) (A) (A) (A) (A) (A) (A) (A) (A)
                 (A) (A) (A) (A) (A) (A) (A) (A) (A) (A) (A) (A)
                 (A) (A) (A) (A) (A) (A) (A) (A) (A) (A) (A) (A)
                 (A) (A) (A) (A) (A) (A) (A) (A) (A) (A) (A) (A)
                 (A) (A) (A) (A) (A) (A) (A) (A) (A) (A) (A) (A)
                 (A) (A) (A) (A) (A) (A) (A) (A) (A) (A) (A) (A)
                 (A) (A) (A) (A) (A) (A) (A) (A) (A) (A) (A) (A)
                 (A) (A) (A) (A) (A) (A) (A) (A) (A) (A) (A) (A)
                 (A) (A) (A) (A) (A) (A) (A) (A) (A) (A) (A) (A)
                 (A) (A) (A) (A) (A) (A) (A) (A) (A) (A) (A) (A)
                 (A) (A) (A) (A) (A) (A) (A) (A) (A) (A) (A) (A)
                 (A) (A) (A) (A) (A) (A) (A) (A) (A) (A) (A) (A)
                 (A) (A) (A) (A) (A) (A) (A) (A) (A) (A) (A) (A)
                 (A) (A) (A) (A) (A) (A) (A) (A) (A) (A) (A) (A)
                 (A) (A) (A) (A) (A) (A) (A) (A) (A) (A) (A) (A)
                 (A) (A) (A) (A) (A) (A) (A) (A) (A) (A) (A) (A)
                 (A) (A) (A) (A) (A) (A) (A) (A) (A) (A) (A) (A)
                 (A) (A) (A) (A) (A) (A) (A) (A) (A) (A) (A) (A)
                 (A) (A) (A) (A) (A) (A) (A) (A) (A) (A) (A) (A)
                 (A) (A) (A) (A) (A) (A) (A) (A) (A) (A) (A) (A)
                 (A) (A) (A) (A) (A) (A) (A) (A) (A) (A) (A) (A)
                 (A) (A) (A) (A) (A) (A) (A) (A) (A) (A) (A) (A)
                 (A) (A) (A) (A) (A) (A) (A) (A) (A) (A) (A) (A)
                 (A) (A) (A) (A) (A) (A) (A) (A) (A) (A) (A) (A)
                 (A) (A) (A) (A) (A) (A) (A) (A) (A) (A) (A) (A)
                 (A) (A) (A) (A) (A) (A) (A) (A) (A) (A) (A) (A)
                 (A) (A) (A) (A) (A) (A) (A) (A) (A) (A) (A) (A)
                 (A) (A) (A) (A) (A) (A) (A) (A) (A) (A) (A) (A)
                 (A) (A) (A) (A) (A) (A) (A) (A) (A) (A) (A) (A)
                 (A) (A) (A) (A) (A) (A) (A) (A) (A) (A) (A) (A)
                 (A) (A) (A) (A) (A) (A) (A) (A) (A) (A) (A) (A)
                 (A) (A) (A) (A) (A) (A) (A) (A) (A) (A) (A) (A)
                 (A) (A) (A) (A) (A) (A) (A) (A) (A) (A) (A) (A)
                 (A) (A) (A) (A) (A) (A) (A) (A) (A) (A) (A) (A)
                 (A) (A) (A) (A) (A) (A) (A) (A) (A) (A) (A) (A)
                 (A) (A) (A) (A) (A) (A) (A) (A) (A) (A) (A) (A)
                 (A) (A) (A) (A) (A) (A) (A) (A) (A) (A) (A) (A)
                 (A) (A) (A) (A) (A) (A) (A) (A) (A) (A) (A) (A)
                 (A) (A) (A) (A) (A) (A) (A) (A) (A) (A) (A) (A)
                 (A) (A) (A) (A) (A) (A) (A) (A) (A) (A) (A) (A)
                 (A) (A) (A) (A) (A) (A) (A) (A) (A) (A) (A) (A)
                 (A) (A) (A) (A) (A) (A) (A) (A) (A) (A) (A) (A)
                 (A) (A) (A) (A) (A) (A) (A) (A) (A) (A) (A) (A)
                 (A) (A) (A) (A) (A) (A) (A) (A) (A) (A) (A) (A)
                 (A) (A) (A) (A) (A) (A) (A) (A) (A) (A) (A) (A)
                 (A) (A) (A) (A) (A) (A) (A) (A) (A) (A) (A) (A)
                 (A) (A) (A) (A) (A) (A) (A) (A) (A) (A) (A) (A)
                 (A) (A) (A) (A) (A) (A) (A) (A) (A) (A) (A) (A)
                 (A) (A) (A) (A) (A) (A) (A) (A) (A) (A) (A) (A)
                 (A) (A) (A) (A) (A) (A) (A) (A) (A) (A) (A) (A)
                 (A) (A) (A) (A) (A) (A) (A) (A) (A) (A) (A) (A)
                 (A) (A) (A) (A) (A) (A) (A) (A) (A) (A) (A) (A)
                 (A) (A) (A) (A) (A) (A) (A) (A) (A) (A) (A) (A)
                 (A) (A) (A) (A) (A) (A) (A) (A) (A) (A) (A) (A)
                 (A) (A) (A) (A) (A) (A) (A) (A) (A) (A) (A) (A)
                 (A) (A) (A) (A) (A) (A) (A) (A) (A) (A) (A) (A)
                 (A) (A) (A) (A) (A) (A) (A) (A) (A) (A) (A) (A)
                 (A) (A) (A) (A) (A) (A) (A) (A) (A) (A) (A) (A)
                 (A) (A) (A) (A) (A) (A) (A) (A) (A) (A) (A) (A)
                 (A) (A) (A) (A) (A) (A) (A) (A) (A) (A) (A) (A)
                 (A) (A) (A) (A) (A) (A) (A) (A) (A) (A) (A) (A)
                 (A) (A) (A) (A) (A) (A) (A) (A) (A) (A) (A) (A)
                 (A) (A) (A) (A) (A) (A) (A) (A) (A) (A) (A) (A)
                 (A) (A) (A) (A) (A) (A) (A) (A) (A) (A) (A) (A)
                 (A) (A) (A) (A) (A) (A) (A) (A) (A) (A) (A) (A)
                 (A) (A) (A) (A) (A) (A) (A) (A) (A) (A) (A) (A)
                 (A) (A) (A) (A) (A) (A) (A) (A) (A) (A) (A) (A)
                 (A) (A) (A) (A) (A) (A) (A) (A) (A) (A) (A) (A)
                 (A) (A) (A) (A) (A) (A) (A) (A) (A) (A) (A) (A)
                 (A) (A) (A) (A) (A) (A) (A) (A) (A) (A) (A) (A)
                 (A) (A) (A) (A) (A) (A) (A) (A) (A) (A) (A) (A)
                 (A) (A) (A) (A) (A) (A) (A) (A) (A) (A) (A) (A)
                 (A) (A) (A) (A) (A) (A) (A) (A) (A) (A) (A) (A)
                 (A) (A) (A) (A) (A) (A) (A) (A) (A) (A) (A) (A)
                 (A) (A) (A) (A) (A) (A) (A) (A) (A) (A) (A) (A)
                 (A) (A) (A) (A) (A) (A) (A) (A) (A) (A) (A) (A)
                 (A) (A) (A) (A) (A) (A) (A) (A) (A) (A) (A) (A)
                 (A) (A) (A) (A) (A) (A) (A) (A) (A) (A) (A) (A)
                 (A) (A) (A) (A) (A) (A) (A) (A) (A) (A) (A) (A)
                 (A) (A) (A) (A) (A) (A) (A) (A) (A) (A) (A) (A)
                 (A) (A) (A) (A) (A) (A) (A) (A) (A) (A) (A) (A)
                 (A) (A) (A) (A) (A) (A) (A) (A) (A) (A) (A) (A)
                 (A) (A) (A) (A) (A) (A) (A) (A) (A) (A) (A) (A)
                 (A) (A) (A) (A) (A) (A) (A)
 The electronic state is 1-A.
 Alpha  occ. eigenvalues --  -25.20675 -25.20651 -19.66947 -19.66709 -19.65707
 Alpha  occ. eigenvalues --  -19.64022 -19.63992 -19.63595 -19.63452 -19.63357
 Alpha  occ. eigenvalues --  -19.63333 -14.78902 -14.78875 -14.77024 -10.67292
 Alpha  occ. eigenvalues --  -10.62085 -10.61999 -10.61035 -10.60688 -10.60516
 Alpha  occ. eigenvalues --  -10.60053 -10.59940 -10.59876 -10.59849 -10.59801
 Alpha  occ. eigenvalues --  -10.59783 -10.59480 -10.59293 -10.58960 -10.58762
 Alpha  occ. eigenvalues --  -10.58678 -10.58672 -10.58647 -10.58631 -10.58548
 Alpha  occ. eigenvalues --  -10.58505 -10.58327 -10.57915 -10.57784 -10.57708
 Alpha  occ. eigenvalues --  -10.57598 -10.57576 -10.57567 -10.57293 -10.57029
 Alpha  occ. eigenvalues --  -10.56698 -10.56645 -10.56208 -10.56175 -10.55998
 Alpha  occ. eigenvalues --  -10.55959 -10.55940 -10.55883 -10.55879 -10.55762
 Alpha  occ. eigenvalues --  -10.55685 -10.55409 -10.55301 -10.55206 -10.54912
 Alpha  occ. eigenvalues --  -10.54859 -10.54785 -10.54675 -10.54495  -7.13531
 Alpha  occ. eigenvalues --   -1.32639  -1.29388  -1.20059  -1.20026  -1.19654
 Alpha  occ. eigenvalues --   -1.16948  -1.16775  -1.15998  -1.15701  -1.15464
 Alpha  occ. eigenvalues --   -1.14552  -1.10958  -1.08989  -1.03053  -0.99170
 Alpha  occ. eigenvalues --   -0.97656  -0.97446  -0.94796  -0.92239  -0.91859
 Alpha  occ. eigenvalues --   -0.91556  -0.90802  -0.90504  -0.88779  -0.88533
 Alpha  occ. eigenvalues --   -0.87027  -0.86996  -0.86767  -0.85869  -0.85749
 Alpha  occ. eigenvalues --   -0.84975  -0.84845  -0.83602  -0.82463  -0.82127
 Alpha  occ. eigenvalues --   -0.81249  -0.80977  -0.79086  -0.77443  -0.76781
 Alpha  occ. eigenvalues --   -0.76314  -0.74766  -0.74286  -0.73092  -0.72340
 Alpha  occ. eigenvalues --   -0.72026  -0.71357  -0.70918  -0.70372  -0.70014
 Alpha  occ. eigenvalues --   -0.69492  -0.69353  -0.68602  -0.67324  -0.67127
 Alpha  occ. eigenvalues --   -0.66493  -0.66065  -0.64533  -0.63933  -0.63548
 Alpha  occ. eigenvalues --   -0.62899  -0.62530  -0.61960  -0.61684  -0.60120
 Alpha  occ. eigenvalues --   -0.59594  -0.59531  -0.58808  -0.58689  -0.58632
 Alpha  occ. eigenvalues --   -0.58243  -0.57932  -0.57745  -0.57327  -0.57324
 Alpha  occ. eigenvalues --   -0.56866  -0.56767  -0.56536  -0.56273  -0.55998
 Alpha  occ. eigenvalues --   -0.55633  -0.55146  -0.54683  -0.54273  -0.54095
 Alpha  occ. eigenvalues --   -0.53924  -0.53757  -0.53653  -0.53496  -0.53217
 Alpha  occ. eigenvalues --   -0.52945  -0.52749  -0.52512  -0.52289  -0.52261
 Alpha  occ. eigenvalues --   -0.52105  -0.51811  -0.51652  -0.51610  -0.51243
 Alpha  occ. eigenvalues --   -0.50579  -0.50296  -0.50227  -0.50216  -0.50090
 Alpha  occ. eigenvalues --   -0.49982  -0.49688  -0.49340  -0.48995  -0.48792
 Alpha  occ. eigenvalues --   -0.48517  -0.48394  -0.48287  -0.47839  -0.47555
 Alpha  occ. eigenvalues --   -0.47227  -0.46995  -0.46824  -0.46780  -0.46674
 Alpha  occ. eigenvalues --   -0.46272  -0.46087  -0.45817  -0.45725  -0.45207
 Alpha  occ. eigenvalues --   -0.45067  -0.44721  -0.44355  -0.44210  -0.43919
 Alpha  occ. eigenvalues --   -0.43767  -0.43568  -0.43307  -0.43270  -0.43022
 Alpha  occ. eigenvalues --   -0.42861  -0.42828  -0.42588  -0.42418  -0.42193
 Alpha  occ. eigenvalues --   -0.42175  -0.41980  -0.41361  -0.40964  -0.40953
 Alpha  occ. eigenvalues --   -0.40746  -0.39912  -0.39854  -0.39729  -0.39462
 Alpha  occ. eigenvalues --   -0.39140  -0.38785  -0.38266  -0.36868  -0.36343
 Alpha  occ. eigenvalues --   -0.34687  -0.34473  -0.34219  -0.33859  -0.33735
 Alpha  occ. eigenvalues --   -0.33472  -0.33365  -0.33264  -0.32663  -0.32446
 Alpha  occ. eigenvalues --   -0.32330  -0.32213  -0.31723  -0.29712  -0.27116
 Alpha  occ. eigenvalues --   -0.23239
 Alpha virt. eigenvalues --   -0.10136  -0.03484  -0.03314  -0.01614  -0.01312
 Alpha virt. eigenvalues --   -0.00206   0.00760   0.00944   0.04946   0.05355
 Alpha virt. eigenvalues --    0.05513   0.05785   0.06101   0.06861   0.06977
 Alpha virt. eigenvalues --    0.07222   0.07358   0.07859   0.07929   0.08006
 Alpha virt. eigenvalues --    0.08156   0.08446   0.08590   0.08781   0.09260
 Alpha virt. eigenvalues --    0.09304   0.09464   0.09658   0.09891   0.10393
 Alpha virt. eigenvalues --    0.10514   0.10606   0.10700   0.10733   0.11105
 Alpha virt. eigenvalues --    0.11243   0.11280   0.11310   0.11468   0.11629
 Alpha virt. eigenvalues --    0.11791   0.11884   0.12022   0.12215   0.12401
 Alpha virt. eigenvalues --    0.12461   0.12793   0.13005   0.13127   0.13206
 Alpha virt. eigenvalues --    0.13381   0.13494   0.13625   0.13819   0.13948
 Alpha virt. eigenvalues --    0.14145   0.14302   0.14505   0.14661   0.14694
 Alpha virt. eigenvalues --    0.14712   0.14986   0.15147   0.15225   0.15414
 Alpha virt. eigenvalues --    0.15626   0.15706   0.15894   0.15939   0.16036
 Alpha virt. eigenvalues --    0.16270   0.16351   0.16646   0.16952   0.17213
 Alpha virt. eigenvalues --    0.17345   0.17511   0.17821   0.17914   0.18004
 Alpha virt. eigenvalues --    0.18154   0.18252   0.18468   0.18633   0.18662
 Alpha virt. eigenvalues --    0.18796   0.18863   0.18932   0.19419   0.19471
 Alpha virt. eigenvalues --    0.19546   0.19952   0.20058   0.20389   0.20695
 Alpha virt. eigenvalues --    0.20730   0.20945   0.21091   0.21185   0.21524
 Alpha virt. eigenvalues --    0.21702   0.21872   0.21936   0.22229   0.22285
 Alpha virt. eigenvalues --    0.22514   0.22613   0.22857   0.22949   0.23200
 Alpha virt. eigenvalues --    0.23273   0.23414   0.23522   0.23778   0.23804
 Alpha virt. eigenvalues --    0.23991   0.24121   0.24152   0.24345   0.24463
 Alpha virt. eigenvalues --    0.24508   0.24594   0.24872   0.25074   0.25285
 Alpha virt. eigenvalues --    0.25312   0.25655   0.25672   0.25910   0.26227
 Alpha virt. eigenvalues --    0.26519   0.26619   0.26735   0.26834   0.26957
 Alpha virt. eigenvalues --    0.27232   0.27432   0.27550   0.27786   0.27883
 Alpha virt. eigenvalues --    0.27963   0.28110   0.28229   0.28331   0.28482
 Alpha virt. eigenvalues --    0.28648   0.28859   0.29041   0.29053   0.29227
 Alpha virt. eigenvalues --    0.29569   0.29768   0.29825   0.30034   0.30100
 Alpha virt. eigenvalues --    0.30142   0.30428   0.30586   0.30795   0.30965
 Alpha virt. eigenvalues --    0.31231   0.31659   0.31920   0.32087   0.32288
 Alpha virt. eigenvalues --    0.32306   0.32614   0.32882   0.33002   0.33095
 Alpha virt. eigenvalues --    0.33448   0.33524   0.33718   0.33906   0.34041
 Alpha virt. eigenvalues --    0.34164   0.34182   0.34251   0.34408   0.34646
 Alpha virt. eigenvalues --    0.34713   0.34852   0.34992   0.35049   0.35370
 Alpha virt. eigenvalues --    0.35477   0.35723   0.35903   0.36103   0.36225
 Alpha virt. eigenvalues --    0.36435   0.36624   0.36748   0.36775   0.36845
 Alpha virt. eigenvalues --    0.37001   0.37020   0.37170   0.37479   0.37568
 Alpha virt. eigenvalues --    0.37699   0.37846   0.37993   0.38068   0.38203
 Alpha virt. eigenvalues --    0.38339   0.38552   0.38627   0.38689   0.38903
 Alpha virt. eigenvalues --    0.39119   0.39259   0.39382   0.39446   0.39551
 Alpha virt. eigenvalues --    0.39605   0.39905   0.40089   0.40173   0.40281
 Alpha virt. eigenvalues --    0.40403   0.40441   0.40668   0.40869   0.40950
 Alpha virt. eigenvalues --    0.41108   0.41170   0.41322   0.41662   0.41805
 Alpha virt. eigenvalues --    0.41936   0.41995   0.42251   0.42354   0.42554
 Alpha virt. eigenvalues --    0.42619   0.42930   0.42945   0.43113   0.43134
 Alpha virt. eigenvalues --    0.43204   0.43277   0.43507   0.43602   0.43722
 Alpha virt. eigenvalues --    0.43807   0.44045   0.44235   0.44428   0.44685
 Alpha virt. eigenvalues --    0.44839   0.44917   0.45055   0.45119   0.45264
 Alpha virt. eigenvalues --    0.45394   0.45748   0.45779   0.45811   0.45893
 Alpha virt. eigenvalues --    0.46105   0.46257   0.46435   0.46545   0.46756
 Alpha virt. eigenvalues --    0.46885   0.46962   0.47082   0.47257   0.47299
 Alpha virt. eigenvalues --    0.47553   0.47732   0.47911   0.48121   0.48161
 Alpha virt. eigenvalues --    0.48253   0.48401   0.48578   0.48836   0.48923
 Alpha virt. eigenvalues --    0.49001   0.49204   0.49334   0.49418   0.49607
 Alpha virt. eigenvalues --    0.49697   0.49900   0.49953   0.50137   0.50289
 Alpha virt. eigenvalues --    0.50449   0.50527   0.50673   0.50793   0.50855
 Alpha virt. eigenvalues --    0.51168   0.51332   0.51399   0.51506   0.51586
 Alpha virt. eigenvalues --    0.51737   0.51918   0.52080   0.52167   0.52312
 Alpha virt. eigenvalues --    0.52529   0.52790   0.52880   0.53217   0.53443
 Alpha virt. eigenvalues --    0.53617   0.53695   0.53831   0.53972   0.54375
 Alpha virt. eigenvalues --    0.54506   0.54533   0.54736   0.54773   0.54884
 Alpha virt. eigenvalues --    0.54963   0.55126   0.55312   0.55528   0.55616
 Alpha virt. eigenvalues --    0.56046   0.56180   0.56254   0.56393   0.56564
 Alpha virt. eigenvalues --    0.56656   0.56989   0.57142   0.57212   0.57498
 Alpha virt. eigenvalues --    0.57735   0.57915   0.58191   0.58470   0.58486
 Alpha virt. eigenvalues --    0.58917   0.59046   0.59294   0.59419   0.59456
 Alpha virt. eigenvalues --    0.59631   0.59910   0.60128   0.60370   0.60622
 Alpha virt. eigenvalues --    0.60858   0.61094   0.61318   0.61414   0.61527
 Alpha virt. eigenvalues --    0.62064   0.62508   0.62584   0.62739   0.63147
 Alpha virt. eigenvalues --    0.63253   0.63318   0.63529   0.63592   0.63693
 Alpha virt. eigenvalues --    0.63960   0.64209   0.64341   0.64447   0.64683
 Alpha virt. eigenvalues --    0.64746   0.64968   0.65086   0.65290   0.65380
 Alpha virt. eigenvalues --    0.65701   0.65778   0.65843   0.66104   0.66241
 Alpha virt. eigenvalues --    0.66491   0.66555   0.67052   0.67087   0.67355
 Alpha virt. eigenvalues --    0.67468   0.67606   0.67826   0.68082   0.68137
 Alpha virt. eigenvalues --    0.68307   0.68763   0.68802   0.68922   0.69025
 Alpha virt. eigenvalues --    0.69577   0.69659   0.69757   0.69900   0.70032
 Alpha virt. eigenvalues --    0.70092   0.70150   0.70392   0.70725   0.70917
 Alpha virt. eigenvalues --    0.71003   0.71290   0.71487   0.71800   0.71900
 Alpha virt. eigenvalues --    0.72242   0.72331   0.72402   0.72596   0.72938
 Alpha virt. eigenvalues --    0.73229   0.73258   0.73417   0.73669   0.73834
 Alpha virt. eigenvalues --    0.74063   0.74156   0.74318   0.74526   0.75023
 Alpha virt. eigenvalues --    0.75065   0.75296   0.75797   0.75932   0.76068
 Alpha virt. eigenvalues --    0.76083   0.76283   0.76510   0.76600   0.76752
 Alpha virt. eigenvalues --    0.76928   0.77185   0.77246   0.77540   0.77728
 Alpha virt. eigenvalues --    0.78109   0.78271   0.78780   0.78888   0.78995
 Alpha virt. eigenvalues --    0.79237   0.79490   0.79693   0.79989   0.80086
 Alpha virt. eigenvalues --    0.80300   0.80473   0.80554   0.80688   0.80775
 Alpha virt. eigenvalues --    0.80825   0.81041   0.81382   0.81591   0.81723
 Alpha virt. eigenvalues --    0.81878   0.82131   0.82173   0.82571   0.82645
 Alpha virt. eigenvalues --    0.82790   0.82846   0.83196   0.83478   0.83639
 Alpha virt. eigenvalues --    0.83856   0.84038   0.84308   0.84505   0.84724
 Alpha virt. eigenvalues --    0.84787   0.85091   0.85154   0.85292   0.85605
 Alpha virt. eigenvalues --    0.85681   0.85927   0.86377   0.86763   0.86869
[...]
 Alpha virt. eigenvalues --    4.35672   4.36363   4.36667   4.37469   4.37774
 Alpha virt. eigenvalues --    4.37931   4.38663   4.38899   4.39042   4.39136
 Alpha virt. eigenvalues --    4.39567   4.39778   4.40206   4.40468   4.41129
 Alpha virt. eigenvalues --    4.41503   4.42015   4.42623   4.42821   4.43076
 Alpha virt. eigenvalues --    4.43704   4.43910   4.44748   4.45046   4.45310
 Alpha virt. eigenvalues --    4.45482   4.46241   4.46678   4.46903   4.47485
 Alpha virt. eigenvalues --    4.47717   4.48082   4.48406   4.48923   4.48985
 Alpha virt. eigenvalues --    4.49153   4.49421   4.49608   4.49664   4.49863
 Alpha virt. eigenvalues --    4.50378   4.50725   4.51068   4.51125   4.51700
 Alpha virt. eigenvalues --    4.52019   4.52514   4.52913   4.53026   4.53310
 Alpha virt. eigenvalues --    4.53813   4.54034   4.55022   4.55170   4.55428
 Alpha virt. eigenvalues --    4.55798   4.56429   4.56823   4.57149   4.57535
 Alpha virt. eigenvalues --    4.57885   4.57998   4.58412   4.58495   4.59035
 Alpha virt. eigenvalues --    4.59754   4.59927   4.60469   4.60948   4.60990
 Alpha virt. eigenvalues --    4.61078   4.61569   4.62006   4.62447   4.62603
 Alpha virt. eigenvalues --    4.63128   4.63405   4.63511   4.64165   4.64279
 Alpha virt. eigenvalues --    4.64633   4.64996   4.65096   4.65668   4.66019
 Alpha virt. eigenvalues --    4.66606   4.66725   4.67161   4.67336   4.67510
 Alpha virt. eigenvalues --    4.67639   4.67762   4.68090   4.68188   4.68342
 Alpha virt. eigenvalues --    4.68689   4.69269   4.69519   4.69955   4.70060
 Alpha virt. eigenvalues --    4.70224   4.70498   4.70691   4.71208   4.71468
 Alpha virt. eigenvalues --    4.72099   4.72589   4.72748   4.73726   4.74143
 Alpha virt. eigenvalues --    4.74307   4.74687   4.74999   4.75272   4.75630
 Alpha virt. eigenvalues --    4.75765   4.76280   4.76843   4.77170   4.77386
 Alpha virt. eigenvalues --    4.77897   4.78190   4.78337   4.78696   4.78710
 Alpha virt. eigenvalues --    4.78865   4.79137   4.79549   4.79771   4.80143
 Alpha virt. eigenvalues --    4.80253   4.80507   4.81360   4.82051   4.82183
 Alpha virt. eigenvalues --    4.82532   4.82673   4.83207   4.83512   4.83764
 Alpha virt. eigenvalues --    4.84004   4.84782   4.84965   4.85293   4.85358
 Alpha virt. eigenvalues --    4.85587   4.86650   4.86773   4.87157   4.87437
 Alpha virt. eigenvalues --    4.87859   4.88007   4.88351   4.89049   4.89583
 Alpha virt. eigenvalues --    4.90243   4.90449   4.90711   4.91122   4.91503
 Alpha virt. eigenvalues --    4.92020   4.92223   4.92436   4.92770   4.92925
 Alpha virt. eigenvalues --    4.93108   4.93205   4.93428   4.93943   4.93984
 Alpha virt. eigenvalues --    4.94034   4.94184   4.94419   4.94598   4.94733
 Alpha virt. eigenvalues --    4.94949   4.95823   4.96065   4.96746   4.96926
 Alpha virt. eigenvalues --    4.97233   4.97746   4.98201   4.98745   4.98889
 Alpha virt. eigenvalues --    4.98974   4.99454   4.99556   5.00268   5.00787
 Alpha virt. eigenvalues --    5.01261   5.01299   5.01750   5.02448   5.02630
 Alpha virt. eigenvalues --    5.02936   5.03372   5.03771   5.03963   5.04305
 Alpha virt. eigenvalues --    5.04459   5.05071   5.05238   5.05679   5.05935
 Alpha virt. eigenvalues --    5.06332   5.06996   5.07437   5.07702   5.08235
 Alpha virt. eigenvalues --    5.08347   5.08523   5.08756   5.09140   5.09252
 Alpha virt. eigenvalues --    5.09629   5.09898   5.10243   5.10279   5.10848
 Alpha virt. eigenvalues --    5.11093   5.11844   5.11949   5.12936   5.13298
 Alpha virt. eigenvalues --    5.13749   5.13862   5.14291   5.14750   5.15014
 Alpha virt. eigenvalues --    5.15297   5.15578   5.16128   5.16403   5.16612
 Alpha virt. eigenvalues --    5.16997   5.17622   5.17878   5.18470   5.18814
 Alpha virt. eigenvalues --    5.19333   5.19550   5.20508   5.20959   5.21297
 Alpha virt. eigenvalues --    5.22017   5.22454   5.22814   5.22882   5.23552
 Alpha virt. eigenvalues --    5.23666   5.23966   5.24059   5.24481   5.25232
 Alpha virt. eigenvalues --    5.25654   5.25721   5.25949   5.26239   5.26526
 Alpha virt. eigenvalues --    5.27032   5.27965   5.28074   5.28462   5.28516
 Alpha virt. eigenvalues --    5.28663   5.28998   5.29158   5.29208   5.29420
 Alpha virt. eigenvalues --    5.30250   5.30806   5.30905   5.30988   5.31092
 Alpha virt. eigenvalues --    5.31578   5.31659   5.31955   5.32299   5.32595
 Alpha virt. eigenvalues --    5.33021   5.33760   5.33952   5.34055   5.34450
 Alpha virt. eigenvalues --    5.34897   5.35136   5.35569   5.35592   5.35866
 Alpha virt. eigenvalues --    5.36665   5.37204   5.37440   5.37894   5.38077
 Alpha virt. eigenvalues --    5.38411   5.38558   5.39012   5.39406   5.40049
 Alpha virt. eigenvalues --    5.40239   5.41028   5.41510   5.41791   5.41932
 Alpha virt. eigenvalues --    5.42101   5.42311   5.42475   5.42929   5.43143
 Alpha virt. eigenvalues --    5.43519   5.43644   5.43868   5.44877   5.45511
 Alpha virt. eigenvalues --    5.45693   5.46527   5.47227   5.47311   5.47793
 Alpha virt. eigenvalues --    5.47957   5.48949   5.49128   5.49363   5.49643
 Alpha virt. eigenvalues --    5.50661   5.50872   5.51192   5.52403   5.53126
 Alpha virt. eigenvalues --    5.53373   5.54023   5.54614   5.54836   5.55131
 Alpha virt. eigenvalues --    5.55535   5.56385   5.56539   5.56751   5.56845
 Alpha virt. eigenvalues --    5.57372   5.57794   5.57998   5.58348   5.58506
 Alpha virt. eigenvalues --    5.59369   5.59549   5.59744   5.59993   5.60277
 Alpha virt. eigenvalues --    5.60487   5.60962   5.60996   5.61643   5.61939
 Alpha virt. eigenvalues --    5.62239   5.62353   5.62460   5.62758   5.62859
 Alpha virt. eigenvalues --    5.63250   5.63818   5.63929   5.63996   5.64779
 Alpha virt. eigenvalues --    5.65744   5.65853   5.66511   5.66752   5.66824
 Alpha virt. eigenvalues --    5.67577   5.67999   5.68660   5.68758   5.69306
 Alpha virt. eigenvalues --    5.70157   5.70284   5.70692   5.72105   5.73363
 Alpha virt. eigenvalues --    5.73524   5.74754   5.76283   5.78431   5.78865
 Alpha virt. eigenvalues --    5.81140   5.82742   5.83405   5.84845   5.85001
 Alpha virt. eigenvalues --    5.86650   5.87065   5.87647   5.89927   5.90887
 Alpha virt. eigenvalues --    5.91122   5.91724   5.92575   5.94116   5.94650
 Alpha virt. eigenvalues --    5.95694   5.96117   5.96221   5.97390   5.98564
 Alpha virt. eigenvalues --    5.99857   6.00467   6.01571   6.02771   6.03057
 Alpha virt. eigenvalues --    6.03853   6.04406   6.05022   6.05543   6.05856
 Alpha virt. eigenvalues --    6.06541   6.07345   6.08424   6.09311   6.11193
 Alpha virt. eigenvalues --    6.12006   6.12687   6.17965   6.18830   6.19405
 Alpha virt. eigenvalues --    6.20492   6.21389   6.22245   6.22919   6.23053
 Alpha virt. eigenvalues --    6.24957   6.27057   6.27658   6.27804   6.29764
 Alpha virt. eigenvalues --    6.31528   6.31953   6.32527   6.33603   6.37216
 Alpha virt. eigenvalues --    6.37890   6.42870   6.44219   6.45054   6.45604
 Alpha virt. eigenvalues --    6.46255   6.46486   6.51082   6.61538   6.70700
 Alpha virt. eigenvalues --    6.72274   6.72297   6.73895   6.74578   6.75203
 Alpha virt. eigenvalues --    6.76026   6.76816   6.77867   6.78799   6.80873
 Alpha virt. eigenvalues --    6.82418   6.82665   6.83779   6.84517   6.85826
 Alpha virt. eigenvalues --    6.86323   6.87045   6.87729   6.93490   6.94168
 Alpha virt. eigenvalues --    6.94667   6.96108   6.97424   6.97749   6.98237
 Alpha virt. eigenvalues --    6.98743   6.99388   6.99508   7.00364   7.01483
 Alpha virt. eigenvalues --    7.02421   7.05195   7.07312   7.08525   7.09775
 Alpha virt. eigenvalues --    7.11371   7.17657   7.21990   7.24367   7.26220
 Alpha virt. eigenvalues --    7.26653   7.26894   7.28518   7.29280   7.30085
 Alpha virt. eigenvalues --    7.30376   7.32116   7.32820   7.33286   7.34468
 Alpha virt. eigenvalues --    7.35047   7.35801   7.36686   7.37550   7.39266
 Alpha virt. eigenvalues --    7.40655   7.47424   7.47660   8.45784   8.48637
 Alpha virt. eigenvalues --    8.56432   8.61032   8.81598   8.87746   8.89870
 Alpha virt. eigenvalues --    8.91635   8.94406   9.01037  15.87171  22.75477
 Alpha virt. eigenvalues --   22.86970  22.89547  22.93893  22.99979  23.10605
 Alpha virt. eigenvalues --   23.13418  23.13816  23.15306  23.17546  23.19149
 Alpha virt. eigenvalues --   23.23161  23.23946  23.27255  23.27822  23.27834
 Alpha virt. eigenvalues --   23.28897  23.30265  23.30504  23.31897  23.34055
 Alpha virt. eigenvalues --   23.34798  23.34987  23.36048  23.36655  23.36693
 Alpha virt. eigenvalues --   23.38970  23.39512  23.41205  23.42243  23.42526
 Alpha virt. eigenvalues --   23.45346  23.47461  23.48133  23.51828  23.52665
 Alpha virt. eigenvalues --   23.53175  23.54562  23.55701  23.57977  23.61597
 Alpha virt. eigenvalues --   23.62209  23.63501  23.71660  23.76810  23.86546
 Alpha virt. eigenvalues --   23.94624  24.09973  24.10686  24.17031  32.19787
 Alpha virt. eigenvalues --   33.17163  33.27944  44.27333  44.28501  44.34710
 Alpha virt. eigenvalues --   44.41115  44.42248  44.47077  44.48444  44.61583
 Alpha virt. eigenvalues --   44.64307  57.33318  57.60965
          Condensed to atoms (all electrons):
 Mulliken charges:
               1
     1  B    0.338386
     2  N   -0.109399
     3  C   -0.049115
     4  C   -0.058039
     5  C   -0.053719
     6  C    0.110558
     7  C    0.178279
     8  C   -0.079748
     9  O   -0.282006
    10  C   -0.498062
    11  C    0.171087
    12  C   -0.161397
    13  C   -0.140780
    14  C    0.102001
    15  C   -0.134923
    16  C   -0.104321
    17  C   -0.183418
    18  N   -0.081066
    19  C    0.105825
    20  N   -0.081749
    21  C    0.017574
    22  C   -0.078083
    23  C   -0.017119
    24  C   -0.440847
    25  C   -0.125260
    26  C   -0.051605
    27  C   -0.018300
    28  C   -0.152354
    29  C   -0.169309
    30  C    0.231153
    31  O   -0.291949
    32  C   -0.082124
    33  C   -0.125430
    34  O   -0.349804
    35  C   -0.102613
    36  C   -0.046858
    37  O   -0.334429
    38  C   -0.103632
    39  C   -0.047812
    40  O   -0.343517
    41  C   -0.202113
    42  C   -0.192943
    43  C   -0.149028
    44  C   -0.410186
    45  C   -0.063505
    46  C   -0.074591
    47  C    0.003911
    48  C   -0.203122
    49  C   -0.164567
    50  C    0.232618
    51  O   -0.293104
    52  C   -0.146277
    53  C   -0.100741
    54  O   -0.350774
    55  C   -0.078983
    56  C   -0.050004
    57  O   -0.349325
    58  C   -0.048578
    59  C   -0.075238
    60  O   -0.355727
    61  C   -0.196802
    62  C   -0.194261
    63  C   -0.120918
    64  F   -0.330602
    65  F   -0.359744
    66  H    0.163969
    67  H    0.240728
    68  H    0.207771
    69  H    0.160042
    70  H    0.169983
    71  H    0.170711
    72  H    0.159067
    73  H    0.167698
    74  H    0.179818
    75  H    0.136816
    76  H    0.150026
    77  H    0.126640
    78  H    0.114321
    79  H    0.143060
    80  H    0.157677
    81  H    0.144323
    82  H    0.150618
    83  H    0.135480
    84  H    0.141743
    85  H    0.125177
    86  H    0.131183
    87  H    0.116543
    88  H    0.124547
    89  H    0.127402
    90  H    0.116939
    91  H    0.125087
    92  H    0.116413
    93  H    0.118113
    94  H    0.119551
    95  H    0.136088
    96  H    0.160357
    97  H    0.152485
    98  H    0.175785
    99  H    0.138350
   100  H    0.134629
   101  H    0.098343
   102  H    0.122654
   103  H    0.154702
   104  H    0.146789
   105  H    0.159477
   106  H    0.161561
   107  H    0.154937
   108  H    0.143514
   109  H    0.117021
   110  H    0.135305
   111  H    0.116528
   112  H    0.112542
   113  H    0.118648
   114  H    0.113957
   115  H    0.127213
   116  H    0.113756
   117  H    0.120301
   118  H    0.121364
   119  H    0.137356
   120  H    0.157988
   121  H    0.145431
 Sum of Mulliken charges =  -0.00000
 Mulliken charges with hydrogens summed into heavy atoms:
               1
     1  B    0.338386
     2  N   -0.109399
     3  C   -0.049115
     4  C    0.105930
     5  C   -0.053719
     6  C    0.110558
     7  C    0.178279
     8  C   -0.079748
     9  O   -0.282006
    10  C   -0.049564
    11  C    0.171087
    12  C   -0.001355
    13  C    0.029202
    14  C    0.102001
    15  C    0.035788
    16  C    0.054746
    17  C   -0.183418
    18  N   -0.081066
    19  C    0.105825
    20  N   -0.081749
    21  C    0.017574
    22  C    0.089615
    23  C   -0.017119
    24  C    0.025813
    25  C    0.001380
    26  C    0.062716
    27  C   -0.018300
    28  C   -0.009294
    29  C   -0.011632
    30  C    0.231153
    31  O   -0.291949
    32  C    0.212817
    33  C    0.151793
    34  O   -0.349804
    35  C    0.153747
    36  C    0.194232
    37  O   -0.334429
    38  C    0.140709
    39  C    0.193688
    40  O   -0.343517
    41  C    0.171640
    42  C   -0.032586
    43  C    0.003457
    44  C    0.038577
    45  C    0.034838
    46  C    0.048063
    47  C    0.003911
    48  C   -0.048420
    49  C   -0.017778
    50  C    0.232618
    51  O   -0.293104
    52  C    0.174760
    53  C    0.197710
    54  O   -0.350774
    55  C    0.173342
    56  C    0.179066
    57  O   -0.349325
    58  C    0.184027
    59  C    0.165731
    60  O   -0.355727
    61  C    0.182220
    62  C   -0.036273
    63  C    0.024513
    64  F   -0.330602
    65  F   -0.359744
 Electronic spatial extent (au):  <R**2>=         134890.3084
 Charge=             -0.0000 electrons
 Dipole moment (field-independent basis, Debye):
    X=             -7.1452    Y=             -0.4422    Z=             -2.0580  Tot=              7.4488
 Quadrupole moment (field-independent basis, Debye-Ang):
   XX=           -453.5170   YY=           -324.1572   ZZ=           -387.8938
   XY=             42.4716   XZ=             39.8020   YZ=            -52.1797
 Traceless Quadrupole moment (field-independent basis, Debye-Ang):
   XX=            -64.9944   YY=             64.3655   ZZ=              0.6289
   XY=             42.4716   XZ=             39.8020   YZ=            -52.1797
 Octapole moment (field-independent basis, Debye-Ang**2):
  XXX=          -3462.2461  YYY=           -182.2823  ZZZ=              6.9289  XYY=            100.9957
  XXY=            835.8727  XXZ=           -296.7834  XZZ=           -204.2584  YZZ=            -80.6388
  YYZ=           -434.1630  XYZ=              0.7897
 Hexadecapole moment (field-independent basis, Debye-Ang**3):
 XXXX=        -158815.4872 YYYY=         -62810.3745 ZZZZ=          -3088.8637 XXXY=           5666.7477
 XXXZ=            804.7076 YYYX=            831.6539 YYYZ=          -2627.0150 ZZZX=             83.0435
 ZZZY=            226.3839 XXYY=         -30598.0321 XXZZ=         -19170.5533 YYZZ=         -10420.2625
 XXYZ=            195.5793 YYXZ=           3354.3708 ZZXY=            942.1512
 N-N= 8.259491080950D+03 E-N=-2.353002336746D+04  KE= 2.988662689189D+03
 Leave Link  601 at Thu Oct 30 20:13:51 2025, MaxMem= 30870077440 cpu:             121.8 elap:               2.4
 (Enter /public/software/gauss/g16/l9999.exe)
 1\1\GINC-CU141\SP\RM062X\def2TZVPP\C50H56B1F2N3O9\BAIDING\30-Oct-2025\
 0\\#p M062X/DEF2TZVPP scrf=(solvent=water) em=GD3\\Energy calculation 
 for BE_CN\\0,1\B,0,3.190036,0.142002,0.174355\N,0,3.890481,1.524657,0.
 11543\C,0,3.329632,2.750509,-0.139244\C,0,4.36703,3.716655,-0.157705\C
 ,0,5.578145,3.091536,0.074896\C,0,5.275811,1.699185,0.233069\C,0,6.123
 019,0.605208,0.476104\C,0,7.623761,0.826325,0.489019\O,0,8.208067,1.07
 3815,1.530549\C,0,8.310809,0.695849,-0.863082\C,0,9.775938,1.049622,-0
 .868968\C,0,10.709097,0.250326,-0.190498\C,0,12.060849,0.572642,-0.196
 196\C,0,12.498518,1.714086,-0.890895\C,0,11.575844,2.5217,-1.575489\C,
 0,10.226044,2.184203,-1.557432\C,0,13.888396,2.050804,-0.903846\N,0,15
 .021988,2.325378,-0.913989\C,0,5.620085,-0.683785,0.682237\N,0,4.24749
 9,-0.911864,0.596817\C,0,4.007631,-2.231135,0.85246\C,0,5.250513,-2.86
 6269,1.12073\C,0,6.26,-1.927823,1.022857\C,0,7.709924,-2.200528,1.2844
 7\C,0,2.685776,-2.798424,0.845784\C,0,2.439798,-4.126553,0.993588\C,0,
 1.139721,-4.778406,1.001957\C,0,1.080594,-6.169264,1.212444\C,0,-0.126
 156,-6.864547,1.236901\C,0,-1.323578,-6.164053,1.042256\O,0,-2.563425,
 -6.732565,1.04544\C,0,-2.674542,-8.151039,1.253991\C,0,-4.13828,-8.535
 197,1.169223\O,0,-4.6437,-8.426755,-0.162682\C,0,-5.409125,-7.248059,-
 0.435517\C,0,-6.865833,-7.383239,-0.032991\O,0,-7.454342,-8.430926,-0.
 802349\C,0,-8.792828,-8.750959,-0.425472\C,0,-9.828427,-7.761187,-0.92
 9924\O,0,-9.810555,-7.761269,-2.353656\C,0,-10.755017,-6.85135,-2.9003
 95\C,0,-1.290847,-4.773665,0.826559\C,0,-0.084796,-4.096469,0.807471\C
 ,0,6.900517,3.789422,0.1779\C,0,1.958813,3.11592,-0.393451\C,0,0.82428
 9,2.368867,-0.361863\C,0,-0.520762,2.841976,-0.662547\C,0,-0.833393,4.
 160265,-1.051705\C,0,-2.138836,4.55412,-1.326248\C,0,-3.185017,3.62292
 4,-1.221619\O,0,-4.501621,3.882765,-1.487816\C,0,-4.919432,5.209868,-1
 .855809\C,0,-5.088914,6.121224,-0.648722\O,0,-6.046448,5.610975,0.2829
 72\C,0,-7.403695,5.949171,-0.007729\C,0,-7.783687,7.264807,0.663793\O,
 0,-9.14832,7.527037,0.355769\C,0,-9.624418,8.733227,0.944702\C,0,-11.0
 91694,8.880614,0.549138\O,0,-11.65798,10.099389,1.019531\C,0,-12.05465
 4,10.057998,2.388367\C,0,-2.898941,2.304712,-0.833117\C,0,-1.59316,1.9
 27841,-0.561484\F,0,2.643375,-0.187384,-1.072466\F,0,2.163168,0.156697
 ,1.136995\H,0,4.211793,4.775244,-0.318993\H,0,8.152738,-0.343692,-1.18
 1734\H,0,7.750694,1.306575,-1.579182\H,0,10.374342,-0.634263,0.341749\
 H,0,12.778965,-0.048948,0.327424\H,0,11.918686,3.398944,-2.113147\H,0,
 9.512806,2.805809,-2.089948\H,0,5.379182,-3.906983,1.383483\H,0,8.1020
 42,-1.571979,2.089553\H,0,7.840296,-3.245455,1.575803\H,0,8.331295,-2.
 023522,0.400052\H,0,1.863958,-2.102665,0.726162\H,0,3.28385,-4.80166,1
 .120754\H,0,2.005995,-6.718457,1.363535\H,0,-0.123852,-7.934067,1.4064
 23\H,0,-2.100564,-8.685767,0.488623\H,0,-2.280049,-8.416179,2.242732\H
 ,0,-4.224422,-9.584693,1.472133\H,0,-4.728996,-7.934384,1.870617\H,0,-
 4.978386,-6.371692,0.060796\H,0,-5.345294,-7.091263,-1.517385\H,0,-6.9
 5587,-7.608611,1.040358\H,0,-7.366066,-6.420803,-0.213765\H,0,-8.99758
 6,-9.736091,-0.857299\H,0,-8.879354,-8.830561,0.667792\H,0,-10.817544,
 -8.067309,-0.553547\H,0,-9.632321,-6.748254,-0.547343\H,0,-11.782315,-
 7.108451,-2.604047\H,0,-10.551139,-5.818388,-2.583506\H,0,-10.674261,-
 6.911092,-3.98864\H,0,-2.22781,-4.247389,0.674833\H,0,-0.092776,-3.025
 28,0.634451\H,0,7.362409,3.642024,1.158929\H,0,7.617882,3.44493,-0.574
 155\H,0,6.75961,4.862818,0.029526\H,0,1.873391,4.170195,-0.645404\H,0,
 0.8808,1.325799,-0.077767\H,0,-0.047003,4.90252,-1.144186\H,0,-2.32735
 2,5.579843,-1.617801\H,0,-4.226131,5.654451,-2.577405\H,0,-5.877436,5.
 06133,-2.359802\H,0,-4.147552,6.209382,-0.098972\H,0,-5.365912,7.12247
 9,-1.003228\H,0,-7.581151,6.01444,-1.088181\H,0,-8.027681,5.140528,0.3
 85962\H,0,-7.639598,7.182999,1.751328\H,0,-7.143303,8.082735,0.300585\
 H,0,-9.509154,8.692462,2.03734\H,0,-9.051543,9.597644,0.577056\H,0,-11
 .166835,8.902064,-0.542924\H,0,-11.666443,8.017423,0.913852\H,0,-12.76
 5922,9.240479,2.570476\H,0,-11.202046,9.939279,3.068615\H,0,-12.544956
 ,11.010139,2.606029\H,0,-3.714744,1.593332,-0.754641\H,0,-1.386745,0.9
 03346,-0.264188\\Version=ES64L-G16RevA.03\State=1-A\HF=-3004.9007338\R
 MSD=3.812e-09\Dipole=-2.8111445,0.1739582,0.8096835\Quadrupole=-48.321
 7233,47.8541395,0.4675838,-31.5765575,-29.5918206,-38.7943236\PG=C01 [
 X(C50H56B1F2N3O9)]\\@


 TIMES HAVE CHANGED. IN THE BIBLE WHEN AN ASS
 SPOKE IT WAS CONSIDERED A MIRACLE.
 Job cpu time:       1 days  4 hours 39 minutes 56.9 seconds.
 Elapsed time:       0 days  0 hours 27 minutes 30.4 seconds.
 File lengths (MBytes):  RWF=   5244 Int=      0 D2E=      0 Chk=    453 Scr=      1
 Normal termination of Gaussian 16 at Thu Oct 30 20:13:53 2025.
