 Entering Gaussian System, Link 0=g16
 Input=BE_Cl_reduced_i_sp.gjf
 Output=BE_Cl_reduced_i_sp.log
 Initial command:
 /public/software/gauss/g16/l1.exe "/public/home/baiding/1113_modified_sp/tmp_BE_Cl_reduced_i_sp_1602077/Gau-270616.inp" -scrdir="/public/home/baiding/1113_modified_sp/tmp_BE_Cl_reduced_i_sp_1602077/"
 Entering Link 1 = /public/software/gauss/g16/l1.exe PID=    270617.
  
 Copyright (c) 1988,1990,1992,1993,1995,1998,2003,2009,2016,
            Gaussian, Inc.  All Rights Reserved.
  
 This is part of the Gaussian(R) 16 program.  It is based on
 the Gaussian(R) 09 system (copyright 2009, Gaussian, Inc.),
 the Gaussian(R) 03 system (copyright 2003, Gaussian, Inc.),
 the Gaussian(R) 98 system (copyright 1998, Gaussian, Inc.),
 the Gaussian(R) 94 system (copyright 1995, Gaussian, Inc.),
 the Gaussian 92(TM) system (copyright 1992, Gaussian, Inc.),
 the Gaussian 90(TM) system (copyright 1990, Gaussian, Inc.),
 the Gaussian 88(TM) system (copyright 1988, Gaussian, Inc.),
 the Gaussian 86(TM) system (copyright 1986, Carnegie Mellon
 University), and the Gaussian 82(TM) system (copyright 1983,
 Carnegie Mellon University). Gaussian is a federally registered
 trademark of Gaussian, Inc.
  
 This software contains proprietary and confidential information,
 including trade secrets, belonging to Gaussian, Inc.
  
 This software is provided under written license and may be
 used, copied, transmitted, or stored only in accord with that
 written license.
  
 The following legend is applicable only to US Government
 contracts under FAR:
  
                    RESTRICTED RIGHTS LEGEND
  
 Use, reproduction and disclosure by the US Government is
 subject to restrictions as set forth in subparagraphs (a)
 and (c) of the Commercial Computer Software - Restricted
 Rights clause in FAR 52.227-19.
  
 Gaussian, Inc.
 340 Quinnipiac St., Bldg. 40, Wallingford CT 06492
  
  
 ---------------------------------------------------------------
 Warning -- This program may not be used in any manner that
 competes with the business of Gaussian, Inc. or will provide
 assistance to any competitor of Gaussian, Inc.  The licensee
 of this program is prohibited from giving any competitor of
 Gaussian, Inc. access to this program.  By using this program,
 the user acknowledges that Gaussian, Inc. is engaged in the
 business of creating and licensing software in the field of
 computational chemistry and represents and warrants to the
 licensee that it is not a competitor of Gaussian, Inc. and that
 it will not use this program in any manner prohibited above.
 ---------------------------------------------------------------
  

 Cite this work as:
 Gaussian 16, Revision A.03,
 M. J. Frisch, G. W. Trucks, H. B. Schlegel, G. E. Scuseria, 
 M. A. Robb, J. R. Cheeseman, G. Scalmani, V. Barone, 
 G. A. Petersson, H. Nakatsuji, X. Li, M. Caricato, A. V. Marenich, 
 J. Bloino, B. G. Janesko, R. Gomperts, B. Mennucci, H. P. Hratchian, 
 J. V. Ortiz, A. F. Izmaylov, J. L. Sonnenberg, D. Williams-Young, 
 F. Ding, F. Lipparini, F. Egidi, J. Goings, B. Peng, A. Petrone, 
 T. Henderson, D. Ranasinghe, V. G. Zakrzewski, J. Gao, N. Rega, 
 G. Zheng, W. Liang, M. Hada, M. Ehara, K. Toyota, R. Fukuda, 
 J. Hasegawa, M. Ishida, T. Nakajima, Y. Honda, O. Kitao, H. Nakai, 
 T. Vreven, K. Throssell, J. A. Montgomery, Jr., J. E. Peralta, 
 F. Ogliaro, M. J. Bearpark, J. J. Heyd, E. N. Brothers, K. N. Kudin, 
 V. N. Staroverov, T. A. Keith, R. Kobayashi, J. Normand, 
 K. Raghavachari, A. P. Rendell, J. C. Burant, S. S. Iyengar, 
 J. Tomasi, M. Cossi, J. M. Millam, M. Klene, C. Adamo, R. Cammi, 
 J. W. Ochterski, R. L. Martin, K. Morokuma, O. Farkas, 
 J. B. Foresman, and D. J. Fox, Gaussian, Inc., Wallingford CT, 2016.
 
 ******************************************
 Gaussian 16:  ES64L-G16RevA.03 25-Dec-2016
                14-Nov-2025 
 ******************************************
 %nprocshared=64
 Will use up to   64 processors via shared memory.
 %mem=230GB
 %chk=BE_Cl_reduced_i_sp.chk
 ----------------------------------------------
 #p M062X/DEF2TZVPP scrf=(solvent=water) em=GD3
 ----------------------------------------------
 1/38=1,172=1/1;
 2/12=2,17=6,18=5,40=1/2;
 3/5=44,7=202,11=2,25=1,30=1,70=2201,72=1,74=-55,124=31/1,2,3;
 4//1;
 5/5=2,38=5,53=1/2;
 6/7=2,8=2,9=2,10=2,28=1/1;
 99/5=1,9=1/99;
 Leave Link    1 at Fri Nov 14 00:50:10 2025, MaxMem= 30870077440 cpu:              14.2 elap:               0.2
 (Enter /public/software/gauss/g16/l101.exe)
 --------------------------------------
 Energy calculation for BE_Cl_reduced_i
 --------------------------------------
 Symbolic Z-matrix:
 Charge = -1 Multiplicity = 2
 B                    -2.59913   0.20878   0.65013 
 N                    -3.66914  -0.90505   0.55604 
 C                    -3.42177  -2.16722   0.0301 
 C                    -4.68638  -2.73549  -0.22054 
 C                    -5.70903  -1.8482    0.13095 
 C                    -5.03852  -0.69496   0.63781 
 C                    -5.52828   0.54475   1.13623 
 C                    -6.98115   0.74954   1.29918 
 O                    -7.74934   0.01091   1.90285 
 C                    -8.79387   2.24234   0.86939 
 C                    -9.72369   1.50911  -0.06868 
 C                    -9.30828   1.12916  -1.35333 
 C                    -10.19073   0.50318  -2.22622 
 C                    -11.49946   0.2698   -1.80089 
 C                    -11.94254   0.64133  -0.5307 
 C                    -11.04375   1.25844   0.33121 
 N                    -12.43161  -0.38379  -2.71029 
 O                    -12.02886  -0.71751  -3.83061 
 O                    -13.59096  -0.57957  -2.32789 
 C                    -4.6231    1.57909   1.51369 
 N                    -3.26678   1.48554   1.20981 
 C                    -2.60888   2.5923    1.73204 
 C                    -3.59133   3.35096   2.39841 
 C                    -4.84681   2.75259   2.28998 
 C                    -6.1025    3.24271   2.94347 
 C                    -1.22624   2.96745   1.62411 
 C                    -0.2563    2.48868   0.80006 
 C                     1.1319    2.93887   0.76556 
 C                     1.6876    3.87478   1.66934 
 C                     3.01447   4.26358   1.58014 
 C                     3.84843   3.72938   0.58272 
 O                     5.14448   4.17522   0.58767 
 C                     6.04229   3.67331  -0.4127 
 C                     7.40819   4.28488  -0.15771 
 O                     7.43745   5.70639  -0.23406 
 C                     7.33974   6.22802  -1.56104 
 C                     7.71291   7.69891  -1.52068 
 O                     9.06922   7.90851  -1.11491 
 C                     9.97113   8.29604  -2.15131 
 C                     10.28646   7.19459  -3.16096 
 O                     10.69342   5.95897  -2.57799 
 C                     11.95029   6.01702  -1.91084 
 C                     3.32844   2.79865  -0.32382 
 C                     1.99047   2.41778  -0.22105 
 C                    -7.17344  -2.10807  -0.04577 
 C                    -2.07985  -2.66276  -0.12162 
 C                    -1.67047  -3.76638  -0.80283 
 C                    -0.29486  -4.24489  -0.90776 
 C                    -0.02902  -5.39074  -1.68085 
 C                     1.25799  -5.90755  -1.83106 
 C                     2.33047  -5.27295  -1.19441 
 O                     3.63593  -5.68423  -1.26608 
 C                     3.93909  -6.85875  -2.03313 
 C                     5.42501  -7.11062  -1.93605 
 O                     5.74061  -7.48517  -0.59542 
 C                     7.11753  -7.80226  -0.39127 
 C                     7.96503  -6.5519   -0.14304 
 O                     9.32873  -6.91568   0.09674 
 C                     9.64365  -7.1688    1.46768 
 C                     10.10353  -5.88836   2.15667 
 O                     10.42408  -6.21125   3.50407 
 C                     10.8803  -5.07951   4.23348 
 C                     2.09333  -4.12694  -0.41593 
 C                     0.80931  -3.62594  -0.27604 
 F                    -1.55336  -0.19267   1.50462 
 F                    -2.06156   0.4398   -0.63774 
 H                    -9.08372   2.07646   1.90847 
 H                    -8.82787   3.31536   0.6616 
 H                    -8.28936   1.32106  -1.67024 
 H                    -9.8782    0.205    -3.21867 
 H                    -12.96237   0.44213  -0.2278 
 H                    -11.36932   1.54531   1.32621 
 H                    -6.72902   2.41734   3.29224 
 H                    -5.85309   3.85488   3.81441 
 H                    -6.71186   3.85994   2.27396 
 H                    -0.97102   3.78782   2.29021 
 H                    -0.50653   1.72262   0.07545 
 H                     1.07587   4.29982   2.45892 
 H                     3.43202   4.98057   2.28029 
 H                     6.1253    2.58163  -0.3401 
 H                     5.66601   3.92372  -1.41133 
 H                     7.73316   4.03274   0.85649 
 H                     8.1211    3.84189  -0.86812 
 H                     8.00857   5.67194  -2.23038 
 H                     6.31471   6.13701  -1.94905 
 H                     7.51965   8.14876  -2.50209 
 H                     7.07476   8.20686  -0.78727 
 H                     9.58168   9.16323  -2.70533 
 H                     10.88094   8.61627  -1.63515 
 H                     9.39885   6.95738  -3.75509 
 H                     11.0602   7.5738   -3.84717 
 H                     12.22141   4.9899   -1.65401 
 H                     12.72925   6.43889  -2.56138 
 H                     11.90541   6.60741  -0.9871 
 H                     3.94691   2.3676   -1.1016 
 H                     1.59764   1.69344  -0.92974 
 H                    -7.67963  -2.30681   0.90421 
 H                    -7.68452  -1.25977  -0.50987 
 H                    -7.3204   -2.97695  -0.69159 
 H                    -1.33281  -2.0606    0.38323 
 H                    -2.39852  -4.36822  -1.33684 
 H                    -0.85454  -5.89171  -2.17963 
 H                     1.40972  -6.79232  -2.43731 
 H                     3.3822   -7.71831  -1.64145 
 H                     3.66401  -6.70842  -3.08393 
 H                     5.68702  -7.92099  -2.63155 
 H                     5.97488  -6.2105   -2.2408 
 H                     7.15612  -8.45362   0.48781 
 H                     7.51938  -8.36227  -1.24682 
 H                     7.9651   -5.90305  -1.02414 
 H                     7.55047  -5.98118   0.69683 
 H                     8.78775  -7.59787   2.00283 
 H                     10.45311  -7.90589   1.48112 
 H                     10.98219  -5.48033   1.63411 
 H                     9.30964  -5.12631   2.12089 
 H                     11.10079  -5.41359   5.2503 
 H                     11.79274  -4.65593   3.79009 
 H                     10.11476  -4.29153   4.27381 
 H                     2.93432  -3.64562   0.07351 
 H                     0.66251  -2.74095   0.33493 
 O                    -7.40776   1.88534   0.67956 
 Cl                   -4.97268  -4.35364  -0.82302 
 Cl                   -3.28054   4.85848   3.23179 
 
 ITRead=  0  0  0  0  0  0  0  0  0  0  0  0  0  0  0  0  0  0  0  0
 ITRead=  0  0  0  0  0  0  0  0  0  0  0  0  0  0  0  0  0  0  0  0
 ITRead=  0  0  0  0  0  0  0  0  0  0  0  0  0  0  0  0  0  0  0  0
 ITRead=  0  0  0  0  0  0  0  0  0  0  0  0  0  0  0  0  0  0  0  0
 ITRead=  0  0  0  0  0  0  0  0  0  0  0  0  0  0  0  0  0  0  0  0
 ITRead=  0  0  0  0  0  0  0  0  0  0  0  0  0  0  0  0  0  0  0  0
 ITRead=  0  0  0
 MicOpt= -1 -1 -1 -1 -1 -1 -1 -1 -1 -1 -1 -1 -1 -1 -1 -1 -1 -1 -1 -1
 MicOpt= -1 -1 -1 -1 -1 -1 -1 -1 -1 -1 -1 -1 -1 -1 -1 -1 -1 -1 -1 -1
 MicOpt= -1 -1 -1 -1 -1 -1 -1 -1 -1 -1 -1 -1 -1 -1 -1 -1 -1 -1 -1 -1
 MicOpt= -1 -1 -1 -1 -1 -1 -1 -1 -1 -1 -1 -1 -1 -1 -1 -1 -1 -1 -1 -1
 MicOpt= -1 -1 -1 -1 -1 -1 -1 -1 -1 -1 -1 -1 -1 -1 -1 -1 -1 -1 -1 -1
 MicOpt= -1 -1 -1 -1 -1 -1 -1 -1 -1 -1 -1 -1 -1 -1 -1 -1 -1 -1 -1 -1
 MicOpt= -1 -1 -1
 NAtoms=    123 NQM=      123 NQMF=       0 NMMI=      0 NMMIF=      0
                NMic=       0 NMicF=      0.
                    Isotopes and Nuclear Properties:
 (Nuclear quadrupole moments (NQMom) in fm**2, nuclear magnetic moments (NMagM)
  in nuclear magnetons)

  Atom         1           2           3           4           5           6           7           8           9          10
 IAtWgt=          11          14          12          12          12          12          12          12          16          12
 AtmWgt=  11.0093053  14.0030740  12.0000000  12.0000000  12.0000000  12.0000000  12.0000000  12.0000000  15.9949146  12.0000000
 NucSpn=           3           2           0           0           0           0           0           0           0           0
 AtZEff=  -0.0000000  -0.0000000  -0.0000000  -0.0000000  -0.0000000  -0.0000000  -0.0000000  -0.0000000  -0.0000000  -0.0000000
 NQMom=    4.0590000   2.0440000   0.0000000   0.0000000   0.0000000   0.0000000   0.0000000   0.0000000   0.0000000   0.0000000
 NMagM=    2.6886370   0.4037610   0.0000000   0.0000000   0.0000000   0.0000000   0.0000000   0.0000000   0.0000000   0.0000000
 AtZNuc=   5.0000000   7.0000000   6.0000000   6.0000000   6.0000000   6.0000000   6.0000000   6.0000000   8.0000000   6.0000000

  Atom        11          12          13          14          15          16          17          18          19          20
 IAtWgt=          12          12          12          12          12          12          14          16          16          12
 AtmWgt=  12.0000000  12.0000000  12.0000000  12.0000000  12.0000000  12.0000000  14.0030740  15.9949146  15.9949146  12.0000000
 NucSpn=           0           0           0           0           0           0           2           0           0           0
 AtZEff=  -0.0000000  -0.0000000  -0.0000000  -0.0000000  -0.0000000  -0.0000000  -0.0000000  -0.0000000  -0.0000000  -0.0000000
 NQMom=    0.0000000   0.0000000   0.0000000   0.0000000   0.0000000   0.0000000   2.0440000   0.0000000   0.0000000   0.0000000
 NMagM=    0.0000000   0.0000000   0.0000000   0.0000000   0.0000000   0.0000000   0.4037610   0.0000000   0.0000000   0.0000000
 AtZNuc=   6.0000000   6.0000000   6.0000000   6.0000000   6.0000000   6.0000000   7.0000000   8.0000000   8.0000000   6.0000000

  Atom        21          22          23          24          25          26          27          28          29          30
 IAtWgt=          14          12          12          12          12          12          12          12          12          12
 AtmWgt=  14.0030740  12.0000000  12.0000000  12.0000000  12.0000000  12.0000000  12.0000000  12.0000000  12.0000000  12.0000000
 NucSpn=           2           0           0           0           0           0           0           0           0           0
 AtZEff=  -0.0000000  -0.0000000  -0.0000000  -0.0000000  -0.0000000  -0.0000000  -0.0000000  -0.0000000  -0.0000000  -0.0000000
 NQMom=    2.0440000   0.0000000   0.0000000   0.0000000   0.0000000   0.0000000   0.0000000   0.0000000   0.0000000   0.0000000
 NMagM=    0.4037610   0.0000000   0.0000000   0.0000000   0.0000000   0.0000000   0.0000000   0.0000000   0.0000000   0.0000000
 AtZNuc=   7.0000000   6.0000000   6.0000000   6.0000000   6.0000000   6.0000000   6.0000000   6.0000000   6.0000000   6.0000000

  Atom        31          32          33          34          35          36          37          38          39          40
 IAtWgt=          12          16          12          12          16          12          12          16          12          12
 AtmWgt=  12.0000000  15.9949146  12.0000000  12.0000000  15.9949146  12.0000000  12.0000000  15.9949146  12.0000000  12.0000000
 NucSpn=           0           0           0           0           0           0           0           0           0           0
 AtZEff=  -0.0000000  -0.0000000  -0.0000000  -0.0000000  -0.0000000  -0.0000000  -0.0000000  -0.0000000  -0.0000000  -0.0000000
 NQMom=    0.0000000   0.0000000   0.0000000   0.0000000   0.0000000   0.0000000   0.0000000   0.0000000   0.0000000   0.0000000
 NMagM=    0.0000000   0.0000000   0.0000000   0.0000000   0.0000000   0.0000000   0.0000000   0.0000000   0.0000000   0.0000000
 AtZNuc=   6.0000000   8.0000000   6.0000000   6.0000000   8.0000000   6.0000000   6.0000000   8.0000000   6.0000000   6.0000000

  Atom        41          42          43          44          45          46          47          48          49          50
 IAtWgt=          16          12          12          12          12          12          12          12          12          12
 AtmWgt=  15.9949146  12.0000000  12.0000000  12.0000000  12.0000000  12.0000000  12.0000000  12.0000000  12.0000000  12.0000000
 NucSpn=           0           0           0           0           0           0           0           0           0           0
 AtZEff=  -0.0000000  -0.0000000  -0.0000000  -0.0000000  -0.0000000  -0.0000000  -0.0000000  -0.0000000  -0.0000000  -0.0000000
 NQMom=    0.0000000   0.0000000   0.0000000   0.0000000   0.0000000   0.0000000   0.0000000   0.0000000   0.0000000   0.0000000
 NMagM=    0.0000000   0.0000000   0.0000000   0.0000000   0.0000000   0.0000000   0.0000000   0.0000000   0.0000000   0.0000000
 AtZNuc=   8.0000000   6.0000000   6.0000000   6.0000000   6.0000000   6.0000000   6.0000000   6.0000000   6.0000000   6.0000000

  Atom        51          52          53          54          55          56          57          58          59          60
 IAtWgt=          12          16          12          12          16          12          12          16          12          12
 AtmWgt=  12.0000000  15.9949146  12.0000000  12.0000000  15.9949146  12.0000000  12.0000000  15.9949146  12.0000000  12.0000000
 NucSpn=           0           0           0           0           0           0           0           0           0           0
 AtZEff=  -0.0000000  -0.0000000  -0.0000000  -0.0000000  -0.0000000  -0.0000000  -0.0000000  -0.0000000  -0.0000000  -0.0000000
 NQMom=    0.0000000   0.0000000   0.0000000   0.0000000   0.0000000   0.0000000   0.0000000   0.0000000   0.0000000   0.0000000
 NMagM=    0.0000000   0.0000000   0.0000000   0.0000000   0.0000000   0.0000000   0.0000000   0.0000000   0.0000000   0.0000000
 AtZNuc=   6.0000000   8.0000000   6.0000000   6.0000000   8.0000000   6.0000000   6.0000000   8.0000000   6.0000000   6.0000000

  Atom        61          62          63          64          65          66          67          68          69          70
 IAtWgt=          16          12          12          12          19          19           1           1           1           1
 AtmWgt=  15.9949146  12.0000000  12.0000000  12.0000000  18.9984033  18.9984033   1.0078250   1.0078250   1.0078250   1.0078250
 NucSpn=           0           0           0           0           1           1           1           1           1           1
 AtZEff=  -0.0000000  -0.0000000  -0.0000000  -0.0000000  -0.0000000  -0.0000000  -0.0000000  -0.0000000  -0.0000000  -0.0000000
 NQMom=    0.0000000   0.0000000   0.0000000   0.0000000   0.0000000   0.0000000   0.0000000   0.0000000   0.0000000   0.0000000
 NMagM=    0.0000000   0.0000000   0.0000000   0.0000000   2.6288670   2.6288670   2.7928460   2.7928460   2.7928460   2.7928460
 AtZNuc=   8.0000000   6.0000000   6.0000000   6.0000000   9.0000000   9.0000000   1.0000000   1.0000000   1.0000000   1.0000000

  Atom        71          72          73          74          75          76          77          78          79          80
 IAtWgt=           1           1           1           1           1           1           1           1           1           1
 AtmWgt=   1.0078250   1.0078250   1.0078250   1.0078250   1.0078250   1.0078250   1.0078250   1.0078250   1.0078250   1.0078250
 NucSpn=           1           1           1           1           1           1           1           1           1           1
 AtZEff=  -0.0000000  -0.0000000  -0.0000000  -0.0000000  -0.0000000  -0.0000000  -0.0000000  -0.0000000  -0.0000000  -0.0000000
 NQMom=    0.0000000   0.0000000   0.0000000   0.0000000   0.0000000   0.0000000   0.0000000   0.0000000   0.0000000   0.0000000
 NMagM=    2.7928460   2.7928460   2.7928460   2.7928460   2.7928460   2.7928460   2.7928460   2.7928460   2.7928460   2.7928460
 AtZNuc=   1.0000000   1.0000000   1.0000000   1.0000000   1.0000000   1.0000000   1.0000000   1.0000000   1.0000000   1.0000000

  Atom        81          82          83          84          85          86          87          88          89          90
 IAtWgt=           1           1           1           1           1           1           1           1           1           1
 AtmWgt=   1.0078250   1.0078250   1.0078250   1.0078250   1.0078250   1.0078250   1.0078250   1.0078250   1.0078250   1.0078250
 NucSpn=           1           1           1           1           1           1           1           1           1           1
 AtZEff=  -0.0000000  -0.0000000  -0.0000000  -0.0000000  -0.0000000  -0.0000000  -0.0000000  -0.0000000  -0.0000000  -0.0000000
 NQMom=    0.0000000   0.0000000   0.0000000   0.0000000   0.0000000   0.0000000   0.0000000   0.0000000   0.0000000   0.0000000
 NMagM=    2.7928460   2.7928460   2.7928460   2.7928460   2.7928460   2.7928460   2.7928460   2.7928460   2.7928460   2.7928460
 AtZNuc=   1.0000000   1.0000000   1.0000000   1.0000000   1.0000000   1.0000000   1.0000000   1.0000000   1.0000000   1.0000000

  Atom        91          92          93          94          95          96          97          98          99         100
 IAtWgt=           1           1           1           1           1           1           1           1           1           1
 AtmWgt=   1.0078250   1.0078250   1.0078250   1.0078250   1.0078250   1.0078250   1.0078250   1.0078250   1.0078250   1.0078250
 NucSpn=           1           1           1           1           1           1           1           1           1           1
 AtZEff=  -0.0000000  -0.0000000  -0.0000000  -0.0000000  -0.0000000  -0.0000000  -0.0000000  -0.0000000  -0.0000000  -0.0000000
 NQMom=    0.0000000   0.0000000   0.0000000   0.0000000   0.0000000   0.0000000   0.0000000   0.0000000   0.0000000   0.0000000
 NMagM=    2.7928460   2.7928460   2.7928460   2.7928460   2.7928460   2.7928460   2.7928460   2.7928460   2.7928460   2.7928460
 AtZNuc=   1.0000000   1.0000000   1.0000000   1.0000000   1.0000000   1.0000000   1.0000000   1.0000000   1.0000000   1.0000000

  Atom       101         102         103         104         105         106         107         108         109         110
 IAtWgt=           1           1           1           1           1           1           1           1           1           1
 AtmWgt=   1.0078250   1.0078250   1.0078250   1.0078250   1.0078250   1.0078250   1.0078250   1.0078250   1.0078250   1.0078250
 NucSpn=           1           1           1           1           1           1           1           1           1           1
 AtZEff=  -0.0000000  -0.0000000  -0.0000000  -0.0000000  -0.0000000  -0.0000000  -0.0000000  -0.0000000  -0.0000000  -0.0000000
 NQMom=    0.0000000   0.0000000   0.0000000   0.0000000   0.0000000   0.0000000   0.0000000   0.0000000   0.0000000   0.0000000
 NMagM=    2.7928460   2.7928460   2.7928460   2.7928460   2.7928460   2.7928460   2.7928460   2.7928460   2.7928460   2.7928460
 AtZNuc=   1.0000000   1.0000000   1.0000000   1.0000000   1.0000000   1.0000000   1.0000000   1.0000000   1.0000000   1.0000000

  Atom       111         112         113         114         115         116         117         118         119         120
 IAtWgt=           1           1           1           1           1           1           1           1           1           1
 AtmWgt=   1.0078250   1.0078250   1.0078250   1.0078250   1.0078250   1.0078250   1.0078250   1.0078250   1.0078250   1.0078250
 NucSpn=           1           1           1           1           1           1           1           1           1           1
 AtZEff=  -0.0000000  -0.0000000  -0.0000000  -0.0000000  -0.0000000  -0.0000000  -0.0000000  -0.0000000  -0.0000000  -0.0000000
 NQMom=    0.0000000   0.0000000   0.0000000   0.0000000   0.0000000   0.0000000   0.0000000   0.0000000   0.0000000   0.0000000
 NMagM=    2.7928460   2.7928460   2.7928460   2.7928460   2.7928460   2.7928460   2.7928460   2.7928460   2.7928460   2.7928460
 AtZNuc=   1.0000000   1.0000000   1.0000000   1.0000000   1.0000000   1.0000000   1.0000000   1.0000000   1.0000000   1.0000000

  Atom       121         122         123
 IAtWgt=          16          35          35
 AtmWgt=  15.9949146  34.9688527  34.9688527
 NucSpn=           0           3           3
 AtZEff=  -0.0000000  -0.0000000  -0.0000000
 NQMom=    0.0000000  -8.1650000  -8.1650000
 NMagM=    0.0000000   0.8218740   0.8218740
 AtZNuc=   8.0000000  17.0000000  17.0000000
 Leave Link  101 at Fri Nov 14 00:50:10 2025, MaxMem= 30870077440 cpu:               6.5 elap:               0.1
 (Enter /public/software/gauss/g16/l202.exe)
 Stoichiometry    C49H54BCl2F2N3O12(1-,2)
 Framework group  C1[X(C49H54BCl2F2N3O12)]
 Deg. of freedom   363
 Full point group                 C1      NOp   1
 Largest Abelian subgroup         C1      NOp   1
 Largest concise Abelian subgroup C1      NOp   1
                         Standard orientation:                         
 ---------------------------------------------------------------------
 Center     Atomic      Atomic             Coordinates (Angstroms)
 Number     Number       Type             X           Y           Z
 ---------------------------------------------------------------------
      1          5           0        2.599132   -0.208784    0.650131
      2          7           0        3.669135    0.905047    0.556036
      3          6           0        3.421772    2.167216    0.030099
      4          6           0        4.686379    2.735493   -0.220543
      5          6           0        5.709032    1.848200    0.130953
      6          6           0        5.038518    0.694961    0.637811
      7          6           0        5.528275   -0.544745    1.136233
      8          6           0        6.981146   -0.749540    1.299183
      9          8           0        7.749338   -0.010907    1.902845
     10          6           0        8.793871   -2.242335    0.869389
     11          6           0        9.723689   -1.509108   -0.068678
     12          6           0        9.308276   -1.129163   -1.353331
     13          6           0       10.190729   -0.503175   -2.226224
     14          6           0       11.499459   -0.269798   -1.800887
     15          6           0       11.942544   -0.641331   -0.530703
     16          6           0       11.043748   -1.258437    0.331211
     17          7           0       12.431611    0.383792   -2.710294
     18          8           0       12.028862    0.717505   -3.830608
     19          8           0       13.590958    0.579572   -2.327890
     20          6           0        4.623102   -1.579088    1.513691
     21          7           0        3.266784   -1.485541    1.209806
     22          6           0        2.608876   -2.592304    1.732039
     23          6           0        3.591327   -3.350956    2.398405
     24          6           0        4.846805   -2.752585    2.289975
     25          6           0        6.102498   -3.242707    2.943469
     26          6           0        1.226242   -2.967450    1.624110
     27          6           0        0.256302   -2.488675    0.800061
     28          6           0       -1.131903   -2.938873    0.765558
     29          6           0       -1.687596   -3.874778    1.669336
     30          6           0       -3.014472   -4.263583    1.580138
     31          6           0       -3.848432   -3.729377    0.582722
     32          8           0       -5.144478   -4.175221    0.587672
     33          6           0       -6.042292   -3.673314   -0.412699
     34          6           0       -7.408188   -4.284876   -0.157711
     35          8           0       -7.437455   -5.706386   -0.234059
     36          6           0       -7.339740   -6.228015   -1.561041
     37          6           0       -7.712905   -7.698907   -1.520677
     38          8           0       -9.069217   -7.908508   -1.114912
     39          6           0       -9.971128   -8.296041   -2.151309
     40          6           0      -10.286456   -7.194594   -3.160959
     41          8           0      -10.693424   -5.958968   -2.577994
     42          6           0      -11.950287   -6.017022   -1.910835
     43          6           0       -3.328438   -2.798651   -0.323817
     44          6           0       -1.990474   -2.417780   -0.221054
     45          6           0        7.173435    2.108071   -0.045770
     46          6           0        2.079845    2.662763   -0.121621
     47          6           0        1.670474    3.766382   -0.802834
     48          6           0        0.294856    4.244889   -0.907760
     49          6           0        0.029018    5.390737   -1.680849
     50          6           0       -1.257987    5.907553   -1.831061
     51          6           0       -2.330467    5.272953   -1.194413
     52          8           0       -3.635934    5.684231   -1.266084
     53          6           0       -3.939086    6.858749   -2.033134
     54          6           0       -5.425006    7.110623   -1.936054
     55          8           0       -5.740609    7.485172   -0.595416
     56          6           0       -7.117534    7.802256   -0.391272
     57          6           0       -7.965030    6.551903   -0.143038
     58          8           0       -9.328727    6.915683    0.096737
     59          6           0       -9.643652    7.168796    1.467678
     60          6           0      -10.103528    5.888361    2.156674
     61          8           0      -10.424075    6.211251    3.504066
     62          6           0      -10.880299    5.079509    4.233485
     63          6           0       -2.093327    4.126943   -0.415927
     64          6           0       -0.809310    3.625937   -0.276039
     65          9           0        1.553360    0.192674    1.504617
     66          9           0        2.061557   -0.439800   -0.637737
     67          1           0        9.083722   -2.076459    1.908467
     68          1           0        8.827868   -3.315363    0.661598
     69          1           0        8.289363   -1.321064   -1.670239
     70          1           0        9.878204   -0.205000   -3.218674
     71          1           0       12.962373   -0.442132   -0.227795
     72          1           0       11.369317   -1.545305    1.326207
     73          1           0        6.729023   -2.417338    3.292237
     74          1           0        5.853085   -3.854880    3.814414
     75          1           0        6.711860   -3.859938    2.273959
     76          1           0        0.971017   -3.787816    2.290210
     77          1           0        0.506526   -1.722624    0.075448
     78          1           0       -1.075867   -4.299821    2.458916
     79          1           0       -3.432019   -4.980570    2.280292
     80          1           0       -6.125295   -2.581627   -0.340102
     81          1           0       -5.666011   -3.923721   -1.411334
     82          1           0       -7.733158   -4.032741    0.856488
     83          1           0       -8.121098   -3.841886   -0.868123
     84          1           0       -8.008569   -5.671936   -2.230382
     85          1           0       -6.314709   -6.137012   -1.949051
     86          1           0       -7.519648   -8.148762   -2.502086
     87          1           0       -7.074762   -8.206863   -0.787269
     88          1           0       -9.581684   -9.163232   -2.705325
     89          1           0      -10.880944   -8.616272   -1.635148
     90          1           0       -9.398850   -6.957379   -3.755087
     91          1           0      -11.060199   -7.573796   -3.847172
     92          1           0      -12.221411   -4.989902   -1.654009
     93          1           0      -12.729252   -6.438893   -2.561382
     94          1           0      -11.905414   -6.607409   -0.987101
     95          1           0       -3.946912   -2.367596   -1.101602
     96          1           0       -1.597639   -1.693442   -0.929743
     97          1           0        7.679632    2.306813    0.904205
     98          1           0        7.684515    1.259766   -0.509872
     99          1           0        7.320400    2.976945   -0.691593
    100          1           0        1.332806    2.060596    0.383227
    101          1           0        2.398519    4.368218   -1.336840
    102          1           0        0.854537    5.891711   -2.179625
    103          1           0       -1.409715    6.792319   -2.437310
    104          1           0       -3.382204    7.718306   -1.641445
    105          1           0       -3.664007    6.708419   -3.083932
    106          1           0       -5.687023    7.920990   -2.631552
    107          1           0       -5.974883    6.210502   -2.240804
    108          1           0       -7.156117    8.453622    0.487813
    109          1           0       -7.519382    8.362273   -1.246823
    110          1           0       -7.965098    5.903053   -1.024137
    111          1           0       -7.550473    5.981184    0.696829
    112          1           0       -8.787749    7.597868    2.002826
    113          1           0      -10.453106    7.905885    1.481120
    114          1           0      -10.982191    5.480327    1.634110
    115          1           0       -9.309635    5.126310    2.120894
    116          1           0      -11.100792    5.413591    5.250300
    117          1           0      -11.792740    4.655933    3.790088
    118          1           0      -10.114756    4.291534    4.273814
    119          1           0       -2.934322    3.645619    0.073509
    120          1           0       -0.662510    2.740945    0.334929
    121          8           0        7.407763   -1.885344    0.679555
    122         17           0        4.972675    4.353642   -0.823021
    123         17           0        3.280541   -4.858475    3.231790
 ---------------------------------------------------------------------
 Rotational constants (GHZ):           0.0226754           0.0097721           0.0074198
 Leave Link  202 at Fri Nov 14 00:50:10 2025, MaxMem= 30870077440 cpu:               0.2 elap:               0.0
 (Enter /public/software/gauss/g16/l301.exe)
 Standard basis: def2TZVPP (5D, 7F)
 Ernie: Thresh=  0.10000D-02 Tol=  0.10000D-05 Strict=F.
 There are  3318 symmetry adapted cartesian basis functions of A   symmetry.
 There are  2917 symmetry adapted basis functions of A   symmetry.
  2917 basis functions,  4473 primitive gaussians,  3318 cartesian basis functions
   262 alpha electrons      261 beta electrons
       nuclear repulsion energy     10039.9255918810 Hartrees.
 IExCor= 4336 DFT=T Ex+Corr=M062X ExCW=0 ScaHFX=  0.540000
 ScaDFX=  1.000000  1.000000  1.000000  1.000000 ScalE2=  1.000000  1.000000
 IRadAn=      5 IRanWt=     -1 IRanGd=            0 ICorTp=0 IEmpDi=131
 NAtoms=  123 NActive=  123 NUniq=  123 SFac= 1.00D+00 NAtFMM=   60 NAOKFM=T Big=T
 Integral buffers will be    131072 words long.
 Raffenetti 2 integral format.
 Two-electron integral symmetry is turned on.
 R6Disp:  Grimme-D3 Dispersion energy=       -0.0100823082 Hartrees.
 Nuclear repulsion after empirical dispersion term =    10039.9155095728 Hartrees.
 ------------------------------------------------------------------------------
 Polarizable Continuum Model (PCM)
 =================================
 Model                : PCM.
 Atomic radii         : UFF (Universal Force Field).
 Polarization charges : Total charges.
 Charge compensation  : None.
 Solution method      : On-the-fly selection.
 Cavity type          : Scaled VdW (van der Waals Surface) (Alpha=1.100).
 Cavity algorithm     : GePol (No added spheres)
                        Default sphere list used, NSphG=  123.
                        Lebedev-Laikov grids with approx.  5.0 points / Ang**2.
                        Smoothing algorithm: York/Karplus (Gamma=1.0000).
                        Polarization charges: spherical gaussians, with
                                              point-specific exponents (IZeta= 3).
                        Self-potential: point-specific (ISelfS= 7).
                        Self-field    : sphere-specific E.n sum rule (ISelfD= 2).
 Solvent              : Water, Eps=  78.355300 Eps(inf)=   1.777849
 ------------------------------------------------------------------------------
 GePol: Number of generator spheres                  =     123
 GePol: Total number of spheres                      =     123
 GePol: Number of exposed spheres                    =     123 (100.00%)
 GePol: Number of points                             =    8773
 GePol: Average weight of points                     =       0.13
 GePol: Minimum weight of points                     =   0.31D-11
 GePol: Maximum weight of points                     =    0.21616
 GePol: Number of points with low weight             =     571
 GePol: Fraction of low-weight points (<1% of avg)   =       6.51%
 GePol: Cavity surface area                          =   1134.019 Ang**2
 GePol: Cavity volume                                =   1291.761 Ang**3
 Leave Link  301 at Fri Nov 14 00:50:10 2025, MaxMem= 30870077440 cpu:               5.4 elap:               0.1
 (Enter /public/software/gauss/g16/l302.exe)
 NPDir=0 NMtPBC=     1 NCelOv=     1 NCel=       1 NClECP=     1 NCelD=      1
         NCelK=      1 NCelE2=     1 NClLst=     1 CellRange=     0.0.
 One-electron integrals computed using PRISM.
 One-electron integral symmetry used in STVInt
   1 Symmetry operations used in ECPInt.
 ECPInt:  NShTT=  593505 NPrTT= 1669757 LenC2=  243575 LenP2D=  452405.
 LDataN:  DoStor=T MaxTD1= 6 Len=  172
 Number of processors reduced to  58 by ecpmxn.
 NBasis=  2917 RedAO= T EigKep=  6.60D-06  NBF=  2917
 NBsUse=  2917 1.00D-06 EigRej= -1.00D+00 NBFU=  2917
 Precomputing XC quadrature grid using
 IXCGrd= 4 IRadAn=           5 IRanWt=          -1 IRanGd=           0 AccXCQ= 0.00D+00.
 Generated NRdTot=       0 NPtTot=           0 NUsed=           0 NTot=          32
 NSgBfM=  2432  2393  2407  2423  2432 MxSgAt=   123 MxSgA2=   123.
 Leave Link  302 at Fri Nov 14 00:50:41 2025, MaxMem= 30870077440 cpu:            1949.2 elap:              30.6
 (Enter /public/software/gauss/g16/l303.exe)
 DipDrv:  MaxL=1.
 Leave Link  303 at Fri Nov 14 00:50:42 2025, MaxMem= 30870077440 cpu:              58.1 elap:               1.0
 (Enter /public/software/gauss/g16/l401.exe)
 ExpMin= 6.06D-02 ExpMax= 6.95D+04 ExpMxC= 2.37D+03 IAcc=3 IRadAn=         5 AccDes= 0.00D+00
 Harris functional with IExCor= 1009 and IRadAn=       5 diagonalized for initial guess.
 HarFok:  IExCor= 1009 AccDes= 0.00D+00 IRadAn=         5 IDoV= 1 UseB2=F ITyADJ=14
 ICtDFT=  3500011 ScaDFX=  1.000000  1.000000  1.000000  1.000000
 FoFCou: FMM=F IPFlag=           0 FMFlag=      100000 FMFlg1=        2001
         NFxFlg=           0 DoJE=T BraDBF=F KetDBF=T FulRan=T
         wScrn=  0.000000 ICntrl=       500 IOpCl=  0 I1Cent=   200000004 NGrid=           0
         NMat0=    1 NMatS0=      1 NMatT0=    0 NMatD0=    1 NMtDS0=    0 NMtDT0=    0
 Petite list used in FoFCou.
 Harris En= -4109.68829417459    
 JPrj=0 DoOrth=F DoCkMO=F.
 Initial guess <Sx>= 0.0000 <Sy>= 0.0000 <Sz>= 0.5000 <S**2>= 0.7500 S= 0.5000
 Leave Link  401 at Fri Nov 14 00:51:07 2025, MaxMem= 30870077440 cpu:            1590.6 elap:              25.0
 (Enter /public/software/gauss/g16/l502.exe)
 Integral symmetry usage will be decided dynamically.
 UHF open shell SCF:
 Using DIIS extrapolation, IDIIS=  1040.
 NGot= 30870077440 LenX= 30847818941 LenY= 30836806499
 Requested convergence on RMS density matrix=1.00D-08 within 128 cycles.
 Requested convergence on MAX density matrix=1.00D-06.
 Requested convergence on             energy=1.00D-06.
 No special actions if energy rises.
 Fock matrices will be formed incrementally for  20 cycles.

 Cycle   1  Pass 1  IDiag  1:
 FoFJK:  IHMeth= 1 ICntrl=       0 DoSepK=F KAlg= 0 I1Cent=           0 FoldK=F
 IRaf= 370000000 NMat=       1 IRICut=       1 DoRegI=T DoRafI=F ISym2E= 0 IDoP0=0 IntGTp=1.
 FoFCou: FMM=T IPFlag=           0 FMFlag=      100000 FMFlg1=        2001
         NFxFlg=           0 DoJE=F BraDBF=F KetDBF=F FulRan=T
         wScrn=  0.000000 ICntrl=         0 IOpCl=  1 I1Cent=           0 NGrid=           0
         NMat0=    1 NMatS0=      1 NMatT0=    0 NMatD0=    1 NMtDS0=    0 NMtDT0=    0
 Symmetry not used in FoFCou.
 FMM levels:  10  Number of levels for PrismC:   9
 Inv3:  Mode=1 IEnd=   230896587.
 Iteration    1 A*A^-1 deviation from unit magnitude is 2.92D-14 for   5482.
 Iteration    1 A*A^-1 deviation from orthogonality  is 1.10D-14 for   8773   5019.
 Iteration    1 A^-1*A deviation from unit magnitude is 2.92D-14 for   5482.
 Iteration    1 A^-1*A deviation from orthogonality  is 1.57D-14 for   5616   5601.
 E= -4110.12374491286    
 DIIS: error= 2.12D-02 at cycle   1 NSaved=   1.
 NSaved= 1 IEnMin= 1 EnMin= -4110.12374491286     IErMin= 1 ErrMin= 2.12D-02
 ErrMax= 2.12D-02  0.00D+00 EMaxC= 1.00D-01 BMatC= 8.86D+00 BMatP= 8.86D+00
 IDIUse=3 WtCom= 7.88D-01 WtEn= 2.12D-01
 Coeff-Com:  0.100D+01
 Coeff-En:   0.100D+01
 Coeff:      0.100D+01
 Gap=     0.056 Goal=   None    Shift=    0.000
 Gap=     0.216 Goal=   None    Shift=    0.000
 GapD=    0.056 DampG=0.500 DampE=0.500 DampFc=0.2500 IDamp=-1.
 Damping current iteration by 2.50D-01
 RMSDP=1.55D-03 MaxDP=5.12D-01              OVMax= 8.88D-01

 Cycle   2  Pass 1  IDiag  1:
 RMSU=  3.88D-04    CP:  1.00D+00
 E= -4110.66654924429     Delta-E=       -0.542804331428 Rises=F Damp=T
 DIIS: error= 1.04D-02 at cycle   2 NSaved=   2.
 NSaved= 2 IEnMin= 2 EnMin= -4110.66654924429     IErMin= 2 ErrMin= 1.04D-02
 ErrMax= 1.04D-02  0.00D+00 EMaxC= 1.00D-01 BMatC= 3.24D+00 BMatP= 8.86D+00
 IDIUse=3 WtCom= 8.96D-01 WtEn= 1.04D-01
 Coeff-Com: -0.119D+01 0.219D+01
 Coeff-En:   0.000D+00 0.100D+01
 Coeff:     -0.107D+01 0.207D+01
 Gap=    -0.062 Goal=   None    Shift=    0.000
 Gap=     0.256 Goal=   None    Shift=    0.000
 RMSDP=6.47D-04 MaxDP=1.31D-01 DE=-5.43D-01 OVMax= 8.84D-01

 Cycle   3  Pass 1  IDiag  1:
 RMSU=  5.52D-04    CP:  9.96D-01  1.87D+00
 E= -4111.64831170439     Delta-E=       -0.981762460107 Rises=F Damp=F
 DIIS: error= 1.40D-02 at cycle   3 NSaved=   3.
 NSaved= 3 IEnMin= 3 EnMin= -4111.64831170439     IErMin= 2 ErrMin= 1.04D-02
 ErrMax= 1.40D-02  0.00D+00 EMaxC= 1.00D-01 BMatC= 4.84D-01 BMatP= 3.24D+00
 IDIUse=3 WtCom= 8.60D-01 WtEn= 1.40D-01
 Coeff-Com: -0.587D+00 0.971D+00 0.616D+00
 Coeff-En:   0.000D+00 0.000D+00 0.100D+01
 Coeff:     -0.505D+00 0.835D+00 0.670D+00
 Gap=     0.060 Goal=   None    Shift=    0.000
 Gap=     0.126 Goal=   None    Shift=    0.000
 RMSDP=2.07D-04 MaxDP=4.34D-02 DE=-9.82D-01 OVMax= 1.24D-01

 Cycle   4  Pass 1  IDiag  1:
 RMSU=  1.88D-04    CP:  9.96D-01  1.95D+00  8.52D-01
 E= -4111.73565324711     Delta-E=       -0.087341542718 Rises=F Damp=F
 DIIS: error= 5.26D-03 at cycle   4 NSaved=   4.
 NSaved= 4 IEnMin= 4 EnMin= -4111.73565324711     IErMin= 4 ErrMin= 5.26D-03
 ErrMax= 5.26D-03  0.00D+00 EMaxC= 1.00D-01 BMatC= 8.67D-02 BMatP= 4.84D-01
 IDIUse=3 WtCom= 9.47D-01 WtEn= 5.26D-02
 Coeff-Com: -0.117D+00 0.177D+00 0.316D+00 0.624D+00
 Coeff-En:   0.000D+00 0.000D+00 0.663D-01 0.934D+00
 Coeff:     -0.110D+00 0.168D+00 0.303D+00 0.640D+00
 Gap=     0.095 Goal=   None    Shift=    0.000
 Gap=     0.130 Goal=   None    Shift=    0.000
 RMSDP=7.73D-05 MaxDP=1.25D-02 DE=-8.73D-02 OVMax= 4.46D-02

 Cycle   5  Pass 1  IDiag  1:
 RMSU=  7.57D-05    CP:  9.96D-01  1.98D+00  8.54D-01  9.56D-01
 E= -4111.75188055531     Delta-E=       -0.016227308193 Rises=F Damp=F
 DIIS: error= 1.71D-03 at cycle   5 NSaved=   5.
 NSaved= 5 IEnMin= 5 EnMin= -4111.75188055531     IErMin= 5 ErrMin= 1.71D-03
 ErrMax= 1.71D-03  0.00D+00 EMaxC= 1.00D-01 BMatC= 8.38D-03 BMatP= 8.67D-02
 IDIUse=3 WtCom= 9.83D-01 WtEn= 1.71D-02
 Coeff-Com: -0.341D-01 0.477D-01 0.106D+00 0.305D+00 0.575D+00
 Coeff-En:   0.000D+00 0.000D+00 0.000D+00 0.000D+00 0.100D+01
 Coeff:     -0.335D-01 0.469D-01 0.104D+00 0.300D+00 0.583D+00
 Gap=     0.109 Goal=   None    Shift=    0.000
 Gap=     0.131 Goal=   None    Shift=    0.000
 RMSDP=2.73D-05 MaxDP=8.89D-03 DE=-1.62D-02 OVMax= 1.73D-02

 Cycle   6  Pass 1  IDiag  1:
 RMSU=  2.49D-05    CP:  9.97D-01  1.99D+00  8.47D-01  1.01D+00  9.86D-01
 E= -4111.75360149912     Delta-E=       -0.001720943819 Rises=F Damp=F
 DIIS: error= 2.98D-04 at cycle   6 NSaved=   6.
 NSaved= 6 IEnMin= 6 EnMin= -4111.75360149912     IErMin= 6 ErrMin= 2.98D-04
 ErrMax= 2.98D-04  0.00D+00 EMaxC= 1.00D-01 BMatC= 4.60D-04 BMatP= 8.38D-03
 IDIUse=3 WtCom= 9.97D-01 WtEn= 2.98D-03
 Coeff-Com:  0.385D-02-0.636D-02-0.639D-02 0.400D-02 0.146D+00 0.859D+00
 Coeff-En:   0.000D+00 0.000D+00 0.000D+00 0.000D+00 0.000D+00 0.100D+01
 Coeff:      0.384D-02-0.634D-02-0.637D-02 0.399D-02 0.146D+00 0.859D+00
 Gap=     0.114 Goal=   None    Shift=    0.000
 Gap=     0.134 Goal=   None    Shift=    0.000
 RMSDP=1.77D-05 MaxDP=4.08D-03 DE=-1.72D-03 OVMax= 1.30D-02

 Cycle   7  Pass 1  IDiag  1:
 RMSU=  9.32D-06    CP:  9.97D-01  1.99D+00  8.43D-01  1.05D+00  1.12D+00
                    CP:  1.33D+00
 E= -4111.75389604492     Delta-E=       -0.000294545793 Rises=F Damp=F
 DIIS: error= 6.69D-05 at cycle   7 NSaved=   7.
 NSaved= 7 IEnMin= 7 EnMin= -4111.75389604492     IErMin= 7 ErrMin= 6.69D-05
 ErrMax= 6.69D-05  0.00D+00 EMaxC= 1.00D-01 BMatC= 1.37D-04 BMatP= 4.60D-04
 IDIUse=1 WtCom= 1.00D+00 WtEn= 0.00D+00
 Coeff-Com:  0.631D-02-0.905D-02-0.173D-01-0.463D-01-0.405D-01 0.333D+00
 Coeff-Com:  0.774D+00
 Coeff:      0.631D-02-0.905D-02-0.173D-01-0.463D-01-0.405D-01 0.333D+00
 Coeff:      0.774D+00
 Gap=     0.116 Goal=   None    Shift=    0.000
 Gap=     0.135 Goal=   None    Shift=    0.000
 RMSDP=9.75D-06 MaxDP=2.89D-03 DE=-2.95D-04 OVMax= 7.31D-03

 Cycle   8  Pass 1  IDiag  1:
 RMSU=  4.18D-06    CP:  9.97D-01  2.00D+00  8.40D-01  1.06D+00  1.17D+00
                    CP:  1.59D+00  1.32D+00
 E= -4111.75399661358     Delta-E=       -0.000100568664 Rises=F Damp=F
 DIIS: error= 6.75D-05 at cycle   8 NSaved=   8.
 NSaved= 8 IEnMin= 8 EnMin= -4111.75399661358     IErMin= 7 ErrMin= 6.69D-05
 ErrMax= 6.75D-05  0.00D+00 EMaxC= 1.00D-01 BMatC= 3.74D-05 BMatP= 1.37D-04
 IDIUse=1 WtCom= 1.00D+00 WtEn= 0.00D+00
 Coeff-Com:  0.202D-03-0.275D-05-0.252D-02-0.150D-01-0.506D-01-0.127D+00
 Coeff-Com:  0.268D+00 0.927D+00
 Coeff:      0.202D-03-0.275D-05-0.252D-02-0.150D-01-0.506D-01-0.127D+00
 Coeff:      0.268D+00 0.927D+00
 Gap=     0.116 Goal=   None    Shift=    0.000
 Gap=     0.136 Goal=   None    Shift=    0.000
 RMSDP=5.95D-06 MaxDP=9.87D-04 DE=-1.01D-04 OVMax= 4.23D-03

 Cycle   9  Pass 1  IDiag  1:
 RMSU=  2.47D-06    CP:  9.97D-01  1.99D+00  8.40D-01  1.07D+00  1.19D+00
                    CP:  1.72D+00  1.70D+00  1.35D+00
 E= -4111.75403320685     Delta-E=       -0.000036593272 Rises=F Damp=F
 DIIS: error= 3.30D-05 at cycle   9 NSaved=   9.
 NSaved= 9 IEnMin= 9 EnMin= -4111.75403320685     IErMin= 9 ErrMin= 3.30D-05
 ErrMax= 3.30D-05  0.00D+00 EMaxC= 1.00D-01 BMatC= 1.30D-05 BMatP= 3.74D-05
 IDIUse=1 WtCom= 1.00D+00 WtEn= 0.00D+00
 Coeff-Com: -0.147D-02 0.221D-02 0.328D-02 0.643D-02-0.866D-02-0.154D+00
 Coeff-Com: -0.111D+00 0.455D+00 0.808D+00
 Coeff:     -0.147D-02 0.221D-02 0.328D-02 0.643D-02-0.866D-02-0.154D+00
 Coeff:     -0.111D+00 0.455D+00 0.808D+00
 Gap=     0.116 Goal=   None    Shift=    0.000
 Gap=     0.137 Goal=   None    Shift=    0.000
 RMSDP=3.24D-06 MaxDP=1.12D-03 DE=-3.66D-05 OVMax= 1.99D-03

 Cycle  10  Pass 1  IDiag  1:
 RMSU=  1.11D-06    CP:  9.97D-01  2.00D+00  8.39D-01  1.07D+00  1.20D+00
                    CP:  1.79D+00  1.87D+00  1.70D+00  1.28D+00
 E= -4111.75404257392     Delta-E=       -0.000009367071 Rises=F Damp=F
 DIIS: error= 1.20D-05 at cycle  10 NSaved=  10.
 NSaved=10 IEnMin=10 EnMin= -4111.75404257392     IErMin=10 ErrMin= 1.20D-05
 ErrMax= 1.20D-05  0.00D+00 EMaxC= 1.00D-01 BMatC= 2.41D-06 BMatP= 1.30D-05
 IDIUse=1 WtCom= 1.00D+00 WtEn= 0.00D+00
 Coeff-Com: -0.373D-03 0.495D-03 0.149D-02 0.571D-02 0.737D-02-0.319D-01
 Coeff-Com: -0.106D+00-0.149D-01 0.341D+00 0.797D+00
 Coeff:     -0.373D-03 0.495D-03 0.149D-02 0.571D-02 0.737D-02-0.319D-01
 Coeff:     -0.106D+00-0.149D-01 0.341D+00 0.797D+00
 Gap=     0.116 Goal=   None    Shift=    0.000
 Gap=     0.137 Goal=   None    Shift=    0.000
 RMSDP=1.17D-06 MaxDP=4.25D-04 DE=-9.37D-06 OVMax= 7.97D-04

 Cycle  11  Pass 1  IDiag  1:
 RMSU=  5.78D-07    CP:  9.97D-01  2.00D+00  8.39D-01  1.07D+00  1.20D+00
                    CP:  1.80D+00  1.92D+00  1.79D+00  1.55D+00  1.27D+00
 E= -4111.75404415119     Delta-E=       -0.000001577268 Rises=F Damp=F
 DIIS: error= 4.74D-06 at cycle  11 NSaved=  11.
 NSaved=11 IEnMin=11 EnMin= -4111.75404415119     IErMin=11 ErrMin= 4.74D-06
 ErrMax= 4.74D-06  0.00D+00 EMaxC= 1.00D-01 BMatC= 4.80D-07 BMatP= 2.41D-06
 IDIUse=1 WtCom= 1.00D+00 WtEn= 0.00D+00
 Coeff-Com:  0.324D-04-0.643D-04-0.376D-04 0.778D-03 0.329D-02 0.174D-01
 Coeff-Com: -0.163D-01-0.929D-01-0.306D-01 0.307D+00 0.811D+00
 Coeff:      0.324D-04-0.643D-04-0.376D-04 0.778D-03 0.329D-02 0.174D-01
 Coeff:     -0.163D-01-0.929D-01-0.306D-01 0.307D+00 0.811D+00
 Gap=     0.116 Goal=   None    Shift=    0.000
 Gap=     0.137 Goal=   None    Shift=    0.000
 RMSDP=5.37D-07 MaxDP=2.16D-04 DE=-1.58D-06 OVMax= 3.80D-04

 Cycle  12  Pass 1  IDiag  1:
 RMSU=  2.85D-07    CP:  9.97D-01  2.00D+00  8.39D-01  1.07D+00  1.20D+00
                    CP:  1.80D+00  1.93D+00  1.82D+00  1.64D+00  1.50D+00
                    CP:  1.41D+00
 E= -4111.75404451208     Delta-E=       -0.000000360891 Rises=F Damp=F
 DIIS: error= 3.08D-06 at cycle  12 NSaved=  12.
 NSaved=12 IEnMin=12 EnMin= -4111.75404451208     IErMin=12 ErrMin= 3.08D-06
 ErrMax= 3.08D-06  0.00D+00 EMaxC= 1.00D-01 BMatC= 1.14D-07 BMatP= 4.80D-07
 IDIUse=1 WtCom= 1.00D+00 WtEn= 0.00D+00
 Coeff-Com:  0.685D-04-0.972D-04-0.294D-03-0.872D-03-0.492D-03 0.138D-01
 Coeff-Com:  0.163D-01-0.338D-01-0.848D-01-0.496D-01 0.318D+00 0.822D+00
 Coeff:      0.685D-04-0.972D-04-0.294D-03-0.872D-03-0.492D-03 0.138D-01
 Coeff:      0.163D-01-0.338D-01-0.848D-01-0.496D-01 0.318D+00 0.822D+00
 Gap=     0.116 Goal=   None    Shift=    0.000
 Gap=     0.137 Goal=   None    Shift=    0.000
 RMSDP=3.53D-07 MaxDP=1.75D-04 DE=-3.61D-07 OVMax= 3.37D-04

 Cycle  13  Pass 1  IDiag  1:
 RMSU=  1.31D-07    CP:  9.97D-01  2.00D+00  8.39D-01  1.07D+00  1.20D+00
                    CP:  1.79D+00  1.93D+00  1.83D+00  1.68D+00  1.61D+00
                    CP:  1.80D+00  1.47D+00
 E= -4111.75404463821     Delta-E=       -0.000000126123 Rises=F Damp=F
 DIIS: error= 1.57D-06 at cycle  13 NSaved=  13.
 NSaved=13 IEnMin=13 EnMin= -4111.75404463821     IErMin=13 ErrMin= 1.57D-06
 ErrMax= 1.57D-06  0.00D+00 EMaxC= 1.00D-01 BMatC= 2.79D-08 BMatP= 1.14D-07
 IDIUse=1 WtCom= 1.00D+00 WtEn= 0.00D+00
 Coeff-Com:  0.702D-05-0.735D-05-0.455D-04-0.318D-03-0.637D-03-0.233D-03
 Coeff-Com:  0.633D-02 0.114D-01-0.139D-01-0.778D-01-0.902D-01 0.205D+00
 Coeff-Com:  0.961D+00
 Coeff:      0.702D-05-0.735D-05-0.455D-04-0.318D-03-0.637D-03-0.233D-03
 Coeff:      0.633D-02 0.114D-01-0.139D-01-0.778D-01-0.902D-01 0.205D+00
 Coeff:      0.961D+00
 Gap=     0.116 Goal=   None    Shift=    0.000
 Gap=     0.137 Goal=   None    Shift=    0.000
 RMSDP=2.36D-07 MaxDP=1.15D-04 DE=-1.26D-07 OVMax= 2.36D-04

 Cycle  14  Pass 1  IDiag  1:
 RMSU=  7.03D-08    CP:  9.97D-01  2.00D+00  8.39D-01  1.07D+00  1.20D+00
                    CP:  1.79D+00  1.93D+00  1.82D+00  1.70D+00  1.66D+00
                    CP:  2.05D+00  1.91D+00  1.64D+00
 E= -4111.75404469018     Delta-E=       -0.000000051970 Rises=F Damp=F
 DIIS: error= 1.04D-06 at cycle  14 NSaved=  14.
 NSaved=14 IEnMin=14 EnMin= -4111.75404469018     IErMin=14 ErrMin= 1.04D-06
 ErrMax= 1.04D-06  0.00D+00 EMaxC= 1.00D-01 BMatC= 1.32D-08 BMatP= 2.79D-08
 IDIUse=1 WtCom= 1.00D+00 WtEn= 0.00D+00
 Coeff-Com: -0.170D-04 0.245D-04 0.767D-04 0.125D-03-0.108D-03-0.486D-02
 Coeff-Com: -0.272D-02 0.175D-01 0.209D-01-0.247D-01-0.149D+00-0.176D+00
 Coeff-Com:  0.446D+00 0.873D+00
 Coeff:     -0.170D-04 0.245D-04 0.767D-04 0.125D-03-0.108D-03-0.486D-02
 Coeff:     -0.272D-02 0.175D-01 0.209D-01-0.247D-01-0.149D+00-0.176D+00
 Coeff:      0.446D+00 0.873D+00
 Gap=     0.116 Goal=   None    Shift=    0.000
 Gap=     0.137 Goal=   None    Shift=    0.000
 RMSDP=1.66D-07 MaxDP=7.53D-05 DE=-5.20D-08 OVMax= 1.63D-04

 Cycle  15  Pass 1  IDiag  1:
 RMSU=  3.75D-08    CP:  9.97D-01  2.00D+00  8.39D-01  1.07D+00  1.20D+00
                    CP:  1.79D+00  1.94D+00  1.82D+00  1.72D+00  1.68D+00
                    CP:  2.20D+00  2.21D+00  2.23D+00  1.59D+00
 E= -4111.75404471297     Delta-E=       -0.000000022797 Rises=F Damp=F
 DIIS: error= 5.65D-07 at cycle  15 NSaved=  15.
 NSaved=15 IEnMin=15 EnMin= -4111.75404471297     IErMin=15 ErrMin= 5.65D-07
 ErrMax= 5.65D-07  0.00D+00 EMaxC= 1.00D-01 BMatC= 4.22D-09 BMatP= 1.32D-08
 IDIUse=1 WtCom= 1.00D+00 WtEn= 0.00D+00
 Coeff-Com: -0.575D-05 0.825D-05 0.350D-04 0.132D-03 0.210D-03-0.162D-02
 Coeff-Com: -0.358D-02 0.176D-02 0.125D-01 0.202D-01-0.110D-01-0.139D+00
 Coeff-Com: -0.231D+00 0.334D+00 0.102D+01
 Coeff:     -0.575D-05 0.825D-05 0.350D-04 0.132D-03 0.210D-03-0.162D-02
 Coeff:     -0.358D-02 0.176D-02 0.125D-01 0.202D-01-0.110D-01-0.139D+00
 Coeff:     -0.231D+00 0.334D+00 0.102D+01
 Gap=     0.116 Goal=   None    Shift=    0.000
 Gap=     0.137 Goal=   None    Shift=    0.000
 RMSDP=1.05D-07 MaxDP=4.24D-05 DE=-2.28D-08 OVMax= 1.01D-04

 Cycle  16  Pass 1  IDiag  1:
 RMSU=  2.29D-08    CP:  9.97D-01  2.00D+00  8.39D-01  1.07D+00  1.20D+00
                    CP:  1.79D+00  1.94D+00  1.82D+00  1.73D+00  1.69D+00
                    CP:  2.28D+00  2.38D+00  2.63D+00  2.21D+00  1.50D+00
 E= -4111.75404472242     Delta-E=       -0.000000009442 Rises=F Damp=F
 DIIS: error= 4.23D-07 at cycle  16 NSaved=  16.
 NSaved=16 IEnMin=16 EnMin= -4111.75404472242     IErMin=16 ErrMin= 4.23D-07
 ErrMax= 4.23D-07  0.00D+00 EMaxC= 1.00D-01 BMatC= 1.55D-09 BMatP= 4.22D-09
 IDIUse=1 WtCom= 1.00D+00 WtEn= 0.00D+00
 Coeff-Com:  0.119D-05-0.140D-05-0.341D-05 0.242D-04 0.111D-03 0.489D-03
 Coeff-Com: -0.104D-02-0.408D-02 0.832D-03 0.170D-01 0.383D-01-0.231D-01
 Coeff-Com: -0.245D+00-0.757D-01 0.523D+00 0.769D+00
 Coeff:      0.119D-05-0.140D-05-0.341D-05 0.242D-04 0.111D-03 0.489D-03
 Coeff:     -0.104D-02-0.408D-02 0.832D-03 0.170D-01 0.383D-01-0.231D-01
 Coeff:     -0.245D+00-0.757D-01 0.523D+00 0.769D+00
 Gap=     0.116 Goal=   None    Shift=    0.000
 Gap=     0.137 Goal=   None    Shift=    0.000
 RMSDP=4.00D-08 MaxDP=8.90D-06 DE=-9.44D-09 OVMax= 3.66D-05

 Cycle  17  Pass 1  IDiag  1:
 RMSU=  1.45D-08    CP:  9.97D-01  2.00D+00  8.39D-01  1.07D+00  1.20D+00
                    CP:  1.79D+00  1.94D+00  1.82D+00  1.73D+00  1.69D+00
                    CP:  2.31D+00  2.42D+00  2.78D+00  2.47D+00  1.87D+00
                    CP:  1.33D+00
 E= -4111.75404472415     Delta-E=       -0.000000001730 Rises=F Damp=F
 DIIS: error= 2.68D-07 at cycle  17 NSaved=  17.
 NSaved=17 IEnMin=17 EnMin= -4111.75404472415     IErMin=17 ErrMin= 2.68D-07
 ErrMax= 2.68D-07  0.00D+00 EMaxC= 1.00D-01 BMatC= 5.00D-10 BMatP= 1.55D-09
 IDIUse=1 WtCom= 1.00D+00 WtEn= 0.00D+00
 Coeff-Com:  0.168D-05-0.229D-05-0.122D-04-0.294D-04-0.226D-04 0.839D-03
 Coeff-Com:  0.723D-03-0.299D-02-0.385D-02 0.202D-02 0.252D-01 0.351D-01
 Coeff-Com: -0.462D-01-0.159D+00-0.720D-01 0.422D+00 0.798D+00
 Coeff:      0.168D-05-0.229D-05-0.122D-04-0.294D-04-0.226D-04 0.839D-03
 Coeff:      0.723D-03-0.299D-02-0.385D-02 0.202D-02 0.252D-01 0.351D-01
 Coeff:     -0.462D-01-0.159D+00-0.720D-01 0.422D+00 0.798D+00
 Gap=     0.116 Goal=   None    Shift=    0.000
 Gap=     0.137 Goal=   None    Shift=    0.000
 RMSDP=1.85D-08 MaxDP=2.45D-06 DE=-1.73D-09 OVMax= 1.80D-05

 Cycle  18  Pass 1  IDiag  1:
 RMSU=  7.98D-09    CP:  9.97D-01  2.00D+00  8.39D-01  1.07D+00  1.20D+00
                    CP:  1.79D+00  1.94D+00  1.82D+00  1.73D+00  1.69D+00
                    CP:  2.31D+00  2.43D+00  2.82D+00  2.57D+00  2.04D+00
                    CP:  1.77D+00  1.42D+00
 E= -4111.75404472379     Delta-E=        0.000000000360 Rises=F Damp=F
 DIIS: error= 9.74D-08 at cycle  18 NSaved=  18.
 NSaved=18 IEnMin=17 EnMin= -4111.75404472415     IErMin=18 ErrMin= 9.74D-08
 ErrMax= 9.74D-08  0.00D+00 EMaxC= 1.00D-01 BMatC= 1.19D-10 BMatP= 5.00D-10
 IDIUse=1 WtCom= 1.00D+00 WtEn= 0.00D+00
 Coeff-Com:  0.104D-06-0.215D-06-0.468D-05-0.152D-04-0.330D-04 0.299D-03
 Coeff-Com:  0.605D-03-0.505D-03-0.211D-02-0.317D-02 0.276D-02 0.224D-01
 Coeff-Com:  0.418D-01-0.574D-01-0.165D+00 0.112D-01 0.378D+00 0.772D+00
 Coeff:      0.104D-06-0.215D-06-0.468D-05-0.152D-04-0.330D-04 0.299D-03
 Coeff:      0.605D-03-0.505D-03-0.211D-02-0.317D-02 0.276D-02 0.224D-01
 Coeff:      0.418D-01-0.574D-01-0.165D+00 0.112D-01 0.378D+00 0.772D+00
 Gap=     0.116 Goal=   None    Shift=    0.000
 Gap=     0.137 Goal=   None    Shift=    0.000
 RMSDP=9.40D-09 MaxDP=4.65D-06 DE= 3.60D-10 OVMax= 7.27D-06

 Cycle  19  Pass 1  IDiag  1:
 RMSU=  3.67D-09    CP:  9.97D-01  2.00D+00  8.39D-01  1.07D+00  1.20D+00
                    CP:  1.79D+00  1.94D+00  1.82D+00  1.73D+00  1.69D+00
                    CP:  2.31D+00  2.42D+00  2.82D+00  2.58D+00  2.11D+00
                    CP:  1.95D+00  1.79D+00  1.37D+00
 E= -4111.75404472418     Delta-E=       -0.000000000389 Rises=F Damp=F
 DIIS: error= 4.23D-08 at cycle  19 NSaved=  19.
 NSaved=19 IEnMin=19 EnMin= -4111.75404472418     IErMin=19 ErrMin= 4.23D-08
 ErrMax= 4.23D-08  0.00D+00 EMaxC= 1.00D-01 BMatC= 2.51D-11 BMatP= 1.19D-10
 IDIUse=1 WtCom= 1.00D+00 WtEn= 0.00D+00
 Coeff-Com: -0.654D-06 0.835D-06 0.204D-05 0.556D-05-0.501D-05-0.182D-03
 Coeff-Com: -0.227D-04 0.828D-03 0.484D-03-0.159D-02-0.706D-02-0.353D-02
 Coeff-Com:  0.278D-01 0.286D-01-0.318D-01-0.123D+00-0.125D+00 0.248D+00
 Coeff-Com:  0.987D+00
 Coeff:     -0.654D-06 0.835D-06 0.204D-05 0.556D-05-0.501D-05-0.182D-03
 Coeff:     -0.227D-04 0.828D-03 0.484D-03-0.159D-02-0.706D-02-0.353D-02
 Coeff:      0.278D-01 0.286D-01-0.318D-01-0.123D+00-0.125D+00 0.248D+00
 Coeff:      0.987D+00
 Gap=     0.116 Goal=   None    Shift=    0.000
 Gap=     0.137 Goal=   None    Shift=    0.000
 RMSDP=7.25D-09 MaxDP=4.25D-06 DE=-3.89D-10 OVMax= 4.32D-06

 Cycle  20  Pass 1  IDiag  1:
 RMSU=  1.99D-09    CP:  9.97D-01  2.00D+00  8.39D-01  1.07D+00  1.20D+00
                    CP:  1.79D+00  1.94D+00  1.82D+00  1.73D+00  1.69D+00
                    CP:  2.30D+00  2.42D+00  2.81D+00  2.58D+00  2.13D+00
                    CP:  2.07D+00  2.06D+00  1.83D+00  1.54D+00
 E= -4111.75404472421     Delta-E=       -0.000000000033 Rises=F Damp=F
 DIIS: error= 1.88D-08 at cycle  20 NSaved=  20.
 NSaved=20 IEnMin=20 EnMin= -4111.75404472421     IErMin=20 ErrMin= 1.88D-08
 ErrMax= 1.88D-08  0.00D+00 EMaxC= 1.00D-01 BMatC= 6.86D-12 BMatP= 2.51D-11
 IDIUse=1 WtCom= 1.00D+00 WtEn= 0.00D+00
 Coeff-Com: -0.229D-06 0.303D-06 0.138D-05 0.428D-05 0.375D-05-0.128D-03
 Coeff-Com: -0.126D-03 0.436D-03 0.553D-03 0.343D-04-0.328D-02-0.515D-02
 Coeff-Com:  0.314D-02 0.225D-01 0.195D-01-0.533D-01-0.129D+00-0.597D-01
 Coeff-Com:  0.406D+00 0.799D+00
 Coeff:     -0.229D-06 0.303D-06 0.138D-05 0.428D-05 0.375D-05-0.128D-03
 Coeff:     -0.126D-03 0.436D-03 0.553D-03 0.343D-04-0.328D-02-0.515D-02
 Coeff:      0.314D-02 0.225D-01 0.195D-01-0.533D-01-0.129D+00-0.597D-01
 Coeff:      0.406D+00 0.799D+00
 Gap=     0.116 Goal=   None    Shift=    0.000
 Gap=     0.137 Goal=   None    Shift=    0.000
 RMSDP=3.15D-09 MaxDP=1.74D-06 DE=-3.27D-11 OVMax= 1.55D-06

 Cycle  21  Pass 1  IDiag  1:
 Restarting incremental Fock formation.
 E= -4111.75404472411     Delta-E=        0.000000000096 Rises=F Damp=F
 DIIS: error= 1.05D-08 at cycle  21 NSaved=  20.
 NSaved=20 IEnMin=19 EnMin= -4111.75404472421     IErMin=20 ErrMin= 1.05D-08
 ErrMax= 1.05D-08  0.00D+00 EMaxC= 1.00D-01 BMatC= 1.63D-12 BMatP= 6.86D-12
 IDIUse=1 WtCom= 1.00D+00 WtEn= 0.00D+00
 Coeff-Com:  0.439D-07 0.101D-06-0.100D-06 0.332D-05 0.126D-04-0.452D-04
 Coeff-Com: -0.980D-04 0.297D-04 0.543D-03 0.926D-03-0.691D-03-0.817D-02
 Coeff-Com: -0.125D-02 0.173D-01 0.213D-01-0.234D-02-0.987D-01-0.185D+00
 Coeff-Com:  0.272D+00 0.984D+00
 Coeff:      0.439D-07 0.101D-06-0.100D-06 0.332D-05 0.126D-04-0.452D-04
 Coeff:     -0.980D-04 0.297D-04 0.543D-03 0.926D-03-0.691D-03-0.817D-02
 Coeff:     -0.125D-02 0.173D-01 0.213D-01-0.234D-02-0.987D-01-0.185D+00
 Coeff:      0.272D+00 0.984D+00
 Gap=     0.116 Goal=   None    Shift=    0.000
 Gap=     0.137 Goal=   None    Shift=    0.000
 RMSDP=2.98D-09 MaxDP=5.66D-07 DE= 9.64D-11 OVMax= 1.32D-06

 Error on total polarization charges =  0.03155
 SCF Done:  E(UM062X) =  -4111.75404472     A.U. after   21 cycles
            NFock= 21  Conv=0.30D-08     -V/T= 2.0044
 <Sx>= 0.0000 <Sy>= 0.0000 <Sz>= 0.5000 <S**2>= 0.7871 S= 0.5184
 <L.S>= 0.000000000000E+00
 KE= 4.093916476228D+03 PE=-2.976573105377D+04 EE= 1.152014502325D+04
 Annihilation of the first spin contaminant:
 S**2 before annihilation     0.7871,   after     0.7511
 Leave Link  502 at Fri Nov 14 01:52:21 2025, MaxMem= 30870077440 cpu:          231964.9 elap:            3673.6
 (Enter /public/software/gauss/g16/l601.exe)
 Copying SCF densities to generalized density rwf, IOpCl= 1 IROHF=0.
 Hyperfine terms turned off by default for NAtoms > 100.

 **********************************************************************

            Population analysis using the SCF density.

 **********************************************************************

 Orbital symmetries:
 Alpha Orbitals:
       Occupied  (A) (A) (A) (A) (A) (A) (A) (A) (A) (A) (A) (A)
                 (A) (A) (A) (A) (A) (A) (A) (A) (A) (A) (A) (A)
                 (A) (A) (A) (A) (A) (A) (A) (A) (A) (A) (A) (A)
                 (A) (A) (A) (A) (A) (A) (A) (A) (A) (A) (A) (A)
                 (A) (A) (A) (A) (A) (A) (A) (A) (A) (A) (A) (A)
                 (A) (A) (A) (A) (A) (A) (A) (A) (A) (A) (A) (A)
                 (A) (A) (A) (A) (A) (A) (A) (A) (A) (A) (A) (A)
                 (A) (A) (A) (A) (A) (A) (A) (A) (A) (A) (A) (A)
                 (A) (A) (A) (A) (A) (A) (A) (A) (A) (A) (A) (A)
                 (A) (A) (A) (A) (A) (A) (A) (A) (A) (A) (A) (A)
                 (A) (A) (A) (A) (A) (A) (A) (A) (A) (A) (A) (A)
                 (A) (A) (A) (A) (A) (A) (A) (A) (A) (A) (A) (A)
                 (A) (A) (A) (A) (A) (A) (A) (A) (A) (A) (A) (A)
                 (A) (A) (A) (A) (A) (A) (A) (A) (A) (A) (A) (A)
                 (A) (A) (A) (A) (A) (A) (A) (A) (A) (A) (A) (A)
                 (A) (A) (A) (A) (A) (A) (A) (A) (A) (A) (A) (A)
                 (A) (A) (A) (A) (A) (A) (A) (A) (A) (A) (A) (A)
                 (A) (A) (A) (A) (A) (A) (A) (A) (A) (A) (A) (A)
                 (A) (A) (A) (A) (A) (A) (A) (A) (A) (A) (A) (A)
                 (A) (A) (A) (A) (A) (A) (A) (A) (A) (A) (A) (A)
                 (A) (A) (A) (A) (A) (A) (A) (A) (A) (A) (A) (A)
                 (A) (A) (A) (A) (A) (A) (A) (A) (A) (A)
       Virtual   (A) (A) (A) (A) (A) (A) (A) (A) (A) (A) (A) (A)
                 (A) (A) (A) (A) (A) (A) (A) (A) (A) (A) (A) (A)
                 (A) (A) (A) (A) (A) (A) (A) (A) (A) (A) (A) (A)
                 (A) (A) (A) (A) (A) (A) (A) (A) (A) (A) (A) (A)
                 (A) (A) (A) (A) (A) (A) (A) (A) (A) (A) (A) (A)
                 (A) (A) (A) (A) (A) (A) (A) (A) (A) (A) (A) (A)
                 (A) (A) (A) (A) (A) (A) (A) (A) (A) (A) (A) (A)
                 (A) (A) (A) (A) (A) (A) (A) (A) (A) (A) (A) (A)
                 (A) (A) (A) (A) (A) (A) (A) (A) (A) (A) (A) (A)
                 (A) (A) (A) (A) (A) (A) (A) (A) (A) (A) (A) (A)
                 (A) (A) (A) (A) (A) (A) (A) (A) (A) (A) (A) (A)
                 (A) (A) (A) (A) (A) (A) (A) (A) (A) (A) (A) (A)
                 (A) (A) (A) (A) (A) (A) (A) (A) (A) (A) (A) (A)
                 (A) (A) (A) (A) (A) (A) (A) (A) (A) (A) (A) (A)
                 (A) (A) (A) (A) (A) (A) (A) (A) (A) (A) (A) (A)
                 (A) (A) (A) (A) (A) (A) (A) (A) (A) (A) (A) (A)
                 (A) (A) (A) (A) (A) (A) (A) (A) (A) (A) (A) (A)
                 (A) (A) (A) (A) (A) (A) (A) (A) (A) (A) (A) (A)
                 (A) (A) (A) (A) (A) (A) (A) (A) (A) (A) (A) (A)
                 (A) (A) (A) (A) (A) (A) (A) (A) (A) (A) (A) (A)
                 (A) (A) (A) (A) (A) (A) (A) (A) (A) (A) (A) (A)
                 (A) (A) (A) (A) (A) (A) (A) (A) (A) (A) (A) (A)
                 (A) (A) (A) (A) (A) (A) (A) (A) (A) (A) (A) (A)
                 (A) (A) (A) (A) (A) (A) (A) (A) (A) (A) (A) (A)
                 (A) (A) (A) (A) (A) (A) (A) (A) (A) (A) (A) (A)
                 (A) (A) (A) (A) (A) (A) (A) (A) (A) (A) (A) (A)
                 (A) (A) (A) (A) (A) (A) (A) (A) (A) (A) (A) (A)
                 (A) (A) (A) (A) (A) (A) (A) (A) (A) (A) (A) (A)
                 (A) (A) (A) (A) (A) (A) (A) (A) (A) (A) (A) (A)
                 (A) (A) (A) (A) (A) (A) (A) (A) (A) (A) (A) (A)
                 (A) (A) (A) (A) (A) (A) (A) (A) (A) (A) (A) (A)
                 (A) (A) (A) (A) (A) (A) (A) (A) (A) (A) (A) (A)
                 (A) (A) (A) (A) (A) (A) (A) (A) (A) (A) (A) (A)
                 (A) (A) (A) (A) (A) (A) (A) (A) (A) (A) (A) (A)
                 (A) (A) (A) (A) (A) (A) (A) (A) (A) (A) (A) (A)
                 (A) (A) (A) (A) (A) (A) (A) (A) (A) (A) (A) (A)
                 (A) (A) (A) (A) (A) (A) (A) (A) (A) (A) (A) (A)
                 (A) (A) (A) (A) (A) (A) (A) (A) (A) (A) (A) (A)
                 (A) (A) (A) (A) (A) (A) (A) (A) (A) (A) (A) (A)
                 (A) (A) (A) (A) (A) (A) (A) (A) (A) (A) (A) (A)
                 (A) (A) (A) (A) (A) (A) (A) (A) (A) (A) (A) (A)
                 (A) (A) (A) (A) (A) (A) (A) (A) (A) (A) (A) (A)
                 (A) (A) (A) (A) (A) (A) (A) (A) (A) (A) (A) (A)
                 (A) (A) (A) (A) (A) (A) (A) (A) (A) (A) (A) (A)
                 (A) (A) (A) (A) (A) (A) (A) (A) (A) (A) (A) (A)
                 (A) (A) (A) (A) (A) (A) (A) (A) (A) (A) (A) (A)
                 (A) (A) (A) (A) (A) (A) (A) (A) (A) (A) (A) (A)
                 (A) (A) (A) (A) (A) (A) (A) (A) (A) (A) (A) (A)
                 (A) (A) (A) (A) (A) (A) (A) (A) (A) (A) (A) (A)
                 (A) (A) (A) (A) (A) (A) (A) (A) (A) (A) (A) (A)
                 (A) (A) (A) (A) (A) (A) (A) (A) (A) (A) (A) (A)
                 (A) (A) (A) (A) (A) (A) (A) (A) (A) (A) (A) (A)
                 (A) (A) (A) (A) (A) (A) (A) (A) (A) (A) (A) (A)
                 (A) (A) (A) (A) (A) (A) (A) (A) (A) (A) (A) (A)
                 (A) (A) (A) (A) (A) (A) (A) (A) (A) (A) (A) (A)
                 (A) (A) (A) (A) (A) (A) (A) (A) (A) (A) (A) (A)
                 (A) (A) (A) (A) (A) (A) (A) (A) (A) (A) (A) (A)
                 (A) (A) (A) (A) (A) (A) (A) (A) (A) (A) (A) (A)
                 (A) (A) (A) (A) (A) (A) (A) (A) (A) (A) (A) (A)
                 (A) (A) (A) (A) (A) (A) (A) (A) (A) (A) (A) (A)
                 (A) (A) (A) (A) (A) (A) (A) (A) (A) (A) (A) (A)
                 (A) (A) (A) (A) (A) (A) (A) (A) (A) (A) (A) (A)
                 (A) (A) (A) (A) (A) (A) (A) (A) (A) (A) (A) (A)
                 (A) (A) (A) (A) (A) (A) (A) (A) (A) (A) (A) (A)
                 (A) (A) (A) (A) (A) (A) (A) (A) (A) (A) (A) (A)
                 (A) (A) (A) (A) (A) (A) (A) (A) (A) (A) (A) (A)
                 (A) (A) (A) (A) (A) (A) (A) (A) (A) (A) (A) (A)
                 (A) (A) (A) (A) (A) (A) (A) (A) (A) (A) (A) (A)
                 (A) (A) (A) (A) (A) (A) (A) (A) (A) (A) (A) (A)
                 (A) (A) (A) (A) (A) (A) (A) (A) (A) (A) (A) (A)
                 (A) (A) (A) (A) (A) (A) (A) (A) (A) (A) (A) (A)
                 (A) (A) (A) (A) (A) (A) (A) (A) (A) (A) (A) (A)
                 (A) (A) (A) (A) (A) (A) (A) (A) (A) (A) (A) (A)
                 (A) (A) (A) (A) (A) (A) (A) (A) (A) (A) (A) (A)
                 (A) (A) (A) (A) (A) (A) (A) (A) (A) (A) (A) (A)
                 (A) (A) (A) (A) (A) (A) (A) (A) (A) (A) (A) (A)
                 (A) (A) (A) (A) (A) (A) (A) (A) (A) (A) (A) (A)
                 (A) (A) (A) (A) (A) (A) (A) (A) (A) (A) (A) (A)
                 (A) (A) (A) (A) (A) (A) (A) (A) (A) (A) (A) (A)
                 (A) (A) (A) (A) (A) (A) (A) (A) (A) (A) (A) (A)
                 (A) (A) (A) (A) (A) (A) (A) (A) (A) (A) (A) (A)
                 (A) (A) (A) (A) (A) (A) (A) (A) (A) (A) (A) (A)
                 (A) (A) (A) (A) (A) (A) (A) (A) (A) (A) (A) (A)
                 (A) (A) (A) (A) (A) (A) (A) (A) (A) (A) (A) (A)
                 (A) (A) (A) (A) (A) (A) (A) (A) (A) (A) (A) (A)
                 (A) (A) (A) (A) (A) (A) (A) (A) (A) (A) (A) (A)
                 (A) (A) (A) (A) (A) (A) (A) (A) (A) (A) (A) (A)
                 (A) (A) (A) (A) (A) (A) (A) (A) (A) (A) (A) (A)
                 (A) (A) (A) (A) (A) (A) (A) (A) (A) (A) (A) (A)
                 (A) (A) (A) (A) (A) (A) (A) (A) (A) (A) (A) (A)
                 (A) (A) (A) (A) (A) (A) (A) (A) (A) (A) (A) (A)
                 (A) (A) (A) (A) (A) (A) (A) (A) (A) (A) (A) (A)
                 (A) (A) (A) (A) (A) (A) (A) (A) (A) (A) (A) (A)
                 (A) (A) (A) (A) (A) (A) (A) (A) (A) (A) (A) (A)
                 (A) (A) (A) (A) (A) (A) (A) (A) (A) (A) (A) (A)
                 (A) (A) (A) (A) (A) (A) (A) (A) (A) (A) (A) (A)
                 (A) (A) (A) (A) (A) (A) (A) (A) (A) (A) (A) (A)
                 (A) (A) (A) (A) (A) (A) (A) (A) (A) (A) (A) (A)
                 (A) (A) (A) (A) (A) (A) (A) (A) (A) (A) (A) (A)
                 (A) (A) (A) (A) (A) (A) (A) (A) (A) (A) (A) (A)
                 (A) (A) (A) (A) (A) (A) (A) (A) (A) (A) (A) (A)
                 (A) (A) (A) (A) (A) (A) (A) (A) (A) (A) (A) (A)
                 (A) (A) (A) (A) (A) (A) (A) (A) (A) (A) (A) (A)
                 (A) (A) (A) (A) (A) (A) (A) (A) (A) (A) (A) (A)
                 (A) (A) (A) (A) (A) (A) (A) (A) (A) (A) (A) (A)
                 (A) (A) (A) (A) (A) (A) (A) (A) (A) (A) (A) (A)
                 (A) (A) (A) (A) (A) (A) (A) (A) (A) (A) (A) (A)
                 (A) (A) (A) (A) (A) (A) (A) (A) (A) (A) (A) (A)
                 (A) (A) (A) (A) (A) (A) (A) (A) (A) (A) (A) (A)
                 (A) (A) (A) (A) (A) (A) (A) (A) (A) (A) (A) (A)
                 (A) (A) (A) (A) (A) (A) (A) (A) (A) (A) (A) (A)
                 (A) (A) (A) (A) (A) (A) (A) (A) (A) (A) (A) (A)
                 (A) (A) (A) (A) (A) (A) (A) (A) (A) (A) (A) (A)
                 (A) (A) (A) (A) (A) (A) (A) (A) (A) (A) (A) (A)
                 (A) (A) (A) (A) (A) (A) (A) (A) (A) (A) (A) (A)
                 (A) (A) (A) (A) (A) (A) (A) (A) (A) (A) (A) (A)
                 (A) (A) (A) (A) (A) (A) (A) (A) (A) (A) (A) (A)
                 (A) (A) (A) (A) (A) (A) (A) (A) (A) (A) (A) (A)
                 (A) (A) (A) (A) (A) (A) (A) (A) (A) (A) (A) (A)
                 (A) (A) (A) (A) (A) (A) (A) (A) (A) (A) (A) (A)
                 (A) (A) (A) (A) (A) (A) (A) (A) (A) (A) (A) (A)
                 (A) (A) (A) (A) (A) (A) (A) (A) (A) (A) (A) (A)
                 (A) (A) (A) (A) (A) (A) (A) (A) (A) (A) (A) (A)
                 (A) (A) (A) (A) (A) (A) (A) (A) (A) (A) (A) (A)
                 (A) (A) (A) (A) (A) (A) (A) (A) (A) (A) (A) (A)
                 (A) (A) (A) (A) (A) (A) (A) (A) (A) (A) (A) (A)
                 (A) (A) (A) (A) (A) (A) (A) (A) (A) (A) (A) (A)
                 (A) (A) (A) (A) (A) (A) (A) (A) (A) (A) (A) (A)
                 (A) (A) (A) (A) (A) (A) (A) (A) (A) (A) (A) (A)
                 (A) (A) (A) (A) (A) (A) (A) (A) (A) (A) (A) (A)
                 (A) (A) (A) (A) (A) (A) (A) (A) (A) (A) (A) (A)
                 (A) (A) (A) (A) (A) (A) (A) (A) (A) (A) (A) (A)
                 (A) (A) (A) (A) (A) (A) (A) (A) (A) (A) (A) (A)
                 (A) (A) (A) (A) (A) (A) (A) (A) (A) (A) (A) (A)
                 (A) (A) (A) (A) (A) (A) (A) (A) (A) (A) (A) (A)
                 (A) (A) (A) (A) (A) (A) (A) (A) (A) (A) (A) (A)
                 (A) (A) (A) (A) (A) (A) (A) (A) (A) (A) (A) (A)
                 (A) (A) (A) (A) (A) (A) (A) (A) (A) (A) (A) (A)
                 (A) (A) (A) (A) (A) (A) (A) (A) (A) (A) (A) (A)
                 (A) (A) (A) (A) (A) (A) (A) (A) (A) (A) (A) (A)
                 (A) (A) (A) (A) (A) (A) (A) (A) (A) (A) (A) (A)
                 (A) (A) (A) (A) (A) (A) (A) (A) (A) (A) (A) (A)
                 (A) (A) (A) (A) (A) (A) (A) (A) (A) (A) (A) (A)
                 (A) (A) (A) (A) (A) (A) (A) (A) (A) (A) (A) (A)
                 (A) (A) (A) (A) (A) (A) (A) (A) (A) (A) (A) (A)
                 (A) (A) (A) (A) (A) (A) (A) (A) (A) (A) (A) (A)
                 (A) (A) (A) (A) (A) (A) (A) (A) (A) (A) (A) (A)
                 (A) (A) (A) (A) (A) (A) (A) (A) (A) (A) (A) (A)
                 (A) (A) (A) (A) (A) (A) (A) (A) (A) (A) (A) (A)
                 (A) (A) (A) (A) (A) (A) (A) (A) (A) (A) (A) (A)
                 (A) (A) (A) (A) (A) (A) (A) (A) (A) (A) (A) (A)
                 (A) (A) (A) (A) (A) (A) (A) (A) (A) (A) (A) (A)
                 (A) (A) (A) (A) (A) (A) (A) (A) (A) (A) (A) (A)
                 (A) (A) (A) (A) (A) (A) (A) (A) (A) (A) (A) (A)
                 (A) (A) (A) (A) (A) (A) (A) (A) (A) (A) (A) (A)
                 (A) (A) (A) (A) (A) (A) (A) (A) (A) (A) (A) (A)
                 (A) (A) (A) (A) (A) (A) (A) (A) (A) (A) (A) (A)
                 (A) (A) (A) (A) (A) (A) (A) (A) (A) (A) (A) (A)
                 (A) (A) (A) (A) (A) (A) (A) (A) (A) (A) (A) (A)
                 (A) (A) (A) (A) (A) (A) (A) (A) (A) (A) (A) (A)
                 (A) (A) (A) (A) (A) (A) (A) (A) (A) (A) (A) (A)
                 (A) (A) (A) (A) (A) (A) (A) (A) (A) (A) (A) (A)
                 (A) (A) (A) (A) (A) (A) (A) (A) (A) (A) (A) (A)
                 (A) (A) (A) (A) (A) (A) (A) (A) (A) (A) (A) (A)
                 (A) (A) (A) (A) (A) (A) (A) (A) (A) (A) (A) (A)
                 (A) (A) (A) (A) (A) (A) (A) (A) (A) (A) (A) (A)
                 (A) (A) (A) (A) (A) (A) (A) (A) (A) (A) (A) (A)
                 (A) (A) (A) (A) (A) (A) (A) (A) (A) (A) (A) (A)
                 (A) (A) (A) (A) (A) (A) (A) (A) (A) (A) (A) (A)
                 (A) (A) (A) (A) (A) (A) (A) (A) (A) (A) (A) (A)
                 (A) (A) (A) (A) (A) (A) (A) (A) (A) (A) (A) (A)
                 (A) (A) (A) (A) (A) (A) (A) (A) (A) (A) (A) (A)
                 (A) (A) (A) (A) (A) (A) (A) (A) (A) (A) (A) (A)
                 (A) (A) (A) (A) (A) (A) (A) (A) (A) (A) (A) (A)
                 (A) (A) (A) (A) (A) (A) (A) (A) (A) (A) (A) (A)
                 (A) (A) (A) (A) (A) (A) (A) (A) (A) (A) (A) (A)
                 (A) (A) (A) (A) (A) (A) (A) (A) (A) (A) (A) (A)
                 (A) (A) (A) (A) (A) (A) (A) (A) (A) (A) (A) (A)
                 (A) (A) (A) (A) (A) (A) (A) (A) (A) (A) (A) (A)
                 (A) (A) (A) (A) (A) (A) (A) (A) (A) (A) (A) (A)
                 (A) (A) (A) (A) (A) (A) (A) (A) (A) (A) (A) (A)
                 (A) (A) (A) (A) (A) (A) (A) (A) (A) (A) (A) (A)
                 (A) (A) (A) (A) (A) (A) (A) (A) (A) (A) (A) (A)
                 (A) (A) (A) (A) (A) (A) (A) (A) (A) (A) (A) (A)
                 (A) (A) (A) (A) (A) (A) (A) (A) (A) (A) (A) (A)
                 (A) (A) (A) (A) (A) (A) (A) (A) (A) (A) (A) (A)
                 (A) (A) (A) (A) (A) (A) (A) (A) (A) (A) (A) (A)
                 (A) (A) (A) (A) (A) (A) (A) (A) (A) (A) (A) (A)
                 (A) (A) (A) (A) (A) (A) (A) (A) (A) (A) (A) (A)
                 (A) (A) (A) (A) (A) (A) (A) (A) (A) (A) (A) (A)
                 (A) (A) (A) (A) (A) (A) (A) (A) (A) (A) (A) (A)
                 (A) (A) (A) (A) (A) (A) (A) (A) (A) (A) (A) (A)
                 (A) (A) (A) (A) (A) (A) (A) (A) (A) (A) (A) (A)
                 (A) (A) (A) (A) (A) (A) (A) (A) (A) (A) (A) (A)
                 (A) (A) (A) (A) (A) (A) (A) (A) (A) (A) (A) (A)
                 (A) (A) (A) (A) (A) (A) (A) (A) (A) (A) (A) (A)
                 (A) (A) (A) (A) (A) (A) (A) (A) (A) (A) (A) (A)
                 (A) (A) (A) (A) (A) (A) (A) (A) (A) (A) (A) (A)
                 (A) (A) (A) (A) (A) (A) (A) (A) (A) (A) (A) (A)
                 (A) (A) (A) (A) (A) (A) (A) (A) (A) (A) (A) (A)
                 (A) (A) (A) (A) (A) (A) (A) (A) (A) (A) (A) (A)
                 (A) (A) (A) (A) (A) (A) (A) (A) (A) (A) (A) (A)
                 (A) (A) (A) (A) (A) (A) (A) (A) (A) (A) (A) (A)
                 (A) (A) (A) (A) (A) (A) (A) (A) (A) (A) (A) (A)
                 (A) (A) (A) (A) (A) (A) (A) (A) (A) (A) (A) (A)
                 (A) (A) (A) (A) (A) (A) (A) (A) (A) (A) (A) (A)
                 (A) (A) (A) (A) (A) (A) (A) (A) (A) (A) (A) (A)
                 (A) (A) (A) (A) (A) (A) (A) (A) (A) (A) (A) (A)
                 (A) (A) (A) (A) (A) (A) (A) (A) (A) (A) (A) (A)
                 (A) (A) (A) (A) (A) (A) (A) (A) (A) (A) (A) (A)
                 (A) (A) (A) (A) (A) (A) (A) (A) (A) (A) (A) (A)
                 (A) (A) (A) (A) (A) (A) (A) (A) (A) (A) (A) (A)
                 (A) (A) (A) (A) (A) (A) (A) (A) (A) (A) (A) (A)
                 (A) (A) (A) (A) (A) (A) (A) (A) (A) (A) (A) (A)
                 (A) (A) (A) (A) (A) (A) (A) (A) (A) (A) (A) (A)
                 (A) (A) (A) (A) (A) (A) (A) (A) (A) (A) (A) (A)
                 (A) (A) (A) (A) (A) (A) (A) (A) (A) (A) (A) (A)
                 (A) (A) (A) (A) (A) (A) (A) (A) (A) (A) (A) (A)
                 (A) (A) (A) (A) (A) (A) (A) (A) (A) (A) (A) (A)
                 (A) (A) (A) (A) (A) (A) (A) (A) (A) (A) (A) (A)
                 (A) (A) (A) (A) (A) (A) (A) (A) (A) (A) (A) (A)
                 (A) (A) (A)
 Beta  Orbitals:
       Occupied  (A) (A) (A) (A) (A) (A) (A) (A) (A) (A) (A) (A)
                 (A) (A) (A) (A) (A) (A) (A) (A) (A) (A) (A) (A)
                 (A) (A) (A) (A) (A) (A) (A) (A) (A) (A) (A) (A)
                 (A) (A) (A) (A) (A) (A) (A) (A) (A) (A) (A) (A)
                 (A) (A) (A) (A) (A) (A) (A) (A) (A) (A) (A) (A)
                 (A) (A) (A) (A) (A) (A) (A) (A) (A) (A) (A) (A)
                 (A) (A) (A) (A) (A) (A) (A) (A) (A) (A) (A) (A)
                 (A) (A) (A) (A) (A) (A) (A) (A) (A) (A) (A) (A)
                 (A) (A) (A) (A) (A) (A) (A) (A) (A) (A) (A) (A)
                 (A) (A) (A) (A) (A) (A) (A) (A) (A) (A) (A) (A)
                 (A) (A) (A) (A) (A) (A) (A) (A) (A) (A) (A) (A)
                 (A) (A) (A) (A) (A) (A) (A) (A) (A) (A) (A) (A)
                 (A) (A) (A) (A) (A) (A) (A) (A) (A) (A) (A) (A)
                 (A) (A) (A) (A) (A) (A) (A) (A) (A) (A) (A) (A)
                 (A) (A) (A) (A) (A) (A) (A) (A) (A) (A) (A) (A)
                 (A) (A) (A) (A) (A) (A) (A) (A) (A) (A) (A) (A)
                 (A) (A) (A) (A) (A) (A) (A) (A) (A) (A) (A) (A)
                 (A) (A) (A) (A) (A) (A) (A) (A) (A) (A) (A) (A)
                 (A) (A) (A) (A) (A) (A) (A) (A) (A) (A) (A) (A)
                 (A) (A) (A) (A) (A) (A) (A) (A) (A) (A) (A) (A)
                 (A) (A) (A) (A) (A) (A) (A) (A) (A) (A) (A) (A)
                 (A) (A) (A) (A) (A) (A) (A) (A) (A)
       Virtual   (A) (A) (A) (A) (A) (A) (A) (A) (A) (A) (A) (A)
                 (A) (A) (A) (A) (A) (A) (A) (A) (A) (A) (A) (A)
                 (A) (A) (A) (A) (A) (A) (A) (A) (A) (A) (A) (A)
                 (A) (A) (A) (A) (A) (A) (A) (A) (A) (A) (A) (A)
                 (A) (A) (A) (A) (A) (A) (A) (A) (A) (A) (A) (A)
                 (A) (A) (A) (A) (A) (A) (A) (A) (A) (A) (A) (A)
                 (A) (A) (A) (A) (A) (A) (A) (A) (A) (A) (A) (A)
                 (A) (A) (A) (A) (A) (A) (A) (A) (A) (A) (A) (A)
                 (A) (A) (A) (A) (A) (A) (A) (A) (A) (A) (A) (A)
                 (A) (A) (A) (A) (A) (A) (A) (A) (A) (A) (A) (A)
                 (A) (A) (A) (A) (A) (A) (A) (A) (A) (A) (A) (A)
[...]
  Beta virt. eigenvalues --    5.07243   5.07404   5.07685   5.07812   5.08218
  Beta virt. eigenvalues --    5.08585   5.08914   5.09898   5.10093   5.10162
  Beta virt. eigenvalues --    5.10565   5.10930   5.11245   5.11632   5.12162
  Beta virt. eigenvalues --    5.12615   5.13145   5.13485   5.13685   5.14092
  Beta virt. eigenvalues --    5.14343   5.14765   5.15195   5.15783   5.15943
  Beta virt. eigenvalues --    5.16518   5.17007   5.17669   5.17698   5.18247
  Beta virt. eigenvalues --    5.18448   5.18636   5.19001   5.19442   5.19533
  Beta virt. eigenvalues --    5.20882   5.21180   5.21445   5.22036   5.22197
  Beta virt. eigenvalues --    5.22943   5.23123   5.23783   5.23987   5.24308
  Beta virt. eigenvalues --    5.24522   5.25146   5.25377   5.25771   5.25971
  Beta virt. eigenvalues --    5.26525   5.27593   5.27763   5.28055   5.28177
  Beta virt. eigenvalues --    5.28321   5.28627   5.28894   5.28935   5.29082
  Beta virt. eigenvalues --    5.29266   5.29307   5.29440   5.29839   5.30203
  Beta virt. eigenvalues --    5.30541   5.30881   5.31009   5.31143   5.31627
  Beta virt. eigenvalues --    5.31841   5.31929   5.32202   5.32343   5.32576
  Beta virt. eigenvalues --    5.32948   5.33039   5.33930   5.34050   5.34858
  Beta virt. eigenvalues --    5.34938   5.36099   5.36376   5.36752   5.37320
  Beta virt. eigenvalues --    5.37432   5.37784   5.38234   5.38416   5.38627
  Beta virt. eigenvalues --    5.38952   5.38983   5.39230   5.39962   5.40022
  Beta virt. eigenvalues --    5.40433   5.40532   5.41215   5.41856   5.42182
  Beta virt. eigenvalues --    5.42369   5.42682   5.42889   5.43339   5.43470
  Beta virt. eigenvalues --    5.43534   5.44450   5.44585   5.45368   5.45660
  Beta virt. eigenvalues --    5.45829   5.46397   5.46901   5.46988   5.47314
  Beta virt. eigenvalues --    5.48271   5.48548   5.49009   5.49580   5.50121
  Beta virt. eigenvalues --    5.50205   5.50449   5.51399   5.51576   5.51920
  Beta virt. eigenvalues --    5.52170   5.52854   5.53544   5.54401   5.54584
  Beta virt. eigenvalues --    5.54649   5.55628   5.55682   5.55747   5.56414
  Beta virt. eigenvalues --    5.57087   5.57107   5.57298   5.57458   5.58791
  Beta virt. eigenvalues --    5.59008   5.59288   5.59832   5.60129   5.60259
  Beta virt. eigenvalues --    5.60393   5.60598   5.60861   5.61412   5.61861
  Beta virt. eigenvalues --    5.61968   5.62290   5.62427   5.63160   5.63203
  Beta virt. eigenvalues --    5.63662   5.63873   5.64046   5.64615   5.64693
  Beta virt. eigenvalues --    5.64969   5.65117   5.65576   5.65774   5.65866
  Beta virt. eigenvalues --    5.66486   5.67182   5.67660   5.68244   5.68631
  Beta virt. eigenvalues --    5.69086   5.69968   5.70335   5.72146   5.73924
  Beta virt. eigenvalues --    5.75205   5.76623   5.77196   5.78064   5.78912
  Beta virt. eigenvalues --    5.79757   5.82176   5.83880   5.84274   5.85328
  Beta virt. eigenvalues --    5.86425   5.86936   5.88410   5.88560   5.88813
  Beta virt. eigenvalues --    5.89036   5.90061   5.90983   5.91078   5.91991
  Beta virt. eigenvalues --    5.92627   5.93389   5.95653   5.96065   5.96687
  Beta virt. eigenvalues --    5.97767   5.98915   6.00284   6.00512   6.01621
  Beta virt. eigenvalues --    6.02011   6.03247   6.03605   6.04100   6.05037
  Beta virt. eigenvalues --    6.05429   6.06314   6.06636   6.08617   6.09202
  Beta virt. eigenvalues --    6.09707   6.10505   6.11053   6.12015   6.15393
  Beta virt. eigenvalues --    6.16916   6.19062   6.19687   6.21472   6.22000
  Beta virt. eigenvalues --    6.22540   6.22788   6.23103   6.24857   6.25340
  Beta virt. eigenvalues --    6.25872   6.26504   6.28110   6.28200   6.28349
  Beta virt. eigenvalues --    6.29185   6.31022   6.31209   6.33322   6.34966
  Beta virt. eigenvalues --    6.35849   6.38949   6.39513   6.39813   6.39965
  Beta virt. eigenvalues --    6.40546   6.41936   6.42102   6.42430   6.43527
  Beta virt. eigenvalues --    6.46553   6.60577   6.72785   6.72798   6.72932
  Beta virt. eigenvalues --    6.73841   6.74132   6.74801   6.75763   6.75931
  Beta virt. eigenvalues --    6.76708   6.76831   6.77506   6.77741   6.78432
  Beta virt. eigenvalues --    6.80781   6.80966   6.81922   6.83296   6.84193
  Beta virt. eigenvalues --    6.84575   6.84598   6.84966   6.85166   6.85897
  Beta virt. eigenvalues --    6.86909   6.87536   6.88723   6.93629   6.94053
  Beta virt. eigenvalues --    6.95268   6.95746   6.97056   6.97961   6.98257
  Beta virt. eigenvalues --    6.99500   7.00102   7.01055   7.01307   7.01714
  Beta virt. eigenvalues --    7.01802   7.05393   7.06849   7.07339   7.08628
  Beta virt. eigenvalues --    7.08764   7.12000   7.13902   7.18390   7.20733
  Beta virt. eigenvalues --    7.23485   7.24725   7.26582   7.26760   7.28446
  Beta virt. eigenvalues --    7.28610   7.30190   7.30223   7.30460   7.31961
  Beta virt. eigenvalues --    7.32845   7.33396   7.33517   7.34008   7.34492
  Beta virt. eigenvalues --    7.34580   7.35031   7.38283   7.38316   7.38751
  Beta virt. eigenvalues --    7.40637   7.45053   7.47090   7.47461   7.48457
  Beta virt. eigenvalues --    7.51719   8.16328   8.17641   8.22701   8.23182
  Beta virt. eigenvalues --    8.23305   8.25585   8.35404   8.36137   8.42898
  Beta virt. eigenvalues --    8.43673   8.48115   8.50342   8.57794   8.62095
  Beta virt. eigenvalues --    8.82933   8.88198   8.92817   8.93247   8.95143
  Beta virt. eigenvalues --    9.01543  10.82732  10.83403  10.94901  10.97542
  Beta virt. eigenvalues --   11.45724  11.46240  15.84812  22.75303  22.75603
  Beta virt. eigenvalues --   22.83073  22.88676  22.90065  23.07994  23.09360
  Beta virt. eigenvalues --   23.12600  23.13053  23.14637  23.19173  23.19317
  Beta virt. eigenvalues --   23.19639  23.24345  23.27344  23.28238  23.29062
  Beta virt. eigenvalues --   23.29551  23.31375  23.32093  23.32591  23.33181
  Beta virt. eigenvalues --   23.34149  23.36510  23.36907  23.38054  23.39381
  Beta virt. eigenvalues --   23.39550  23.40097  23.40818  23.41349  23.43236
  Beta virt. eigenvalues --   23.43859  23.45517  23.45717  23.47964  23.50735
  Beta virt. eigenvalues --   23.51556  23.52510  23.56785  23.59422  23.61922
  Beta virt. eigenvalues --   23.64763  23.71812  23.77649  23.88430  24.06662
  Beta virt. eigenvalues --   24.09553  24.09856  26.21196  26.23396  32.58213
  Beta virt. eigenvalues --   33.12633  33.25077  44.20553  44.22409  44.24831
  Beta virt. eigenvalues --   44.29820  44.34498  44.38383  44.44641  44.48743
  Beta virt. eigenvalues --   44.49038  44.50382  44.62239  44.63855  57.44658
  Beta virt. eigenvalues --   57.56815
          Condensed to atoms (all electrons):
          Atomic-Atomic Spin Densities.
 Mulliken charges and spin densities:
               1          2
     1  B    0.368557   0.003211
     2  N   -0.132388   0.022459
     3  C    0.056825   0.189564
     4  C   -0.080472  -0.078328
     5  C    0.024108   0.172192
     6  C    0.085951  -0.066848
     7  C    0.050364   0.358076
     8  C    0.144596  -0.028326
     9  O   -0.382684   0.048232
    10  C   -0.093536   0.004122
    11  C    0.046145   0.001346
    12  C   -0.223564  -0.000675
    13  C   -0.078635   0.000035
    14  C   -0.021148  -0.000026
    15  C   -0.104900   0.000095
    16  C   -0.130283  -0.000390
    17  N    0.489199   0.000005
    18  O   -0.371780  -0.000016
    19  O   -0.372418  -0.000020
    20  C    0.073968  -0.085599
    21  N   -0.137191   0.024275
    22  C    0.056931   0.172893
    23  C   -0.086136  -0.067865
    24  C    0.051591   0.165352
    25  C   -0.480481  -0.009273
    26  C   -0.135576  -0.090594
    27  C   -0.132553   0.131751
    28  C    0.013778  -0.031725
    29  C   -0.163774   0.033097
    30  C   -0.198539  -0.017636
    31  C    0.213355   0.034077
    32  O   -0.288272   0.004765
    33  C   -0.098813  -0.000330
    34  C   -0.144125  -0.000111
    35  O   -0.325466   0.000007
    36  C   -0.051758   0.000091
    37  C   -0.136028  -0.000012
    38  O   -0.333273   0.000000
    39  C   -0.101826   0.000001
    40  C   -0.107945  -0.000001
    41  O   -0.345684  -0.000000
    42  C   -0.211997   0.000000
    43  C   -0.173664  -0.019810
    44  C   -0.161510   0.035841
    45  C   -0.423915  -0.009571
    46  C   -0.158031  -0.082012
    47  C   -0.090739   0.127815
    48  C   -0.012927  -0.031341
    49  C   -0.162538   0.035745
    50  C   -0.173503  -0.019288
    51  C    0.210425   0.033853
    52  O   -0.289220   0.004767
    53  C   -0.097891  -0.000367
    54  C   -0.092228  -0.000142
    55  O   -0.341340   0.000025
    56  C   -0.093713   0.000003
    57  C   -0.060938   0.000001
    58  O   -0.363530  -0.000000
    59  C   -0.077813   0.000000
    60  C   -0.037234   0.000000
    61  O   -0.353052   0.000000
    62  C   -0.204297   0.000000
    63  C   -0.198133  -0.017775
    64  C   -0.154537   0.033397
    65  F   -0.359702   0.000823
    66  F   -0.358405   0.001279
    67  H    0.170200  -0.000120
    68  H    0.180081   0.000168
    69  H    0.174808  -0.000744
    70  H    0.194159   0.000019
    71  H    0.192789  -0.000007
    72  H    0.158802   0.000057
    73  H    0.149155   0.003353
    74  H    0.130318   0.002008
    75  H    0.155392   0.007797
    76  H    0.096339   0.005183
    77  H    0.117161  -0.007647
    78  H    0.149731  -0.001098
    79  H    0.154380   0.000205
    80  H    0.163024   0.000377
    81  H    0.151341   0.000407
    82  H    0.132992  -0.000012
    83  H    0.127720  -0.000026
    84  H    0.129094  -0.000011
    85  H    0.125022  -0.000055
    86  H    0.132689   0.000000
    87  H    0.132957   0.000001
    88  H    0.132055   0.000000
    89  H    0.141071  -0.000000
    90  H    0.137766   0.000000
    91  H    0.141628   0.000000
    92  H    0.137931  -0.000000
    93  H    0.125506  -0.000000
    94  H    0.126206  -0.000000
    95  H    0.151023   0.000237
    96  H    0.137546  -0.001012
    97  H    0.157637   0.008203
    98  H    0.129188   0.006434
    99  H    0.118477   0.000718
   100  H    0.116460   0.004097
   101  H    0.113714  -0.006756
   102  H    0.139012  -0.000998
   103  H    0.152590   0.000230
   104  H    0.145887   0.000398
   105  H    0.146985   0.000406
   106  H    0.125694  -0.000022
   107  H    0.128398  -0.000004
   108  H    0.127139  -0.000001
   109  H    0.119593   0.000001
   110  H    0.132934   0.000000
   111  H    0.125225   0.000000
   112  H    0.119428  -0.000000
   113  H    0.133589   0.000000
   114  H    0.112186  -0.000000
   115  H    0.110655  -0.000000
   116  H    0.136518   0.000000
   117  H    0.120825  -0.000000
   118  H    0.120428  -0.000000
   119  H    0.155093   0.000218
   120  H    0.144528  -0.001400
   121  O   -0.262953   0.003892
   122  Cl  -0.096508  -0.003285
   123  Cl  -0.097291  -0.002327
 Sum of Mulliken charges =  -1.00000   1.00000
 Mulliken charges and spin densities with hydrogens summed into heavy atoms:
               1          2
     1  B    0.368557   0.003211
     2  N   -0.132388   0.022459
     3  C    0.056825   0.189564
     4  C   -0.080472  -0.078328
     5  C    0.024108   0.172192
     6  C    0.085951  -0.066848
     7  C    0.050364   0.358076
     8  C    0.144596  -0.028326
     9  O   -0.382684   0.048232
    10  C    0.256745   0.004171
    11  C    0.046145   0.001346
    12  C   -0.048755  -0.001418
    13  C    0.115524   0.000054
    14  C   -0.021148  -0.000026
    15  C    0.087889   0.000088
    16  C    0.028519  -0.000332
    17  N    0.489199   0.000005
    18  O   -0.371780  -0.000016
    19  O   -0.372418  -0.000020
    20  C    0.073968  -0.085599
    21  N   -0.137191   0.024275
    22  C    0.056931   0.172893
    23  C   -0.086136  -0.067865
    24  C    0.051591   0.165352
    25  C   -0.045617   0.003885
    26  C   -0.039237  -0.085411
    27  C   -0.015392   0.124103
    28  C    0.013778  -0.031725
    29  C   -0.014044   0.032000
    30  C   -0.044159  -0.017432
    31  C    0.213355   0.034077
    32  O   -0.288272   0.004765
    33  C    0.215552   0.000455
    34  C    0.116586  -0.000149
    35  O   -0.325466   0.000007
    36  C    0.202357   0.000025
    37  C    0.129618  -0.000010
    38  O   -0.333273   0.000000
    39  C    0.171300   0.000001
    40  C    0.171449  -0.000000
    41  O   -0.345684  -0.000000
    42  C    0.177646   0.000000
    43  C   -0.022641  -0.019572
    44  C   -0.023964   0.034829
    45  C   -0.018614   0.005784
    46  C   -0.041570  -0.077915
    47  C    0.022975   0.121058
    48  C   -0.012927  -0.031341
    49  C   -0.023527   0.034747
    50  C   -0.020913  -0.019058
    51  C    0.210425   0.033853
    52  O   -0.289220   0.004767
    53  C    0.194981   0.000437
    54  C    0.161864  -0.000168
    55  O   -0.341340   0.000025
    56  C    0.153019   0.000003
    57  C    0.197222   0.000001
    58  O   -0.363530  -0.000000
    59  C    0.175204   0.000000
    60  C    0.185606  -0.000000
    61  O   -0.353052   0.000000
    62  C    0.173473   0.000000
    63  C   -0.043040  -0.017557
    64  C   -0.010009   0.031997
    65  F   -0.359702   0.000823
    66  F   -0.358405   0.001279
   121  O   -0.262953   0.003892
   122  Cl  -0.096508  -0.003285
   123  Cl  -0.097291  -0.002327
 Electronic spatial extent (au):  <R**2>=         136900.1472
 Charge=             -1.0000 electrons
 Dipole moment (field-independent basis, Debye):
    X=            -21.0607    Y=             -3.5795    Z=             -6.5630  Tot=             22.3481
 Quadrupole moment (field-independent basis, Debye-Ang):
   XX=           -526.3371   YY=           -430.4166   ZZ=           -429.4439
   XY=            -27.7288   XZ=             74.1956   YZ=             12.2130
 Traceless Quadrupole moment (field-independent basis, Debye-Ang):
   XX=            -64.2712   YY=             31.6492   ZZ=             32.6220
   XY=            -27.7288   XZ=             74.1956   YZ=             12.2130
 Octapole moment (field-independent basis, Debye-Ang**2):
  XXX=          -2362.7599  YYY=            -88.9451  ZZZ=            -21.8146  XYY=           -183.0193
  XXY=           -908.6371  XXZ=            395.4280  XZZ=           -408.1526  YZZ=            -52.8906
  YYZ=           -456.3559  XYZ=           -141.7296
 Hexadecapole moment (field-independent basis, Debye-Ang**3):
 XXXX=        -139989.3055 YYYY=         -47363.0719 ZZZZ=          -8015.4528 XXXY=           -276.7377
 XXXZ=          11293.9874 YYYX=           2600.2518 YYYZ=            421.3069 ZZZX=            651.7429
 ZZZY=            233.5524 XXYY=         -27723.2397 XXZZ=         -23310.3514 YYZZ=          -8656.1961
 XXYZ=           2537.8503 YYXZ=           3106.2629 ZZXY=            338.1182
 N-N= 1.003991550957D+04 E-N=-2.976573105171D+04  KE= 4.093916476228D+03
 Leave Link  601 at Fri Nov 14 01:52:24 2025, MaxMem= 30870077440 cpu:             192.3 elap:               3.5
 (Enter /public/software/gauss/g16/l9999.exe)
 1\1\GINC-CU137\SP\UM062X\def2TZVPP\C49H54B1Cl2F2N3O12(1-,2)\BAIDING\14
 -Nov-2025\0\\#p M062X/DEF2TZVPP scrf=(solvent=water) em=GD3\\Energy ca
 lculation for BE_Cl_reduced_i\\-1,2\B,0,-2.599132,0.208784,0.650131\N,
 0,-3.669135,-0.905047,0.556036\C,0,-3.421772,-2.167216,0.030099\C,0,-4
 .686379,-2.735493,-0.220543\C,0,-5.709032,-1.8482,0.130953\C,0,-5.0385
 18,-0.694961,0.637811\C,0,-5.528275,0.544745,1.136233\C,0,-6.981146,0.
 74954,1.299183\O,0,-7.749338,0.010907,1.902845\C,0,-8.793871,2.242335,
 0.869389\C,0,-9.723689,1.509108,-0.068678\C,0,-9.308276,1.129163,-1.35
 3331\C,0,-10.190729,0.503175,-2.226224\C,0,-11.499459,0.269798,-1.8008
 87\C,0,-11.942544,0.641331,-0.530703\C,0,-11.043748,1.258437,0.331211\
 N,0,-12.431611,-0.383792,-2.710294\O,0,-12.028862,-0.717505,-3.830608\
 O,0,-13.590958,-0.579572,-2.32789\C,0,-4.623102,1.579088,1.513691\N,0,
 -3.266784,1.485541,1.209806\C,0,-2.608876,2.592304,1.732039\C,0,-3.591
 327,3.350956,2.398405\C,0,-4.846805,2.752585,2.289975\C,0,-6.102498,3.
 242707,2.943469\C,0,-1.226242,2.96745,1.62411\C,0,-0.256302,2.488675,0
 .800061\C,0,1.131903,2.938873,0.765558\C,0,1.687596,3.874778,1.669336\
 C,0,3.014472,4.263583,1.580138\C,0,3.848432,3.729377,0.582722\O,0,5.14
 4478,4.175221,0.587672\C,0,6.042292,3.673314,-0.412699\C,0,7.408188,4.
 284876,-0.157711\O,0,7.437455,5.706386,-0.234059\C,0,7.33974,6.228015,
 -1.561041\C,0,7.712905,7.698907,-1.520677\O,0,9.069217,7.908508,-1.114
 912\C,0,9.971128,8.296041,-2.151309\C,0,10.286456,7.194594,-3.160959\O
 ,0,10.693424,5.958968,-2.577994\C,0,11.950287,6.017022,-1.910835\C,0,3
 .328438,2.798651,-0.323817\C,0,1.990474,2.41778,-0.221054\C,0,-7.17343
 5,-2.108071,-0.04577\C,0,-2.079845,-2.662763,-0.121621\C,0,-1.670474,-
 3.766382,-0.802834\C,0,-0.294856,-4.244889,-0.90776\C,0,-0.029018,-5.3
 90737,-1.680849\C,0,1.257987,-5.907553,-1.831061\C,0,2.330467,-5.27295
 3,-1.194413\O,0,3.635934,-5.684231,-1.266084\C,0,3.939086,-6.858749,-2
 .033134\C,0,5.425006,-7.110623,-1.936054\O,0,5.740609,-7.485172,-0.595
 416\C,0,7.117534,-7.802256,-0.391272\C,0,7.96503,-6.551903,-0.143038\O
 ,0,9.328727,-6.915683,0.096737\C,0,9.643652,-7.168796,1.467678\C,0,10.
 103528,-5.888361,2.156674\O,0,10.424075,-6.211251,3.504066\C,0,10.8802
 99,-5.079509,4.233485\C,0,2.093327,-4.126943,-0.415927\C,0,0.80931,-3.
 625937,-0.276039\F,0,-1.55336,-0.192674,1.504617\F,0,-2.061557,0.4398,
 -0.637737\H,0,-9.083722,2.076459,1.908467\H,0,-8.827868,3.315363,0.661
 598\H,0,-8.289363,1.321064,-1.670239\H,0,-9.878204,0.205,-3.218674\H,0
 ,-12.962373,0.442132,-0.227795\H,0,-11.369317,1.545305,1.326207\H,0,-6
 .729023,2.417338,3.292237\H,0,-5.853085,3.85488,3.814414\H,0,-6.71186,
 3.859938,2.273959\H,0,-0.971017,3.787816,2.29021\H,0,-0.506526,1.72262
 4,0.075448\H,0,1.075867,4.299821,2.458916\H,0,3.432019,4.98057,2.28029
 2\H,0,6.125295,2.581627,-0.340102\H,0,5.666011,3.923721,-1.411334\H,0,
 7.733158,4.032741,0.856488\H,0,8.121098,3.841886,-0.868123\H,0,8.00856
 9,5.671936,-2.230382\H,0,6.314709,6.137012,-1.949051\H,0,7.519648,8.14
 8762,-2.502086\H,0,7.074762,8.206863,-0.787269\H,0,9.581684,9.163232,-
 2.705325\H,0,10.880944,8.616272,-1.635148\H,0,9.39885,6.957379,-3.7550
 87\H,0,11.060199,7.573796,-3.847172\H,0,12.221411,4.989902,-1.654009\H
 ,0,12.729252,6.438893,-2.561382\H,0,11.905414,6.607409,-0.987101\H,0,3
 .946912,2.367596,-1.101602\H,0,1.597639,1.693442,-0.929743\H,0,-7.6796
 32,-2.306813,0.904205\H,0,-7.684515,-1.259766,-0.509872\H,0,-7.3204,-2
 .976945,-0.691593\H,0,-1.332806,-2.060596,0.383227\H,0,-2.398519,-4.36
 8218,-1.33684\H,0,-0.854537,-5.891711,-2.179625\H,0,1.409715,-6.792319
 ,-2.43731\H,0,3.382204,-7.718306,-1.641445\H,0,3.664007,-6.708419,-3.0
 83932\H,0,5.687023,-7.92099,-2.631552\H,0,5.974883,-6.210502,-2.240804
 \H,0,7.156117,-8.453622,0.487813\H,0,7.519382,-8.362273,-1.246823\H,0,
 7.965098,-5.903053,-1.024137\H,0,7.550473,-5.981184,0.696829\H,0,8.787
 749,-7.597868,2.002826\H,0,10.453106,-7.905885,1.48112\H,0,10.982191,-
 5.480327,1.63411\H,0,9.309635,-5.12631,2.120894\H,0,11.100792,-5.41359
 1,5.2503\H,0,11.79274,-4.655933,3.790088\H,0,10.114756,-4.291534,4.273
 814\H,0,2.934322,-3.645619,0.073509\H,0,0.66251,-2.740945,0.334929\O,0
 ,-7.407763,1.885344,0.679555\Cl,0,-4.972675,-4.353642,-0.823021\Cl,0,-
 3.280541,4.858475,3.23179\\Version=ES64L-G16RevA.03\State=2-A\HF=-4111
 .7540447\S2=0.787092\S2-1=0.\S2A=0.751112\RMSD=2.977e-09\Dipole=8.2859
 004,1.4082779,-2.5820773\Quadrupole=-47.784066,23.5304317,24.2536343,-
 20.6156806,-55.1626075,-9.0800398\PG=C01 [X(C49H54B1Cl2F2N3O12)]\\@


 THERE ARE PEOPLE SO ADDICTED TO EXAGERATING THEY
 CAN'T TELL THE TRUTH WITHOUT LYING. -- FORTUNE COOKIE
 Job cpu time:       2 days 17 hours 30 minutes 14.2 seconds.
 Elapsed time:       0 days  1 hours  2 minutes 14.8 seconds.
 File lengths (MBytes):  RWF=   9098 Int=      0 D2E=      0 Chk=    589 Scr=      1
 Normal termination of Gaussian 16 at Fri Nov 14 01:52:27 2025.
