 Entering Gaussian System, Link 0=g16
 Input=BE_CO_sp.gjf
 Output=BE_CO_sp.log
 Initial command:
 /public/software/gauss/g16/l1.exe "/public/home/baiding/1105_BE_sp/tmp_BE_CO_sp_1568733/Gau-1933367.inp" -scrdir="/public/home/baiding/1105_BE_sp/tmp_BE_CO_sp_1568733/"
 Entering Link 1 = /public/software/gauss/g16/l1.exe PID=   1933368.
  
 Copyright (c) 1988,1990,1992,1993,1995,1998,2003,2009,2016,
            Gaussian, Inc.  All Rights Reserved.
  
 This is part of the Gaussian(R) 16 program.  It is based on
 the Gaussian(R) 09 system (copyright 2009, Gaussian, Inc.),
 the Gaussian(R) 03 system (copyright 2003, Gaussian, Inc.),
 the Gaussian(R) 98 system (copyright 1998, Gaussian, Inc.),
 the Gaussian(R) 94 system (copyright 1995, Gaussian, Inc.),
 the Gaussian 92(TM) system (copyright 1992, Gaussian, Inc.),
 the Gaussian 90(TM) system (copyright 1990, Gaussian, Inc.),
 the Gaussian 88(TM) system (copyright 1988, Gaussian, Inc.),
 the Gaussian 86(TM) system (copyright 1986, Carnegie Mellon
 University), and the Gaussian 82(TM) system (copyright 1983,
 Carnegie Mellon University). Gaussian is a federally registered
 trademark of Gaussian, Inc.
  
 This software contains proprietary and confidential information,
 including trade secrets, belonging to Gaussian, Inc.
  
 This software is provided under written license and may be
 used, copied, transmitted, or stored only in accord with that
 written license.
  
 The following legend is applicable only to US Government
 contracts under FAR:
  
                    RESTRICTED RIGHTS LEGEND
  
 Use, reproduction and disclosure by the US Government is
 subject to restrictions as set forth in subparagraphs (a)
 and (c) of the Commercial Computer Software - Restricted
 Rights clause in FAR 52.227-19.
  
 Gaussian, Inc.
 340 Quinnipiac St., Bldg. 40, Wallingford CT 06492
  
  
 ---------------------------------------------------------------
 Warning -- This program may not be used in any manner that
 competes with the business of Gaussian, Inc. or will provide
 assistance to any competitor of Gaussian, Inc.  The licensee
 of this program is prohibited from giving any competitor of
 Gaussian, Inc. access to this program.  By using this program,
 the user acknowledges that Gaussian, Inc. is engaged in the
 business of creating and licensing software in the field of
 computational chemistry and represents and warrants to the
 licensee that it is not a competitor of Gaussian, Inc. and that
 it will not use this program in any manner prohibited above.
 ---------------------------------------------------------------
  

 Cite this work as:
 Gaussian 16, Revision A.03,
 M. J. Frisch, G. W. Trucks, H. B. Schlegel, G. E. Scuseria, 
 M. A. Robb, J. R. Cheeseman, G. Scalmani, V. Barone, 
 G. A. Petersson, H. Nakatsuji, X. Li, M. Caricato, A. V. Marenich, 
 J. Bloino, B. G. Janesko, R. Gomperts, B. Mennucci, H. P. Hratchian, 
 J. V. Ortiz, A. F. Izmaylov, J. L. Sonnenberg, D. Williams-Young, 
 F. Ding, F. Lipparini, F. Egidi, J. Goings, B. Peng, A. Petrone, 
 T. Henderson, D. Ranasinghe, V. G. Zakrzewski, J. Gao, N. Rega, 
 G. Zheng, W. Liang, M. Hada, M. Ehara, K. Toyota, R. Fukuda, 
 J. Hasegawa, M. Ishida, T. Nakajima, Y. Honda, O. Kitao, H. Nakai, 
 T. Vreven, K. Throssell, J. A. Montgomery, Jr., J. E. Peralta, 
 F. Ogliaro, M. J. Bearpark, J. J. Heyd, E. N. Brothers, K. N. Kudin, 
 V. N. Staroverov, T. A. Keith, R. Kobayashi, J. Normand, 
 K. Raghavachari, A. P. Rendell, J. C. Burant, S. S. Iyengar, 
 J. Tomasi, M. Cossi, J. M. Millam, M. Klene, C. Adamo, R. Cammi, 
 J. W. Ochterski, R. L. Martin, K. Morokuma, O. Farkas, 
 J. B. Foresman, and D. J. Fox, Gaussian, Inc., Wallingford CT, 2016.
 
 ******************************************
 Gaussian 16:  ES64L-G16RevA.03 25-Dec-2016
                 5-Nov-2025 
 ******************************************
 %nprocshared=64
 Will use up to   64 processors via shared memory.
 %mem=230GB
 %chk=BE_CO_sp.chk
 ----------------------------------------------
 #p M062X/DEF2TZVPP scrf=(solvent=water) em=GD3
 ----------------------------------------------
 1/38=1,172=1/1;
 2/12=2,17=6,18=5,40=1/2;
 3/5=44,7=202,11=2,25=1,30=1,70=2201,72=1,74=-55,124=31/1,2,3;
 4//1;
 5/5=2,38=5,53=1/2;
 6/7=2,8=2,9=2,10=2,28=1/1;
 99/5=1,9=1/99;
 Leave Link    1 at Wed Nov  5 22:59:24 2025, MaxMem= 30870077440 cpu:              12.2 elap:               0.2
 (Enter /public/software/gauss/g16/l101.exe)
 ----------------------------
 Energy calculation for BE_CO
 ----------------------------
 Symbolic Z-matrix:
 Charge =  0 Multiplicity = 1
 B                    -2.92732   0.44712  -0.25704 
 N                    -3.926    -0.69718  -0.56562 
 C                    -3.59289  -1.97715  -0.90245 
 C                    -4.78368  -2.67284  -1.24447 
 C                    -5.85616  -1.81172  -1.10389 
 C                    -5.30783  -0.55569  -0.6654 
 C                    -5.90763   0.67231  -0.36272 
 C                    -7.42209   0.75829  -0.34881 
 O                    -8.03556   1.13116  -1.33439 
 C                    -8.08287   0.35773   0.9634 
 C                    -9.58778   0.30291   0.92547 
 C                    -10.34221   1.47445   0.74985 
 C                    -11.73031   1.43039   0.72109 
 C                    -12.36226   0.19423   0.87081 
 C                    -11.64364  -0.98805   1.04728 
 C                    -10.25456  -0.9221    1.0714 
 N                    -13.81839   0.13842   0.8462 
 O                    -14.44755   1.19143   0.6914 
 O                    -14.37056  -0.95956   0.98118 
 C                    -5.14598   1.80678  -0.03976 
 N                    -3.74574   1.73846   0.00916 
 C                    -3.27395   2.9714    0.37794 
 C                    -4.38306   3.83427   0.56358 
 C                    -5.54961   3.1422    0.29633 
 C                    -6.92347   3.74078   0.32965 
 C                    -1.9195    3.42317   0.57676 
 C                    -0.74516   2.83112   0.23615 
 C                     0.58768   3.36461   0.48196 
 C                     0.84825   4.57074   1.17413 
 C                     2.14291   5.01714   1.37313 
 C                     3.2351    4.27351   0.88881 
 O                     4.46943   4.79909   1.14285 
 C                     5.62682   4.09139   0.66911 
 C                     6.85618   4.87179   1.0977 
 O                     6.92156   6.19595   0.57981 
 C                     7.17079   6.26877  -0.82596 
 C                     7.58694   7.68908  -1.16124 
 O                     8.83339   8.0439   -0.55304 
 C                     9.9368    8.17941  -1.44916 
 C                     10.41956   6.86545  -2.05818 
 O                     10.69848   5.84157  -1.10587 
 C                     11.84083   6.09802  -0.29481 
 C                     3.0068    3.07517   0.20084 
 C                     1.69769   2.63938   0.0085 
 C                    -7.283    -2.15797  -1.40205 
 C                    -2.23951  -2.46296  -0.86235 
 C                    -1.8734   -3.69299  -1.3076 
 C                    -0.53723  -4.26686  -1.28821 
 C                    -0.34576  -5.55744  -1.81685 
 C                     0.90325  -6.17385  -1.83228 
 C                     2.00856  -5.49391  -1.30482 
 O                     3.27824  -5.99261  -1.26367 
 C                     3.51753  -7.30575  -1.79773 
 C                     4.9864   -7.61544  -1.63638 
 O                     5.27709  -7.75813  -0.24664 
 C                     6.62348  -8.14656   0.02585 
 C                     7.58854  -6.95868  -0.00457 
 O                     8.91494  -7.39203   0.31499 
 C                     9.23056  -7.36479   1.70856 
 C                     9.83105  -6.01748   2.09529 
 O                     10.15064  -6.06682   3.48008 
 C                     10.74274  -4.85845   3.93848 
 C                     1.84314  -4.20244  -0.77041 
 C                     0.59657  -3.60263  -0.76339 
 F                    -2.14693   0.11899   0.85973 
 F                    -2.08368   0.62107  -1.37035 
 H                    -4.83919  -3.70725  -1.55382 
 H                    -7.65596  -0.60217   1.27197 
 H                    -7.73514   1.08432   1.71049 
 H                    -9.83815   2.42891   0.64151 
 H                    -12.31684   2.33044   0.58887 
 H                    -12.16195  -1.93105   1.16396 
 H                    -9.68037  -1.83228   1.21176 
 H                    -4.30556   4.87636   0.84414 
 H                    -7.55955   3.28579   1.09647 
 H                    -6.85053   4.80723   0.55623 
 H                    -7.43816   3.63302  -0.6293 
 H                    -1.89018   4.4042    1.04477 
 H                    -0.76258   1.88641  -0.29321 
 H                     0.02849   5.16477   1.56503 
 H                     2.33816   5.9423    1.90604 
 H                     5.66892   3.08951   1.11356 
 H                     5.5758    3.98427  -0.42008 
 H                     6.85931   4.97639   2.18695 
 H                     7.74481   4.29412   0.80395 
 H                     7.95993   5.5581   -1.10376 
 H                     6.26678   6.02034  -1.40071 
 H                     7.63065   7.80515  -2.25065 
 H                     6.82697   8.38286  -0.78077 
 H                     9.68976   8.86518  -2.27334 
 H                     10.7315   8.64572  -0.85943 
 H                     9.65286   6.44859  -2.71822 
 H                     11.31034   7.07972  -2.66942 
 H                     12.04064   5.18457   0.27101 
 H                     12.7208   6.33675  -0.90848 
 H                     11.67419   6.91831   0.41473 
 H                     3.829     2.48253  -0.18044 
 H                     1.52815   1.70785  -0.52455 
 H                    -7.91649  -2.12165  -0.50929 
 H                    -7.72038  -1.47764  -2.1389 
 H                    -7.33884  -3.17272  -1.80331 
 H                    -1.49902  -1.79429  -0.43894 
 H                    -2.6383   -4.33909  -1.73417 
 H                    -1.19967  -6.0902   -2.2263 
 H                     1.00354  -7.1682   -2.2493 
 H                     2.91048  -8.04373  -1.26081 
 H                     3.25415  -7.33417  -2.86128 
 H                     5.20429  -8.55123  -2.17112 
 H                     5.58582  -6.81662  -2.09229 
 H                     6.61754  -8.58933   1.02701 
 H                     6.9573   -8.91566  -0.68444 
 H                     7.63618  -6.52311  -1.00709 
 H                     7.24454  -6.17955   0.68672 
 H                     8.34675  -7.5741    2.32353 
 H                     9.962    -8.15934   1.88848 
 H                     10.73292  -5.8264    1.49389 
 H                     9.11577  -5.2053    1.89266 
 H                     10.95624  -4.98285   5.00296 
 H                     11.68122  -4.64361   3.4078 
 H                     10.06485  -4.00299   3.80716 
 H                     2.71073  -3.69109  -0.36592 
 H                     0.5      -2.60614  -0.34474 
 
 ITRead=  0  0  0  0  0  0  0  0  0  0  0  0  0  0  0  0  0  0  0  0
 ITRead=  0  0  0  0  0  0  0  0  0  0  0  0  0  0  0  0  0  0  0  0
 ITRead=  0  0  0  0  0  0  0  0  0  0  0  0  0  0  0  0  0  0  0  0
 ITRead=  0  0  0  0  0  0  0  0  0  0  0  0  0  0  0  0  0  0  0  0
 ITRead=  0  0  0  0  0  0  0  0  0  0  0  0  0  0  0  0  0  0  0  0
 ITRead=  0  0  0  0  0  0  0  0  0  0  0  0  0  0  0  0  0  0  0  0
 ITRead=  0  0
 MicOpt= -1 -1 -1 -1 -1 -1 -1 -1 -1 -1 -1 -1 -1 -1 -1 -1 -1 -1 -1 -1
 MicOpt= -1 -1 -1 -1 -1 -1 -1 -1 -1 -1 -1 -1 -1 -1 -1 -1 -1 -1 -1 -1
 MicOpt= -1 -1 -1 -1 -1 -1 -1 -1 -1 -1 -1 -1 -1 -1 -1 -1 -1 -1 -1 -1
 MicOpt= -1 -1 -1 -1 -1 -1 -1 -1 -1 -1 -1 -1 -1 -1 -1 -1 -1 -1 -1 -1
 MicOpt= -1 -1 -1 -1 -1 -1 -1 -1 -1 -1 -1 -1 -1 -1 -1 -1 -1 -1 -1 -1
 MicOpt= -1 -1 -1 -1 -1 -1 -1 -1 -1 -1 -1 -1 -1 -1 -1 -1 -1 -1 -1 -1
 MicOpt= -1 -1
 NAtoms=    122 NQM=      122 NQMF=       0 NMMI=      0 NMMIF=      0
                NMic=       0 NMicF=      0.
                    Isotopes and Nuclear Properties:
 (Nuclear quadrupole moments (NQMom) in fm**2, nuclear magnetic moments (NMagM)
  in nuclear magnetons)

  Atom         1           2           3           4           5           6           7           8           9          10
 IAtWgt=          11          14          12          12          12          12          12          12          16          12
 AtmWgt=  11.0093053  14.0030740  12.0000000  12.0000000  12.0000000  12.0000000  12.0000000  12.0000000  15.9949146  12.0000000
 NucSpn=           3           2           0           0           0           0           0           0           0           0
 AtZEff=  -0.0000000  -0.0000000  -0.0000000  -0.0000000  -0.0000000  -0.0000000  -0.0000000  -0.0000000  -0.0000000  -0.0000000
 NQMom=    4.0590000   2.0440000   0.0000000   0.0000000   0.0000000   0.0000000   0.0000000   0.0000000   0.0000000   0.0000000
 NMagM=    2.6886370   0.4037610   0.0000000   0.0000000   0.0000000   0.0000000   0.0000000   0.0000000   0.0000000   0.0000000
 AtZNuc=   5.0000000   7.0000000   6.0000000   6.0000000   6.0000000   6.0000000   6.0000000   6.0000000   8.0000000   6.0000000

  Atom        11          12          13          14          15          16          17          18          19          20
 IAtWgt=          12          12          12          12          12          12          14          16          16          12
 AtmWgt=  12.0000000  12.0000000  12.0000000  12.0000000  12.0000000  12.0000000  14.0030740  15.9949146  15.9949146  12.0000000
 NucSpn=           0           0           0           0           0           0           2           0           0           0
 AtZEff=  -0.0000000  -0.0000000  -0.0000000  -0.0000000  -0.0000000  -0.0000000  -0.0000000  -0.0000000  -0.0000000  -0.0000000
 NQMom=    0.0000000   0.0000000   0.0000000   0.0000000   0.0000000   0.0000000   2.0440000   0.0000000   0.0000000   0.0000000
 NMagM=    0.0000000   0.0000000   0.0000000   0.0000000   0.0000000   0.0000000   0.4037610   0.0000000   0.0000000   0.0000000
 AtZNuc=   6.0000000   6.0000000   6.0000000   6.0000000   6.0000000   6.0000000   7.0000000   8.0000000   8.0000000   6.0000000

  Atom        21          22          23          24          25          26          27          28          29          30
 IAtWgt=          14          12          12          12          12          12          12          12          12          12
 AtmWgt=  14.0030740  12.0000000  12.0000000  12.0000000  12.0000000  12.0000000  12.0000000  12.0000000  12.0000000  12.0000000
 NucSpn=           2           0           0           0           0           0           0           0           0           0
 AtZEff=  -0.0000000  -0.0000000  -0.0000000  -0.0000000  -0.0000000  -0.0000000  -0.0000000  -0.0000000  -0.0000000  -0.0000000
 NQMom=    2.0440000   0.0000000   0.0000000   0.0000000   0.0000000   0.0000000   0.0000000   0.0000000   0.0000000   0.0000000
 NMagM=    0.4037610   0.0000000   0.0000000   0.0000000   0.0000000   0.0000000   0.0000000   0.0000000   0.0000000   0.0000000
 AtZNuc=   7.0000000   6.0000000   6.0000000   6.0000000   6.0000000   6.0000000   6.0000000   6.0000000   6.0000000   6.0000000

  Atom        31          32          33          34          35          36          37          38          39          40
 IAtWgt=          12          16          12          12          16          12          12          16          12          12
 AtmWgt=  12.0000000  15.9949146  12.0000000  12.0000000  15.9949146  12.0000000  12.0000000  15.9949146  12.0000000  12.0000000
 NucSpn=           0           0           0           0           0           0           0           0           0           0
 AtZEff=  -0.0000000  -0.0000000  -0.0000000  -0.0000000  -0.0000000  -0.0000000  -0.0000000  -0.0000000  -0.0000000  -0.0000000
 NQMom=    0.0000000   0.0000000   0.0000000   0.0000000   0.0000000   0.0000000   0.0000000   0.0000000   0.0000000   0.0000000
 NMagM=    0.0000000   0.0000000   0.0000000   0.0000000   0.0000000   0.0000000   0.0000000   0.0000000   0.0000000   0.0000000
 AtZNuc=   6.0000000   8.0000000   6.0000000   6.0000000   8.0000000   6.0000000   6.0000000   8.0000000   6.0000000   6.0000000

  Atom        41          42          43          44          45          46          47          48          49          50
 IAtWgt=          16          12          12          12          12          12          12          12          12          12
 AtmWgt=  15.9949146  12.0000000  12.0000000  12.0000000  12.0000000  12.0000000  12.0000000  12.0000000  12.0000000  12.0000000
 NucSpn=           0           0           0           0           0           0           0           0           0           0
 AtZEff=  -0.0000000  -0.0000000  -0.0000000  -0.0000000  -0.0000000  -0.0000000  -0.0000000  -0.0000000  -0.0000000  -0.0000000
 NQMom=    0.0000000   0.0000000   0.0000000   0.0000000   0.0000000   0.0000000   0.0000000   0.0000000   0.0000000   0.0000000
 NMagM=    0.0000000   0.0000000   0.0000000   0.0000000   0.0000000   0.0000000   0.0000000   0.0000000   0.0000000   0.0000000
 AtZNuc=   8.0000000   6.0000000   6.0000000   6.0000000   6.0000000   6.0000000   6.0000000   6.0000000   6.0000000   6.0000000

  Atom        51          52          53          54          55          56          57          58          59          60
 IAtWgt=          12          16          12          12          16          12          12          16          12          12
 AtmWgt=  12.0000000  15.9949146  12.0000000  12.0000000  15.9949146  12.0000000  12.0000000  15.9949146  12.0000000  12.0000000
 NucSpn=           0           0           0           0           0           0           0           0           0           0
 AtZEff=  -0.0000000  -0.0000000  -0.0000000  -0.0000000  -0.0000000  -0.0000000  -0.0000000  -0.0000000  -0.0000000  -0.0000000
 NQMom=    0.0000000   0.0000000   0.0000000   0.0000000   0.0000000   0.0000000   0.0000000   0.0000000   0.0000000   0.0000000
 NMagM=    0.0000000   0.0000000   0.0000000   0.0000000   0.0000000   0.0000000   0.0000000   0.0000000   0.0000000   0.0000000
 AtZNuc=   6.0000000   8.0000000   6.0000000   6.0000000   8.0000000   6.0000000   6.0000000   8.0000000   6.0000000   6.0000000

  Atom        61          62          63          64          65          66          67          68          69          70
 IAtWgt=          16          12          12          12          19          19           1           1           1           1
 AtmWgt=  15.9949146  12.0000000  12.0000000  12.0000000  18.9984033  18.9984033   1.0078250   1.0078250   1.0078250   1.0078250
 NucSpn=           0           0           0           0           1           1           1           1           1           1
 AtZEff=  -0.0000000  -0.0000000  -0.0000000  -0.0000000  -0.0000000  -0.0000000  -0.0000000  -0.0000000  -0.0000000  -0.0000000
 NQMom=    0.0000000   0.0000000   0.0000000   0.0000000   0.0000000   0.0000000   0.0000000   0.0000000   0.0000000   0.0000000
 NMagM=    0.0000000   0.0000000   0.0000000   0.0000000   2.6288670   2.6288670   2.7928460   2.7928460   2.7928460   2.7928460
 AtZNuc=   8.0000000   6.0000000   6.0000000   6.0000000   9.0000000   9.0000000   1.0000000   1.0000000   1.0000000   1.0000000

  Atom        71          72          73          74          75          76          77          78          79          80
 IAtWgt=           1           1           1           1           1           1           1           1           1           1
 AtmWgt=   1.0078250   1.0078250   1.0078250   1.0078250   1.0078250   1.0078250   1.0078250   1.0078250   1.0078250   1.0078250
 NucSpn=           1           1           1           1           1           1           1           1           1           1
 AtZEff=  -0.0000000  -0.0000000  -0.0000000  -0.0000000  -0.0000000  -0.0000000  -0.0000000  -0.0000000  -0.0000000  -0.0000000
 NQMom=    0.0000000   0.0000000   0.0000000   0.0000000   0.0000000   0.0000000   0.0000000   0.0000000   0.0000000   0.0000000
 NMagM=    2.7928460   2.7928460   2.7928460   2.7928460   2.7928460   2.7928460   2.7928460   2.7928460   2.7928460   2.7928460
 AtZNuc=   1.0000000   1.0000000   1.0000000   1.0000000   1.0000000   1.0000000   1.0000000   1.0000000   1.0000000   1.0000000

  Atom        81          82          83          84          85          86          87          88          89          90
 IAtWgt=           1           1           1           1           1           1           1           1           1           1
 AtmWgt=   1.0078250   1.0078250   1.0078250   1.0078250   1.0078250   1.0078250   1.0078250   1.0078250   1.0078250   1.0078250
 NucSpn=           1           1           1           1           1           1           1           1           1           1
 AtZEff=  -0.0000000  -0.0000000  -0.0000000  -0.0000000  -0.0000000  -0.0000000  -0.0000000  -0.0000000  -0.0000000  -0.0000000
 NQMom=    0.0000000   0.0000000   0.0000000   0.0000000   0.0000000   0.0000000   0.0000000   0.0000000   0.0000000   0.0000000
 NMagM=    2.7928460   2.7928460   2.7928460   2.7928460   2.7928460   2.7928460   2.7928460   2.7928460   2.7928460   2.7928460
 AtZNuc=   1.0000000   1.0000000   1.0000000   1.0000000   1.0000000   1.0000000   1.0000000   1.0000000   1.0000000   1.0000000

  Atom        91          92          93          94          95          96          97          98          99         100
 IAtWgt=           1           1           1           1           1           1           1           1           1           1
 AtmWgt=   1.0078250   1.0078250   1.0078250   1.0078250   1.0078250   1.0078250   1.0078250   1.0078250   1.0078250   1.0078250
 NucSpn=           1           1           1           1           1           1           1           1           1           1
 AtZEff=  -0.0000000  -0.0000000  -0.0000000  -0.0000000  -0.0000000  -0.0000000  -0.0000000  -0.0000000  -0.0000000  -0.0000000
 NQMom=    0.0000000   0.0000000   0.0000000   0.0000000   0.0000000   0.0000000   0.0000000   0.0000000   0.0000000   0.0000000
 NMagM=    2.7928460   2.7928460   2.7928460   2.7928460   2.7928460   2.7928460   2.7928460   2.7928460   2.7928460   2.7928460
 AtZNuc=   1.0000000   1.0000000   1.0000000   1.0000000   1.0000000   1.0000000   1.0000000   1.0000000   1.0000000   1.0000000

  Atom       101         102         103         104         105         106         107         108         109         110
 IAtWgt=           1           1           1           1           1           1           1           1           1           1
 AtmWgt=   1.0078250   1.0078250   1.0078250   1.0078250   1.0078250   1.0078250   1.0078250   1.0078250   1.0078250   1.0078250
 NucSpn=           1           1           1           1           1           1           1           1           1           1
 AtZEff=  -0.0000000  -0.0000000  -0.0000000  -0.0000000  -0.0000000  -0.0000000  -0.0000000  -0.0000000  -0.0000000  -0.0000000
 NQMom=    0.0000000   0.0000000   0.0000000   0.0000000   0.0000000   0.0000000   0.0000000   0.0000000   0.0000000   0.0000000
 NMagM=    2.7928460   2.7928460   2.7928460   2.7928460   2.7928460   2.7928460   2.7928460   2.7928460   2.7928460   2.7928460
 AtZNuc=   1.0000000   1.0000000   1.0000000   1.0000000   1.0000000   1.0000000   1.0000000   1.0000000   1.0000000   1.0000000

  Atom       111         112         113         114         115         116         117         118         119         120
 IAtWgt=           1           1           1           1           1           1           1           1           1           1
 AtmWgt=   1.0078250   1.0078250   1.0078250   1.0078250   1.0078250   1.0078250   1.0078250   1.0078250   1.0078250   1.0078250
 NucSpn=           1           1           1           1           1           1           1           1           1           1
 AtZEff=  -0.0000000  -0.0000000  -0.0000000  -0.0000000  -0.0000000  -0.0000000  -0.0000000  -0.0000000  -0.0000000  -0.0000000
 NQMom=    0.0000000   0.0000000   0.0000000   0.0000000   0.0000000   0.0000000   0.0000000   0.0000000   0.0000000   0.0000000
 NMagM=    2.7928460   2.7928460   2.7928460   2.7928460   2.7928460   2.7928460   2.7928460   2.7928460   2.7928460   2.7928460
 AtZNuc=   1.0000000   1.0000000   1.0000000   1.0000000   1.0000000   1.0000000   1.0000000   1.0000000   1.0000000   1.0000000

  Atom       121         122
 IAtWgt=           1           1
 AtmWgt=   1.0078250   1.0078250
 NucSpn=           1           1
 AtZEff=  -0.0000000  -0.0000000
 NQMom=    0.0000000   0.0000000
 NMagM=    2.7928460   2.7928460
 AtZNuc=   1.0000000   1.0000000
 Leave Link  101 at Wed Nov  5 22:59:25 2025, MaxMem= 30870077440 cpu:               5.0 elap:               0.1
 (Enter /public/software/gauss/g16/l202.exe)
 Stoichiometry    C49H56BF2N3O11
 Framework group  C1[X(C49H56BF2N3O11)]
 Deg. of freedom   360
 Full point group                 C1      NOp   1
 Largest Abelian subgroup         C1      NOp   1
 Largest concise Abelian subgroup C1      NOp   1
                         Standard orientation:                         
 ---------------------------------------------------------------------
 Center     Atomic      Atomic             Coordinates (Angstroms)
 Number     Number       Type             X           Y           Z
 ---------------------------------------------------------------------
      1          5           0        2.927316   -0.447122   -0.257043
      2          7           0        3.926002    0.697180   -0.565615
      3          6           0        3.592885    1.977152   -0.902447
      4          6           0        4.783679    2.672835   -1.244472
      5          6           0        5.856161    1.811716   -1.103888
      6          6           0        5.307827    0.555692   -0.665403
      7          6           0        5.907630   -0.672306   -0.362716
      8          6           0        7.422085   -0.758286   -0.348812
      9          8           0        8.035559   -1.131159   -1.334385
     10          6           0        8.082868   -0.357732    0.963399
     11          6           0        9.587780   -0.302906    0.925471
     12          6           0       10.342209   -1.474445    0.749845
     13          6           0       11.730310   -1.430393    0.721087
     14          6           0       12.362264   -0.194229    0.870806
     15          6           0       11.643637    0.988049    1.047281
     16          6           0       10.254564    0.922099    1.071405
     17          7           0       13.818394   -0.138420    0.846197
     18          8           0       14.447547   -1.191433    0.691401
     19          8           0       14.370563    0.959559    0.981176
     20          6           0        5.145983   -1.806775   -0.039761
     21          7           0        3.745741   -1.738462    0.009156
     22          6           0        3.273952   -2.971402    0.377942
     23          6           0        4.383055   -3.834271    0.563582
     24          6           0        5.549612   -3.142198    0.296329
     25          6           0        6.923467   -3.740777    0.329652
     26          6           0        1.919495   -3.423165    0.576760
     27          6           0        0.745162   -2.831116    0.236152
     28          6           0       -0.587678   -3.364608    0.481957
     29          6           0       -0.848253   -4.570738    1.174130
     30          6           0       -2.142914   -5.017141    1.373130
     31          6           0       -3.235104   -4.273510    0.888807
     32          8           0       -4.469425   -4.799087    1.142845
     33          6           0       -5.626819   -4.091394    0.669112
     34          6           0       -6.856183   -4.871793    1.097696
     35          8           0       -6.921557   -6.195954    0.579810
     36          6           0       -7.170792   -6.268767   -0.825962
     37          6           0       -7.586936   -7.689078   -1.161238
     38          8           0       -8.833392   -8.043903   -0.553038
     39          6           0       -9.936802   -8.179412   -1.449157
     40          6           0      -10.419560   -6.865447   -2.058176
     41          8           0      -10.698485   -5.841566   -1.105873
     42          6           0      -11.840827   -6.098025   -0.294813
     43          6           0       -3.006800   -3.075173    0.200835
     44          6           0       -1.697689   -2.639377    0.008495
     45          6           0        7.283003    2.157968   -1.402045
     46          6           0        2.239507    2.462955   -0.862348
     47          6           0        1.873401    3.692994   -1.307604
     48          6           0        0.537233    4.266860   -1.288209
     49          6           0        0.345764    5.557438   -1.816853
     50          6           0       -0.903251    6.173855   -1.832277
     51          6           0       -2.008556    5.493909   -1.304820
     52          8           0       -3.278237    5.992607   -1.263668
     53          6           0       -3.517531    7.305754   -1.797732
     54          6           0       -4.986396    7.615439   -1.636377
     55          8           0       -5.277088    7.758132   -0.246635
     56          6           0       -6.623475    8.146559    0.025853
     57          6           0       -7.588535    6.958676   -0.004566
     58          8           0       -8.914938    7.392030    0.314986
     59          6           0       -9.230564    7.364790    1.708562
     60          6           0       -9.831054    6.017475    2.095291
     61          8           0      -10.150638    6.066825    3.480076
     62          6           0      -10.742739    4.858446    3.938483
     63          6           0       -1.843140    4.202445   -0.770407
     64          6           0       -0.596565    3.602625   -0.763388
     65          9           0        2.146927   -0.118986    0.859732
     66          9           0        2.083681   -0.621071   -1.370354
     67          1           0        4.839194    3.707247   -1.553819
     68          1           0        7.655960    0.602170    1.271969
     69          1           0        7.735139   -1.084321    1.710486
     70          1           0        9.838152   -2.428909    0.641505
     71          1           0       12.316841   -2.330440    0.588867
     72          1           0       12.161952    1.931047    1.163957
     73          1           0        9.680374    1.832279    1.211764
     74          1           0        4.305557   -4.876357    0.844141
     75          1           0        7.559553   -3.285785    1.096471
     76          1           0        6.850531   -4.807232    0.556232
     77          1           0        7.438163   -3.633024   -0.629303
     78          1           0        1.890178   -4.404195    1.044766
     79          1           0        0.762577   -1.886409   -0.293209
     80          1           0       -0.028494   -5.164775    1.565029
     81          1           0       -2.338162   -5.942303    1.906039
     82          1           0       -5.668915   -3.089514    1.113556
     83          1           0       -5.575803   -3.984271   -0.420081
     84          1           0       -6.859306   -4.976387    2.186945
     85          1           0       -7.744813   -4.294122    0.803947
     86          1           0       -7.959930   -5.558101   -1.103763
     87          1           0       -6.266781   -6.020343   -1.400706
     88          1           0       -7.630645   -7.805145   -2.250645
     89          1           0       -6.826969   -8.382855   -0.780774
     90          1           0       -9.689762   -8.865175   -2.273340
     91          1           0      -10.731500   -8.645717   -0.859427
     92          1           0       -9.652856   -6.448589   -2.718218
     93          1           0      -11.310344   -7.079718   -2.669419
     94          1           0      -12.040645   -5.184573    0.271010
     95          1           0      -12.720799   -6.336747   -0.908481
     96          1           0      -11.674187   -6.918314    0.414726
     97          1           0       -3.829000   -2.482530   -0.180443
     98          1           0       -1.528146   -1.707850   -0.524552
     99          1           0        7.916493    2.121646   -0.509291
    100          1           0        7.720376    1.477639   -2.138903
    101          1           0        7.338839    3.172722   -1.803313
    102          1           0        1.499019    1.794287   -0.438936
    103          1           0        2.638300    4.339091   -1.734173
    104          1           0        1.199667    6.090200   -2.226301
    105          1           0       -1.003539    7.168204   -2.249299
    106          1           0       -2.910478    8.043728   -1.260812
    107          1           0       -3.254145    7.334174   -2.861283
    108          1           0       -5.204292    8.551227   -2.171116
    109          1           0       -5.585818    6.816622   -2.092294
    110          1           0       -6.617538    8.589327    1.027013
    111          1           0       -6.957298    8.915661   -0.684438
    112          1           0       -7.636184    6.523111   -1.007087
    113          1           0       -7.244537    6.179545    0.686723
    114          1           0       -8.346752    7.574101    2.323529
    115          1           0       -9.962003    8.159341    1.888479
    116          1           0      -10.732915    5.826395    1.493886
    117          1           0       -9.115768    5.205299    1.892664
    118          1           0      -10.956243    4.982853    5.002955
    119          1           0      -11.681220    4.643606    3.407798
    120          1           0      -10.064848    4.002988    3.807157
    121          1           0       -2.710730    3.691088   -0.365917
    122          1           0       -0.499997    2.606138   -0.344739
 ---------------------------------------------------------------------
 Rotational constants (GHZ):           0.0244985           0.0101630           0.0074802
 Leave Link  202 at Wed Nov  5 22:59:25 2025, MaxMem= 30870077440 cpu:               0.2 elap:               0.0
 (Enter /public/software/gauss/g16/l301.exe)
 Standard basis: def2TZVPP (5D, 7F)
 Ernie: Thresh=  0.10000D-02 Tol=  0.10000D-05 Strict=F.
 There are  3216 symmetry adapted cartesian basis functions of A   symmetry.
 There are  2830 symmetry adapted basis functions of A   symmetry.
  2830 basis functions,  4318 primitive gaussians,  3216 cartesian basis functions
   241 alpha electrons      241 beta electrons
       nuclear repulsion energy      8622.8134417120 Hartrees.
 IExCor= 4336 DFT=T Ex+Corr=M062X ExCW=0 ScaHFX=  0.540000
 ScaDFX=  1.000000  1.000000  1.000000  1.000000 ScalE2=  1.000000  1.000000
 IRadAn=      5 IRanWt=     -1 IRanGd=            0 ICorTp=0 IEmpDi=131
 NAtoms=  122 NActive=  122 NUniq=  122 SFac= 1.00D+00 NAtFMM=   60 NAOKFM=T Big=T
 Integral buffers will be    131072 words long.
 Raffenetti 2 integral format.
 Two-electron integral symmetry is turned on.
 R6Disp:  Grimme-D3 Dispersion energy=       -0.0093045997 Hartrees.
 Nuclear repulsion after empirical dispersion term =     8622.8041371123 Hartrees.
 ------------------------------------------------------------------------------
 Polarizable Continuum Model (PCM)
 =================================
 Model                : PCM.
 Atomic radii         : UFF (Universal Force Field).
 Polarization charges : Total charges.
 Charge compensation  : None.
 Solution method      : On-the-fly selection.
 Cavity type          : Scaled VdW (van der Waals Surface) (Alpha=1.100).
 Cavity algorithm     : GePol (No added spheres)
                        Default sphere list used, NSphG=  122.
                        Lebedev-Laikov grids with approx.  5.0 points / Ang**2.
                        Smoothing algorithm: York/Karplus (Gamma=1.0000).
                        Polarization charges: spherical gaussians, with
                                              point-specific exponents (IZeta= 3).
                        Self-potential: point-specific (ISelfS= 7).
                        Self-field    : sphere-specific E.n sum rule (ISelfD= 2).
 Solvent              : Water, Eps=  78.355300 Eps(inf)=   1.777849
 ------------------------------------------------------------------------------
 GePol: Number of generator spheres                  =     122
 GePol: Total number of spheres                      =     122
 GePol: Number of exposed spheres                    =     122 (100.00%)
 GePol: Number of points                             =    8581
 GePol: Average weight of points                     =       0.13
 GePol: Minimum weight of points                     =   0.10D-11
 GePol: Maximum weight of points                     =    0.20577
 GePol: Number of points with low weight             =     609
 GePol: Fraction of low-weight points (<1% of avg)   =       7.10%
 GePol: Cavity surface area                          =   1089.234 Ang**2
 GePol: Cavity volume                                =   1238.888 Ang**3
 Leave Link  301 at Wed Nov  5 22:59:25 2025, MaxMem= 30870077440 cpu:               4.5 elap:               0.1
 (Enter /public/software/gauss/g16/l302.exe)
 NPDir=0 NMtPBC=     1 NCelOv=     1 NCel=       1 NClECP=     1 NCelD=      1
         NCelK=      1 NCelE2=     1 NClLst=     1 CellRange=     0.0.
 One-electron integrals computed using PRISM.
 One-electron integral symmetry used in STVInt
   1 Symmetry operations used in ECPInt.
 ECPInt:  NShTT=  564453 NPrTT= 1565416 LenC2=  229582 LenP2D=  424464.
 LDataN:  DoStor=T MaxTD1= 6 Len=  172
 Number of processors reduced to  59 by ecpmxn.
 NBasis=  2830 RedAO= T EigKep=  4.31D-06  NBF=  2830
 NBsUse=  2830 1.00D-06 EigRej= -1.00D+00 NBFU=  2830
 Precomputing XC quadrature grid using
 IXCGrd= 4 IRadAn=           5 IRanWt=          -1 IRanGd=           0 AccXCQ= 0.00D+00.
 Generated NRdTot=       0 NPtTot=           0 NUsed=           0 NTot=          32
 NSgBfM=  2434  2434  2434  2434  2434 MxSgAt=   122 MxSgA2=   122.
 Leave Link  302 at Wed Nov  5 22:59:53 2025, MaxMem= 30870077440 cpu:            1799.8 elap:              28.2
 (Enter /public/software/gauss/g16/l303.exe)
 DipDrv:  MaxL=1.
 Leave Link  303 at Wed Nov  5 22:59:54 2025, MaxMem= 30870077440 cpu:              54.5 elap:               0.9
 (Enter /public/software/gauss/g16/l401.exe)
 ExpMin= 6.06D-02 ExpMax= 3.55D+04 ExpMxC= 1.21D+03 IAcc=3 IRadAn=         5 AccDes= 0.00D+00
 Harris functional with IExCor= 1009 and IRadAn=       5 diagonalized for initial guess.
 HarFok:  IExCor= 1009 AccDes= 0.00D+00 IRadAn=         5 IDoV= 1 UseB2=F ITyADJ=14
 ICtDFT=  3500011 ScaDFX=  1.000000  1.000000  1.000000  1.000000
 FoFCou: FMM=F IPFlag=           0 FMFlag=      100000 FMFlg1=        2001
         NFxFlg=           0 DoJE=T BraDBF=F KetDBF=T FulRan=T
         wScrn=  0.000000 ICntrl=       500 IOpCl=  0 I1Cent=   200000004 NGrid=           0
         NMat0=    1 NMatS0=      1 NMatT0=    0 NMatD0=    1 NMtDS0=    0 NMtDT0=    0
 Petite list used in FoFCou.
 Harris En= -3115.58097565479    
 JPrj=0 DoOrth=F DoCkMO=F.
 Leave Link  401 at Wed Nov  5 23:00:18 2025, MaxMem= 30870077440 cpu:            1499.7 elap:              23.6
 (Enter /public/software/gauss/g16/l502.exe)
 Integral symmetry usage will be decided dynamically.
 Closed shell SCF:
 Using DIIS extrapolation, IDIIS=  1040.
 NGot= 30870077440 LenX= 30849159162 LenY= 30838813290
 Requested convergence on RMS density matrix=1.00D-08 within 128 cycles.
 Requested convergence on MAX density matrix=1.00D-06.
 Requested convergence on             energy=1.00D-06.
 No special actions if energy rises.
 Fock matrices will be formed incrementally for  20 cycles.

 Cycle   1  Pass 1  IDiag  1:
 FoFJK:  IHMeth= 1 ICntrl=       0 DoSepK=F KAlg= 0 I1Cent=           0 FoldK=F
 IRaf= 360000000 NMat=       1 IRICut=       1 DoRegI=T DoRafI=F ISym2E= 0 IDoP0=0 IntGTp=1.
 FoFCou: FMM=T IPFlag=           0 FMFlag=      100000 FMFlg1=        2001
         NFxFlg=           0 DoJE=F BraDBF=F KetDBF=F FulRan=T
         wScrn=  0.000000 ICntrl=         0 IOpCl=  0 I1Cent=           0 NGrid=           0
         NMat0=    1 NMatS0=      1 NMatT0=    0 NMatD0=    1 NMtDS0=    0 NMtDT0=    0
 Symmetry not used in FoFCou.
 FMM levels:  10  Number of levels for PrismC:   9
 Inv3:  Mode=1 IEnd=   220900683.
 Iteration    1 A*A^-1 deviation from unit magnitude is 1.82D-14 for    237.
 Iteration    1 A*A^-1 deviation from orthogonality  is 8.04D-15 for   8569   5080.
 Iteration    1 A^-1*A deviation from unit magnitude is 1.75D-14 for    237.
 Iteration    1 A^-1*A deviation from orthogonality  is 1.15D-13 for   5808   5782.
 E= -3115.69604125370    
 DIIS: error= 1.76D-02 at cycle   1 NSaved=   1.
 NSaved= 1 IEnMin= 1 EnMin= -3115.69604125370     IErMin= 1 ErrMin= 1.76D-02
 ErrMax= 1.76D-02  0.00D+00 EMaxC= 1.00D-01 BMatC= 1.98D+00 BMatP= 1.98D+00
 IDIUse=3 WtCom= 8.24D-01 WtEn= 1.76D-01
 Coeff-Com:  0.100D+01
 Coeff-En:   0.100D+01
 Coeff:      0.100D+01
 Gap=     0.119 Goal=   None    Shift=    0.000
 GapD=    0.119 DampG=1.000 DampE=0.500 DampFc=0.5000 IDamp=-1.
 Damping current iteration by 5.00D-01
 RMSDP=1.58D-03 MaxDP=7.07D-01              OVMax= 2.61D-01

 Cycle   2  Pass 1  IDiag  1:
 RMSU=  7.85D-04    CP:  1.02D+00
 E= -3116.42573818600     Delta-E=       -0.729696932296 Rises=F Damp=T
 DIIS: error= 5.99D-03 at cycle   2 NSaved=   2.
 NSaved= 2 IEnMin= 2 EnMin= -3116.42573818600     IErMin= 2 ErrMin= 5.99D-03
 ErrMax= 5.99D-03  0.00D+00 EMaxC= 1.00D-01 BMatC= 2.08D-01 BMatP= 1.98D+00
 IDIUse=3 WtCom= 9.40D-01 WtEn= 5.99D-02
 Coeff-Com: -0.106D+00 0.111D+01
 Coeff-En:   0.000D+00 0.100D+01
 Coeff:     -0.100D+00 0.110D+01
 Gap=     0.178 Goal=   None    Shift=    0.000
 RMSDP=4.57D-04 MaxDP=1.07D-01 DE=-7.30D-01 OVMax= 2.21D-01

 Cycle   3  Pass 1  IDiag  1:
 RMSU=  4.53D-04    CP:  1.00D+00  1.01D+00
 E= -3117.07489395587     Delta-E=       -0.649155769872 Rises=F Damp=F
 DIIS: error= 1.04D-02 at cycle   3 NSaved=   3.
 NSaved= 3 IEnMin= 3 EnMin= -3117.07489395587     IErMin= 2 ErrMin= 5.99D-03
 ErrMax= 1.04D-02  0.00D+00 EMaxC= 1.00D-01 BMatC= 1.19D-01 BMatP= 2.08D-01
 IDIUse=3 WtCom= 8.96D-01 WtEn= 1.04D-01
 Coeff-Com: -0.134D+00 0.517D+00 0.617D+00
 Coeff-En:   0.000D+00 0.000D+00 0.100D+01
 Coeff:     -0.120D+00 0.463D+00 0.657D+00
 Gap=     0.128 Goal=   None    Shift=    0.000
 RMSDP=1.76D-04 MaxDP=6.09D-02 DE=-6.49D-01 OVMax= 9.15D-02

 Cycle   4  Pass 1  IDiag  1:
 RMSU=  1.50D-04    CP:  1.01D+00  1.10D+00  8.61D-01
 E= -3117.14786593619     Delta-E=       -0.072971980317 Rises=F Damp=F
 DIIS: error= 4.01D-03 at cycle   4 NSaved=   4.
 NSaved= 4 IEnMin= 4 EnMin= -3117.14786593619     IErMin= 4 ErrMin= 4.01D-03
 ErrMax= 4.01D-03  0.00D+00 EMaxC= 1.00D-01 BMatC= 2.41D-02 BMatP= 1.19D-01
 IDIUse=3 WtCom= 9.60D-01 WtEn= 4.01D-02
 Coeff-Com: -0.403D-01 0.104D+00 0.351D+00 0.586D+00
 Coeff-En:   0.000D+00 0.000D+00 0.170D+00 0.830D+00
 Coeff:     -0.387D-01 0.999D-01 0.343D+00 0.595D+00
 Gap=     0.130 Goal=   None    Shift=    0.000
 RMSDP=7.93D-05 MaxDP=2.79D-02 DE=-7.30D-02 OVMax= 2.36D-02

 Cycle   5  Pass 1  IDiag  1:
 RMSU=  3.81D-05    CP:  1.00D+00  1.06D+00  9.28D-01  6.26D-01
 E= -3117.16637414209     Delta-E=       -0.018508205903 Rises=F Damp=F
 DIIS: error= 3.54D-04 at cycle   5 NSaved=   5.
 NSaved= 5 IEnMin= 5 EnMin= -3117.16637414209     IErMin= 5 ErrMin= 3.54D-04
 ErrMax= 3.54D-04  0.00D+00 EMaxC= 1.00D-01 BMatC= 8.08D-04 BMatP= 2.41D-02
 IDIUse=3 WtCom= 9.96D-01 WtEn= 3.54D-03
 Coeff-Com: -0.114D-01 0.227D-01 0.130D+00 0.276D+00 0.582D+00
 Coeff-En:   0.000D+00 0.000D+00 0.000D+00 0.000D+00 0.100D+01
 Coeff:     -0.114D-01 0.227D-01 0.130D+00 0.275D+00 0.583D+00
 Gap=     0.130 Goal=   None    Shift=    0.000
 RMSDP=2.07D-05 MaxDP=9.11D-03 DE=-1.85D-02 OVMax= 5.41D-03

 Cycle   6  Pass 1  IDiag  1:
 RMSU=  1.29D-05    CP:  1.00D+00  1.08D+00  9.16D-01  6.68D-01  8.10D-01
 E= -3117.16698982189     Delta-E=       -0.000615679797 Rises=F Damp=F
 DIIS: error= 1.72D-04 at cycle   6 NSaved=   6.
 NSaved= 6 IEnMin= 6 EnMin= -3117.16698982189     IErMin= 6 ErrMin= 1.72D-04
 ErrMax= 1.72D-04  0.00D+00 EMaxC= 1.00D-01 BMatC= 9.78D-05 BMatP= 8.08D-04
 IDIUse=3 WtCom= 9.98D-01 WtEn= 1.72D-03
 EnCoef did     1 forward-backward iterations
 Coeff-Com: -0.115D-02 0.540D-04 0.269D-01 0.716D-01 0.295D+00 0.608D+00
 Coeff-En:   0.000D+00 0.000D+00 0.000D+00 0.000D+00 0.121D-03 0.100D+01
 Coeff:     -0.115D-02 0.539D-04 0.269D-01 0.715D-01 0.294D+00 0.609D+00
 Gap=     0.131 Goal=   None    Shift=    0.000
 RMSDP=5.93D-06 MaxDP=2.51D-03 DE=-6.16D-04 OVMax= 3.31D-03

 Cycle   7  Pass 1  IDiag  1:
 RMSU=  3.76D-06    CP:  1.00D+00  1.07D+00  9.20D-01  6.57D-01  8.69D-01
                    CP:  9.47D-01
 E= -3117.16707374051     Delta-E=       -0.000083918620 Rises=F Damp=F
 DIIS: error= 5.87D-05 at cycle   7 NSaved=   7.
 NSaved= 7 IEnMin= 7 EnMin= -3117.16707374051     IErMin= 7 ErrMin= 5.87D-05
 ErrMax= 5.87D-05  0.00D+00 EMaxC= 1.00D-01 BMatC= 9.09D-06 BMatP= 9.78D-05
 IDIUse=1 WtCom= 1.00D+00 WtEn= 0.00D+00
 Coeff-Com:  0.110D-02-0.310D-02-0.634D-02-0.788D-02 0.505D-01 0.260D+00
 Coeff-Com:  0.706D+00
 Coeff:      0.110D-02-0.310D-02-0.634D-02-0.788D-02 0.505D-01 0.260D+00
 Coeff:      0.706D+00
 Gap=     0.131 Goal=   None    Shift=    0.000
 RMSDP=2.86D-06 MaxDP=6.61D-04 DE=-8.39D-05 OVMax= 1.22D-03

 Cycle   8  Pass 1  IDiag  1:
 RMSU=  2.13D-06    CP:  1.00D+00  1.07D+00  9.21D-01  6.60D-01  9.04D-01
                    CP:  1.03D+00  9.75D-01
 E= -3117.16708440329     Delta-E=       -0.000010662785 Rises=F Damp=F
 DIIS: error= 1.46D-05 at cycle   8 NSaved=   8.
 NSaved= 8 IEnMin= 8 EnMin= -3117.16708440329     IErMin= 8 ErrMin= 1.46D-05
 ErrMax= 1.46D-05  0.00D+00 EMaxC= 1.00D-01 BMatC= 1.34D-06 BMatP= 9.09D-06
 IDIUse=1 WtCom= 1.00D+00 WtEn= 0.00D+00
 Coeff-Com:  0.656D-03-0.136D-02-0.688D-02-0.149D-01-0.225D-01 0.122D-01
 Coeff-Com:  0.298D+00 0.735D+00
 Coeff:      0.656D-03-0.136D-02-0.688D-02-0.149D-01-0.225D-01 0.122D-01
 Coeff:      0.298D+00 0.735D+00
 Gap=     0.131 Goal=   None    Shift=    0.000
 RMSDP=1.43D-06 MaxDP=4.50D-04 DE=-1.07D-05 OVMax= 8.85D-04

 Cycle   9  Pass 1  IDiag  1:
 RMSU=  7.31D-07    CP:  1.00D+00  1.07D+00  9.22D-01  6.59D-01  9.22D-01
                    CP:  1.06D+00  1.08D+00  1.22D+00
 E= -3117.16708647255     Delta-E=       -0.000002069255 Rises=F Damp=F
 DIIS: error= 4.90D-06 at cycle   9 NSaved=   9.
 NSaved= 9 IEnMin= 9 EnMin= -3117.16708647255     IErMin= 9 ErrMin= 4.90D-06
 ErrMax= 4.90D-06  0.00D+00 EMaxC= 1.00D-01 BMatC= 1.40D-07 BMatP= 1.34D-06
 IDIUse=1 WtCom= 1.00D+00 WtEn= 0.00D+00
 Coeff-Com:  0.867D-04-0.103D-03-0.154D-02-0.420D-02-0.130D-01-0.260D-01
 Coeff-Com:  0.160D-01 0.246D+00 0.782D+00
 Coeff:      0.867D-04-0.103D-03-0.154D-02-0.420D-02-0.130D-01-0.260D-01
 Coeff:      0.160D-01 0.246D+00 0.782D+00
 Gap=     0.131 Goal=   None    Shift=    0.000
 RMSDP=4.39D-07 MaxDP=9.42D-05 DE=-2.07D-06 OVMax= 4.39D-04

 Cycle  10  Pass 1  IDiag  1:
 RMSU=  2.61D-07    CP:  1.00D+00  1.07D+00  9.22D-01  6.59D-01  9.26D-01
                    CP:  1.07D+00  1.12D+00  1.34D+00  1.11D+00
 E= -3117.16708676888     Delta-E=       -0.000000296337 Rises=F Damp=F
 DIIS: error= 1.85D-06 at cycle  10 NSaved=  10.
 NSaved=10 IEnMin=10 EnMin= -3117.16708676888     IErMin=10 ErrMin= 1.85D-06
 ErrMax= 1.85D-06  0.00D+00 EMaxC= 1.00D-01 BMatC= 3.27D-08 BMatP= 1.40D-07
 IDIUse=1 WtCom= 1.00D+00 WtEn= 0.00D+00
 Coeff-Com: -0.828D-04 0.204D-03 0.607D-03 0.979D-03-0.125D-02-0.118D-01
 Coeff-Com: -0.482D-01-0.349D-01 0.337D+00 0.758D+00
 Coeff:     -0.828D-04 0.204D-03 0.607D-03 0.979D-03-0.125D-02-0.118D-01
 Coeff:     -0.482D-01-0.349D-01 0.337D+00 0.758D+00
 Gap=     0.132 Goal=   None    Shift=    0.000
 RMSDP=3.35D-07 MaxDP=1.14D-04 DE=-2.96D-07 OVMax= 1.88D-04

 Cycle  11  Pass 1  IDiag  1:
 RMSU=  1.17D-07    CP:  1.00D+00  1.07D+00  9.22D-01  6.59D-01  9.29D-01
                    CP:  1.07D+00  1.13D+00  1.43D+00  1.28D+00  1.11D+00
 E= -3117.16708683204     Delta-E=       -0.000000063159 Rises=F Damp=F
 DIIS: error= 7.10D-07 at cycle  11 NSaved=  11.
 NSaved=11 IEnMin=11 EnMin= -3117.16708683204     IErMin=11 ErrMin= 7.10D-07
 ErrMax= 7.10D-07  0.00D+00 EMaxC= 1.00D-01 BMatC= 3.71D-09 BMatP= 3.27D-08
 IDIUse=1 WtCom= 1.00D+00 WtEn= 0.00D+00
 Coeff-Com: -0.424D-04 0.908D-04 0.439D-03 0.975D-03 0.120D-02-0.542D-03
 Coeff-Com: -0.211D-01-0.480D-01 0.261D-01 0.280D+00 0.761D+00
 Coeff:     -0.424D-04 0.908D-04 0.439D-03 0.975D-03 0.120D-02-0.542D-03
 Coeff:     -0.211D-01-0.480D-01 0.261D-01 0.280D+00 0.761D+00
 Gap=     0.132 Goal=   None    Shift=    0.000
 RMSDP=7.78D-08 MaxDP=1.95D-05 DE=-6.32D-08 OVMax= 6.75D-05

 Cycle  12  Pass 1  IDiag  1:
 RMSU=  4.18D-08    CP:  1.00D+00  1.07D+00  9.23D-01  6.59D-01  9.29D-01
                    CP:  1.07D+00  1.13D+00  1.44D+00  1.33D+00  1.24D+00
                    CP:  1.09D+00
 E= -3117.16708683947     Delta-E=       -0.000000007425 Rises=F Damp=F
 DIIS: error= 2.37D-07 at cycle  12 NSaved=  12.
 NSaved=12 IEnMin=12 EnMin= -3117.16708683947     IErMin=12 ErrMin= 2.37D-07
 ErrMax= 2.37D-07  0.00D+00 EMaxC= 1.00D-01 BMatC= 6.52D-10 BMatP= 3.71D-09
 IDIUse=1 WtCom= 1.00D+00 WtEn= 0.00D+00
 Coeff-Com: -0.615D-05 0.983D-05 0.962D-04 0.278D-03 0.573D-03 0.142D-02
 Coeff-Com: -0.245D-02-0.146D-01-0.338D-01 0.440D-02 0.299D+00 0.746D+00
 Coeff:     -0.615D-05 0.983D-05 0.962D-04 0.278D-03 0.573D-03 0.142D-02
 Coeff:     -0.245D-02-0.146D-01-0.338D-01 0.440D-02 0.299D+00 0.746D+00
 Gap=     0.132 Goal=   None    Shift=    0.000
 RMSDP=3.84D-08 MaxDP=9.39D-06 DE=-7.43D-09 OVMax= 2.61D-05

 Cycle  13  Pass 1  IDiag  1:
 RMSU=  1.43D-08    CP:  1.00D+00  1.07D+00  9.23D-01  6.59D-01  9.30D-01
                    CP:  1.07D+00  1.13D+00  1.45D+00  1.35D+00  1.28D+00
                    CP:  1.24D+00  1.22D+00
 E= -3117.16708684137     Delta-E=       -0.000000001904 Rises=F Damp=F
 DIIS: error= 1.40D-07 at cycle  13 NSaved=  13.
 NSaved=13 IEnMin=13 EnMin= -3117.16708684137     IErMin=13 ErrMin= 1.40D-07
 ErrMax= 1.40D-07  0.00D+00 EMaxC= 1.00D-01 BMatC= 1.23D-10 BMatP= 6.52D-10
 IDIUse=1 WtCom= 1.00D+00 WtEn= 0.00D+00
 Coeff-Com:  0.486D-05-0.117D-04-0.380D-04-0.485D-04 0.136D-04 0.761D-03
 Coeff-Com:  0.262D-02 0.237D-02-0.175D-01-0.470D-01-0.863D-02 0.301D+00
 Coeff-Com:  0.766D+00
 Coeff:      0.486D-05-0.117D-04-0.380D-04-0.485D-04 0.136D-04 0.761D-03
 Coeff:      0.262D-02 0.237D-02-0.175D-01-0.470D-01-0.863D-02 0.301D+00
 Coeff:      0.766D+00
 Gap=     0.132 Goal=   None    Shift=    0.000
 RMSDP=1.57D-08 MaxDP=6.73D-06 DE=-1.90D-09 OVMax= 1.65D-05

 Cycle  14  Pass 1  IDiag  1:
 RMSU=  8.85D-09    CP:  1.00D+00  1.07D+00  9.23D-01  6.59D-01  9.30D-01
                    CP:  1.07D+00  1.13D+00  1.45D+00  1.35D+00  1.30D+00
                    CP:  1.29D+00  1.41D+00  1.27D+00
 E= -3117.16708684138     Delta-E=       -0.000000000009 Rises=F Damp=F
 DIIS: error= 5.80D-08 at cycle  14 NSaved=  14.
 NSaved=14 IEnMin=14 EnMin= -3117.16708684138     IErMin=14 ErrMin= 5.80D-08
 ErrMax= 5.80D-08  0.00D+00 EMaxC= 1.00D-01 BMatC= 2.41D-11 BMatP= 1.23D-10
 IDIUse=1 WtCom= 1.00D+00 WtEn= 0.00D+00
 Coeff-Com:  0.235D-05-0.492D-05-0.284D-04-0.587D-04-0.100D-03 0.181D-04
 Coeff-Com:  0.124D-02 0.343D-02 0.339D-03-0.176D-01-0.588D-01-0.368D-01
 Coeff-Com:  0.284D+00 0.824D+00
 Coeff:      0.235D-05-0.492D-05-0.284D-04-0.587D-04-0.100D-03 0.181D-04
 Coeff:      0.124D-02 0.343D-02 0.339D-03-0.176D-01-0.588D-01-0.368D-01
 Coeff:      0.284D+00 0.824D+00
 Gap=     0.132 Goal=   None    Shift=    0.000
 RMSDP=8.79D-09 MaxDP=1.87D-06 DE=-9.09D-12 OVMax= 1.11D-05

 Cycle  15  Pass 1  IDiag  1:
 RMSU=  3.55D-09    CP:  1.00D+00  1.07D+00  9.23D-01  6.59D-01  9.30D-01
                    CP:  1.07D+00  1.13D+00  1.45D+00  1.35D+00  1.31D+00
                    CP:  1.31D+00  1.52D+00  1.55D+00  1.25D+00
 E= -3117.16708684150     Delta-E=       -0.000000000118 Rises=F Damp=F
 DIIS: error= 2.77D-08 at cycle  15 NSaved=  15.
 NSaved=15 IEnMin=15 EnMin= -3117.16708684150     IErMin=15 ErrMin= 2.77D-08
 ErrMax= 2.77D-08  0.00D+00 EMaxC= 1.00D-01 BMatC= 4.49D-12 BMatP= 2.41D-11
 IDIUse=1 WtCom= 1.00D+00 WtEn= 0.00D+00
 Coeff-Com: -0.415D-06 0.113D-05-0.365D-06-0.672D-05-0.361D-04-0.164D-03
 Coeff-Com: -0.237D-03 0.448D-03 0.409D-02 0.592D-02-0.138D-01-0.785D-01
 Coeff-Com: -0.971D-01 0.221D+00 0.958D+00
 Coeff:     -0.415D-06 0.113D-05-0.365D-06-0.672D-05-0.361D-04-0.164D-03
 Coeff:     -0.237D-03 0.448D-03 0.409D-02 0.592D-02-0.138D-01-0.785D-01
 Coeff:     -0.971D-01 0.221D+00 0.958D+00
 Gap=     0.132 Goal=   None    Shift=    0.000
 RMSDP=5.53D-09 MaxDP=2.26D-06 DE=-1.18D-10 OVMax= 7.50D-06

 Cycle  16  Pass 1  IDiag  1:
 RMSU=  1.29D-09    CP:  1.00D+00  1.07D+00  9.23D-01  6.59D-01  9.30D-01
                    CP:  1.07D+00  1.13D+00  1.45D+00  1.35D+00  1.31D+00
                    CP:  1.32D+00  1.57D+00  1.73D+00  1.57D+00  1.59D+00
 E= -3117.16708684171     Delta-E=       -0.000000000213 Rises=F Damp=F
 DIIS: error= 1.13D-08 at cycle  16 NSaved=  16.
 NSaved=16 IEnMin=16 EnMin= -3117.16708684171     IErMin=16 ErrMin= 1.13D-08
 ErrMax= 1.13D-08  0.00D+00 EMaxC= 1.00D-01 BMatC= 1.16D-12 BMatP= 4.49D-12
 IDIUse=1 WtCom= 1.00D+00 WtEn= 0.00D+00
 Coeff-Com: -0.633D-06 0.141D-05 0.643D-05 0.109D-04 0.124D-04-0.587D-04
 Coeff-Com: -0.359D-03-0.661D-03 0.120D-02 0.633D-02 0.972D-02-0.180D-01
 Coeff-Com: -0.109D+00-0.122D+00 0.353D+00 0.880D+00
 Coeff:     -0.633D-06 0.141D-05 0.643D-05 0.109D-04 0.124D-04-0.587D-04
 Coeff:     -0.359D-03-0.661D-03 0.120D-02 0.633D-02 0.972D-02-0.180D-01
 Coeff:     -0.109D+00-0.122D+00 0.353D+00 0.880D+00
 Gap=     0.132 Goal=   None    Shift=    0.000
 RMSDP=2.76D-09 MaxDP=9.25D-07 DE=-2.13D-10 OVMax= 3.87D-06

 Error on total polarization charges =  0.03064
 SCF Done:  E(RM062X) =  -3117.16708684     A.U. after   16 cycles
            NFock= 16  Conv=0.28D-08     -V/T= 2.0054
 KE= 3.100497539056D+03 PE=-2.452323878745D+04 EE= 9.682770024438D+03
 Leave Link  502 at Wed Nov  5 23:29:05 2025, MaxMem= 30870077440 cpu:          108145.6 elap:            1727.5
 (Enter /public/software/gauss/g16/l601.exe)
 Copying SCF densities to generalized density rwf, IOpCl= 0 IROHF=0.
 Hyperfine terms turned off by default for NAtoms > 100.

 **********************************************************************

            Population analysis using the SCF density.

 **********************************************************************

 Orbital symmetries:
       Occupied  (A) (A) (A) (A) (A) (A) (A) (A) (A) (A) (A) (A)
                 (A) (A) (A) (A) (A) (A) (A) (A) (A) (A) (A) (A)
                 (A) (A) (A) (A) (A) (A) (A) (A) (A) (A) (A) (A)
                 (A) (A) (A) (A) (A) (A) (A) (A) (A) (A) (A) (A)
                 (A) (A) (A) (A) (A) (A) (A) (A) (A) (A) (A) (A)
                 (A) (A) (A) (A) (A) (A) (A) (A) (A) (A) (A) (A)
                 (A) (A) (A) (A) (A) (A) (A) (A) (A) (A) (A) (A)
                 (A) (A) (A) (A) (A) (A) (A) (A) (A) (A) (A) (A)
                 (A) (A) (A) (A) (A) (A) (A) (A) (A) (A) (A) (A)
                 (A) (A) (A) (A) (A) (A) (A) (A) (A) (A) (A) (A)
                 (A) (A) (A) (A) (A) (A) (A) (A) (A) (A) (A) (A)
                 (A) (A) (A) (A) (A) (A) (A) (A) (A) (A) (A) (A)
                 (A) (A) (A) (A) (A) (A) (A) (A) (A) (A) (A) (A)
                 (A) (A) (A) (A) (A) (A) (A) (A) (A) (A) (A) (A)
                 (A) (A) (A) (A) (A) (A) (A) (A) (A) (A) (A) (A)
                 (A) (A) (A) (A) (A) (A) (A) (A) (A) (A) (A) (A)
                 (A) (A) (A) (A) (A) (A) (A) (A) (A) (A) (A) (A)
                 (A) (A) (A) (A) (A) (A) (A) (A) (A) (A) (A) (A)
                 (A) (A) (A) (A) (A) (A) (A) (A) (A) (A) (A) (A)
                 (A) (A) (A) (A) (A) (A) (A) (A) (A) (A) (A) (A)
                 (A)
       Virtual   (A) (A) (A) (A) (A) (A) (A) (A) (A) (A) (A) (A)
                 (A) (A) (A) (A) (A) (A) (A) (A) (A) (A) (A) (A)
                 (A) (A) (A) (A) (A) (A) (A) (A) (A) (A) (A) (A)
                 (A) (A) (A) (A) (A) (A) (A) (A) (A) (A) (A) (A)
                 (A) (A) (A) (A) (A) (A) (A) (A) (A) (A) (A) (A)
                 (A) (A) (A) (A) (A) (A) (A) (A) (A) (A) (A) (A)
                 (A) (A) (A) (A) (A) (A) (A) (A) (A) (A) (A) (A)
                 (A) (A) (A) (A) (A) (A) (A) (A) (A) (A) (A) (A)
                 (A) (A) (A) (A) (A) (A) (A) (A) (A) (A) (A) (A)
                 (A) (A) (A) (A) (A) (A) (A) (A) (A) (A) (A) (A)
                 (A) (A) (A) (A) (A) (A) (A) (A) (A) (A) (A) (A)
                 (A) (A) (A) (A) (A) (A) (A) (A) (A) (A) (A) (A)
                 (A) (A) (A) (A) (A) (A) (A) (A) (A) (A) (A) (A)
                 (A) (A) (A) (A) (A) (A) (A) (A) (A) (A) (A) (A)
                 (A) (A) (A) (A) (A) (A) (A) (A) (A) (A) (A) (A)
                 (A) (A) (A) (A) (A) (A) (A) (A) (A) (A) (A) (A)
                 (A) (A) (A) (A) (A) (A) (A) (A) (A) (A) (A) (A)
                 (A) (A) (A) (A) (A) (A) (A) (A) (A) (A) (A) (A)
                 (A) (A) (A) (A) (A) (A) (A) (A) (A) (A) (A) (A)
                 (A) (A) (A) (A) (A) (A) (A) (A) (A) (A) (A) (A)
                 (A) (A) (A) (A) (A) (A) (A) (A) (A) (A) (A) (A)
                 (A) (A) (A) (A) (A) (A) (A) (A) (A) (A) (A) (A)
                 (A) (A) (A) (A) (A) (A) (A) (A) (A) (A) (A) (A)
                 (A) (A) (A) (A) (A) (A) (A) (A) (A) (A) (A) (A)
                 (A) (A) (A) (A) (A) (A) (A) (A) (A) (A) (A) (A)
                 (A) (A) (A) (A) (A) (A) (A) (A) (A) (A) (A) (A)
                 (A) (A) (A) (A) (A) (A) (A) (A) (A) (A) (A) (A)
                 (A) (A) (A) (A) (A) (A) (A) (A) (A) (A) (A) (A)
                 (A) (A) (A) (A) (A) (A) (A) (A) (A) (A) (A) (A)
                 (A) (A) (A) (A) (A) (A) (A) (A) (A) (A) (A) (A)
                 (A) (A) (A) (A) (A) (A) (A) (A) (A) (A) (A) (A)
                 (A) (A) (A) (A) (A) (A) (A) (A) (A) (A) (A) (A)
                 (A) (A) (A) (A) (A) (A) (A) (A) (A) (A) (A) (A)
                 (A) (A) (A) (A) (A) (A) (A) (A) (A) (A) (A) (A)
                 (A) (A) (A) (A) (A) (A) (A) (A) (A) (A) (A) (A)
                 (A) (A) (A) (A) (A) (A) (A) (A) (A) (A) (A) (A)
                 (A) (A) (A) (A) (A) (A) (A) (A) (A) (A) (A) (A)
                 (A) (A) (A) (A) (A) (A) (A) (A) (A) (A) (A) (A)
                 (A) (A) (A) (A) (A) (A) (A) (A) (A) (A) (A) (A)
                 (A) (A) (A) (A) (A) (A) (A) (A) (A) (A) (A) (A)
                 (A) (A) (A) (A) (A) (A) (A) (A) (A) (A) (A) (A)
                 (A) (A) (A) (A) (A) (A) (A) (A) (A) (A) (A) (A)
                 (A) (A) (A) (A) (A) (A) (A) (A) (A) (A) (A) (A)
                 (A) (A) (A) (A) (A) (A) (A) (A) (A) (A) (A) (A)
                 (A) (A) (A) (A) (A) (A) (A) (A) (A) (A) (A) (A)
                 (A) (A) (A) (A) (A) (A) (A) (A) (A) (A) (A) (A)
                 (A) (A) (A) (A) (A) (A) (A) (A) (A) (A) (A) (A)
                 (A) (A) (A) (A) (A) (A) (A) (A) (A) (A) (A) (A)
                 (A) (A) (A) (A) (A) (A) (A) (A) (A) (A) (A) (A)
                 (A) (A) (A) (A) (A) (A) (A) (A) (A) (A) (A) (A)
                 (A) (A) (A) (A) (A) (A) (A) (A) (A) (A) (A) (A)
                 (A) (A) (A) (A) (A) (A) (A) (A) (A) (A) (A) (A)
                 (A) (A) (A) (A) (A) (A) (A) (A) (A) (A) (A) (A)
                 (A) (A) (A) (A) (A) (A) (A) (A) (A) (A) (A) (A)
                 (A) (A) (A) (A) (A) (A) (A) (A) (A) (A) (A) (A)
                 (A) (A) (A) (A) (A) (A) (A) (A) (A) (A) (A) (A)
                 (A) (A) (A) (A) (A) (A) (A) (A) (A) (A) (A) (A)
                 (A) (A) (A) (A) (A) (A) (A) (A) (A) (A) (A) (A)
                 (A) (A) (A) (A) (A) (A) (A) (A) (A) (A) (A) (A)
                 (A) (A) (A) (A) (A) (A) (A) (A) (A) (A) (A) (A)
                 (A) (A) (A) (A) (A) (A) (A) (A) (A) (A) (A) (A)
                 (A) (A) (A) (A) (A) (A) (A) (A) (A) (A) (A) (A)
                 (A) (A) (A) (A) (A) (A) (A) (A) (A) (A) (A) (A)
                 (A) (A) (A) (A) (A) (A) (A) (A) (A) (A) (A) (A)
                 (A) (A) (A) (A) (A) (A) (A) (A) (A) (A) (A) (A)
                 (A) (A) (A) (A) (A) (A) (A) (A) (A) (A) (A) (A)
                 (A) (A) (A) (A) (A) (A) (A) (A) (A) (A) (A) (A)
                 (A) (A) (A) (A) (A) (A) (A) (A) (A) (A) (A) (A)
                 (A) (A) (A) (A) (A) (A) (A) (A) (A) (A) (A) (A)
                 (A) (A) (A) (A) (A) (A) (A) (A) (A) (A) (A) (A)
                 (A) (A) (A) (A) (A) (A) (A) (A) (A) (A) (A) (A)
                 (A) (A) (A) (A) (A) (A) (A) (A) (A) (A) (A) (A)
                 (A) (A) (A) (A) (A) (A) (A) (A) (A) (A) (A) (A)
                 (A) (A) (A) (A) (A) (A) (A) (A) (A) (A) (A) (A)
                 (A) (A) (A) (A) (A) (A) (A) (A) (A) (A) (A) (A)
                 (A) (A) (A) (A) (A) (A) (A) (A) (A) (A) (A) (A)
                 (A) (A) (A) (A) (A) (A) (A) (A) (A) (A) (A) (A)
                 (A) (A) (A) (A) (A) (A) (A) (A) (A) (A) (A) (A)
                 (A) (A) (A) (A) (A) (A) (A) (A) (A) (A) (A) (A)
                 (A) (A) (A) (A) (A) (A) (A) (A) (A) (A) (A) (A)
                 (A) (A) (A) (A) (A) (A) (A) (A) (A) (A) (A) (A)
                 (A) (A) (A) (A) (A) (A) (A) (A) (A) (A) (A) (A)
                 (A) (A) (A) (A) (A) (A) (A) (A) (A) (A) (A) (A)
                 (A) (A) (A) (A) (A) (A) (A) (A) (A) (A) (A) (A)
                 (A) (A) (A) (A) (A) (A) (A) (A) (A) (A) (A) (A)
                 (A) (A) (A) (A) (A) (A) (A) (A) (A) (A) (A) (A)
                 (A) (A) (A) (A) (A) (A) (A) (A) (A) (A) (A) (A)
                 (A) (A) (A) (A) (A) (A) (A) (A) (A) (A) (A) (A)
                 (A) (A) (A) (A) (A) (A) (A) (A) (A) (A) (A) (A)
                 (A) (A) (A) (A) (A) (A) (A) (A) (A) (A) (A) (A)
                 (A) (A) (A) (A) (A) (A) (A) (A) (A) (A) (A) (A)
                 (A) (A) (A) (A) (A) (A) (A) (A) (A) (A) (A) (A)
                 (A) (A) (A) (A) (A) (A) (A) (A) (A) (A) (A) (A)
                 (A) (A) (A) (A) (A) (A) (A) (A) (A) (A) (A) (A)
                 (A) (A) (A) (A) (A) (A) (A) (A) (A) (A) (A) (A)
                 (A) (A) (A) (A) (A) (A) (A) (A) (A) (A) (A) (A)
                 (A) (A) (A) (A) (A) (A) (A) (A) (A) (A) (A) (A)
                 (A) (A) (A) (A) (A) (A) (A) (A) (A) (A) (A) (A)
                 (A) (A) (A) (A) (A) (A) (A) (A) (A) (A) (A) (A)
                 (A) (A) (A) (A) (A) (A) (A) (A) (A) (A) (A) (A)
                 (A) (A) (A) (A) (A) (A) (A) (A) (A) (A) (A) (A)
                 (A) (A) (A) (A) (A) (A) (A) (A) (A) (A) (A) (A)
                 (A) (A) (A) (A) (A) (A) (A) (A) (A) (A) (A) (A)
                 (A) (A) (A) (A) (A) (A) (A) (A) (A) (A) (A) (A)
                 (A) (A) (A) (A) (A) (A) (A) (A) (A) (A) (A) (A)
                 (A) (A) (A) (A) (A) (A) (A) (A) (A) (A) (A) (A)
                 (A) (A) (A) (A) (A) (A) (A) (A) (A) (A) (A) (A)
                 (A) (A) (A) (A) (A) (A) (A) (A) (A) (A) (A) (A)
                 (A) (A) (A) (A) (A) (A) (A) (A) (A) (A) (A) (A)
                 (A) (A) (A) (A) (A) (A) (A) (A) (A) (A) (A) (A)
                 (A) (A) (A) (A) (A) (A) (A) (A) (A) (A) (A) (A)
                 (A) (A) (A) (A) (A) (A) (A) (A) (A) (A) (A) (A)
                 (A) (A) (A) (A) (A) (A) (A) (A) (A) (A) (A) (A)
                 (A) (A) (A) (A) (A) (A) (A) (A) (A) (A) (A) (A)
                 (A) (A) (A) (A) (A) (A) (A) (A) (A) (A) (A) (A)
                 (A) (A) (A) (A) (A) (A) (A) (A) (A) (A) (A) (A)
                 (A) (A) (A) (A) (A) (A) (A) (A) (A) (A) (A) (A)
                 (A) (A) (A) (A) (A) (A) (A) (A) (A) (A) (A) (A)
                 (A) (A) (A) (A) (A) (A) (A) (A) (A) (A) (A) (A)
                 (A) (A) (A) (A) (A) (A) (A) (A) (A) (A) (A) (A)
                 (A) (A) (A) (A) (A) (A) (A) (A) (A) (A) (A) (A)
                 (A) (A) (A) (A) (A) (A) (A) (A) (A) (A) (A) (A)
                 (A) (A) (A) (A) (A) (A) (A) (A) (A) (A) (A) (A)
                 (A) (A) (A) (A) (A) (A) (A) (A) (A) (A) (A) (A)
                 (A) (A) (A) (A) (A) (A) (A) (A) (A) (A) (A) (A)
                 (A) (A) (A) (A) (A) (A) (A) (A) (A) (A) (A) (A)
                 (A) (A) (A) (A) (A) (A) (A) (A) (A) (A) (A) (A)
                 (A) (A) (A) (A) (A) (A) (A) (A) (A) (A) (A) (A)
                 (A) (A) (A) (A) (A) (A) (A) (A) (A) (A) (A) (A)
                 (A) (A) (A) (A) (A) (A) (A) (A) (A) (A) (A) (A)
                 (A) (A) (A) (A) (A) (A) (A) (A) (A) (A) (A) (A)
                 (A) (A) (A) (A) (A) (A) (A) (A) (A) (A) (A) (A)
                 (A) (A) (A) (A) (A) (A) (A) (A) (A) (A) (A) (A)
                 (A) (A) (A) (A) (A) (A) (A) (A) (A) (A) (A) (A)
                 (A) (A) (A) (A) (A) (A) (A) (A) (A) (A) (A) (A)
                 (A) (A) (A) (A) (A) (A) (A) (A) (A) (A) (A) (A)
                 (A) (A) (A) (A) (A) (A) (A) (A) (A) (A) (A) (A)
                 (A) (A) (A) (A) (A) (A) (A) (A) (A) (A) (A) (A)
                 (A) (A) (A) (A) (A) (A) (A) (A) (A) (A) (A) (A)
                 (A) (A) (A) (A) (A) (A) (A) (A) (A) (A) (A) (A)
                 (A) (A) (A) (A) (A) (A) (A) (A) (A) (A) (A) (A)
                 (A) (A) (A) (A) (A) (A) (A) (A) (A) (A) (A) (A)
                 (A) (A) (A) (A) (A) (A) (A) (A) (A) (A) (A) (A)
                 (A) (A) (A) (A) (A) (A) (A) (A) (A) (A) (A) (A)
                 (A) (A) (A) (A) (A) (A) (A) (A) (A) (A) (A) (A)
                 (A) (A) (A) (A) (A) (A) (A) (A) (A) (A) (A) (A)
                 (A) (A) (A) (A) (A) (A) (A) (A) (A) (A) (A) (A)
                 (A) (A) (A) (A) (A) (A) (A) (A) (A) (A) (A) (A)
                 (A) (A) (A) (A) (A) (A) (A) (A) (A) (A) (A) (A)
                 (A) (A) (A) (A) (A) (A) (A) (A) (A) (A) (A) (A)
                 (A) (A) (A) (A) (A) (A) (A) (A) (A) (A) (A) (A)
                 (A) (A) (A) (A) (A) (A) (A) (A) (A) (A) (A) (A)
                 (A) (A) (A) (A) (A) (A) (A) (A) (A) (A) (A) (A)
                 (A) (A) (A) (A) (A) (A) (A) (A) (A) (A) (A) (A)
                 (A) (A) (A) (A) (A) (A) (A) (A) (A) (A) (A) (A)
                 (A) (A) (A) (A) (A) (A) (A) (A) (A) (A) (A) (A)
                 (A) (A) (A) (A) (A) (A) (A) (A) (A) (A) (A) (A)
                 (A) (A) (A) (A) (A) (A) (A) (A) (A) (A) (A) (A)
                 (A) (A) (A) (A) (A) (A) (A) (A) (A) (A) (A) (A)
                 (A) (A) (A) (A) (A) (A) (A) (A) (A) (A) (A) (A)
                 (A) (A) (A) (A) (A) (A) (A) (A) (A) (A) (A) (A)
                 (A) (A) (A) (A) (A) (A) (A) (A) (A) (A) (A) (A)
                 (A) (A) (A) (A) (A) (A) (A) (A) (A) (A) (A) (A)
                 (A) (A) (A) (A) (A) (A) (A) (A) (A) (A) (A) (A)
                 (A) (A) (A) (A) (A) (A) (A) (A) (A) (A) (A) (A)
                 (A) (A) (A) (A) (A) (A) (A) (A) (A) (A) (A) (A)
                 (A) (A) (A) (A) (A) (A) (A) (A) (A) (A) (A) (A)
                 (A) (A) (A) (A) (A) (A) (A) (A) (A) (A) (A) (A)
                 (A) (A) (A) (A) (A) (A) (A) (A) (A) (A) (A) (A)
                 (A) (A) (A) (A) (A) (A) (A) (A) (A) (A) (A) (A)
                 (A) (A) (A) (A) (A) (A) (A) (A) (A) (A) (A) (A)
                 (A) (A) (A) (A) (A) (A) (A) (A) (A) (A) (A) (A)
                 (A) (A) (A) (A) (A) (A) (A) (A) (A) (A) (A) (A)
                 (A) (A) (A) (A) (A) (A) (A) (A) (A) (A) (A) (A)
                 (A) (A) (A) (A) (A) (A) (A) (A) (A) (A) (A) (A)
                 (A) (A) (A) (A) (A) (A) (A) (A) (A) (A) (A) (A)
                 (A) (A) (A) (A) (A) (A) (A) (A) (A) (A) (A) (A)
                 (A) (A) (A) (A) (A) (A) (A) (A) (A) (A) (A) (A)
                 (A) (A) (A) (A) (A) (A) (A) (A) (A) (A) (A) (A)
                 (A) (A) (A) (A) (A) (A) (A) (A) (A) (A) (A) (A)
                 (A) (A) (A) (A) (A) (A) (A) (A) (A) (A) (A) (A)
                 (A) (A) (A) (A) (A) (A) (A) (A) (A) (A) (A) (A)
                 (A) (A) (A) (A) (A) (A) (A) (A) (A) (A) (A) (A)
                 (A) (A) (A) (A) (A) (A) (A) (A) (A) (A) (A) (A)
                 (A) (A) (A) (A) (A) (A) (A) (A) (A) (A) (A) (A)
                 (A) (A) (A) (A) (A) (A) (A) (A) (A) (A) (A) (A)
                 (A) (A) (A) (A) (A) (A) (A) (A) (A) (A) (A) (A)
                 (A) (A) (A) (A) (A) (A) (A) (A) (A) (A) (A) (A)
                 (A) (A) (A) (A) (A) (A) (A) (A) (A) (A) (A) (A)
                 (A) (A) (A) (A) (A) (A) (A) (A) (A) (A) (A) (A)
                 (A) (A) (A) (A) (A) (A) (A) (A) (A) (A) (A) (A)
                 (A) (A) (A) (A) (A) (A) (A) (A) (A) (A) (A) (A)
                 (A) (A) (A) (A) (A) (A) (A) (A) (A) (A) (A) (A)
                 (A) (A) (A) (A) (A) (A) (A) (A) (A) (A) (A) (A)
                 (A) (A) (A) (A) (A) (A) (A) (A) (A) (A) (A) (A)
                 (A) (A) (A) (A) (A) (A) (A) (A) (A) (A) (A) (A)
                 (A) (A) (A) (A) (A) (A) (A) (A) (A) (A) (A) (A)
                 (A) (A) (A) (A) (A) (A) (A) (A) (A) (A) (A) (A)
                 (A) (A) (A) (A) (A) (A) (A) (A) (A) (A) (A) (A)
                 (A) (A) (A) (A) (A) (A) (A) (A) (A) (A) (A) (A)
                 (A) (A) (A) (A) (A) (A) (A) (A) (A) (A) (A) (A)
                 (A) (A) (A) (A) (A) (A) (A) (A) (A) (A) (A) (A)
                 (A) (A) (A) (A) (A) (A) (A) (A) (A) (A) (A) (A)
                 (A) (A) (A) (A) (A) (A) (A) (A) (A) (A) (A) (A)
                 (A) (A) (A) (A) (A) (A) (A) (A) (A) (A) (A) (A)
                 (A) (A) (A) (A) (A) (A) (A) (A) (A) (A) (A) (A)
                 (A) (A) (A) (A) (A) (A) (A) (A) (A) (A) (A) (A)
                 (A) (A) (A) (A) (A) (A) (A) (A) (A) (A) (A) (A)
                 (A) (A) (A) (A) (A) (A) (A) (A) (A) (A) (A) (A)
                 (A) (A) (A) (A) (A) (A) (A) (A) (A) (A) (A) (A)
                 (A) (A) (A) (A) (A) (A) (A) (A) (A) (A) (A) (A)
                 (A) (A) (A) (A) (A) (A) (A) (A) (A) (A) (A) (A)
                 (A) (A) (A) (A) (A) (A) (A) (A) (A) (A) (A) (A)
                 (A) (A) (A) (A) (A) (A) (A) (A) (A) (A) (A) (A)
                 (A) (A) (A) (A) (A) (A) (A) (A) (A) (A) (A) (A)
                 (A) (A) (A) (A) (A) (A) (A) (A) (A)
 The electronic state is 1-A.
 Alpha  occ. eigenvalues --  -25.20649 -25.20615 -19.67830 -19.67823 -19.66914
 Alpha  occ. eigenvalues --  -19.66828 -19.65805 -19.64020 -19.63909 -19.63635
 Alpha  occ. eigenvalues --  -19.63629 -19.63412 -19.63251 -15.01314 -14.78929
 Alpha  occ. eigenvalues --  -14.78849 -10.67410 -10.62061 -10.61921 -10.61727
 Alpha  occ. eigenvalues --  -10.60945 -10.60757 -10.60559 -10.60208 -10.59983
 Alpha  occ. eigenvalues --  -10.59914 -10.59779 -10.59467 -10.59261 -10.58838
 Alpha  occ. eigenvalues --  -10.58818 -10.58801 -10.58769 -10.58755 -10.58665
 Alpha  occ. eigenvalues --  -10.58601 -10.58576 -10.58502 -10.57906 -10.57903
 Alpha  occ. eigenvalues --  -10.57856 -10.57795 -10.57734 -10.57655 -10.57404
 Alpha  occ. eigenvalues --  -10.57092 -10.57029 -10.56971 -10.56256 -10.56153
 Alpha  occ. eigenvalues --  -10.55977 -10.55960 -10.55925 -10.55888 -10.55804
 Alpha  occ. eigenvalues --  -10.55776 -10.55755 -10.55292 -10.55198 -10.55177
 Alpha  occ. eigenvalues --  -10.55102 -10.54840 -10.54775 -10.54740 -10.54533
 Alpha  occ. eigenvalues --   -7.13521  -1.36785  -1.32598  -1.29342  -1.20177
 Alpha  occ. eigenvalues --   -1.20028  -1.19907  -1.18279  -1.16766  -1.16703
 Alpha  occ. eigenvalues --   -1.16149  -1.15735  -1.15423  -1.14444  -1.10978
 Alpha  occ. eigenvalues --   -1.09025  -1.00672  -0.97652  -0.97453  -0.95007
 Alpha  occ. eigenvalues --   -0.93578  -0.92018  -0.91871  -0.90900  -0.90681
 Alpha  occ. eigenvalues --   -0.88906  -0.88544  -0.87536  -0.87182  -0.86845
 Alpha  occ. eigenvalues --   -0.86394  -0.85773  -0.85568  -0.84960  -0.84174
 Alpha  occ. eigenvalues --   -0.82888  -0.82113  -0.81255  -0.81020  -0.79269
 Alpha  occ. eigenvalues --   -0.79009  -0.77767  -0.76636  -0.75921  -0.74321
 Alpha  occ. eigenvalues --   -0.73870  -0.72564  -0.72282  -0.71708  -0.71155
 Alpha  occ. eigenvalues --   -0.70782  -0.70375  -0.69662  -0.69228  -0.68690
 Alpha  occ. eigenvalues --   -0.68049  -0.67668  -0.67069  -0.66539  -0.66020
 Alpha  occ. eigenvalues --   -0.65953  -0.63947  -0.63509  -0.63293  -0.62951
 Alpha  occ. eigenvalues --   -0.62575  -0.62320  -0.62042  -0.61782  -0.60076
 Alpha  occ. eigenvalues --   -0.59682  -0.59477  -0.59006  -0.58670  -0.58586
 Alpha  occ. eigenvalues --   -0.58188  -0.58090  -0.57664  -0.57502  -0.57306
 Alpha  occ. eigenvalues --   -0.57096  -0.56648  -0.56393  -0.56196  -0.55890
 Alpha  occ. eigenvalues --   -0.55791  -0.54972  -0.54727  -0.54283  -0.54119
 Alpha  occ. eigenvalues --   -0.53925  -0.53799  -0.53616  -0.53399  -0.53339
 Alpha  occ. eigenvalues --   -0.53170  -0.52929  -0.52564  -0.52353  -0.52215
 Alpha  occ. eigenvalues --   -0.52158  -0.52032  -0.51825  -0.51646  -0.51612
 Alpha  occ. eigenvalues --   -0.51205  -0.50842  -0.50354  -0.49972  -0.49890
 Alpha  occ. eigenvalues --   -0.49767  -0.49662  -0.49152  -0.48820  -0.48600
 Alpha  occ. eigenvalues --   -0.48497  -0.48241  -0.47685  -0.47375  -0.47132
 Alpha  occ. eigenvalues --   -0.47036  -0.46962  -0.46826  -0.46564  -0.46307
 Alpha  occ. eigenvalues --   -0.46254  -0.45906  -0.45818  -0.45522  -0.45050
 Alpha  occ. eigenvalues --   -0.44936  -0.44820  -0.44406  -0.44289  -0.44227
 Alpha  occ. eigenvalues --   -0.43839  -0.43495  -0.43285  -0.42782  -0.42591
 Alpha  occ. eigenvalues --   -0.42561  -0.42336  -0.42220  -0.41868  -0.41512
 Alpha  occ. eigenvalues --   -0.41066  -0.40859  -0.40639  -0.40604  -0.40304
 Alpha  occ. eigenvalues --   -0.39879  -0.39676  -0.39658  -0.39608  -0.39313
 Alpha  occ. eigenvalues --   -0.39220  -0.38892  -0.38492  -0.36771  -0.36544
 Alpha  occ. eigenvalues --   -0.36262  -0.35171  -0.34323  -0.34057  -0.34002
 Alpha  occ. eigenvalues --   -0.33663  -0.33439  -0.32626  -0.32469  -0.32438
 Alpha  occ. eigenvalues --   -0.32320  -0.32284  -0.31744  -0.29745  -0.27144
 Alpha  occ. eigenvalues --   -0.23283
 Alpha virt. eigenvalues --   -0.10131  -0.07302  -0.03312  -0.01720  -0.01294
 Alpha virt. eigenvalues --   -0.00451   0.00773   0.00847   0.02482   0.04983
 Alpha virt. eigenvalues --    0.05441   0.05629   0.06169   0.06716   0.07222
 Alpha virt. eigenvalues --    0.07331   0.07537   0.07804   0.07907   0.07968
 Alpha virt. eigenvalues --    0.08346   0.08485   0.08660   0.08747   0.09332
 Alpha virt. eigenvalues --    0.09524   0.09569   0.09752   0.10009   0.10367
 Alpha virt. eigenvalues --    0.10530   0.10572   0.10792   0.10841   0.10946
 Alpha virt. eigenvalues --    0.11162   0.11192   0.11345   0.11403   0.11641
 Alpha virt. eigenvalues --    0.12044   0.12095   0.12145   0.12356   0.12687
 Alpha virt. eigenvalues --    0.12855   0.12919   0.12985   0.13252   0.13435
 Alpha virt. eigenvalues --    0.13663   0.13714   0.13886   0.14033   0.14091
 Alpha virt. eigenvalues --    0.14230   0.14509   0.14646   0.14873   0.15055
 Alpha virt. eigenvalues --    0.15178   0.15483   0.15626   0.15658   0.15740
 Alpha virt. eigenvalues --    0.15873   0.15997   0.16003   0.16246   0.16358
 Alpha virt. eigenvalues --    0.16478   0.16726   0.16842   0.17004   0.17137
 Alpha virt. eigenvalues --    0.17406   0.17536   0.17635   0.17762   0.18126
 Alpha virt. eigenvalues --    0.18293   0.18512   0.18632   0.18755   0.18928
 Alpha virt. eigenvalues --    0.18981   0.19100   0.19497   0.19636   0.19723
 Alpha virt. eigenvalues --    0.19894   0.20090   0.20449   0.20555   0.20696
 Alpha virt. eigenvalues --    0.21013   0.21231   0.21388   0.21502   0.21673
 Alpha virt. eigenvalues --    0.21904   0.22134   0.22274   0.22349   0.22610
 Alpha virt. eigenvalues --    0.22716   0.22773   0.22976   0.23112   0.23178
 Alpha virt. eigenvalues --    0.23370   0.23454   0.23550   0.23697   0.23828
 Alpha virt. eigenvalues --    0.23978   0.24013   0.24228   0.24250   0.24552
 Alpha virt. eigenvalues --    0.24814   0.24908   0.25100   0.25247   0.25351
 Alpha virt. eigenvalues --    0.25452   0.25650   0.25874   0.25918   0.26145
 Alpha virt. eigenvalues --    0.26369   0.26510   0.26657   0.26850   0.27103
 Alpha virt. eigenvalues --    0.27139   0.27323   0.27401   0.27629   0.27775
 Alpha virt. eigenvalues --    0.28037   0.28143   0.28259   0.28393   0.28484
 Alpha virt. eigenvalues --    0.28741   0.28886   0.28990   0.29180   0.29288
 Alpha virt. eigenvalues --    0.29671   0.30051   0.30201   0.30234   0.30580
 Alpha virt. eigenvalues --    0.30751   0.30859   0.31204   0.31289   0.31521
 Alpha virt. eigenvalues --    0.31611   0.31903   0.32128   0.32258   0.32552
 Alpha virt. eigenvalues --    0.32653   0.32811   0.32976   0.33136   0.33442
 Alpha virt. eigenvalues --    0.33514   0.33628   0.33727   0.33838   0.34007
 Alpha virt. eigenvalues --    0.34187   0.34232   0.34449   0.34705   0.34861
 Alpha virt. eigenvalues --    0.35136   0.35229   0.35348   0.35605   0.35683
 Alpha virt. eigenvalues --    0.35959   0.35970   0.36141   0.36344   0.36485
 Alpha virt. eigenvalues --    0.36581   0.36690   0.36745   0.36927   0.36944
 Alpha virt. eigenvalues --    0.37034   0.37260   0.37303   0.37381   0.37569
 Alpha virt. eigenvalues --    0.37694   0.37888   0.37992   0.38057   0.38190
 Alpha virt. eigenvalues --    0.38441   0.38505   0.38707   0.38769   0.38846
 Alpha virt. eigenvalues --    0.38981   0.39101   0.39306   0.39586   0.39721
 Alpha virt. eigenvalues --    0.39814   0.39935   0.40083   0.40199   0.40306
 Alpha virt. eigenvalues --    0.40519   0.40591   0.40688   0.40822   0.40935
 Alpha virt. eigenvalues --    0.41061   0.41334   0.41376   0.41574   0.41735
 Alpha virt. eigenvalues --    0.41944   0.42085   0.42350   0.42564   0.42606
 Alpha virt. eigenvalues --    0.42683   0.42791   0.42947   0.43039   0.43116
 Alpha virt. eigenvalues --    0.43347   0.43401   0.43604   0.43755   0.43887
 Alpha virt. eigenvalues --    0.43999   0.44206   0.44231   0.44386   0.44731
 Alpha virt. eigenvalues --    0.44855   0.45043   0.45110   0.45253   0.45320
 Alpha virt. eigenvalues --    0.45382   0.45565   0.45638   0.45700   0.45810
 Alpha virt. eigenvalues --    0.46071   0.46106   0.46321   0.46526   0.46721
 Alpha virt. eigenvalues --    0.46759   0.47036   0.47077   0.47267   0.47524
 Alpha virt. eigenvalues --    0.47754   0.47808   0.47932   0.47990   0.48128
 Alpha virt. eigenvalues --    0.48255   0.48409   0.48618   0.48702   0.48837
 Alpha virt. eigenvalues --    0.48878   0.49121   0.49267   0.49313   0.49528
 Alpha virt. eigenvalues --    0.49779   0.50012   0.50114   0.50317   0.50406
 Alpha virt. eigenvalues --    0.50462   0.50616   0.50661   0.50761   0.50969
 Alpha virt. eigenvalues --    0.51144   0.51202   0.51320   0.51581   0.51677
 Alpha virt. eigenvalues --    0.51737   0.51814   0.51981   0.52246   0.52415
 Alpha virt. eigenvalues --    0.52460   0.52499   0.52814   0.52943   0.52983
 Alpha virt. eigenvalues --    0.53255   0.53359   0.53526   0.53695   0.53941
 Alpha virt. eigenvalues --    0.54232   0.54327   0.54506   0.54606   0.54885
 Alpha virt. eigenvalues --    0.55169   0.55289   0.55449   0.55614   0.55689
 Alpha virt. eigenvalues --    0.55825   0.55948   0.56010   0.56109   0.56287
 Alpha virt. eigenvalues --    0.56524   0.56693   0.56803   0.57161   0.57438
 Alpha virt. eigenvalues --    0.57652   0.57772   0.57905   0.58043   0.58179
 Alpha virt. eigenvalues --    0.58398   0.58671   0.58947   0.58996   0.59159
 Alpha virt. eigenvalues --    0.59286   0.59702   0.59736   0.60072   0.60133
 Alpha virt. eigenvalues --    0.60351   0.60424   0.60661   0.60866   0.61158
 Alpha virt. eigenvalues --    0.61386   0.61580   0.61788   0.62010   0.62054
 Alpha virt. eigenvalues --    0.62492   0.62722   0.63032   0.63178   0.63444
 Alpha virt. eigenvalues --    0.63712   0.63834   0.64307   0.64398   0.64625
 Alpha virt. eigenvalues --    0.64678   0.64958   0.65045   0.65255   0.65490
 Alpha virt. eigenvalues --    0.65832   0.65881   0.66219   0.66361   0.66572
 Alpha virt. eigenvalues --    0.66670   0.66730   0.67004   0.67160   0.67195
[...]
 Alpha virt. eigenvalues --    4.50446   4.50839   4.50975   4.51079   4.51310
 Alpha virt. eigenvalues --    4.51450   4.51786   4.52633   4.52965   4.53292
 Alpha virt. eigenvalues --    4.53504   4.53987   4.54117   4.54557   4.54715
 Alpha virt. eigenvalues --    4.55161   4.55501   4.55836   4.56111   4.56596
 Alpha virt. eigenvalues --    4.57263   4.57412   4.57497   4.58078   4.58496
 Alpha virt. eigenvalues --    4.59034   4.59323   4.59626   4.60332   4.60403
 Alpha virt. eigenvalues --    4.61084   4.61326   4.61505   4.61748   4.61940
 Alpha virt. eigenvalues --    4.62392   4.62432   4.63197   4.63510   4.63780
 Alpha virt. eigenvalues --    4.64082   4.64352   4.64778   4.64984   4.65187
 Alpha virt. eigenvalues --    4.65632   4.66037   4.66273   4.66390   4.66793
 Alpha virt. eigenvalues --    4.66891   4.67347   4.67590   4.67880   4.67972
 Alpha virt. eigenvalues --    4.68241   4.68362   4.68918   4.69520   4.69681
 Alpha virt. eigenvalues --    4.69694   4.69863   4.70083   4.70491   4.70784
 Alpha virt. eigenvalues --    4.71086   4.71123   4.71699   4.72192   4.72775
 Alpha virt. eigenvalues --    4.72836   4.73188   4.73353   4.73687   4.74107
 Alpha virt. eigenvalues --    4.74227   4.74706   4.75002   4.75648   4.76048
 Alpha virt. eigenvalues --    4.76198   4.76311   4.76755   4.77139   4.77507
 Alpha virt. eigenvalues --    4.77807   4.77895   4.78020   4.78233   4.78781
 Alpha virt. eigenvalues --    4.79141   4.79489   4.79809   4.80189   4.80360
 Alpha virt. eigenvalues --    4.80696   4.80884   4.81558   4.81835   4.82128
 Alpha virt. eigenvalues --    4.82305   4.82464   4.82683   4.83034   4.83501
 Alpha virt. eigenvalues --    4.83824   4.83959   4.84734   4.84945   4.86590
 Alpha virt. eigenvalues --    4.87016   4.87265   4.87745   4.88014   4.88215
 Alpha virt. eigenvalues --    4.89218   4.89683   4.90072   4.90283   4.90377
 Alpha virt. eigenvalues --    4.90634   4.91061   4.91283   4.91701   4.92201
 Alpha virt. eigenvalues --    4.92251   4.92730   4.92936   4.93211   4.93280
 Alpha virt. eigenvalues --    4.93473   4.93811   4.93966   4.94023   4.94150
 Alpha virt. eigenvalues --    4.94481   4.94756   4.95407   4.95600   4.95990
 Alpha virt. eigenvalues --    4.96139   4.96428   4.96786   4.97144   4.97433
 Alpha virt. eigenvalues --    4.97947   4.98366   4.98643   4.98786   4.98836
 Alpha virt. eigenvalues --    4.99319   4.99757   5.00149   5.00391   5.00752
 Alpha virt. eigenvalues --    5.01695   5.01730   5.02132   5.02540   5.02776
 Alpha virt. eigenvalues --    5.02949   5.03273   5.03556   5.03817   5.04189
 Alpha virt. eigenvalues --    5.04317   5.04590   5.05049   5.05288   5.05986
 Alpha virt. eigenvalues --    5.06472   5.06523   5.06977   5.07234   5.07389
 Alpha virt. eigenvalues --    5.07640   5.08007   5.08459   5.08553   5.08755
 Alpha virt. eigenvalues --    5.09084   5.10171   5.10458   5.10567   5.10769
 Alpha virt. eigenvalues --    5.11131   5.11434   5.12210   5.12393   5.13106
 Alpha virt. eigenvalues --    5.13509   5.13584   5.14167   5.14219   5.14596
 Alpha virt. eigenvalues --    5.14937   5.15033   5.15378   5.15635   5.15868
 Alpha virt. eigenvalues --    5.16565   5.17084   5.17222   5.17632   5.17838
 Alpha virt. eigenvalues --    5.18696   5.19060   5.19360   5.19524   5.19970
 Alpha virt. eigenvalues --    5.20899   5.21116   5.21911   5.22127   5.22286
 Alpha virt. eigenvalues --    5.22715   5.23110   5.23194   5.23908   5.23997
 Alpha virt. eigenvalues --    5.24472   5.24866   5.25157   5.25467   5.25984
 Alpha virt. eigenvalues --    5.26720   5.27589   5.27648   5.28205   5.28306
 Alpha virt. eigenvalues --    5.28514   5.28646   5.28801   5.28881   5.28964
 Alpha virt. eigenvalues --    5.29047   5.29377   5.29393   5.29642   5.29889
 Alpha virt. eigenvalues --    5.30387   5.30911   5.31007   5.31590   5.31781
 Alpha virt. eigenvalues --    5.31945   5.32304   5.32335   5.32585   5.33132
 Alpha virt. eigenvalues --    5.33417   5.33874   5.33928   5.34517   5.34824
 Alpha virt. eigenvalues --    5.35803   5.36141   5.36372   5.36963   5.37214
 Alpha virt. eigenvalues --    5.37297   5.37754   5.38106   5.38262   5.38752
 Alpha virt. eigenvalues --    5.39070   5.39204   5.39359   5.39913   5.40348
 Alpha virt. eigenvalues --    5.40594   5.40734   5.41015   5.41960   5.42233
 Alpha virt. eigenvalues --    5.42374   5.42672   5.43027   5.43464   5.43631
 Alpha virt. eigenvalues --    5.43706   5.44029   5.44437   5.44510   5.45432
 Alpha virt. eigenvalues --    5.46661   5.46816   5.47188   5.48060   5.48867
 Alpha virt. eigenvalues --    5.49284   5.49365   5.49878   5.50102   5.50410
 Alpha virt. eigenvalues --    5.51398   5.51660   5.51786   5.52608   5.52754
 Alpha virt. eigenvalues --    5.53257   5.53726   5.54180   5.54474   5.54962
 Alpha virt. eigenvalues --    5.55431   5.55514   5.55568   5.56178   5.56787
 Alpha virt. eigenvalues --    5.57108   5.57408   5.58303   5.58652   5.58837
 Alpha virt. eigenvalues --    5.58891   5.59254   5.59427   5.59501   5.59878
 Alpha virt. eigenvalues --    5.60123   5.60330   5.60497   5.60569   5.60808
 Alpha virt. eigenvalues --    5.61027   5.61896   5.62633   5.63089   5.63691
 Alpha virt. eigenvalues --    5.63759   5.64199   5.64300   5.64788   5.65144
 Alpha virt. eigenvalues --    5.65308   5.65730   5.66027   5.66585   5.66806
 Alpha virt. eigenvalues --    5.67613   5.67787   5.68199   5.68382   5.69362
 Alpha virt. eigenvalues --    5.69868   5.69947   5.70756   5.70942   5.74320
 Alpha virt. eigenvalues --    5.75582   5.76022   5.76558   5.78515   5.79218
 Alpha virt. eigenvalues --    5.81394   5.82679   5.83364   5.84171   5.86369
 Alpha virt. eigenvalues --    5.87327   5.87625   5.88189   5.88515   5.88726
 Alpha virt. eigenvalues --    5.89819   5.91005   5.91318   5.91870   5.92756
 Alpha virt. eigenvalues --    5.93539   5.94098   5.96636   5.97663   5.98739
 Alpha virt. eigenvalues --    5.99332   6.00286   6.00430   6.02119   6.02940
 Alpha virt. eigenvalues --    6.03501   6.03624   6.04047   6.05262   6.05418
 Alpha virt. eigenvalues --    6.06213   6.06600   6.08977   6.09516   6.10440
 Alpha virt. eigenvalues --    6.11163   6.12829   6.12941   6.18626   6.19471
 Alpha virt. eigenvalues --    6.20027   6.21966   6.22306   6.22427   6.24666
 Alpha virt. eigenvalues --    6.25214   6.25864   6.25950   6.27583   6.28106
 Alpha virt. eigenvalues --    6.28172   6.28253   6.29306   6.30601   6.31303
 Alpha virt. eigenvalues --    6.32484   6.33159   6.34931   6.35734   6.38816
 Alpha virt. eigenvalues --    6.40222   6.40638   6.41131   6.41423   6.43392
 Alpha virt. eigenvalues --    6.44464   6.45427   6.46137   6.50851   6.61451
 Alpha virt. eigenvalues --    6.72363   6.72560   6.72867   6.73515   6.74667
 Alpha virt. eigenvalues --    6.75987   6.76109   6.76887   6.77173   6.77837
 Alpha virt. eigenvalues --    6.77886   6.80653   6.80846   6.81313   6.83182
 Alpha virt. eigenvalues --    6.84149   6.84418   6.84587   6.84895   6.85597
 Alpha virt. eigenvalues --    6.86797   6.87118   6.87519   6.93148   6.93641
 Alpha virt. eigenvalues --    6.94063   6.94923   6.95719   6.97497   6.98365
 Alpha virt. eigenvalues --    6.98687   6.99565   7.00193   7.01095   7.01265
 Alpha virt. eigenvalues --    7.02562   7.05136   7.07379   7.08489   7.08642
 Alpha virt. eigenvalues --    7.09712   7.11629   7.17733   7.20605   7.21686
 Alpha virt. eigenvalues --    7.24433   7.26529   7.26693   7.26731   7.28576
 Alpha virt. eigenvalues --    7.29852   7.30136   7.30271   7.32747   7.33230
 Alpha virt. eigenvalues --    7.33293   7.33423   7.33614   7.34152   7.34563
 Alpha virt. eigenvalues --    7.37783   7.38175   7.38753   7.40546   7.45096
 Alpha virt. eigenvalues --    7.46811   7.47302   7.51332   8.45819   8.47654
 Alpha virt. eigenvalues --    8.56766   8.61952   8.81489   8.88488   8.89734
 Alpha virt. eigenvalues --    8.92186   8.94538   9.01176  15.87266  22.82705
 Alpha virt. eigenvalues --   22.87036  22.89465  22.92958  23.00048  23.10854
 Alpha virt. eigenvalues --   23.13079  23.14039  23.14425  23.18670  23.18850
 Alpha virt. eigenvalues --   23.23102  23.24574  23.27480  23.27866  23.28596
 Alpha virt. eigenvalues --   23.29364  23.31454  23.31759  23.32229  23.33853
 Alpha virt. eigenvalues --   23.34148  23.34741  23.36046  23.36542  23.37862
 Alpha virt. eigenvalues --   23.39259  23.39600  23.40445  23.41139  23.43209
 Alpha virt. eigenvalues --   23.45263  23.45386  23.46978  23.50780  23.51005
 Alpha virt. eigenvalues --   23.51995  23.54381  23.55164  23.59052  23.61690
 Alpha virt. eigenvalues --   23.61871  23.71228  23.76753  23.86277  23.94798
 Alpha virt. eigenvalues --   24.07378  24.10087  24.10638  32.58396  33.16476
 Alpha virt. eigenvalues --   33.27846  44.20566  44.23913  44.28950  44.29849
 Alpha virt. eigenvalues --   44.34562  44.38263  44.43906  44.48484  44.49223
 Alpha virt. eigenvalues --   44.61996  44.63840  57.33954  57.60420
          Condensed to atoms (all electrons):
 Mulliken charges:
               1
     1  B    0.344845
     2  N   -0.082307
     3  C    0.018365
     4  C   -0.081876
     5  C   -0.044071
     6  C    0.091726
     7  C    0.175284
     8  C   -0.076239
     9  O   -0.280550
    10  C   -0.489616
    11  C    0.172611
    12  C   -0.167907
    13  C   -0.112471
    14  C   -0.025445
    15  C   -0.104290
    16  C   -0.113951
    17  N    0.489920
    18  O   -0.370460
    19  O   -0.370664
    20  C    0.112946
    21  N   -0.101418
    22  C   -0.039807
    23  C   -0.067321
    24  C   -0.013141
    25  C   -0.441563
    26  C   -0.076614
    27  C   -0.075163
    28  C    0.003677
    29  C   -0.156741
    30  C   -0.195877
    31  C    0.227502
    32  O   -0.281362
    33  C   -0.108253
    34  C   -0.143063
    35  O   -0.324986
    36  C   -0.047315
    37  C   -0.138111
    38  O   -0.334090
    39  C   -0.098976
    40  C   -0.106755
    41  O   -0.346170
    42  C   -0.209782
    43  C   -0.170568
    44  C   -0.147333
    45  C   -0.417530
    46  C   -0.127316
    47  C   -0.045066
    48  C   -0.020483
    49  C   -0.151701
    50  C   -0.174272
    51  C    0.225360
    52  O   -0.281985
    53  C   -0.102407
    54  C   -0.090408
    55  O   -0.340677
    56  C   -0.092995
    57  C   -0.064517
    58  O   -0.363374
    59  C   -0.078008
    60  C   -0.036654
    61  O   -0.352997
    62  C   -0.204298
    63  C   -0.194632
    64  C   -0.143040
    65  F   -0.341471
    66  F   -0.347348
    67  H    0.169329
    68  H    0.208130
    69  H    0.244109
    70  H    0.161703
    71  H    0.193724
    72  H    0.194149
    73  H    0.163036
    74  H    0.162586
    75  H    0.149403
    76  H    0.135684
    77  H    0.180870
    78  H    0.100535
    79  H    0.121354
    80  H    0.155564
    81  H    0.158407
    82  H    0.170141
    83  H    0.154414
    84  H    0.134294
    85  H    0.128952
    86  H    0.131370
    87  H    0.121159
    88  H    0.132950
    89  H    0.132781
    90  H    0.131160
    91  H    0.139688
    92  H    0.137638
    93  H    0.141045
    94  H    0.137458
    95  H    0.123867
    96  H    0.126063
    97  H    0.154171
    98  H    0.141264
    99  H    0.143486
   100  H    0.176622
   101  H    0.136505
   102  H    0.119594
   103  H    0.114140
   104  H    0.143660
   105  H    0.156410
   106  H    0.149867
   107  H    0.150470
   108  H    0.126375
   109  H    0.128937
   110  H    0.127013
   111  H    0.120239
   112  H    0.134593
   113  H    0.126289
   114  H    0.119544
   115  H    0.133514
   116  H    0.112055
   117  H    0.110536
   118  H    0.136609
   119  H    0.120816
   120  H    0.120315
   121  H    0.159281
   122  H    0.149328
 Sum of Mulliken charges =  -0.00000
 Mulliken charges with hydrogens summed into heavy atoms:
               1
     1  B    0.344845
     2  N   -0.082307
     3  C    0.018365
     4  C    0.087453
     5  C   -0.044071
     6  C    0.091726
     7  C    0.175284
     8  C   -0.076239
     9  O   -0.280550
    10  C   -0.037377
    11  C    0.172611
    12  C   -0.006204
    13  C    0.081253
    14  C   -0.025445
    15  C    0.089859
    16  C    0.049086
    17  N    0.489920
    18  O   -0.370460
    19  O   -0.370664
    20  C    0.112946
    21  N   -0.101418
    22  C   -0.039807
    23  C    0.095265
    24  C   -0.013141
    25  C    0.024394
    26  C    0.023920
    27  C    0.046191
    28  C    0.003677
    29  C   -0.001177
    30  C   -0.037470
    31  C    0.227502
    32  O   -0.281362
    33  C    0.216302
    34  C    0.120183
    35  O   -0.324986
    36  C    0.205214
    37  C    0.127621
    38  O   -0.334090
    39  C    0.171872
    40  C    0.171928
    41  O   -0.346170
    42  C    0.177606
    43  C   -0.016397
    44  C   -0.006069
    45  C    0.039083
    46  C   -0.007722
    47  C    0.069074
    48  C   -0.020483
    49  C   -0.008041
    50  C   -0.017861
    51  C    0.225360
    52  O   -0.281985
    53  C    0.197930
    54  C    0.164904
    55  O   -0.340677
    56  C    0.154256
    57  C    0.196366
    58  O   -0.363374
    59  C    0.175049
    60  C    0.185937
    61  O   -0.352997
    62  C    0.173443
    63  C   -0.035351
    64  C    0.006288
    65  F   -0.341471
    66  F   -0.347348
 Electronic spatial extent (au):  <R**2>=         133140.2965
 Charge=              0.0000 electrons
 Dipole moment (field-independent basis, Debye):
    X=             -9.1580    Y=              3.1856    Z=             -2.8970  Tot=             10.1198
 Quadrupole moment (field-independent basis, Debye-Ang):
   XX=           -454.8636   YY=           -337.1930   ZZ=           -386.1488
   XY=             24.9242   XZ=             45.2833   YZ=            -13.3575
 Traceless Quadrupole moment (field-independent basis, Debye-Ang):
   XX=            -62.1285   YY=             55.5421   ZZ=              6.5863
   XY=             24.9242   XZ=             45.2833   YZ=            -13.3575
 Octapole moment (field-independent basis, Debye-Ang**2):
  XXX=          -3609.2677  YYY=            177.0157  ZZZ=            -11.2526  XYY=             70.8804
  XXY=           -376.5192  XXZ=           -151.7387  XZZ=           -164.7385  YZZ=             -3.9073
  YYZ=           -413.9169  XYZ=           -201.2923
 Hexadecapole moment (field-independent basis, Debye-Ang**3):
 XXXX=        -161219.1581 YYYY=         -46684.0831 ZZZZ=          -4057.4397 XXXY=           6792.9912
 XXXZ=            211.4297 YYYX=            999.1950 YYYZ=           -341.2499 ZZZX=            148.5882
 ZZZY=              9.1252 XXYY=         -26593.2601 XXZZ=         -20522.3098 YYZZ=          -8331.0911
 XXYZ=           1143.7435 YYXZ=           2769.5320 ZZXY=            580.5979
 N-N= 8.622804137112D+03 E-N=-2.452323879586D+04  KE= 3.100497539056D+03
 Leave Link  601 at Wed Nov  5 23:29:08 2025, MaxMem= 30870077440 cpu:             128.0 elap:               2.5
 (Enter /public/software/gauss/g16/l9999.exe)
 1\1\GINC-CU161\SP\RM062X\def2TZVPP\C49H56B1F2N3O11\BAIDING\05-Nov-2025
 \0\\#p M062X/DEF2TZVPP scrf=(solvent=water) em=GD3\\Energy calculation
  for BE_CO\\0,1\B,0,-2.927316,0.447122,-0.257043\N,0,-3.926002,-0.6971
 8,-0.565615\C,0,-3.592885,-1.977152,-0.902447\C,0,-4.783679,-2.672835,
 -1.244472\C,0,-5.856161,-1.811716,-1.103888\C,0,-5.307827,-0.555692,-0
 .665403\C,0,-5.90763,0.672306,-0.362716\C,0,-7.422085,0.758286,-0.3488
 12\O,0,-8.035559,1.131159,-1.334385\C,0,-8.082868,0.357732,0.963399\C,
 0,-9.58778,0.302906,0.925471\C,0,-10.342209,1.474445,0.749845\C,0,-11.
 73031,1.430393,0.721087\C,0,-12.362264,0.194229,0.870806\C,0,-11.64363
 7,-0.988049,1.047281\C,0,-10.254564,-0.922099,1.071405\N,0,-13.818394,
 0.13842,0.846197\O,0,-14.447547,1.191433,0.691401\O,0,-14.370563,-0.95
 9559,0.981176\C,0,-5.145983,1.806775,-0.039761\N,0,-3.745741,1.738462,
 0.009156\C,0,-3.273952,2.971402,0.377942\C,0,-4.383055,3.834271,0.5635
 82\C,0,-5.549612,3.142198,0.296329\C,0,-6.923467,3.740777,0.329652\C,0
 ,-1.919495,3.423165,0.57676\C,0,-0.745162,2.831116,0.236152\C,0,0.5876
 78,3.364608,0.481957\C,0,0.848253,4.570738,1.17413\C,0,2.142914,5.0171
 41,1.37313\C,0,3.235104,4.27351,0.888807\O,0,4.469425,4.799087,1.14284
 5\C,0,5.626819,4.091394,0.669112\C,0,6.856183,4.871793,1.097696\O,0,6.
 921557,6.195954,0.57981\C,0,7.170792,6.268767,-0.825962\C,0,7.586936,7
 .689078,-1.161238\O,0,8.833392,8.043903,-0.553038\C,0,9.936802,8.17941
 2,-1.449157\C,0,10.41956,6.865447,-2.058176\O,0,10.698485,5.841566,-1.
 105873\C,0,11.840827,6.098025,-0.294813\C,0,3.0068,3.075173,0.200835\C
 ,0,1.697689,2.639377,0.008495\C,0,-7.283003,-2.157968,-1.402045\C,0,-2
 .239507,-2.462955,-0.862348\C,0,-1.873401,-3.692994,-1.307604\C,0,-0.5
 37233,-4.26686,-1.288209\C,0,-0.345764,-5.557438,-1.816853\C,0,0.90325
 1,-6.173855,-1.832277\C,0,2.008556,-5.493909,-1.30482\O,0,3.278237,-5.
 992607,-1.263668\C,0,3.517531,-7.305754,-1.797732\C,0,4.986396,-7.6154
 39,-1.636377\O,0,5.277088,-7.758132,-0.246635\C,0,6.623475,-8.146559,0
 .025853\C,0,7.588535,-6.958676,-0.004566\O,0,8.914938,-7.39203,0.31498
 6\C,0,9.230564,-7.36479,1.708562\C,0,9.831054,-6.017475,2.095291\O,0,1
 0.150638,-6.066825,3.480076\C,0,10.742739,-4.858446,3.938483\C,0,1.843
 14,-4.202445,-0.770407\C,0,0.596565,-3.602625,-0.763388\F,0,-2.146927,
 0.118986,0.859732\F,0,-2.083681,0.621071,-1.370354\H,0,-4.839194,-3.70
 7247,-1.553819\H,0,-7.65596,-0.60217,1.271969\H,0,-7.735139,1.084321,1
 .710486\H,0,-9.838152,2.428909,0.641505\H,0,-12.316841,2.33044,0.58886
 7\H,0,-12.161952,-1.931047,1.163957\H,0,-9.680374,-1.832279,1.211764\H
 ,0,-4.305557,4.876357,0.844141\H,0,-7.559553,3.285785,1.096471\H,0,-6.
 850531,4.807232,0.556232\H,0,-7.438163,3.633024,-0.629303\H,0,-1.89017
 8,4.404195,1.044766\H,0,-0.762577,1.886409,-0.293209\H,0,0.028494,5.16
 4775,1.565029\H,0,2.338162,5.942303,1.906039\H,0,5.668915,3.089514,1.1
 13556\H,0,5.575803,3.984271,-0.420081\H,0,6.859306,4.976387,2.186945\H
 ,0,7.744813,4.294122,0.803947\H,0,7.95993,5.558101,-1.103763\H,0,6.266
 781,6.020343,-1.400706\H,0,7.630645,7.805145,-2.250645\H,0,6.826969,8.
 382855,-0.780774\H,0,9.689762,8.865175,-2.27334\H,0,10.7315,8.645717,-
 0.859427\H,0,9.652856,6.448589,-2.718218\H,0,11.310344,7.079718,-2.669
 419\H,0,12.040645,5.184573,0.27101\H,0,12.720799,6.336747,-0.908481\H,
 0,11.674187,6.918314,0.414726\H,0,3.829,2.48253,-0.180443\H,0,1.528146
 ,1.70785,-0.524552\H,0,-7.916493,-2.121646,-0.509291\H,0,-7.720376,-1.
 477639,-2.138903\H,0,-7.338839,-3.172722,-1.803313\H,0,-1.499019,-1.79
 4287,-0.438936\H,0,-2.6383,-4.339091,-1.734173\H,0,-1.199667,-6.0902,-
 2.226301\H,0,1.003539,-7.168204,-2.249299\H,0,2.910478,-8.043728,-1.26
 0812\H,0,3.254145,-7.334174,-2.861283\H,0,5.204292,-8.551227,-2.171116
 \H,0,5.585818,-6.816622,-2.092294\H,0,6.617538,-8.589327,1.027013\H,0,
 6.957298,-8.915661,-0.684438\H,0,7.636184,-6.523111,-1.007087\H,0,7.24
 4537,-6.179545,0.686723\H,0,8.346752,-7.574101,2.323529\H,0,9.962003,-
 8.159341,1.888479\H,0,10.732915,-5.826395,1.493886\H,0,9.115768,-5.205
 299,1.892664\H,0,10.956243,-4.982853,5.002955\H,0,11.68122,-4.643606,3
 .407798\H,0,10.064848,-4.002988,3.807157\H,0,2.71073,-3.691088,-0.3659
 17\H,0,0.499997,-2.606138,-0.344739\\Version=ES64L-G16RevA.03\State=1-
 A\HF=-3117.1670868\RMSD=2.758e-09\Dipole=3.6030499,-1.2533253,-1.13978
 22\Quadrupole=-46.1910012,41.2942153,4.8967859,18.5305068,-33.6670187,
 9.9309846\PG=C01 [X(C49H56B1F2N3O11)]\\@


 IT CANNOT BE MY BEAUTY, FOR I HAVE NONE; AND IT CANNOT BE MY WIT,
 FOR HE HAS NOT ENOUGH TO KNOW THAT I HAVE ANY.
 -- CATHARINE SEDLEY, PUZZLED ABOUT WHY SHE WAS MISTRESS TO JAMES II
 Job cpu time:       1 days  7 hours  1 minutes 27.8 seconds.
 Elapsed time:       0 days  0 hours 29 minutes 43.8 seconds.
 File lengths (MBytes):  RWF=   5344 Int=      0 D2E=      0 Chk=    463 Scr=      1
 Normal termination of Gaussian 16 at Wed Nov  5 23:29:09 2025.
