 Entering Gaussian System, Link 0=g16
 Input=BE_CHO_sp.gjf
 Output=BE_CHO_sp.log
 Initial command:
 /public/software/gauss/g16/l1.exe "/public/home/baiding/1028_sp/tmp_BE_CHO_sp_1538822/Gau-39544.inp" -scrdir="/public/home/baiding/1028_sp/tmp_BE_CHO_sp_1538822/"
 Entering Link 1 = /public/software/gauss/g16/l1.exe PID=     39545.
  
 Copyright (c) 1988,1990,1992,1993,1995,1998,2003,2009,2016,
            Gaussian, Inc.  All Rights Reserved.
  
 This is part of the Gaussian(R) 16 program.  It is based on
 the Gaussian(R) 09 system (copyright 2009, Gaussian, Inc.),
 the Gaussian(R) 03 system (copyright 2003, Gaussian, Inc.),
 the Gaussian(R) 98 system (copyright 1998, Gaussian, Inc.),
 the Gaussian(R) 94 system (copyright 1995, Gaussian, Inc.),
 the Gaussian 92(TM) system (copyright 1992, Gaussian, Inc.),
 the Gaussian 90(TM) system (copyright 1990, Gaussian, Inc.),
 the Gaussian 88(TM) system (copyright 1988, Gaussian, Inc.),
 the Gaussian 86(TM) system (copyright 1986, Carnegie Mellon
 University), and the Gaussian 82(TM) system (copyright 1983,
 Carnegie Mellon University). Gaussian is a federally registered
 trademark of Gaussian, Inc.
  
 This software contains proprietary and confidential information,
 including trade secrets, belonging to Gaussian, Inc.
  
 This software is provided under written license and may be
 used, copied, transmitted, or stored only in accord with that
 written license.
  
 The following legend is applicable only to US Government
 contracts under FAR:
  
                    RESTRICTED RIGHTS LEGEND
  
 Use, reproduction and disclosure by the US Government is
 subject to restrictions as set forth in subparagraphs (a)
 and (c) of the Commercial Computer Software - Restricted
 Rights clause in FAR 52.227-19.
  
 Gaussian, Inc.
 340 Quinnipiac St., Bldg. 40, Wallingford CT 06492
  
  
 ---------------------------------------------------------------
 Warning -- This program may not be used in any manner that
 competes with the business of Gaussian, Inc. or will provide
 assistance to any competitor of Gaussian, Inc.  The licensee
 of this program is prohibited from giving any competitor of
 Gaussian, Inc. access to this program.  By using this program,
 the user acknowledges that Gaussian, Inc. is engaged in the
 business of creating and licensing software in the field of
 computational chemistry and represents and warrants to the
 licensee that it is not a competitor of Gaussian, Inc. and that
 it will not use this program in any manner prohibited above.
 ---------------------------------------------------------------
  

 Cite this work as:
 Gaussian 16, Revision A.03,
 M. J. Frisch, G. W. Trucks, H. B. Schlegel, G. E. Scuseria, 
 M. A. Robb, J. R. Cheeseman, G. Scalmani, V. Barone, 
 G. A. Petersson, H. Nakatsuji, X. Li, M. Caricato, A. V. Marenich, 
 J. Bloino, B. G. Janesko, R. Gomperts, B. Mennucci, H. P. Hratchian, 
 J. V. Ortiz, A. F. Izmaylov, J. L. Sonnenberg, D. Williams-Young, 
 F. Ding, F. Lipparini, F. Egidi, J. Goings, B. Peng, A. Petrone, 
 T. Henderson, D. Ranasinghe, V. G. Zakrzewski, J. Gao, N. Rega, 
 G. Zheng, W. Liang, M. Hada, M. Ehara, K. Toyota, R. Fukuda, 
 J. Hasegawa, M. Ishida, T. Nakajima, Y. Honda, O. Kitao, H. Nakai, 
 T. Vreven, K. Throssell, J. A. Montgomery, Jr., J. E. Peralta, 
 F. Ogliaro, M. J. Bearpark, J. J. Heyd, E. N. Brothers, K. N. Kudin, 
 V. N. Staroverov, T. A. Keith, R. Kobayashi, J. Normand, 
 K. Raghavachari, A. P. Rendell, J. C. Burant, S. S. Iyengar, 
 J. Tomasi, M. Cossi, J. M. Millam, M. Klene, C. Adamo, R. Cammi, 
 J. W. Ochterski, R. L. Martin, K. Morokuma, O. Farkas, 
 J. B. Foresman, and D. J. Fox, Gaussian, Inc., Wallingford CT, 2016.
 
 ******************************************
 Gaussian 16:  ES64L-G16RevA.03 25-Dec-2016
                28-Oct-2025 
 ******************************************
 %nprocshared=64
 Will use up to   64 processors via shared memory.
 %mem=230GB
 %chk=BE_CHO_sp.chk
 ----------------------------------------------
 #p M062X/DEF2TZVPP scrf=(solvent=water) em=GD3
 ----------------------------------------------
 1/38=1,172=1/1;
 2/12=2,17=6,18=5,40=1/2;
 3/5=44,7=202,11=2,25=1,30=1,70=2201,72=1,74=-55,124=31/1,2,3;
 4//1;
 5/5=2,38=5,53=1/2;
 6/7=2,8=2,9=2,10=2,28=1/1;
 99/5=1,9=1/99;
 Leave Link    1 at Tue Oct 28 16:58:39 2025, MaxMem= 30870077440 cpu:              19.8 elap:               0.3
 (Enter /public/software/gauss/g16/l101.exe)
 -----------------------------
 Energy calculation for BE_CHO
 -----------------------------
 Symbolic Z-matrix:
 Charge =  0 Multiplicity = 1
 B                    -2.84553   0.28525  -0.48543 
 N                    -3.8357   -0.74949  -1.0855 
 C                    -3.53074  -1.91449  -1.74078 
 C                    -4.73199  -2.45696  -2.26406 
 C                    -5.79149  -1.64206  -1.91328 
 C                    -5.21918  -0.55506  -1.16992 
 C                    -5.80808   0.59083  -0.6177 
 C                    -7.32015   0.71554  -0.60313 
 O                    -7.90603   1.27992  -1.51178 
 C                    -8.0134    0.09362   0.60129 
 C                    -9.49768   0.34515   0.68073 
 C                    -10.37332  -0.23172  -0.25167 
 C                    -11.74218   0.00285  -0.17042 
 C                    -12.25997   0.81962   0.84654 
 C                    -11.38811   1.39845   1.78281 
 C                    -10.02179   1.16218   1.69622 
 C                    -13.70973   1.05143   0.91408 
 O                    -14.26871   1.74465   1.75989 
 C                    -5.04212   1.62376  -0.06153 
 N                    -3.64585   1.53333  -0.02488 
 C                    -3.16477   2.65949   0.59205 
 C                    -4.26854   3.47964   0.94128 
 C                    -5.43877   2.86741   0.53652 
 C                    -6.80937   3.45479   0.68456 
 C                    -1.81187   3.04828   0.90099 
 C                    -0.63203   2.51663   0.48651 
 C                     0.69604   2.98118   0.86121 
 C                     0.944     4.03245   1.7751 
 C                     2.2347    4.42748   2.07943 
 C                     3.33535   3.78461   1.48292 
 O                     4.56434   4.25103   1.851 
 C                     5.73062   3.64449   1.26959 
 C                     6.94781   4.34182   1.82829 
 O                     6.97995   5.68198   1.35249 
 C                     8.10854   6.40271   1.8403 
 C                     8.07143   7.81332   1.27997 
 O                     8.13546   7.87794  -0.14407 
 C                     9.42752   7.61468  -0.68794 
 C                     9.36488   7.96726  -2.17251 
 O                     10.6124   7.74903  -2.82482 
 C                     10.81483   6.39905  -3.23607 
 C                     3.11985   2.73609   0.57972 
 C                     1.81454   2.35076   0.28296 
 C                    -7.21884  -1.87959  -2.30435 
 C                    -2.25958  -2.56664  -1.92733 
 C                    -1.07152  -2.34381  -1.30665 
 C                     0.17288  -3.05615  -1.55756 
 C                     1.30248  -2.73355  -0.78043 
 C                     2.53045  -3.36692  -0.95276 
 C                     2.65922  -4.35692  -1.93542 
 O                     3.80221  -5.05102  -2.22146 
 C                     5.06831  -4.68406  -1.63858 
 C                     5.4153   -5.52027  -0.42443 
 O                     4.59629  -5.14094   0.67967 
 C                     4.92998  -5.77589   1.9163 
 C                     4.29203  -7.1482    2.09393 
 O                     4.8114   -8.17672   1.24839 
 C                     6.07907  -8.68679   1.65797 
 C                     6.37476  -9.90266   0.78213 
 O                     7.65862  -10.45835   1.04821 
 C                     7.69308  -11.29645   2.20136 
 C                     1.54464  -4.69757  -2.72495 
 C                     0.32918  -4.06245  -2.53854 
 F                    -2.16864  -0.25485   0.62168 
 F                    -1.91544   0.63823  -1.47739 
 H                    -4.78897  -3.37263  -2.83755 
 H                    -7.79432  -0.9819    0.55471 
 H                    -7.49913   0.45532   1.4985 
 H                    -9.97886  -0.86864  -1.03719 
 H                    -12.419   -0.44673  -0.89211 
 H                    -11.79325   2.02664   2.56961 
 H                    -9.34774   1.60622   2.42282 
 H                    -14.30079   0.54568   0.12652 
 H                    -4.18247   4.4425    1.42718 
 H                    -7.47161   2.82951   1.29224 
 H                    -6.7371    4.42891   1.17429 
 H                    -7.29661   3.59907  -0.28436 
 H                    -1.78821   3.92406   1.54504 
 H                    -0.64134   1.68669  -0.2091 
 H                     0.11747   4.54514   2.25616 
 H                     2.42014   5.23471   2.78078 
 H                     5.77096   2.57973   1.52647 
 H                     5.69971   3.74573   0.17864 
 H                     6.92227   4.3221    2.92803 
 H                     7.84303   3.79111   1.50285 
 H                     8.08462   6.4643    2.93936 
 H                     9.03806   5.88537   1.56085 
 H                     7.12343   8.28622   1.5555 
 H                     8.89001   8.39323   1.73014 
 H                     10.18797   8.23377  -0.18991 
 H                     9.70776   6.56173  -0.55293 
 H                     8.56399   7.39349  -2.65969 
 H                     9.13347   9.03185  -2.28089 
 H                     11.7754   6.36532  -3.75614 
 H                     10.85025   5.70364  -2.38803 
 H                     10.02406   6.07167  -3.92521 
 H                     3.94927   2.22227   0.10995 
 H                     1.65482   1.53718  -0.41931 
 H                    -7.86035  -2.0722   -1.43758 
 H                    -7.64298  -1.02812  -2.84389 
 H                    -7.27684  -2.75511  -2.95557 
 H                    -2.32436  -3.37343  -2.65366 
 H                    -1.01533  -1.59165  -0.52881 
 H                     1.21155  -1.96844  -0.01413 
 H                     3.36033  -3.10628  -0.3097 
 H                     5.80774  -4.89158  -2.417 
 H                     5.09917  -3.61453  -1.4138 
 H                     5.28822  -6.58288  -0.66215 
 H                     6.47671  -5.34979  -0.18741 
 H                     6.02093  -5.82211   2.03694 
 H                     4.53527  -5.12601   2.70518 
 H                     4.38842  -7.44489   3.14941 
 H                     3.22588  -7.07597   1.85559 
 H                     6.87601  -7.9422    1.52819 
 H                     6.04342  -8.96384   2.72105 
 H                     5.58747  -10.65877   0.9123 
 H                     6.38008  -9.59547  -0.26882 
 H                     6.96628  -12.11635   2.11756 
 H                     8.6996   -11.71837   2.25752 
 H                     7.49249  -10.74361   3.12762 
 H                     1.66108  -5.46401  -3.48454 
 H                    -0.50776  -4.34555  -3.1687 
 
 ITRead=  0  0  0  0  0  0  0  0  0  0  0  0  0  0  0  0  0  0  0  0
 ITRead=  0  0  0  0  0  0  0  0  0  0  0  0  0  0  0  0  0  0  0  0
 ITRead=  0  0  0  0  0  0  0  0  0  0  0  0  0  0  0  0  0  0  0  0
 ITRead=  0  0  0  0  0  0  0  0  0  0  0  0  0  0  0  0  0  0  0  0
 ITRead=  0  0  0  0  0  0  0  0  0  0  0  0  0  0  0  0  0  0  0  0
 ITRead=  0  0  0  0  0  0  0  0  0  0  0  0  0  0  0  0  0  0  0  0
 ITRead=  0  0
 MicOpt= -1 -1 -1 -1 -1 -1 -1 -1 -1 -1 -1 -1 -1 -1 -1 -1 -1 -1 -1 -1
 MicOpt= -1 -1 -1 -1 -1 -1 -1 -1 -1 -1 -1 -1 -1 -1 -1 -1 -1 -1 -1 -1
 MicOpt= -1 -1 -1 -1 -1 -1 -1 -1 -1 -1 -1 -1 -1 -1 -1 -1 -1 -1 -1 -1
 MicOpt= -1 -1 -1 -1 -1 -1 -1 -1 -1 -1 -1 -1 -1 -1 -1 -1 -1 -1 -1 -1
 MicOpt= -1 -1 -1 -1 -1 -1 -1 -1 -1 -1 -1 -1 -1 -1 -1 -1 -1 -1 -1 -1
 MicOpt= -1 -1 -1 -1 -1 -1 -1 -1 -1 -1 -1 -1 -1 -1 -1 -1 -1 -1 -1 -1
 MicOpt= -1 -1
 NAtoms=    122 NQM=      122 NQMF=       0 NMMI=      0 NMMIF=      0
                NMic=       0 NMicF=      0.
                    Isotopes and Nuclear Properties:
 (Nuclear quadrupole moments (NQMom) in fm**2, nuclear magnetic moments (NMagM)
  in nuclear magnetons)

  Atom         1           2           3           4           5           6           7           8           9          10
 IAtWgt=          11          14          12          12          12          12          12          12          16          12
 AtmWgt=  11.0093053  14.0030740  12.0000000  12.0000000  12.0000000  12.0000000  12.0000000  12.0000000  15.9949146  12.0000000
 NucSpn=           3           2           0           0           0           0           0           0           0           0
 AtZEff=  -0.0000000  -0.0000000  -0.0000000  -0.0000000  -0.0000000  -0.0000000  -0.0000000  -0.0000000  -0.0000000  -0.0000000
 NQMom=    4.0590000   2.0440000   0.0000000   0.0000000   0.0000000   0.0000000   0.0000000   0.0000000   0.0000000   0.0000000
 NMagM=    2.6886370   0.4037610   0.0000000   0.0000000   0.0000000   0.0000000   0.0000000   0.0000000   0.0000000   0.0000000
 AtZNuc=   5.0000000   7.0000000   6.0000000   6.0000000   6.0000000   6.0000000   6.0000000   6.0000000   8.0000000   6.0000000

  Atom        11          12          13          14          15          16          17          18          19          20
 IAtWgt=          12          12          12          12          12          12          12          16          12          14
 AtmWgt=  12.0000000  12.0000000  12.0000000  12.0000000  12.0000000  12.0000000  12.0000000  15.9949146  12.0000000  14.0030740
 NucSpn=           0           0           0           0           0           0           0           0           0           2
 AtZEff=  -0.0000000  -0.0000000  -0.0000000  -0.0000000  -0.0000000  -0.0000000  -0.0000000  -0.0000000  -0.0000000  -0.0000000
 NQMom=    0.0000000   0.0000000   0.0000000   0.0000000   0.0000000   0.0000000   0.0000000   0.0000000   0.0000000   2.0440000
 NMagM=    0.0000000   0.0000000   0.0000000   0.0000000   0.0000000   0.0000000   0.0000000   0.0000000   0.0000000   0.4037610
 AtZNuc=   6.0000000   6.0000000   6.0000000   6.0000000   6.0000000   6.0000000   6.0000000   8.0000000   6.0000000   7.0000000

  Atom        21          22          23          24          25          26          27          28          29          30
 IAtWgt=          12          12          12          12          12          12          12          12          12          12
 AtmWgt=  12.0000000  12.0000000  12.0000000  12.0000000  12.0000000  12.0000000  12.0000000  12.0000000  12.0000000  12.0000000
 NucSpn=           0           0           0           0           0           0           0           0           0           0
 AtZEff=  -0.0000000  -0.0000000  -0.0000000  -0.0000000  -0.0000000  -0.0000000  -0.0000000  -0.0000000  -0.0000000  -0.0000000
 NQMom=    0.0000000   0.0000000   0.0000000   0.0000000   0.0000000   0.0000000   0.0000000   0.0000000   0.0000000   0.0000000
 NMagM=    0.0000000   0.0000000   0.0000000   0.0000000   0.0000000   0.0000000   0.0000000   0.0000000   0.0000000   0.0000000
 AtZNuc=   6.0000000   6.0000000   6.0000000   6.0000000   6.0000000   6.0000000   6.0000000   6.0000000   6.0000000   6.0000000

  Atom        31          32          33          34          35          36          37          38          39          40
 IAtWgt=          16          12          12          16          12          12          16          12          12          16
 AtmWgt=  15.9949146  12.0000000  12.0000000  15.9949146  12.0000000  12.0000000  15.9949146  12.0000000  12.0000000  15.9949146
 NucSpn=           0           0           0           0           0           0           0           0           0           0
 AtZEff=  -0.0000000  -0.0000000  -0.0000000  -0.0000000  -0.0000000  -0.0000000  -0.0000000  -0.0000000  -0.0000000  -0.0000000
 NQMom=    0.0000000   0.0000000   0.0000000   0.0000000   0.0000000   0.0000000   0.0000000   0.0000000   0.0000000   0.0000000
 NMagM=    0.0000000   0.0000000   0.0000000   0.0000000   0.0000000   0.0000000   0.0000000   0.0000000   0.0000000   0.0000000
 AtZNuc=   8.0000000   6.0000000   6.0000000   8.0000000   6.0000000   6.0000000   8.0000000   6.0000000   6.0000000   8.0000000

  Atom        41          42          43          44          45          46          47          48          49          50
 IAtWgt=          12          12          12          12          12          12          12          12          12          12
 AtmWgt=  12.0000000  12.0000000  12.0000000  12.0000000  12.0000000  12.0000000  12.0000000  12.0000000  12.0000000  12.0000000
 NucSpn=           0           0           0           0           0           0           0           0           0           0
 AtZEff=  -0.0000000  -0.0000000  -0.0000000  -0.0000000  -0.0000000  -0.0000000  -0.0000000  -0.0000000  -0.0000000  -0.0000000
 NQMom=    0.0000000   0.0000000   0.0000000   0.0000000   0.0000000   0.0000000   0.0000000   0.0000000   0.0000000   0.0000000
 NMagM=    0.0000000   0.0000000   0.0000000   0.0000000   0.0000000   0.0000000   0.0000000   0.0000000   0.0000000   0.0000000
 AtZNuc=   6.0000000   6.0000000   6.0000000   6.0000000   6.0000000   6.0000000   6.0000000   6.0000000   6.0000000   6.0000000

  Atom        51          52          53          54          55          56          57          58          59          60
 IAtWgt=          16          12          12          16          12          12          16          12          12          16
 AtmWgt=  15.9949146  12.0000000  12.0000000  15.9949146  12.0000000  12.0000000  15.9949146  12.0000000  12.0000000  15.9949146
 NucSpn=           0           0           0           0           0           0           0           0           0           0
 AtZEff=  -0.0000000  -0.0000000  -0.0000000  -0.0000000  -0.0000000  -0.0000000  -0.0000000  -0.0000000  -0.0000000  -0.0000000
 NQMom=    0.0000000   0.0000000   0.0000000   0.0000000   0.0000000   0.0000000   0.0000000   0.0000000   0.0000000   0.0000000
 NMagM=    0.0000000   0.0000000   0.0000000   0.0000000   0.0000000   0.0000000   0.0000000   0.0000000   0.0000000   0.0000000
 AtZNuc=   8.0000000   6.0000000   6.0000000   8.0000000   6.0000000   6.0000000   8.0000000   6.0000000   6.0000000   8.0000000

  Atom        61          62          63          64          65          66          67          68          69          70
 IAtWgt=          12          12          12          19          19           1           1           1           1           1
 AtmWgt=  12.0000000  12.0000000  12.0000000  18.9984033  18.9984033   1.0078250   1.0078250   1.0078250   1.0078250   1.0078250
 NucSpn=           0           0           0           1           1           1           1           1           1           1
 AtZEff=  -0.0000000  -0.0000000  -0.0000000  -0.0000000  -0.0000000  -0.0000000  -0.0000000  -0.0000000  -0.0000000  -0.0000000
 NQMom=    0.0000000   0.0000000   0.0000000   0.0000000   0.0000000   0.0000000   0.0000000   0.0000000   0.0000000   0.0000000
 NMagM=    0.0000000   0.0000000   0.0000000   2.6288670   2.6288670   2.7928460   2.7928460   2.7928460   2.7928460   2.7928460
 AtZNuc=   6.0000000   6.0000000   6.0000000   9.0000000   9.0000000   1.0000000   1.0000000   1.0000000   1.0000000   1.0000000

  Atom        71          72          73          74          75          76          77          78          79          80
 IAtWgt=           1           1           1           1           1           1           1           1           1           1
 AtmWgt=   1.0078250   1.0078250   1.0078250   1.0078250   1.0078250   1.0078250   1.0078250   1.0078250   1.0078250   1.0078250
 NucSpn=           1           1           1           1           1           1           1           1           1           1
 AtZEff=  -0.0000000  -0.0000000  -0.0000000  -0.0000000  -0.0000000  -0.0000000  -0.0000000  -0.0000000  -0.0000000  -0.0000000
 NQMom=    0.0000000   0.0000000   0.0000000   0.0000000   0.0000000   0.0000000   0.0000000   0.0000000   0.0000000   0.0000000
 NMagM=    2.7928460   2.7928460   2.7928460   2.7928460   2.7928460   2.7928460   2.7928460   2.7928460   2.7928460   2.7928460
 AtZNuc=   1.0000000   1.0000000   1.0000000   1.0000000   1.0000000   1.0000000   1.0000000   1.0000000   1.0000000   1.0000000

  Atom        81          82          83          84          85          86          87          88          89          90
 IAtWgt=           1           1           1           1           1           1           1           1           1           1
 AtmWgt=   1.0078250   1.0078250   1.0078250   1.0078250   1.0078250   1.0078250   1.0078250   1.0078250   1.0078250   1.0078250
 NucSpn=           1           1           1           1           1           1           1           1           1           1
 AtZEff=  -0.0000000  -0.0000000  -0.0000000  -0.0000000  -0.0000000  -0.0000000  -0.0000000  -0.0000000  -0.0000000  -0.0000000
 NQMom=    0.0000000   0.0000000   0.0000000   0.0000000   0.0000000   0.0000000   0.0000000   0.0000000   0.0000000   0.0000000
 NMagM=    2.7928460   2.7928460   2.7928460   2.7928460   2.7928460   2.7928460   2.7928460   2.7928460   2.7928460   2.7928460
 AtZNuc=   1.0000000   1.0000000   1.0000000   1.0000000   1.0000000   1.0000000   1.0000000   1.0000000   1.0000000   1.0000000

  Atom        91          92          93          94          95          96          97          98          99         100
 IAtWgt=           1           1           1           1           1           1           1           1           1           1
 AtmWgt=   1.0078250   1.0078250   1.0078250   1.0078250   1.0078250   1.0078250   1.0078250   1.0078250   1.0078250   1.0078250
 NucSpn=           1           1           1           1           1           1           1           1           1           1
 AtZEff=  -0.0000000  -0.0000000  -0.0000000  -0.0000000  -0.0000000  -0.0000000  -0.0000000  -0.0000000  -0.0000000  -0.0000000
 NQMom=    0.0000000   0.0000000   0.0000000   0.0000000   0.0000000   0.0000000   0.0000000   0.0000000   0.0000000   0.0000000
 NMagM=    2.7928460   2.7928460   2.7928460   2.7928460   2.7928460   2.7928460   2.7928460   2.7928460   2.7928460   2.7928460
 AtZNuc=   1.0000000   1.0000000   1.0000000   1.0000000   1.0000000   1.0000000   1.0000000   1.0000000   1.0000000   1.0000000

  Atom       101         102         103         104         105         106         107         108         109         110
 IAtWgt=           1           1           1           1           1           1           1           1           1           1
 AtmWgt=   1.0078250   1.0078250   1.0078250   1.0078250   1.0078250   1.0078250   1.0078250   1.0078250   1.0078250   1.0078250
 NucSpn=           1           1           1           1           1           1           1           1           1           1
 AtZEff=  -0.0000000  -0.0000000  -0.0000000  -0.0000000  -0.0000000  -0.0000000  -0.0000000  -0.0000000  -0.0000000  -0.0000000
 NQMom=    0.0000000   0.0000000   0.0000000   0.0000000   0.0000000   0.0000000   0.0000000   0.0000000   0.0000000   0.0000000
 NMagM=    2.7928460   2.7928460   2.7928460   2.7928460   2.7928460   2.7928460   2.7928460   2.7928460   2.7928460   2.7928460
 AtZNuc=   1.0000000   1.0000000   1.0000000   1.0000000   1.0000000   1.0000000   1.0000000   1.0000000   1.0000000   1.0000000

  Atom       111         112         113         114         115         116         117         118         119         120
 IAtWgt=           1           1           1           1           1           1           1           1           1           1
 AtmWgt=   1.0078250   1.0078250   1.0078250   1.0078250   1.0078250   1.0078250   1.0078250   1.0078250   1.0078250   1.0078250
 NucSpn=           1           1           1           1           1           1           1           1           1           1
 AtZEff=  -0.0000000  -0.0000000  -0.0000000  -0.0000000  -0.0000000  -0.0000000  -0.0000000  -0.0000000  -0.0000000  -0.0000000
 NQMom=    0.0000000   0.0000000   0.0000000   0.0000000   0.0000000   0.0000000   0.0000000   0.0000000   0.0000000   0.0000000
 NMagM=    2.7928460   2.7928460   2.7928460   2.7928460   2.7928460   2.7928460   2.7928460   2.7928460   2.7928460   2.7928460
 AtZNuc=   1.0000000   1.0000000   1.0000000   1.0000000   1.0000000   1.0000000   1.0000000   1.0000000   1.0000000   1.0000000

  Atom       121         122
 IAtWgt=           1           1
 AtmWgt=   1.0078250   1.0078250
 NucSpn=           1           1
 AtZEff=  -0.0000000  -0.0000000
 NQMom=    0.0000000   0.0000000
 NMagM=    2.7928460   2.7928460
 AtZNuc=   1.0000000   1.0000000
 Leave Link  101 at Tue Oct 28 16:58:39 2025, MaxMem= 30870077440 cpu:               5.1 elap:               0.1
 (Enter /public/software/gauss/g16/l202.exe)
 Stoichiometry    C50H57BF2N2O10
 Framework group  C1[X(C50H57BF2N2O10)]
 Deg. of freedom   360
 Full point group                 C1      NOp   1
 Largest Abelian subgroup         C1      NOp   1
 Largest concise Abelian subgroup C1      NOp   1
                         Standard orientation:                         
 ---------------------------------------------------------------------
 Center     Atomic      Atomic             Coordinates (Angstroms)
 Number     Number       Type             X           Y           Z
 ---------------------------------------------------------------------
      1          5           0       -2.845534   -0.285245    0.485431
      2          7           0       -3.835703    0.749485    1.085499
      3          6           0       -3.530741    1.914494    1.740778
      4          6           0       -4.731986    2.456959    2.264063
      5          6           0       -5.791493    1.642063    1.913279
      6          6           0       -5.219184    0.555061    1.169922
      7          6           0       -5.808084   -0.590833    0.617696
      8          6           0       -7.320155   -0.715535    0.603127
      9          8           0       -7.906029   -1.279915    1.511784
     10          6           0       -8.013401   -0.093622   -0.601288
     11          6           0       -9.497676   -0.345149   -0.680732
     12          6           0      -10.373318    0.231717    0.251672
     13          6           0      -11.742176   -0.002854    0.170424
     14          6           0      -12.259966   -0.819623   -0.846541
     15          6           0      -11.388110   -1.398445   -1.782808
     16          6           0      -10.021787   -1.162181   -1.696218
     17          6           0      -13.709726   -1.051433   -0.914078
     18          8           0      -14.268710   -1.744647   -1.759886
     19          6           0       -5.042123   -1.623763    0.061531
     20          7           0       -3.645847   -1.533327    0.024879
     21          6           0       -3.164769   -2.659486   -0.592049
     22          6           0       -4.268541   -3.479643   -0.941276
     23          6           0       -5.438769   -2.867409   -0.536522
     24          6           0       -6.809371   -3.454794   -0.684561
     25          6           0       -1.811873   -3.048276   -0.900986
     26          6           0       -0.632034   -2.516630   -0.486511
     27          6           0        0.696035   -2.981181   -0.861209
     28          6           0        0.943995   -4.032447   -1.775095
     29          6           0        2.234696   -4.427483   -2.079429
     30          6           0        3.335345   -3.784614   -1.482920
     31          8           0        4.564341   -4.251034   -1.851004
     32          6           0        5.730624   -3.644485   -1.269594
     33          6           0        6.947805   -4.341820   -1.828285
     34          8           0        6.979952   -5.681983   -1.352489
     35          6           0        8.108539   -6.402712   -1.840296
     36          6           0        8.071431   -7.813320   -1.279967
     37          8           0        8.135456   -7.877937    0.144073
     38          6           0        9.427516   -7.614678    0.687938
     39          6           0        9.364877   -7.967260    2.172506
     40          8           0       10.612401   -7.749034    2.824821
     41          6           0       10.814826   -6.399045    3.236071
     42          6           0        3.119854   -2.736087   -0.579719
     43          6           0        1.814541   -2.350757   -0.282957
     44          6           0       -7.218835    1.879586    2.304346
     45          6           0       -2.259579    2.566637    1.927329
     46          6           0       -1.071522    2.343806    1.306645
     47          6           0        0.172881    3.056155    1.557564
     48          6           0        1.302479    2.733545    0.780432
     49          6           0        2.530450    3.366915    0.952763
     50          6           0        2.659219    4.356922    1.935417
     51          8           0        3.802209    5.051020    2.221462
     52          6           0        5.068308    4.684059    1.638575
     53          6           0        5.415296    5.520272    0.424429
     54          8           0        4.596290    5.140936   -0.679667
     55          6           0        4.929979    5.775887   -1.916296
     56          6           0        4.292031    7.148198   -2.093927
     57          8           0        4.811397    8.176718   -1.248389
     58          6           0        6.079068    8.686794   -1.657971
     59          6           0        6.374755    9.902661   -0.782131
     60          8           0        7.658621   10.458348   -1.048206
     61          6           0        7.693075   11.296455   -2.201361
     62          6           0        1.544636    4.697567    2.724954
     63          6           0        0.329183    4.062449    2.538543
     64          9           0       -2.168635    0.254851   -0.621681
     65          9           0       -1.915435   -0.638229    1.477388
     66          1           0       -4.788972    3.372630    2.837548
     67          1           0       -7.794316    0.981899   -0.554714
     68          1           0       -7.499125   -0.455315   -1.498495
     69          1           0       -9.978856    0.868644    1.037185
     70          1           0      -12.418998    0.446729    0.892111
     71          1           0      -11.793251   -2.026643   -2.569613
     72          1           0       -9.347737   -1.606215   -2.422824
     73          1           0      -14.300786   -0.545680   -0.126516
     74          1           0       -4.182465   -4.442498   -1.427176
     75          1           0       -7.471610   -2.829514   -1.292241
     76          1           0       -6.737095   -4.428906   -1.174292
     77          1           0       -7.296613   -3.599074    0.284364
     78          1           0       -1.788206   -3.924058   -1.545039
     79          1           0       -0.641342   -1.686686    0.209103
     80          1           0        0.117469   -4.545144   -2.256158
     81          1           0        2.420140   -5.234706   -2.780783
     82          1           0        5.770961   -2.579727   -1.526473
     83          1           0        5.699713   -3.745725   -0.178638
     84          1           0        6.922270   -4.322097   -2.928027
     85          1           0        7.843028   -3.791106   -1.502850
     86          1           0        8.084616   -6.464300   -2.939359
     87          1           0        9.038060   -5.885372   -1.560854
     88          1           0        7.123427   -8.286217   -1.555500
     89          1           0        8.890010   -8.393232   -1.730140
     90          1           0       10.187972   -8.233772    0.189909
     91          1           0        9.707761   -6.561731    0.552929
     92          1           0        8.563985   -7.393487    2.659691
     93          1           0        9.133473   -9.031848    2.280888
     94          1           0       11.775401   -6.365324    3.756143
     95          1           0       10.850251   -5.703639    2.388031
     96          1           0       10.024060   -6.071672    3.925211
     97          1           0        3.949274   -2.222274   -0.109953
     98          1           0        1.654824   -1.537184    0.419311
     99          1           0       -7.860353    2.072197    1.437578
    100          1           0       -7.642978    1.028120    2.843890
    101          1           0       -7.276843    2.755111    2.955565
    102          1           0       -2.324357    3.373427    2.653662
    103          1           0       -1.015328    1.591653    0.528805
    104          1           0        1.211552    1.968435    0.014130
    105          1           0        3.360330    3.106284    0.309704
    106          1           0        5.807741    4.891581    2.416996
    107          1           0        5.099172    3.614529    1.413795
    108          1           0        5.288224    6.582880    0.662150
    109          1           0        6.476710    5.349791    0.187409
    110          1           0        6.020933    5.822108   -2.036936
    111          1           0        4.535271    5.126010   -2.705175
    112          1           0        4.388418    7.444888   -3.149409
    113          1           0        3.225876    7.075965   -1.855593
    114          1           0        6.876013    7.942203   -1.528190
    115          1           0        6.043418    8.963839   -2.721053
    116          1           0        5.587473   10.658767   -0.912299
    117          1           0        6.380084    9.595474    0.268823
    118          1           0        6.966284   12.116352   -2.117563
    119          1           0        8.699597   11.718374   -2.257516
    120          1           0        7.492485   10.743614   -3.127616
    121          1           0        1.661076    5.464005    3.484544
    122          1           0       -0.507756    4.345548    3.168702
 ---------------------------------------------------------------------
 Rotational constants (GHZ):           0.0226158           0.0122194           0.0084907
 Leave Link  202 at Tue Oct 28 16:58:39 2025, MaxMem= 30870077440 cpu:               0.2 elap:               0.0
 (Enter /public/software/gauss/g16/l301.exe)
 Standard basis: def2TZVPP (5D, 7F)
 Ernie: Thresh=  0.10000D-02 Tol=  0.10000D-05 Strict=F.
 There are  3195 symmetry adapted cartesian basis functions of A   symmetry.
 There are  2813 symmetry adapted basis functions of A   symmetry.
  2813 basis functions,  4284 primitive gaussians,  3195 cartesian basis functions
   237 alpha electrons      237 beta electrons
       nuclear repulsion energy      8575.1645959608 Hartrees.
 IExCor= 4336 DFT=T Ex+Corr=M062X ExCW=0 ScaHFX=  0.540000
 ScaDFX=  1.000000  1.000000  1.000000  1.000000 ScalE2=  1.000000  1.000000
 IRadAn=      5 IRanWt=     -1 IRanGd=            0 ICorTp=0 IEmpDi=131
 NAtoms=  122 NActive=  122 NUniq=  122 SFac= 1.00D+00 NAtFMM=   60 NAOKFM=T Big=T
 Integral buffers will be    131072 words long.
 Raffenetti 2 integral format.
 Two-electron integral symmetry is turned on.
 R6Disp:  Grimme-D3 Dispersion energy=       -0.0098706224 Hartrees.
 Nuclear repulsion after empirical dispersion term =     8575.1547253384 Hartrees.
 ------------------------------------------------------------------------------
 Polarizable Continuum Model (PCM)
 =================================
 Model                : PCM.
 Atomic radii         : UFF (Universal Force Field).
 Polarization charges : Total charges.
 Charge compensation  : None.
 Solution method      : On-the-fly selection.
 Cavity type          : Scaled VdW (van der Waals Surface) (Alpha=1.100).
 Cavity algorithm     : GePol (No added spheres)
                        Default sphere list used, NSphG=  122.
                        Lebedev-Laikov grids with approx.  5.0 points / Ang**2.
                        Smoothing algorithm: York/Karplus (Gamma=1.0000).
                        Polarization charges: spherical gaussians, with
                                              point-specific exponents (IZeta= 3).
                        Self-potential: point-specific (ISelfS= 7).
                        Self-field    : sphere-specific E.n sum rule (ISelfD= 2).
 Solvent              : Water, Eps=  78.355300 Eps(inf)=   1.777849
 ------------------------------------------------------------------------------
 GePol: Number of generator spheres                  =     122
 GePol: Total number of spheres                      =     122
 GePol: Number of exposed spheres                    =     122 (100.00%)
 GePol: Number of points                             =    8460
 GePol: Average weight of points                     =       0.13
 GePol: Minimum weight of points                     =   0.14D-10
 GePol: Maximum weight of points                     =    0.20577
 GePol: Number of points with low weight             =     636
 GePol: Fraction of low-weight points (<1% of avg)   =       7.52%
 GePol: Cavity surface area                          =   1084.143 Ang**2
 GePol: Cavity volume                                =   1231.973 Ang**3
 Leave Link  301 at Tue Oct 28 16:58:40 2025, MaxMem= 30870077440 cpu:               4.9 elap:               0.1
 (Enter /public/software/gauss/g16/l302.exe)
 NPDir=0 NMtPBC=     1 NCelOv=     1 NCel=       1 NClECP=     1 NCelD=      1
         NCelK=      1 NCelE2=     1 NClLst=     1 CellRange=     0.0.
 One-electron integrals computed using PRISM.
 One-electron integral symmetry used in STVInt
   1 Symmetry operations used in ECPInt.
 ECPInt:  NShTT=  559153 NPrTT= 1544247 LenC2=  238610 LenP2D=  439279.
 LDataN:  DoStor=T MaxTD1= 6 Len=  172
 Number of processors reduced to  59 by ecpmxn.
 NBasis=  2813 RedAO= T EigKep=  4.29D-06  NBF=  2813
 NBsUse=  2813 1.00D-06 EigRej= -1.00D+00 NBFU=  2813
 Precomputing XC quadrature grid using
 IXCGrd= 4 IRadAn=           5 IRanWt=          -1 IRanGd=           0 AccXCQ= 0.00D+00.
 Generated NRdTot=       0 NPtTot=           0 NUsed=           0 NTot=          32
 NSgBfM=  2361  2361  2361  2361  2361 MxSgAt=   122 MxSgA2=   122.
 Leave Link  302 at Tue Oct 28 16:59:08 2025, MaxMem= 30870077440 cpu:            1788.5 elap:              28.1
 (Enter /public/software/gauss/g16/l303.exe)
 DipDrv:  MaxL=1.
 Leave Link  303 at Tue Oct 28 16:59:09 2025, MaxMem= 30870077440 cpu:              54.8 elap:               0.9
 (Enter /public/software/gauss/g16/l401.exe)
 ExpMin= 6.06D-02 ExpMax= 3.55D+04 ExpMxC= 1.21D+03 IAcc=3 IRadAn=         5 AccDes= 0.00D+00
 Harris functional with IExCor= 1009 and IRadAn=       5 diagonalized for initial guess.
 HarFok:  IExCor= 1009 AccDes= 0.00D+00 IRadAn=         5 IDoV= 1 UseB2=F ITyADJ=14
 ICtDFT=  3500011 ScaDFX=  1.000000  1.000000  1.000000  1.000000
 FoFCou: FMM=F IPFlag=           0 FMFlag=      100000 FMFlg1=        2001
         NFxFlg=           0 DoJE=T BraDBF=F KetDBF=T FulRan=T
         wScrn=  0.000000 ICntrl=       500 IOpCl=  0 I1Cent=   200000004 NGrid=           0
         NMat0=    1 NMatS0=      1 NMatT0=    0 NMatD0=    1 NMtDS0=    0 NMtDT0=    0
 Petite list used in FoFCou.
 Harris En= -3024.41727199898    
 JPrj=0 DoOrth=F DoCkMO=F.
 Leave Link  401 at Tue Oct 28 16:59:31 2025, MaxMem= 30870077440 cpu:            1402.7 elap:              22.0
 (Enter /public/software/gauss/g16/l502.exe)
 Integral symmetry usage will be decided dynamically.
 Closed shell SCF:
 Using DIIS extrapolation, IDIIS=  1040.
 NGot= 30870077440 LenX= 30849429916 LenY= 30839218696
 Requested convergence on RMS density matrix=1.00D-08 within 128 cycles.
 Requested convergence on MAX density matrix=1.00D-06.
 Requested convergence on             energy=1.00D-06.
 No special actions if energy rises.
 Fock matrices will be formed incrementally for  20 cycles.

 Cycle   1  Pass 1  IDiag  1:
 FoFJK:  IHMeth= 1 ICntrl=       0 DoSepK=F KAlg= 0 I1Cent=           0 FoldK=F
 IRaf= 390000000 NMat=       1 IRICut=       1 DoRegI=T DoRafI=F ISym2E= 0 IDoP0=0 IntGTp=1.
 FoFCou: FMM=T IPFlag=           0 FMFlag=      100000 FMFlg1=        2001
         NFxFlg=           0 DoJE=F BraDBF=F KetDBF=F FulRan=T
         wScrn=  0.000000 ICntrl=         0 IOpCl=  0 I1Cent=           0 NGrid=           0
         NMat0=    1 NMatS0=      1 NMatT0=    0 NMatD0=    1 NMtDS0=    0 NMtDT0=    0
 Symmetry not used in FoFCou.
 FMM levels:  10  Number of levels for PrismC:   9
 Inv3:  Mode=1 IEnd=   214714800.
 Iteration    1 A*A^-1 deviation from unit magnitude is 1.95D-14 for    645.
 Iteration    1 A*A^-1 deviation from orthogonality  is 7.27D-15 for   8367    375.
 Iteration    1 A^-1*A deviation from unit magnitude is 1.95D-14 for    645.
 Iteration    1 A^-1*A deviation from orthogonality  is 1.29D-14 for   7305   7282.
 E= -3024.59635977822    
 DIIS: error= 1.43D-02 at cycle   1 NSaved=   1.
 NSaved= 1 IEnMin= 1 EnMin= -3024.59635977822     IErMin= 1 ErrMin= 1.43D-02
 ErrMax= 1.43D-02  0.00D+00 EMaxC= 1.00D-01 BMatC= 1.83D+00 BMatP= 1.83D+00
 IDIUse=3 WtCom= 8.57D-01 WtEn= 1.43D-01
 Coeff-Com:  0.100D+01
 Coeff-En:   0.100D+01
 Coeff:      0.100D+01
 Gap=     0.118 Goal=   None    Shift=    0.000
 GapD=    0.118 DampG=1.000 DampE=0.500 DampFc=0.5000 IDamp=-1.
 Damping current iteration by 5.00D-01
 RMSDP=1.48D-03 MaxDP=6.22D-01              OVMax= 1.68D-01

 Cycle   2  Pass 1  IDiag  1:
 RMSU=  7.40D-04    CP:  1.01D+00
 E= -3025.30428153129     Delta-E=       -0.707921753070 Rises=F Damp=T
 DIIS: error= 4.98D-03 at cycle   2 NSaved=   2.
 NSaved= 2 IEnMin= 2 EnMin= -3025.30428153129     IErMin= 2 ErrMin= 4.98D-03
 ErrMax= 4.98D-03  0.00D+00 EMaxC= 1.00D-01 BMatC= 1.91D-01 BMatP= 1.83D+00
 IDIUse=3 WtCom= 9.50D-01 WtEn= 4.98D-02
 Coeff-Com: -0.170D+00 0.117D+01
 Coeff-En:   0.000D+00 0.100D+01
 Coeff:     -0.161D+00 0.116D+01
 Gap=     0.140 Goal=   None    Shift=    0.000
 RMSDP=4.67D-04 MaxDP=1.14D-01 DE=-7.08D-01 OVMax= 1.59D-01

 Cycle   3  Pass 1  IDiag  1:
 RMSU=  4.63D-04    CP:  9.93D-01  9.79D-01
 E= -3025.90118190046     Delta-E=       -0.596900369172 Rises=F Damp=F
 DIIS: error= 6.07D-03 at cycle   3 NSaved=   3.
 NSaved= 3 IEnMin= 3 EnMin= -3025.90118190046     IErMin= 2 ErrMin= 4.98D-03
 ErrMax= 6.07D-03  0.00D+00 EMaxC= 1.00D-01 BMatC= 9.41D-02 BMatP= 1.91D-01
 IDIUse=3 WtCom= 9.39D-01 WtEn= 6.07D-02
 Coeff-Com: -0.149D+00 0.533D+00 0.617D+00
 Coeff-En:   0.000D+00 0.000D+00 0.100D+01
 Coeff:     -0.140D+00 0.500D+00 0.640D+00
 Gap=     0.127 Goal=   None    Shift=    0.000
 RMSDP=1.95D-04 MaxDP=7.25D-02 DE=-5.97D-01 OVMax= 6.12D-02

 Cycle   4  Pass 1  IDiag  1:
 RMSU=  1.47D-04    CP:  9.99D-01  1.12D+00  8.33D-01
 E= -3025.95969789441     Delta-E=       -0.058515993951 Rises=F Damp=F
 DIIS: error= 2.99D-03 at cycle   4 NSaved=   4.
 NSaved= 4 IEnMin= 4 EnMin= -3025.95969789441     IErMin= 4 ErrMin= 2.99D-03
 ErrMax= 2.99D-03  0.00D+00 EMaxC= 1.00D-01 BMatC= 2.11D-02 BMatP= 9.41D-02
 IDIUse=3 WtCom= 9.70D-01 WtEn= 2.99D-02
 Coeff-Com: -0.508D-01 0.126D+00 0.360D+00 0.565D+00
 Coeff-En:   0.000D+00 0.000D+00 0.187D+00 0.813D+00
 Coeff:     -0.493D-01 0.122D+00 0.355D+00 0.573D+00
 Gap=     0.129 Goal=   None    Shift=    0.000
 RMSDP=8.10D-05 MaxDP=2.90D-02 DE=-5.85D-02 OVMax= 2.56D-02

 Cycle   5  Pass 1  IDiag  1:
 RMSU=  3.60D-05    CP:  9.96D-01  1.07D+00  8.99D-01  6.27D-01
 E= -3025.97657822708     Delta-E=       -0.016880332671 Rises=F Damp=F
 DIIS: error= 3.72D-04 at cycle   5 NSaved=   5.
 NSaved= 5 IEnMin= 5 EnMin= -3025.97657822708     IErMin= 5 ErrMin= 3.72D-04
 ErrMax= 3.72D-04  0.00D+00 EMaxC= 1.00D-01 BMatC= 6.91D-04 BMatP= 2.11D-02
 IDIUse=3 WtCom= 9.96D-01 WtEn= 3.72D-03
 Coeff-Com: -0.148D-01 0.299D-01 0.131D+00 0.261D+00 0.594D+00
 Coeff-En:   0.000D+00 0.000D+00 0.000D+00 0.000D+00 0.100D+01
 Coeff:     -0.147D-01 0.298D-01 0.130D+00 0.260D+00 0.595D+00
 Gap=     0.129 Goal=   None    Shift=    0.000
 RMSDP=1.96D-05 MaxDP=8.87D-03 DE=-1.69D-02 OVMax= 4.81D-03

 Cycle   6  Pass 1  IDiag  1:
 RMSU=  1.48D-05    CP:  9.96D-01  1.08D+00  8.90D-01  6.53D-01  8.41D-01
 E= -3025.97711482017     Delta-E=       -0.000536593094 Rises=F Damp=F
 DIIS: error= 1.44D-04 at cycle   6 NSaved=   6.
 NSaved= 6 IEnMin= 6 EnMin= -3025.97711482017     IErMin= 6 ErrMin= 1.44D-04
 ErrMax= 1.44D-04  0.00D+00 EMaxC= 1.00D-01 BMatC= 7.58D-05 BMatP= 6.91D-04
 IDIUse=3 WtCom= 9.99D-01 WtEn= 1.44D-03
 Coeff-Com: -0.147D-02 0.950D-03 0.233D-01 0.601D-01 0.284D+00 0.633D+00
 Coeff-En:   0.000D+00 0.000D+00 0.000D+00 0.000D+00 0.000D+00 0.100D+01
 Coeff:     -0.147D-02 0.948D-03 0.232D-01 0.600D-01 0.283D+00 0.634D+00
 Gap=     0.130 Goal=   None    Shift=    0.000
 RMSDP=4.36D-06 MaxDP=1.24D-03 DE=-5.37D-04 OVMax= 2.96D-03

 Cycle   7  Pass 1  IDiag  1:
 RMSU=  3.54D-06    CP:  9.96D-01  1.08D+00  8.92D-01  6.49D-01  8.96D-01
                    CP:  9.68D-01
 E= -3025.97718392249     Delta-E=       -0.000069102318 Rises=F Damp=F
 DIIS: error= 5.50D-05 at cycle   7 NSaved=   7.
 NSaved= 7 IEnMin= 7 EnMin= -3025.97718392249     IErMin= 7 ErrMin= 5.50D-05
 ErrMax= 5.50D-05  0.00D+00 EMaxC= 1.00D-01 BMatC= 7.66D-06 BMatP= 7.58D-05
 IDIUse=1 WtCom= 1.00D+00 WtEn= 0.00D+00
 Coeff-Com:  0.132D-02-0.348D-02-0.728D-02-0.989D-02 0.453D-01 0.263D+00
 Coeff-Com:  0.711D+00
 Coeff:      0.132D-02-0.348D-02-0.728D-02-0.989D-02 0.453D-01 0.263D+00
 Coeff:      0.711D+00
 Gap=     0.130 Goal=   None    Shift=    0.000
 RMSDP=3.14D-06 MaxDP=1.66D-03 DE=-6.91D-05 OVMax= 1.42D-03

 Cycle   8  Pass 1  IDiag  1:
 RMSU=  2.22D-06    CP:  9.96D-01  1.08D+00  8.93D-01  6.50D-01  9.32D-01
                    CP:  1.07D+00  9.82D-01
 E= -3025.97719369336     Delta-E=       -0.000009770867 Rises=F Damp=F
 DIIS: error= 1.55D-05 at cycle   8 NSaved=   8.
 NSaved= 8 IEnMin= 8 EnMin= -3025.97719369336     IErMin= 8 ErrMin= 1.55D-05
 ErrMax= 1.55D-05  0.00D+00 EMaxC= 1.00D-01 BMatC= 1.29D-06 BMatP= 7.66D-06
 IDIUse=1 WtCom= 1.00D+00 WtEn= 0.00D+00
 Coeff-Com:  0.870D-03-0.179D-02-0.718D-02-0.153D-01-0.255D-01 0.106D-01
 Coeff-Com:  0.309D+00 0.729D+00
 Coeff:      0.870D-03-0.179D-02-0.718D-02-0.153D-01-0.255D-01 0.106D-01
 Coeff:      0.309D+00 0.729D+00
 Gap=     0.130 Goal=   None    Shift=    0.000
 RMSDP=1.18D-06 MaxDP=2.48D-04 DE=-9.77D-06 OVMax= 9.63D-04

 Cycle   9  Pass 1  IDiag  1:
 RMSU=  7.28D-07    CP:  9.96D-01  1.08D+00  8.94D-01  6.49D-01  9.46D-01
                    CP:  1.10D+00  1.09D+00  1.16D+00
 E= -3025.97719583537     Delta-E=       -0.000002142016 Rises=F Damp=F
 DIIS: error= 7.32D-06 at cycle   9 NSaved=   9.
 NSaved= 9 IEnMin= 9 EnMin= -3025.97719583537     IErMin= 9 ErrMin= 7.32D-06
 ErrMax= 7.32D-06  0.00D+00 EMaxC= 1.00D-01 BMatC= 1.72D-07 BMatP= 1.29D-06
 IDIUse=1 WtCom= 1.00D+00 WtEn= 0.00D+00
 Coeff-Com:  0.140D-03-0.215D-03-0.158D-02-0.439D-02-0.147D-01-0.290D-01
 Coeff-Com:  0.111D-01 0.272D+00 0.766D+00
 Coeff:      0.140D-03-0.215D-03-0.158D-02-0.439D-02-0.147D-01-0.290D-01
 Coeff:      0.111D-01 0.272D+00 0.766D+00
 Gap=     0.130 Goal=   None    Shift=    0.000
 RMSDP=5.03D-07 MaxDP=2.50D-04 DE=-2.14D-06 OVMax= 4.79D-04

 Cycle  10  Pass 1  IDiag  1:
 RMSU=  2.80D-07    CP:  9.96D-01  1.08D+00  8.94D-01  6.48D-01  9.50D-01
                    CP:  1.11D+00  1.11D+00  1.29D+00  1.08D+00
 E= -3025.97719616024     Delta-E=       -0.000000324864 Rises=F Damp=F
 DIIS: error= 3.09D-06 at cycle  10 NSaved=  10.
 NSaved=10 IEnMin=10 EnMin= -3025.97719616024     IErMin=10 ErrMin= 3.09D-06
 ErrMax= 3.09D-06  0.00D+00 EMaxC= 1.00D-01 BMatC= 3.47D-08 BMatP= 1.72D-07
 IDIUse=1 WtCom= 1.00D+00 WtEn= 0.00D+00
 Coeff-Com: -0.105D-03 0.249D-03 0.654D-03 0.970D-03-0.164D-02-0.130D-01
 Coeff-Com: -0.548D-01-0.176D-01 0.338D+00 0.748D+00
 Coeff:     -0.105D-03 0.249D-03 0.654D-03 0.970D-03-0.164D-02-0.130D-01
 Coeff:     -0.548D-01-0.176D-01 0.338D+00 0.748D+00
 Gap=     0.130 Goal=   None    Shift=    0.000
 RMSDP=3.00D-07 MaxDP=8.28D-05 DE=-3.25D-07 OVMax= 2.09D-04

 Cycle  11  Pass 1  IDiag  1:
 RMSU=  1.22D-07    CP:  9.96D-01  1.08D+00  8.94D-01  6.48D-01  9.52D-01
                    CP:  1.12D+00  1.12D+00  1.37D+00  1.26D+00  1.07D+00
 E= -3025.97719622325     Delta-E=       -0.000000063013 Rises=F Damp=F
 DIIS: error= 8.18D-07 at cycle  11 NSaved=  11.
 NSaved=11 IEnMin=11 EnMin= -3025.97719622325     IErMin=11 ErrMin= 8.18D-07
 ErrMax= 8.18D-07  0.00D+00 EMaxC= 1.00D-01 BMatC= 4.62D-09 BMatP= 3.47D-08
 IDIUse=1 WtCom= 1.00D+00 WtEn= 0.00D+00
 Coeff-Com: -0.632D-04 0.135D-03 0.497D-03 0.108D-02 0.133D-02-0.826D-03
 Coeff-Com: -0.246D-01-0.462D-01 0.343D-01 0.305D+00 0.729D+00
 Coeff:     -0.632D-04 0.135D-03 0.497D-03 0.108D-02 0.133D-02-0.826D-03
 Coeff:     -0.246D-01-0.462D-01 0.343D-01 0.305D+00 0.729D+00
 Gap=     0.130 Goal=   None    Shift=    0.000
 RMSDP=7.91D-08 MaxDP=3.12D-05 DE=-6.30D-08 OVMax= 6.69D-05

 Cycle  12  Pass 1  IDiag  1:
 RMSU=  4.32D-08    CP:  9.96D-01  1.08D+00  8.94D-01  6.48D-01  9.53D-01
                    CP:  1.12D+00  1.12D+00  1.39D+00  1.30D+00  1.18D+00
                    CP:  1.05D+00
 E= -3025.97719623211     Delta-E=       -0.000000008860 Rises=F Damp=F
 DIIS: error= 4.13D-07 at cycle  12 NSaved=  12.
 NSaved=12 IEnMin=12 EnMin= -3025.97719623211     IErMin=12 ErrMin= 4.13D-07
 ErrMax= 4.13D-07  0.00D+00 EMaxC= 1.00D-01 BMatC= 6.48D-10 BMatP= 4.62D-09
 IDIUse=1 WtCom= 1.00D+00 WtEn= 0.00D+00
 Coeff-Com: -0.123D-04 0.230D-04 0.113D-03 0.330D-03 0.651D-03 0.132D-02
 Coeff-Com: -0.318D-02-0.167D-01-0.297D-01 0.245D-01 0.289D+00 0.734D+00
 Coeff:     -0.123D-04 0.230D-04 0.113D-03 0.330D-03 0.651D-03 0.132D-02
 Coeff:     -0.318D-02-0.167D-01-0.297D-01 0.245D-01 0.289D+00 0.734D+00
 Gap=     0.130 Goal=   None    Shift=    0.000
 RMSDP=2.80D-08 MaxDP=6.18D-06 DE=-8.86D-09 OVMax= 2.82D-05

 Cycle  13  Pass 1  IDiag  1:
 RMSU=  1.36D-08    CP:  9.96D-01  1.08D+00  8.94D-01  6.48D-01  9.53D-01
                    CP:  1.12D+00  1.12D+00  1.39D+00  1.32D+00  1.21D+00
                    CP:  1.16D+00  1.11D+00
 E= -3025.97719623344     Delta-E=       -0.000000001330 Rises=F Damp=F
 DIIS: error= 1.12D-07 at cycle  13 NSaved=  13.
 NSaved=13 IEnMin=13 EnMin= -3025.97719623344     IErMin=13 ErrMin= 1.12D-07
 ErrMax= 1.12D-07  0.00D+00 EMaxC= 1.00D-01 BMatC= 1.14D-10 BMatP= 6.48D-10
 IDIUse=1 WtCom= 1.00D+00 WtEn= 0.00D+00
 Coeff-Com:  0.450D-05-0.106D-04-0.298D-04-0.172D-04 0.548D-04 0.741D-03
 Coeff-Com:  0.248D-02 0.742D-04-0.176D-01-0.363D-01 0.107D-02 0.305D+00
 Coeff-Com:  0.744D+00
 Coeff:      0.450D-05-0.106D-04-0.298D-04-0.172D-04 0.548D-04 0.741D-03
 Coeff:      0.248D-02 0.742D-04-0.176D-01-0.363D-01 0.107D-02 0.305D+00
 Coeff:      0.744D+00
 Gap=     0.130 Goal=   None    Shift=    0.000
 RMSDP=9.82D-09 MaxDP=2.53D-06 DE=-1.33D-09 OVMax= 8.64D-06

 Cycle  14  Pass 1  IDiag  1:
 RMSU=  5.85D-09    CP:  9.96D-01  1.08D+00  8.94D-01  6.48D-01  9.53D-01
                    CP:  1.12D+00  1.12D+00  1.39D+00  1.32D+00  1.22D+00
                    CP:  1.19D+00  1.23D+00  1.15D+00
 E= -3025.97719623390     Delta-E=       -0.000000000462 Rises=F Damp=F
 DIIS: error= 4.92D-08 at cycle  14 NSaved=  14.
 NSaved=14 IEnMin=14 EnMin= -3025.97719623390     IErMin=14 ErrMin= 4.92D-08
 ErrMax= 4.92D-08  0.00D+00 EMaxC= 1.00D-01 BMatC= 1.44D-11 BMatP= 1.14D-10
 IDIUse=1 WtCom= 1.00D+00 WtEn= 0.00D+00
 Coeff-Com:  0.274D-05-0.587D-05-0.242D-04-0.424D-04-0.755D-04 0.670D-04
 Coeff-Com:  0.118D-02 0.224D-02-0.142D-02-0.153D-01-0.422D-01 0.864D-02
 Coeff-Com:  0.280D+00 0.767D+00
 Coeff:      0.274D-05-0.587D-05-0.242D-04-0.424D-04-0.755D-04 0.670D-04
 Coeff:      0.118D-02 0.224D-02-0.142D-02-0.153D-01-0.422D-01 0.864D-02
 Coeff:      0.280D+00 0.767D+00
 Gap=     0.130 Goal=   None    Shift=    0.000
 RMSDP=4.28D-09 MaxDP=9.38D-07 DE=-4.62D-10 OVMax= 2.78D-06

 Error on total polarization charges =  0.03103
 SCF Done:  E(RM062X) =  -3025.97719623     A.U. after   14 cycles
            NFock= 14  Conv=0.43D-08     -V/T= 2.0054
 KE= 3.009685930424D+03 PE=-2.421400177274D+04 EE= 9.603183920747D+03
 Leave Link  502 at Tue Oct 28 17:26:39 2025, MaxMem= 30870077440 cpu:          101866.6 elap:            1628.5
 (Enter /public/software/gauss/g16/l601.exe)
 Copying SCF densities to generalized density rwf, IOpCl= 0 IROHF=0.
 Hyperfine terms turned off by default for NAtoms > 100.

 **********************************************************************

            Population analysis using the SCF density.

 **********************************************************************

 Orbital symmetries:
       Occupied  (A) (A) (A) (A) (A) (A) (A) (A) (A) (A) (A) (A)
                 (A) (A) (A) (A) (A) (A) (A) (A) (A) (A) (A) (A)
                 (A) (A) (A) (A) (A) (A) (A) (A) (A) (A) (A) (A)
                 (A) (A) (A) (A) (A) (A) (A) (A) (A) (A) (A) (A)
                 (A) (A) (A) (A) (A) (A) (A) (A) (A) (A) (A) (A)
                 (A) (A) (A) (A) (A) (A) (A) (A) (A) (A) (A) (A)
                 (A) (A) (A) (A) (A) (A) (A) (A) (A) (A) (A) (A)
                 (A) (A) (A) (A) (A) (A) (A) (A) (A) (A) (A) (A)
                 (A) (A) (A) (A) (A) (A) (A) (A) (A) (A) (A) (A)
                 (A) (A) (A) (A) (A) (A) (A) (A) (A) (A) (A) (A)
                 (A) (A) (A) (A) (A) (A) (A) (A) (A) (A) (A) (A)
                 (A) (A) (A) (A) (A) (A) (A) (A) (A) (A) (A) (A)
                 (A) (A) (A) (A) (A) (A) (A) (A) (A) (A) (A) (A)
                 (A) (A) (A) (A) (A) (A) (A) (A) (A) (A) (A) (A)
                 (A) (A) (A) (A) (A) (A) (A) (A) (A) (A) (A) (A)
                 (A) (A) (A) (A) (A) (A) (A) (A) (A) (A) (A) (A)
                 (A) (A) (A) (A) (A) (A) (A) (A) (A) (A) (A) (A)
                 (A) (A) (A) (A) (A) (A) (A) (A) (A) (A) (A) (A)
                 (A) (A) (A) (A) (A) (A) (A) (A) (A) (A) (A) (A)
                 (A) (A) (A) (A) (A) (A) (A) (A) (A)
       Virtual   (A) (A) (A) (A) (A) (A) (A) (A) (A) (A) (A) (A)
                 (A) (A) (A) (A) (A) (A) (A) (A) (A) (A) (A) (A)
                 (A) (A) (A) (A) (A) (A) (A) (A) (A) (A) (A) (A)
                 (A) (A) (A) (A) (A) (A) (A) (A) (A) (A) (A) (A)
                 (A) (A) (A) (A) (A) (A) (A) (A) (A) (A) (A) (A)
                 (A) (A) (A) (A) (A) (A) (A) (A) (A) (A) (A) (A)
                 (A) (A) (A) (A) (A) (A) (A) (A) (A) (A) (A) (A)
                 (A) (A) (A) (A) (A) (A) (A) (A) (A) (A) (A) (A)
                 (A) (A) (A) (A) (A) (A) (A) (A) (A) (A) (A) (A)
                 (A) (A) (A) (A) (A) (A) (A) (A) (A) (A) (A) (A)
                 (A) (A) (A) (A) (A) (A) (A) (A) (A) (A) (A) (A)
                 (A) (A) (A) (A) (A) (A) (A) (A) (A) (A) (A) (A)
                 (A) (A) (A) (A) (A) (A) (A) (A) (A) (A) (A) (A)
                 (A) (A) (A) (A) (A) (A) (A) (A) (A) (A) (A) (A)
                 (A) (A) (A) (A) (A) (A) (A) (A) (A) (A) (A) (A)
                 (A) (A) (A) (A) (A) (A) (A) (A) (A) (A) (A) (A)
                 (A) (A) (A) (A) (A) (A) (A) (A) (A) (A) (A) (A)
                 (A) (A) (A) (A) (A) (A) (A) (A) (A) (A) (A) (A)
                 (A) (A) (A) (A) (A) (A) (A) (A) (A) (A) (A) (A)
                 (A) (A) (A) (A) (A) (A) (A) (A) (A) (A) (A) (A)
                 (A) (A) (A) (A) (A) (A) (A) (A) (A) (A) (A) (A)
                 (A) (A) (A) (A) (A) (A) (A) (A) (A) (A) (A) (A)
                 (A) (A) (A) (A) (A) (A) (A) (A) (A) (A) (A) (A)
                 (A) (A) (A) (A) (A) (A) (A) (A) (A) (A) (A) (A)
                 (A) (A) (A) (A) (A) (A) (A) (A) (A) (A) (A) (A)
                 (A) (A) (A) (A) (A) (A) (A) (A) (A) (A) (A) (A)
                 (A) (A) (A) (A) (A) (A) (A) (A) (A) (A) (A) (A)
                 (A) (A) (A) (A) (A) (A) (A) (A) (A) (A) (A) (A)
                 (A) (A) (A) (A) (A) (A) (A) (A) (A) (A) (A) (A)
                 (A) (A) (A) (A) (A) (A) (A) (A) (A) (A) (A) (A)
                 (A) (A) (A) (A) (A) (A) (A) (A) (A) (A) (A) (A)
                 (A) (A) (A) (A) (A) (A) (A) (A) (A) (A) (A) (A)
                 (A) (A) (A) (A) (A) (A) (A) (A) (A) (A) (A) (A)
                 (A) (A) (A) (A) (A) (A) (A) (A) (A) (A) (A) (A)
                 (A) (A) (A) (A) (A) (A) (A) (A) (A) (A) (A) (A)
                 (A) (A) (A) (A) (A) (A) (A) (A) (A) (A) (A) (A)
                 (A) (A) (A) (A) (A) (A) (A) (A) (A) (A) (A) (A)
                 (A) (A) (A) (A) (A) (A) (A) (A) (A) (A) (A) (A)
                 (A) (A) (A) (A) (A) (A) (A) (A) (A) (A) (A) (A)
                 (A) (A) (A) (A) (A) (A) (A) (A) (A) (A) (A) (A)
                 (A) (A) (A) (A) (A) (A) (A) (A) (A) (A) (A) (A)
                 (A) (A) (A) (A) (A) (A) (A) (A) (A) (A) (A) (A)
                 (A) (A) (A) (A) (A) (A) (A) (A) (A) (A) (A) (A)
                 (A) (A) (A) (A) (A) (A) (A) (A) (A) (A) (A) (A)
                 (A) (A) (A) (A) (A) (A) (A) (A) (A) (A) (A) (A)
                 (A) (A) (A) (A) (A) (A) (A) (A) (A) (A) (A) (A)
                 (A) (A) (A) (A) (A) (A) (A) (A) (A) (A) (A) (A)
                 (A) (A) (A) (A) (A) (A) (A) (A) (A) (A) (A) (A)
                 (A) (A) (A) (A) (A) (A) (A) (A) (A) (A) (A) (A)
                 (A) (A) (A) (A) (A) (A) (A) (A) (A) (A) (A) (A)
                 (A) (A) (A) (A) (A) (A) (A) (A) (A) (A) (A) (A)
                 (A) (A) (A) (A) (A) (A) (A) (A) (A) (A) (A) (A)
                 (A) (A) (A) (A) (A) (A) (A) (A) (A) (A) (A) (A)
                 (A) (A) (A) (A) (A) (A) (A) (A) (A) (A) (A) (A)
                 (A) (A) (A) (A) (A) (A) (A) (A) (A) (A) (A) (A)
                 (A) (A) (A) (A) (A) (A) (A) (A) (A) (A) (A) (A)
                 (A) (A) (A) (A) (A) (A) (A) (A) (A) (A) (A) (A)
                 (A) (A) (A) (A) (A) (A) (A) (A) (A) (A) (A) (A)
                 (A) (A) (A) (A) (A) (A) (A) (A) (A) (A) (A) (A)
                 (A) (A) (A) (A) (A) (A) (A) (A) (A) (A) (A) (A)
                 (A) (A) (A) (A) (A) (A) (A) (A) (A) (A) (A) (A)
                 (A) (A) (A) (A) (A) (A) (A) (A) (A) (A) (A) (A)
                 (A) (A) (A) (A) (A) (A) (A) (A) (A) (A) (A) (A)
                 (A) (A) (A) (A) (A) (A) (A) (A) (A) (A) (A) (A)
                 (A) (A) (A) (A) (A) (A) (A) (A) (A) (A) (A) (A)
                 (A) (A) (A) (A) (A) (A) (A) (A) (A) (A) (A) (A)
                 (A) (A) (A) (A) (A) (A) (A) (A) (A) (A) (A) (A)
                 (A) (A) (A) (A) (A) (A) (A) (A) (A) (A) (A) (A)
                 (A) (A) (A) (A) (A) (A) (A) (A) (A) (A) (A) (A)
                 (A) (A) (A) (A) (A) (A) (A) (A) (A) (A) (A) (A)
                 (A) (A) (A) (A) (A) (A) (A) (A) (A) (A) (A) (A)
                 (A) (A) (A) (A) (A) (A) (A) (A) (A) (A) (A) (A)
                 (A) (A) (A) (A) (A) (A) (A) (A) (A) (A) (A) (A)
                 (A) (A) (A) (A) (A) (A) (A) (A) (A) (A) (A) (A)
                 (A) (A) (A) (A) (A) (A) (A) (A) (A) (A) (A) (A)
                 (A) (A) (A) (A) (A) (A) (A) (A) (A) (A) (A) (A)
                 (A) (A) (A) (A) (A) (A) (A) (A) (A) (A) (A) (A)
                 (A) (A) (A) (A) (A) (A) (A) (A) (A) (A) (A) (A)
                 (A) (A) (A) (A) (A) (A) (A) (A) (A) (A) (A) (A)
                 (A) (A) (A) (A) (A) (A) (A) (A) (A) (A) (A) (A)
                 (A) (A) (A) (A) (A) (A) (A) (A) (A) (A) (A) (A)
                 (A) (A) (A) (A) (A) (A) (A) (A) (A) (A) (A) (A)
                 (A) (A) (A) (A) (A) (A) (A) (A) (A) (A) (A) (A)
                 (A) (A) (A) (A) (A) (A) (A) (A) (A) (A) (A) (A)
                 (A) (A) (A) (A) (A) (A) (A) (A) (A) (A) (A) (A)
                 (A) (A) (A) (A) (A) (A) (A) (A) (A) (A) (A) (A)
                 (A) (A) (A) (A) (A) (A) (A) (A) (A) (A) (A) (A)
                 (A) (A) (A) (A) (A) (A) (A) (A) (A) (A) (A) (A)
                 (A) (A) (A) (A) (A) (A) (A) (A) (A) (A) (A) (A)
                 (A) (A) (A) (A) (A) (A) (A) (A) (A) (A) (A) (A)
                 (A) (A) (A) (A) (A) (A) (A) (A) (A) (A) (A) (A)
                 (A) (A) (A) (A) (A) (A) (A) (A) (A) (A) (A) (A)
                 (A) (A) (A) (A) (A) (A) (A) (A) (A) (A) (A) (A)
                 (A) (A) (A) (A) (A) (A) (A) (A) (A) (A) (A) (A)
                 (A) (A) (A) (A) (A) (A) (A) (A) (A) (A) (A) (A)
                 (A) (A) (A) (A) (A) (A) (A) (A) (A) (A) (A) (A)
                 (A) (A) (A) (A) (A) (A) (A) (A) (A) (A) (A) (A)
                 (A) (A) (A) (A) (A) (A) (A) (A) (A) (A) (A) (A)
                 (A) (A) (A) (A) (A) (A) (A) (A) (A) (A) (A) (A)
                 (A) (A) (A) (A) (A) (A) (A) (A) (A) (A) (A) (A)
                 (A) (A) (A) (A) (A) (A) (A) (A) (A) (A) (A) (A)
                 (A) (A) (A) (A) (A) (A) (A) (A) (A) (A) (A) (A)
                 (A) (A) (A) (A) (A) (A) (A) (A) (A) (A) (A) (A)
                 (A) (A) (A) (A) (A) (A) (A) (A) (A) (A) (A) (A)
                 (A) (A) (A) (A) (A) (A) (A) (A) (A) (A) (A) (A)
                 (A) (A) (A) (A) (A) (A) (A) (A) (A) (A) (A) (A)
                 (A) (A) (A) (A) (A) (A) (A) (A) (A) (A) (A) (A)
                 (A) (A) (A) (A) (A) (A) (A) (A) (A) (A) (A) (A)
                 (A) (A) (A) (A) (A) (A) (A) (A) (A) (A) (A) (A)
                 (A) (A) (A) (A) (A) (A) (A) (A) (A) (A) (A) (A)
                 (A) (A) (A) (A) (A) (A) (A) (A) (A) (A) (A) (A)
                 (A) (A) (A) (A) (A) (A) (A) (A) (A) (A) (A) (A)
                 (A) (A) (A) (A) (A) (A) (A) (A) (A) (A) (A) (A)
                 (A) (A) (A) (A) (A) (A) (A) (A) (A) (A) (A) (A)
                 (A) (A) (A) (A) (A) (A) (A) (A) (A) (A) (A) (A)
                 (A) (A) (A) (A) (A) (A) (A) (A) (A) (A) (A) (A)
                 (A) (A) (A) (A) (A) (A) (A) (A) (A) (A) (A) (A)
                 (A) (A) (A) (A) (A) (A) (A) (A) (A) (A) (A) (A)
                 (A) (A) (A) (A) (A) (A) (A) (A) (A) (A) (A) (A)
                 (A) (A) (A) (A) (A) (A) (A) (A) (A) (A) (A) (A)
                 (A) (A) (A) (A) (A) (A) (A) (A) (A) (A) (A) (A)
                 (A) (A) (A) (A) (A) (A) (A) (A) (A) (A) (A) (A)
                 (A) (A) (A) (A) (A) (A) (A) (A) (A) (A) (A) (A)
                 (A) (A) (A) (A) (A) (A) (A) (A) (A) (A) (A) (A)
                 (A) (A) (A) (A) (A) (A) (A) (A) (A) (A) (A) (A)
                 (A) (A) (A) (A) (A) (A) (A) (A) (A) (A) (A) (A)
                 (A) (A) (A) (A) (A) (A) (A) (A) (A) (A) (A) (A)
                 (A) (A) (A) (A) (A) (A) (A) (A) (A) (A) (A) (A)
                 (A) (A) (A) (A) (A) (A) (A) (A) (A) (A) (A) (A)
                 (A) (A) (A) (A) (A) (A) (A) (A) (A) (A) (A) (A)
                 (A) (A) (A) (A) (A) (A) (A) (A) (A) (A) (A) (A)
                 (A) (A) (A) (A) (A) (A) (A) (A) (A) (A) (A) (A)
                 (A) (A) (A) (A) (A) (A) (A) (A) (A) (A) (A) (A)
                 (A) (A) (A) (A) (A) (A) (A) (A) (A) (A) (A) (A)
                 (A) (A) (A) (A) (A) (A) (A) (A) (A) (A) (A) (A)
                 (A) (A) (A) (A) (A) (A) (A) (A) (A) (A) (A) (A)
                 (A) (A) (A) (A) (A) (A) (A) (A) (A) (A) (A) (A)
                 (A) (A) (A) (A) (A) (A) (A) (A) (A) (A) (A) (A)
                 (A) (A) (A) (A) (A) (A) (A) (A) (A) (A) (A) (A)
                 (A) (A) (A) (A) (A) (A) (A) (A) (A) (A) (A) (A)
                 (A) (A) (A) (A) (A) (A) (A) (A) (A) (A) (A) (A)
                 (A) (A) (A) (A) (A) (A) (A) (A) (A) (A) (A) (A)
                 (A) (A) (A) (A) (A) (A) (A) (A) (A) (A) (A) (A)
                 (A) (A) (A) (A) (A) (A) (A) (A) (A) (A) (A) (A)
                 (A) (A) (A) (A) (A) (A) (A) (A) (A) (A) (A) (A)
                 (A) (A) (A) (A) (A) (A) (A) (A) (A) (A) (A) (A)
                 (A) (A) (A) (A) (A) (A) (A) (A) (A) (A) (A) (A)
                 (A) (A) (A) (A) (A) (A) (A) (A) (A) (A) (A) (A)
                 (A) (A) (A) (A) (A) (A) (A) (A) (A) (A) (A) (A)
                 (A) (A) (A) (A) (A) (A) (A) (A) (A) (A) (A) (A)
                 (A) (A) (A) (A) (A) (A) (A) (A) (A) (A) (A) (A)
                 (A) (A) (A) (A) (A) (A) (A) (A) (A) (A) (A) (A)
                 (A) (A) (A) (A) (A) (A) (A) (A) (A) (A) (A) (A)
                 (A) (A) (A) (A) (A) (A) (A) (A) (A) (A) (A) (A)
                 (A) (A) (A) (A) (A) (A) (A) (A) (A) (A) (A) (A)
                 (A) (A) (A) (A) (A) (A) (A) (A) (A) (A) (A) (A)
                 (A) (A) (A) (A) (A) (A) (A) (A) (A) (A) (A) (A)
                 (A) (A) (A) (A) (A) (A) (A) (A) (A) (A) (A) (A)
                 (A) (A) (A) (A) (A) (A) (A) (A) (A) (A) (A) (A)
                 (A) (A) (A) (A) (A) (A) (A) (A) (A) (A) (A) (A)
                 (A) (A) (A) (A) (A) (A) (A) (A) (A) (A) (A) (A)
                 (A) (A) (A) (A) (A) (A) (A) (A) (A) (A) (A) (A)
                 (A) (A) (A) (A) (A) (A) (A) (A) (A) (A) (A) (A)
                 (A) (A) (A) (A) (A) (A) (A) (A) (A) (A) (A) (A)
                 (A) (A) (A) (A) (A) (A) (A) (A) (A) (A) (A) (A)
                 (A) (A) (A) (A) (A) (A) (A) (A) (A) (A) (A) (A)
                 (A) (A) (A) (A) (A) (A) (A) (A) (A) (A) (A) (A)
                 (A) (A) (A) (A) (A) (A) (A) (A) (A) (A) (A) (A)
                 (A) (A) (A) (A) (A) (A) (A) (A) (A) (A) (A) (A)
                 (A) (A) (A) (A) (A) (A) (A) (A) (A) (A) (A) (A)
                 (A) (A) (A) (A) (A) (A) (A) (A) (A) (A) (A) (A)
                 (A) (A) (A) (A) (A) (A) (A) (A) (A) (A) (A) (A)
                 (A) (A) (A) (A) (A) (A) (A) (A) (A) (A) (A) (A)
                 (A) (A) (A) (A) (A) (A) (A) (A) (A) (A) (A) (A)
                 (A) (A) (A) (A) (A) (A) (A) (A) (A) (A) (A) (A)
                 (A) (A) (A) (A) (A) (A) (A) (A) (A) (A) (A) (A)
                 (A) (A) (A) (A) (A) (A) (A) (A) (A) (A) (A) (A)
                 (A) (A) (A) (A) (A) (A) (A) (A) (A) (A) (A) (A)
                 (A) (A) (A) (A) (A) (A) (A) (A) (A) (A) (A) (A)
                 (A) (A) (A) (A) (A) (A) (A) (A) (A) (A) (A) (A)
                 (A) (A) (A) (A) (A) (A) (A) (A) (A) (A) (A) (A)
                 (A) (A) (A) (A) (A) (A) (A) (A) (A) (A) (A) (A)
                 (A) (A) (A) (A) (A) (A) (A) (A) (A) (A) (A) (A)
                 (A) (A) (A) (A) (A) (A) (A) (A) (A) (A) (A) (A)
                 (A) (A) (A) (A) (A) (A) (A) (A) (A) (A) (A) (A)
                 (A) (A) (A) (A) (A) (A) (A) (A) (A) (A) (A) (A)
                 (A) (A) (A) (A) (A) (A) (A) (A) (A) (A) (A) (A)
                 (A) (A) (A) (A) (A) (A) (A) (A) (A) (A) (A) (A)
                 (A) (A) (A) (A) (A) (A) (A) (A) (A) (A) (A) (A)
                 (A) (A) (A) (A) (A) (A) (A) (A) (A) (A) (A) (A)
                 (A) (A) (A) (A) (A) (A) (A) (A) (A) (A) (A) (A)
                 (A) (A) (A) (A) (A) (A) (A) (A) (A) (A) (A) (A)
                 (A) (A) (A) (A) (A) (A) (A) (A) (A) (A) (A) (A)
                 (A) (A) (A) (A) (A) (A) (A) (A) (A) (A) (A) (A)
                 (A) (A) (A) (A) (A) (A) (A) (A) (A) (A) (A) (A)
                 (A) (A) (A) (A) (A) (A) (A) (A) (A) (A) (A) (A)
                 (A) (A) (A) (A) (A) (A) (A) (A) (A) (A) (A) (A)
                 (A) (A) (A) (A) (A) (A) (A) (A) (A) (A) (A) (A)
                 (A) (A) (A) (A) (A) (A) (A) (A) (A) (A) (A) (A)
                 (A) (A) (A) (A) (A) (A) (A) (A) (A) (A) (A) (A)
                 (A) (A) (A) (A) (A) (A) (A) (A) (A) (A) (A) (A)
                 (A) (A) (A) (A) (A) (A) (A) (A) (A) (A) (A) (A)
                 (A) (A) (A) (A) (A) (A) (A) (A) (A) (A) (A) (A)
                 (A) (A) (A) (A) (A) (A) (A) (A) (A) (A) (A) (A)
                 (A) (A) (A) (A) (A) (A) (A) (A) (A) (A) (A) (A)
                 (A) (A) (A) (A) (A) (A) (A) (A) (A) (A) (A) (A)
                 (A) (A) (A) (A) (A) (A) (A) (A) (A) (A) (A) (A)
                 (A) (A) (A) (A) (A) (A) (A) (A) (A) (A) (A) (A)
                 (A) (A) (A) (A) (A) (A) (A) (A) (A) (A) (A) (A)
                 (A) (A) (A) (A) (A) (A) (A) (A) (A) (A) (A) (A)
                 (A) (A) (A) (A) (A) (A) (A) (A) (A) (A) (A) (A)
                 (A) (A) (A) (A) (A) (A) (A) (A) (A) (A) (A) (A)
                 (A) (A) (A) (A) (A) (A) (A) (A) (A) (A) (A) (A)
                 (A) (A) (A) (A) (A) (A) (A) (A) (A) (A) (A) (A)
                 (A) (A) (A) (A) (A) (A) (A) (A)
 The electronic state is 1-A.
 Alpha  occ. eigenvalues --  -25.20681 -25.20661 -19.66832 -19.66543 -19.65626
 Alpha  occ. eigenvalues --  -19.63850 -19.63838 -19.63733 -19.63718 -19.63678
 Alpha  occ. eigenvalues --  -19.63598 -19.63548 -14.78921 -14.78877 -10.67212
 Alpha  occ. eigenvalues --  -10.64112 -10.61953 -10.61853 -10.60869 -10.60796
 Alpha  occ. eigenvalues --  -10.60464 -10.60143 -10.59974 -10.59869 -10.59864
 Alpha  occ. eigenvalues --  -10.59351 -10.58916 -10.58912 -10.58885 -10.58830
 Alpha  occ. eigenvalues --  -10.58807 -10.58667 -10.58628 -10.58588 -10.58525
 Alpha  occ. eigenvalues --  -10.57990 -10.57921 -10.57902 -10.57445 -10.57434
 Alpha  occ. eigenvalues --  -10.57422 -10.56742 -10.56526 -10.56452 -10.56284
 Alpha  occ. eigenvalues --  -10.56239 -10.56156 -10.56110 -10.55976 -10.55834
 Alpha  occ. eigenvalues --  -10.55799 -10.55796 -10.55783 -10.55683 -10.55642
 Alpha  occ. eigenvalues --  -10.55624 -10.55193 -10.55117 -10.54921 -10.54842
 Alpha  occ. eigenvalues --  -10.54739 -10.54680 -10.54592 -10.54569  -7.13601
 Alpha  occ. eigenvalues --   -1.32635  -1.29446  -1.19989  -1.19952  -1.19400
 Alpha  occ. eigenvalues --   -1.17319  -1.16998  -1.16846  -1.15933  -1.15849
 Alpha  occ. eigenvalues --   -1.15119  -1.15100  -1.10739  -1.08869  -0.98631
 Alpha  occ. eigenvalues --   -0.97485  -0.97312  -0.94659  -0.92006  -0.91734
 Alpha  occ. eigenvalues --   -0.91227  -0.90692  -0.90391  -0.88957  -0.88547
 Alpha  occ. eigenvalues --   -0.86885  -0.86637  -0.86308  -0.85658  -0.85432
 Alpha  occ. eigenvalues --   -0.85051  -0.84809  -0.83379  -0.82372  -0.82102
 Alpha  occ. eigenvalues --   -0.81070  -0.80890  -0.78845  -0.77691  -0.77481
 Alpha  occ. eigenvalues --   -0.76660  -0.74517  -0.74163  -0.73153  -0.71610
 Alpha  occ. eigenvalues --   -0.71330  -0.70908  -0.70640  -0.70390  -0.69961
 Alpha  occ. eigenvalues --   -0.69748  -0.69518  -0.68291  -0.68182  -0.67659
 Alpha  occ. eigenvalues --   -0.66887  -0.66286  -0.64971  -0.64178  -0.63186
 Alpha  occ. eigenvalues --   -0.63140  -0.62605  -0.62257  -0.61814  -0.60179
 Alpha  occ. eigenvalues --   -0.59867  -0.59512  -0.59041  -0.58733  -0.58685
 Alpha  occ. eigenvalues --   -0.58655  -0.58333  -0.58110  -0.57625  -0.57268
 Alpha  occ. eigenvalues --   -0.57197  -0.56666  -0.56345  -0.56017  -0.55834
 Alpha  occ. eigenvalues --   -0.55685  -0.55603  -0.55152  -0.54635  -0.54526
 Alpha  occ. eigenvalues --   -0.54399  -0.53874  -0.53653  -0.53467  -0.53284
 Alpha  occ. eigenvalues --   -0.53203  -0.52774  -0.52743  -0.52512  -0.52327
 Alpha  occ. eigenvalues --   -0.52220  -0.52097  -0.51899  -0.51522  -0.51082
 Alpha  occ. eigenvalues --   -0.50897  -0.50663  -0.50445  -0.50330  -0.50035
 Alpha  occ. eigenvalues --   -0.49892  -0.49851  -0.49648  -0.49377  -0.49127
 Alpha  occ. eigenvalues --   -0.49114  -0.49003  -0.48778  -0.48468  -0.47870
 Alpha  occ. eigenvalues --   -0.47610  -0.47346  -0.47179  -0.47085  -0.47022
 Alpha  occ. eigenvalues --   -0.46640  -0.46126  -0.46010  -0.45443  -0.45386
 Alpha  occ. eigenvalues --   -0.45336  -0.45251  -0.44735  -0.44534  -0.44444
 Alpha  occ. eigenvalues --   -0.44320  -0.44230  -0.43884  -0.43409  -0.43211
 Alpha  occ. eigenvalues --   -0.42997  -0.42559  -0.42456  -0.42221  -0.42085
 Alpha  occ. eigenvalues --   -0.41756  -0.41478  -0.41383  -0.41125  -0.40807
 Alpha  occ. eigenvalues --   -0.40488  -0.39713  -0.39622  -0.39246  -0.39158
 Alpha  occ. eigenvalues --   -0.39077  -0.39029  -0.38728  -0.36912  -0.36451
 Alpha  occ. eigenvalues --   -0.36258  -0.34854  -0.34816  -0.34265  -0.33827
 Alpha  occ. eigenvalues --   -0.33727  -0.33188  -0.32815  -0.32576  -0.32342
 Alpha  occ. eigenvalues --   -0.32231  -0.32080  -0.32012  -0.31720  -0.29610
 Alpha  occ. eigenvalues --   -0.26937  -0.23251
 Alpha virt. eigenvalues --   -0.10230  -0.04757  -0.03129  -0.01565  -0.00890
 Alpha virt. eigenvalues --    0.00355   0.00800   0.01072   0.04796   0.05178
 Alpha virt. eigenvalues --    0.05808   0.06167   0.06365   0.06726   0.07025
 Alpha virt. eigenvalues --    0.07905   0.07991   0.08128   0.08225   0.08245
 Alpha virt. eigenvalues --    0.08500   0.08727   0.08735   0.08855   0.09615
 Alpha virt. eigenvalues --    0.09662   0.09776   0.09919   0.10136   0.10362
 Alpha virt. eigenvalues --    0.10491   0.10675   0.10757   0.10806   0.11091
 Alpha virt. eigenvalues --    0.11174   0.11257   0.11401   0.11455   0.11593
 Alpha virt. eigenvalues --    0.11731   0.11816   0.12101   0.12191   0.12367
 Alpha virt. eigenvalues --    0.12521   0.12544   0.13146   0.13198   0.13322
 Alpha virt. eigenvalues --    0.13540   0.13684   0.13808   0.13950   0.14105
 Alpha virt. eigenvalues --    0.14376   0.14588   0.14621   0.14676   0.14828
 Alpha virt. eigenvalues --    0.14915   0.15010   0.15119   0.15580   0.15649
 Alpha virt. eigenvalues --    0.15673   0.15823   0.16123   0.16188   0.16231
 Alpha virt. eigenvalues --    0.16394   0.16716   0.16954   0.17061   0.17236
 Alpha virt. eigenvalues --    0.17360   0.17542   0.17763   0.17853   0.18033
 Alpha virt. eigenvalues --    0.18226   0.18501   0.18606   0.18831   0.18866
 Alpha virt. eigenvalues --    0.19095   0.19130   0.19221   0.19365   0.19473
 Alpha virt. eigenvalues --    0.19702   0.19914   0.19977   0.20152   0.20290
 Alpha virt. eigenvalues --    0.20539   0.20695   0.20778   0.21092   0.21250
 Alpha virt. eigenvalues --    0.21599   0.21984   0.22139   0.22313   0.22542
 Alpha virt. eigenvalues --    0.22755   0.22767   0.22885   0.23115   0.23196
 Alpha virt. eigenvalues --    0.23316   0.23435   0.23528   0.23805   0.23958
 Alpha virt. eigenvalues --    0.24038   0.24280   0.24504   0.24634   0.24801
 Alpha virt. eigenvalues --    0.25001   0.25143   0.25294   0.25462   0.25529
 Alpha virt. eigenvalues --    0.25624   0.25820   0.25864   0.25973   0.26269
 Alpha virt. eigenvalues --    0.26328   0.26530   0.26768   0.26908   0.27040
 Alpha virt. eigenvalues --    0.27179   0.27256   0.27540   0.27708   0.27874
 Alpha virt. eigenvalues --    0.28186   0.28312   0.28394   0.28507   0.28687
 Alpha virt. eigenvalues --    0.28737   0.28819   0.29083   0.29174   0.29355
 Alpha virt. eigenvalues --    0.29578   0.29857   0.29999   0.30047   0.30414
 Alpha virt. eigenvalues --    0.30552   0.30647   0.31043   0.31260   0.31546
 Alpha virt. eigenvalues --    0.31811   0.31861   0.31968   0.32023   0.32138
 Alpha virt. eigenvalues --    0.32332   0.32511   0.32848   0.33043   0.33223
 Alpha virt. eigenvalues --    0.33294   0.33481   0.33564   0.33913   0.34064
 Alpha virt. eigenvalues --    0.34282   0.34492   0.34685   0.34803   0.34924
 Alpha virt. eigenvalues --    0.34996   0.35142   0.35158   0.35357   0.35552
 Alpha virt. eigenvalues --    0.35668   0.35833   0.35878   0.36066   0.36175
 Alpha virt. eigenvalues --    0.36236   0.36329   0.36502   0.36764   0.36898
 Alpha virt. eigenvalues --    0.37212   0.37324   0.37329   0.37517   0.37531
 Alpha virt. eigenvalues --    0.37820   0.37874   0.38034   0.38071   0.38352
 Alpha virt. eigenvalues --    0.38400   0.38502   0.38618   0.38693   0.38865
 Alpha virt. eigenvalues --    0.38909   0.39006   0.39354   0.39442   0.39681
 Alpha virt. eigenvalues --    0.39878   0.39984   0.40161   0.40251   0.40442
 Alpha virt. eigenvalues --    0.40665   0.40727   0.40908   0.40961   0.41097
 Alpha virt. eigenvalues --    0.41270   0.41380   0.41411   0.41511   0.41713
 Alpha virt. eigenvalues --    0.41959   0.42110   0.42360   0.42454   0.42543
 Alpha virt. eigenvalues --    0.42733   0.42829   0.43054   0.43189   0.43200
 Alpha virt. eigenvalues --    0.43347   0.43470   0.43598   0.43836   0.43979
 Alpha virt. eigenvalues --    0.44199   0.44360   0.44429   0.44567   0.44660
 Alpha virt. eigenvalues --    0.44750   0.44932   0.45062   0.45361   0.45576
 Alpha virt. eigenvalues --    0.45667   0.45788   0.45907   0.45985   0.46092
 Alpha virt. eigenvalues --    0.46183   0.46532   0.46628   0.46678   0.46846
 Alpha virt. eigenvalues --    0.46968   0.47102   0.47139   0.47291   0.47554
 Alpha virt. eigenvalues --    0.47642   0.47739   0.47925   0.47995   0.48233
 Alpha virt. eigenvalues --    0.48349   0.48504   0.48592   0.48684   0.48788
 Alpha virt. eigenvalues --    0.48919   0.49105   0.49234   0.49318   0.49480
 Alpha virt. eigenvalues --    0.49547   0.49716   0.49792   0.50011   0.50077
 Alpha virt. eigenvalues --    0.50344   0.50498   0.50793   0.50885   0.51052
 Alpha virt. eigenvalues --    0.51222   0.51293   0.51335   0.51482   0.51579
 Alpha virt. eigenvalues --    0.51842   0.52023   0.52277   0.52423   0.52542
 Alpha virt. eigenvalues --    0.52700   0.52784   0.53095   0.53128   0.53257
 Alpha virt. eigenvalues --    0.53410   0.53474   0.53813   0.53983   0.54138
 Alpha virt. eigenvalues --    0.54176   0.54431   0.54631   0.54743   0.54864
 Alpha virt. eigenvalues --    0.55003   0.55094   0.55263   0.55526   0.55662
 Alpha virt. eigenvalues --    0.55821   0.55946   0.56077   0.56394   0.56407
 Alpha virt. eigenvalues --    0.56544   0.56746   0.56857   0.57100   0.57169
 Alpha virt. eigenvalues --    0.57613   0.57708   0.58029   0.58401   0.58422
 Alpha virt. eigenvalues --    0.58615   0.58849   0.58915   0.59083   0.59402
 Alpha virt. eigenvalues --    0.59527   0.59613   0.59952   0.60283   0.60361
 Alpha virt. eigenvalues --    0.60661   0.60783   0.60957   0.61174   0.61572
 Alpha virt. eigenvalues --    0.61888   0.61943   0.62129   0.62375   0.62599
 Alpha virt. eigenvalues --    0.62635   0.63024   0.63171   0.63563   0.63573
 Alpha virt. eigenvalues --    0.63851   0.64147   0.64401   0.64520   0.64557
 Alpha virt. eigenvalues --    0.64771   0.65033   0.65309   0.65397   0.65724
 Alpha virt. eigenvalues --    0.66096   0.66130   0.66292   0.66532   0.66579
 Alpha virt. eigenvalues --    0.66826   0.66946   0.67155   0.67306   0.67609
 Alpha virt. eigenvalues --    0.67712   0.67908   0.68041   0.68211   0.68298
 Alpha virt. eigenvalues --    0.68650   0.68781   0.68947   0.69187   0.69267
 Alpha virt. eigenvalues --    0.69603   0.69662   0.70032   0.70140   0.70221
 Alpha virt. eigenvalues --    0.70473   0.70569   0.70835   0.70981   0.71232
 Alpha virt. eigenvalues --    0.71270   0.71771   0.71984   0.72214   0.72275
 Alpha virt. eigenvalues --    0.72438   0.72521   0.72838   0.72993   0.73093
 Alpha virt. eigenvalues --    0.73438   0.73530   0.73700   0.73956   0.74178
 Alpha virt. eigenvalues --    0.74281   0.74371   0.74480   0.74837   0.74929
 Alpha virt. eigenvalues --    0.75046   0.75110   0.75292   0.75476   0.75609
 Alpha virt. eigenvalues --    0.75946   0.76134   0.76273   0.76415   0.76728
 Alpha virt. eigenvalues --    0.76855   0.77192   0.77494   0.77859   0.77919
 Alpha virt. eigenvalues --    0.78167   0.78550   0.78772   0.78827   0.79031
 Alpha virt. eigenvalues --    0.79108   0.79152   0.79389   0.79500   0.79847
 Alpha virt. eigenvalues --    0.79988   0.80298   0.80380   0.80406   0.80548
 Alpha virt. eigenvalues --    0.80685   0.80975   0.81213   0.81381   0.81524
 Alpha virt. eigenvalues --    0.81778   0.81974   0.82377   0.82434   0.82571
 Alpha virt. eigenvalues --    0.82855   0.83086   0.83313   0.83507   0.83626
 Alpha virt. eigenvalues --    0.83797   0.84029   0.84287   0.84450   0.84862
 Alpha virt. eigenvalues --    0.85144   0.85293   0.85598   0.85787   0.85848
 Alpha virt. eigenvalues --    0.85937   0.86144   0.86469   0.86747   0.87005
 Alpha virt. eigenvalues --    0.87228   0.87515   0.87723   0.87933   0.88112
 Alpha virt. eigenvalues --    0.88265   0.88459   0.88482   0.88696   0.88869
 Alpha virt. eigenvalues --    0.88994   0.89256   0.89312   0.89587   0.89598
 Alpha virt. eigenvalues --    0.89919   0.90152   0.90244   0.90391   0.90488
 Alpha virt. eigenvalues --    0.90791   0.91103   0.91268   0.91491   0.91596
 Alpha virt. eigenvalues --    0.91687   0.91922   0.92245   0.92335   0.92416
 Alpha virt. eigenvalues --    0.92826   0.93116   0.93709   0.93771   0.94025
 Alpha virt. eigenvalues --    0.94290   0.94523   0.94678   0.94799   0.95084
 Alpha virt. eigenvalues --    0.95206   0.95357   0.95701   0.95717   0.96161
[...]
 Alpha virt. eigenvalues --    4.38555   4.38815   4.38893   4.39552   4.39946
 Alpha virt. eigenvalues --    4.40177   4.40625   4.41013   4.41312   4.41772
 Alpha virt. eigenvalues --    4.42317   4.42922   4.43693   4.43806   4.43917
 Alpha virt. eigenvalues --    4.44714   4.44904   4.45069   4.45674   4.46242
 Alpha virt. eigenvalues --    4.47291   4.47722   4.48041   4.48242   4.48798
 Alpha virt. eigenvalues --    4.49023   4.49195   4.49916   4.50121   4.50357
 Alpha virt. eigenvalues --    4.50685   4.51315   4.51718   4.51860   4.51976
 Alpha virt. eigenvalues --    4.52682   4.52773   4.53264   4.53550   4.53842
 Alpha virt. eigenvalues --    4.54117   4.54343   4.54949   4.55381   4.55465
 Alpha virt. eigenvalues --    4.56114   4.56314   4.56550   4.56860   4.57141
 Alpha virt. eigenvalues --    4.57271   4.58271   4.58735   4.58795   4.58873
 Alpha virt. eigenvalues --    4.59430   4.59888   4.61071   4.61166   4.61362
 Alpha virt. eigenvalues --    4.61681   4.62240   4.62461   4.62558   4.62990
 Alpha virt. eigenvalues --    4.64120   4.64203   4.64447   4.64726   4.64941
 Alpha virt. eigenvalues --    4.65199   4.65661   4.65880   4.66026   4.66614
 Alpha virt. eigenvalues --    4.66689   4.67111   4.67285   4.67691   4.67898
 Alpha virt. eigenvalues --    4.67947   4.68165   4.68263   4.68470   4.68845
 Alpha virt. eigenvalues --    4.68937   4.69362   4.69626   4.69930   4.70161
 Alpha virt. eigenvalues --    4.70350   4.70630   4.70999   4.71130   4.71334
 Alpha virt. eigenvalues --    4.71539   4.71970   4.72218   4.72501   4.72778
 Alpha virt. eigenvalues --    4.73058   4.73489   4.74379   4.74770   4.75020
 Alpha virt. eigenvalues --    4.75206   4.75596   4.76053   4.76084   4.76855
 Alpha virt. eigenvalues --    4.77324   4.77427   4.77761   4.78718   4.78812
 Alpha virt. eigenvalues --    4.79172   4.79348   4.79546   4.79996   4.80419
 Alpha virt. eigenvalues --    4.80692   4.80815   4.81005   4.81158   4.81506
 Alpha virt. eigenvalues --    4.82258   4.82771   4.82934   4.83517   4.83698
 Alpha virt. eigenvalues --    4.84450   4.84539   4.85178   4.85362   4.85820
 Alpha virt. eigenvalues --    4.86390   4.86623   4.87272   4.87483   4.87565
 Alpha virt. eigenvalues --    4.87849   4.88084   4.88186   4.88934   4.89744
 Alpha virt. eigenvalues --    4.90082   4.90311   4.90597   4.90880   4.91071
 Alpha virt. eigenvalues --    4.91360   4.92023   4.92533   4.92660   4.93046
 Alpha virt. eigenvalues --    4.93090   4.93465   4.93704   4.94057   4.94315
 Alpha virt. eigenvalues --    4.94539   4.94723   4.94856   4.94991   4.95149
 Alpha virt. eigenvalues --    4.95576   4.95863   4.96315   4.96685   4.96708
 Alpha virt. eigenvalues --    4.96942   4.97071   4.97376   4.97767   4.98144
 Alpha virt. eigenvalues --    4.98617   4.99236   4.99479   4.99712   4.99969
 Alpha virt. eigenvalues --    5.00448   5.00601   5.00714   5.01788   5.02261
 Alpha virt. eigenvalues --    5.02416   5.02582   5.02850   5.03064   5.03380
 Alpha virt. eigenvalues --    5.03562   5.03841   5.04185   5.04888   5.05060
 Alpha virt. eigenvalues --    5.05553   5.06005   5.06639   5.06700   5.07129
 Alpha virt. eigenvalues --    5.07148   5.07597   5.08368   5.09077   5.09145
 Alpha virt. eigenvalues --    5.09564   5.09694   5.09985   5.10181   5.10337
 Alpha virt. eigenvalues --    5.10990   5.11994   5.12254   5.12320   5.12491
 Alpha virt. eigenvalues --    5.13186   5.13521   5.14098   5.14675   5.15019
 Alpha virt. eigenvalues --    5.15137   5.15523   5.16899   5.16961   5.17206
 Alpha virt. eigenvalues --    5.17447   5.17691   5.18059   5.18409   5.18609
 Alpha virt. eigenvalues --    5.19080   5.19329   5.19810   5.20587   5.20836
 Alpha virt. eigenvalues --    5.21301   5.22049   5.22767   5.23105   5.23382
 Alpha virt. eigenvalues --    5.23527   5.23756   5.24172   5.24615   5.24675
 Alpha virt. eigenvalues --    5.25227   5.25445   5.25885   5.26147   5.26506
 Alpha virt. eigenvalues --    5.26924   5.27561   5.27618   5.27930   5.28375
 Alpha virt. eigenvalues --    5.28750   5.28982   5.29091   5.29162   5.29243
 Alpha virt. eigenvalues --    5.29453   5.29898   5.30001   5.30157   5.30592
 Alpha virt. eigenvalues --    5.31062   5.31294   5.31377   5.31720   5.32017
 Alpha virt. eigenvalues --    5.32611   5.32743   5.33038   5.33322   5.33390
 Alpha virt. eigenvalues --    5.33898   5.34372   5.34772   5.35714   5.36311
 Alpha virt. eigenvalues --    5.37005   5.37113   5.37377   5.37455   5.37721
 Alpha virt. eigenvalues --    5.38731   5.38801   5.38908   5.39243   5.39639
 Alpha virt. eigenvalues --    5.39795   5.40265   5.40452   5.40595   5.40779
 Alpha virt. eigenvalues --    5.41367   5.41623   5.41904   5.42395   5.43088
 Alpha virt. eigenvalues --    5.43639   5.43778   5.44129   5.44331   5.44494
 Alpha virt. eigenvalues --    5.45798   5.46120   5.46377   5.47020   5.47158
 Alpha virt. eigenvalues --    5.47279   5.47688   5.48214   5.48862   5.49611
 Alpha virt. eigenvalues --    5.49756   5.50144   5.51008   5.51153   5.51661
 Alpha virt. eigenvalues --    5.51914   5.52845   5.52931   5.53412   5.53672
 Alpha virt. eigenvalues --    5.54949   5.55050   5.55379   5.55849   5.56358
 Alpha virt. eigenvalues --    5.56952   5.57219   5.57416   5.58329   5.58501
 Alpha virt. eigenvalues --    5.59144   5.59286   5.59620   5.59747   5.59900
 Alpha virt. eigenvalues --    5.60232   5.60753   5.60917   5.61472   5.61808
 Alpha virt. eigenvalues --    5.62011   5.62204   5.62680   5.62795   5.62976
 Alpha virt. eigenvalues --    5.63203   5.63387   5.63631   5.63669   5.64780
 Alpha virt. eigenvalues --    5.65248   5.66058   5.66243   5.66712   5.66804
 Alpha virt. eigenvalues --    5.67599   5.67964   5.68296   5.68830   5.69191
 Alpha virt. eigenvalues --    5.69826   5.70384   5.71084   5.71405   5.72328
 Alpha virt. eigenvalues --    5.73273   5.74525   5.75272   5.75841   5.77073
 Alpha virt. eigenvalues --    5.77897   5.80843   5.82173   5.82996   5.83115
 Alpha virt. eigenvalues --    5.84806   5.85758   5.86901   5.87145   5.87913
 Alpha virt. eigenvalues --    5.89385   5.90784   5.91359   5.92135   5.94173
 Alpha virt. eigenvalues --    5.94490   5.96232   5.96273   5.97140   5.98541
 Alpha virt. eigenvalues --    6.00519   6.00581   6.01102   6.01951   6.02406
 Alpha virt. eigenvalues --    6.03377   6.03981   6.04368   6.04973   6.05637
 Alpha virt. eigenvalues --    6.05749   6.06385   6.07057   6.07118   6.10508
 Alpha virt. eigenvalues --    6.10614   6.11491   6.12264   6.12374   6.17750
 Alpha virt. eigenvalues --    6.18101   6.19267   6.20777   6.23346   6.24377
 Alpha virt. eigenvalues --    6.24505   6.26685   6.26923   6.27587   6.27695
 Alpha virt. eigenvalues --    6.28378   6.28807   6.29640   6.30836   6.32607
 Alpha virt. eigenvalues --    6.32832   6.34702   6.35330   6.36097   6.40857
 Alpha virt. eigenvalues --    6.41223   6.44306   6.45197   6.45613   6.46363
 Alpha virt. eigenvalues --    6.50596   6.55472   6.61506   6.70372   6.72462
 Alpha virt. eigenvalues --    6.72516   6.72573   6.74697   6.75163   6.76430
 Alpha virt. eigenvalues --    6.76876   6.77169   6.77462   6.80408   6.82508
 Alpha virt. eigenvalues --    6.83157   6.83983   6.84592   6.84997   6.85114
 Alpha virt. eigenvalues --    6.85651   6.86503   6.87885   6.88433   6.93368
 Alpha virt. eigenvalues --    6.94589   6.95623   6.98300   6.98671   6.98764
 Alpha virt. eigenvalues --    6.99163   6.99309   6.99577   6.99872   7.01107
 Alpha virt. eigenvalues --    7.01358   7.01711   7.02423   7.02904   7.03545
 Alpha virt. eigenvalues --    7.04981   7.08023   7.09866   7.11274   7.17458
 Alpha virt. eigenvalues --    7.22010   7.24673   7.26397   7.27140   7.27372
 Alpha virt. eigenvalues --    7.27507   7.29103   7.30314   7.32709   7.32856
 Alpha virt. eigenvalues --    7.33281   7.33348   7.33392   7.34257   7.35217
 Alpha virt. eigenvalues --    7.38966   7.39119   7.39666   7.43325   7.46966
 Alpha virt. eigenvalues --    7.46977   8.46406   8.52353   8.56880   8.63003
 Alpha virt. eigenvalues --    8.82433   8.87826   8.90979   8.94339   8.95338
 Alpha virt. eigenvalues --    9.01357  15.86183  22.76913  22.87135  22.89199
 Alpha virt. eigenvalues --   22.92392  22.95061  23.10267  23.13244  23.14473
 Alpha virt. eigenvalues --   23.15225  23.18763  23.19368  23.24757  23.26064
 Alpha virt. eigenvalues --   23.27716  23.28065  23.28461  23.28713  23.31111
 Alpha virt. eigenvalues --   23.32618  23.32917  23.32934  23.34242  23.34516
 Alpha virt. eigenvalues --   23.35326  23.36143  23.36255  23.36953  23.37663
 Alpha virt. eigenvalues --   23.40873  23.41007  23.44081  23.46284  23.46764
 Alpha virt. eigenvalues --   23.47833  23.49830  23.51866  23.53391  23.54539
 Alpha virt. eigenvalues --   23.55015  23.55868  23.57896  23.57975  23.61674
 Alpha virt. eigenvalues --   23.70492  23.75537  23.85909  23.93786  24.09864
 Alpha virt. eigenvalues --   24.10546  24.11255  33.17642  33.24760  44.00336
 Alpha virt. eigenvalues --   44.26959  44.27231  44.28787  44.43232  44.44996
 Alpha virt. eigenvalues --   44.48051  44.51332  44.61973  44.62206  57.42877
 Alpha virt. eigenvalues --   57.62181
          Condensed to atoms (all electrons):
 Mulliken charges:
               1
     1  B    0.346787
     2  N   -0.103653
     3  C   -0.024774
     4  C   -0.075590
     5  C   -0.008704
     6  C    0.100438
     7  C    0.176765
     8  C   -0.071615
     9  O   -0.283324
    10  C   -0.489460
    11  C    0.172704
    12  C   -0.178825
    13  C   -0.121348
    14  C   -0.020479
    15  C   -0.139386
    16  C   -0.114374
    17  C    0.169981
    18  O   -0.376267
    19  C    0.102233
    20  N   -0.102144
    21  C   -0.035015
    22  C   -0.068475
    23  C   -0.035321
    24  C   -0.410878
    25  C   -0.078591
    26  C   -0.072059
    27  C    0.010668
    28  C   -0.158258
    29  C   -0.192529
    30  C    0.224489
    31  O   -0.283885
    32  C   -0.103550
    33  C   -0.092439
    34  O   -0.327286
    35  C   -0.065372
    36  C   -0.121589
    37  O   -0.342591
    38  C   -0.035977
    39  C   -0.079721
    40  O   -0.358013
    41  C   -0.191814
    42  C   -0.170704
    43  C   -0.150862
    44  C   -0.444311
    45  C   -0.087821
    46  C   -0.077181
    47  C    0.019751
    48  C   -0.156160
    49  C   -0.164297
    50  C    0.232160
    51  O   -0.301490
    52  C   -0.155223
    53  C   -0.028113
    54  O   -0.331694
    55  C   -0.124102
    56  C   -0.076201
    57  O   -0.350452
    58  C   -0.069198
    59  C   -0.066722
    60  O   -0.356413
    61  C   -0.195758
    62  C   -0.185491
    63  C   -0.161571
    64  F   -0.339156
    65  F   -0.341854
    66  H    0.163053
    67  H    0.240733
    68  H    0.207280
    69  H    0.158463
    70  H    0.158097
    71  H    0.164086
    72  H    0.156672
    73  H    0.091414
    74  H    0.164208
    75  H    0.138987
    76  H    0.134691
    77  H    0.176025
    78  H    0.099046
    79  H    0.121361
    80  H    0.155842
    81  H    0.158360
    82  H    0.149317
    83  H    0.150162
    84  H    0.124942
    85  H    0.124990
    86  H    0.133143
    87  H    0.123338
    88  H    0.129977
    89  H    0.124848
    90  H    0.115164
    91  H    0.116467
    92  H    0.114003
    93  H    0.127011
    94  H    0.136952
    95  H    0.119193
    96  H    0.119633
    97  H    0.154962
    98  H    0.139786
    99  H    0.152102
   100  H    0.180073
   101  H    0.135897
   102  H    0.100182
   103  H    0.122696
   104  H    0.139091
   105  H    0.140770
   106  H    0.156832
   107  H    0.155848
   108  H    0.126963
   109  H    0.127274
   110  H    0.135512
   111  H    0.132930
   112  H    0.124605
   113  H    0.130832
   114  H    0.119992
   115  H    0.135846
   116  H    0.117039
   117  H    0.126205
   118  H    0.119962
   119  H    0.137630
   120  H    0.120528
   121  H    0.156063
   122  H    0.155023
 Sum of Mulliken charges =  -0.00000
 Mulliken charges with hydrogens summed into heavy atoms:
               1
     1  B    0.346787
     2  N   -0.103653
     3  C   -0.024774
     4  C    0.087463
     5  C   -0.008704
     6  C    0.100438
     7  C    0.176765
     8  C   -0.071615
     9  O   -0.283324
    10  C   -0.041446
    11  C    0.172704
    12  C   -0.020362
    13  C    0.036749
    14  C   -0.020479
    15  C    0.024700
    16  C    0.042297
    17  C    0.261395
    18  O   -0.376267
    19  C    0.102233
    20  N   -0.102144
    21  C   -0.035015
    22  C    0.095734
    23  C   -0.035321
    24  C    0.038825
    25  C    0.020455
    26  C    0.049302
    27  C    0.010668
    28  C   -0.002416
    29  C   -0.034170
    30  C    0.224489
    31  O   -0.283885
    32  C    0.195929
    33  C    0.157493
    34  O   -0.327286
    35  C    0.191108
    36  C    0.133236
    37  O   -0.342591
    38  C    0.195654
    39  C    0.161293
    40  O   -0.358013
    41  C    0.183964
    42  C   -0.015741
    43  C   -0.011076
    44  C    0.023761
    45  C    0.012361
    46  C    0.045516
    47  C    0.019751
    48  C   -0.017069
    49  C   -0.023527
    50  C    0.232160
    51  O   -0.301490
    52  C    0.157457
    53  C    0.226124
    54  O   -0.331694
    55  C    0.144340
    56  C    0.179236
    57  O   -0.350452
    58  C    0.186640
    59  C    0.176522
    60  O   -0.356413
    61  C    0.182362
    62  C   -0.029428
    63  C   -0.006548
    64  F   -0.339156
    65  F   -0.341854
 Electronic spatial extent (au):  <R**2>=         119811.7716
 Charge=             -0.0000 electrons
 Dipole moment (field-independent basis, Debye):
    X=              8.6899    Y=              7.1657    Z=             -5.3164  Tot=             12.4549
 Quadrupole moment (field-independent basis, Debye-Ang):
   XX=           -365.0009   YY=           -381.7632   ZZ=           -371.0520
   XY=            -15.2006   XZ=            -58.1797   YZ=             12.4580
 Traceless Quadrupole moment (field-independent basis, Debye-Ang):
   XX=              7.6045   YY=             -9.1578   ZZ=              1.5534
   XY=            -15.2006   XZ=            -58.1797   YZ=             12.4580
 Octapole moment (field-independent basis, Debye-Ang**2):
  XXX=           1860.0735  YYY=            451.4778  ZZZ=            -42.5081  XYY=            -42.6558
  XXY=            684.7899  XXZ=            123.6697  XZZ=            205.7600  YZZ=            114.6012
  YYZ=           -432.3514  XYZ=            -39.3104
 Hexadecapole moment (field-independent basis, Debye-Ang**3):
 XXXX=        -120903.1490 YYYY=         -51352.9964 ZZZZ=          -5817.0288 XXXY=          -7061.0687
 XXXZ=          -9538.6590 YYYX=           3503.8656 YYYZ=           -856.3559 ZZZX=           -331.2133
 ZZZY=           -154.3700 XXYY=         -27545.4743 XXZZ=         -17983.1986 YYZZ=          -8615.9026
 XXYZ=            729.9749 YYXZ=          -3483.7522 ZZXY=            272.1374
 N-N= 8.575154725338D+03 E-N=-2.421400174928D+04  KE= 3.009685930424D+03
 Leave Link  601 at Tue Oct 28 17:26:42 2025, MaxMem= 30870077440 cpu:             132.1 elap:               2.6
 (Enter /public/software/gauss/g16/l9999.exe)
 1\1\GINC-CU031\SP\RM062X\def2TZVPP\C50H57B1F2N2O10\BAIDING\28-Oct-2025
 \0\\#p M062X/DEF2TZVPP scrf=(solvent=water) em=GD3\\Energy calculation
  for BE_CHO\\0,1\B,0,-2.845534,0.285245,-0.485431\N,0,-3.835703,-0.749
 485,-1.085499\C,0,-3.530741,-1.914494,-1.740778\C,0,-4.731986,-2.45695
 9,-2.264063\C,0,-5.791493,-1.642063,-1.913279\C,0,-5.219184,-0.555061,
 -1.169922\C,0,-5.808084,0.590833,-0.617696\C,0,-7.320155,0.715535,-0.6
 03127\O,0,-7.906029,1.279915,-1.511784\C,0,-8.013401,0.093622,0.601288
 \C,0,-9.497676,0.345149,0.680732\C,0,-10.373318,-0.231717,-0.251672\C,
 0,-11.742176,0.002854,-0.170424\C,0,-12.259966,0.819623,0.846541\C,0,-
 11.38811,1.398445,1.782808\C,0,-10.021787,1.162181,1.696218\C,0,-13.70
 9726,1.051433,0.914078\O,0,-14.26871,1.744647,1.759886\C,0,-5.042123,1
 .623763,-0.061531\N,0,-3.645847,1.533327,-0.024879\C,0,-3.164769,2.659
 486,0.592049\C,0,-4.268541,3.479643,0.941276\C,0,-5.438769,2.867409,0.
 536522\C,0,-6.809371,3.454794,0.684561\C,0,-1.811873,3.048276,0.900986
 \C,0,-0.632034,2.51663,0.486511\C,0,0.696035,2.981181,0.861209\C,0,0.9
 43995,4.032447,1.775095\C,0,2.234696,4.427483,2.079429\C,0,3.335345,3.
 784614,1.48292\O,0,4.564341,4.251034,1.851004\C,0,5.730624,3.644485,1.
 269594\C,0,6.947805,4.34182,1.828285\O,0,6.979952,5.681983,1.352489\C,
 0,8.108539,6.402712,1.840296\C,0,8.071431,7.81332,1.279967\O,0,8.13545
 6,7.877937,-0.144073\C,0,9.427516,7.614678,-0.687938\C,0,9.364877,7.96
 726,-2.172506\O,0,10.612401,7.749034,-2.824821\C,0,10.814826,6.399045,
 -3.236071\C,0,3.119854,2.736087,0.579719\C,0,1.814541,2.350757,0.28295
 7\C,0,-7.218835,-1.879586,-2.304346\C,0,-2.259579,-2.566637,-1.927329\
 C,0,-1.071522,-2.343806,-1.306645\C,0,0.172881,-3.056155,-1.557564\C,0
 ,1.302479,-2.733545,-0.780432\C,0,2.53045,-3.366915,-0.952763\C,0,2.65
 9219,-4.356922,-1.935417\O,0,3.802209,-5.05102,-2.221462\C,0,5.068308,
 -4.684059,-1.638575\C,0,5.415296,-5.520272,-0.424429\O,0,4.59629,-5.14
 0936,0.679667\C,0,4.929979,-5.775887,1.916296\C,0,4.292031,-7.148198,2
 .093927\O,0,4.811397,-8.176718,1.248389\C,0,6.079068,-8.686794,1.65797
 1\C,0,6.374755,-9.902661,0.782131\O,0,7.658621,-10.458348,1.048206\C,0
 ,7.693075,-11.296455,2.201361\C,0,1.544636,-4.697567,-2.724954\C,0,0.3
 29183,-4.062449,-2.538543\F,0,-2.168635,-0.254851,0.621681\F,0,-1.9154
 35,0.638229,-1.477388\H,0,-4.788972,-3.37263,-2.837548\H,0,-7.794316,-
 0.981899,0.554714\H,0,-7.499125,0.455315,1.498495\H,0,-9.978856,-0.868
 644,-1.037185\H,0,-12.418998,-0.446729,-0.892111\H,0,-11.793251,2.0266
 43,2.569613\H,0,-9.347737,1.606215,2.422824\H,0,-14.300786,0.54568,0.1
 26516\H,0,-4.182465,4.442498,1.427176\H,0,-7.47161,2.829514,1.292241\H
 ,0,-6.737095,4.428906,1.174292\H,0,-7.296613,3.599074,-0.284364\H,0,-1
 .788206,3.924058,1.545039\H,0,-0.641342,1.686686,-0.209103\H,0,0.11746
 9,4.545144,2.256158\H,0,2.42014,5.234706,2.780783\H,0,5.770961,2.57972
 7,1.526473\H,0,5.699713,3.745725,0.178638\H,0,6.92227,4.322097,2.92802
 7\H,0,7.843028,3.791106,1.50285\H,0,8.084616,6.4643,2.939359\H,0,9.038
 06,5.885372,1.560854\H,0,7.123427,8.286217,1.5555\H,0,8.89001,8.393232
 ,1.73014\H,0,10.187972,8.233772,-0.189909\H,0,9.707761,6.561731,-0.552
 929\H,0,8.563985,7.393487,-2.659691\H,0,9.133473,9.031848,-2.280888\H,
 0,11.775401,6.365324,-3.756143\H,0,10.850251,5.703639,-2.388031\H,0,10
 .02406,6.071672,-3.925211\H,0,3.949274,2.222274,0.109953\H,0,1.654824,
 1.537184,-0.419311\H,0,-7.860353,-2.072197,-1.437578\H,0,-7.642978,-1.
 02812,-2.84389\H,0,-7.276843,-2.755111,-2.955565\H,0,-2.324357,-3.3734
 27,-2.653662\H,0,-1.015328,-1.591653,-0.528805\H,0,1.211552,-1.968435,
 -0.01413\H,0,3.36033,-3.106284,-0.309704\H,0,5.807741,-4.891581,-2.416
 996\H,0,5.099172,-3.614529,-1.413795\H,0,5.288224,-6.58288,-0.66215\H,
 0,6.47671,-5.349791,-0.187409\H,0,6.020933,-5.822108,2.036936\H,0,4.53
 5271,-5.12601,2.705175\H,0,4.388418,-7.444888,3.149409\H,0,3.225876,-7
 .075965,1.855593\H,0,6.876013,-7.942203,1.52819\H,0,6.043418,-8.963839
 ,2.721053\H,0,5.587473,-10.658767,0.912299\H,0,6.380084,-9.595474,-0.2
 68823\H,0,6.966284,-12.116352,2.117563\H,0,8.699597,-11.718374,2.25751
 6\H,0,7.492485,-10.743614,3.127616\H,0,1.661076,-5.464005,-3.484544\H,
 0,-0.507756,-4.345548,-3.168702\\Version=ES64L-G16RevA.03\State=1-A\HF
 =-3025.9771962\RMSD=4.283e-09\Dipole=3.4188701,-2.8191885,2.0916307\Qu
 adrupole=5.6537257,-6.8086133,1.1548876,11.3012542,43.2552107,9.262204
 3\PG=C01 [X(C50H57B1F2N2O10)]\\@


 REALITY IS FOR PEOPLE WHO CAN'T FACE SCIENCE FICTION.
 Job cpu time:       1 days  5 hours 15 minutes 19.1 seconds.
 Elapsed time:       0 days  0 hours 28 minutes  3.4 seconds.
 File lengths (MBytes):  RWF=   5261 Int=      0 D2E=      0 Chk=    458 Scr=      1
 Normal termination of Gaussian 16 at Tue Oct 28 17:26:43 2025.
