 Entering Gaussian System, Link 0=g16
 Input=BE_Cl_sp.gjf
 Output=BE_Cl_sp.log
 Initial command:
 /public/software/gauss/g16/l1.exe "/public/home/baiding/1028_sp/tmp_BE_Cl_sp_1538822/Gau-41095.inp" -scrdir="/public/home/baiding/1028_sp/tmp_BE_Cl_sp_1538822/"
 Entering Link 1 = /public/software/gauss/g16/l1.exe PID=     41096.
  
 Copyright (c) 1988,1990,1992,1993,1995,1998,2003,2009,2016,
            Gaussian, Inc.  All Rights Reserved.
  
 This is part of the Gaussian(R) 16 program.  It is based on
 the Gaussian(R) 09 system (copyright 2009, Gaussian, Inc.),
 the Gaussian(R) 03 system (copyright 2003, Gaussian, Inc.),
 the Gaussian(R) 98 system (copyright 1998, Gaussian, Inc.),
 the Gaussian(R) 94 system (copyright 1995, Gaussian, Inc.),
 the Gaussian 92(TM) system (copyright 1992, Gaussian, Inc.),
 the Gaussian 90(TM) system (copyright 1990, Gaussian, Inc.),
 the Gaussian 88(TM) system (copyright 1988, Gaussian, Inc.),
 the Gaussian 86(TM) system (copyright 1986, Carnegie Mellon
 University), and the Gaussian 82(TM) system (copyright 1983,
 Carnegie Mellon University). Gaussian is a federally registered
 trademark of Gaussian, Inc.
  
 This software contains proprietary and confidential information,
 including trade secrets, belonging to Gaussian, Inc.
  
 This software is provided under written license and may be
 used, copied, transmitted, or stored only in accord with that
 written license.
  
 The following legend is applicable only to US Government
 contracts under FAR:
  
                    RESTRICTED RIGHTS LEGEND
  
 Use, reproduction and disclosure by the US Government is
 subject to restrictions as set forth in subparagraphs (a)
 and (c) of the Commercial Computer Software - Restricted
 Rights clause in FAR 52.227-19.
  
 Gaussian, Inc.
 340 Quinnipiac St., Bldg. 40, Wallingford CT 06492
  
  
 ---------------------------------------------------------------
 Warning -- This program may not be used in any manner that
 competes with the business of Gaussian, Inc. or will provide
 assistance to any competitor of Gaussian, Inc.  The licensee
 of this program is prohibited from giving any competitor of
 Gaussian, Inc. access to this program.  By using this program,
 the user acknowledges that Gaussian, Inc. is engaged in the
 business of creating and licensing software in the field of
 computational chemistry and represents and warrants to the
 licensee that it is not a competitor of Gaussian, Inc. and that
 it will not use this program in any manner prohibited above.
 ---------------------------------------------------------------
  

 Cite this work as:
 Gaussian 16, Revision A.03,
 M. J. Frisch, G. W. Trucks, H. B. Schlegel, G. E. Scuseria, 
 M. A. Robb, J. R. Cheeseman, G. Scalmani, V. Barone, 
 G. A. Petersson, H. Nakatsuji, X. Li, M. Caricato, A. V. Marenich, 
 J. Bloino, B. G. Janesko, R. Gomperts, B. Mennucci, H. P. Hratchian, 
 J. V. Ortiz, A. F. Izmaylov, J. L. Sonnenberg, D. Williams-Young, 
 F. Ding, F. Lipparini, F. Egidi, J. Goings, B. Peng, A. Petrone, 
 T. Henderson, D. Ranasinghe, V. G. Zakrzewski, J. Gao, N. Rega, 
 G. Zheng, W. Liang, M. Hada, M. Ehara, K. Toyota, R. Fukuda, 
 J. Hasegawa, M. Ishida, T. Nakajima, Y. Honda, O. Kitao, H. Nakai, 
 T. Vreven, K. Throssell, J. A. Montgomery, Jr., J. E. Peralta, 
 F. Ogliaro, M. J. Bearpark, J. J. Heyd, E. N. Brothers, K. N. Kudin, 
 V. N. Staroverov, T. A. Keith, R. Kobayashi, J. Normand, 
 K. Raghavachari, A. P. Rendell, J. C. Burant, S. S. Iyengar, 
 J. Tomasi, M. Cossi, J. M. Millam, M. Klene, C. Adamo, R. Cammi, 
 J. W. Ochterski, R. L. Martin, K. Morokuma, O. Farkas, 
 J. B. Foresman, and D. J. Fox, Gaussian, Inc., Wallingford CT, 2016.
 
 ******************************************
 Gaussian 16:  ES64L-G16RevA.03 25-Dec-2016
                28-Oct-2025 
 ******************************************
 %nprocshared=64
 Will use up to   64 processors via shared memory.
 %mem=230GB
 %chk=BE_Cl_sp.chk
 ----------------------------------------------
 #p M062X/DEF2TZVPP scrf=(solvent=water) em=GD3
 ----------------------------------------------
 1/38=1,172=1/1;
 2/12=2,17=6,18=5,40=1/2;
 3/5=44,7=202,11=2,25=1,30=1,70=2201,72=1,74=-55,124=31/1,2,3;
 4//1;
 5/5=2,38=5,53=1/2;
 6/7=2,8=2,9=2,10=2,28=1/1;
 99/5=1,9=1/99;
 Leave Link    1 at Tue Oct 28 17:26:44 2025, MaxMem= 30870077440 cpu:              13.7 elap:               0.2
 (Enter /public/software/gauss/g16/l101.exe)
 ----------------------------
 Energy calculation for BE_Cl
 ----------------------------
 Symbolic Z-matrix:
 Charge =  0 Multiplicity = 1
 B                     2.42619  -0.57686   0.31161 
 N                     3.04284   0.84936   0.27012 
 C                     2.37786   2.0213    0.04067 
 C                     3.36395   3.05022  -0.00753 
 C                     4.62513   2.52904   0.2061 
 C                     4.4155    1.11707   0.36611 
 C                     5.33874   0.07751   0.55887 
 C                     6.81892   0.42337   0.57615 
 O                     7.35588   0.85379   1.58053 
 C                     7.56576   0.20418  -0.74101 
 C                     8.75739   1.10662  -0.94974 
 C                     9.90053   1.15987  -0.12814 
 N                     10.10644   0.21593   0.9756 
 O                     9.71735  -0.94312   0.82927 
 O                     10.69575   0.62105   1.97797 
 C                     10.93023   2.07335  -0.32491 
 C                     10.83127   2.94277  -1.4019 
 C                     9.73395   2.929    -2.25906 
 C                     8.71053   2.02148  -2.01333 
 N                     11.91709   3.89384  -1.63841 
 O                     12.88094   3.88307  -0.86911 
 O                     11.8163   4.66225  -2.59734 
 C                     4.9254   -1.26222   0.66359 
 N                     3.59028  -1.59337   0.45065 
 C                     3.42381  -2.94289   0.596 
 C                     4.70159  -3.4746    0.92813 
 C                     5.64545  -2.45949   0.97821 
 C                     7.08742  -2.64253   1.32341 
 Cl                    5.07902  -5.15699   1.17162 
 C                     2.14824  -3.56741   0.36687 
 C                     1.78424  -4.81987   0.7476 
 C                     0.49906  -5.454     0.49399 
 C                     0.26342  -6.74244   1.02221 
 C                    -0.9362   -7.40404   0.81269 
 C                    -1.95122  -6.79591   0.05752 
 O                    -3.08748  -7.54085  -0.10525 
 C                    -4.17423  -7.03964  -0.90293 
 C                    -5.08763  -6.12727  -0.07946 
 O                    -6.16605  -5.6307   -0.86506 
 C                    -7.26332  -6.53845  -0.99828 
 C                    -8.38223  -5.83441  -1.74384 
 O                    -8.8947   -4.70098  -1.03828 
 C                    -9.90715  -5.00523  -0.07279 
 C                    -11.29553  -5.10012  -0.69493 
 O                    -11.70601  -3.90977  -1.36694 
 C                    -12.12189  -2.87024  -0.48755 
 C                    -1.74458  -5.51355  -0.47677 
 C                    -0.53647  -4.86225  -0.25768 
 C                     5.89079   3.32152   0.27902 
 Cl                    2.99686   4.73543  -0.24693 
 C                     0.97498   2.26811  -0.14312 
 C                    -0.08603   1.4772    0.17188 
 C                    -1.48582   1.80368  -0.04338 
 C                    -2.46745   0.90119   0.42493 
 C                    -3.81992   1.15272   0.2636 
 C                    -4.24588   2.32576  -0.38088 
 O                    -5.59844   2.46718  -0.50364 
 C                    -6.15669   3.66217  -1.08226 
 C                    -6.20667   4.81688  -0.09162 
 O                    -6.98071   4.50042   1.06789 
 C                    -8.38467   4.74579   0.93521 
 C                    -8.71611   6.17222   1.38247 
 O                    -10.11827   6.43243   1.36171 
 C                    -10.63173   6.77023   0.07175 
 C                    -12.0973   7.14223   0.21782 
 O                    -12.33312   8.27048   1.05771 
 C                    -12.01526   9.51648   0.44667 
 C                    -3.29043   3.23868  -0.85978 
 C                    -1.93716   2.97218  -0.69124 
 F                     1.70139  -0.818    -0.86027 
 F                     1.58172  -0.71393   1.42537 
 H                     7.86322  -0.85086  -0.75048 
 H                     6.86371   0.33721  -1.56648 
 H                     11.78941   2.08964   0.33127 
 H                     9.67997   3.61699  -3.09288 
 H                     7.84246   2.01888  -2.66314 
 H                     7.50441  -1.77206   1.82838 
 H                     7.20469  -3.50233   1.9877 
 H                     7.69219  -2.83935   0.43077 
 H                     1.43226  -2.94499  -0.15709 
 H                     2.48387  -5.43054   1.30848 
 H                     1.04288  -7.2254    1.6049 
 H                    -1.10741  -8.39548   1.21916 
 H                    -3.80291  -6.52148  -1.79208 
 H                    -4.71262  -7.93241  -1.2278 
 H                    -5.45842  -6.67168   0.79959 
 H                    -4.5307   -5.25376   0.27204 
 H                    -6.97618  -7.4342   -1.56661 
 H                    -7.59814  -6.86638  -0.00359 
 H                    -7.99995  -5.4551   -2.69726 
 H                    -9.17333  -6.56176  -1.96519 
 H                    -9.69121  -5.94456   0.45372 
 H                    -9.86998  -4.20021   0.66758 
 H                    -11.31436  -5.88997  -1.4531 
 H                    -12.018   -5.37052   0.09044 
 H                    -12.93454  -3.20716   0.17169 
 H                    -11.30099  -2.49297   0.13584 
 H                    -12.48781  -2.05127  -1.11202 
 H                    -2.51351  -5.01811  -1.05642 
 H                    -0.40289  -3.87364  -0.68482 
 H                     6.39606   3.1854    1.23803 
 H                     6.59391   3.04403  -0.51119 
 H                     5.67005   4.38362   0.15931 
 H                     0.77918   3.25473  -0.5519 
 H                     0.08879   0.52593   0.65955 
 H                    -2.15131  -0.00973   0.92544 
 H                    -4.56697   0.45476   0.62717 
 H                    -5.61048   3.95346  -1.98525 
 H                    -7.1667    3.37029  -1.37957 
 H                    -5.20222   5.05816   0.26783 
 H                    -6.59936   5.70169  -0.60899 
 H                    -8.72096   4.5645   -0.09249 
 H                    -8.89791   4.03119   1.58667 
 H                    -8.38965   6.30352   2.41914 
 H                    -8.17935   6.9039    0.76206 
 H                    -10.04989   7.59854  -0.35695 
 H                    -10.56279   5.92295  -0.62498 
 H                    -12.51968   7.30999  -0.78396 
 H                    -12.63505   6.30817   0.68042 
 H                    -12.3314   10.30073   1.13912 
 H                    -10.93973   9.63021   0.25909 
 H                    -12.55138   9.64271  -0.50463 
 H                    -3.58918   4.1509   -1.36107 
 H                    -1.22235   3.69197  -1.07662 
 
 ITRead=  0  0  0  0  0  0  0  0  0  0  0  0  0  0  0  0  0  0  0  0
 ITRead=  0  0  0  0  0  0  0  0  0  0  0  0  0  0  0  0  0  0  0  0
 ITRead=  0  0  0  0  0  0  0  0  0  0  0  0  0  0  0  0  0  0  0  0
 ITRead=  0  0  0  0  0  0  0  0  0  0  0  0  0  0  0  0  0  0  0  0
 ITRead=  0  0  0  0  0  0  0  0  0  0  0  0  0  0  0  0  0  0  0  0
 ITRead=  0  0  0  0  0  0  0  0  0  0  0  0  0  0  0  0  0  0  0  0
 ITRead=  0  0  0  0
 MicOpt= -1 -1 -1 -1 -1 -1 -1 -1 -1 -1 -1 -1 -1 -1 -1 -1 -1 -1 -1 -1
 MicOpt= -1 -1 -1 -1 -1 -1 -1 -1 -1 -1 -1 -1 -1 -1 -1 -1 -1 -1 -1 -1
 MicOpt= -1 -1 -1 -1 -1 -1 -1 -1 -1 -1 -1 -1 -1 -1 -1 -1 -1 -1 -1 -1
 MicOpt= -1 -1 -1 -1 -1 -1 -1 -1 -1 -1 -1 -1 -1 -1 -1 -1 -1 -1 -1 -1
 MicOpt= -1 -1 -1 -1 -1 -1 -1 -1 -1 -1 -1 -1 -1 -1 -1 -1 -1 -1 -1 -1
 MicOpt= -1 -1 -1 -1 -1 -1 -1 -1 -1 -1 -1 -1 -1 -1 -1 -1 -1 -1 -1 -1
 MicOpt= -1 -1 -1 -1
 NAtoms=    124 NQM=      124 NQMF=       0 NMMI=      0 NMMIF=      0
                NMic=       0 NMicF=      0.
                    Isotopes and Nuclear Properties:
 (Nuclear quadrupole moments (NQMom) in fm**2, nuclear magnetic moments (NMagM)
  in nuclear magnetons)

  Atom         1           2           3           4           5           6           7           8           9          10
 IAtWgt=          11          14          12          12          12          12          12          12          16          12
 AtmWgt=  11.0093053  14.0030740  12.0000000  12.0000000  12.0000000  12.0000000  12.0000000  12.0000000  15.9949146  12.0000000
 NucSpn=           3           2           0           0           0           0           0           0           0           0
 AtZEff=  -0.0000000  -0.0000000  -0.0000000  -0.0000000  -0.0000000  -0.0000000  -0.0000000  -0.0000000  -0.0000000  -0.0000000
 NQMom=    4.0590000   2.0440000   0.0000000   0.0000000   0.0000000   0.0000000   0.0000000   0.0000000   0.0000000   0.0000000
 NMagM=    2.6886370   0.4037610   0.0000000   0.0000000   0.0000000   0.0000000   0.0000000   0.0000000   0.0000000   0.0000000
 AtZNuc=   5.0000000   7.0000000   6.0000000   6.0000000   6.0000000   6.0000000   6.0000000   6.0000000   8.0000000   6.0000000

  Atom        11          12          13          14          15          16          17          18          19          20
 IAtWgt=          12          12          14          16          16          12          12          12          12          14
 AtmWgt=  12.0000000  12.0000000  14.0030740  15.9949146  15.9949146  12.0000000  12.0000000  12.0000000  12.0000000  14.0030740
 NucSpn=           0           0           2           0           0           0           0           0           0           2
 AtZEff=  -0.0000000  -0.0000000  -0.0000000  -0.0000000  -0.0000000  -0.0000000  -0.0000000  -0.0000000  -0.0000000  -0.0000000
 NQMom=    0.0000000   0.0000000   2.0440000   0.0000000   0.0000000   0.0000000   0.0000000   0.0000000   0.0000000   2.0440000
 NMagM=    0.0000000   0.0000000   0.4037610   0.0000000   0.0000000   0.0000000   0.0000000   0.0000000   0.0000000   0.4037610
 AtZNuc=   6.0000000   6.0000000   7.0000000   8.0000000   8.0000000   6.0000000   6.0000000   6.0000000   6.0000000   7.0000000

  Atom        21          22          23          24          25          26          27          28          29          30
 IAtWgt=          16          16          12          14          12          12          12          12          35          12
 AtmWgt=  15.9949146  15.9949146  12.0000000  14.0030740  12.0000000  12.0000000  12.0000000  12.0000000  34.9688527  12.0000000
 NucSpn=           0           0           0           2           0           0           0           0           3           0
 AtZEff=  -0.0000000  -0.0000000  -0.0000000  -0.0000000  -0.0000000  -0.0000000  -0.0000000  -0.0000000  -0.0000000  -0.0000000
 NQMom=    0.0000000   0.0000000   0.0000000   2.0440000   0.0000000   0.0000000   0.0000000   0.0000000  -8.1650000   0.0000000
 NMagM=    0.0000000   0.0000000   0.0000000   0.4037610   0.0000000   0.0000000   0.0000000   0.0000000   0.8218740   0.0000000
 AtZNuc=   8.0000000   8.0000000   6.0000000   7.0000000   6.0000000   6.0000000   6.0000000   6.0000000  17.0000000   6.0000000

  Atom        31          32          33          34          35          36          37          38          39          40
 IAtWgt=          12          12          12          12          12          16          12          12          16          12
 AtmWgt=  12.0000000  12.0000000  12.0000000  12.0000000  12.0000000  15.9949146  12.0000000  12.0000000  15.9949146  12.0000000
 NucSpn=           0           0           0           0           0           0           0           0           0           0
 AtZEff=  -0.0000000  -0.0000000  -0.0000000  -0.0000000  -0.0000000  -0.0000000  -0.0000000  -0.0000000  -0.0000000  -0.0000000
 NQMom=    0.0000000   0.0000000   0.0000000   0.0000000   0.0000000   0.0000000   0.0000000   0.0000000   0.0000000   0.0000000
 NMagM=    0.0000000   0.0000000   0.0000000   0.0000000   0.0000000   0.0000000   0.0000000   0.0000000   0.0000000   0.0000000
 AtZNuc=   6.0000000   6.0000000   6.0000000   6.0000000   6.0000000   8.0000000   6.0000000   6.0000000   8.0000000   6.0000000

  Atom        41          42          43          44          45          46          47          48          49          50
 IAtWgt=          12          16          12          12          16          12          12          12          12          35
 AtmWgt=  12.0000000  15.9949146  12.0000000  12.0000000  15.9949146  12.0000000  12.0000000  12.0000000  12.0000000  34.9688527
 NucSpn=           0           0           0           0           0           0           0           0           0           3
 AtZEff=  -0.0000000  -0.0000000  -0.0000000  -0.0000000  -0.0000000  -0.0000000  -0.0000000  -0.0000000  -0.0000000  -0.0000000
 NQMom=    0.0000000   0.0000000   0.0000000   0.0000000   0.0000000   0.0000000   0.0000000   0.0000000   0.0000000  -8.1650000
 NMagM=    0.0000000   0.0000000   0.0000000   0.0000000   0.0000000   0.0000000   0.0000000   0.0000000   0.0000000   0.8218740
 AtZNuc=   6.0000000   8.0000000   6.0000000   6.0000000   8.0000000   6.0000000   6.0000000   6.0000000   6.0000000  17.0000000

  Atom        51          52          53          54          55          56          57          58          59          60
 IAtWgt=          12          12          12          12          12          12          16          12          12          16
 AtmWgt=  12.0000000  12.0000000  12.0000000  12.0000000  12.0000000  12.0000000  15.9949146  12.0000000  12.0000000  15.9949146
 NucSpn=           0           0           0           0           0           0           0           0           0           0
 AtZEff=  -0.0000000  -0.0000000  -0.0000000  -0.0000000  -0.0000000  -0.0000000  -0.0000000  -0.0000000  -0.0000000  -0.0000000
 NQMom=    0.0000000   0.0000000   0.0000000   0.0000000   0.0000000   0.0000000   0.0000000   0.0000000   0.0000000   0.0000000
 NMagM=    0.0000000   0.0000000   0.0000000   0.0000000   0.0000000   0.0000000   0.0000000   0.0000000   0.0000000   0.0000000
 AtZNuc=   6.0000000   6.0000000   6.0000000   6.0000000   6.0000000   6.0000000   8.0000000   6.0000000   6.0000000   8.0000000

  Atom        61          62          63          64          65          66          67          68          69          70
 IAtWgt=          12          12          16          12          12          16          12          12          12          19
 AtmWgt=  12.0000000  12.0000000  15.9949146  12.0000000  12.0000000  15.9949146  12.0000000  12.0000000  12.0000000  18.9984033
 NucSpn=           0           0           0           0           0           0           0           0           0           1
 AtZEff=  -0.0000000  -0.0000000  -0.0000000  -0.0000000  -0.0000000  -0.0000000  -0.0000000  -0.0000000  -0.0000000  -0.0000000
 NQMom=    0.0000000   0.0000000   0.0000000   0.0000000   0.0000000   0.0000000   0.0000000   0.0000000   0.0000000   0.0000000
 NMagM=    0.0000000   0.0000000   0.0000000   0.0000000   0.0000000   0.0000000   0.0000000   0.0000000   0.0000000   2.6288670
 AtZNuc=   6.0000000   6.0000000   8.0000000   6.0000000   6.0000000   8.0000000   6.0000000   6.0000000   6.0000000   9.0000000

  Atom        71          72          73          74          75          76          77          78          79          80
 IAtWgt=          19           1           1           1           1           1           1           1           1           1
 AtmWgt=  18.9984033   1.0078250   1.0078250   1.0078250   1.0078250   1.0078250   1.0078250   1.0078250   1.0078250   1.0078250
 NucSpn=           1           1           1           1           1           1           1           1           1           1
 AtZEff=  -0.0000000  -0.0000000  -0.0000000  -0.0000000  -0.0000000  -0.0000000  -0.0000000  -0.0000000  -0.0000000  -0.0000000
 NQMom=    0.0000000   0.0000000   0.0000000   0.0000000   0.0000000   0.0000000   0.0000000   0.0000000   0.0000000   0.0000000
 NMagM=    2.6288670   2.7928460   2.7928460   2.7928460   2.7928460   2.7928460   2.7928460   2.7928460   2.7928460   2.7928460
 AtZNuc=   9.0000000   1.0000000   1.0000000   1.0000000   1.0000000   1.0000000   1.0000000   1.0000000   1.0000000   1.0000000

  Atom        81          82          83          84          85          86          87          88          89          90
 IAtWgt=           1           1           1           1           1           1           1           1           1           1
 AtmWgt=   1.0078250   1.0078250   1.0078250   1.0078250   1.0078250   1.0078250   1.0078250   1.0078250   1.0078250   1.0078250
 NucSpn=           1           1           1           1           1           1           1           1           1           1
 AtZEff=  -0.0000000  -0.0000000  -0.0000000  -0.0000000  -0.0000000  -0.0000000  -0.0000000  -0.0000000  -0.0000000  -0.0000000
 NQMom=    0.0000000   0.0000000   0.0000000   0.0000000   0.0000000   0.0000000   0.0000000   0.0000000   0.0000000   0.0000000
 NMagM=    2.7928460   2.7928460   2.7928460   2.7928460   2.7928460   2.7928460   2.7928460   2.7928460   2.7928460   2.7928460
 AtZNuc=   1.0000000   1.0000000   1.0000000   1.0000000   1.0000000   1.0000000   1.0000000   1.0000000   1.0000000   1.0000000

  Atom        91          92          93          94          95          96          97          98          99         100
 IAtWgt=           1           1           1           1           1           1           1           1           1           1
 AtmWgt=   1.0078250   1.0078250   1.0078250   1.0078250   1.0078250   1.0078250   1.0078250   1.0078250   1.0078250   1.0078250
 NucSpn=           1           1           1           1           1           1           1           1           1           1
 AtZEff=  -0.0000000  -0.0000000  -0.0000000  -0.0000000  -0.0000000  -0.0000000  -0.0000000  -0.0000000  -0.0000000  -0.0000000
 NQMom=    0.0000000   0.0000000   0.0000000   0.0000000   0.0000000   0.0000000   0.0000000   0.0000000   0.0000000   0.0000000
 NMagM=    2.7928460   2.7928460   2.7928460   2.7928460   2.7928460   2.7928460   2.7928460   2.7928460   2.7928460   2.7928460
 AtZNuc=   1.0000000   1.0000000   1.0000000   1.0000000   1.0000000   1.0000000   1.0000000   1.0000000   1.0000000   1.0000000

  Atom       101         102         103         104         105         106         107         108         109         110
 IAtWgt=           1           1           1           1           1           1           1           1           1           1
 AtmWgt=   1.0078250   1.0078250   1.0078250   1.0078250   1.0078250   1.0078250   1.0078250   1.0078250   1.0078250   1.0078250
 NucSpn=           1           1           1           1           1           1           1           1           1           1
 AtZEff=  -0.0000000  -0.0000000  -0.0000000  -0.0000000  -0.0000000  -0.0000000  -0.0000000  -0.0000000  -0.0000000  -0.0000000
 NQMom=    0.0000000   0.0000000   0.0000000   0.0000000   0.0000000   0.0000000   0.0000000   0.0000000   0.0000000   0.0000000
 NMagM=    2.7928460   2.7928460   2.7928460   2.7928460   2.7928460   2.7928460   2.7928460   2.7928460   2.7928460   2.7928460
 AtZNuc=   1.0000000   1.0000000   1.0000000   1.0000000   1.0000000   1.0000000   1.0000000   1.0000000   1.0000000   1.0000000

  Atom       111         112         113         114         115         116         117         118         119         120
 IAtWgt=           1           1           1           1           1           1           1           1           1           1
 AtmWgt=   1.0078250   1.0078250   1.0078250   1.0078250   1.0078250   1.0078250   1.0078250   1.0078250   1.0078250   1.0078250
 NucSpn=           1           1           1           1           1           1           1           1           1           1
 AtZEff=  -0.0000000  -0.0000000  -0.0000000  -0.0000000  -0.0000000  -0.0000000  -0.0000000  -0.0000000  -0.0000000  -0.0000000
 NQMom=    0.0000000   0.0000000   0.0000000   0.0000000   0.0000000   0.0000000   0.0000000   0.0000000   0.0000000   0.0000000
 NMagM=    2.7928460   2.7928460   2.7928460   2.7928460   2.7928460   2.7928460   2.7928460   2.7928460   2.7928460   2.7928460
 AtZNuc=   1.0000000   1.0000000   1.0000000   1.0000000   1.0000000   1.0000000   1.0000000   1.0000000   1.0000000   1.0000000

  Atom       121         122         123         124
 IAtWgt=           1           1           1           1
 AtmWgt=   1.0078250   1.0078250   1.0078250   1.0078250
 NucSpn=           1           1           1           1
 AtZEff=  -0.0000000  -0.0000000  -0.0000000  -0.0000000
 NQMom=    0.0000000   0.0000000   0.0000000   0.0000000
 NMagM=    2.7928460   2.7928460   2.7928460   2.7928460
 AtZNuc=   1.0000000   1.0000000   1.0000000   1.0000000
 Leave Link  101 at Tue Oct 28 17:26:44 2025, MaxMem= 30870077440 cpu:               6.5 elap:               0.1
 (Enter /public/software/gauss/g16/l202.exe)
 Stoichiometry    C49H53BCl2F2N4O13
 Framework group  C1[X(C49H53BCl2F2N4O13)]
 Deg. of freedom   366
 Full point group                 C1      NOp   1
 Largest Abelian subgroup         C1      NOp   1
 Largest concise Abelian subgroup C1      NOp   1
                         Standard orientation:                         
 ---------------------------------------------------------------------
 Center     Atomic      Atomic             Coordinates (Angstroms)
 Number     Number       Type             X           Y           Z
 ---------------------------------------------------------------------
      1          5           0        2.426187    0.576855   -0.311611
      2          7           0        3.042842   -0.849355   -0.270122
      3          6           0        2.377862   -2.021302   -0.040669
      4          6           0        3.363950   -3.050218    0.007526
      5          6           0        4.625126   -2.529037   -0.206104
      6          6           0        4.415502   -1.117072   -0.366109
      7          6           0        5.338741   -0.077508   -0.558870
      8          6           0        6.818922   -0.423372   -0.576147
      9          8           0        7.355885   -0.853790   -1.580534
     10          6           0        7.565761   -0.204176    0.741014
     11          6           0        8.757394   -1.106621    0.949742
     12          6           0        9.900531   -1.159872    0.128141
     13          7           0       10.106440   -0.215930   -0.975600
     14          8           0        9.717346    0.943124   -0.829267
     15          8           0       10.695746   -0.621047   -1.977965
     16          6           0       10.930225   -2.073351    0.324911
     17          6           0       10.831269   -2.942774    1.401903
     18          6           0        9.733955   -2.929004    2.259058
     19          6           0        8.710528   -2.021477    2.013325
     20          7           0       11.917085   -3.893838    1.638412
     21          8           0       12.880940   -3.883069    0.869109
     22          8           0       11.816297   -4.662249    2.597343
     23          6           0        4.925404    1.262215   -0.663592
     24          7           0        3.590279    1.593374   -0.450654
     25          6           0        3.423808    2.942891   -0.595995
     26          6           0        4.701585    3.474596   -0.928130
     27          6           0        5.645451    2.459487   -0.978208
     28          6           0        7.087420    2.642529   -1.323411
     29         17           0        5.079015    5.156986   -1.171618
     30          6           0        2.148239    3.567406   -0.366866
     31          6           0        1.784240    4.819867   -0.747602
     32          6           0        0.499061    5.454001   -0.493993
     33          6           0        0.263422    6.742443   -1.022205
     34          6           0       -0.936196    7.404035   -0.812694
     35          6           0       -1.951223    6.795906   -0.057518
     36          8           0       -3.087481    7.540849    0.105250
     37          6           0       -4.174227    7.039640    0.902934
     38          6           0       -5.087633    6.127265    0.079457
     39          8           0       -6.166052    5.630704    0.865064
     40          6           0       -7.263324    6.538449    0.998279
     41          6           0       -8.382235    5.834405    1.743839
     42          8           0       -8.894700    4.700983    1.038284
     43          6           0       -9.907147    5.005232    0.072794
     44          6           0      -11.295532    5.100122    0.694926
     45          8           0      -11.706008    3.909767    1.366936
     46          6           0      -12.121886    2.870237    0.487548
     47          6           0       -1.744576    5.513546    0.476774
     48          6           0       -0.536466    4.862247    0.257678
     49          6           0        5.890789   -3.321517   -0.279024
     50         17           0        2.996855   -4.735428    0.246925
     51          6           0        0.974981   -2.268111    0.143116
     52          6           0       -0.086025   -1.477203   -0.171884
     53          6           0       -1.485823   -1.803681    0.043379
     54          6           0       -2.467448   -0.901192   -0.424931
     55          6           0       -3.819920   -1.152719   -0.263602
     56          6           0       -4.245880   -2.325761    0.380875
     57          8           0       -5.598444   -2.467184    0.503644
     58          6           0       -6.156692   -3.662172    1.082263
     59          6           0       -6.206670   -4.816875    0.091617
     60          8           0       -6.980714   -4.500416   -1.067889
     61          6           0       -8.384665   -4.745791   -0.935211
     62          6           0       -8.716110   -6.172222   -1.382468
     63          8           0      -10.118274   -6.432433   -1.361713
     64          6           0      -10.631730   -6.770232   -0.071751
     65          6           0      -12.097303   -7.142230   -0.217824
     66          8           0      -12.333120   -8.270481   -1.057706
     67          6           0      -12.015258   -9.516478   -0.446670
     68          6           0       -3.290434   -3.238678    0.859776
     69          6           0       -1.937155   -2.972179    0.691235
     70          9           0        1.701392    0.817997    0.860274
     71          9           0        1.581722    0.713930   -1.425371
     72          1           0        7.863219    0.850858    0.750479
     73          1           0        6.863705   -0.337207    1.566476
     74          1           0       11.789408   -2.089639   -0.331265
     75          1           0        9.679972   -3.616993    3.092880
     76          1           0        7.842457   -2.018878    2.663138
     77          1           0        7.504410    1.772063   -1.828375
     78          1           0        7.204692    3.502333   -1.987700
     79          1           0        7.692194    2.839353   -0.430765
     80          1           0        1.432261    2.944991    0.157087
     81          1           0        2.483866    5.430536   -1.308484
     82          1           0        1.042878    7.225396   -1.604895
     83          1           0       -1.107408    8.395480   -1.219158
     84          1           0       -3.802909    6.521483    1.792078
     85          1           0       -4.712619    7.932414    1.227800
     86          1           0       -5.458418    6.671678   -0.799585
     87          1           0       -4.530697    5.253762   -0.272036
     88          1           0       -6.976178    7.434200    1.566613
     89          1           0       -7.598144    6.866384    0.003592
     90          1           0       -7.999950    5.455098    2.697256
     91          1           0       -9.173333    6.561760    1.965193
     92          1           0       -9.691209    5.944557   -0.453719
     93          1           0       -9.869983    4.200213   -0.667578
     94          1           0      -11.314363    5.889972    1.453096
     95          1           0      -12.018000    5.370520   -0.090444
     96          1           0      -12.934542    3.207160   -0.171688
     97          1           0      -11.300992    2.492972   -0.135835
     98          1           0      -12.487808    2.051274    1.112016
     99          1           0       -2.513509    5.018105    1.056422
    100          1           0       -0.402893    3.873643    0.684821
    101          1           0        6.396058   -3.185402   -1.238033
    102          1           0        6.593905   -3.044029    0.511186
    103          1           0        5.670049   -4.383618   -0.159310
    104          1           0        0.779177   -3.254730    0.551904
    105          1           0        0.088790   -0.525934   -0.659547
    106          1           0       -2.151314    0.009732   -0.925437
    107          1           0       -4.566974   -0.454764   -0.627166
    108          1           0       -5.610478   -3.953460    1.985251
    109          1           0       -7.166696   -3.370287    1.379569
    110          1           0       -5.202222   -5.058157   -0.267833
    111          1           0       -6.599363   -5.701694    0.608994
    112          1           0       -8.720964   -4.564498    0.092492
    113          1           0       -8.897909   -4.031187   -1.586665
    114          1           0       -8.389655   -6.303521   -2.419142
    115          1           0       -8.179352   -6.903900   -0.762060
    116          1           0      -10.049893   -7.598536    0.356953
    117          1           0      -10.562786   -5.922954    0.624980
    118          1           0      -12.519684   -7.309986    0.783963
    119          1           0      -12.635046   -6.308168   -0.680417
    120          1           0      -12.331395  -10.300728   -1.139117
    121          1           0      -10.939728   -9.630209   -0.259087
    122          1           0      -12.551382   -9.642709    0.504628
    123          1           0       -3.589184   -4.150895    1.361065
    124          1           0       -1.222354   -3.691971    1.076623
 ---------------------------------------------------------------------
 Rotational constants (GHZ):           0.0250089           0.0092933           0.0069609
 Leave Link  202 at Tue Oct 28 17:26:44 2025, MaxMem= 30870077440 cpu:               0.2 elap:               0.0
 (Enter /public/software/gauss/g16/l301.exe)
 Standard basis: def2TZVPP (5D, 7F)
 Ernie: Thresh=  0.10000D-02 Tol=  0.10000D-05 Strict=F.
 There are  3375 symmetry adapted cartesian basis functions of A   symmetry.
 There are  2965 symmetry adapted basis functions of A   symmetry.
  2965 basis functions,  4558 primitive gaussians,  3375 cartesian basis functions
   268 alpha electrons      268 beta electrons
       nuclear repulsion energy     10624.9223067113 Hartrees.
 IExCor= 4336 DFT=T Ex+Corr=M062X ExCW=0 ScaHFX=  0.540000
 ScaDFX=  1.000000  1.000000  1.000000  1.000000 ScalE2=  1.000000  1.000000
 IRadAn=      5 IRanWt=     -1 IRanGd=            0 ICorTp=0 IEmpDi=131
 NAtoms=  124 NActive=  124 NUniq=  124 SFac= 1.00D+00 NAtFMM=   60 NAOKFM=T Big=T
 Integral buffers will be    131072 words long.
 Raffenetti 2 integral format.
 Two-electron integral symmetry is turned on.
 R6Disp:  Grimme-D3 Dispersion energy=       -0.0105466063 Hartrees.
 Nuclear repulsion after empirical dispersion term =    10624.9117601051 Hartrees.
 ------------------------------------------------------------------------------
 Polarizable Continuum Model (PCM)
 =================================
 Model                : PCM.
 Atomic radii         : UFF (Universal Force Field).
 Polarization charges : Total charges.
 Charge compensation  : None.
 Solution method      : On-the-fly selection.
 Cavity type          : Scaled VdW (van der Waals Surface) (Alpha=1.100).
 Cavity algorithm     : GePol (No added spheres)
                        Default sphere list used, NSphG=  124.
                        Lebedev-Laikov grids with approx.  5.0 points / Ang**2.
                        Smoothing algorithm: York/Karplus (Gamma=1.0000).
                        Polarization charges: spherical gaussians, with
                                              point-specific exponents (IZeta= 3).
                        Self-potential: point-specific (ISelfS= 7).
                        Self-field    : sphere-specific E.n sum rule (ISelfD= 2).
 Solvent              : Water, Eps=  78.355300 Eps(inf)=   1.777849
 ------------------------------------------------------------------------------
 GePol: Number of generator spheres                  =     124
 GePol: Total number of spheres                      =     124
 GePol: Number of exposed spheres                    =     124 (100.00%)
 GePol: Number of points                             =    8767
 GePol: Average weight of points                     =       0.13
 GePol: Minimum weight of points                     =   0.82D-11
 GePol: Maximum weight of points                     =    0.21616
 GePol: Number of points with low weight             =     520
 GePol: Fraction of low-weight points (<1% of avg)   =       5.93%
 GePol: Cavity surface area                          =   1129.741 Ang**2
 GePol: Cavity volume                                =   1303.178 Ang**3
 Leave Link  301 at Tue Oct 28 17:26:44 2025, MaxMem= 30870077440 cpu:               7.2 elap:               0.1
 (Enter /public/software/gauss/g16/l302.exe)
 NPDir=0 NMtPBC=     1 NCelOv=     1 NCel=       1 NClECP=     1 NCelD=      1
         NCelK=      1 NCelE2=     1 NClLst=     1 CellRange=     0.0.
 One-electron integrals computed using PRISM.
 One-electron integral symmetry used in STVInt
   1 Symmetry operations used in ECPInt.
 ECPInt:  NShTT=  611065 NPrTT= 1728758 LenC2=  256485 LenP2D=  476941.
 LDataN:  DoStor=T MaxTD1= 6 Len=  172
 Number of processors reduced to  56 by ecpmxn.
 NBasis=  2965 RedAO= T EigKep=  4.50D-06  NBF=  2965
 NBsUse=  2965 1.00D-06 EigRej= -1.00D+00 NBFU=  2965
 Precomputing XC quadrature grid using
 IXCGrd= 4 IRadAn=           5 IRanWt=          -1 IRanGd=           0 AccXCQ= 0.00D+00.
 Generated NRdTot=       0 NPtTot=           0 NUsed=           0 NTot=          32
 NSgBfM=  2587  2587  2587  2587  2587 MxSgAt=   124 MxSgA2=   124.
 Leave Link  302 at Tue Oct 28 17:27:17 2025, MaxMem= 30870077440 cpu:            2081.7 elap:              32.6
 (Enter /public/software/gauss/g16/l303.exe)
 DipDrv:  MaxL=1.
 Leave Link  303 at Tue Oct 28 17:27:18 2025, MaxMem= 30870077440 cpu:              61.0 elap:               1.0
 (Enter /public/software/gauss/g16/l401.exe)
 ExpMin= 6.06D-02 ExpMax= 6.95D+04 ExpMxC= 2.37D+03 IAcc=3 IRadAn=         5 AccDes= 0.00D+00
 Harris functional with IExCor= 1009 and IRadAn=       5 diagonalized for initial guess.
 HarFok:  IExCor= 1009 AccDes= 0.00D+00 IRadAn=         5 IDoV= 1 UseB2=F ITyADJ=14
 ICtDFT=  3500011 ScaDFX=  1.000000  1.000000  1.000000  1.000000
 FoFCou: FMM=F IPFlag=           0 FMFlag=      100000 FMFlg1=        2001
         NFxFlg=           0 DoJE=T BraDBF=F KetDBF=T FulRan=T
         wScrn=  0.000000 ICntrl=       500 IOpCl=  0 I1Cent=   200000004 NGrid=           0
         NMat0=    1 NMatS0=      1 NMatT0=    0 NMatD0=    1 NMtDS0=    0 NMtDT0=    0
 Petite list used in FoFCou.
 Harris En= -4238.67877661721    
 JPrj=0 DoOrth=F DoCkMO=F.
 Leave Link  401 at Tue Oct 28 17:27:43 2025, MaxMem= 30870077440 cpu:            1597.3 elap:              25.1
 (Enter /public/software/gauss/g16/l502.exe)
 Integral symmetry usage will be decided dynamically.
 Closed shell SCF:
 Using DIIS extrapolation, IDIIS=  1040.
 NGot= 30870077440 LenX= 30847051854 LenY= 30835657854
 Requested convergence on RMS density matrix=1.00D-08 within 128 cycles.
 Requested convergence on MAX density matrix=1.00D-06.
 Requested convergence on             energy=1.00D-06.
 No special actions if energy rises.
 Fock matrices will be formed incrementally for  20 cycles.

 Cycle   1  Pass 1  IDiag  1:
 FoFJK:  IHMeth= 1 ICntrl=       0 DoSepK=F KAlg= 0 I1Cent=           0 FoldK=F
 IRaf= 380000000 NMat=       1 IRICut=       1 DoRegI=T DoRafI=F ISym2E= 0 IDoP0=0 IntGTp=1.
 FoFCou: FMM=T IPFlag=           0 FMFlag=      100000 FMFlg1=        2001
         NFxFlg=           0 DoJE=F BraDBF=F KetDBF=F FulRan=T
         wScrn=  0.000000 ICntrl=         0 IOpCl=  0 I1Cent=           0 NGrid=           0
         NMat0=    1 NMatS0=      1 NMatT0=    0 NMatD0=    1 NMtDS0=    0 NMtDT0=    0
 Symmetry not used in FoFCou.
 FMM levels:  10  Number of levels for PrismC:   9
 Inv3:  Mode=1 IEnd=   230580867.
 Iteration    1 A*A^-1 deviation from unit magnitude is 3.20D-14 for   8750.
 Iteration    1 A*A^-1 deviation from orthogonality  is 7.97D-15 for   8750   5737.
 Iteration    1 A^-1*A deviation from unit magnitude is 3.20D-14 for   8750.
 Iteration    1 A^-1*A deviation from orthogonality  is 8.85D-15 for   7141   7124.
 E= -4239.21696430768    
 DIIS: error= 2.27D-02 at cycle   1 NSaved=   1.
 NSaved= 1 IEnMin= 1 EnMin= -4239.21696430768     IErMin= 1 ErrMin= 2.27D-02
 ErrMax= 2.27D-02  0.00D+00 EMaxC= 1.00D-01 BMatC= 2.33D+00 BMatP= 2.33D+00
 IDIUse=3 WtCom= 7.73D-01 WtEn= 2.27D-01
 Coeff-Com:  0.100D+01
 Coeff-En:   0.100D+01
 Coeff:      0.100D+01
 Gap=     0.209 Goal=   None    Shift=    0.000
 GapD=    0.209 DampG=1.000 DampE=0.500 DampFc=0.5000 IDamp=-1.
 Damping current iteration by 5.00D-01
 RMSDP=1.57D-03 MaxDP=6.13D-01              OVMax= 2.59D-01

 Cycle   2  Pass 1  IDiag  1:
 RMSU=  7.81D-04    CP:  1.02D+00
 E= -4240.01552299651     Delta-E=       -0.798558688826 Rises=F Damp=T
 DIIS: error= 4.53D-03 at cycle   2 NSaved=   2.
 NSaved= 2 IEnMin= 2 EnMin= -4240.01552299651     IErMin= 2 ErrMin= 4.53D-03
 ErrMax= 4.53D-03  0.00D+00 EMaxC= 1.00D-01 BMatC= 2.45D-01 BMatP= 2.33D+00
 IDIUse=3 WtCom= 9.55D-01 WtEn= 4.53D-02
 Coeff-Com: -0.711D-01 0.107D+01
 Coeff-En:   0.000D+00 0.100D+01
 Coeff:     -0.679D-01 0.107D+01
 Gap=     0.177 Goal=   None    Shift=    0.000
 RMSDP=4.89D-04 MaxDP=1.40D-01 DE=-7.99D-01 OVMax= 1.94D-01

 Cycle   3  Pass 1  IDiag  1:
 RMSU=  4.86D-04    CP:  9.99D-01  9.92D-01
 E= -4240.77120067631     Delta-E=       -0.755677679801 Rises=F Damp=F
 DIIS: error= 8.86D-03 at cycle   3 NSaved=   3.
 NSaved= 3 IEnMin= 3 EnMin= -4240.77120067631     IErMin= 2 ErrMin= 4.53D-03
 ErrMax= 8.86D-03  0.00D+00 EMaxC= 1.00D-01 BMatC= 1.30D-01 BMatP= 2.45D-01
 IDIUse=3 WtCom= 9.11D-01 WtEn= 8.86D-02
 Coeff-Com: -0.122D+00 0.480D+00 0.643D+00
 Coeff-En:   0.000D+00 0.000D+00 0.100D+01
 Coeff:     -0.111D+00 0.437D+00 0.674D+00
 Gap=     0.122 Goal=   None    Shift=    0.000
 RMSDP=1.80D-04 MaxDP=4.64D-02 DE=-7.56D-01 OVMax= 7.55D-02

 Cycle   4  Pass 1  IDiag  1:
 RMSU=  1.61D-04    CP:  1.00D+00  1.07D+00  9.04D-01
 E= -4240.84876688076     Delta-E=       -0.077566204453 Rises=F Damp=F
 DIIS: error= 2.99D-03 at cycle   4 NSaved=   4.
 NSaved= 4 IEnMin= 4 EnMin= -4240.84876688076     IErMin= 4 ErrMin= 2.99D-03
 ErrMax= 2.99D-03  0.00D+00 EMaxC= 1.00D-01 BMatC= 2.27D-02 BMatP= 1.30D-01
 IDIUse=3 WtCom= 9.70D-01 WtEn= 2.99D-02
 Coeff-Com: -0.379D-01 0.930D-01 0.342D+00 0.603D+00
 Coeff-En:   0.000D+00 0.000D+00 0.134D+00 0.866D+00
 Coeff:     -0.368D-01 0.902D-01 0.336D+00 0.611D+00
 Gap=     0.126 Goal=   None    Shift=    0.000
 RMSDP=7.06D-05 MaxDP=1.89D-02 DE=-7.76D-02 OVMax= 1.88D-02

 Cycle   5  Pass 1  IDiag  1:
 RMSU=  4.11D-05    CP:  1.00D+00  1.05D+00  9.53D-01  6.99D-01
 E= -4240.86569316414     Delta-E=       -0.016926283377 Rises=F Damp=F
 DIIS: error= 2.61D-04 at cycle   5 NSaved=   5.
 NSaved= 5 IEnMin= 5 EnMin= -4240.86569316414     IErMin= 5 ErrMin= 2.61D-04
 ErrMax= 2.61D-04  0.00D+00 EMaxC= 1.00D-01 BMatC= 6.43D-04 BMatP= 2.27D-02
 IDIUse=3 WtCom= 9.97D-01 WtEn= 2.61D-03
 Coeff-Com: -0.105D-01 0.200D-01 0.120D+00 0.264D+00 0.607D+00
 Coeff-En:   0.000D+00 0.000D+00 0.000D+00 0.000D+00 0.100D+01
 Coeff:     -0.105D-01 0.200D-01 0.119D+00 0.263D+00 0.608D+00
 Gap=     0.126 Goal=   None    Shift=    0.000
 RMSDP=2.00D-05 MaxDP=7.88D-03 DE=-1.69D-02 OVMax= 6.47D-03

 Cycle   6  Pass 1  IDiag  1:
 RMSU=  1.63D-05    CP:  1.00D+00  1.06D+00  9.51D-01  7.45D-01  9.29D-01
 E= -4240.86617871061     Delta-E=       -0.000485546478 Rises=F Damp=F
 DIIS: error= 1.25D-04 at cycle   6 NSaved=   6.
 NSaved= 6 IEnMin= 6 EnMin= -4240.86617871061     IErMin= 6 ErrMin= 1.25D-04
 ErrMax= 1.25D-04  0.00D+00 EMaxC= 1.00D-01 BMatC= 1.16D-04 BMatP= 6.43D-04
 IDIUse=3 WtCom= 9.99D-01 WtEn= 1.25D-03
 Coeff-Com: -0.452D-03-0.170D-02 0.205D-01 0.629D-01 0.318D+00 0.601D+00
 Coeff-En:   0.000D+00 0.000D+00 0.000D+00 0.000D+00 0.452D-01 0.955D+00
 Coeff:     -0.452D-03-0.170D-02 0.205D-01 0.628D-01 0.317D+00 0.601D+00
 Gap=     0.127 Goal=   None    Shift=    0.000
 RMSDP=7.45D-06 MaxDP=2.40D-03 DE=-4.86D-04 OVMax= 4.12D-03

 Cycle   7  Pass 1  IDiag  1:
 RMSU=  5.47D-06    CP:  1.00D+00  1.06D+00  9.55D-01  7.48D-01  1.02D+00
                    CP:  9.97D-01
 E= -4240.86629067799     Delta-E=       -0.000111967373 Rises=F Damp=F
 DIIS: error= 3.84D-05 at cycle   7 NSaved=   7.
 NSaved= 7 IEnMin= 7 EnMin= -4240.86629067799     IErMin= 7 ErrMin= 3.84D-05
 ErrMax= 3.84D-05  0.00D+00 EMaxC= 1.00D-01 BMatC= 1.36D-05 BMatP= 1.16D-04
 IDIUse=1 WtCom= 1.00D+00 WtEn= 0.00D+00
 Coeff-Com:  0.155D-02-0.408D-02-0.997D-02-0.152D-01 0.365D-01 0.267D+00
 Coeff-Com:  0.724D+00
 Coeff:      0.155D-02-0.408D-02-0.997D-02-0.152D-01 0.365D-01 0.267D+00
 Coeff:      0.724D+00
 Gap=     0.127 Goal=   None    Shift=    0.000
 RMSDP=4.12D-06 MaxDP=8.04D-04 DE=-1.12D-04 OVMax= 1.66D-03

 Cycle   8  Pass 1  IDiag  1:
 RMSU=  2.39D-06    CP:  1.00D+00  1.06D+00  9.57D-01  7.57D-01  1.06D+00
                    CP:  1.15D+00  1.06D+00
 E= -4240.86630829164     Delta-E=       -0.000017613649 Rises=F Damp=F
 DIIS: error= 2.18D-05 at cycle   8 NSaved=   8.
 NSaved= 8 IEnMin= 8 EnMin= -4240.86630829164     IErMin= 8 ErrMin= 2.18D-05
 ErrMax= 2.18D-05  0.00D+00 EMaxC= 1.00D-01 BMatC= 2.70D-06 BMatP= 1.36D-05
 IDIUse=1 WtCom= 1.00D+00 WtEn= 0.00D+00
 Coeff-Com:  0.863D-03-0.173D-02-0.846D-02-0.191D-01-0.418D-01 0.241D-01
 Coeff-Com:  0.356D+00 0.690D+00
 Coeff:      0.863D-03-0.173D-02-0.846D-02-0.191D-01-0.418D-01 0.241D-01
 Coeff:      0.356D+00 0.690D+00
 Gap=     0.127 Goal=   None    Shift=    0.000
 RMSDP=1.81D-06 MaxDP=3.36D-04 DE=-1.76D-05 OVMax= 1.03D-03

 Cycle   9  Pass 1  IDiag  1:
 RMSU=  9.33D-07    CP:  1.00D+00  1.06D+00  9.58D-01  7.59D-01  1.08D+00
                    CP:  1.20D+00  1.20D+00  1.09D+00
 E= -4240.86631210649     Delta-E=       -0.000003814854 Rises=F Damp=F
 DIIS: error= 1.06D-05 at cycle   9 NSaved=   9.
 NSaved= 9 IEnMin= 9 EnMin= -4240.86631210649     IErMin= 9 ErrMin= 1.06D-05
 ErrMax= 1.06D-05  0.00D+00 EMaxC= 1.00D-01 BMatC= 3.08D-07 BMatP= 2.70D-06
 IDIUse=1 WtCom= 1.00D+00 WtEn= 0.00D+00
 Coeff-Com:  0.166D-03-0.224D-03-0.217D-02-0.609D-02-0.223D-01-0.200D-01
 Coeff-Com:  0.561D-01 0.277D+00 0.717D+00
 Coeff:      0.166D-03-0.224D-03-0.217D-02-0.609D-02-0.223D-01-0.200D-01
 Coeff:      0.561D-01 0.277D+00 0.717D+00
 Gap=     0.128 Goal=   None    Shift=    0.000
 RMSDP=6.38D-07 MaxDP=1.33D-04 DE=-3.81D-06 OVMax= 4.77D-04

 Cycle  10  Pass 1  IDiag  1:
 RMSU=  3.84D-07    CP:  1.00D+00  1.06D+00  9.58D-01  7.59D-01  1.08D+00
                    CP:  1.21D+00  1.24D+00  1.22D+00  1.06D+00
 E= -4240.86631256361     Delta-E=       -0.000000457123 Rises=F Damp=F
 DIIS: error= 7.15D-06 at cycle  10 NSaved=  10.
 NSaved=10 IEnMin=10 EnMin= -4240.86631256361     IErMin=10 ErrMin= 7.15D-06
 ErrMax= 7.15D-06  0.00D+00 EMaxC= 1.00D-01 BMatC= 1.18D-07 BMatP= 3.08D-07
 IDIUse=1 WtCom= 1.00D+00 WtEn= 0.00D+00
 Coeff-Com: -0.768D-04 0.216D-03 0.488D-03 0.417D-03-0.457D-02-0.148D-01
 Coeff-Com: -0.420D-01 0.954D-02 0.421D+00 0.630D+00
 Coeff:     -0.768D-04 0.216D-03 0.488D-03 0.417D-03-0.457D-02-0.148D-01
 Coeff:     -0.420D-01 0.954D-02 0.421D+00 0.630D+00
 Gap=     0.128 Goal=   None    Shift=    0.000
 RMSDP=3.29D-07 MaxDP=6.11D-05 DE=-4.57D-07 OVMax= 2.14D-04

 Cycle  11  Pass 1  IDiag  1:
 RMSU=  1.71D-07    CP:  1.00D+00  1.06D+00  9.58D-01  7.60D-01  1.08D+00
                    CP:  1.22D+00  1.25D+00  1.28D+00  1.24D+00  9.62D-01
 E= -4240.86631270764     Delta-E=       -0.000000144031 Rises=F Damp=F
 DIIS: error= 2.01D-06 at cycle  11 NSaved=  11.
 NSaved=11 IEnMin=11 EnMin= -4240.86631270764     IErMin=11 ErrMin= 2.01D-06
 ErrMax= 2.01D-06  0.00D+00 EMaxC= 1.00D-01 BMatC= 1.30D-08 BMatP= 1.18D-07
 IDIUse=1 WtCom= 1.00D+00 WtEn= 0.00D+00
 Coeff-Com: -0.610D-04 0.134D-03 0.598D-03 0.128D-02 0.146D-02-0.286D-02
 Coeff-Com: -0.295D-01-0.458D-01 0.753D-01 0.294D+00 0.705D+00
 Coeff:     -0.610D-04 0.134D-03 0.598D-03 0.128D-02 0.146D-02-0.286D-02
 Coeff:     -0.295D-01-0.458D-01 0.753D-01 0.294D+00 0.705D+00
 Gap=     0.128 Goal=   None    Shift=    0.000
 RMSDP=1.26D-07 MaxDP=2.32D-05 DE=-1.44D-07 OVMax= 9.99D-05

 Cycle  12  Pass 1  IDiag  1:
 RMSU=  6.43D-08    CP:  1.00D+00  1.06D+00  9.58D-01  7.60D-01  1.08D+00
                    CP:  1.22D+00  1.26D+00  1.30D+00  1.29D+00  1.11D+00
                    CP:  1.07D+00
 E= -4240.86631272542     Delta-E=       -0.000000017781 Rises=F Damp=F
 DIIS: error= 4.69D-07 at cycle  12 NSaved=  12.
 NSaved=12 IEnMin=12 EnMin= -4240.86631272542     IErMin=12 ErrMin= 4.69D-07
 ErrMax= 4.69D-07  0.00D+00 EMaxC= 1.00D-01 BMatC= 2.04D-09 BMatP= 1.30D-08
 IDIUse=1 WtCom= 1.00D+00 WtEn= 0.00D+00
 Coeff-Com: -0.178D-04 0.321D-04 0.213D-03 0.561D-03 0.125D-02 0.880D-03
 Coeff-Com: -0.798D-02-0.229D-01-0.247D-01 0.439D-01 0.329D+00 0.680D+00
 Coeff:     -0.178D-04 0.321D-04 0.213D-03 0.561D-03 0.125D-02 0.880D-03
 Coeff:     -0.798D-02-0.229D-01-0.247D-01 0.439D-01 0.329D+00 0.680D+00
 Gap=     0.128 Goal=   None    Shift=    0.000
 RMSDP=4.78D-08 MaxDP=2.24D-05 DE=-1.78D-08 OVMax= 3.30D-05

 Cycle  13  Pass 1  IDiag  1:
 RMSU=  2.79D-08    CP:  1.00D+00  1.06D+00  9.58D-01  7.60D-01  1.08D+00
                    CP:  1.22D+00  1.26D+00  1.31D+00  1.31D+00  1.15D+00
                    CP:  1.21D+00  1.16D+00
 E= -4240.86631272850     Delta-E=       -0.000000003072 Rises=F Damp=F
 DIIS: error= 2.33D-07 at cycle  13 NSaved=  13.
 NSaved=13 IEnMin=13 EnMin= -4240.86631272850     IErMin=13 ErrMin= 2.33D-07
 ErrMax= 2.33D-07  0.00D+00 EMaxC= 1.00D-01 BMatC= 2.34D-10 BMatP= 2.04D-09
 IDIUse=1 WtCom= 1.00D+00 WtEn= 0.00D+00
 Coeff-Com:  0.366D-05-0.102D-04-0.268D-04-0.111D-04 0.176D-03 0.860D-03
 Coeff-Com:  0.182D-02-0.599D-03-0.204D-01-0.337D-01 0.659D-03 0.223D+00
 Coeff-Com:  0.829D+00
 Coeff:      0.366D-05-0.102D-04-0.268D-04-0.111D-04 0.176D-03 0.860D-03
 Coeff:      0.182D-02-0.599D-03-0.204D-01-0.337D-01 0.659D-03 0.223D+00
 Coeff:      0.829D+00
 Gap=     0.128 Goal=   None    Shift=    0.000
 RMSDP=2.63D-08 MaxDP=1.12D-05 DE=-3.07D-09 OVMax= 2.17D-05

 Cycle  14  Pass 1  IDiag  1:
 RMSU=  1.17D-08    CP:  1.00D+00  1.06D+00  9.58D-01  7.60D-01  1.08D+00
                    CP:  1.23D+00  1.26D+00  1.31D+00  1.32D+00  1.17D+00
                    CP:  1.27D+00  1.36D+00  1.27D+00
 E= -4240.86631272954     Delta-E=       -0.000000001046 Rises=F Damp=F
 DIIS: error= 1.46D-07 at cycle  14 NSaved=  14.
 NSaved=14 IEnMin=14 EnMin= -4240.86631272954     IErMin=14 ErrMin= 1.46D-07
 ErrMax= 1.46D-07  0.00D+00 EMaxC= 1.00D-01 BMatC= 6.79D-11 BMatP= 2.34D-10
 IDIUse=1 WtCom= 1.00D+00 WtEn= 0.00D+00
 Coeff-Com:  0.449D-05-0.960D-05-0.499D-04-0.101D-03-0.138D-03 0.259D-03
 Coeff-Com:  0.220D-02 0.383D-02-0.417D-02-0.224D-01-0.573D-01-0.291D-01
 Coeff-Com:  0.373D+00 0.734D+00
 Coeff:      0.449D-05-0.960D-05-0.499D-04-0.101D-03-0.138D-03 0.259D-03
 Coeff:      0.220D-02 0.383D-02-0.417D-02-0.224D-01-0.573D-01-0.291D-01
 Coeff:      0.373D+00 0.734D+00
 Gap=     0.128 Goal=   None    Shift=    0.000
 RMSDP=1.36D-08 MaxDP=8.16D-06 DE=-1.05D-09 OVMax= 1.30D-05

 Cycle  15  Pass 1  IDiag  1:
 RMSU=  5.68D-09    CP:  1.00D+00  1.06D+00  9.58D-01  7.60D-01  1.08D+00
                    CP:  1.23D+00  1.26D+00  1.31D+00  1.32D+00  1.17D+00
                    CP:  1.31D+00  1.44D+00  1.54D+00  1.28D+00
 E= -4240.86631273002     Delta-E=       -0.000000000482 Rises=F Damp=F
 DIIS: error= 6.19D-08 at cycle  15 NSaved=  15.
 NSaved=15 IEnMin=15 EnMin= -4240.86631273002     IErMin=15 ErrMin= 6.19D-08
 ErrMax= 6.19D-08  0.00D+00 EMaxC= 1.00D-01 BMatC= 1.65D-11 BMatP= 6.79D-11
 IDIUse=1 WtCom= 1.00D+00 WtEn= 0.00D+00
 Coeff-Com:  0.751D-06-0.117D-05-0.137D-04-0.369D-04-0.985D-04-0.993D-04
 Coeff-Com:  0.444D-03 0.175D-02 0.318D-02-0.157D-02-0.248D-01-0.688D-01
 Coeff-Com: -0.356D-01 0.331D+00 0.795D+00
 Coeff:      0.751D-06-0.117D-05-0.137D-04-0.369D-04-0.985D-04-0.993D-04
 Coeff:      0.444D-03 0.175D-02 0.318D-02-0.157D-02-0.248D-01-0.688D-01
 Coeff:     -0.356D-01 0.331D+00 0.795D+00
 Gap=     0.128 Goal=   None    Shift=    0.000
 RMSDP=8.10D-09 MaxDP=3.83D-06 DE=-4.82D-10 OVMax= 9.06D-06

 Cycle  16  Pass 1  IDiag  1:
 RMSU=  2.89D-09    CP:  1.00D+00  1.06D+00  9.58D-01  7.60D-01  1.08D+00
                    CP:  1.23D+00  1.26D+00  1.31D+00  1.33D+00  1.17D+00
                    CP:  1.32D+00  1.49D+00  1.67D+00  1.63D+00  1.34D+00
 E= -4240.86631272988     Delta-E=        0.000000000149 Rises=F Damp=F
 DIIS: error= 4.43D-08 at cycle  16 NSaved=  16.
 NSaved=16 IEnMin=15 EnMin= -4240.86631273002     IErMin=16 ErrMin= 4.43D-08
 ErrMax= 4.43D-08  0.00D+00 EMaxC= 1.00D-01 BMatC= 4.16D-12 BMatP= 1.65D-11
 IDIUse=1 WtCom= 1.00D+00 WtEn= 0.00D+00
 Coeff-Com: -0.777D-06 0.184D-05 0.655D-05 0.881D-05-0.915D-05-0.117D-03
 Coeff-Com: -0.368D-03-0.207D-03 0.246D-02 0.518D-02 0.420D-02-0.233D-01
 Coeff-Com: -0.120D+00-0.498D-01 0.366D+00 0.816D+00
 Coeff:     -0.777D-06 0.184D-05 0.655D-05 0.881D-05-0.915D-05-0.117D-03
 Coeff:     -0.368D-03-0.207D-03 0.246D-02 0.518D-02 0.420D-02-0.233D-01
 Coeff:     -0.120D+00-0.498D-01 0.366D+00 0.816D+00
 Gap=     0.128 Goal=   None    Shift=    0.000
 RMSDP=4.97D-09 MaxDP=2.27D-06 DE= 1.49D-10 OVMax= 5.70D-06

 Cycle  17  Pass 1  IDiag  1:
 RMSU=  1.42D-09    CP:  1.00D+00  1.06D+00  9.58D-01  7.60D-01  1.08D+00
                    CP:  1.23D+00  1.26D+00  1.31D+00  1.33D+00  1.17D+00
                    CP:  1.33D+00  1.51D+00  1.75D+00  1.85D+00  1.74D+00
                    CP:  1.33D+00
 E= -4240.86631273188     Delta-E=       -0.000000002008 Rises=F Damp=F
 DIIS: error= 3.01D-08 at cycle  17 NSaved=  17.
 NSaved=17 IEnMin=17 EnMin= -4240.86631273188     IErMin=17 ErrMin= 3.01D-08
 ErrMax= 3.01D-08  0.00D+00 EMaxC= 1.00D-01 BMatC= 1.37D-12 BMatP= 4.16D-12
 IDIUse=1 WtCom= 1.00D+00 WtEn= 0.00D+00
 Coeff-Com: -0.518D-06 0.112D-05 0.641D-05 0.123D-04 0.177D-04-0.406D-04
 Coeff-Com: -0.282D-03-0.505D-03 0.547D-03 0.317D-02 0.812D-02 0.474D-02
 Coeff-Com: -0.577D-01-0.106D+00 0.203D-01 0.454D+00 0.673D+00
 Coeff:     -0.518D-06 0.112D-05 0.641D-05 0.123D-04 0.177D-04-0.406D-04
 Coeff:     -0.282D-03-0.505D-03 0.547D-03 0.317D-02 0.812D-02 0.474D-02
 Coeff:     -0.577D-01-0.106D+00 0.203D-01 0.454D+00 0.673D+00
 Gap=     0.128 Goal=   None    Shift=    0.000
 RMSDP=2.22D-09 MaxDP=9.44D-07 DE=-2.01D-09 OVMax= 2.39D-06

 Error on total polarization charges =  0.02991
 SCF Done:  E(RM062X) =  -4240.86631273     A.U. after   17 cycles
            NFock= 17  Conv=0.22D-08     -V/T= 2.0044
 KE= 4.222420737214D+03 PE=-3.119309411040D+04 EE= 1.210489530035D+04
 Leave Link  502 at Tue Oct 28 18:02:58 2025, MaxMem= 30870077440 cpu:          132547.7 elap:            2114.7
 (Enter /public/software/gauss/g16/l601.exe)
 Copying SCF densities to generalized density rwf, IOpCl= 0 IROHF=0.
 Hyperfine terms turned off by default for NAtoms > 100.

 **********************************************************************

            Population analysis using the SCF density.

 **********************************************************************

 Orbital symmetries:
       Occupied  (A) (A) (A) (A) (A) (A) (A) (A) (A) (A) (A) (A)
                 (A) (A) (A) (A) (A) (A) (A) (A) (A) (A) (A) (A)
                 (A) (A) (A) (A) (A) (A) (A) (A) (A) (A) (A) (A)
                 (A) (A) (A) (A) (A) (A) (A) (A) (A) (A) (A) (A)
                 (A) (A) (A) (A) (A) (A) (A) (A) (A) (A) (A) (A)
                 (A) (A) (A) (A) (A) (A) (A) (A) (A) (A) (A) (A)
                 (A) (A) (A) (A) (A) (A) (A) (A) (A) (A) (A) (A)
                 (A) (A) (A) (A) (A) (A) (A) (A) (A) (A) (A) (A)
                 (A) (A) (A) (A) (A) (A) (A) (A) (A) (A) (A) (A)
                 (A) (A) (A) (A) (A) (A) (A) (A) (A) (A) (A) (A)
                 (A) (A) (A) (A) (A) (A) (A) (A) (A) (A) (A) (A)
                 (A) (A) (A) (A) (A) (A) (A) (A) (A) (A) (A) (A)
                 (A) (A) (A) (A) (A) (A) (A) (A) (A) (A) (A) (A)
                 (A) (A) (A) (A) (A) (A) (A) (A) (A) (A) (A) (A)
                 (A) (A) (A) (A) (A) (A) (A) (A) (A) (A) (A) (A)
                 (A) (A) (A) (A) (A) (A) (A) (A) (A) (A) (A) (A)
                 (A) (A) (A) (A) (A) (A) (A) (A) (A) (A) (A) (A)
                 (A) (A) (A) (A) (A) (A) (A) (A) (A) (A) (A) (A)
                 (A) (A) (A) (A) (A) (A) (A) (A) (A) (A) (A) (A)
                 (A) (A) (A) (A) (A) (A) (A) (A) (A) (A) (A) (A)
                 (A) (A) (A) (A) (A) (A) (A) (A) (A) (A) (A) (A)
                 (A) (A) (A) (A) (A) (A) (A) (A) (A) (A) (A) (A)
                 (A) (A) (A) (A)
       Virtual   (A) (A) (A) (A) (A) (A) (A) (A) (A) (A) (A) (A)
                 (A) (A) (A) (A) (A) (A) (A) (A) (A) (A) (A) (A)
                 (A) (A) (A) (A) (A) (A) (A) (A) (A) (A) (A) (A)
                 (A) (A) (A) (A) (A) (A) (A) (A) (A) (A) (A) (A)
                 (A) (A) (A) (A) (A) (A) (A) (A) (A) (A) (A) (A)
                 (A) (A) (A) (A) (A) (A) (A) (A) (A) (A) (A) (A)
                 (A) (A) (A) (A) (A) (A) (A) (A) (A) (A) (A) (A)
                 (A) (A) (A) (A) (A) (A) (A) (A) (A) (A) (A) (A)
                 (A) (A) (A) (A) (A) (A) (A) (A) (A) (A) (A) (A)
                 (A) (A) (A) (A) (A) (A) (A) (A) (A) (A) (A) (A)
                 (A) (A) (A) (A) (A) (A) (A) (A) (A) (A) (A) (A)
                 (A) (A) (A) (A) (A) (A) (A) (A) (A) (A) (A) (A)
                 (A) (A) (A) (A) (A) (A) (A) (A) (A) (A) (A) (A)
                 (A) (A) (A) (A) (A) (A) (A) (A) (A) (A) (A) (A)
                 (A) (A) (A) (A) (A) (A) (A) (A) (A) (A) (A) (A)
                 (A) (A) (A) (A) (A) (A) (A) (A) (A) (A) (A) (A)
                 (A) (A) (A) (A) (A) (A) (A) (A) (A) (A) (A) (A)
                 (A) (A) (A) (A) (A) (A) (A) (A) (A) (A) (A) (A)
                 (A) (A) (A) (A) (A) (A) (A) (A) (A) (A) (A) (A)
                 (A) (A) (A) (A) (A) (A) (A) (A) (A) (A) (A) (A)
                 (A) (A) (A) (A) (A) (A) (A) (A) (A) (A) (A) (A)
                 (A) (A) (A) (A) (A) (A) (A) (A) (A) (A) (A) (A)
                 (A) (A) (A) (A) (A) (A) (A) (A) (A) (A) (A) (A)
                 (A) (A) (A) (A) (A) (A) (A) (A) (A) (A) (A) (A)
                 (A) (A) (A) (A) (A) (A) (A) (A) (A) (A) (A) (A)
                 (A) (A) (A) (A) (A) (A) (A) (A) (A) (A) (A) (A)
                 (A) (A) (A) (A) (A) (A) (A) (A) (A) (A) (A) (A)
                 (A) (A) (A) (A) (A) (A) (A) (A) (A) (A) (A) (A)
                 (A) (A) (A) (A) (A) (A) (A) (A) (A) (A) (A) (A)
                 (A) (A) (A) (A) (A) (A) (A) (A) (A) (A) (A) (A)
                 (A) (A) (A) (A) (A) (A) (A) (A) (A) (A) (A) (A)
                 (A) (A) (A) (A) (A) (A) (A) (A) (A) (A) (A) (A)
                 (A) (A) (A) (A) (A) (A) (A) (A) (A) (A) (A) (A)
                 (A) (A) (A) (A) (A) (A) (A) (A) (A) (A) (A) (A)
                 (A) (A) (A) (A) (A) (A) (A) (A) (A) (A) (A) (A)
                 (A) (A) (A) (A) (A) (A) (A) (A) (A) (A) (A) (A)
                 (A) (A) (A) (A) (A) (A) (A) (A) (A) (A) (A) (A)
                 (A) (A) (A) (A) (A) (A) (A) (A) (A) (A) (A) (A)
                 (A) (A) (A) (A) (A) (A) (A) (A) (A) (A) (A) (A)
                 (A) (A) (A) (A) (A) (A) (A) (A) (A) (A) (A) (A)
                 (A) (A) (A) (A) (A) (A) (A) (A) (A) (A) (A) (A)
                 (A) (A) (A) (A) (A) (A) (A) (A) (A) (A) (A) (A)
                 (A) (A) (A) (A) (A) (A) (A) (A) (A) (A) (A) (A)
                 (A) (A) (A) (A) (A) (A) (A) (A) (A) (A) (A) (A)
                 (A) (A) (A) (A) (A) (A) (A) (A) (A) (A) (A) (A)
                 (A) (A) (A) (A) (A) (A) (A) (A) (A) (A) (A) (A)
                 (A) (A) (A) (A) (A) (A) (A) (A) (A) (A) (A) (A)
                 (A) (A) (A) (A) (A) (A) (A) (A) (A) (A) (A) (A)
                 (A) (A) (A) (A) (A) (A) (A) (A) (A) (A) (A) (A)
                 (A) (A) (A) (A) (A) (A) (A) (A) (A) (A) (A) (A)
                 (A) (A) (A) (A) (A) (A) (A) (A) (A) (A) (A) (A)
                 (A) (A) (A) (A) (A) (A) (A) (A) (A) (A) (A) (A)
                 (A) (A) (A) (A) (A) (A) (A) (A) (A) (A) (A) (A)
                 (A) (A) (A) (A) (A) (A) (A) (A) (A) (A) (A) (A)
                 (A) (A) (A) (A) (A) (A) (A) (A) (A) (A) (A) (A)
                 (A) (A) (A) (A) (A) (A) (A) (A) (A) (A) (A) (A)
                 (A) (A) (A) (A) (A) (A) (A) (A) (A) (A) (A) (A)
                 (A) (A) (A) (A) (A) (A) (A) (A) (A) (A) (A) (A)
                 (A) (A) (A) (A) (A) (A) (A) (A) (A) (A) (A) (A)
                 (A) (A) (A) (A) (A) (A) (A) (A) (A) (A) (A) (A)
                 (A) (A) (A) (A) (A) (A) (A) (A) (A) (A) (A) (A)
                 (A) (A) (A) (A) (A) (A) (A) (A) (A) (A) (A) (A)
                 (A) (A) (A) (A) (A) (A) (A) (A) (A) (A) (A) (A)
                 (A) (A) (A) (A) (A) (A) (A) (A) (A) (A) (A) (A)
                 (A) (A) (A) (A) (A) (A) (A) (A) (A) (A) (A) (A)
                 (A) (A) (A) (A) (A) (A) (A) (A) (A) (A) (A) (A)
                 (A) (A) (A) (A) (A) (A) (A) (A) (A) (A) (A) (A)
                 (A) (A) (A) (A) (A) (A) (A) (A) (A) (A) (A) (A)
                 (A) (A) (A) (A) (A) (A) (A) (A) (A) (A) (A) (A)
                 (A) (A) (A) (A) (A) (A) (A) (A) (A) (A) (A) (A)
                 (A) (A) (A) (A) (A) (A) (A) (A) (A) (A) (A) (A)
                 (A) (A) (A) (A) (A) (A) (A) (A) (A) (A) (A) (A)
                 (A) (A) (A) (A) (A) (A) (A) (A) (A) (A) (A) (A)
                 (A) (A) (A) (A) (A) (A) (A) (A) (A) (A) (A) (A)
                 (A) (A) (A) (A) (A) (A) (A) (A) (A) (A) (A) (A)
                 (A) (A) (A) (A) (A) (A) (A) (A) (A) (A) (A) (A)
                 (A) (A) (A) (A) (A) (A) (A) (A) (A) (A) (A) (A)
                 (A) (A) (A) (A) (A) (A) (A) (A) (A) (A) (A) (A)
                 (A) (A) (A) (A) (A) (A) (A) (A) (A) (A) (A) (A)
                 (A) (A) (A) (A) (A) (A) (A) (A) (A) (A) (A) (A)
                 (A) (A) (A) (A) (A) (A) (A) (A) (A) (A) (A) (A)
                 (A) (A) (A) (A) (A) (A) (A) (A) (A) (A) (A) (A)
                 (A) (A) (A) (A) (A) (A) (A) (A) (A) (A) (A) (A)
                 (A) (A) (A) (A) (A) (A) (A) (A) (A) (A) (A) (A)
                 (A) (A) (A) (A) (A) (A) (A) (A) (A) (A) (A) (A)
                 (A) (A) (A) (A) (A) (A) (A) (A) (A) (A) (A) (A)
                 (A) (A) (A) (A) (A) (A) (A) (A) (A) (A) (A) (A)
                 (A) (A) (A) (A) (A) (A) (A) (A) (A) (A) (A) (A)
                 (A) (A) (A) (A) (A) (A) (A) (A) (A) (A) (A) (A)
                 (A) (A) (A) (A) (A) (A) (A) (A) (A) (A) (A) (A)
                 (A) (A) (A) (A) (A) (A) (A) (A) (A) (A) (A) (A)
                 (A) (A) (A) (A) (A) (A) (A) (A) (A) (A) (A) (A)
                 (A) (A) (A) (A) (A) (A) (A) (A) (A) (A) (A) (A)
                 (A) (A) (A) (A) (A) (A) (A) (A) (A) (A) (A) (A)
                 (A) (A) (A) (A) (A) (A) (A) (A) (A) (A) (A) (A)
                 (A) (A) (A) (A) (A) (A) (A) (A) (A) (A) (A) (A)
                 (A) (A) (A) (A) (A) (A) (A) (A) (A) (A) (A) (A)
                 (A) (A) (A) (A) (A) (A) (A) (A) (A) (A) (A) (A)
                 (A) (A) (A) (A) (A) (A) (A) (A) (A) (A) (A) (A)
                 (A) (A) (A) (A) (A) (A) (A) (A) (A) (A) (A) (A)
                 (A) (A) (A) (A) (A) (A) (A) (A) (A) (A) (A) (A)
                 (A) (A) (A) (A) (A) (A) (A) (A) (A) (A) (A) (A)
                 (A) (A) (A) (A) (A) (A) (A) (A) (A) (A) (A) (A)
                 (A) (A) (A) (A) (A) (A) (A) (A) (A) (A) (A) (A)
                 (A) (A) (A) (A) (A) (A) (A) (A) (A) (A) (A) (A)
                 (A) (A) (A) (A) (A) (A) (A) (A) (A) (A) (A) (A)
                 (A) (A) (A) (A) (A) (A) (A) (A) (A) (A) (A) (A)
                 (A) (A) (A) (A) (A) (A) (A) (A) (A) (A) (A) (A)
                 (A) (A) (A) (A) (A) (A) (A) (A) (A) (A) (A) (A)
                 (A) (A) (A) (A) (A) (A) (A) (A) (A) (A) (A) (A)
                 (A) (A) (A) (A) (A) (A) (A) (A) (A) (A) (A) (A)
                 (A) (A) (A) (A) (A) (A) (A) (A) (A) (A) (A) (A)
                 (A) (A) (A) (A) (A) (A) (A) (A) (A) (A) (A) (A)
                 (A) (A) (A) (A) (A) (A) (A) (A) (A) (A) (A) (A)
                 (A) (A) (A) (A) (A) (A) (A) (A) (A) (A) (A) (A)
                 (A) (A) (A) (A) (A) (A) (A) (A) (A) (A) (A) (A)
                 (A) (A) (A) (A) (A) (A) (A) (A) (A) (A) (A) (A)
                 (A) (A) (A) (A) (A) (A) (A) (A) (A) (A) (A) (A)
                 (A) (A) (A) (A) (A) (A) (A) (A) (A) (A) (A) (A)
                 (A) (A) (A) (A) (A) (A) (A) (A) (A) (A) (A) (A)
                 (A) (A) (A) (A) (A) (A) (A) (A) (A) (A) (A) (A)
                 (A) (A) (A) (A) (A) (A) (A) (A) (A) (A) (A) (A)
                 (A) (A) (A) (A) (A) (A) (A) (A) (A) (A) (A) (A)
                 (A) (A) (A) (A) (A) (A) (A) (A) (A) (A) (A) (A)
                 (A) (A) (A) (A) (A) (A) (A) (A) (A) (A) (A) (A)
                 (A) (A) (A) (A) (A) (A) (A) (A) (A) (A) (A) (A)
                 (A) (A) (A) (A) (A) (A) (A) (A) (A) (A) (A) (A)
                 (A) (A) (A) (A) (A) (A) (A) (A) (A) (A) (A) (A)
                 (A) (A) (A) (A) (A) (A) (A) (A) (A) (A) (A) (A)
                 (A) (A) (A) (A) (A) (A) (A) (A) (A) (A) (A) (A)
                 (A) (A) (A) (A) (A) (A) (A) (A) (A) (A) (A) (A)
                 (A) (A) (A) (A) (A) (A) (A) (A) (A) (A) (A) (A)
                 (A) (A) (A) (A) (A) (A) (A) (A) (A) (A) (A) (A)
                 (A) (A) (A) (A) (A) (A) (A) (A) (A) (A) (A) (A)
                 (A) (A) (A) (A) (A) (A) (A) (A) (A) (A) (A) (A)
                 (A) (A) (A) (A) (A) (A) (A) (A) (A) (A) (A) (A)
                 (A) (A) (A) (A) (A) (A) (A) (A) (A) (A) (A) (A)
                 (A) (A) (A) (A) (A) (A) (A) (A) (A) (A) (A) (A)
                 (A) (A) (A) (A) (A) (A) (A) (A) (A) (A) (A) (A)
                 (A) (A) (A) (A) (A) (A) (A) (A) (A) (A) (A) (A)
                 (A) (A) (A) (A) (A) (A) (A) (A) (A) (A) (A) (A)
                 (A) (A) (A) (A) (A) (A) (A) (A) (A) (A) (A) (A)
                 (A) (A) (A) (A) (A) (A) (A) (A) (A) (A) (A) (A)
                 (A) (A) (A) (A) (A) (A) (A) (A) (A) (A) (A) (A)
                 (A) (A) (A) (A) (A) (A) (A) (A) (A) (A) (A) (A)
                 (A) (A) (A) (A) (A) (A) (A) (A) (A) (A) (A) (A)
                 (A) (A) (A) (A) (A) (A) (A) (A) (A) (A) (A) (A)
                 (A) (A) (A) (A) (A) (A) (A) (A) (A) (A) (A) (A)
                 (A) (A) (A) (A) (A) (A) (A) (A) (A) (A) (A) (A)
                 (A) (A) (A) (A) (A) (A) (A) (A) (A) (A) (A) (A)
                 (A) (A) (A) (A) (A) (A) (A) (A) (A) (A) (A) (A)
                 (A) (A) (A) (A) (A) (A) (A) (A) (A) (A) (A) (A)
                 (A) (A) (A) (A) (A) (A) (A) (A) (A) (A) (A) (A)
                 (A) (A) (A) (A) (A) (A) (A) (A) (A) (A) (A) (A)
                 (A) (A) (A) (A) (A) (A) (A) (A) (A) (A) (A) (A)
                 (A) (A) (A) (A) (A) (A) (A) (A) (A) (A) (A) (A)
                 (A) (A) (A) (A) (A) (A) (A) (A) (A) (A) (A) (A)
                 (A) (A) (A) (A) (A) (A) (A) (A) (A) (A) (A) (A)
                 (A) (A) (A) (A) (A) (A) (A) (A) (A) (A) (A) (A)
                 (A) (A) (A) (A) (A) (A) (A) (A) (A) (A) (A) (A)
                 (A) (A) (A) (A) (A) (A) (A) (A) (A) (A) (A) (A)
                 (A) (A) (A) (A) (A) (A) (A) (A) (A) (A) (A) (A)
                 (A) (A) (A) (A) (A) (A) (A) (A) (A) (A) (A) (A)
                 (A) (A) (A) (A) (A) (A) (A) (A) (A) (A) (A) (A)
                 (A) (A) (A) (A) (A) (A) (A) (A) (A) (A) (A) (A)
                 (A) (A) (A) (A) (A) (A) (A) (A) (A) (A) (A) (A)
                 (A) (A) (A) (A) (A) (A) (A) (A) (A) (A) (A) (A)
                 (A) (A) (A) (A) (A) (A) (A) (A) (A) (A) (A) (A)
                 (A) (A) (A) (A) (A) (A) (A) (A) (A) (A) (A) (A)
                 (A) (A) (A) (A) (A) (A) (A) (A) (A) (A) (A) (A)
                 (A) (A) (A) (A) (A) (A) (A) (A) (A) (A) (A) (A)
                 (A) (A) (A) (A) (A) (A) (A) (A) (A) (A) (A) (A)
                 (A) (A) (A) (A) (A) (A) (A) (A) (A) (A) (A) (A)
                 (A) (A) (A) (A) (A) (A) (A) (A) (A) (A) (A) (A)
                 (A) (A) (A) (A) (A) (A) (A) (A) (A) (A) (A) (A)
                 (A) (A) (A) (A) (A) (A) (A) (A) (A) (A) (A) (A)
                 (A) (A) (A) (A) (A) (A) (A) (A) (A) (A) (A) (A)
                 (A) (A) (A) (A) (A) (A) (A) (A) (A) (A) (A) (A)
                 (A) (A) (A) (A) (A) (A) (A) (A) (A) (A) (A) (A)
                 (A) (A) (A) (A) (A) (A) (A) (A) (A) (A) (A) (A)
                 (A) (A) (A) (A) (A) (A) (A) (A) (A) (A) (A) (A)
                 (A) (A) (A) (A) (A) (A) (A) (A) (A) (A) (A) (A)
                 (A) (A) (A) (A) (A) (A) (A) (A) (A) (A) (A) (A)
                 (A) (A) (A) (A) (A) (A) (A) (A) (A) (A) (A) (A)
                 (A) (A) (A) (A) (A) (A) (A) (A) (A) (A) (A) (A)
                 (A) (A) (A) (A) (A) (A) (A) (A) (A) (A) (A) (A)
                 (A) (A) (A) (A) (A) (A) (A) (A) (A) (A) (A) (A)
                 (A) (A) (A) (A) (A) (A) (A) (A) (A) (A) (A) (A)
                 (A) (A) (A) (A) (A) (A) (A) (A) (A) (A) (A) (A)
                 (A) (A) (A) (A) (A) (A) (A) (A) (A) (A) (A) (A)
                 (A) (A) (A) (A) (A) (A) (A) (A) (A) (A) (A) (A)
                 (A) (A) (A) (A) (A) (A) (A) (A) (A) (A) (A) (A)
                 (A) (A) (A) (A) (A) (A) (A) (A) (A) (A) (A) (A)
                 (A) (A) (A) (A) (A) (A) (A) (A) (A) (A) (A) (A)
                 (A) (A) (A) (A) (A) (A) (A) (A) (A) (A) (A) (A)
                 (A) (A) (A) (A) (A) (A) (A) (A) (A) (A) (A) (A)
                 (A) (A) (A) (A) (A) (A) (A) (A) (A) (A) (A) (A)
                 (A) (A) (A) (A) (A) (A) (A) (A) (A) (A) (A) (A)
                 (A) (A) (A) (A) (A) (A) (A) (A) (A) (A) (A) (A)
                 (A) (A) (A) (A) (A) (A) (A) (A) (A) (A) (A) (A)
                 (A) (A) (A) (A) (A) (A) (A) (A) (A) (A) (A) (A)
                 (A) (A) (A) (A) (A) (A) (A) (A) (A) (A) (A) (A)
                 (A) (A) (A) (A) (A) (A) (A) (A) (A) (A) (A) (A)
                 (A) (A) (A) (A) (A) (A) (A) (A) (A) (A) (A) (A)
                 (A) (A) (A) (A) (A) (A) (A) (A) (A) (A) (A) (A)
                 (A) (A) (A) (A) (A) (A) (A) (A) (A) (A) (A) (A)
                 (A) (A) (A) (A) (A) (A) (A) (A) (A) (A) (A) (A)
                 (A) (A) (A) (A) (A) (A) (A) (A) (A) (A) (A) (A)
                 (A) (A) (A) (A) (A) (A) (A) (A) (A) (A) (A) (A)
                 (A) (A) (A) (A) (A) (A) (A) (A) (A) (A) (A) (A)
                 (A) (A) (A) (A) (A) (A) (A) (A) (A) (A) (A) (A)
                 (A) (A) (A) (A) (A) (A) (A) (A) (A) (A) (A) (A)
                 (A) (A) (A) (A) (A) (A) (A) (A) (A) (A) (A) (A)
                 (A) (A) (A) (A) (A) (A) (A) (A) (A) (A) (A) (A)
                 (A) (A) (A) (A) (A) (A) (A) (A) (A) (A) (A) (A)
                 (A) (A) (A) (A) (A) (A) (A) (A) (A) (A) (A) (A)
                 (A) (A) (A) (A) (A) (A) (A) (A) (A) (A) (A) (A)
                 (A) (A) (A) (A) (A) (A) (A) (A) (A) (A) (A) (A)
                 (A) (A) (A) (A) (A) (A) (A) (A) (A) (A) (A) (A)
                 (A) (A) (A) (A) (A) (A) (A) (A) (A) (A) (A) (A)
                 (A) (A) (A) (A) (A) (A) (A) (A) (A) (A) (A) (A)
                 (A) (A) (A) (A) (A) (A) (A) (A) (A) (A) (A) (A)
                 (A) (A) (A) (A) (A) (A) (A) (A) (A) (A) (A) (A)
                 (A) (A) (A) (A) (A) (A) (A) (A) (A) (A) (A) (A)
                 (A) (A) (A) (A) (A) (A) (A) (A) (A)
 The electronic state is 1-A.
 Alpha  occ. eigenvalues -- -102.66375-102.66338 -25.21159 -25.21120 -19.69142
 Alpha  occ. eigenvalues --  -19.69091 -19.68794 -19.68782 -19.67092 -19.66914
 Alpha  occ. eigenvalues --  -19.66728 -19.64040 -19.63997 -19.63718 -19.63324
 Alpha  occ. eigenvalues --  -19.63310 -19.63270 -15.02504 -15.02334 -14.80058
 Alpha  occ. eigenvalues --  -14.79601 -10.68481 -10.64150 -10.63581 -10.62429
 Alpha  occ. eigenvalues --  -10.62314 -10.62268 -10.62123 -10.61979 -10.61639
 Alpha  occ. eigenvalues --  -10.61146 -10.61125 -10.61079 -10.60830 -10.60576
 Alpha  occ. eigenvalues --  -10.60145 -10.60005 -10.59792 -10.59522 -10.59296
 Alpha  occ. eigenvalues --  -10.58945 -10.58923 -10.58867 -10.58833 -10.58822
 Alpha  occ. eigenvalues --  -10.58785 -10.58747 -10.58680 -10.58667 -10.58629
 Alpha  occ. eigenvalues --  -10.58582 -10.58524 -10.57784 -10.57763 -10.57061
 Alpha  occ. eigenvalues --  -10.57034 -10.56230 -10.56211 -10.56197 -10.56180
 Alpha  occ. eigenvalues --  -10.56157 -10.56112 -10.55971 -10.55929 -10.55594
 Alpha  occ. eigenvalues --  -10.55563 -10.55121 -10.55097 -10.55083 -10.54964
 Alpha  occ. eigenvalues --   -9.82581  -9.82544  -7.54783  -7.54746  -7.54268
 Alpha  occ. eigenvalues --   -7.54263  -7.54236  -7.54223  -7.14205  -1.38258
 Alpha  occ. eigenvalues --   -1.37901  -1.33159  -1.29935  -1.21266  -1.19888
 Alpha  occ. eigenvalues --   -1.19881  -1.19837  -1.19470  -1.16913  -1.16771
 Alpha  occ. eigenvalues --   -1.15946  -1.15875  -1.14856  -1.14514  -1.12164
 Alpha  occ. eigenvalues --   -1.10440  -1.03678  -0.98895  -0.98215  -0.97730
 Alpha  occ. eigenvalues --   -0.97705  -0.96516  -0.95407  -0.93167  -0.92539
 Alpha  occ. eigenvalues --   -0.91277  -0.90204  -0.90029  -0.88682  -0.88416
 Alpha  occ. eigenvalues --   -0.88068  -0.86806  -0.86466  -0.86044  -0.85923
 Alpha  occ. eigenvalues --   -0.84789  -0.84470  -0.83466  -0.82628  -0.82410
 Alpha  occ. eigenvalues --   -0.81519  -0.81187  -0.80357  -0.79644  -0.77987
 Alpha  occ. eigenvalues --   -0.77809  -0.77023  -0.74686  -0.74018  -0.73365
 Alpha  occ. eigenvalues --   -0.72940  -0.72238  -0.71346  -0.71137  -0.70558
 Alpha  occ. eigenvalues --   -0.69904  -0.69755  -0.68996  -0.68374  -0.68080
 Alpha  occ. eigenvalues --   -0.67696  -0.66861  -0.66735  -0.66509  -0.65152
 Alpha  occ. eigenvalues --   -0.64880  -0.64299  -0.64104  -0.63544  -0.63030
 Alpha  occ. eigenvalues --   -0.62329  -0.62304  -0.62230  -0.61880  -0.61567
 Alpha  occ. eigenvalues --   -0.60997  -0.59781  -0.59574  -0.59417  -0.59187
 Alpha  occ. eigenvalues --   -0.58993  -0.58792  -0.58627  -0.58441  -0.57888
 Alpha  occ. eigenvalues --   -0.57657  -0.57563  -0.57271  -0.56831  -0.56472
 Alpha  occ. eigenvalues --   -0.56073  -0.55847  -0.55464  -0.55184  -0.55061
 Alpha  occ. eigenvalues --   -0.54804  -0.54618  -0.54550  -0.54313  -0.53906
 Alpha  occ. eigenvalues --   -0.53657  -0.53610  -0.53202  -0.53123  -0.52960
 Alpha  occ. eigenvalues --   -0.52864  -0.52509  -0.52232  -0.51940  -0.51695
 Alpha  occ. eigenvalues --   -0.51449  -0.50947  -0.50807  -0.50729  -0.50628
 Alpha  occ. eigenvalues --   -0.50302  -0.49933  -0.49689  -0.49405  -0.49211
 Alpha  occ. eigenvalues --   -0.49039  -0.48773  -0.48694  -0.48422  -0.48235
 Alpha  occ. eigenvalues --   -0.48129  -0.47909  -0.47620  -0.47471  -0.47280
 Alpha  occ. eigenvalues --   -0.47055  -0.46722  -0.46519  -0.46388  -0.45757
 Alpha  occ. eigenvalues --   -0.45729  -0.45293  -0.44920  -0.44857  -0.44684
 Alpha  occ. eigenvalues --   -0.44681  -0.44328  -0.44135  -0.43869  -0.43761
 Alpha  occ. eigenvalues --   -0.43408  -0.43343  -0.42895  -0.42763  -0.42725
 Alpha  occ. eigenvalues --   -0.42546  -0.42303  -0.42283  -0.41882  -0.41662
 Alpha  occ. eigenvalues --   -0.41096  -0.40840  -0.40810  -0.40622  -0.40469
 Alpha  occ. eigenvalues --   -0.40438  -0.39946  -0.39848  -0.39528  -0.39375
 Alpha  occ. eigenvalues --   -0.39170  -0.39062  -0.38756  -0.38283  -0.38207
 Alpha  occ. eigenvalues --   -0.37825  -0.37438  -0.36405  -0.35931  -0.35419
 Alpha  occ. eigenvalues --   -0.35123  -0.34778  -0.33757  -0.33687  -0.32580
 Alpha  occ. eigenvalues --   -0.32520  -0.32417  -0.32291  -0.31981  -0.31430
 Alpha  occ. eigenvalues --   -0.29784  -0.27306  -0.23829
 Alpha virt. eigenvalues --   -0.11071  -0.08665  -0.07104  -0.03914  -0.02746
 Alpha virt. eigenvalues --   -0.01867  -0.00761   0.00730   0.00772   0.01886
 Alpha virt. eigenvalues --    0.04293   0.05129   0.05164   0.06369   0.06614
 Alpha virt. eigenvalues --    0.06702   0.06825   0.07028   0.07112   0.07656
 Alpha virt. eigenvalues --    0.07782   0.08127   0.08387   0.08505   0.08839
 Alpha virt. eigenvalues --    0.08951   0.09003   0.09345   0.09484   0.09586
 Alpha virt. eigenvalues --    0.09900   0.09947   0.10103   0.10285   0.10557
 Alpha virt. eigenvalues --    0.10748   0.10883   0.10972   0.11183   0.11282
 Alpha virt. eigenvalues --    0.11391   0.11640   0.11731   0.11976   0.12168
 Alpha virt. eigenvalues --    0.12218   0.12540   0.12608   0.12642   0.12795
 Alpha virt. eigenvalues --    0.12966   0.13012   0.13181   0.13459   0.13634
 Alpha virt. eigenvalues --    0.13795   0.13856   0.14001   0.14312   0.14417
 Alpha virt. eigenvalues --    0.14537   0.14693   0.14853   0.14890   0.14999
 Alpha virt. eigenvalues --    0.15186   0.15306   0.15371   0.15420   0.15832
 Alpha virt. eigenvalues --    0.16271   0.16378   0.16671   0.16811   0.16902
 Alpha virt. eigenvalues --    0.17012   0.17114   0.17158   0.17351   0.17437
 Alpha virt. eigenvalues --    0.17628   0.17799   0.18006   0.18076   0.18383
 Alpha virt. eigenvalues --    0.18473   0.18644   0.18824   0.18937   0.18996
 Alpha virt. eigenvalues --    0.19229   0.19360   0.19677   0.20001   0.20252
 Alpha virt. eigenvalues --    0.20396   0.20684   0.20727   0.20830   0.20989
 Alpha virt. eigenvalues --    0.21127   0.21330   0.21489   0.21717   0.21804
 Alpha virt. eigenvalues --    0.21977   0.22104   0.22176   0.22432   0.22679
 Alpha virt. eigenvalues --    0.22711   0.22921   0.23095   0.23211   0.23419
 Alpha virt. eigenvalues --    0.23749   0.23875   0.23939   0.24004   0.24209
 Alpha virt. eigenvalues --    0.24366   0.24466   0.24501   0.24841   0.25083
 Alpha virt. eigenvalues --    0.25201   0.25246   0.25416   0.25469   0.25639
 Alpha virt. eigenvalues --    0.25718   0.25764   0.26030   0.26095   0.26177
 Alpha virt. eigenvalues --    0.26308   0.26416   0.26509   0.26655   0.26794
 Alpha virt. eigenvalues --    0.27038   0.27195   0.27252   0.27502   0.27584
 Alpha virt. eigenvalues --    0.27757   0.27927   0.28006   0.28340   0.28575
 Alpha virt. eigenvalues --    0.28698   0.28727   0.28904   0.29025   0.29520
 Alpha virt. eigenvalues --    0.29623   0.29742   0.29918   0.30209   0.30416
 Alpha virt. eigenvalues --    0.30579   0.30927   0.31077   0.31331   0.31425
 Alpha virt. eigenvalues --    0.31511   0.31764   0.31815   0.31977   0.32283
 Alpha virt. eigenvalues --    0.32412   0.32469   0.32646   0.32954   0.32960
 Alpha virt. eigenvalues --    0.33193   0.33481   0.33526   0.33556   0.33877
 Alpha virt. eigenvalues --    0.33952   0.34088   0.34258   0.34379   0.34520
 Alpha virt. eigenvalues --    0.34692   0.34805   0.34949   0.35043   0.35146
 Alpha virt. eigenvalues --    0.35518   0.35532   0.35747   0.35886   0.35992
 Alpha virt. eigenvalues --    0.36098   0.36162   0.36329   0.36532   0.36859
 Alpha virt. eigenvalues --    0.36982   0.37060   0.37145   0.37251   0.37341
 Alpha virt. eigenvalues --    0.37451   0.37650   0.37794   0.37904   0.38008
 Alpha virt. eigenvalues --    0.38122   0.38207   0.38338   0.38399   0.38579
[...]
 Alpha virt. eigenvalues --    4.66601   4.66671   4.67033   4.67109   4.67505
 Alpha virt. eigenvalues --    4.67747   4.67947   4.68401   4.68745   4.69038
 Alpha virt. eigenvalues --    4.69498   4.69857   4.69984   4.70310   4.70883
 Alpha virt. eigenvalues --    4.71290   4.71411   4.71434   4.71563   4.72221
 Alpha virt. eigenvalues --    4.72649   4.72932   4.73289   4.73538   4.74021
 Alpha virt. eigenvalues --    4.74391   4.74522   4.74745   4.74922   4.75276
 Alpha virt. eigenvalues --    4.75888   4.76051   4.76278   4.76766   4.76930
 Alpha virt. eigenvalues --    4.77012   4.77260   4.77920   4.78024   4.78283
 Alpha virt. eigenvalues --    4.78490   4.78746   4.79286   4.79913   4.80116
 Alpha virt. eigenvalues --    4.80513   4.80778   4.80970   4.81299   4.81358
 Alpha virt. eigenvalues --    4.81918   4.82128   4.82223   4.82736   4.82922
 Alpha virt. eigenvalues --    4.83104   4.83569   4.83723   4.84137   4.84908
 Alpha virt. eigenvalues --    4.85468   4.85586   4.85904   4.86147   4.86610
 Alpha virt. eigenvalues --    4.86779   4.87319   4.87634   4.87873   4.88461
 Alpha virt. eigenvalues --    4.88751   4.89399   4.89503   4.89681   4.90134
 Alpha virt. eigenvalues --    4.90323   4.90872   4.90925   4.91247   4.91468
 Alpha virt. eigenvalues --    4.91595   4.91937   4.92395   4.92537   4.92946
 Alpha virt. eigenvalues --    4.93331   4.93486   4.93651   4.93878   4.94031
 Alpha virt. eigenvalues --    4.94160   4.94890   4.94983   4.95048   4.95386
 Alpha virt. eigenvalues --    4.95703   4.95845   4.95998   4.96645   4.96856
 Alpha virt. eigenvalues --    4.98102   4.98143   4.98365   4.98405   4.99097
 Alpha virt. eigenvalues --    4.99579   4.99841   5.00095   5.00199   5.00383
 Alpha virt. eigenvalues --    5.00855   5.01595   5.02006   5.02363   5.02558
 Alpha virt. eigenvalues --    5.02706   5.03906   5.03950   5.04328   5.04625
 Alpha virt. eigenvalues --    5.05014   5.05170   5.05710   5.06368   5.06482
 Alpha virt. eigenvalues --    5.06833   5.07134   5.07595   5.07832   5.08865
 Alpha virt. eigenvalues --    5.09178   5.09236   5.09613   5.09789   5.09940
 Alpha virt. eigenvalues --    5.10160   5.10633   5.10996   5.11575   5.12206
 Alpha virt. eigenvalues --    5.12474   5.12697   5.12918   5.12985   5.13340
 Alpha virt. eigenvalues --    5.13551   5.13943   5.14541   5.15053   5.15290
 Alpha virt. eigenvalues --    5.15416   5.16137   5.16309   5.16682   5.16959
 Alpha virt. eigenvalues --    5.17061   5.17516   5.17652   5.17769   5.17958
 Alpha virt. eigenvalues --    5.18180   5.18445   5.19038   5.19118   5.19359
 Alpha virt. eigenvalues --    5.19826   5.20426   5.21811   5.21969   5.22140
 Alpha virt. eigenvalues --    5.22528   5.22616   5.23172   5.23498   5.23751
 Alpha virt. eigenvalues --    5.24140   5.24455   5.25150   5.25315   5.25638
 Alpha virt. eigenvalues --    5.25677   5.26033   5.26227   5.26544   5.26761
 Alpha virt. eigenvalues --    5.26967   5.27573   5.27688   5.28615   5.28735
 Alpha virt. eigenvalues --    5.28826   5.29103   5.29421   5.29912   5.29987
 Alpha virt. eigenvalues --    5.30058   5.30536   5.30567   5.31033   5.31344
 Alpha virt. eigenvalues --    5.31466   5.31819   5.31993   5.32427   5.32466
 Alpha virt. eigenvalues --    5.32743   5.33953   5.34135   5.34290   5.34555
 Alpha virt. eigenvalues --    5.34947   5.35696   5.35735   5.36013   5.36484
 Alpha virt. eigenvalues --    5.37039   5.37115   5.37461   5.37696   5.38221
 Alpha virt. eigenvalues --    5.38364   5.38538   5.38675   5.38830   5.39103
 Alpha virt. eigenvalues --    5.39549   5.39936   5.40051   5.40150   5.40332
 Alpha virt. eigenvalues --    5.40691   5.41584   5.42234   5.42343   5.43054
 Alpha virt. eigenvalues --    5.43111   5.43936   5.44530   5.44622   5.44827
 Alpha virt. eigenvalues --    5.45070   5.45381   5.45596   5.46075   5.46227
 Alpha virt. eigenvalues --    5.47286   5.47476   5.47740   5.48038   5.49047
 Alpha virt. eigenvalues --    5.49422   5.49890   5.50634   5.50809   5.51131
 Alpha virt. eigenvalues --    5.51414   5.51883   5.52353   5.52807   5.52961
 Alpha virt. eigenvalues --    5.53976   5.54342   5.55209   5.56316   5.56491
 Alpha virt. eigenvalues --    5.56851   5.57171   5.57687   5.58086   5.58346
 Alpha virt. eigenvalues --    5.58385   5.58972   5.59065   5.59472   5.59720
 Alpha virt. eigenvalues --    5.59909   5.60143   5.60199   5.60747   5.60908
 Alpha virt. eigenvalues --    5.61034   5.61345   5.62324   5.62560   5.63007
 Alpha virt. eigenvalues --    5.63177   5.63340   5.64044   5.64287   5.64427
 Alpha virt. eigenvalues --    5.64452   5.64795   5.65127   5.65409   5.65582
 Alpha virt. eigenvalues --    5.65872   5.65974   5.66439   5.66597   5.67075
 Alpha virt. eigenvalues --    5.67342   5.67829   5.67983   5.68496   5.69104
 Alpha virt. eigenvalues --    5.69391   5.71000   5.72017   5.74084   5.75165
 Alpha virt. eigenvalues --    5.75596   5.77365   5.78688   5.82908   5.83526
 Alpha virt. eigenvalues --    5.83914   5.84445   5.85029   5.85492   5.85655
 Alpha virt. eigenvalues --    5.86411   5.87000   5.89379   5.89983   5.91289
 Alpha virt. eigenvalues --    5.91725   5.91832   5.92031   5.92636   5.93178
 Alpha virt. eigenvalues --    5.94357   5.94729   5.96432   5.97663   5.98029
 Alpha virt. eigenvalues --    5.98617   6.00682   6.00867   6.02935   6.03257
 Alpha virt. eigenvalues --    6.03890   6.04761   6.05478   6.06358   6.06942
 Alpha virt. eigenvalues --    6.07437   6.08922   6.09169   6.10237   6.10472
 Alpha virt. eigenvalues --    6.15479   6.15741   6.17841   6.21189   6.21617
 Alpha virt. eigenvalues --    6.22401   6.22504   6.23663   6.25208   6.26331
 Alpha virt. eigenvalues --    6.26533   6.26730   6.27055   6.27600   6.27824
 Alpha virt. eigenvalues --    6.28702   6.29901   6.30034   6.30278   6.32187
 Alpha virt. eigenvalues --    6.32830   6.32935   6.35677   6.35722   6.36436
 Alpha virt. eigenvalues --    6.37242   6.39660   6.39852   6.39855   6.40602
 Alpha virt. eigenvalues --    6.42904   6.44801   6.44951   6.45771   6.46456
 Alpha virt. eigenvalues --    6.48581   6.50418   6.64961   6.68506   6.70012
 Alpha virt. eigenvalues --    6.70516   6.72038   6.72646   6.75000   6.75106
 Alpha virt. eigenvalues --    6.75203   6.75906   6.76025   6.76649   6.76809
 Alpha virt. eigenvalues --    6.80405   6.81596   6.82841   6.82856   6.82875
 Alpha virt. eigenvalues --    6.83376   6.83858   6.84502   6.84521   6.85587
 Alpha virt. eigenvalues --    6.85643   6.86543   6.87430   6.89156   6.89485
 Alpha virt. eigenvalues --    6.93592   6.95283   6.96766   6.96872   6.97863
 Alpha virt. eigenvalues --    6.98528   6.98583   6.99031   6.99406   7.00621
 Alpha virt. eigenvalues --    7.01003   7.02184   7.04262   7.04666   7.06495
 Alpha virt. eigenvalues --    7.06724   7.07150   7.08015   7.10030   7.10971
 Alpha virt. eigenvalues --    7.16962   7.20452   7.21804   7.22220   7.24030
 Alpha virt. eigenvalues --    7.26941   7.27140   7.27205   7.27399   7.28239
 Alpha virt. eigenvalues --    7.28341   7.29846   7.30135   7.30644   7.31582
 Alpha virt. eigenvalues --    7.33345   7.33579   7.34271   7.34307   7.34409
 Alpha virt. eigenvalues --    7.36044   7.36733   7.38236   7.38678   7.39352
 Alpha virt. eigenvalues --    7.41518   7.45220   7.47150   7.47584   7.50183
 Alpha virt. eigenvalues --    8.14797   8.17159   8.21921   8.22382   8.22552
 Alpha virt. eigenvalues --    8.23816   8.34569   8.34682   8.42542   8.43192
 Alpha virt. eigenvalues --    8.46276   8.49415   8.56544   8.61613   8.82634
 Alpha virt. eigenvalues --    8.88003   8.91143   8.92727   8.93209   9.00425
 Alpha virt. eigenvalues --   10.81604  10.82658  10.94058  10.96462  11.45112
 Alpha virt. eigenvalues --   11.45783  15.85991  22.73739  22.75942  22.79451
 Alpha virt. eigenvalues --   22.88491  22.89644  23.05198  23.07113  23.10440
 Alpha virt. eigenvalues --   23.11851  23.12587  23.16398  23.17198  23.17402
 Alpha virt. eigenvalues --   23.18635  23.26251  23.27059  23.28771  23.29706
 Alpha virt. eigenvalues --   23.30115  23.31069  23.31834  23.32624  23.33529
 Alpha virt. eigenvalues --   23.34332  23.35677  23.36226  23.36534  23.39042
 Alpha virt. eigenvalues --   23.39874  23.40691  23.42322  23.43244  23.43657
 Alpha virt. eigenvalues --   23.43899  23.45268  23.47719  23.48826  23.49360
 Alpha virt. eigenvalues --   23.50951  23.54074  23.58025  23.58409  23.63985
 Alpha virt. eigenvalues --   23.71056  23.80140  23.87937  23.98899  24.09163
 Alpha virt. eigenvalues --   24.09573  26.25049  26.27781  32.58839  32.62617
 Alpha virt. eigenvalues --   33.12616  33.25168  44.17382  44.20991  44.23336
 Alpha virt. eigenvalues --   44.26300  44.29045  44.29358  44.31729  44.38030
 Alpha virt. eigenvalues --   44.40368  44.45577  44.49149  44.61358  44.61976
 Alpha virt. eigenvalues --   57.40552  57.59437
          Condensed to atoms (all electrons):
 Mulliken charges:
               1
     1  B    0.340747
     2  N   -0.083033
     3  C    0.081689
     4  C   -0.031340
     5  C    0.039877
     6  C    0.106331
     7  C    0.211830
     8  C   -0.113370
     9  O   -0.274325
    10  C   -0.465018
    11  C    0.128039
    12  C   -0.018162
    13  N    0.484722
    14  O   -0.332690
    15  O   -0.336022
    16  C    0.002330
    17  C   -0.050287
    18  C   -0.057883
    19  C   -0.113700
    20  N    0.499927
    21  O   -0.357647
    22  O   -0.355544
    23  C    0.104179
    24  N   -0.084654
    25  C    0.093990
    26  C   -0.061838
    27  C    0.089616
    28  C   -0.495019
    29  Cl  -0.058890
    30  C   -0.166822
    31  C   -0.040334
    32  C   -0.016003
    33  C   -0.119502
    34  C   -0.197640
    35  C    0.230908
    36  O   -0.301574
    37  C   -0.118947
    38  C   -0.107394
    39  O   -0.337155
    40  C   -0.041640
    41  C   -0.109917
    42  O   -0.342086
    43  C   -0.080911
    44  C   -0.079948
    45  O   -0.351732
    46  C   -0.198761
    47  C   -0.158686
    48  C   -0.185938
    49  C   -0.422109
    50  Cl  -0.058612
    51  C   -0.136382
    52  C   -0.083156
    53  C    0.015550
    54  C   -0.115916
    55  C   -0.196147
    56  C    0.239841
    57  O   -0.290041
    58  C   -0.144298
    59  C   -0.102689
    60  O   -0.351329
    61  C   -0.076012
    62  C   -0.096838
    63  O   -0.339398
    64  C   -0.048329
    65  C   -0.098927
    66  O   -0.347838
    67  C   -0.200094
    68  C   -0.166705
    69  C   -0.193901
    70  F   -0.336593
    71  F   -0.336990
    72  H    0.265653
    73  H    0.200238
    74  H    0.209986
    75  H    0.203739
    76  H    0.176462
    77  H    0.173268
    78  H    0.149238
    79  H    0.174619
    80  H    0.122155
    81  H    0.127090
    82  H    0.145695
    83  H    0.159951
    84  H    0.148945
    85  H    0.161616
    86  H    0.132285
    87  H    0.150189
    88  H    0.122469
    89  H    0.118995
    90  H    0.130519
    91  H    0.122301
    92  H    0.124377
    93  H    0.137693
    94  H    0.127052
    95  H    0.123609
    96  H    0.118308
    97  H    0.122172
    98  H    0.136499
    99  H    0.152619
   100  H    0.147983
   101  H    0.183774
   102  H    0.150454
   103  H    0.133109
   104  H    0.113703
   105  H    0.133518
   106  H    0.144091
   107  H    0.159154
   108  H    0.159703
   109  H    0.161448
   110  H    0.159685
   111  H    0.144731
   112  H    0.124993
   113  H    0.135541
   114  H    0.130676
   115  H    0.123562
   116  H    0.122715
   117  H    0.122136
   118  H    0.117915
   119  H    0.126167
   120  H    0.136935
   121  H    0.123095
   122  H    0.121202
   123  H    0.149107
   124  H    0.154004
 Sum of Mulliken charges =  -0.00000
 Mulliken charges with hydrogens summed into heavy atoms:
               1
     1  B    0.340747
     2  N   -0.083033
     3  C    0.081689
     4  C   -0.031340
     5  C    0.039877
     6  C    0.106331
     7  C    0.211830
     8  C   -0.113370
     9  O   -0.274325
    10  C    0.000873
    11  C    0.128039
    12  C   -0.018162
    13  N    0.484722
    14  O   -0.332690
    15  O   -0.336022
    16  C    0.212316
    17  C   -0.050287
    18  C    0.145856
    19  C    0.062762
    20  N    0.499927
    21  O   -0.357647
    22  O   -0.355544
    23  C    0.104179
    24  N   -0.084654
    25  C    0.093990
    26  C   -0.061838
    27  C    0.089616
    28  C    0.002107
    29  Cl  -0.058890
    30  C   -0.044667
    31  C    0.086756
    32  C   -0.016003
    33  C    0.026193
    34  C   -0.037689
    35  C    0.230908
    36  O   -0.301574
    37  C    0.191614
    38  C    0.175080
    39  O   -0.337155
    40  C    0.199823
    41  C    0.142902
    42  O   -0.342086
    43  C    0.181159
    44  C    0.170713
    45  O   -0.351732
    46  C    0.178218
    47  C   -0.006066
    48  C   -0.037955
    49  C    0.045229
    50  Cl  -0.058612
    51  C   -0.022679
    52  C    0.050362
    53  C    0.015550
    54  C    0.028175
    55  C   -0.036993
    56  C    0.239841
    57  O   -0.290041
    58  C    0.176853
    59  C    0.201726
    60  O   -0.351329
    61  C    0.184521
    62  C    0.157400
    63  O   -0.339398
    64  C    0.196522
    65  C    0.145155
    66  O   -0.347838
    67  C    0.181138
    68  C   -0.017597
    69  C   -0.039897
    70  F   -0.336593
    71  F   -0.336990
 Electronic spatial extent (au):  <R**2>=         141114.2827
 Charge=             -0.0000 electrons
 Dipole moment (field-independent basis, Debye):
    X=             -7.7221    Y=              1.3728    Z=              9.4099  Tot=             12.2500
 Quadrupole moment (field-independent basis, Debye-Ang):
   XX=           -473.1584   YY=           -360.4292   ZZ=           -444.4313
   XY=             -0.1467   XZ=              9.1944   YZ=            -43.0353
 Traceless Quadrupole moment (field-independent basis, Debye-Ang):
   XX=            -47.1521   YY=             65.5771   ZZ=            -18.4250
   XY=             -0.1467   XZ=              9.1944   YZ=            -43.0353
 Octapole moment (field-independent basis, Debye-Ang**2):
  XXX=          -1671.8498  YYY=            179.6527  ZZZ=             42.7606  XYY=           -803.2235
  XXY=            787.7474  XXZ=            541.2184  XZZ=            -18.9779  YZZ=             34.3982
  YYZ=            184.3496  XYZ=            415.5079
 Hexadecapole moment (field-independent basis, Debye-Ang**3):
 XXXX=        -154398.1588 YYYY=         -43844.4069 ZZZZ=          -2895.9430 XXXY=           2595.6009
 XXXZ=          -1002.4422 YYYX=             58.1927 YYYZ=          -1172.9004 ZZZX=            106.4884
 ZZZY=             23.6260 XXYY=         -29305.2312 XXZZ=         -24441.5559 YYZZ=          -8871.2380
 XXYZ=          -3627.3933 YYXZ=          -2966.9651 ZZXY=           -203.7798
 N-N= 1.062491176011D+04 E-N=-3.119309410530D+04  KE= 4.222420737214D+03
 Leave Link  601 at Tue Oct 28 18:03:01 2025, MaxMem= 30870077440 cpu:             149.8 elap:               2.9
 (Enter /public/software/gauss/g16/l9999.exe)
 1\1\GINC-CU031\SP\RM062X\def2TZVPP\C49H53B1Cl2F2N4O13\BAIDING\28-Oct-2
 025\0\\#p M062X/DEF2TZVPP scrf=(solvent=water) em=GD3\\Energy calculat
 ion for BE_Cl\\0,1\B,0,2.426187,-0.576855,0.311611\N,0,3.042842,0.8493
 55,0.270122\C,0,2.377862,2.021302,0.040669\C,0,3.36395,3.050218,-0.007
 526\C,0,4.625126,2.529037,0.206104\C,0,4.415502,1.117072,0.366109\C,0,
 5.338741,0.077508,0.55887\C,0,6.818922,0.423372,0.576147\O,0,7.355885,
 0.85379,1.580534\C,0,7.565761,0.204176,-0.741014\C,0,8.757394,1.106621
 ,-0.949742\C,0,9.900531,1.159872,-0.128141\N,0,10.10644,0.21593,0.9756
 \O,0,9.717346,-0.943124,0.829267\O,0,10.695746,0.621047,1.977965\C,0,1
 0.930225,2.073351,-0.324911\C,0,10.831269,2.942774,-1.401903\C,0,9.733
 955,2.929004,-2.259058\C,0,8.710528,2.021477,-2.013325\N,0,11.917085,3
 .893838,-1.638412\O,0,12.88094,3.883069,-0.869109\O,0,11.816297,4.6622
 49,-2.597343\C,0,4.925404,-1.262215,0.663592\N,0,3.590279,-1.593374,0.
 450654\C,0,3.423808,-2.942891,0.595995\C,0,4.701585,-3.474596,0.92813\
 C,0,5.645451,-2.459487,0.978208\C,0,7.08742,-2.642529,1.323411\Cl,0,5.
 079015,-5.156986,1.171618\C,0,2.148239,-3.567406,0.366866\C,0,1.78424,
 -4.819867,0.747602\C,0,0.499061,-5.454001,0.493993\C,0,0.263422,-6.742
 443,1.022205\C,0,-0.936196,-7.404035,0.812694\C,0,-1.951223,-6.795906,
 0.057518\O,0,-3.087481,-7.540849,-0.10525\C,0,-4.174227,-7.03964,-0.90
 2934\C,0,-5.087633,-6.127265,-0.079457\O,0,-6.166052,-5.630704,-0.8650
 64\C,0,-7.263324,-6.538449,-0.998279\C,0,-8.382235,-5.834405,-1.743839
 \O,0,-8.8947,-4.700983,-1.038284\C,0,-9.907147,-5.005232,-0.072794\C,0
 ,-11.295532,-5.100122,-0.694926\O,0,-11.706008,-3.909767,-1.366936\C,0
 ,-12.121886,-2.870237,-0.487548\C,0,-1.744576,-5.513546,-0.476774\C,0,
 -0.536466,-4.862247,-0.257678\C,0,5.890789,3.321517,0.279024\Cl,0,2.99
 6855,4.735428,-0.246925\C,0,0.974981,2.268111,-0.143116\C,0,-0.086025,
 1.477203,0.171884\C,0,-1.485823,1.803681,-0.043379\C,0,-2.467448,0.901
 192,0.424931\C,0,-3.81992,1.152719,0.263602\C,0,-4.24588,2.325761,-0.3
 80875\O,0,-5.598444,2.467184,-0.503644\C,0,-6.156692,3.662172,-1.08226
 3\C,0,-6.20667,4.816875,-0.091617\O,0,-6.980714,4.500416,1.067889\C,0,
 -8.384665,4.745791,0.935211\C,0,-8.71611,6.172222,1.382468\O,0,-10.118
 274,6.432433,1.361713\C,0,-10.63173,6.770232,0.071751\C,0,-12.097303,7
 .14223,0.217824\O,0,-12.33312,8.270481,1.057706\C,0,-12.015258,9.51647
 8,0.44667\C,0,-3.290434,3.238678,-0.859776\C,0,-1.937155,2.972179,-0.6
 91235\F,0,1.701392,-0.817997,-0.860274\F,0,1.581722,-0.71393,1.425371\
 H,0,7.863219,-0.850858,-0.750479\H,0,6.863705,0.337207,-1.566476\H,0,1
 1.789408,2.089639,0.331265\H,0,9.679972,3.616993,-3.09288\H,0,7.842457
 ,2.018878,-2.663138\H,0,7.50441,-1.772063,1.828375\H,0,7.204692,-3.502
 333,1.9877\H,0,7.692194,-2.839353,0.430765\H,0,1.432261,-2.944991,-0.1
 57087\H,0,2.483866,-5.430536,1.308484\H,0,1.042878,-7.225396,1.604895\
 H,0,-1.107408,-8.39548,1.219158\H,0,-3.802909,-6.521483,-1.792078\H,0,
 -4.712619,-7.932414,-1.2278\H,0,-5.458418,-6.671678,0.799585\H,0,-4.53
 0697,-5.253762,0.272036\H,0,-6.976178,-7.4342,-1.566613\H,0,-7.598144,
 -6.866384,-0.003592\H,0,-7.99995,-5.455098,-2.697256\H,0,-9.173333,-6.
 56176,-1.965193\H,0,-9.691209,-5.944557,0.453719\H,0,-9.869983,-4.2002
 13,0.667578\H,0,-11.314363,-5.889972,-1.453096\H,0,-12.018,-5.37052,0.
 090444\H,0,-12.934542,-3.20716,0.171688\H,0,-11.300992,-2.492972,0.135
 835\H,0,-12.487808,-2.051274,-1.112016\H,0,-2.513509,-5.018105,-1.0564
 22\H,0,-0.402893,-3.873643,-0.684821\H,0,6.396058,3.185402,1.238033\H,
 0,6.593905,3.044029,-0.511186\H,0,5.670049,4.383618,0.15931\H,0,0.7791
 77,3.25473,-0.551904\H,0,0.08879,0.525934,0.659547\H,0,-2.151314,-0.00
 9732,0.925437\H,0,-4.566974,0.454764,0.627166\H,0,-5.610478,3.95346,-1
 .985251\H,0,-7.166696,3.370287,-1.379569\H,0,-5.202222,5.058157,0.2678
 33\H,0,-6.599363,5.701694,-0.608994\H,0,-8.720964,4.564498,-0.092492\H
 ,0,-8.897909,4.031187,1.586665\H,0,-8.389655,6.303521,2.419142\H,0,-8.
 179352,6.9039,0.76206\H,0,-10.049893,7.598536,-0.356953\H,0,-10.562786
 ,5.922954,-0.62498\H,0,-12.519684,7.309986,-0.783963\H,0,-12.635046,6.
 308168,0.680417\H,0,-12.331395,10.300728,1.139117\H,0,-10.939728,9.630
 209,0.259087\H,0,-12.551382,9.642709,-0.504628\H,0,-3.589184,4.150895,
 -1.361065\H,0,-1.222354,3.691971,-1.076623\\Version=ES64L-G16RevA.03\S
 tate=1-A\HF=-4240.8663127\RMSD=2.220e-09\Dipole=-3.0381097,-0.5401035,
 -3.7021531\Quadrupole=-35.056452,48.7549783,-13.6985263,0.1090653,-6.8
 358278,-31.9956738\PG=C01 [X(C49H53B1Cl2F2N4O13)]\\@


 THERE IS NO CURE FOR BIRTH AND DEATH SAVE TO ENJOY THE INTERVAL.

                               -- GEORGE SANTAYANA
 Job cpu time:       1 days 13 hours 55 minutes  0.0 seconds.
 Elapsed time:       0 days  0 hours 36 minutes 17.5 seconds.
 File lengths (MBytes):  RWF=   5799 Int=      0 D2E=      0 Chk=    508 Scr=      1
 Normal termination of Gaussian 16 at Tue Oct 28 18:03:02 2025.
