 Entering Gaussian System, Link 0=g16
 Input=BE_Cl_reduced_sp.gjf
 Output=BE_Cl_reduced_sp.log
 Initial command:
 /public/software/gauss/g16/l1.exe "/public/home/baiding/1030_sp/tmp_BE_Cl_reduced_sp_1544648/Gau-114513.inp" -scrdir="/public/home/baiding/1030_sp/tmp_BE_Cl_reduced_sp_1544648/"
 Entering Link 1 = /public/software/gauss/g16/l1.exe PID=    114514.
  
 Copyright (c) 1988,1990,1992,1993,1995,1998,2003,2009,2016,
            Gaussian, Inc.  All Rights Reserved.
  
 This is part of the Gaussian(R) 16 program.  It is based on
 the Gaussian(R) 09 system (copyright 2009, Gaussian, Inc.),
 the Gaussian(R) 03 system (copyright 2003, Gaussian, Inc.),
 the Gaussian(R) 98 system (copyright 1998, Gaussian, Inc.),
 the Gaussian(R) 94 system (copyright 1995, Gaussian, Inc.),
 the Gaussian 92(TM) system (copyright 1992, Gaussian, Inc.),
 the Gaussian 90(TM) system (copyright 1990, Gaussian, Inc.),
 the Gaussian 88(TM) system (copyright 1988, Gaussian, Inc.),
 the Gaussian 86(TM) system (copyright 1986, Carnegie Mellon
 University), and the Gaussian 82(TM) system (copyright 1983,
 Carnegie Mellon University). Gaussian is a federally registered
 trademark of Gaussian, Inc.
  
 This software contains proprietary and confidential information,
 including trade secrets, belonging to Gaussian, Inc.
  
 This software is provided under written license and may be
 used, copied, transmitted, or stored only in accord with that
 written license.
  
 The following legend is applicable only to US Government
 contracts under FAR:
  
                    RESTRICTED RIGHTS LEGEND
  
 Use, reproduction and disclosure by the US Government is
 subject to restrictions as set forth in subparagraphs (a)
 and (c) of the Commercial Computer Software - Restricted
 Rights clause in FAR 52.227-19.
  
 Gaussian, Inc.
 340 Quinnipiac St., Bldg. 40, Wallingford CT 06492
  
  
 ---------------------------------------------------------------
 Warning -- This program may not be used in any manner that
 competes with the business of Gaussian, Inc. or will provide
 assistance to any competitor of Gaussian, Inc.  The licensee
 of this program is prohibited from giving any competitor of
 Gaussian, Inc. access to this program.  By using this program,
 the user acknowledges that Gaussian, Inc. is engaged in the
 business of creating and licensing software in the field of
 computational chemistry and represents and warrants to the
 licensee that it is not a competitor of Gaussian, Inc. and that
 it will not use this program in any manner prohibited above.
 ---------------------------------------------------------------
  

 Cite this work as:
 Gaussian 16, Revision A.03,
 M. J. Frisch, G. W. Trucks, H. B. Schlegel, G. E. Scuseria, 
 M. A. Robb, J. R. Cheeseman, G. Scalmani, V. Barone, 
 G. A. Petersson, H. Nakatsuji, X. Li, M. Caricato, A. V. Marenich, 
 J. Bloino, B. G. Janesko, R. Gomperts, B. Mennucci, H. P. Hratchian, 
 J. V. Ortiz, A. F. Izmaylov, J. L. Sonnenberg, D. Williams-Young, 
 F. Ding, F. Lipparini, F. Egidi, J. Goings, B. Peng, A. Petrone, 
 T. Henderson, D. Ranasinghe, V. G. Zakrzewski, J. Gao, N. Rega, 
 G. Zheng, W. Liang, M. Hada, M. Ehara, K. Toyota, R. Fukuda, 
 J. Hasegawa, M. Ishida, T. Nakajima, Y. Honda, O. Kitao, H. Nakai, 
 T. Vreven, K. Throssell, J. A. Montgomery, Jr., J. E. Peralta, 
 F. Ogliaro, M. J. Bearpark, J. J. Heyd, E. N. Brothers, K. N. Kudin, 
 V. N. Staroverov, T. A. Keith, R. Kobayashi, J. Normand, 
 K. Raghavachari, A. P. Rendell, J. C. Burant, S. S. Iyengar, 
 J. Tomasi, M. Cossi, J. M. Millam, M. Klene, C. Adamo, R. Cammi, 
 J. W. Ochterski, R. L. Martin, K. Morokuma, O. Farkas, 
 J. B. Foresman, and D. J. Fox, Gaussian, Inc., Wallingford CT, 2016.
 
 ******************************************
 Gaussian 16:  ES64L-G16RevA.03 25-Dec-2016
                30-Oct-2025 
 ******************************************
 %nprocshared=64
 Will use up to   64 processors via shared memory.
 %mem=230GB
 %chk=BE_Cl_reduced_sp.chk
 ----------------------------------------------
 #p M062X/DEF2TZVPP scrf=(solvent=water) em=GD3
 ----------------------------------------------
 1/38=1,172=1/1;
 2/12=2,17=6,18=5,40=1/2;
 3/5=44,7=202,11=2,25=1,30=1,70=2201,72=1,74=-55,124=31/1,2,3;
 4//1;
 5/5=2,38=5,53=1/2;
 6/7=2,8=2,9=2,10=2,28=1/1;
 99/5=1,9=1/99;
 Leave Link    1 at Thu Oct 30 17:32:29 2025, MaxMem= 30870077440 cpu:              11.8 elap:               0.2
 (Enter /public/software/gauss/g16/l101.exe)
 ------------------------------------
 Energy calculation for BE_Cl_reduced
 ------------------------------------
 Symbolic Z-matrix:
 Charge = -1 Multiplicity = 2
 B                    -2.78819   0.2437   -1.04257 
 N                    -3.18245  -1.1368   -1.63532 
 C                    -2.33732  -2.10889  -2.14527 
 C                    -3.16665  -3.05377  -2.77685 
 C                    -4.5164   -2.71689  -2.6172 
 C                    -4.49747  -1.51125  -1.87797 
 C                    -5.5735   -0.66283  -1.41312 
 C                    -6.7111   -1.29477  -0.76209 
 O                    -6.90031  -2.52824  -0.78945 
 C                    -7.66463  -0.4708    0.12037 
 C                    -8.1986   -1.26333   1.29156 
 C                    -7.41581  -1.87363   2.29623 
 N                    -5.95167  -1.7744    2.3056 
 O                    -5.41712  -0.838     1.70676 
 O                    -5.31639  -2.63002   2.92854 
 C                    -7.96836  -2.6012    3.34531 
 C                    -9.3494   -2.71375   3.40756 
 C                    -10.17554  -2.13512   2.44663 
 C                    -9.58753  -1.42938   1.40456 
 N                    -9.94472  -3.46224   4.51196 
 O                    -9.19368  -3.96163   5.35382 
 O                    -11.17384  -3.56035   4.55118 
 C                    -5.3061    0.7494   -1.35829 
 N                    -4.00013   1.19705  -1.24316 
 C                    -3.98721   2.58434  -1.21993 
 C                    -5.3275    2.98699  -1.39076 
 C                    -6.16392   1.87103  -1.50189 
 C                    -7.60919   1.90977  -1.894 
 Cl                   -5.89585   4.62905  -1.58681 
 C                    -2.77205   3.34119  -1.05251 
 C                    -2.67498   4.6489   -0.69652 
 C                    -1.43923   5.41477  -0.56033 
 C                    -1.50735   6.7314   -0.05478 
 C                    -0.37182   7.51341   0.10009 
 C                     0.88659   7.00422  -0.25197 
 O                     1.94112   7.86717  -0.07631 
 C                     3.27012   7.46495  -0.44381 
 C                     3.9404    6.67174   0.68174 
 O                     5.2659    6.29124   0.3256 
 C                     6.24916   7.30401   0.55529 
 C                     7.61608   6.73089   0.22776 
 O                     7.97182   5.62626   1.0632 
 C                     8.55693   5.98876   2.31816 
 C                     10.0583   6.23115   2.21277 
 O                     10.78958   5.1153    1.70681 
 C                     10.94518   4.05599   2.64512 
 C                     0.98497   5.69992  -0.75865 
 C                    -0.16365   4.92768  -0.90898 
 C                    -5.67198  -3.43498  -3.24339 
 Cl                   -2.59216  -4.47769  -3.61668 
 C                    -0.91166  -2.23617  -1.98694 
 C                    -0.11012  -1.64966  -1.062 
 C                     1.33113  -1.84309  -0.92889 
 C                     1.99825  -1.26473   0.17307 
 C                     3.36308  -1.42412   0.36607 
 C                     4.12188  -2.17144  -0.54681 
 O                     5.46526  -2.24802  -0.27455 
 C                     6.32182  -3.05746  -1.09817 
 C                     6.239    -4.53718  -0.7499 
 O                     6.5841   -4.79078   0.61467 
 C                     7.98575  -4.94463   0.85868 
 C                     8.38926  -6.41502   0.71654 
 O                     9.755    -6.63791   1.06154 
 C                     10.68285  -6.32157   0.02204 
 C                     12.06879  -6.75952   0.46395 
 O                     12.18992  -8.16122   0.69792 
 C                     12.26713  -8.93584  -0.49416 
 C                     3.48673  -2.75235  -1.65466 
 C                     2.11654  -2.58244  -1.8353 
 F                    -1.68039   0.74209  -1.745 
 F                    -2.46706   0.13962   0.32505 
 H                    -7.1825    0.44024   0.47653 
 H                    -8.52405  -0.17254  -0.48461 
 H                    -7.33602  -3.05688   4.09381 
 H                    -11.25081  -2.24061   2.51236 
 H                    -10.22368  -0.98904   0.64497 
 H                    -8.27166   2.1351   -1.05045 
 H                    -7.7724    2.68991  -2.64436 
 H                    -7.9271    0.96018  -2.32913 
 H                    -1.86447   2.77469  -1.22132 
 H                    -3.57686   5.2085   -0.46946 
 H                    -2.47509   7.14222   0.22043 
 H                    -0.43886   8.52504   0.48767 
 H                     3.26564   6.89166  -1.37578 
 H                     3.80418   8.40075  -0.62338 
 H                     3.9362    7.26599   1.60543 
 H                     3.38962   5.7457    0.87182 
 H                     6.07847   8.18221  -0.0831 
 H                     6.20209   7.63746   1.60207 
 H                     7.61291   6.3495   -0.79861 
 H                     8.36058   7.5351    0.28492 
 H                     8.08467   6.88698   2.73771 
 H                     8.34538   5.16045   3.00124 
 H                     10.2583   7.05389   1.5186 
 H                     10.43838   6.52668   3.20308 
 H                     11.39957   4.41416   3.5798 
 H                     9.99429   3.56339   2.88542 
 H                     11.61038   3.31963   2.18695 
 H                     1.94269   5.27797  -1.03832 
 H                    -0.05582   3.9263   -1.31356 
 H                    -5.99595  -4.29738  -2.65088 
 H                    -6.53389  -2.77632  -3.35872 
 H                    -5.38952  -3.80663  -4.23395 
 H                    -0.47309  -2.95761  -2.67213 
 H                    -0.55371  -0.99665  -0.31757 
 H                     1.42603  -0.68281   0.89066 
 H                     3.86251  -0.97467   1.21857 
 H                     6.10846  -2.90275  -2.16131 
 H                     7.32669  -2.67614  -0.90051 
 H                     5.21746  -4.90605  -0.87841 
 H                     6.88641  -5.09488  -1.4389 
 H                     8.57455  -4.30513   0.19055 
 H                     8.17028  -4.61488   1.8862 
 H                     7.79122  -7.01443   1.41046 
 H                     8.18685  -6.77242  -0.30311 
 H                     10.3849  -6.82181  -0.91036 
 H                     10.71285  -5.24103  -0.17748 
 H                     12.80022  -6.4272   -0.28745 
 H                     12.3122  -6.27512   1.41527 
 H                     12.4468  -9.97035  -0.1909 
 H                     11.33907  -8.90023  -1.07908 
 H                     13.09647  -8.60185  -1.13374 
 H                     4.04371  -3.33259  -2.37995 
 H                     1.65643  -3.03611  -2.70762 
 
 ITRead=  0  0  0  0  0  0  0  0  0  0  0  0  0  0  0  0  0  0  0  0
 ITRead=  0  0  0  0  0  0  0  0  0  0  0  0  0  0  0  0  0  0  0  0
 ITRead=  0  0  0  0  0  0  0  0  0  0  0  0  0  0  0  0  0  0  0  0
 ITRead=  0  0  0  0  0  0  0  0  0  0  0  0  0  0  0  0  0  0  0  0
 ITRead=  0  0  0  0  0  0  0  0  0  0  0  0  0  0  0  0  0  0  0  0
 ITRead=  0  0  0  0  0  0  0  0  0  0  0  0  0  0  0  0  0  0  0  0
 ITRead=  0  0  0  0
 MicOpt= -1 -1 -1 -1 -1 -1 -1 -1 -1 -1 -1 -1 -1 -1 -1 -1 -1 -1 -1 -1
 MicOpt= -1 -1 -1 -1 -1 -1 -1 -1 -1 -1 -1 -1 -1 -1 -1 -1 -1 -1 -1 -1
 MicOpt= -1 -1 -1 -1 -1 -1 -1 -1 -1 -1 -1 -1 -1 -1 -1 -1 -1 -1 -1 -1
 MicOpt= -1 -1 -1 -1 -1 -1 -1 -1 -1 -1 -1 -1 -1 -1 -1 -1 -1 -1 -1 -1
 MicOpt= -1 -1 -1 -1 -1 -1 -1 -1 -1 -1 -1 -1 -1 -1 -1 -1 -1 -1 -1 -1
 MicOpt= -1 -1 -1 -1 -1 -1 -1 -1 -1 -1 -1 -1 -1 -1 -1 -1 -1 -1 -1 -1
 MicOpt= -1 -1 -1 -1
 NAtoms=    124 NQM=      124 NQMF=       0 NMMI=      0 NMMIF=      0
                NMic=       0 NMicF=      0.
                    Isotopes and Nuclear Properties:
 (Nuclear quadrupole moments (NQMom) in fm**2, nuclear magnetic moments (NMagM)
  in nuclear magnetons)

  Atom         1           2           3           4           5           6           7           8           9          10
 IAtWgt=          11          14          12          12          12          12          12          12          16          12
 AtmWgt=  11.0093053  14.0030740  12.0000000  12.0000000  12.0000000  12.0000000  12.0000000  12.0000000  15.9949146  12.0000000
 NucSpn=           3           2           0           0           0           0           0           0           0           0
 AtZEff=  -0.0000000  -0.0000000  -0.0000000  -0.0000000  -0.0000000  -0.0000000  -0.0000000  -0.0000000  -0.0000000  -0.0000000
 NQMom=    4.0590000   2.0440000   0.0000000   0.0000000   0.0000000   0.0000000   0.0000000   0.0000000   0.0000000   0.0000000
 NMagM=    2.6886370   0.4037610   0.0000000   0.0000000   0.0000000   0.0000000   0.0000000   0.0000000   0.0000000   0.0000000
 AtZNuc=   5.0000000   7.0000000   6.0000000   6.0000000   6.0000000   6.0000000   6.0000000   6.0000000   8.0000000   6.0000000

  Atom        11          12          13          14          15          16          17          18          19          20
 IAtWgt=          12          12          14          16          16          12          12          12          12          14
 AtmWgt=  12.0000000  12.0000000  14.0030740  15.9949146  15.9949146  12.0000000  12.0000000  12.0000000  12.0000000  14.0030740
 NucSpn=           0           0           2           0           0           0           0           0           0           2
 AtZEff=  -0.0000000  -0.0000000  -0.0000000  -0.0000000  -0.0000000  -0.0000000  -0.0000000  -0.0000000  -0.0000000  -0.0000000
 NQMom=    0.0000000   0.0000000   2.0440000   0.0000000   0.0000000   0.0000000   0.0000000   0.0000000   0.0000000   2.0440000
 NMagM=    0.0000000   0.0000000   0.4037610   0.0000000   0.0000000   0.0000000   0.0000000   0.0000000   0.0000000   0.4037610
 AtZNuc=   6.0000000   6.0000000   7.0000000   8.0000000   8.0000000   6.0000000   6.0000000   6.0000000   6.0000000   7.0000000

  Atom        21          22          23          24          25          26          27          28          29          30
 IAtWgt=          16          16          12          14          12          12          12          12          35          12
 AtmWgt=  15.9949146  15.9949146  12.0000000  14.0030740  12.0000000  12.0000000  12.0000000  12.0000000  34.9688527  12.0000000
 NucSpn=           0           0           0           2           0           0           0           0           3           0
 AtZEff=  -0.0000000  -0.0000000  -0.0000000  -0.0000000  -0.0000000  -0.0000000  -0.0000000  -0.0000000  -0.0000000  -0.0000000
 NQMom=    0.0000000   0.0000000   0.0000000   2.0440000   0.0000000   0.0000000   0.0000000   0.0000000  -8.1650000   0.0000000
 NMagM=    0.0000000   0.0000000   0.0000000   0.4037610   0.0000000   0.0000000   0.0000000   0.0000000   0.8218740   0.0000000
 AtZNuc=   8.0000000   8.0000000   6.0000000   7.0000000   6.0000000   6.0000000   6.0000000   6.0000000  17.0000000   6.0000000

  Atom        31          32          33          34          35          36          37          38          39          40
 IAtWgt=          12          12          12          12          12          16          12          12          16          12
 AtmWgt=  12.0000000  12.0000000  12.0000000  12.0000000  12.0000000  15.9949146  12.0000000  12.0000000  15.9949146  12.0000000
 NucSpn=           0           0           0           0           0           0           0           0           0           0
 AtZEff=  -0.0000000  -0.0000000  -0.0000000  -0.0000000  -0.0000000  -0.0000000  -0.0000000  -0.0000000  -0.0000000  -0.0000000
 NQMom=    0.0000000   0.0000000   0.0000000   0.0000000   0.0000000   0.0000000   0.0000000   0.0000000   0.0000000   0.0000000
 NMagM=    0.0000000   0.0000000   0.0000000   0.0000000   0.0000000   0.0000000   0.0000000   0.0000000   0.0000000   0.0000000
 AtZNuc=   6.0000000   6.0000000   6.0000000   6.0000000   6.0000000   8.0000000   6.0000000   6.0000000   8.0000000   6.0000000

  Atom        41          42          43          44          45          46          47          48          49          50
 IAtWgt=          12          16          12          12          16          12          12          12          12          35
 AtmWgt=  12.0000000  15.9949146  12.0000000  12.0000000  15.9949146  12.0000000  12.0000000  12.0000000  12.0000000  34.9688527
 NucSpn=           0           0           0           0           0           0           0           0           0           3
 AtZEff=  -0.0000000  -0.0000000  -0.0000000  -0.0000000  -0.0000000  -0.0000000  -0.0000000  -0.0000000  -0.0000000  -0.0000000
 NQMom=    0.0000000   0.0000000   0.0000000   0.0000000   0.0000000   0.0000000   0.0000000   0.0000000   0.0000000  -8.1650000
 NMagM=    0.0000000   0.0000000   0.0000000   0.0000000   0.0000000   0.0000000   0.0000000   0.0000000   0.0000000   0.8218740
 AtZNuc=   6.0000000   8.0000000   6.0000000   6.0000000   8.0000000   6.0000000   6.0000000   6.0000000   6.0000000  17.0000000

  Atom        51          52          53          54          55          56          57          58          59          60
 IAtWgt=          12          12          12          12          12          12          16          12          12          16
 AtmWgt=  12.0000000  12.0000000  12.0000000  12.0000000  12.0000000  12.0000000  15.9949146  12.0000000  12.0000000  15.9949146
 NucSpn=           0           0           0           0           0           0           0           0           0           0
 AtZEff=  -0.0000000  -0.0000000  -0.0000000  -0.0000000  -0.0000000  -0.0000000  -0.0000000  -0.0000000  -0.0000000  -0.0000000
 NQMom=    0.0000000   0.0000000   0.0000000   0.0000000   0.0000000   0.0000000   0.0000000   0.0000000   0.0000000   0.0000000
 NMagM=    0.0000000   0.0000000   0.0000000   0.0000000   0.0000000   0.0000000   0.0000000   0.0000000   0.0000000   0.0000000
 AtZNuc=   6.0000000   6.0000000   6.0000000   6.0000000   6.0000000   6.0000000   8.0000000   6.0000000   6.0000000   8.0000000

  Atom        61          62          63          64          65          66          67          68          69          70
 IAtWgt=          12          12          16          12          12          16          12          12          12          19
 AtmWgt=  12.0000000  12.0000000  15.9949146  12.0000000  12.0000000  15.9949146  12.0000000  12.0000000  12.0000000  18.9984033
 NucSpn=           0           0           0           0           0           0           0           0           0           1
 AtZEff=  -0.0000000  -0.0000000  -0.0000000  -0.0000000  -0.0000000  -0.0000000  -0.0000000  -0.0000000  -0.0000000  -0.0000000
 NQMom=    0.0000000   0.0000000   0.0000000   0.0000000   0.0000000   0.0000000   0.0000000   0.0000000   0.0000000   0.0000000
 NMagM=    0.0000000   0.0000000   0.0000000   0.0000000   0.0000000   0.0000000   0.0000000   0.0000000   0.0000000   2.6288670
 AtZNuc=   6.0000000   6.0000000   8.0000000   6.0000000   6.0000000   8.0000000   6.0000000   6.0000000   6.0000000   9.0000000

  Atom        71          72          73          74          75          76          77          78          79          80
 IAtWgt=          19           1           1           1           1           1           1           1           1           1
 AtmWgt=  18.9984033   1.0078250   1.0078250   1.0078250   1.0078250   1.0078250   1.0078250   1.0078250   1.0078250   1.0078250
 NucSpn=           1           1           1           1           1           1           1           1           1           1
 AtZEff=  -0.0000000  -0.0000000  -0.0000000  -0.0000000  -0.0000000  -0.0000000  -0.0000000  -0.0000000  -0.0000000  -0.0000000
 NQMom=    0.0000000   0.0000000   0.0000000   0.0000000   0.0000000   0.0000000   0.0000000   0.0000000   0.0000000   0.0000000
 NMagM=    2.6288670   2.7928460   2.7928460   2.7928460   2.7928460   2.7928460   2.7928460   2.7928460   2.7928460   2.7928460
 AtZNuc=   9.0000000   1.0000000   1.0000000   1.0000000   1.0000000   1.0000000   1.0000000   1.0000000   1.0000000   1.0000000

  Atom        81          82          83          84          85          86          87          88          89          90
 IAtWgt=           1           1           1           1           1           1           1           1           1           1
 AtmWgt=   1.0078250   1.0078250   1.0078250   1.0078250   1.0078250   1.0078250   1.0078250   1.0078250   1.0078250   1.0078250
 NucSpn=           1           1           1           1           1           1           1           1           1           1
 AtZEff=  -0.0000000  -0.0000000  -0.0000000  -0.0000000  -0.0000000  -0.0000000  -0.0000000  -0.0000000  -0.0000000  -0.0000000
 NQMom=    0.0000000   0.0000000   0.0000000   0.0000000   0.0000000   0.0000000   0.0000000   0.0000000   0.0000000   0.0000000
 NMagM=    2.7928460   2.7928460   2.7928460   2.7928460   2.7928460   2.7928460   2.7928460   2.7928460   2.7928460   2.7928460
 AtZNuc=   1.0000000   1.0000000   1.0000000   1.0000000   1.0000000   1.0000000   1.0000000   1.0000000   1.0000000   1.0000000

  Atom        91          92          93          94          95          96          97          98          99         100
 IAtWgt=           1           1           1           1           1           1           1           1           1           1
 AtmWgt=   1.0078250   1.0078250   1.0078250   1.0078250   1.0078250   1.0078250   1.0078250   1.0078250   1.0078250   1.0078250
 NucSpn=           1           1           1           1           1           1           1           1           1           1
 AtZEff=  -0.0000000  -0.0000000  -0.0000000  -0.0000000  -0.0000000  -0.0000000  -0.0000000  -0.0000000  -0.0000000  -0.0000000
 NQMom=    0.0000000   0.0000000   0.0000000   0.0000000   0.0000000   0.0000000   0.0000000   0.0000000   0.0000000   0.0000000
 NMagM=    2.7928460   2.7928460   2.7928460   2.7928460   2.7928460   2.7928460   2.7928460   2.7928460   2.7928460   2.7928460
 AtZNuc=   1.0000000   1.0000000   1.0000000   1.0000000   1.0000000   1.0000000   1.0000000   1.0000000   1.0000000   1.0000000

  Atom       101         102         103         104         105         106         107         108         109         110
 IAtWgt=           1           1           1           1           1           1           1           1           1           1
 AtmWgt=   1.0078250   1.0078250   1.0078250   1.0078250   1.0078250   1.0078250   1.0078250   1.0078250   1.0078250   1.0078250
 NucSpn=           1           1           1           1           1           1           1           1           1           1
 AtZEff=  -0.0000000  -0.0000000  -0.0000000  -0.0000000  -0.0000000  -0.0000000  -0.0000000  -0.0000000  -0.0000000  -0.0000000
 NQMom=    0.0000000   0.0000000   0.0000000   0.0000000   0.0000000   0.0000000   0.0000000   0.0000000   0.0000000   0.0000000
 NMagM=    2.7928460   2.7928460   2.7928460   2.7928460   2.7928460   2.7928460   2.7928460   2.7928460   2.7928460   2.7928460
 AtZNuc=   1.0000000   1.0000000   1.0000000   1.0000000   1.0000000   1.0000000   1.0000000   1.0000000   1.0000000   1.0000000

  Atom       111         112         113         114         115         116         117         118         119         120
 IAtWgt=           1           1           1           1           1           1           1           1           1           1
 AtmWgt=   1.0078250   1.0078250   1.0078250   1.0078250   1.0078250   1.0078250   1.0078250   1.0078250   1.0078250   1.0078250
 NucSpn=           1           1           1           1           1           1           1           1           1           1
 AtZEff=  -0.0000000  -0.0000000  -0.0000000  -0.0000000  -0.0000000  -0.0000000  -0.0000000  -0.0000000  -0.0000000  -0.0000000
 NQMom=    0.0000000   0.0000000   0.0000000   0.0000000   0.0000000   0.0000000   0.0000000   0.0000000   0.0000000   0.0000000
 NMagM=    2.7928460   2.7928460   2.7928460   2.7928460   2.7928460   2.7928460   2.7928460   2.7928460   2.7928460   2.7928460
 AtZNuc=   1.0000000   1.0000000   1.0000000   1.0000000   1.0000000   1.0000000   1.0000000   1.0000000   1.0000000   1.0000000

  Atom       121         122         123         124
 IAtWgt=           1           1           1           1
 AtmWgt=   1.0078250   1.0078250   1.0078250   1.0078250
 NucSpn=           1           1           1           1
 AtZEff=  -0.0000000  -0.0000000  -0.0000000  -0.0000000
 NQMom=    0.0000000   0.0000000   0.0000000   0.0000000
 NMagM=    2.7928460   2.7928460   2.7928460   2.7928460
 AtZNuc=   1.0000000   1.0000000   1.0000000   1.0000000
 Leave Link  101 at Thu Oct 30 17:32:29 2025, MaxMem= 30870077440 cpu:               6.5 elap:               0.1
 (Enter /public/software/gauss/g16/l202.exe)
 Stoichiometry    C49H53BCl2F2N4O13(1-,2)
 Framework group  C1[X(C49H53BCl2F2N4O13)]
 Deg. of freedom   366
 Full point group                 C1      NOp   1
 Largest Abelian subgroup         C1      NOp   1
 Largest concise Abelian subgroup C1      NOp   1
                         Standard orientation:                         
 ---------------------------------------------------------------------
 Center     Atomic      Atomic             Coordinates (Angstroms)
 Number     Number       Type             X           Y           Z
 ---------------------------------------------------------------------
      1          5           0       -2.788188    0.243702   -1.042571
      2          7           0       -3.182447   -1.136797   -1.635323
      3          6           0       -2.337321   -2.108890   -2.145271
      4          6           0       -3.166654   -3.053766   -2.776848
      5          6           0       -4.516397   -2.716888   -2.617202
      6          6           0       -4.497466   -1.511249   -1.877969
      7          6           0       -5.573499   -0.662832   -1.413123
      8          6           0       -6.711100   -1.294770   -0.762090
      9          8           0       -6.900307   -2.528241   -0.789452
     10          6           0       -7.664633   -0.470804    0.120374
     11          6           0       -8.198595   -1.263332    1.291561
     12          6           0       -7.415805   -1.873633    2.296233
     13          7           0       -5.951665   -1.774404    2.305603
     14          8           0       -5.417123   -0.838002    1.706756
     15          8           0       -5.316390   -2.630020    2.928535
     16          6           0       -7.968359   -2.601204    3.345313
     17          6           0       -9.349400   -2.713747    3.407560
     18          6           0      -10.175543   -2.135125    2.446628
     19          6           0       -9.587534   -1.429384    1.404564
     20          7           0       -9.944723   -3.462241    4.511957
     21          8           0       -9.193684   -3.961634    5.353823
     22          8           0      -11.173838   -3.560353    4.551184
     23          6           0       -5.306096    0.749402   -1.358286
     24          7           0       -4.000134    1.197047   -1.243163
     25          6           0       -3.987210    2.584341   -1.219925
     26          6           0       -5.327504    2.986987   -1.390764
     27          6           0       -6.163921    1.871027   -1.501891
     28          6           0       -7.609188    1.909773   -1.893997
     29         17           0       -5.895850    4.629047   -1.586805
     30          6           0       -2.772047    3.341188   -1.052513
     31          6           0       -2.674976    4.648895   -0.696516
     32          6           0       -1.439234    5.414766   -0.560326
     33          6           0       -1.507347    6.731402   -0.054781
     34          6           0       -0.371820    7.513405    0.100091
     35          6           0        0.886591    7.004216   -0.251974
     36          8           0        1.941117    7.867170   -0.076314
     37          6           0        3.270117    7.464950   -0.443810
     38          6           0        3.940399    6.671739    0.681737
     39          8           0        5.265903    6.291240    0.325602
     40          6           0        6.249161    7.304009    0.555290
     41          6           0        7.616077    6.730891    0.227760
     42          8           0        7.971820    5.626257    1.063200
     43          6           0        8.556933    5.988757    2.318156
     44          6           0       10.058300    6.231151    2.212765
     45          8           0       10.789584    5.115300    1.706810
     46          6           0       10.945178    4.055986    2.645118
     47          6           0        0.984965    5.699921   -0.758653
     48          6           0       -0.163649    4.927675   -0.908979
     49          6           0       -5.671980   -3.434984   -3.243392
     50         17           0       -2.592164   -4.477690   -3.616683
     51          6           0       -0.911663   -2.236169   -1.986939
     52          6           0       -0.110122   -1.649661   -1.061995
     53          6           0        1.331131   -1.843086   -0.928891
     54          6           0        1.998245   -1.264725    0.173065
     55          6           0        3.363076   -1.424122    0.366065
     56          6           0        4.121881   -2.171440   -0.546808
     57          8           0        5.465260   -2.248020   -0.274550
     58          6           0        6.321824   -3.057462   -1.098173
     59          6           0        6.239001   -4.537184   -0.749904
     60          8           0        6.584098   -4.790779    0.614674
     61          6           0        7.985752   -4.944631    0.858681
     62          6           0        8.389264   -6.415015    0.716537
     63          8           0        9.754995   -6.637908    1.061537
     64          6           0       10.682845   -6.321571    0.022035
     65          6           0       12.068785   -6.759519    0.463947
     66          8           0       12.189920   -8.161217    0.697920
     67          6           0       12.267133   -8.935836   -0.494161
     68          6           0        3.486732   -2.752352   -1.654661
     69          6           0        2.116536   -2.582442   -1.835304
     70          9           0       -1.680385    0.742085   -1.744997
     71          9           0       -2.467063    0.139616    0.325048
     72          1           0       -7.182500    0.440243    0.476529
     73          1           0       -8.524048   -0.172539   -0.484612
     74          1           0       -7.336019   -3.056885    4.093811
     75          1           0      -11.250809   -2.240614    2.512361
     76          1           0      -10.223679   -0.989037    0.644966
     77          1           0       -8.271664    2.135100   -1.050450
     78          1           0       -7.772402    2.689907   -2.644356
     79          1           0       -7.927098    0.960179   -2.329133
     80          1           0       -1.864470    2.774691   -1.221323
     81          1           0       -3.576862    5.208498   -0.469456
     82          1           0       -2.475085    7.142225    0.220429
     83          1           0       -0.438859    8.525037    0.487672
     84          1           0        3.265637    6.891655   -1.375779
     85          1           0        3.804177    8.400748   -0.623378
     86          1           0        3.936200    7.265987    1.605429
     87          1           0        3.389622    5.745695    0.871819
     88          1           0        6.078467    8.182212   -0.083103
     89          1           0        6.202089    7.637462    1.602068
     90          1           0        7.612909    6.349501   -0.798610
     91          1           0        8.360582    7.535097    0.284915
     92          1           0        8.084671    6.886983    2.737712
     93          1           0        8.345378    5.160447    3.001241
     94          1           0       10.258300    7.053886    1.518595
     95          1           0       10.438376    6.526681    3.203075
     96          1           0       11.399570    4.414163    3.579796
     97          1           0        9.994294    3.563387    2.885423
     98          1           0       11.610379    3.319627    2.186952
     99          1           0        1.942690    5.277969   -1.038316
    100          1           0       -0.055822    3.926297   -1.313556
    101          1           0       -5.995954   -4.297375   -2.650875
    102          1           0       -6.533891   -2.776322   -3.358716
    103          1           0       -5.389525   -3.806633   -4.233949
    104          1           0       -0.473086   -2.957607   -2.672127
    105          1           0       -0.553710   -0.996651   -0.317573
    106          1           0        1.426032   -0.682809    0.890657
    107          1           0        3.862509   -0.974672    1.218573
    108          1           0        6.108457   -2.902745   -2.161309
    109          1           0        7.326691   -2.676143   -0.900508
    110          1           0        5.217461   -4.906045   -0.878413
    111          1           0        6.886414   -5.094879   -1.438898
    112          1           0        8.574545   -4.305127    0.190553
    113          1           0        8.170281   -4.614879    1.886203
    114          1           0        7.791215   -7.014427    1.410455
    115          1           0        8.186853   -6.772420   -0.303105
    116          1           0       10.384905   -6.821809   -0.910355
    117          1           0       10.712846   -5.241032   -0.177478
    118          1           0       12.800217   -6.427200   -0.287451
    119          1           0       12.312203   -6.275118    1.415271
    120          1           0       12.446805   -9.970349   -0.190900
    121          1           0       11.339071   -8.900227   -1.079079
    122          1           0       13.096468   -8.601850   -1.133742
    123          1           0        4.043711   -3.332593   -2.379954
    124          1           0        1.656426   -3.036110   -2.707624
 ---------------------------------------------------------------------
 Rotational constants (GHZ):           0.0212544           0.0105180           0.0078613
 Leave Link  202 at Thu Oct 30 17:32:29 2025, MaxMem= 30870077440 cpu:               0.2 elap:               0.0
 (Enter /public/software/gauss/g16/l301.exe)
 Standard basis: def2TZVPP (5D, 7F)
 Ernie: Thresh=  0.10000D-02 Tol=  0.10000D-05 Strict=F.
 There are  3375 symmetry adapted cartesian basis functions of A   symmetry.
 There are  2965 symmetry adapted basis functions of A   symmetry.
  2965 basis functions,  4558 primitive gaussians,  3375 cartesian basis functions
   269 alpha electrons      268 beta electrons
       nuclear repulsion energy     10742.8614725418 Hartrees.
 IExCor= 4336 DFT=T Ex+Corr=M062X ExCW=0 ScaHFX=  0.540000
 ScaDFX=  1.000000  1.000000  1.000000  1.000000 ScalE2=  1.000000  1.000000
 IRadAn=      5 IRanWt=     -1 IRanGd=            0 ICorTp=0 IEmpDi=131
 NAtoms=  124 NActive=  124 NUniq=  124 SFac= 1.00D+00 NAtFMM=   60 NAOKFM=T Big=T
 Integral buffers will be    131072 words long.
 Raffenetti 2 integral format.
 Two-electron integral symmetry is turned on.
 R6Disp:  Grimme-D3 Dispersion energy=       -0.0105522036 Hartrees.
 Nuclear repulsion after empirical dispersion term =    10742.8509203382 Hartrees.
 ------------------------------------------------------------------------------
 Polarizable Continuum Model (PCM)
 =================================
 Model                : PCM.
 Atomic radii         : UFF (Universal Force Field).
 Polarization charges : Total charges.
 Charge compensation  : None.
 Solution method      : On-the-fly selection.
 Cavity type          : Scaled VdW (van der Waals Surface) (Alpha=1.100).
 Cavity algorithm     : GePol (No added spheres)
                        Default sphere list used, NSphG=  124.
                        Lebedev-Laikov grids with approx.  5.0 points / Ang**2.
                        Smoothing algorithm: York/Karplus (Gamma=1.0000).
                        Polarization charges: spherical gaussians, with
                                              point-specific exponents (IZeta= 3).
                        Self-potential: point-specific (ISelfS= 7).
                        Self-field    : sphere-specific E.n sum rule (ISelfD= 2).
 Solvent              : Water, Eps=  78.355300 Eps(inf)=   1.777849
 ------------------------------------------------------------------------------
 GePol: Number of generator spheres                  =     124
 GePol: Total number of spheres                      =     124
 GePol: Number of exposed spheres                    =     124 (100.00%)
 GePol: Number of points                             =    8876
 GePol: Average weight of points                     =       0.13
 GePol: Minimum weight of points                     =   0.83D-11
 GePol: Maximum weight of points                     =    0.21616
 GePol: Number of points with low weight             =     615
 GePol: Fraction of low-weight points (<1% of avg)   =       6.93%
 GePol: Cavity surface area                          =   1141.671 Ang**2
 GePol: Cavity volume                                =   1310.242 Ang**3
 Leave Link  301 at Thu Oct 30 17:32:29 2025, MaxMem= 30870077440 cpu:               6.7 elap:               0.1
 (Enter /public/software/gauss/g16/l302.exe)
 NPDir=0 NMtPBC=     1 NCelOv=     1 NCel=       1 NClECP=     1 NCelD=      1
         NCelK=      1 NCelE2=     1 NClLst=     1 CellRange=     0.0.
 One-electron integrals computed using PRISM.
 One-electron integral symmetry used in STVInt
   1 Symmetry operations used in ECPInt.
 ECPInt:  NShTT=  611065 NPrTT= 1728758 LenC2=  258125 LenP2D=  479486.
 LDataN:  DoStor=T MaxTD1= 6 Len=  172
 Number of processors reduced to  56 by ecpmxn.
 NBasis=  2965 RedAO= T EigKep=  5.38D-06  NBF=  2965
 NBsUse=  2965 1.00D-06 EigRej= -1.00D+00 NBFU=  2965
 Precomputing XC quadrature grid using
 IXCGrd= 4 IRadAn=           5 IRanWt=          -1 IRanGd=           0 AccXCQ= 0.00D+00.
 Generated NRdTot=       0 NPtTot=           0 NUsed=           0 NTot=          32
 NSgBfM=  2598  2594  2595  2598  2598 MxSgAt=   124 MxSgA2=   124.
 Leave Link  302 at Thu Oct 30 17:33:02 2025, MaxMem= 30870077440 cpu:            2115.2 elap:              33.2
 (Enter /public/software/gauss/g16/l303.exe)
 DipDrv:  MaxL=1.
 Leave Link  303 at Thu Oct 30 17:33:03 2025, MaxMem= 30870077440 cpu:              59.7 elap:               1.0
 (Enter /public/software/gauss/g16/l401.exe)
 ExpMin= 6.06D-02 ExpMax= 6.95D+04 ExpMxC= 2.37D+03 IAcc=3 IRadAn=         5 AccDes= 0.00D+00
 Harris functional with IExCor= 1009 and IRadAn=       5 diagonalized for initial guess.
 HarFok:  IExCor= 1009 AccDes= 0.00D+00 IRadAn=         5 IDoV= 1 UseB2=F ITyADJ=14
 ICtDFT=  3500011 ScaDFX=  1.000000  1.000000  1.000000  1.000000
 FoFCou: FMM=F IPFlag=           0 FMFlag=      100000 FMFlg1=        2001
         NFxFlg=           0 DoJE=T BraDBF=F KetDBF=T FulRan=T
         wScrn=  0.000000 ICntrl=       500 IOpCl=  0 I1Cent=   200000004 NGrid=           0
         NMat0=    1 NMatS0=      1 NMatT0=    0 NMatD0=    1 NMtDS0=    0 NMtDT0=    0
 Petite list used in FoFCou.
 Harris En= -4238.90137495205    
 JPrj=0 DoOrth=F DoCkMO=F.
 Initial guess <Sx>= 0.0000 <Sy>= 0.0000 <Sz>= 0.5000 <S**2>= 0.7500 S= 0.5000
 Leave Link  401 at Thu Oct 30 17:33:30 2025, MaxMem= 30870077440 cpu:            1688.0 elap:              26.5
 (Enter /public/software/gauss/g16/l502.exe)
 Integral symmetry usage will be decided dynamically.
 UHF open shell SCF:
 Using DIIS extrapolation, IDIIS=  1040.
 NGot= 30870077440 LenX= 30847051854 LenY= 30835657854
 Requested convergence on RMS density matrix=1.00D-08 within 128 cycles.
 Requested convergence on MAX density matrix=1.00D-06.
 Requested convergence on             energy=1.00D-06.
 No special actions if energy rises.
 Fock matrices will be formed incrementally for  20 cycles.

 Cycle   1  Pass 1  IDiag  1:
 FoFJK:  IHMeth= 1 ICntrl=       0 DoSepK=F KAlg= 0 I1Cent=           0 FoldK=F
 IRaf= 380000000 NMat=       1 IRICut=       1 DoRegI=T DoRafI=F ISym2E= 0 IDoP0=0 IntGTp=1.
 FoFCou: FMM=T IPFlag=           0 FMFlag=      100000 FMFlg1=        2001
         NFxFlg=           0 DoJE=F BraDBF=F KetDBF=F FulRan=T
         wScrn=  0.000000 ICntrl=         0 IOpCl=  1 I1Cent=           0 NGrid=           0
         NMat0=    1 NMatS0=      1 NMatT0=    0 NMatD0=    1 NMtDS0=    0 NMtDT0=    0
 Symmetry not used in FoFCou.
 FMM levels:  10  Number of levels for PrismC:   9
 Inv3:  Mode=1 IEnd=   236350128.
 Iteration    1 A*A^-1 deviation from unit magnitude is 2.00D-14 for    826.
 Iteration    1 A*A^-1 deviation from orthogonality  is 5.12D-15 for   6017   1110.
 Iteration    1 A^-1*A deviation from unit magnitude is 1.95D-14 for    826.
 Iteration    1 A^-1*A deviation from orthogonality  is 1.24D-13 for   6124   6106.
 E= -4239.25043147445    
 DIIS: error= 2.72D-02 at cycle   1 NSaved=   1.
 NSaved= 1 IEnMin= 1 EnMin= -4239.25043147445     IErMin= 1 ErrMin= 2.72D-02
 ErrMax= 2.72D-02  0.00D+00 EMaxC= 1.00D-01 BMatC= 9.65D+00 BMatP= 9.65D+00
 IDIUse=3 WtCom= 7.28D-01 WtEn= 2.72D-01
 Coeff-Com:  0.100D+01
 Coeff-En:   0.100D+01
 Coeff:      0.100D+01
 Gap=     0.075 Goal=   None    Shift=    0.000
 Gap=     0.169 Goal=   None    Shift=    0.000
 GapD=    0.075 DampG=0.500 DampE=0.500 DampFc=0.2500 IDamp=-1.
 Damping current iteration by 2.50D-01
 RMSDP=1.80D-03 MaxDP=9.34D-01              OVMax= 5.11D-01

 Cycle   2  Pass 1  IDiag  1:
 RMSU=  4.49D-04    CP:  1.00D+00
 E= -4239.84980384457     Delta-E=       -0.599372370123 Rises=F Damp=T
 DIIS: error= 1.25D-02 at cycle   2 NSaved=   2.
 NSaved= 2 IEnMin= 2 EnMin= -4239.84980384457     IErMin= 2 ErrMin= 1.25D-02
 ErrMax= 1.25D-02  0.00D+00 EMaxC= 1.00D-01 BMatC= 3.39D+00 BMatP= 9.65D+00
 IDIUse=3 WtCom= 8.75D-01 WtEn= 1.25D-01
 Coeff-Com: -0.113D+01 0.213D+01
 Coeff-En:   0.000D+00 0.100D+01
 Coeff:     -0.988D+00 0.199D+01
 Gap=     0.094 Goal=   None    Shift=    0.000
 Gap=     0.163 Goal=   None    Shift=    0.000
 RMSDP=6.44D-04 MaxDP=3.52D-01 DE=-5.99D-01 OVMax= 4.29D-01

 Cycle   3  Pass 1  IDiag  1:
 RMSU=  5.85D-04    CP:  9.94D-01  1.59D+00
 E= -4240.94023857154     Delta-E=       -1.090434726973 Rises=F Damp=F
 DIIS: error= 8.36D-03 at cycle   3 NSaved=   3.
 NSaved= 3 IEnMin= 3 EnMin= -4240.94023857154     IErMin= 3 ErrMin= 8.36D-03
 ErrMax= 8.36D-03  0.00D+00 EMaxC= 1.00D-01 BMatC= 3.38D-01 BMatP= 3.39D+00
 IDIUse=3 WtCom= 9.16D-01 WtEn= 8.36D-02
 Coeff-Com: -0.471D+00 0.795D+00 0.676D+00
 Coeff-En:   0.000D+00 0.000D+00 0.100D+01
 Coeff:     -0.432D+00 0.729D+00 0.703D+00
 Gap=     0.115 Goal=   None    Shift=    0.000
 Gap=     0.105 Goal=   None    Shift=    0.000
 RMSDP=1.85D-04 MaxDP=6.11D-02 DE=-1.09D+00 OVMax= 6.55D-02

 Cycle   4  Pass 1  IDiag  1:
 RMSU=  1.78D-04    CP:  9.96D-01  1.67D+00  9.37D-01
 E= -4240.99150969446     Delta-E=       -0.051271122913 Rises=F Damp=F
 DIIS: error= 3.15D-03 at cycle   4 NSaved=   4.
 NSaved= 4 IEnMin= 4 EnMin= -4240.99150969446     IErMin= 4 ErrMin= 3.15D-03
 ErrMax= 3.15D-03  0.00D+00 EMaxC= 1.00D-01 BMatC= 7.66D-02 BMatP= 3.38D-01
 IDIUse=3 WtCom= 9.69D-01 WtEn= 3.15D-02
 Coeff-Com: -0.755D-01 0.115D+00 0.342D+00 0.618D+00
 Coeff-En:   0.000D+00 0.000D+00 0.152D+00 0.848D+00
 Coeff:     -0.731D-01 0.111D+00 0.336D+00 0.626D+00
 Gap=     0.120 Goal=   None    Shift=    0.000
 Gap=     0.109 Goal=   None    Shift=    0.000
 RMSDP=7.79D-05 MaxDP=4.81D-02 DE=-5.13D-02 OVMax= 3.23D-02

 Cycle   5  Pass 1  IDiag  1:
 RMSU=  6.14D-05    CP:  9.94D-01  1.61D+00  9.71D-01  8.17D-01
 E= -4241.00662329470     Delta-E=       -0.015113600242 Rises=F Damp=F
 DIIS: error= 2.89D-04 at cycle   5 NSaved=   5.
 NSaved= 5 IEnMin= 5 EnMin= -4241.00662329470     IErMin= 5 ErrMin= 2.89D-04
 ErrMax= 2.89D-04  0.00D+00 EMaxC= 1.00D-01 BMatC= 2.45D-03 BMatP= 7.66D-02
 IDIUse=3 WtCom= 9.97D-01 WtEn= 2.89D-03
 Coeff-Com: -0.117D-01 0.157D-01 0.104D+00 0.246D+00 0.646D+00
 Coeff-En:   0.000D+00 0.000D+00 0.000D+00 0.000D+00 0.100D+01
 Coeff:     -0.117D-01 0.157D-01 0.104D+00 0.245D+00 0.647D+00
 Gap=     0.123 Goal=   None    Shift=    0.000
 Gap=     0.111 Goal=   None    Shift=    0.000
 RMSDP=2.56D-05 MaxDP=1.60D-02 DE=-1.51D-02 OVMax= 1.67D-02

 Cycle   6  Pass 1  IDiag  1:
 RMSU=  2.19D-05    CP:  9.95D-01  1.61D+00  9.79D-01  8.73D-01  1.11D+00
 E= -4241.00737714515     Delta-E=       -0.000753850454 Rises=F Damp=F
 DIIS: error= 1.60D-04 at cycle   6 NSaved=   6.
 NSaved= 6 IEnMin= 6 EnMin= -4241.00737714515     IErMin= 6 ErrMin= 1.60D-04
 ErrMax= 1.60D-04  0.00D+00 EMaxC= 1.00D-01 BMatC= 3.87D-04 BMatP= 2.45D-03
 IDIUse=3 WtCom= 9.98D-01 WtEn= 1.60D-03
 Coeff-Com:  0.497D-02-0.821D-02 0.365D-03 0.211D-01 0.244D+00 0.738D+00
 Coeff-En:   0.000D+00 0.000D+00 0.000D+00 0.000D+00 0.000D+00 0.100D+01
 Coeff:      0.497D-02-0.820D-02 0.364D-03 0.210D-01 0.244D+00 0.738D+00
 Gap=     0.125 Goal=   None    Shift=    0.000
 Gap=     0.114 Goal=   None    Shift=    0.000
 RMSDP=1.73D-05 MaxDP=7.41D-03 DE=-7.54D-04 OVMax= 1.44D-02

 Cycle   7  Pass 1  IDiag  1:
 RMSU=  9.14D-06    CP:  9.95D-01  1.60D+00  9.87D-01  8.95D-01  1.26D+00
                    CP:  1.34D+00
 E= -4241.00764450387     Delta-E=       -0.000267358717 Rises=F Damp=F
 DIIS: error= 7.51D-05 at cycle   7 NSaved=   7.
 NSaved= 7 IEnMin= 7 EnMin= -4241.00764450387     IErMin= 7 ErrMin= 7.51D-05
 ErrMax= 7.51D-05  0.00D+00 EMaxC= 1.00D-01 BMatC= 1.36D-04 BMatP= 3.87D-04
 IDIUse=1 WtCom= 1.00D+00 WtEn= 0.00D+00
 Coeff-Com:  0.518D-02-0.756D-02-0.256D-01-0.538D-01-0.660D-01 0.335D+00
 Coeff-Com:  0.813D+00
 Coeff:      0.518D-02-0.756D-02-0.256D-01-0.538D-01-0.660D-01 0.335D+00
 Coeff:      0.813D+00
 Gap=     0.126 Goal=   None    Shift=    0.000
 Gap=     0.116 Goal=   None    Shift=    0.000
 RMSDP=1.34D-05 MaxDP=6.67D-03 DE=-2.67D-04 OVMax= 1.18D-02

 Cycle   8  Pass 1  IDiag  1:
 RMSU=  5.26D-06    CP:  9.95D-01  1.59D+00  9.92D-01  9.16D-01  1.37D+00
                    CP:  1.71D+00  1.45D+00
 E= -4241.00777523682     Delta-E=       -0.000130732951 Rises=F Damp=F
 DIIS: error= 6.23D-05 at cycle   8 NSaved=   8.
 NSaved= 8 IEnMin= 8 EnMin= -4241.00777523682     IErMin= 8 ErrMin= 6.23D-05
 ErrMax= 6.23D-05  0.00D+00 EMaxC= 1.00D-01 BMatC= 4.73D-05 BMatP= 1.36D-04
 IDIUse=1 WtCom= 1.00D+00 WtEn= 0.00D+00
 Coeff-Com:  0.817D-03-0.835D-03-0.117D-01-0.328D-01-0.110D+00-0.589D-01
 Coeff-Com:  0.416D+00 0.797D+00
 Coeff:      0.817D-03-0.835D-03-0.117D-01-0.328D-01-0.110D+00-0.589D-01
 Coeff:      0.416D+00 0.797D+00
 Gap=     0.126 Goal=   None    Shift=    0.000
 Gap=     0.117 Goal=   None    Shift=    0.000
 RMSDP=8.47D-06 MaxDP=3.62D-03 DE=-1.31D-04 OVMax= 8.16D-03

 Cycle   9  Pass 1  IDiag  1:
 RMSU=  2.28D-06    CP:  9.95D-01  1.59D+00  9.95D-01  9.22D-01  1.42D+00
                    CP:  1.94D+00  1.93D+00  1.37D+00
 E= -4241.00782313837     Delta-E=       -0.000047901553 Rises=F Damp=F
 DIIS: error= 3.03D-05 at cycle   9 NSaved=   9.
 NSaved= 9 IEnMin= 9 EnMin= -4241.00782313837     IErMin= 9 ErrMin= 3.03D-05
 ErrMax= 3.03D-05  0.00D+00 EMaxC= 1.00D-01 BMatC= 1.32D-05 BMatP= 4.73D-05
 IDIUse=1 WtCom= 1.00D+00 WtEn= 0.00D+00
 Coeff-Com: -0.133D-02 0.211D-02 0.443D-02 0.512D-02-0.209D-01-0.135D+00
 Coeff-Com: -0.102D+00 0.345D+00 0.903D+00
 Coeff:     -0.133D-02 0.211D-02 0.443D-02 0.512D-02-0.209D-01-0.135D+00
 Coeff:     -0.102D+00 0.345D+00 0.903D+00
 Gap=     0.126 Goal=   None    Shift=    0.000
 Gap=     0.118 Goal=   None    Shift=    0.000
 RMSDP=5.01D-06 MaxDP=2.04D-03 DE=-4.79D-05 OVMax= 4.96D-03

 Cycle  10  Pass 1  IDiag  1:
 RMSU=  1.47D-06    CP:  9.95D-01  1.59D+00  9.97D-01  9.22D-01  1.44D+00
                    CP:  2.05D+00  2.21D+00  1.78D+00  1.48D+00
 E= -4241.00783729054     Delta-E=       -0.000014152163 Rises=F Damp=F
 DIIS: error= 1.78D-05 at cycle  10 NSaved=  10.
 NSaved=10 IEnMin=10 EnMin= -4241.00783729054     IErMin=10 ErrMin= 1.78D-05
 ErrMax= 1.78D-05  0.00D+00 EMaxC= 1.00D-01 BMatC= 4.27D-06 BMatP= 1.32D-05
 IDIUse=1 WtCom= 1.00D+00 WtEn= 0.00D+00
 Coeff-Com: -0.776D-03 0.112D-02 0.545D-02 0.118D-01 0.208D-01-0.529D-01
 Coeff-Com: -0.165D+00-0.442D-01 0.472D+00 0.752D+00
 Coeff:     -0.776D-03 0.112D-02 0.545D-02 0.118D-01 0.208D-01-0.529D-01
 Coeff:     -0.165D+00-0.442D-01 0.472D+00 0.752D+00
 Gap=     0.126 Goal=   None    Shift=    0.000
 Gap=     0.118 Goal=   None    Shift=    0.000
 RMSDP=2.14D-06 MaxDP=1.75D-03 DE=-1.42D-05 OVMax= 1.90D-03

 Cycle  11  Pass 1  IDiag  1:
 RMSU=  8.90D-07    CP:  9.95D-01  1.58D+00  9.98D-01  9.22D-01  1.45D+00
                    CP:  2.08D+00  2.33D+00  1.96D+00  1.86D+00  1.21D+00
 E= -4241.00784031001     Delta-E=       -0.000003019479 Rises=F Damp=F
 DIIS: error= 9.30D-06 at cycle  11 NSaved=  11.
 NSaved=11 IEnMin=11 EnMin= -4241.00784031001     IErMin=11 ErrMin= 9.30D-06
 ErrMax= 9.30D-06  0.00D+00 EMaxC= 1.00D-01 BMatC= 1.11D-06 BMatP= 4.27D-06
 IDIUse=1 WtCom= 1.00D+00 WtEn= 0.00D+00
 Coeff-Com: -0.199D-04-0.106D-04 0.151D-02 0.440D-02 0.146D-01 0.517D-02
 Coeff-Com: -0.494D-01-0.104D+00-0.381D-02 0.378D+00 0.754D+00
 Coeff:     -0.199D-04-0.106D-04 0.151D-02 0.440D-02 0.146D-01 0.517D-02
 Coeff:     -0.494D-01-0.104D+00-0.381D-02 0.378D+00 0.754D+00
 Gap=     0.126 Goal=   None    Shift=    0.000
 Gap=     0.118 Goal=   None    Shift=    0.000
 RMSDP=9.51D-07 MaxDP=3.15D-04 DE=-3.02D-06 OVMax= 7.42D-04

 Cycle  12  Pass 1  IDiag  1:
 RMSU=  3.84D-07    CP:  9.95D-01  1.58D+00  9.98D-01  9.21D-01  1.45D+00
                    CP:  2.08D+00  2.36D+00  2.01D+00  2.03D+00  1.56D+00
                    CP:  1.23D+00
 E= -4241.00784101222     Delta-E=       -0.000000702204 Rises=F Damp=F
 DIIS: error= 3.37D-06 at cycle  12 NSaved=  12.
 NSaved=12 IEnMin=12 EnMin= -4241.00784101222     IErMin=12 ErrMin= 3.37D-06
 ErrMax= 3.37D-06  0.00D+00 EMaxC= 1.00D-01 BMatC= 2.47D-07 BMatP= 1.11D-06
 IDIUse=1 WtCom= 1.00D+00 WtEn= 0.00D+00
 Coeff-Com:  0.157D-03-0.241D-03-0.718D-03-0.117D-02 0.104D-02 0.141D-01
 Coeff-Com:  0.235D-01-0.327D-01-0.128D+00-0.292D-01 0.334D+00 0.820D+00
 Coeff:      0.157D-03-0.241D-03-0.718D-03-0.117D-02 0.104D-02 0.141D-01
 Coeff:      0.235D-01-0.327D-01-0.128D+00-0.292D-01 0.334D+00 0.820D+00
 Gap=     0.126 Goal=   None    Shift=    0.000
 Gap=     0.118 Goal=   None    Shift=    0.000
 RMSDP=5.05D-07 MaxDP=3.19D-04 DE=-7.02D-07 OVMax= 2.64D-04

 Cycle  13  Pass 1  IDiag  1:
 RMSU=  1.82D-07    CP:  9.95D-01  1.58D+00  9.98D-01  9.21D-01  1.45D+00
                    CP:  2.08D+00  2.37D+00  2.03D+00  2.11D+00  1.70D+00
                    CP:  1.55D+00  1.35D+00
 E= -4241.00784119648     Delta-E=       -0.000000184260 Rises=F Damp=F
 DIIS: error= 1.70D-06 at cycle  13 NSaved=  13.
 NSaved=13 IEnMin=13 EnMin= -4241.00784119648     IErMin=13 ErrMin= 1.70D-06
 ErrMax= 1.70D-06  0.00D+00 EMaxC= 1.00D-01 BMatC= 6.02D-08 BMatP= 2.47D-07
 IDIUse=1 WtCom= 1.00D+00 WtEn= 0.00D+00
 Coeff-Com:  0.793D-04-0.112D-03-0.674D-03-0.161D-02-0.279D-02 0.479D-02
 Coeff-Com:  0.234D-01 0.106D-01-0.547D-01-0.984D-01-0.360D-01 0.357D+00
 Coeff-Com:  0.799D+00
 Coeff:      0.793D-04-0.112D-03-0.674D-03-0.161D-02-0.279D-02 0.479D-02
 Coeff:      0.234D-01 0.106D-01-0.547D-01-0.984D-01-0.360D-01 0.357D+00
 Coeff:      0.799D+00
 Gap=     0.126 Goal=   None    Shift=    0.000
 Gap=     0.118 Goal=   None    Shift=    0.000
 RMSDP=2.29D-07 MaxDP=6.31D-05 DE=-1.84D-07 OVMax= 1.54D-04

 Cycle  14  Pass 1  IDiag  1:
 RMSU=  8.70D-08    CP:  9.95D-01  1.58D+00  9.98D-01  9.21D-01  1.44D+00
                    CP:  2.08D+00  2.37D+00  2.02D+00  2.13D+00  1.76D+00
                    CP:  1.64D+00  1.67D+00  1.23D+00
 E= -4241.00784124300     Delta-E=       -0.000000046517 Rises=F Damp=F
 DIIS: error= 1.24D-06 at cycle  14 NSaved=  14.
 NSaved=14 IEnMin=14 EnMin= -4241.00784124300     IErMin=14 ErrMin= 1.24D-06
 ErrMax= 1.24D-06  0.00D+00 EMaxC= 1.00D-01 BMatC= 1.66D-08 BMatP= 6.02D-08
 IDIUse=1 WtCom= 1.00D+00 WtEn= 0.00D+00
 Coeff-Com: -0.285D-05 0.814D-05-0.904D-04-0.369D-03-0.129D-02-0.157D-02
 Coeff-Com:  0.405D-02 0.114D-01 0.878D-02-0.325D-01-0.987D-01-0.462D-01
 Coeff-Com:  0.342D+00 0.815D+00
 Coeff:     -0.285D-05 0.814D-05-0.904D-04-0.369D-03-0.129D-02-0.157D-02
 Coeff:      0.405D-02 0.114D-01 0.878D-02-0.325D-01-0.987D-01-0.462D-01
 Coeff:      0.342D+00 0.815D+00
 Gap=     0.126 Goal=   None    Shift=    0.000
 Gap=     0.118 Goal=   None    Shift=    0.000
 RMSDP=1.00D-07 MaxDP=2.25D-05 DE=-4.65D-08 OVMax= 8.08D-05

 Cycle  15  Pass 1  IDiag  1:
 RMSU=  5.09D-08    CP:  9.95D-01  1.58D+00  9.98D-01  9.21D-01  1.44D+00
                    CP:  2.08D+00  2.37D+00  2.02D+00  2.14D+00  1.78D+00
                    CP:  1.68D+00  1.79D+00  1.46D+00  1.33D+00
 E= -4241.00784125767     Delta-E=       -0.000000014677 Rises=F Damp=F
 DIIS: error= 9.76D-07 at cycle  15 NSaved=  15.
 NSaved=15 IEnMin=15 EnMin= -4241.00784125767     IErMin=15 ErrMin= 9.76D-07
 ErrMax= 9.76D-07  0.00D+00 EMaxC= 1.00D-01 BMatC= 6.05D-09 BMatP= 1.66D-08
 IDIUse=1 WtCom= 1.00D+00 WtEn= 0.00D+00
 Coeff-Com: -0.216D-04 0.328D-04 0.147D-03 0.260D-03 0.964D-04-0.224D-02
 Coeff-Com: -0.442D-02 0.274D-02 0.203D-01 0.110D-01-0.434D-01-0.122D+00
 Coeff-Com: -0.480D-01 0.416D+00 0.770D+00
 Coeff:     -0.216D-04 0.328D-04 0.147D-03 0.260D-03 0.964D-04-0.224D-02
 Coeff:     -0.442D-02 0.274D-02 0.203D-01 0.110D-01-0.434D-01-0.122D+00
 Coeff:     -0.480D-01 0.416D+00 0.770D+00
 Gap=     0.126 Goal=   None    Shift=    0.000
 Gap=     0.118 Goal=   None    Shift=    0.000
 RMSDP=5.89D-08 MaxDP=3.57D-05 DE=-1.47D-08 OVMax= 6.35D-05

 Cycle  16  Pass 1  IDiag  1:
 RMSU=  2.94D-08    CP:  9.95D-01  1.58D+00  9.98D-01  9.21D-01  1.44D+00
                    CP:  2.08D+00  2.37D+00  2.02D+00  2.14D+00  1.78D+00
                    CP:  1.67D+00  1.85D+00  1.54D+00  1.72D+00  1.44D+00
 E= -4241.00784126452     Delta-E=       -0.000000006848 Rises=F Damp=F
 DIIS: error= 7.66D-07 at cycle  16 NSaved=  16.
 NSaved=16 IEnMin=16 EnMin= -4241.00784126452     IErMin=16 ErrMin= 7.66D-07
 ErrMax= 7.66D-07  0.00D+00 EMaxC= 1.00D-01 BMatC= 2.20D-09 BMatP= 6.05D-09
 IDIUse=1 WtCom= 1.00D+00 WtEn= 0.00D+00
 Coeff-Com: -0.817D-05 0.118D-04 0.948D-04 0.232D-03 0.425D-03-0.570D-03
 Coeff-Com: -0.328D-02-0.224D-02 0.707D-02 0.157D-01 0.868D-02-0.432D-01
 Coeff-Com: -0.136D+00-0.629D-01 0.385D+00 0.830D+00
 Coeff:     -0.817D-05 0.118D-04 0.948D-04 0.232D-03 0.425D-03-0.570D-03
 Coeff:     -0.328D-02-0.224D-02 0.707D-02 0.157D-01 0.868D-02-0.432D-01
 Coeff:     -0.136D+00-0.629D-01 0.385D+00 0.830D+00
 Gap=     0.126 Goal=   None    Shift=    0.000
 Gap=     0.118 Goal=   None    Shift=    0.000
 RMSDP=4.34D-08 MaxDP=2.17D-05 DE=-6.85D-09 OVMax= 5.42D-05

 Cycle  17  Pass 1  IDiag  1:
 RMSU=  1.76D-08    CP:  9.95D-01  1.58D+00  9.98D-01  9.21D-01  1.44D+00
                    CP:  2.08D+00  2.37D+00  2.02D+00  2.14D+00  1.78D+00
                    CP:  1.67D+00  1.86D+00  1.57D+00  1.96D+00  1.99D+00
                    CP:  1.52D+00
 E= -4241.00784126822     Delta-E=       -0.000000003694 Rises=F Damp=F
 DIIS: error= 5.86D-07 at cycle  17 NSaved=  17.
 NSaved=17 IEnMin=17 EnMin= -4241.00784126822     IErMin=17 ErrMin= 5.86D-07
 ErrMax= 5.86D-07  0.00D+00 EMaxC= 1.00D-01 BMatC= 8.87D-10 BMatP= 2.20D-09
 IDIUse=1 WtCom= 1.00D+00 WtEn= 0.00D+00
 Coeff-Com:  0.369D-05-0.575D-05-0.938D-05 0.144D-04 0.143D-03 0.514D-03
 Coeff-Com:  0.865D-04-0.194D-02-0.395D-02 0.333D-02 0.185D-01 0.243D-01
 Coeff-Com: -0.402D-01-0.173D+00-0.109D+00 0.352D+00 0.930D+00
 Coeff:      0.369D-05-0.575D-05-0.938D-05 0.144D-04 0.143D-03 0.514D-03
 Coeff:      0.865D-04-0.194D-02-0.395D-02 0.333D-02 0.185D-01 0.243D-01
 Coeff:     -0.402D-01-0.173D+00-0.109D+00 0.352D+00 0.930D+00
 Gap=     0.126 Goal=   None    Shift=    0.000
 Gap=     0.118 Goal=   None    Shift=    0.000
 RMSDP=3.73D-08 MaxDP=8.83D-06 DE=-3.69D-09 OVMax= 4.57D-05

 Cycle  18  Pass 1  IDiag  1:
 RMSU=  1.25D-08    CP:  9.95D-01  1.58D+00  9.98D-01  9.21D-01  1.44D+00
                    CP:  2.08D+00  2.37D+00  2.02D+00  2.14D+00  1.78D+00
                    CP:  1.66D+00  1.85D+00  1.58D+00  2.10D+00  2.38D+00
                    CP:  2.17D+00  1.77D+00
 E= -4241.00784126931     Delta-E=       -0.000000001091 Rises=F Damp=F
 DIIS: error= 4.56D-07 at cycle  18 NSaved=  18.
 NSaved=18 IEnMin=18 EnMin= -4241.00784126931     IErMin=18 ErrMin= 4.56D-07
 ErrMax= 4.56D-07  0.00D+00 EMaxC= 1.00D-01 BMatC= 4.70D-10 BMatP= 8.87D-10
 IDIUse=1 WtCom= 1.00D+00 WtEn= 0.00D+00
 Coeff-Com:  0.542D-05-0.819D-05-0.520D-04-0.105D-03-0.146D-03 0.559D-03
 Coeff-Com:  0.168D-02 0.174D-03-0.560D-02-0.608D-02 0.504D-02 0.328D-01
 Coeff-Com:  0.509D-01-0.591D-01-0.257D+00-0.234D+00 0.479D+00 0.992D+00
 Coeff:      0.542D-05-0.819D-05-0.520D-04-0.105D-03-0.146D-03 0.559D-03
 Coeff:      0.168D-02 0.174D-03-0.560D-02-0.608D-02 0.504D-02 0.328D-01
 Coeff:      0.509D-01-0.591D-01-0.257D+00-0.234D+00 0.479D+00 0.992D+00
 Gap=     0.126 Goal=   None    Shift=    0.000
 Gap=     0.118 Goal=   None    Shift=    0.000
 RMSDP=3.38D-08 MaxDP=5.91D-06 DE=-1.09D-09 OVMax= 4.37D-05

 Cycle  19  Pass 1  IDiag  1:
 RMSU=  8.49D-09    CP:  9.95D-01  1.58D+00  9.98D-01  9.21D-01  1.44D+00
                    CP:  2.08D+00  2.37D+00  2.02D+00  2.14D+00  1.78D+00
                    CP:  1.66D+00  1.84D+00  1.58D+00  2.21D+00  2.70D+00
                    CP:  2.71D+00  2.74D+00  1.79D+00
 E= -4241.00784127113     Delta-E=       -0.000000001824 Rises=F Damp=F
 DIIS: error= 3.27D-07 at cycle  19 NSaved=  19.
 NSaved=19 IEnMin=19 EnMin= -4241.00784127113     IErMin=19 ErrMin= 3.27D-07
 ErrMax= 3.27D-07  0.00D+00 EMaxC= 1.00D-01 BMatC= 2.21D-10 BMatP= 4.70D-10
 IDIUse=1 WtCom= 1.00D+00 WtEn= 0.00D+00
 Coeff-Com: -0.335D-06 0.508D-06-0.150D-04-0.461D-04-0.124D-03-0.332D-04
 Coeff-Com:  0.576D-03 0.111D-02-0.289D-03-0.424D-02-0.718D-02-0.183D-02
 Coeff-Com:  0.424D-01 0.654D-01-0.396D-01-0.268D+00-0.318D+00 0.395D+00
 Coeff-Com:  0.113D+01
 Coeff:     -0.335D-06 0.508D-06-0.150D-04-0.461D-04-0.124D-03-0.332D-04
 Coeff:      0.576D-03 0.111D-02-0.289D-03-0.424D-02-0.718D-02-0.183D-02
 Coeff:      0.424D-01 0.654D-01-0.396D-01-0.268D+00-0.318D+00 0.395D+00
 Coeff:      0.113D+01
 Gap=     0.126 Goal=   None    Shift=    0.000
 Gap=     0.118 Goal=   None    Shift=    0.000
 RMSDP=2.88D-08 MaxDP=1.36D-05 DE=-1.82D-09 OVMax= 3.64D-05

 Cycle  20  Pass 1  IDiag  1:
 RMSU=  1.18D-08    CP:  9.95D-01  1.58D+00  9.98D-01  9.21D-01  1.44D+00
                    CP:  2.08D+00  2.37D+00  2.02D+00  2.14D+00  1.78D+00
                    CP:  1.66D+00  1.84D+00  1.60D+00  2.27D+00  2.90D+00
                    CP:  3.00D+00  3.00D+00  2.84D+00  2.08D+00
 E= -4241.00784127171     Delta-E=       -0.000000000577 Rises=F Damp=F
 DIIS: error= 2.23D-07 at cycle  20 NSaved=  20.
 NSaved=20 IEnMin=20 EnMin= -4241.00784127171     IErMin=20 ErrMin= 2.23D-07
 ErrMax= 2.23D-07  0.00D+00 EMaxC= 1.00D-01 BMatC= 1.02D-10 BMatP= 2.21D-10
 IDIUse=1 WtCom= 1.00D+00 WtEn= 0.00D+00
 Coeff-Com: -0.278D-05 0.421D-05 0.211D-04 0.336D-04 0.156D-04-0.334D-03
 Coeff-Com: -0.636D-03 0.547D-03 0.301D-02 0.128D-02-0.586D-02-0.191D-01
 Coeff-Com: -0.561D-02 0.626D-01 0.120D+00-0.642D-02-0.424D+00-0.339D+00
 Coeff-Com:  0.552D+00 0.106D+01
 Coeff:     -0.278D-05 0.421D-05 0.211D-04 0.336D-04 0.156D-04-0.334D-03
 Coeff:     -0.636D-03 0.547D-03 0.301D-02 0.128D-02-0.586D-02-0.191D-01
 Coeff:     -0.561D-02 0.626D-01 0.120D+00-0.642D-02-0.424D+00-0.339D+00
 Coeff:      0.552D+00 0.106D+01
 Gap=     0.126 Goal=   None    Shift=    0.000
 Gap=     0.118 Goal=   None    Shift=    0.000
 RMSDP=2.22D-08 MaxDP=1.50D-05 DE=-5.77D-10 OVMax= 2.52D-05

 Cycle  21  Pass 1  IDiag  1:
 Restarting incremental Fock formation.
 E= -4241.00784127225     Delta-E=       -0.000000000542 Rises=F Damp=F
 DIIS: error= 1.30D-07 at cycle  21 NSaved=  20.
 NSaved=20 IEnMin=20 EnMin= -4241.00784127225     IErMin=20 ErrMin= 1.30D-07
 ErrMax= 1.30D-07  0.00D+00 EMaxC= 1.00D-01 BMatC= 3.56D-11 BMatP= 1.02D-10
 IDIUse=1 WtCom= 1.00D+00 WtEn= 0.00D+00
 Coeff-Com:  0.880D-07 0.847D-05 0.186D-04 0.416D-04-0.577D-04-0.316D-03
 Coeff-Com: -0.297D-03 0.681D-03 0.162D-02 0.138D-02-0.302D-02-0.155D-01
 Coeff-Com: -0.100D-01 0.419D-01 0.883D-01 0.160D-01-0.206D+00-0.279D+00
 Coeff-Com:  0.236D+00 0.113D+01
 Coeff:      0.880D-07 0.847D-05 0.186D-04 0.416D-04-0.577D-04-0.316D-03
 Coeff:     -0.297D-03 0.681D-03 0.162D-02 0.138D-02-0.302D-02-0.155D-01
 Coeff:     -0.100D-01 0.419D-01 0.883D-01 0.160D-01-0.206D+00-0.279D+00
 Coeff:      0.236D+00 0.113D+01
 Gap=     0.126 Goal=   None    Shift=    0.000
 Gap=     0.118 Goal=   None    Shift=    0.000
 RMSDP=1.25D-08 MaxDP=9.41D-06 DE=-5.42D-10 OVMax= 1.42D-05

 Cycle  22  Pass 1  IDiag  1:
 RMSU=  1.25D-08    CP:  1.00D+00
 E= -4241.00784127169     Delta-E=        0.000000000560 Rises=F Damp=F
 DIIS: error= 8.22D-08 at cycle  22 NSaved=  20.
 NSaved=20 IEnMin=19 EnMin= -4241.00784127225     IErMin=20 ErrMin= 8.22D-08
 ErrMax= 8.22D-08  0.00D+00 EMaxC= 1.00D-01 BMatC= 1.76D-11 BMatP= 3.56D-11
 IDIUse=1 WtCom= 1.00D+00 WtEn= 0.00D+00
 Coeff-Com: -0.916D-06 0.116D-05 0.206D-04 0.810D-04 0.528D-04-0.387D-03
 Coeff-Com: -0.735D-03 0.330D-03 0.282D-02 0.632D-02-0.504D-02-0.290D-01
 Coeff-Com: -0.310D-01 0.372D-01 0.193D+00 0.605D-01-0.362D+00-0.390D+00
 Coeff-Com:  0.475D+00 0.104D+01
 Coeff:     -0.916D-06 0.116D-05 0.206D-04 0.810D-04 0.528D-04-0.387D-03
 Coeff:     -0.735D-03 0.330D-03 0.282D-02 0.632D-02-0.504D-02-0.290D-01
 Coeff:     -0.310D-01 0.372D-01 0.193D+00 0.605D-01-0.362D+00-0.390D+00
 Coeff:      0.475D+00 0.104D+01
 Gap=     0.126 Goal=   None    Shift=    0.000
 Gap=     0.118 Goal=   None    Shift=    0.000
 RMSDP=8.52D-09 MaxDP=4.82D-06 DE= 5.60D-10 OVMax= 9.89D-06

 Cycle  23  Pass 1  IDiag  1:
 RMSU=  3.14D-09    CP:  1.00D+00  1.63D+00
 E= -4241.00784127188     Delta-E=       -0.000000000189 Rises=F Damp=F
 DIIS: error= 4.57D-08 at cycle  23 NSaved=  20.
 NSaved=20 IEnMin=18 EnMin= -4241.00784127225     IErMin=20 ErrMin= 4.57D-08
 ErrMax= 4.57D-08  0.00D+00 EMaxC= 1.00D-01 BMatC= 6.74D-12 BMatP= 1.76D-11
 IDIUse=1 WtCom= 1.00D+00 WtEn= 0.00D+00
 Coeff-Com:  0.202D-05 0.849D-05 0.173D-04 0.207D-04-0.497D-04-0.120D-03
 Coeff-Com: -0.189D-04 0.220D-03 0.143D-02 0.114D-02-0.697D-03-0.142D-01
 Coeff-Com: -0.166D-01 0.291D-01 0.608D-01 0.316D-01-0.155D+00-0.308D+00
 Coeff-Com:  0.240D+00 0.113D+01
 Coeff:      0.202D-05 0.849D-05 0.173D-04 0.207D-04-0.497D-04-0.120D-03
 Coeff:     -0.189D-04 0.220D-03 0.143D-02 0.114D-02-0.697D-03-0.142D-01
 Coeff:     -0.166D-01 0.291D-01 0.608D-01 0.316D-01-0.155D+00-0.308D+00
 Coeff:      0.240D+00 0.113D+01
 Gap=     0.126 Goal=   None    Shift=    0.000
 Gap=     0.118 Goal=   None    Shift=    0.000
 RMSDP=4.78D-09 MaxDP=1.01D-06 DE=-1.89D-10 OVMax= 5.64D-06

 Cycle  24  Pass 1  IDiag  1:
 RMSU=  2.69D-09    CP:  1.00D+00  1.85D+00  1.90D+00
 E= -4241.00784127196     Delta-E=       -0.000000000080 Rises=F Damp=F
 DIIS: error= 2.57D-08 at cycle  24 NSaved=  20.
 NSaved=20 IEnMin=17 EnMin= -4241.00784127225     IErMin=20 ErrMin= 2.57D-08
 ErrMax= 2.57D-08  0.00D+00 EMaxC= 1.00D-01 BMatC= 2.96D-12 BMatP= 6.74D-12
 IDIUse=1 WtCom= 1.00D+00 WtEn= 0.00D+00
 Coeff-Com: -0.607D-05-0.222D-04 0.592D-05 0.127D-03 0.121D-03-0.277D-03
 Coeff-Com: -0.953D-03-0.120D-02 0.314D-02 0.108D-01 0.902D-03-0.275D-01
 Coeff-Com: -0.575D-01 0.153D-01 0.174D+00 0.682D-01-0.375D+00-0.315D+00
 Coeff-Com:  0.468D+00 0.104D+01
 Coeff:     -0.607D-05-0.222D-04 0.592D-05 0.127D-03 0.121D-03-0.277D-03
 Coeff:     -0.953D-03-0.120D-02 0.314D-02 0.108D-01 0.902D-03-0.275D-01
 Coeff:     -0.575D-01 0.153D-01 0.174D+00 0.682D-01-0.375D+00-0.315D+00
 Coeff:      0.468D+00 0.104D+01
 Gap=     0.126 Goal=   None    Shift=    0.000
 Gap=     0.118 Goal=   None    Shift=    0.000
 RMSDP=3.45D-09 MaxDP=6.98D-07 DE=-8.00D-11 OVMax= 3.93D-06

 Error on total polarization charges =  0.03067
 SCF Done:  E(UM062X) =  -4241.00784127     A.U. after   24 cycles
            NFock= 24  Conv=0.35D-08     -V/T= 2.0044
 <Sx>= 0.0000 <Sy>= 0.0000 <Sz>= 0.5000 <S**2>= 0.7743 S= 0.5121
 <L.S>= 0.000000000000E+00
 KE= 4.222566294332D+03 PE=-3.147723136990D+04 EE= 1.227080631396D+04
 Annihilation of the first spin contaminant:
 S**2 before annihilation     0.7743,   after     0.7505
 Leave Link  502 at Thu Oct 30 18:47:28 2025, MaxMem= 30870077440 cpu:          280428.5 elap:            4438.4
 (Enter /public/software/gauss/g16/l601.exe)
 Copying SCF densities to generalized density rwf, IOpCl= 1 IROHF=0.
 Hyperfine terms turned off by default for NAtoms > 100.

 **********************************************************************

            Population analysis using the SCF density.

 **********************************************************************

 Orbital symmetries:
 Alpha Orbitals:
       Occupied  (A) (A) (A) (A) (A) (A) (A) (A) (A) (A) (A) (A)
                 (A) (A) (A) (A) (A) (A) (A) (A) (A) (A) (A) (A)
                 (A) (A) (A) (A) (A) (A) (A) (A) (A) (A) (A) (A)
                 (A) (A) (A) (A) (A) (A) (A) (A) (A) (A) (A) (A)
                 (A) (A) (A) (A) (A) (A) (A) (A) (A) (A) (A) (A)
                 (A) (A) (A) (A) (A) (A) (A) (A) (A) (A) (A) (A)
                 (A) (A) (A) (A) (A) (A) (A) (A) (A) (A) (A) (A)
                 (A) (A) (A) (A) (A) (A) (A) (A) (A) (A) (A) (A)
                 (A) (A) (A) (A) (A) (A) (A) (A) (A) (A) (A) (A)
                 (A) (A) (A) (A) (A) (A) (A) (A) (A) (A) (A) (A)
                 (A) (A) (A) (A) (A) (A) (A) (A) (A) (A) (A) (A)
                 (A) (A) (A) (A) (A) (A) (A) (A) (A) (A) (A) (A)
                 (A) (A) (A) (A) (A) (A) (A) (A) (A) (A) (A) (A)
                 (A) (A) (A) (A) (A) (A) (A) (A) (A) (A) (A) (A)
                 (A) (A) (A) (A) (A) (A) (A) (A) (A) (A) (A) (A)
                 (A) (A) (A) (A) (A) (A) (A) (A) (A) (A) (A) (A)
                 (A) (A) (A) (A) (A) (A) (A) (A) (A) (A) (A) (A)
                 (A) (A) (A) (A) (A) (A) (A) (A) (A) (A) (A) (A)
                 (A) (A) (A) (A) (A) (A) (A) (A) (A) (A) (A) (A)
                 (A) (A) (A) (A) (A) (A) (A) (A) (A) (A) (A) (A)
                 (A) (A) (A) (A) (A) (A) (A) (A) (A) (A) (A) (A)
                 (A) (A) (A) (A) (A) (A) (A) (A) (A) (A) (A) (A)
                 (A) (A) (A) (A) (A)
       Virtual   (A) (A) (A) (A) (A) (A) (A) (A) (A) (A) (A) (A)
                 (A) (A) (A) (A) (A) (A) (A) (A) (A) (A) (A) (A)
                 (A) (A) (A) (A) (A) (A) (A) (A) (A) (A) (A) (A)
                 (A) (A) (A) (A) (A) (A) (A) (A) (A) (A) (A) (A)
                 (A) (A) (A) (A) (A) (A) (A) (A) (A) (A) (A) (A)
                 (A) (A) (A) (A) (A) (A) (A) (A) (A) (A) (A) (A)
                 (A) (A) (A) (A) (A) (A) (A) (A) (A) (A) (A) (A)
                 (A) (A) (A) (A) (A) (A) (A) (A) (A) (A) (A) (A)
                 (A) (A) (A) (A) (A) (A) (A) (A) (A) (A) (A) (A)
                 (A) (A) (A) (A) (A) (A) (A) (A) (A) (A) (A) (A)
                 (A) (A) (A) (A) (A) (A) (A) (A) (A) (A) (A) (A)
                 (A) (A) (A) (A) (A) (A) (A) (A) (A) (A) (A) (A)
                 (A) (A) (A) (A) (A) (A) (A) (A) (A) (A) (A) (A)
                 (A) (A) (A) (A) (A) (A) (A) (A) (A) (A) (A) (A)
                 (A) (A) (A) (A) (A) (A) (A) (A) (A) (A) (A) (A)
                 (A) (A) (A) (A) (A) (A) (A) (A) (A) (A) (A) (A)
                 (A) (A) (A) (A) (A) (A) (A) (A) (A) (A) (A) (A)
                 (A) (A) (A) (A) (A) (A) (A) (A) (A) (A) (A) (A)
                 (A) (A) (A) (A) (A) (A) (A) (A) (A) (A) (A) (A)
                 (A) (A) (A) (A) (A) (A) (A) (A) (A) (A) (A) (A)
                 (A) (A) (A) (A) (A) (A) (A) (A) (A) (A) (A) (A)
                 (A) (A) (A) (A) (A) (A) (A) (A) (A) (A) (A) (A)
                 (A) (A) (A) (A) (A) (A) (A) (A) (A) (A) (A) (A)
                 (A) (A) (A) (A) (A) (A) (A) (A) (A) (A) (A) (A)
                 (A) (A) (A) (A) (A) (A) (A) (A) (A) (A) (A) (A)
                 (A) (A) (A) (A) (A) (A) (A) (A) (A) (A) (A) (A)
                 (A) (A) (A) (A) (A) (A) (A) (A) (A) (A) (A) (A)
                 (A) (A) (A) (A) (A) (A) (A) (A) (A) (A) (A) (A)
                 (A) (A) (A) (A) (A) (A) (A) (A) (A) (A) (A) (A)
                 (A) (A) (A) (A) (A) (A) (A) (A) (A) (A) (A) (A)
                 (A) (A) (A) (A) (A) (A) (A) (A) (A) (A) (A) (A)
                 (A) (A) (A) (A) (A) (A) (A) (A) (A) (A) (A) (A)
                 (A) (A) (A) (A) (A) (A) (A) (A) (A) (A) (A) (A)
                 (A) (A) (A) (A) (A) (A) (A) (A) (A) (A) (A) (A)
                 (A) (A) (A) (A) (A) (A) (A) (A) (A) (A) (A) (A)
                 (A) (A) (A) (A) (A) (A) (A) (A) (A) (A) (A) (A)
                 (A) (A) (A) (A) (A) (A) (A) (A) (A) (A) (A) (A)
                 (A) (A) (A) (A) (A) (A) (A) (A) (A) (A) (A) (A)
                 (A) (A) (A) (A) (A) (A) (A) (A) (A) (A) (A) (A)
                 (A) (A) (A) (A) (A) (A) (A) (A) (A) (A) (A) (A)
                 (A) (A) (A) (A) (A) (A) (A) (A) (A) (A) (A) (A)
                 (A) (A) (A) (A) (A) (A) (A) (A) (A) (A) (A) (A)
                 (A) (A) (A) (A) (A) (A) (A) (A) (A) (A) (A) (A)
                 (A) (A) (A) (A) (A) (A) (A) (A) (A) (A) (A) (A)
                 (A) (A) (A) (A) (A) (A) (A) (A) (A) (A) (A) (A)
                 (A) (A) (A) (A) (A) (A) (A) (A) (A) (A) (A) (A)
                 (A) (A) (A) (A) (A) (A) (A) (A) (A) (A) (A) (A)
                 (A) (A) (A) (A) (A) (A) (A) (A) (A) (A) (A) (A)
                 (A) (A) (A) (A) (A) (A) (A) (A) (A) (A) (A) (A)
                 (A) (A) (A) (A) (A) (A) (A) (A) (A) (A) (A) (A)
                 (A) (A) (A) (A) (A) (A) (A) (A) (A) (A) (A) (A)
                 (A) (A) (A) (A) (A) (A) (A) (A) (A) (A) (A) (A)
                 (A) (A) (A) (A) (A) (A) (A) (A) (A) (A) (A) (A)
                 (A) (A) (A) (A) (A) (A) (A) (A) (A) (A) (A) (A)
                 (A) (A) (A) (A) (A) (A) (A) (A) (A) (A) (A) (A)
                 (A) (A) (A) (A) (A) (A) (A) (A) (A) (A) (A) (A)
                 (A) (A) (A) (A) (A) (A) (A) (A) (A) (A) (A) (A)
                 (A) (A) (A) (A) (A) (A) (A) (A) (A) (A) (A) (A)
                 (A) (A) (A) (A) (A) (A) (A) (A) (A) (A) (A) (A)
                 (A) (A) (A) (A) (A) (A) (A) (A) (A) (A) (A) (A)
                 (A) (A) (A) (A) (A) (A) (A) (A) (A) (A) (A) (A)
                 (A) (A) (A) (A) (A) (A) (A) (A) (A) (A) (A) (A)
                 (A) (A) (A) (A) (A) (A) (A) (A) (A) (A) (A) (A)
                 (A) (A) (A) (A) (A) (A) (A) (A) (A) (A) (A) (A)
                 (A) (A) (A) (A) (A) (A) (A) (A) (A) (A) (A) (A)
                 (A) (A) (A) (A) (A) (A) (A) (A) (A) (A) (A) (A)
                 (A) (A) (A) (A) (A) (A) (A) (A) (A) (A) (A) (A)
                 (A) (A) (A) (A) (A) (A) (A) (A) (A) (A) (A) (A)
                 (A) (A) (A) (A) (A) (A) (A) (A) (A) (A) (A) (A)
                 (A) (A) (A) (A) (A) (A) (A) (A) (A) (A) (A) (A)
                 (A) (A) (A) (A) (A) (A) (A) (A) (A) (A) (A) (A)
                 (A) (A) (A) (A) (A) (A) (A) (A) (A) (A) (A) (A)
                 (A) (A) (A) (A) (A) (A) (A) (A) (A) (A) (A) (A)
                 (A) (A) (A) (A) (A) (A) (A) (A) (A) (A) (A) (A)
                 (A) (A) (A) (A) (A) (A) (A) (A) (A) (A) (A) (A)
                 (A) (A) (A) (A) (A) (A) (A) (A) (A) (A) (A) (A)
                 (A) (A) (A) (A) (A) (A) (A) (A) (A) (A) (A) (A)
                 (A) (A) (A) (A) (A) (A) (A) (A) (A) (A) (A) (A)
                 (A) (A) (A) (A) (A) (A) (A) (A) (A) (A) (A) (A)
                 (A) (A) (A) (A) (A) (A) (A) (A) (A) (A) (A) (A)
                 (A) (A) (A) (A) (A) (A) (A) (A) (A) (A) (A) (A)
                 (A) (A) (A) (A) (A) (A) (A) (A) (A) (A) (A) (A)
                 (A) (A) (A) (A) (A) (A) (A) (A) (A) (A) (A) (A)
                 (A) (A) (A) (A) (A) (A) (A) (A) (A) (A) (A) (A)
                 (A) (A) (A) (A) (A) (A) (A) (A) (A) (A) (A) (A)
                 (A) (A) (A) (A) (A) (A) (A) (A) (A) (A) (A) (A)
                 (A) (A) (A) (A) (A) (A) (A) (A) (A) (A) (A) (A)
                 (A) (A) (A) (A) (A) (A) (A) (A) (A) (A) (A) (A)
                 (A) (A) (A) (A) (A) (A) (A) (A) (A) (A) (A) (A)
                 (A) (A) (A) (A) (A) (A) (A) (A) (A) (A) (A) (A)
                 (A) (A) (A) (A) (A) (A) (A) (A) (A) (A) (A) (A)
                 (A) (A) (A) (A) (A) (A) (A) (A) (A) (A) (A) (A)
                 (A) (A) (A) (A) (A) (A) (A) (A) (A) (A) (A) (A)
                 (A) (A) (A) (A) (A) (A) (A) (A) (A) (A) (A) (A)
                 (A) (A) (A) (A) (A) (A) (A) (A) (A) (A) (A) (A)
                 (A) (A) (A) (A) (A) (A) (A) (A) (A) (A) (A) (A)
                 (A) (A) (A) (A) (A) (A) (A) (A) (A) (A) (A) (A)
                 (A) (A) (A) (A) (A) (A) (A) (A) (A) (A) (A) (A)
                 (A) (A) (A) (A) (A) (A) (A) (A) (A) (A) (A) (A)
                 (A) (A) (A) (A) (A) (A) (A) (A) (A) (A) (A) (A)
                 (A) (A) (A) (A) (A) (A) (A) (A) (A) (A) (A) (A)
                 (A) (A) (A) (A) (A) (A) (A) (A) (A) (A) (A) (A)
                 (A) (A) (A) (A) (A) (A) (A) (A) (A) (A) (A) (A)
                 (A) (A) (A) (A) (A) (A) (A) (A) (A) (A) (A) (A)
                 (A) (A) (A) (A) (A) (A) (A) (A) (A) (A) (A) (A)
                 (A) (A) (A) (A) (A) (A) (A) (A) (A) (A) (A) (A)
                 (A) (A) (A) (A) (A) (A) (A) (A) (A) (A) (A) (A)
                 (A) (A) (A) (A) (A) (A) (A) (A) (A) (A) (A) (A)
                 (A) (A) (A) (A) (A) (A) (A) (A) (A) (A) (A) (A)
                 (A) (A) (A) (A) (A) (A) (A) (A) (A) (A) (A) (A)
                 (A) (A) (A) (A) (A) (A) (A) (A) (A) (A) (A) (A)
                 (A) (A) (A) (A) (A) (A) (A) (A) (A) (A) (A) (A)
                 (A) (A) (A) (A) (A) (A) (A) (A) (A) (A) (A) (A)
                 (A) (A) (A) (A) (A) (A) (A) (A) (A) (A) (A) (A)
                 (A) (A) (A) (A) (A) (A) (A) (A) (A) (A) (A) (A)
                 (A) (A) (A) (A) (A) (A) (A) (A) (A) (A) (A) (A)
                 (A) (A) (A) (A) (A) (A) (A) (A) (A) (A) (A) (A)
                 (A) (A) (A) (A) (A) (A) (A) (A) (A) (A) (A) (A)
                 (A) (A) (A) (A) (A) (A) (A) (A) (A) (A) (A) (A)
                 (A) (A) (A) (A) (A) (A) (A) (A) (A) (A) (A) (A)
                 (A) (A) (A) (A) (A) (A) (A) (A) (A) (A) (A) (A)
                 (A) (A) (A) (A) (A) (A) (A) (A) (A) (A) (A) (A)
                 (A) (A) (A) (A) (A) (A) (A) (A) (A) (A) (A) (A)
                 (A) (A) (A) (A) (A) (A) (A) (A) (A) (A) (A) (A)
                 (A) (A) (A) (A) (A) (A) (A) (A) (A) (A) (A) (A)
                 (A) (A) (A) (A) (A) (A) (A) (A) (A) (A) (A) (A)
                 (A) (A) (A) (A) (A) (A) (A) (A) (A) (A) (A) (A)
                 (A) (A) (A) (A) (A) (A) (A) (A) (A) (A) (A) (A)
                 (A) (A) (A) (A) (A) (A) (A) (A) (A) (A) (A) (A)
                 (A) (A) (A) (A) (A) (A) (A) (A) (A) (A) (A) (A)
                 (A) (A) (A) (A) (A) (A) (A) (A) (A) (A) (A) (A)
                 (A) (A) (A) (A) (A) (A) (A) (A) (A) (A) (A) (A)
                 (A) (A) (A) (A) (A) (A) (A) (A) (A) (A) (A) (A)
                 (A) (A) (A) (A) (A) (A) (A) (A) (A) (A) (A) (A)
                 (A) (A) (A) (A) (A) (A) (A) (A) (A) (A) (A) (A)
                 (A) (A) (A) (A) (A) (A) (A) (A) (A) (A) (A) (A)
                 (A) (A) (A) (A) (A) (A) (A) (A) (A) (A) (A) (A)
                 (A) (A) (A) (A) (A) (A) (A) (A) (A) (A) (A) (A)
                 (A) (A) (A) (A) (A) (A) (A) (A) (A) (A) (A) (A)
                 (A) (A) (A) (A) (A) (A) (A) (A) (A) (A) (A) (A)
                 (A) (A) (A) (A) (A) (A) (A) (A) (A) (A) (A) (A)
                 (A) (A) (A) (A) (A) (A) (A) (A) (A) (A) (A) (A)
                 (A) (A) (A) (A) (A) (A) (A) (A) (A) (A) (A) (A)
                 (A) (A) (A) (A) (A) (A) (A) (A) (A) (A) (A) (A)
                 (A) (A) (A) (A) (A) (A) (A) (A) (A) (A) (A) (A)
                 (A) (A) (A) (A) (A) (A) (A) (A) (A) (A) (A) (A)
                 (A) (A) (A) (A) (A) (A) (A) (A) (A) (A) (A) (A)
                 (A) (A) (A) (A) (A) (A) (A) (A) (A) (A) (A) (A)
                 (A) (A) (A) (A) (A) (A) (A) (A) (A) (A) (A) (A)
                 (A) (A) (A) (A) (A) (A) (A) (A) (A) (A) (A) (A)
                 (A) (A) (A) (A) (A) (A) (A) (A) (A) (A) (A) (A)
                 (A) (A) (A) (A) (A) (A) (A) (A) (A) (A) (A) (A)
                 (A) (A) (A) (A) (A) (A) (A) (A) (A) (A) (A) (A)
                 (A) (A) (A) (A) (A) (A) (A) (A) (A) (A) (A) (A)
                 (A) (A) (A) (A) (A) (A) (A) (A) (A) (A) (A) (A)
                 (A) (A) (A) (A) (A) (A) (A) (A) (A) (A) (A) (A)
                 (A) (A) (A) (A) (A) (A) (A) (A) (A) (A) (A) (A)
                 (A) (A) (A) (A) (A) (A) (A) (A) (A) (A) (A) (A)
                 (A) (A) (A) (A) (A) (A) (A) (A) (A) (A) (A) (A)
                 (A) (A) (A) (A) (A) (A) (A) (A) (A) (A) (A) (A)
                 (A) (A) (A) (A) (A) (A) (A) (A) (A) (A) (A) (A)
                 (A) (A) (A) (A) (A) (A) (A) (A) (A) (A) (A) (A)
                 (A) (A) (A) (A) (A) (A) (A) (A) (A) (A) (A) (A)
                 (A) (A) (A) (A) (A) (A) (A) (A) (A) (A) (A) (A)
                 (A) (A) (A) (A) (A) (A) (A) (A) (A) (A) (A) (A)
                 (A) (A) (A) (A) (A) (A) (A) (A) (A) (A) (A) (A)
                 (A) (A) (A) (A) (A) (A) (A) (A) (A) (A) (A) (A)
                 (A) (A) (A) (A) (A) (A) (A) (A) (A) (A) (A) (A)
                 (A) (A) (A) (A) (A) (A) (A) (A) (A) (A) (A) (A)
                 (A) (A) (A) (A) (A) (A) (A) (A) (A) (A) (A) (A)
                 (A) (A) (A) (A) (A) (A) (A) (A) (A) (A) (A) (A)
                 (A) (A) (A) (A) (A) (A) (A) (A) (A) (A) (A) (A)
                 (A) (A) (A) (A) (A) (A) (A) (A) (A) (A) (A) (A)
                 (A) (A) (A) (A) (A) (A) (A) (A) (A) (A) (A) (A)
                 (A) (A) (A) (A) (A) (A) (A) (A) (A) (A) (A) (A)
                 (A) (A) (A) (A) (A) (A) (A) (A) (A) (A) (A) (A)
                 (A) (A) (A) (A) (A) (A) (A) (A) (A) (A) (A) (A)
                 (A) (A) (A) (A) (A) (A) (A) (A) (A) (A) (A) (A)
                 (A) (A) (A) (A) (A) (A) (A) (A) (A) (A) (A) (A)
                 (A) (A) (A) (A) (A) (A) (A) (A) (A) (A) (A) (A)
                 (A) (A) (A) (A) (A) (A) (A) (A) (A) (A) (A) (A)
                 (A) (A) (A) (A) (A) (A) (A) (A) (A) (A) (A) (A)
                 (A) (A) (A) (A) (A) (A) (A) (A) (A) (A) (A) (A)
                 (A) (A) (A) (A) (A) (A) (A) (A) (A) (A) (A) (A)
                 (A) (A) (A) (A) (A) (A) (A) (A) (A) (A) (A) (A)
                 (A) (A) (A) (A) (A) (A) (A) (A) (A) (A) (A) (A)
                 (A) (A) (A) (A) (A) (A) (A) (A) (A) (A) (A) (A)
                 (A) (A) (A) (A) (A) (A) (A) (A) (A) (A) (A) (A)
                 (A) (A) (A) (A) (A) (A) (A) (A) (A) (A) (A) (A)
                 (A) (A) (A) (A) (A) (A) (A) (A) (A) (A) (A) (A)
                 (A) (A) (A) (A) (A) (A) (A) (A) (A) (A) (A) (A)
                 (A) (A) (A) (A) (A) (A) (A) (A) (A) (A) (A) (A)
                 (A) (A) (A) (A) (A) (A) (A) (A) (A) (A) (A) (A)
                 (A) (A) (A) (A) (A) (A) (A) (A) (A) (A) (A) (A)
                 (A) (A) (A) (A) (A) (A) (A) (A) (A) (A) (A) (A)
                 (A) (A) (A) (A) (A) (A) (A) (A) (A) (A) (A) (A)
                 (A) (A) (A) (A) (A) (A) (A) (A) (A) (A) (A) (A)
                 (A) (A) (A) (A) (A) (A) (A) (A) (A) (A) (A) (A)
                 (A) (A) (A) (A) (A) (A) (A) (A) (A) (A) (A) (A)
                 (A) (A) (A) (A) (A) (A) (A) (A) (A) (A) (A) (A)
                 (A) (A) (A) (A) (A) (A) (A) (A) (A) (A) (A) (A)
                 (A) (A) (A) (A) (A) (A) (A) (A) (A) (A) (A) (A)
[...]
  Beta virt. eigenvalues --    5.14235   5.14951   5.15250   5.15539   5.15992
  Beta virt. eigenvalues --    5.16318   5.16607   5.16872   5.17226   5.17481
  Beta virt. eigenvalues --    5.17821   5.17923   5.18051   5.18342   5.18781
  Beta virt. eigenvalues --    5.19017   5.19927   5.20606   5.20883   5.21247
  Beta virt. eigenvalues --    5.21814   5.21958   5.22300   5.22787   5.23286
  Beta virt. eigenvalues --    5.23632   5.23952   5.24212   5.24459   5.24924
  Beta virt. eigenvalues --    5.25415   5.25630   5.25730   5.25892   5.26236
  Beta virt. eigenvalues --    5.26395   5.26687   5.26792   5.27087   5.27834
  Beta virt. eigenvalues --    5.27877   5.28306   5.28909   5.29014   5.29042
  Beta virt. eigenvalues --    5.29478   5.29778   5.30029   5.30148   5.30264
  Beta virt. eigenvalues --    5.30852   5.31066   5.31310   5.31498   5.32051
  Beta virt. eigenvalues --    5.32145   5.32623   5.32780   5.32790   5.33074
  Beta virt. eigenvalues --    5.33969   5.34164   5.34173   5.34625   5.35107
  Beta virt. eigenvalues --    5.35373   5.35803   5.36264   5.36402   5.36915
  Beta virt. eigenvalues --    5.37087   5.37235   5.37728   5.38142   5.38224
  Beta virt. eigenvalues --    5.38506   5.38702   5.38767   5.38909   5.39109
  Beta virt. eigenvalues --    5.39267   5.40086   5.40396   5.40440   5.40745
  Beta virt. eigenvalues --    5.41502   5.41713   5.42155   5.42213   5.42299
  Beta virt. eigenvalues --    5.43322   5.43967   5.44250   5.44666   5.44942
  Beta virt. eigenvalues --    5.45203   5.45379   5.45964   5.46272   5.46468
  Beta virt. eigenvalues --    5.46708   5.47117   5.47592   5.47889   5.48319
  Beta virt. eigenvalues --    5.48954   5.50305   5.50391   5.51068   5.51482
  Beta virt. eigenvalues --    5.51546   5.51925   5.52542   5.53112   5.53620
  Beta virt. eigenvalues --    5.54086   5.54500   5.55299   5.56822   5.57123
  Beta virt. eigenvalues --    5.57221   5.57469   5.57997   5.58509   5.58622
  Beta virt. eigenvalues --    5.58733   5.59347   5.59482   5.59565   5.59960
  Beta virt. eigenvalues --    5.59998   5.60278   5.60417   5.60928   5.61028
  Beta virt. eigenvalues --    5.61197   5.61680   5.61807   5.62279   5.62832
  Beta virt. eigenvalues --    5.62963   5.63100   5.63883   5.64294   5.64420
  Beta virt. eigenvalues --    5.64531   5.64602   5.64871   5.64977   5.65655
  Beta virt. eigenvalues --    5.65817   5.65951   5.66112   5.66683   5.66880
  Beta virt. eigenvalues --    5.67662   5.68052   5.68389   5.69030   5.69476
  Beta virt. eigenvalues --    5.70015   5.71224   5.72007   5.73367   5.74931
  Beta virt. eigenvalues --    5.76310   5.77632   5.78888   5.82002   5.83062
  Beta virt. eigenvalues --    5.83510   5.84702   5.84976   5.85630   5.85913
  Beta virt. eigenvalues --    5.86489   5.89389   5.89626   5.90184   5.91343
  Beta virt. eigenvalues --    5.91707   5.92152   5.92280   5.93106   5.93995
  Beta virt. eigenvalues --    5.94033   5.94760   5.97059   5.97938   5.98122
  Beta virt. eigenvalues --    5.98688   5.99884   6.00751   6.01330   6.03255
  Beta virt. eigenvalues --    6.03639   6.04371   6.05136   6.05896   6.06725
  Beta virt. eigenvalues --    6.07111   6.07766   6.08773   6.10506   6.10729
  Beta virt. eigenvalues --    6.11791   6.14921   6.16518   6.20572   6.21908
  Beta virt. eigenvalues --    6.22113   6.22440   6.22626   6.25356   6.26350
  Beta virt. eigenvalues --    6.26519   6.26821   6.27080   6.27655   6.28030
  Beta virt. eigenvalues --    6.29174   6.30105   6.30376   6.30738   6.33026
  Beta virt. eigenvalues --    6.33143   6.33498   6.35594   6.35809   6.36250
  Beta virt. eigenvalues --    6.37284   6.39492   6.39812   6.40288   6.42318
  Beta virt. eigenvalues --    6.43932   6.44817   6.45750   6.48483   6.51947
  Beta virt. eigenvalues --    6.52202   6.55984   6.68272   6.70413   6.71114
  Beta virt. eigenvalues --    6.71625   6.72017   6.72699   6.74946   6.75222
  Beta virt. eigenvalues --    6.75453   6.75837   6.75991   6.76604   6.76713
  Beta virt. eigenvalues --    6.80628   6.81803   6.82857   6.82955   6.83029
  Beta virt. eigenvalues --    6.83096   6.83924   6.84575   6.84627   6.85563
  Beta virt. eigenvalues --    6.85649   6.86596   6.87612   6.88734   6.90790
  Beta virt. eigenvalues --    6.95463   6.96260   6.97140   6.97740   6.98328
  Beta virt. eigenvalues --    6.98629   6.98909   7.00381   7.00506   7.01116
  Beta virt. eigenvalues --    7.01674   7.02549   7.05460   7.06766   7.07101
  Beta virt. eigenvalues --    7.08249   7.09392   7.11035   7.11454   7.15177
  Beta virt. eigenvalues --    7.17635   7.20671   7.23698   7.24277   7.24928
  Beta virt. eigenvalues --    7.26959   7.27495   7.28404   7.28746   7.29270
  Beta virt. eigenvalues --    7.30156   7.30406   7.30527   7.30751   7.31533
  Beta virt. eigenvalues --    7.33760   7.34259   7.34502   7.34637   7.35420
  Beta virt. eigenvalues --    7.36272   7.36839   7.38910   7.39326   7.41872
  Beta virt. eigenvalues --    7.46426   7.47330   7.47810   7.50806   7.51026
  Beta virt. eigenvalues --    8.16371   8.18344   8.22032   8.23595   8.23948
  Beta virt. eigenvalues --    8.24591   8.35023   8.35086   8.42823   8.43695
  Beta virt. eigenvalues --    8.46869   8.49411   8.56910   8.61412   8.84984
  Beta virt. eigenvalues --    8.86566   8.92977   8.94146   8.96006   9.00360
  Beta virt. eigenvalues --   10.82996  10.83729  10.94229  10.97220  11.45282
  Beta virt. eigenvalues --   11.46030  15.85020  22.72109  22.74721  22.82390
  Beta virt. eigenvalues --   22.86817  22.88065  23.00705  23.09043  23.10940
  Beta virt. eigenvalues --   23.11449  23.12494  23.14890  23.17107  23.17230
  Beta virt. eigenvalues --   23.17439  23.26816  23.27179  23.27943  23.30208
  Beta virt. eigenvalues --   23.30577  23.31207  23.32040  23.33031  23.34020
  Beta virt. eigenvalues --   23.34637  23.36289  23.36540  23.36986  23.39398
  Beta virt. eigenvalues --   23.39922  23.40723  23.40945  23.43228  23.43712
  Beta virt. eigenvalues --   23.44058  23.45491  23.47899  23.48973  23.51673
  Beta virt. eigenvalues --   23.54540  23.56369  23.58247  23.58389  23.65364
  Beta virt. eigenvalues --   23.69950  23.73601  23.81460  23.99482  24.08896
  Beta virt. eigenvalues --   24.09462  26.19842  26.22955  32.59192  32.63333
  Beta virt. eigenvalues --   33.07905  33.24661  44.18294  44.21277  44.25912
  Beta virt. eigenvalues --   44.29044  44.29345  44.31957  44.33771  44.38151
  Beta virt. eigenvalues --   44.40510  44.45680  44.49196  44.61514  44.62100
  Beta virt. eigenvalues --   57.42975  57.55486
          Condensed to atoms (all electrons):
          Atomic-Atomic Spin Densities.
 Mulliken charges and spin densities:
               1          2
     1  B    0.346701  -0.001707
     2  N   -0.108710   0.013939
     3  C    0.077208   0.118698
     4  C   -0.061232  -0.032674
     5  C   -0.004048   0.105279
     6  C    0.146412  -0.026761
     7  C   -0.198886   0.367258
     8  C    0.186231  -0.001627
     9  O   -0.425245   0.173717
    10  C   -0.395462   0.012292
    11  C    0.072564   0.000309
    12  C   -0.072018  -0.000543
    13  N    0.499142   0.004254
    14  O   -0.325802  -0.009734
    15  O   -0.355226   0.009845
    16  C    0.023019   0.001326
    17  C   -0.061591  -0.000384
    18  C   -0.081342   0.000253
    19  C   -0.077740   0.000138
    20  N    0.499433   0.000030
    21  O   -0.362171  -0.000117
    22  O   -0.360679   0.000115
    23  C    0.138573  -0.072138
    24  N   -0.088076   0.014902
    25  C    0.024004   0.136156
    26  C   -0.027723  -0.037688
    27  C   -0.014168   0.123275
    28  C   -0.451509  -0.009543
    29  Cl  -0.090637  -0.000273
    30  C   -0.164933  -0.059104
    31  C   -0.100481   0.095898
    32  C   -0.005675  -0.022637
    33  C   -0.127737   0.022378
    34  C   -0.198891  -0.013889
    35  C    0.217071   0.025347
    36  O   -0.308592   0.003819
    37  C   -0.116150  -0.000151
    38  C   -0.105451   0.000042
    39  O   -0.338329   0.000033
    40  C   -0.041217  -0.000001
    41  C   -0.109567   0.000004
    42  O   -0.341488   0.000000
    43  C   -0.084162   0.000000
    44  C   -0.080170  -0.000000
    45  O   -0.351199   0.000000
    46  C   -0.201766   0.000000
    47  C   -0.162977  -0.013334
    48  C   -0.194616   0.027268
    49  C   -0.412014  -0.000196
    50  Cl  -0.100138   0.000293
    51  C   -0.142041  -0.058827
    52  C   -0.121253   0.083054
    53  C    0.017237  -0.020684
    54  C   -0.130216   0.019207
    55  C   -0.197385  -0.012104
    56  C    0.222157   0.021876
    57  O   -0.300388   0.003231
    58  C   -0.143480  -0.000010
    59  C   -0.101906  -0.000050
    60  O   -0.351712   0.000045
    61  C   -0.076919  -0.000002
    62  C   -0.095644   0.000005
    63  O   -0.339370   0.000000
    64  C   -0.047834  -0.000000
    65  C   -0.099478   0.000000
    66  O   -0.347953   0.000000
    67  C   -0.199146   0.000000
    68  C   -0.172862  -0.011521
    69  C   -0.201517   0.023466
    70  F   -0.357558   0.000347
    71  F   -0.344528   0.000567
    72  H    0.227346  -0.003314
    73  H    0.173857  -0.003487
    74  H    0.211960  -0.000054
    75  H    0.200062  -0.000032
    76  H    0.153666  -0.000107
    77  H    0.153550   0.004766
    78  H    0.139629   0.003238
    79  H    0.142690  -0.002359
    80  H    0.141312   0.002539
    81  H    0.115728  -0.005046
    82  H    0.141368  -0.000595
    83  H    0.156145   0.000218
    84  H    0.145389   0.000165
    85  H    0.157742   0.000056
    86  H    0.129790  -0.000001
    87  H    0.149877   0.000083
    88  H    0.122371   0.000002
    89  H    0.118767   0.000001
    90  H    0.130517  -0.000000
    91  H    0.121628  -0.000001
    92  H    0.125488   0.000000
    93  H    0.139194  -0.000000
    94  H    0.126868   0.000000
    95  H    0.123866   0.000000
    96  H    0.119243  -0.000000
    97  H    0.123720  -0.000000
    98  H    0.136670  -0.000000
    99  H    0.150206   0.000109
   100  H    0.144135  -0.001006
   101  H    0.142187   0.003747
   102  H    0.126743  -0.001373
   103  H    0.121540   0.001464
   104  H    0.103027   0.003890
   105  H    0.104381  -0.005043
   106  H    0.141047  -0.000491
   107  H    0.154350   0.000194
   108  H    0.156197   0.000152
   109  H    0.159194   0.000001
   110  H    0.158813   0.000102
   111  H    0.143379  -0.000018
   112  H    0.125134   0.000002
   113  H    0.135116   0.000000
   114  H    0.130022   0.000001
   115  H    0.123190  -0.000003
   116  H    0.122570   0.000000
   117  H    0.121464  -0.000000
   118  H    0.117929   0.000000
   119  H    0.126208  -0.000000
   120  H    0.136798   0.000000
   121  H    0.122807  -0.000000
   122  H    0.120755  -0.000000
   123  H    0.145565   0.000071
   124  H    0.148057  -0.000841
 Sum of Mulliken charges =  -1.00000   1.00000
 Mulliken charges and spin densities with hydrogens summed into heavy atoms:
               1          2
     1  B    0.346701  -0.001707
     2  N   -0.108710   0.013939
     3  C    0.077208   0.118698
     4  C   -0.061232  -0.032674
     5  C   -0.004048   0.105279
     6  C    0.146412  -0.026761
     7  C   -0.198886   0.367258
     8  C    0.186231  -0.001627
     9  O   -0.425245   0.173717
    10  C    0.005741   0.005492
    11  C    0.072564   0.000309
    12  C   -0.072018  -0.000543
    13  N    0.499142   0.004254
    14  O   -0.325802  -0.009734
    15  O   -0.355226   0.009845
    16  C    0.234980   0.001272
    17  C   -0.061591  -0.000384
    18  C    0.118720   0.000221
    19  C    0.075927   0.000031
    20  N    0.499433   0.000030
    21  O   -0.362171  -0.000117
    22  O   -0.360679   0.000115
    23  C    0.138573  -0.072138
    24  N   -0.088076   0.014902
    25  C    0.024004   0.136156
    26  C   -0.027723  -0.037688
    27  C   -0.014168   0.123275
    28  C   -0.015641  -0.003898
    29  Cl  -0.090637  -0.000273
    30  C   -0.023620  -0.056565
    31  C    0.015247   0.090852
    32  C   -0.005675  -0.022637
    33  C    0.013631   0.021782
    34  C   -0.042746  -0.013671
    35  C    0.217071   0.025347
    36  O   -0.308592   0.003819
    37  C    0.186982   0.000070
    38  C    0.174216   0.000125
    39  O   -0.338329   0.000033
    40  C    0.199920   0.000002
    41  C    0.142578   0.000003
    42  O   -0.341488   0.000000
    43  C    0.180520   0.000000
    44  C    0.170564  -0.000000
    45  O   -0.351199   0.000000
    46  C    0.177867   0.000000
    47  C   -0.012771  -0.013225
    48  C   -0.050481   0.026262
    49  C   -0.021543   0.003642
    50  Cl  -0.100138   0.000293
    51  C   -0.039015  -0.054937
    52  C   -0.016872   0.078011
    53  C    0.017237  -0.020684
    54  C    0.010830   0.018716
    55  C   -0.043034  -0.011909
    56  C    0.222157   0.021876
    57  O   -0.300388   0.003231
    58  C    0.171912   0.000144
    59  C    0.200286   0.000034
    60  O   -0.351712   0.000045
    61  C    0.183331   0.000001
    62  C    0.157568   0.000002
    63  O   -0.339370   0.000000
    64  C    0.196200  -0.000000
    65  C    0.144658   0.000000
    66  O   -0.347953   0.000000
    67  C    0.181213  -0.000000
    68  C   -0.027297  -0.011450
    69  C   -0.053460   0.022625
    70  F   -0.357558   0.000347
    71  F   -0.344528   0.000567
 Electronic spatial extent (au):  <R**2>=         131067.9722
 Charge=             -1.0000 electrons
 Dipole moment (field-independent basis, Debye):
    X=             17.8268    Y=             10.2543    Z=             -2.5587  Tot=             20.7242
 Quadrupole moment (field-independent basis, Debye-Ang):
   XX=           -444.4162   YY=           -453.8119   ZZ=           -463.9163
   XY=            -20.3162   XZ=             -3.0727   YZ=             72.2643
 Traceless Quadrupole moment (field-independent basis, Debye-Ang):
   XX=              9.6319   YY=              0.2362   ZZ=             -9.8681
   XY=            -20.3162   XZ=             -3.0727   YZ=             72.2643
 Octapole moment (field-independent basis, Debye-Ang**2):
  XXX=            520.3746  YYY=            602.6359  ZZZ=            -32.5383  XYY=            622.3460
  XXY=            622.4629  XXZ=           -614.3263  XZZ=            488.2644  YZZ=            190.4045
  YYZ=           -161.6256  XYZ=            268.1146
 Hexadecapole moment (field-independent basis, Debye-Ang**3):
 XXXX=        -111015.8616 YYYY=         -49120.7247 ZZZZ=         -10703.4370 XXXY=          -3100.6668
 XXXZ=           1503.6142 YYYX=           3628.4203 YYYZ=           2900.3077 ZZZX=           1701.8978
 ZZZY=            900.2907 XXYY=         -28611.8558 XXZZ=         -22502.7086 YYZZ=         -10715.3483
 XXYZ=           7036.6536 YYXZ=          -1115.2291 ZZXY=           -634.4930
 N-N= 1.074285092034D+04 E-N=-3.147723138054D+04  KE= 4.222566294332D+03
 Leave Link  601 at Thu Oct 30 18:47:33 2025, MaxMem= 30870077440 cpu:             252.4 elap:               4.7
 (Enter /public/software/gauss/g16/l9999.exe)
 1\1\GINC-CU141\SP\UM062X\def2TZVPP\C49H53B1Cl2F2N4O13(1-,2)\BAIDING\30
 -Oct-2025\0\\#p M062X/DEF2TZVPP scrf=(solvent=water) em=GD3\\Energy ca
 lculation for BE_Cl_reduced\\-1,2\B,0,-2.788188,0.243702,-1.042571\N,0
 ,-3.182447,-1.136797,-1.635323\C,0,-2.337321,-2.10889,-2.145271\C,0,-3
 .166654,-3.053766,-2.776848\C,0,-4.516397,-2.716888,-2.617202\C,0,-4.4
 97466,-1.511249,-1.877969\C,0,-5.573499,-0.662832,-1.413123\C,0,-6.711
 1,-1.29477,-0.76209\O,0,-6.900307,-2.528241,-0.789452\C,0,-7.664633,-0
 .470804,0.120374\C,0,-8.198595,-1.263332,1.291561\C,0,-7.415805,-1.873
 633,2.296233\N,0,-5.951665,-1.774404,2.305603\O,0,-5.417123,-0.838002,
 1.706756\O,0,-5.31639,-2.63002,2.928535\C,0,-7.968359,-2.601204,3.3453
 13\C,0,-9.3494,-2.713747,3.40756\C,0,-10.175543,-2.135125,2.446628\C,0
 ,-9.587534,-1.429384,1.404564\N,0,-9.944723,-3.462241,4.511957\O,0,-9.
 193684,-3.961634,5.353823\O,0,-11.173838,-3.560353,4.551184\C,0,-5.306
 096,0.749402,-1.358286\N,0,-4.000134,1.197047,-1.243163\C,0,-3.98721,2
 .584341,-1.219925\C,0,-5.327504,2.986987,-1.390764\C,0,-6.163921,1.871
 027,-1.501891\C,0,-7.609188,1.909773,-1.893997\Cl,0,-5.89585,4.629047,
 -1.586805\C,0,-2.772047,3.341188,-1.052513\C,0,-2.674976,4.648895,-0.6
 96516\C,0,-1.439234,5.414766,-0.560326\C,0,-1.507347,6.731402,-0.05478
 1\C,0,-0.37182,7.513405,0.100091\C,0,0.886591,7.004216,-0.251974\O,0,1
 .941117,7.86717,-0.076314\C,0,3.270117,7.46495,-0.44381\C,0,3.940399,6
 .671739,0.681737\O,0,5.265903,6.29124,0.325602\C,0,6.249161,7.304009,0
 .55529\C,0,7.616077,6.730891,0.22776\O,0,7.97182,5.626257,1.0632\C,0,8
 .556933,5.988757,2.318156\C,0,10.0583,6.231151,2.212765\O,0,10.789584,
 5.1153,1.70681\C,0,10.945178,4.055986,2.645118\C,0,0.984965,5.699921,-
 0.758653\C,0,-0.163649,4.927675,-0.908979\C,0,-5.67198,-3.434984,-3.24
 3392\Cl,0,-2.592164,-4.47769,-3.616683\C,0,-0.911663,-2.236169,-1.9869
 39\C,0,-0.110122,-1.649661,-1.061995\C,0,1.331131,-1.843086,-0.928891\
 C,0,1.998245,-1.264725,0.173065\C,0,3.363076,-1.424122,0.366065\C,0,4.
 121881,-2.17144,-0.546808\O,0,5.46526,-2.24802,-0.27455\C,0,6.321824,-
 3.057462,-1.098173\C,0,6.239001,-4.537184,-0.749904\O,0,6.584098,-4.79
 0779,0.614674\C,0,7.985752,-4.944631,0.858681\C,0,8.389264,-6.415015,0
 .716537\O,0,9.754995,-6.637908,1.061537\C,0,10.682845,-6.321571,0.0220
 35\C,0,12.068785,-6.759519,0.463947\O,0,12.18992,-8.161217,0.69792\C,0
 ,12.267133,-8.935836,-0.494161\C,0,3.486732,-2.752352,-1.654661\C,0,2.
 116536,-2.582442,-1.835304\F,0,-1.680385,0.742085,-1.744997\F,0,-2.467
 063,0.139616,0.325048\H,0,-7.1825,0.440243,0.476529\H,0,-8.524048,-0.1
 72539,-0.484612\H,0,-7.336019,-3.056885,4.093811\H,0,-11.250809,-2.240
 614,2.512361\H,0,-10.223679,-0.989037,0.644966\H,0,-8.271664,2.1351,-1
 .05045\H,0,-7.772402,2.689907,-2.644356\H,0,-7.927098,0.960179,-2.3291
 33\H,0,-1.86447,2.774691,-1.221323\H,0,-3.576862,5.208498,-0.469456\H,
 0,-2.475085,7.142225,0.220429\H,0,-0.438859,8.525037,0.487672\H,0,3.26
 5637,6.891655,-1.375779\H,0,3.804177,8.400748,-0.623378\H,0,3.9362,7.2
 65987,1.605429\H,0,3.389622,5.745695,0.871819\H,0,6.078467,8.182212,-0
 .083103\H,0,6.202089,7.637462,1.602068\H,0,7.612909,6.349501,-0.79861\
 H,0,8.360582,7.535097,0.284915\H,0,8.084671,6.886983,2.737712\H,0,8.34
 5378,5.160447,3.001241\H,0,10.2583,7.053886,1.518595\H,0,10.438376,6.5
 26681,3.203075\H,0,11.39957,4.414163,3.579796\H,0,9.994294,3.563387,2.
 885423\H,0,11.610379,3.319627,2.186952\H,0,1.94269,5.277969,-1.038316\
 H,0,-0.055822,3.926297,-1.313556\H,0,-5.995954,-4.297375,-2.650875\H,0
 ,-6.533891,-2.776322,-3.358716\H,0,-5.389525,-3.806633,-4.233949\H,0,-
 0.473086,-2.957607,-2.672127\H,0,-0.55371,-0.996651,-0.317573\H,0,1.42
 6032,-0.682809,0.890657\H,0,3.862509,-0.974672,1.218573\H,0,6.108457,-
 2.902745,-2.161309\H,0,7.326691,-2.676143,-0.900508\H,0,5.217461,-4.90
 6045,-0.878413\H,0,6.886414,-5.094879,-1.438898\H,0,8.574545,-4.305127
 ,0.190553\H,0,8.170281,-4.614879,1.886203\H,0,7.791215,-7.014427,1.410
 455\H,0,8.186853,-6.77242,-0.303105\H,0,10.384905,-6.821809,-0.910355\
 H,0,10.712846,-5.241032,-0.177478\H,0,12.800217,-6.4272,-0.287451\H,0,
 12.312203,-6.275118,1.415271\H,0,12.446805,-9.970349,-0.1909\H,0,11.33
 9071,-8.900227,-1.079079\H,0,13.096468,-8.60185,-1.133742\H,0,4.043711
 ,-3.332593,-2.379954\H,0,1.656426,-3.03611,-2.707624\\Version=ES64L-G1
 6RevA.03\State=2-A\HF=-4241.0078413\S2=0.774288\S2-1=0.\S2A=0.750491\R
 MSD=3.454e-09\Dipole=7.0135882,4.0343496,-1.0066525\Quadrupole=7.16108
 37,0.175632,-7.3367158,-15.104624,-2.2844554,53.7267428\PG=C01 [X(C49H
 53B1Cl2F2N4O13)]\\@


 SUCCESS IS NEVER CERTAIN,
 FAILURE IS NEVER FINAL.
 Job cpu time:       3 days  7 hours  3 minutes 39.8 seconds.
 Elapsed time:       0 days  1 hours 15 minutes  5.1 seconds.
 File lengths (MBytes):  RWF=   9387 Int=      0 D2E=      0 Chk=    609 Scr=      1
 Normal termination of Gaussian 16 at Thu Oct 30 18:47:35 2025.
