 Entering Gaussian System, Link 0=g16
 Input=BE_Cl_i_sp.gjf
 Output=BE_Cl_i_sp.log
 Initial command:
 /public/software/gauss/g16/l1.exe "/public/home/baiding/1113_modified_sp/tmp_BE_Cl_i_sp_1602077/Gau-269034.inp" -scrdir="/public/home/baiding/1113_modified_sp/tmp_BE_Cl_i_sp_1602077/"
 Entering Link 1 = /public/software/gauss/g16/l1.exe PID=    269035.
  
 Copyright (c) 1988,1990,1992,1993,1995,1998,2003,2009,2016,
            Gaussian, Inc.  All Rights Reserved.
  
 This is part of the Gaussian(R) 16 program.  It is based on
 the Gaussian(R) 09 system (copyright 2009, Gaussian, Inc.),
 the Gaussian(R) 03 system (copyright 2003, Gaussian, Inc.),
 the Gaussian(R) 98 system (copyright 1998, Gaussian, Inc.),
 the Gaussian(R) 94 system (copyright 1995, Gaussian, Inc.),
 the Gaussian 92(TM) system (copyright 1992, Gaussian, Inc.),
 the Gaussian 90(TM) system (copyright 1990, Gaussian, Inc.),
 the Gaussian 88(TM) system (copyright 1988, Gaussian, Inc.),
 the Gaussian 86(TM) system (copyright 1986, Carnegie Mellon
 University), and the Gaussian 82(TM) system (copyright 1983,
 Carnegie Mellon University). Gaussian is a federally registered
 trademark of Gaussian, Inc.
  
 This software contains proprietary and confidential information,
 including trade secrets, belonging to Gaussian, Inc.
  
 This software is provided under written license and may be
 used, copied, transmitted, or stored only in accord with that
 written license.
  
 The following legend is applicable only to US Government
 contracts under FAR:
  
                    RESTRICTED RIGHTS LEGEND
  
 Use, reproduction and disclosure by the US Government is
 subject to restrictions as set forth in subparagraphs (a)
 and (c) of the Commercial Computer Software - Restricted
 Rights clause in FAR 52.227-19.
  
 Gaussian, Inc.
 340 Quinnipiac St., Bldg. 40, Wallingford CT 06492
  
  
 ---------------------------------------------------------------
 Warning -- This program may not be used in any manner that
 competes with the business of Gaussian, Inc. or will provide
 assistance to any competitor of Gaussian, Inc.  The licensee
 of this program is prohibited from giving any competitor of
 Gaussian, Inc. access to this program.  By using this program,
 the user acknowledges that Gaussian, Inc. is engaged in the
 business of creating and licensing software in the field of
 computational chemistry and represents and warrants to the
 licensee that it is not a competitor of Gaussian, Inc. and that
 it will not use this program in any manner prohibited above.
 ---------------------------------------------------------------
  

 Cite this work as:
 Gaussian 16, Revision A.03,
 M. J. Frisch, G. W. Trucks, H. B. Schlegel, G. E. Scuseria, 
 M. A. Robb, J. R. Cheeseman, G. Scalmani, V. Barone, 
 G. A. Petersson, H. Nakatsuji, X. Li, M. Caricato, A. V. Marenich, 
 J. Bloino, B. G. Janesko, R. Gomperts, B. Mennucci, H. P. Hratchian, 
 J. V. Ortiz, A. F. Izmaylov, J. L. Sonnenberg, D. Williams-Young, 
 F. Ding, F. Lipparini, F. Egidi, J. Goings, B. Peng, A. Petrone, 
 T. Henderson, D. Ranasinghe, V. G. Zakrzewski, J. Gao, N. Rega, 
 G. Zheng, W. Liang, M. Hada, M. Ehara, K. Toyota, R. Fukuda, 
 J. Hasegawa, M. Ishida, T. Nakajima, Y. Honda, O. Kitao, H. Nakai, 
 T. Vreven, K. Throssell, J. A. Montgomery, Jr., J. E. Peralta, 
 F. Ogliaro, M. J. Bearpark, J. J. Heyd, E. N. Brothers, K. N. Kudin, 
 V. N. Staroverov, T. A. Keith, R. Kobayashi, J. Normand, 
 K. Raghavachari, A. P. Rendell, J. C. Burant, S. S. Iyengar, 
 J. Tomasi, M. Cossi, J. M. Millam, M. Klene, C. Adamo, R. Cammi, 
 J. W. Ochterski, R. L. Martin, K. Morokuma, O. Farkas, 
 J. B. Foresman, and D. J. Fox, Gaussian, Inc., Wallingford CT, 2016.
 
 ******************************************
 Gaussian 16:  ES64L-G16RevA.03 25-Dec-2016
                14-Nov-2025 
 ******************************************
 %nprocshared=64
 Will use up to   64 processors via shared memory.
 %mem=230GB
 %chk=BE_Cl_i_sp.chk
 ----------------------------------------------
 #p M062X/DEF2TZVPP scrf=(solvent=water) em=GD3
 ----------------------------------------------
 1/38=1,172=1/1;
 2/12=2,17=6,18=5,40=1/2;
 3/5=44,7=202,11=2,25=1,30=1,70=2201,72=1,74=-55,124=31/1,2,3;
 4//1;
 5/5=2,38=5,53=1/2;
 6/7=2,8=2,9=2,10=2,28=1/1;
 99/5=1,9=1/99;
 Leave Link    1 at Fri Nov 14 00:18:30 2025, MaxMem= 30870077440 cpu:              13.1 elap:               0.2
 (Enter /public/software/gauss/g16/l101.exe)
 ------------------------------
 Energy calculation for BE_Cl_i
 ------------------------------
 Symbolic Z-matrix:
 Charge =  0 Multiplicity = 1
 B                    -2.5536    0.68908   0.52314 
 N                    -3.709    -0.35031   0.45079 
 C                    -3.56189  -1.66722   0.11254 
 C                    -4.87809  -2.20147  -0.02544 
 C                    -5.8223   -1.21812   0.2235 
 C                    -5.06234  -0.0425    0.52363 
 C                    -5.46755   1.25706   0.85251 
 C                    -6.93702   1.54628   1.02346 
 O                    -7.57282   1.2252    2.0097 
 C                    -8.82935   2.64016   0.03777 
 C                    -9.76466   1.55577  -0.43292 
 C                    -9.84622   1.24918  -1.79976 
 C                    -10.69626   0.24684  -2.25181 
 C                    -11.46825  -0.44108  -1.31429 
 C                    -11.41337  -0.1569    0.04984 
 C                    -10.55128   0.84522   0.48356 
 N                    -12.368   -1.49426  -1.77884 
 O                    -12.41418  -1.73794  -2.989 
 O                    -13.04638  -2.10034  -0.94313 
 C                    -4.54214   2.28263   1.08939 
 N                    -3.17099   2.0604    0.92739 
 C                    -2.49882   3.20126   1.27282 
 C                    -3.4818    4.15083   1.68042 
 C                    -4.75179   3.61781   1.56513 
 C                    -6.03744   4.30981   1.88728 
 C                    -1.08945   3.47553   1.26137 
 C                    -0.09555   2.80285   0.62121 
 C                     1.31875   3.13566   0.65294 
 C                     1.86849   4.19912   1.40812 
 C                     3.22656   4.45839   1.3933 
 C                     4.09552   3.662     0.62284 
 O                     5.41422   3.99966   0.68401 
 C                     6.3612    3.23171  -0.07867 
 C                     7.7415    3.79889   0.19844 
 O                     7.90407   5.15524  -0.20252 
 C                     8.05865   5.337    -1.61186 
 C                     8.47856   6.77346  -1.86281 
 O                     9.75648   7.07156  -1.29065 
 C                     10.82169   7.25456  -2.22354 
 C                     11.26416   5.97888  -2.93578 
 O                     11.56711   4.89141  -2.06529 
 C                     12.73583   5.08815  -1.27549 
 C                     3.57856   2.60181  -0.13375 
 C                     2.20872   2.35428  -0.10973 
 C                    -7.30735  -1.37982   0.18421 
 C                    -2.26035  -2.26598  -0.0042 
 C                    -1.96774  -3.45078  -0.60301 
 C                    -0.64651  -4.04686  -0.72217 
 C                    -0.52016  -5.277    -1.39558 
 C                     0.70909  -5.91177  -1.55404 
 C                     1.86124  -5.31248  -1.02831 
 O                     3.11734  -5.83422  -1.12016 
 C                     3.29432  -7.09113  -1.79605 
 C                     4.76172  -7.4429   -1.74527 
 O                     5.11829  -7.72704  -0.39307 
 C                     6.49046  -8.08206  -0.21854 
 C                     7.38895  -6.84848  -0.09863 
 O                     8.74734  -7.24122   0.12424 
 C                     9.10275  -7.39329   1.50007 
 C                     9.61924  -6.07622   2.06977 
 O                     9.97739  -6.30212   3.42743 
 C                     10.47335  -5.12704   4.0552 
 C                     1.76108  -4.08238  -0.351 
 C                     0.5333   -3.46367  -0.20206 
 F                    -1.61037   0.2954    1.47699 
 F                    -1.94412   0.77467  -0.73812 
 H                    -9.05199   2.951     1.05811 
 H                    -8.85993   3.50234  -0.62835 
 H                    -9.2432    1.80174  -2.51325 
 H                    -10.76834   0.00368  -3.30392 
 H                    -12.02851  -0.70871   0.74869 
 H                    -10.48898   1.07812   1.54105 
 H                    -6.66657   3.70711   2.54755 
 H                    -5.83773   5.25751   2.39051 
 H                    -6.61276   4.52593   0.9814 
 H                    -0.83546   4.37378   1.8159 
 H                    -0.34789   1.95346  -0.00213 
 H                     1.22609   4.82867   2.01512 
 H                     3.64565   5.27396   1.97373 
 H                     6.33708   2.18115   0.23485 
 H                     6.10745   3.28247  -1.14325 
 H                     7.93069   3.77701   1.2762 
 H                     8.48332   3.15419  -0.29419 
 H                     8.81257   4.63769  -1.99658 
 H                     7.11439   5.1489   -2.14336 
 H                     8.47264   6.96741  -2.94206 
 H                     7.74721   7.44566  -1.39724 
 H                     10.5475   7.99397  -2.99079 
 H                     11.64605   7.67512  -1.64015 
 H                     10.46789   5.61411  -3.5916 
 H                     12.13342   6.22501  -3.56592 
 H                     12.94585   4.13877  -0.77644 
 H                     13.59839   5.36126  -1.89951 
 H                     12.59718   5.86145  -0.50946 
 H                     4.22554   1.97364  -0.73318 
 H                     1.81341   1.5305   -0.69754 
 H                    -7.74666  -1.29343   1.18242 
 H                    -7.77326  -0.62116  -0.45093 
 H                    -7.57043  -2.3598   -0.21764 
 H                    -1.45812  -1.67942   0.42738 
 H                    -2.76403  -4.02725  -1.06167 
 H                    -1.41003  -5.74637  -1.80568 
 H                     0.75883  -6.85699  -2.07999 
 H                     2.69781  -7.86719  -1.30295 
 H                     2.97497  -7.00594  -2.84103 
 H                     4.9306   -8.32476  -2.37999 
 H                     5.35574  -6.61374  -2.15123 
 H                     6.54201  -8.66666   0.70565 
 H                     6.83647  -8.71958  -1.04357 
 H                     7.37922  -6.27065  -1.02767 
 H                     7.02357  -6.19962   0.70659 
 H                     8.25464  -7.7533    2.09529 
 H                     9.89239  -8.15021   1.54641 
 H                     10.48958  -5.73523   1.48855 
 H                     8.84437  -5.29719   1.99976 
 H                     10.72245  -5.38829   5.08662 
 H                     11.37668  -4.75292   3.55258 
 H                     9.72087  -4.32559   4.06056 
 H                     2.66433  -3.63329   0.04917 
 H                     0.4897   -2.51544   0.32357 
 O                    -7.42929   2.20552  -0.03185 
 Cl                   -5.26923  -3.86283  -0.3718 
 Cl                   -3.11318   5.76864   2.20812 
 
 ITRead=  0  0  0  0  0  0  0  0  0  0  0  0  0  0  0  0  0  0  0  0
 ITRead=  0  0  0  0  0  0  0  0  0  0  0  0  0  0  0  0  0  0  0  0
 ITRead=  0  0  0  0  0  0  0  0  0  0  0  0  0  0  0  0  0  0  0  0
 ITRead=  0  0  0  0  0  0  0  0  0  0  0  0  0  0  0  0  0  0  0  0
 ITRead=  0  0  0  0  0  0  0  0  0  0  0  0  0  0  0  0  0  0  0  0
 ITRead=  0  0  0  0  0  0  0  0  0  0  0  0  0  0  0  0  0  0  0  0
 ITRead=  0  0  0
 MicOpt= -1 -1 -1 -1 -1 -1 -1 -1 -1 -1 -1 -1 -1 -1 -1 -1 -1 -1 -1 -1
 MicOpt= -1 -1 -1 -1 -1 -1 -1 -1 -1 -1 -1 -1 -1 -1 -1 -1 -1 -1 -1 -1
 MicOpt= -1 -1 -1 -1 -1 -1 -1 -1 -1 -1 -1 -1 -1 -1 -1 -1 -1 -1 -1 -1
 MicOpt= -1 -1 -1 -1 -1 -1 -1 -1 -1 -1 -1 -1 -1 -1 -1 -1 -1 -1 -1 -1
 MicOpt= -1 -1 -1 -1 -1 -1 -1 -1 -1 -1 -1 -1 -1 -1 -1 -1 -1 -1 -1 -1
 MicOpt= -1 -1 -1 -1 -1 -1 -1 -1 -1 -1 -1 -1 -1 -1 -1 -1 -1 -1 -1 -1
 MicOpt= -1 -1 -1
 NAtoms=    123 NQM=      123 NQMF=       0 NMMI=      0 NMMIF=      0
                NMic=       0 NMicF=      0.
                    Isotopes and Nuclear Properties:
 (Nuclear quadrupole moments (NQMom) in fm**2, nuclear magnetic moments (NMagM)
  in nuclear magnetons)

  Atom         1           2           3           4           5           6           7           8           9          10
 IAtWgt=          11          14          12          12          12          12          12          12          16          12
 AtmWgt=  11.0093053  14.0030740  12.0000000  12.0000000  12.0000000  12.0000000  12.0000000  12.0000000  15.9949146  12.0000000
 NucSpn=           3           2           0           0           0           0           0           0           0           0
 AtZEff=  -0.0000000  -0.0000000  -0.0000000  -0.0000000  -0.0000000  -0.0000000  -0.0000000  -0.0000000  -0.0000000  -0.0000000
 NQMom=    4.0590000   2.0440000   0.0000000   0.0000000   0.0000000   0.0000000   0.0000000   0.0000000   0.0000000   0.0000000
 NMagM=    2.6886370   0.4037610   0.0000000   0.0000000   0.0000000   0.0000000   0.0000000   0.0000000   0.0000000   0.0000000
 AtZNuc=   5.0000000   7.0000000   6.0000000   6.0000000   6.0000000   6.0000000   6.0000000   6.0000000   8.0000000   6.0000000

  Atom        11          12          13          14          15          16          17          18          19          20
 IAtWgt=          12          12          12          12          12          12          14          16          16          12
 AtmWgt=  12.0000000  12.0000000  12.0000000  12.0000000  12.0000000  12.0000000  14.0030740  15.9949146  15.9949146  12.0000000
 NucSpn=           0           0           0           0           0           0           2           0           0           0
 AtZEff=  -0.0000000  -0.0000000  -0.0000000  -0.0000000  -0.0000000  -0.0000000  -0.0000000  -0.0000000  -0.0000000  -0.0000000
 NQMom=    0.0000000   0.0000000   0.0000000   0.0000000   0.0000000   0.0000000   2.0440000   0.0000000   0.0000000   0.0000000
 NMagM=    0.0000000   0.0000000   0.0000000   0.0000000   0.0000000   0.0000000   0.4037610   0.0000000   0.0000000   0.0000000
 AtZNuc=   6.0000000   6.0000000   6.0000000   6.0000000   6.0000000   6.0000000   7.0000000   8.0000000   8.0000000   6.0000000

  Atom        21          22          23          24          25          26          27          28          29          30
 IAtWgt=          14          12          12          12          12          12          12          12          12          12
 AtmWgt=  14.0030740  12.0000000  12.0000000  12.0000000  12.0000000  12.0000000  12.0000000  12.0000000  12.0000000  12.0000000
 NucSpn=           2           0           0           0           0           0           0           0           0           0
 AtZEff=  -0.0000000  -0.0000000  -0.0000000  -0.0000000  -0.0000000  -0.0000000  -0.0000000  -0.0000000  -0.0000000  -0.0000000
 NQMom=    2.0440000   0.0000000   0.0000000   0.0000000   0.0000000   0.0000000   0.0000000   0.0000000   0.0000000   0.0000000
 NMagM=    0.4037610   0.0000000   0.0000000   0.0000000   0.0000000   0.0000000   0.0000000   0.0000000   0.0000000   0.0000000
 AtZNuc=   7.0000000   6.0000000   6.0000000   6.0000000   6.0000000   6.0000000   6.0000000   6.0000000   6.0000000   6.0000000

  Atom        31          32          33          34          35          36          37          38          39          40
 IAtWgt=          12          16          12          12          16          12          12          16          12          12
 AtmWgt=  12.0000000  15.9949146  12.0000000  12.0000000  15.9949146  12.0000000  12.0000000  15.9949146  12.0000000  12.0000000
 NucSpn=           0           0           0           0           0           0           0           0           0           0
 AtZEff=  -0.0000000  -0.0000000  -0.0000000  -0.0000000  -0.0000000  -0.0000000  -0.0000000  -0.0000000  -0.0000000  -0.0000000
 NQMom=    0.0000000   0.0000000   0.0000000   0.0000000   0.0000000   0.0000000   0.0000000   0.0000000   0.0000000   0.0000000
 NMagM=    0.0000000   0.0000000   0.0000000   0.0000000   0.0000000   0.0000000   0.0000000   0.0000000   0.0000000   0.0000000
 AtZNuc=   6.0000000   8.0000000   6.0000000   6.0000000   8.0000000   6.0000000   6.0000000   8.0000000   6.0000000   6.0000000

  Atom        41          42          43          44          45          46          47          48          49          50
 IAtWgt=          16          12          12          12          12          12          12          12          12          12
 AtmWgt=  15.9949146  12.0000000  12.0000000  12.0000000  12.0000000  12.0000000  12.0000000  12.0000000  12.0000000  12.0000000
 NucSpn=           0           0           0           0           0           0           0           0           0           0
 AtZEff=  -0.0000000  -0.0000000  -0.0000000  -0.0000000  -0.0000000  -0.0000000  -0.0000000  -0.0000000  -0.0000000  -0.0000000
 NQMom=    0.0000000   0.0000000   0.0000000   0.0000000   0.0000000   0.0000000   0.0000000   0.0000000   0.0000000   0.0000000
 NMagM=    0.0000000   0.0000000   0.0000000   0.0000000   0.0000000   0.0000000   0.0000000   0.0000000   0.0000000   0.0000000
 AtZNuc=   8.0000000   6.0000000   6.0000000   6.0000000   6.0000000   6.0000000   6.0000000   6.0000000   6.0000000   6.0000000

  Atom        51          52          53          54          55          56          57          58          59          60
 IAtWgt=          12          16          12          12          16          12          12          16          12          12
 AtmWgt=  12.0000000  15.9949146  12.0000000  12.0000000  15.9949146  12.0000000  12.0000000  15.9949146  12.0000000  12.0000000
 NucSpn=           0           0           0           0           0           0           0           0           0           0
 AtZEff=  -0.0000000  -0.0000000  -0.0000000  -0.0000000  -0.0000000  -0.0000000  -0.0000000  -0.0000000  -0.0000000  -0.0000000
 NQMom=    0.0000000   0.0000000   0.0000000   0.0000000   0.0000000   0.0000000   0.0000000   0.0000000   0.0000000   0.0000000
 NMagM=    0.0000000   0.0000000   0.0000000   0.0000000   0.0000000   0.0000000   0.0000000   0.0000000   0.0000000   0.0000000
 AtZNuc=   6.0000000   8.0000000   6.0000000   6.0000000   8.0000000   6.0000000   6.0000000   8.0000000   6.0000000   6.0000000

  Atom        61          62          63          64          65          66          67          68          69          70
 IAtWgt=          16          12          12          12          19          19           1           1           1           1
 AtmWgt=  15.9949146  12.0000000  12.0000000  12.0000000  18.9984033  18.9984033   1.0078250   1.0078250   1.0078250   1.0078250
 NucSpn=           0           0           0           0           1           1           1           1           1           1
 AtZEff=  -0.0000000  -0.0000000  -0.0000000  -0.0000000  -0.0000000  -0.0000000  -0.0000000  -0.0000000  -0.0000000  -0.0000000
 NQMom=    0.0000000   0.0000000   0.0000000   0.0000000   0.0000000   0.0000000   0.0000000   0.0000000   0.0000000   0.0000000
 NMagM=    0.0000000   0.0000000   0.0000000   0.0000000   2.6288670   2.6288670   2.7928460   2.7928460   2.7928460   2.7928460
 AtZNuc=   8.0000000   6.0000000   6.0000000   6.0000000   9.0000000   9.0000000   1.0000000   1.0000000   1.0000000   1.0000000

  Atom        71          72          73          74          75          76          77          78          79          80
 IAtWgt=           1           1           1           1           1           1           1           1           1           1
 AtmWgt=   1.0078250   1.0078250   1.0078250   1.0078250   1.0078250   1.0078250   1.0078250   1.0078250   1.0078250   1.0078250
 NucSpn=           1           1           1           1           1           1           1           1           1           1
 AtZEff=  -0.0000000  -0.0000000  -0.0000000  -0.0000000  -0.0000000  -0.0000000  -0.0000000  -0.0000000  -0.0000000  -0.0000000
 NQMom=    0.0000000   0.0000000   0.0000000   0.0000000   0.0000000   0.0000000   0.0000000   0.0000000   0.0000000   0.0000000
 NMagM=    2.7928460   2.7928460   2.7928460   2.7928460   2.7928460   2.7928460   2.7928460   2.7928460   2.7928460   2.7928460
 AtZNuc=   1.0000000   1.0000000   1.0000000   1.0000000   1.0000000   1.0000000   1.0000000   1.0000000   1.0000000   1.0000000

  Atom        81          82          83          84          85          86          87          88          89          90
 IAtWgt=           1           1           1           1           1           1           1           1           1           1
 AtmWgt=   1.0078250   1.0078250   1.0078250   1.0078250   1.0078250   1.0078250   1.0078250   1.0078250   1.0078250   1.0078250
 NucSpn=           1           1           1           1           1           1           1           1           1           1
 AtZEff=  -0.0000000  -0.0000000  -0.0000000  -0.0000000  -0.0000000  -0.0000000  -0.0000000  -0.0000000  -0.0000000  -0.0000000
 NQMom=    0.0000000   0.0000000   0.0000000   0.0000000   0.0000000   0.0000000   0.0000000   0.0000000   0.0000000   0.0000000
 NMagM=    2.7928460   2.7928460   2.7928460   2.7928460   2.7928460   2.7928460   2.7928460   2.7928460   2.7928460   2.7928460
 AtZNuc=   1.0000000   1.0000000   1.0000000   1.0000000   1.0000000   1.0000000   1.0000000   1.0000000   1.0000000   1.0000000

  Atom        91          92          93          94          95          96          97          98          99         100
 IAtWgt=           1           1           1           1           1           1           1           1           1           1
 AtmWgt=   1.0078250   1.0078250   1.0078250   1.0078250   1.0078250   1.0078250   1.0078250   1.0078250   1.0078250   1.0078250
 NucSpn=           1           1           1           1           1           1           1           1           1           1
 AtZEff=  -0.0000000  -0.0000000  -0.0000000  -0.0000000  -0.0000000  -0.0000000  -0.0000000  -0.0000000  -0.0000000  -0.0000000
 NQMom=    0.0000000   0.0000000   0.0000000   0.0000000   0.0000000   0.0000000   0.0000000   0.0000000   0.0000000   0.0000000
 NMagM=    2.7928460   2.7928460   2.7928460   2.7928460   2.7928460   2.7928460   2.7928460   2.7928460   2.7928460   2.7928460
 AtZNuc=   1.0000000   1.0000000   1.0000000   1.0000000   1.0000000   1.0000000   1.0000000   1.0000000   1.0000000   1.0000000

  Atom       101         102         103         104         105         106         107         108         109         110
 IAtWgt=           1           1           1           1           1           1           1           1           1           1
 AtmWgt=   1.0078250   1.0078250   1.0078250   1.0078250   1.0078250   1.0078250   1.0078250   1.0078250   1.0078250   1.0078250
 NucSpn=           1           1           1           1           1           1           1           1           1           1
 AtZEff=  -0.0000000  -0.0000000  -0.0000000  -0.0000000  -0.0000000  -0.0000000  -0.0000000  -0.0000000  -0.0000000  -0.0000000
 NQMom=    0.0000000   0.0000000   0.0000000   0.0000000   0.0000000   0.0000000   0.0000000   0.0000000   0.0000000   0.0000000
 NMagM=    2.7928460   2.7928460   2.7928460   2.7928460   2.7928460   2.7928460   2.7928460   2.7928460   2.7928460   2.7928460
 AtZNuc=   1.0000000   1.0000000   1.0000000   1.0000000   1.0000000   1.0000000   1.0000000   1.0000000   1.0000000   1.0000000

  Atom       111         112         113         114         115         116         117         118         119         120
 IAtWgt=           1           1           1           1           1           1           1           1           1           1
 AtmWgt=   1.0078250   1.0078250   1.0078250   1.0078250   1.0078250   1.0078250   1.0078250   1.0078250   1.0078250   1.0078250
 NucSpn=           1           1           1           1           1           1           1           1           1           1
 AtZEff=  -0.0000000  -0.0000000  -0.0000000  -0.0000000  -0.0000000  -0.0000000  -0.0000000  -0.0000000  -0.0000000  -0.0000000
 NQMom=    0.0000000   0.0000000   0.0000000   0.0000000   0.0000000   0.0000000   0.0000000   0.0000000   0.0000000   0.0000000
 NMagM=    2.7928460   2.7928460   2.7928460   2.7928460   2.7928460   2.7928460   2.7928460   2.7928460   2.7928460   2.7928460
 AtZNuc=   1.0000000   1.0000000   1.0000000   1.0000000   1.0000000   1.0000000   1.0000000   1.0000000   1.0000000   1.0000000

  Atom       121         122         123
 IAtWgt=          16          35          35
 AtmWgt=  15.9949146  34.9688527  34.9688527
 NucSpn=           0           3           3
 AtZEff=  -0.0000000  -0.0000000  -0.0000000
 NQMom=    0.0000000  -8.1650000  -8.1650000
 NMagM=    0.0000000   0.8218740   0.8218740
 AtZNuc=   8.0000000  17.0000000  17.0000000
 Leave Link  101 at Fri Nov 14 00:18:30 2025, MaxMem= 30870077440 cpu:               4.7 elap:               0.1
 (Enter /public/software/gauss/g16/l202.exe)
 Stoichiometry    C49H54BCl2F2N3O12
 Framework group  C1[X(C49H54BCl2F2N3O12)]
 Deg. of freedom   363
 Full point group                 C1      NOp   1
 Largest Abelian subgroup         C1      NOp   1
 Largest concise Abelian subgroup C1      NOp   1
                         Standard orientation:                         
 ---------------------------------------------------------------------
 Center     Atomic      Atomic             Coordinates (Angstroms)
 Number     Number       Type             X           Y           Z
 ---------------------------------------------------------------------
      1          5           0        2.553595   -0.689081    0.523143
      2          7           0        3.708999    0.350313    0.450794
      3          6           0        3.561887    1.667215    0.112541
      4          6           0        4.878088    2.201472   -0.025442
      5          6           0        5.822297    1.218115    0.223499
      6          6           0        5.062337    0.042502    0.523629
      7          6           0        5.467552   -1.257059    0.852509
      8          6           0        6.937019   -1.546282    1.023455
      9          8           0        7.572819   -1.225202    2.009697
     10          6           0        8.829348   -2.640158    0.037770
     11          6           0        9.764659   -1.555767   -0.432923
     12          6           0        9.846224   -1.249177   -1.799759
     13          6           0       10.696262   -0.246835   -2.251814
     14          6           0       11.468248    0.441082   -1.314291
     15          6           0       11.413372    0.156896    0.049835
     16          6           0       10.551283   -0.845216    0.483556
     17          7           0       12.367999    1.494261   -1.778838
     18          8           0       12.414175    1.737944   -2.988998
     19          8           0       13.046380    2.100338   -0.943125
     20          6           0        4.542140   -2.282626    1.089388
     21          7           0        3.170992   -2.060402    0.927393
     22          6           0        2.498815   -3.201259    1.272821
     23          6           0        3.481796   -4.150827    1.680415
     24          6           0        4.751792   -3.617805    1.565125
     25          6           0        6.037437   -4.309810    1.887281
     26          6           0        1.089448   -3.475534    1.261372
     27          6           0        0.095549   -2.802854    0.621206
     28          6           0       -1.318746   -3.135663    0.652938
     29          6           0       -1.868486   -4.199121    1.408120
     30          6           0       -3.226555   -4.458389    1.393296
     31          6           0       -4.095518   -3.662003    0.622838
     32          8           0       -5.414218   -3.999658    0.684011
     33          6           0       -6.361203   -3.231711   -0.078674
     34          6           0       -7.741497   -3.798891    0.198437
     35          8           0       -7.904070   -5.155237   -0.202515
     36          6           0       -8.058650   -5.336999   -1.611863
     37          6           0       -8.478565   -6.773458   -1.862810
     38          8           0       -9.756479   -7.071556   -1.290646
     39          6           0      -10.821685   -7.254557   -2.223537
     40          6           0      -11.264161   -5.978878   -2.935783
     41          8           0      -11.567108   -4.891414   -2.065289
     42          6           0      -12.735829   -5.088149   -1.275489
     43          6           0       -3.578557   -2.601807   -0.133747
     44          6           0       -2.208716   -2.354277   -0.109733
     45          6           0        7.307347    1.379819    0.184206
     46          6           0        2.260348    2.265977   -0.004199
     47          6           0        1.967737    3.450781   -0.603008
     48          6           0        0.646512    4.046858   -0.722171
     49          6           0        0.520159    5.277001   -1.395577
     50          6           0       -0.709089    5.911768   -1.554036
     51          6           0       -1.861243    5.312482   -1.028308
     52          8           0       -3.117338    5.834225   -1.120160
     53          6           0       -3.294319    7.091133   -1.796049
     54          6           0       -4.761715    7.442895   -1.745269
     55          8           0       -5.118291    7.727037   -0.393073
     56          6           0       -6.490461    8.082058   -0.218538
     57          6           0       -7.388945    6.848479   -0.098625
     58          8           0       -8.747342    7.241215    0.124236
     59          6           0       -9.102746    7.393293    1.500073
     60          6           0       -9.619236    6.076222    2.069774
     61          8           0       -9.977388    6.302120    3.427426
     62          6           0      -10.473355    5.127035    4.055202
     63          6           0       -1.761084    4.082380   -0.351003
     64          6           0       -0.533302    3.463670   -0.202056
     65          9           0        1.610367   -0.295402    1.476992
     66          9           0        1.944122   -0.774671   -0.738115
     67          1           0        9.051993   -2.951001    1.058111
     68          1           0        8.859930   -3.502343   -0.628345
     69          1           0        9.243205   -1.801744   -2.513249
     70          1           0       10.768339   -0.003684   -3.303916
     71          1           0       12.028514    0.708705    0.748686
     72          1           0       10.488982   -1.078119    1.541046
     73          1           0        6.666571   -3.707112    2.547547
     74          1           0        5.837727   -5.257505    2.390510
     75          1           0        6.612758   -4.525930    0.981402
     76          1           0        0.835456   -4.373782    1.815897
     77          1           0        0.347889   -1.953456   -0.002126
     78          1           0       -1.226091   -4.828666    2.015124
     79          1           0       -3.645647   -5.273962    1.973730
     80          1           0       -6.337078   -2.181146    0.234846
     81          1           0       -6.107452   -3.282465   -1.143246
     82          1           0       -7.930688   -3.777008    1.276197
     83          1           0       -8.483320   -3.154188   -0.294190
     84          1           0       -8.812565   -4.637687   -1.996580
     85          1           0       -7.114389   -5.148900   -2.143362
     86          1           0       -8.472637   -6.967405   -2.942059
     87          1           0       -7.747205   -7.445661   -1.397239
     88          1           0      -10.547502   -7.993965   -2.990792
     89          1           0      -11.646049   -7.675122   -1.640146
     90          1           0      -10.467888   -5.614109   -3.591603
     91          1           0      -12.133417   -6.225006   -3.565921
     92          1           0      -12.945853   -4.138769   -0.776442
     93          1           0      -13.598393   -5.361260   -1.899511
     94          1           0      -12.597178   -5.861450   -0.509456
     95          1           0       -4.225542   -1.973635   -0.733175
     96          1           0       -1.813411   -1.530498   -0.697541
     97          1           0        7.746655    1.293433    1.182422
     98          1           0        7.773257    0.621163   -0.450932
     99          1           0        7.570427    2.359803   -0.217643
    100          1           0        1.458116    1.679420    0.427378
    101          1           0        2.764028    4.027246   -1.061669
    102          1           0        1.410029    5.746372   -1.805682
    103          1           0       -0.758829    6.856993   -2.079992
    104          1           0       -2.697807    7.867190   -1.302951
    105          1           0       -2.974965    7.005943   -2.841025
    106          1           0       -4.930604    8.324765   -2.379986
    107          1           0       -5.355737    6.613737   -2.151232
    108          1           0       -6.542005    8.666658    0.705647
    109          1           0       -6.836471    8.719577   -1.043571
    110          1           0       -7.379223    6.270646   -1.027672
    111          1           0       -7.023567    6.199620    0.706593
    112          1           0       -8.254643    7.753303    2.095294
    113          1           0       -9.892388    8.150213    1.546406
    114          1           0      -10.489583    5.735232    1.488547
    115          1           0       -8.844367    5.297188    1.999761
    116          1           0      -10.722452    5.388287    5.086618
    117          1           0      -11.376678    4.752916    3.552584
    118          1           0       -9.720870    4.325590    4.060564
    119          1           0       -2.664329    3.633288    0.049165
    120          1           0       -0.489698    2.515441    0.323573
    121          8           0        7.429291   -2.205521   -0.031848
    122         17           0        5.269226    3.862832   -0.371800
    123         17           0        3.113182   -5.768642    2.208115
 ---------------------------------------------------------------------
 Rotational constants (GHZ):           0.0239844           0.0098099           0.0073888
 Leave Link  202 at Fri Nov 14 00:18:30 2025, MaxMem= 30870077440 cpu:               1.8 elap:               0.0
 (Enter /public/software/gauss/g16/l301.exe)
 Standard basis: def2TZVPP (5D, 7F)
 Ernie: Thresh=  0.10000D-02 Tol=  0.10000D-05 Strict=F.
 There are  3318 symmetry adapted cartesian basis functions of A   symmetry.
 There are  2917 symmetry adapted basis functions of A   symmetry.
  2917 basis functions,  4473 primitive gaussians,  3318 cartesian basis functions
   261 alpha electrons      261 beta electrons
       nuclear repulsion energy     10075.0660060200 Hartrees.
 IExCor= 4336 DFT=T Ex+Corr=M062X ExCW=0 ScaHFX=  0.540000
 ScaDFX=  1.000000  1.000000  1.000000  1.000000 ScalE2=  1.000000  1.000000
 IRadAn=      5 IRanWt=     -1 IRanGd=            0 ICorTp=0 IEmpDi=131
 NAtoms=  123 NActive=  123 NUniq=  123 SFac= 1.00D+00 NAtFMM=   60 NAOKFM=T Big=T
 Integral buffers will be    131072 words long.
 Raffenetti 2 integral format.
 Two-electron integral symmetry is turned on.
 R6Disp:  Grimme-D3 Dispersion energy=       -0.0101487608 Hartrees.
 Nuclear repulsion after empirical dispersion term =    10075.0558572592 Hartrees.
 ------------------------------------------------------------------------------
 Polarizable Continuum Model (PCM)
 =================================
 Model                : PCM.
 Atomic radii         : UFF (Universal Force Field).
 Polarization charges : Total charges.
 Charge compensation  : None.
 Solution method      : On-the-fly selection.
 Cavity type          : Scaled VdW (van der Waals Surface) (Alpha=1.100).
 Cavity algorithm     : GePol (No added spheres)
                        Default sphere list used, NSphG=  123.
                        Lebedev-Laikov grids with approx.  5.0 points / Ang**2.
                        Smoothing algorithm: York/Karplus (Gamma=1.0000).
                        Polarization charges: spherical gaussians, with
                                              point-specific exponents (IZeta= 3).
                        Self-potential: point-specific (ISelfS= 7).
                        Self-field    : sphere-specific E.n sum rule (ISelfD= 2).
 Solvent              : Water, Eps=  78.355300 Eps(inf)=   1.777849
 ------------------------------------------------------------------------------
 GePol: Number of generator spheres                  =     123
 GePol: Total number of spheres                      =     123
 GePol: Number of exposed spheres                    =     123 (100.00%)
 GePol: Number of points                             =    8738
 GePol: Average weight of points                     =       0.13
 GePol: Minimum weight of points                     =   0.91D-11
 GePol: Maximum weight of points                     =    0.21616
 GePol: Number of points with low weight             =     546
 GePol: Fraction of low-weight points (<1% of avg)   =       6.25%
 GePol: Cavity surface area                          =   1132.066 Ang**2
 GePol: Cavity volume                                =   1290.093 Ang**3
 Leave Link  301 at Fri Nov 14 00:18:31 2025, MaxMem= 30870077440 cpu:               5.1 elap:               0.1
 (Enter /public/software/gauss/g16/l302.exe)
 NPDir=0 NMtPBC=     1 NCelOv=     1 NCel=       1 NClECP=     1 NCelD=      1
         NCelK=      1 NCelE2=     1 NClLst=     1 CellRange=     0.0.
 One-electron integrals computed using PRISM.
 One-electron integral symmetry used in STVInt
   1 Symmetry operations used in ECPInt.
 ECPInt:  NShTT=  593505 NPrTT= 1669757 LenC2=  245585 LenP2D=  455901.
 LDataN:  DoStor=T MaxTD1= 6 Len=  172
 Number of processors reduced to  57 by ecpmxn.
 NBasis=  2917 RedAO= T EigKep=  5.64D-06  NBF=  2917
 NBsUse=  2917 1.00D-06 EigRej= -1.00D+00 NBFU=  2917
 Precomputing XC quadrature grid using
 IXCGrd= 4 IRadAn=           5 IRanWt=          -1 IRanGd=           0 AccXCQ= 0.00D+00.
 Generated NRdTot=       0 NPtTot=           0 NUsed=           0 NTot=          32
 NSgBfM=  2496  2496  2496  2496  2496 MxSgAt=   123 MxSgA2=   123.
 Leave Link  302 at Fri Nov 14 00:19:01 2025, MaxMem= 30870077440 cpu:            1960.5 elap:              30.8
 (Enter /public/software/gauss/g16/l303.exe)
 DipDrv:  MaxL=1.
 Leave Link  303 at Fri Nov 14 00:19:02 2025, MaxMem= 30870077440 cpu:              58.8 elap:               1.0
 (Enter /public/software/gauss/g16/l401.exe)
 ExpMin= 6.06D-02 ExpMax= 6.95D+04 ExpMxC= 2.37D+03 IAcc=3 IRadAn=         5 AccDes= 0.00D+00
 Harris functional with IExCor= 1009 and IRadAn=       5 diagonalized for initial guess.
 HarFok:  IExCor= 1009 AccDes= 0.00D+00 IRadAn=         5 IDoV= 1 UseB2=F ITyADJ=14
 ICtDFT=  3500011 ScaDFX=  1.000000  1.000000  1.000000  1.000000
 FoFCou: FMM=F IPFlag=           0 FMFlag=      100000 FMFlg1=        2001
         NFxFlg=           0 DoJE=T BraDBF=F KetDBF=T FulRan=T
         wScrn=  0.000000 ICntrl=       500 IOpCl=  0 I1Cent=   200000004 NGrid=           0
         NMat0=    1 NMatS0=      1 NMatT0=    0 NMatD0=    1 NMtDS0=    0 NMtDT0=    0
 Petite list used in FoFCou.
 Harris En= -4109.46820550635    
 JPrj=0 DoOrth=F DoCkMO=F.
 Leave Link  401 at Fri Nov 14 00:19:26 2025, MaxMem= 30870077440 cpu:            1529.4 elap:              24.0
 (Enter /public/software/gauss/g16/l502.exe)
 Integral symmetry usage will be decided dynamically.
 Closed shell SCF:
 Using DIIS extrapolation, IDIIS=  1040.
 NGot= 30870077440 LenX= 30847818941 LenY= 30836806499
 Requested convergence on RMS density matrix=1.00D-08 within 128 cycles.
 Requested convergence on MAX density matrix=1.00D-06.
 Requested convergence on             energy=1.00D-06.
 No special actions if energy rises.
 Fock matrices will be formed incrementally for  20 cycles.

 Cycle   1  Pass 1  IDiag  1:
 FoFJK:  IHMeth= 1 ICntrl=       0 DoSepK=F KAlg= 0 I1Cent=           0 FoldK=F
 IRaf= 370000000 NMat=       1 IRICut=       1 DoRegI=T DoRafI=F ISym2E= 0 IDoP0=0 IntGTp=1.
 FoFCou: FMM=T IPFlag=           0 FMFlag=      100000 FMFlg1=        2001
         NFxFlg=           0 DoJE=F BraDBF=F KetDBF=F FulRan=T
         wScrn=  0.000000 ICntrl=         0 IOpCl=  0 I1Cent=           0 NGrid=           0
         NMat0=    1 NMatS0=      1 NMatT0=    0 NMatD0=    1 NMtDS0=    0 NMtDT0=    0
 Symmetry not used in FoFCou.
 FMM levels:  10  Number of levels for PrismC:   9
 Inv3:  Mode=1 IEnd=   229057932.
 Iteration    1 A*A^-1 deviation from unit magnitude is 2.25D-14 for   5460.
 Iteration    1 A*A^-1 deviation from orthogonality  is 8.70D-15 for   5460   2501.
 Iteration    1 A^-1*A deviation from unit magnitude is 2.25D-14 for   5460.
 Iteration    1 A^-1*A deviation from orthogonality  is 3.93D-13 for   7467   7448.
 E= -4110.05985448184    
 DIIS: error= 2.01D-02 at cycle   1 NSaved=   1.
 NSaved= 1 IEnMin= 1 EnMin= -4110.05985448184     IErMin= 1 ErrMin= 2.01D-02
 ErrMax= 2.01D-02  0.00D+00 EMaxC= 1.00D-01 BMatC= 2.15D+00 BMatP= 2.15D+00
 IDIUse=3 WtCom= 7.99D-01 WtEn= 2.01D-01
 Coeff-Com:  0.100D+01
 Coeff-En:   0.100D+01
 Coeff:      0.100D+01
 Gap=     0.208 Goal=   None    Shift=    0.000
 GapD=    0.208 DampG=1.000 DampE=0.500 DampFc=0.5000 IDamp=-1.
 Damping current iteration by 5.00D-01
 RMSDP=1.51D-03 MaxDP=4.94D-01              OVMax= 2.61D-01

 Cycle   2  Pass 1  IDiag  1:
 RMSU=  7.54D-04    CP:  1.01D+00
 E= -4110.82806118179     Delta-E=       -0.768206699948 Rises=F Damp=T
 DIIS: error= 7.07D-03 at cycle   2 NSaved=   2.
 NSaved= 2 IEnMin= 2 EnMin= -4110.82806118179     IErMin= 2 ErrMin= 7.07D-03
 ErrMax= 7.07D-03  0.00D+00 EMaxC= 1.00D-01 BMatC= 2.27D-01 BMatP= 2.15D+00
 IDIUse=3 WtCom= 9.29D-01 WtEn= 7.07D-02
 Coeff-Com: -0.112D+00 0.111D+01
 Coeff-En:   0.000D+00 0.100D+01
 Coeff:     -0.104D+00 0.110D+01
 Gap=     0.182 Goal=   None    Shift=    0.000
 RMSDP=4.89D-04 MaxDP=1.58D-01 DE=-7.68D-01 OVMax= 2.21D-01

 Cycle   3  Pass 1  IDiag  1:
 RMSU=  4.80D-04    CP:  9.91D-01  9.05D-01
 E= -4111.52321010196     Delta-E=       -0.695148920173 Rises=F Damp=F
 DIIS: error= 1.29D-02 at cycle   3 NSaved=   3.
 NSaved= 3 IEnMin= 3 EnMin= -4111.52321010196     IErMin= 2 ErrMin= 7.07D-03
 ErrMax= 1.29D-02  0.00D+00 EMaxC= 1.00D-01 BMatC= 1.16D-01 BMatP= 2.27D-01
 IDIUse=3 WtCom= 8.71D-01 WtEn= 1.29D-01
 Coeff-Com: -0.133D+00 0.498D+00 0.635D+00
 Coeff-En:   0.000D+00 0.000D+00 0.100D+01
 Coeff:     -0.116D+00 0.434D+00 0.682D+00
 Gap=     0.121 Goal=   None    Shift=    0.000
 RMSDP=2.02D-04 MaxDP=4.65D-02 DE=-6.95D-01 OVMax= 9.77D-02

 Cycle   4  Pass 1  IDiag  1:
 RMSU=  1.65D-04    CP:  9.95D-01  1.02D+00  8.42D-01
 E= -4111.58798850895     Delta-E=       -0.064778406993 Rises=F Damp=F
 DIIS: error= 6.01D-03 at cycle   4 NSaved=   4.
 NSaved= 4 IEnMin= 4 EnMin= -4111.58798850895     IErMin= 4 ErrMin= 6.01D-03
 ErrMax= 6.01D-03  0.00D+00 EMaxC= 1.00D-01 BMatC= 2.87D-02 BMatP= 1.16D-01
 IDIUse=3 WtCom= 9.40D-01 WtEn= 6.01D-02
 Coeff-Com: -0.404D-01 0.998D-01 0.372D+00 0.569D+00
 Coeff-En:   0.000D+00 0.000D+00 0.201D+00 0.799D+00
 Coeff:     -0.380D-01 0.938D-01 0.362D+00 0.582D+00
 Gap=     0.125 Goal=   None    Shift=    0.000
 RMSDP=8.69D-05 MaxDP=1.79D-02 DE=-6.48D-02 OVMax= 2.95D-02

 Cycle   5  Pass 1  IDiag  1:
 RMSU=  4.32D-05    CP:  9.93D-01  9.90D-01  9.19D-01  6.27D-01
 E= -4111.60900906084     Delta-E=       -0.021020551889 Rises=F Damp=F
 DIIS: error= 3.22D-04 at cycle   5 NSaved=   5.
 NSaved= 5 IEnMin= 5 EnMin= -4111.60900906084     IErMin= 5 ErrMin= 3.22D-04
 ErrMax= 3.22D-04  0.00D+00 EMaxC= 1.00D-01 BMatC= 7.58D-04 BMatP= 2.87D-02
 IDIUse=3 WtCom= 9.97D-01 WtEn= 3.22D-03
 Coeff-Com: -0.103D-01 0.198D-01 0.130D+00 0.259D+00 0.601D+00
 Coeff-En:   0.000D+00 0.000D+00 0.000D+00 0.000D+00 0.100D+01
 Coeff:     -0.103D-01 0.197D-01 0.130D+00 0.259D+00 0.602D+00
 Gap=     0.126 Goal=   None    Shift=    0.000
 RMSDP=1.94D-05 MaxDP=5.03D-03 DE=-2.10D-02 OVMax= 5.93D-03

 Cycle   6  Pass 1  IDiag  1:
 RMSU=  1.46D-05    CP:  9.94D-01  9.99D-01  9.11D-01  6.85D-01  9.30D-01
 E= -4111.60958696110     Delta-E=       -0.000577900264 Rises=F Damp=F
 DIIS: error= 1.11D-04 at cycle   6 NSaved=   6.
 NSaved= 6 IEnMin= 6 EnMin= -4111.60958696110     IErMin= 6 ErrMin= 1.11D-04
 ErrMax= 1.11D-04  0.00D+00 EMaxC= 1.00D-01 BMatC= 9.56D-05 BMatP= 7.58D-04
 IDIUse=3 WtCom= 9.99D-01 WtEn= 1.11D-03
 Coeff-Com: -0.989D-04-0.231D-02 0.202D-01 0.589D-01 0.293D+00 0.630D+00
 Coeff-En:   0.000D+00 0.000D+00 0.000D+00 0.000D+00 0.000D+00 0.100D+01
 Coeff:     -0.988D-04-0.230D-02 0.202D-01 0.588D-01 0.293D+00 0.631D+00
 Gap=     0.126 Goal=   None    Shift=    0.000
 RMSDP=7.58D-06 MaxDP=1.57D-03 DE=-5.78D-04 OVMax= 3.64D-03

 Cycle   7  Pass 1  IDiag  1:
 RMSU=  5.46D-06    CP:  9.94D-01  9.97D-01  9.16D-01  6.80D-01  1.03D+00
                    CP:  1.03D+00
 E= -4111.60968048083     Delta-E=       -0.000093519726 Rises=F Damp=F
 DIIS: error= 6.97D-05 at cycle   7 NSaved=   7.
 NSaved= 7 IEnMin= 7 EnMin= -4111.60968048083     IErMin= 7 ErrMin= 6.97D-05
 ErrMax= 6.97D-05  0.00D+00 EMaxC= 1.00D-01 BMatC= 1.11D-05 BMatP= 9.56D-05
 IDIUse=1 WtCom= 1.00D+00 WtEn= 0.00D+00
 Coeff-Com:  0.158D-02-0.407D-02-0.109D-01-0.148D-01 0.296D-01 0.261D+00
 Coeff-Com:  0.738D+00
 Coeff:      0.158D-02-0.407D-02-0.109D-01-0.148D-01 0.296D-01 0.261D+00
 Coeff:      0.738D+00
 Gap=     0.127 Goal=   None    Shift=    0.000
 RMSDP=3.88D-06 MaxDP=8.29D-04 DE=-9.35D-05 OVMax= 1.69D-03

 Cycle   8  Pass 1  IDiag  1:
 RMSU=  2.18D-06    CP:  9.94D-01  9.98D-01  9.17D-01  6.88D-01  1.07D+00
                    CP:  1.18D+00  1.09D+00
 E= -4111.60969549118     Delta-E=       -0.000015010353 Rises=F Damp=F
 DIIS: error= 2.07D-05 at cycle   8 NSaved=   8.
 NSaved= 8 IEnMin= 8 EnMin= -4111.60969549118     IErMin= 8 ErrMin= 2.07D-05
 ErrMax= 2.07D-05  0.00D+00 EMaxC= 1.00D-01 BMatC= 2.34D-06 BMatP= 1.11D-05
 IDIUse=1 WtCom= 1.00D+00 WtEn= 0.00D+00
 Coeff-Com:  0.771D-03-0.154D-02-0.850D-02-0.174D-01-0.373D-01 0.177D-01
 Coeff-Com:  0.359D+00 0.687D+00
 Coeff:      0.771D-03-0.154D-02-0.850D-02-0.174D-01-0.373D-01 0.177D-01
 Coeff:      0.359D+00 0.687D+00
 Gap=     0.127 Goal=   None    Shift=    0.000
 RMSDP=1.64D-06 MaxDP=3.14D-04 DE=-1.50D-05 OVMax= 1.05D-03

 Cycle   9  Pass 1  IDiag  1:
 RMSU=  7.98D-07    CP:  9.94D-01  9.97D-01  9.18D-01  6.88D-01  1.09D+00
                    CP:  1.23D+00  1.20D+00  1.12D+00
 E= -4111.60969902953     Delta-E=       -0.000003538342 Rises=F Damp=F
 DIIS: error= 8.82D-06 at cycle   9 NSaved=   9.
 NSaved= 9 IEnMin= 9 EnMin= -4111.60969902953     IErMin= 9 ErrMin= 8.82D-06
 ErrMax= 8.82D-06  0.00D+00 EMaxC= 1.00D-01 BMatC= 2.04D-07 BMatP= 2.34D-06
 IDIUse=1 WtCom= 1.00D+00 WtEn= 0.00D+00
 Coeff-Com:  0.398D-04 0.343D-04-0.128D-02-0.390D-02-0.170D-01-0.276D-01
 Coeff-Com:  0.108D-01 0.217D+00 0.822D+00
 Coeff:      0.398D-04 0.343D-04-0.128D-02-0.390D-02-0.170D-01-0.276D-01
 Coeff:      0.108D-01 0.217D+00 0.822D+00
 Gap=     0.127 Goal=   None    Shift=    0.000
 RMSDP=6.71D-07 MaxDP=1.00D-04 DE=-3.54D-06 OVMax= 4.89D-04

 Cycle  10  Pass 1  IDiag  1:
 RMSU=  2.92D-07    CP:  9.94D-01  9.97D-01  9.18D-01  6.88D-01  1.10D+00
                    CP:  1.25D+00  1.24D+00  1.27D+00  1.21D+00
 E= -4111.60969948356     Delta-E=       -0.000000454031 Rises=F Damp=F
 DIIS: error= 2.85D-06 at cycle  10 NSaved=  10.
 NSaved=10 IEnMin=10 EnMin= -4111.60969948356     IErMin=10 ErrMin= 2.85D-06
 ErrMax= 2.85D-06  0.00D+00 EMaxC= 1.00D-01 BMatC= 4.17D-08 BMatP= 2.04D-07
 IDIUse=1 WtCom= 1.00D+00 WtEn= 0.00D+00
 Coeff-Com: -0.941D-04 0.234D-03 0.774D-03 0.110D-02-0.151D-02-0.123D-01
 Coeff-Com: -0.504D-01-0.201D-01 0.338D+00 0.744D+00
 Coeff:     -0.941D-04 0.234D-03 0.774D-03 0.110D-02-0.151D-02-0.123D-01
 Coeff:     -0.504D-01-0.201D-01 0.338D+00 0.744D+00
 Gap=     0.127 Goal=   None    Shift=    0.000
 RMSDP=2.69D-07 MaxDP=6.09D-05 DE=-4.54D-07 OVMax= 2.22D-04

 Cycle  11  Pass 1  IDiag  1:
 RMSU=  1.24D-07    CP:  9.94D-01  9.97D-01  9.18D-01  6.88D-01  1.10D+00
                    CP:  1.26D+00  1.25D+00  1.33D+00  1.36D+00  1.11D+00
 E= -4111.60969955749     Delta-E=       -0.000000073935 Rises=F Damp=F
 DIIS: error= 7.72D-07 at cycle  11 NSaved=  11.
 NSaved=11 IEnMin=11 EnMin= -4111.60969955749     IErMin=11 ErrMin= 7.72D-07
 ErrMax= 7.72D-07  0.00D+00 EMaxC= 1.00D-01 BMatC= 4.75D-09 BMatP= 4.17D-08
 IDIUse=1 WtCom= 1.00D+00 WtEn= 0.00D+00
 Coeff-Com: -0.376D-04 0.772D-04 0.462D-03 0.954D-03 0.150D-02-0.598D-03
 Coeff-Com: -0.198D-01-0.359D-01 0.104D-01 0.274D+00 0.769D+00
 Coeff:     -0.376D-04 0.772D-04 0.462D-03 0.954D-03 0.150D-02-0.598D-03
 Coeff:     -0.198D-01-0.359D-01 0.104D-01 0.274D+00 0.769D+00
 Gap=     0.127 Goal=   None    Shift=    0.000
 RMSDP=9.57D-08 MaxDP=2.60D-05 DE=-7.39D-08 OVMax= 6.43D-05

 Cycle  12  Pass 1  IDiag  1:
 RMSU=  4.46D-08    CP:  9.94D-01  9.97D-01  9.18D-01  6.88D-01  1.10D+00
                    CP:  1.26D+00  1.25D+00  1.35D+00  1.42D+00  1.23D+00
                    CP:  1.14D+00
 E= -4111.60969956516     Delta-E=       -0.000000007674 Rises=F Damp=F
 DIIS: error= 6.31D-07 at cycle  12 NSaved=  12.
 NSaved=12 IEnMin=12 EnMin= -4111.60969956516     IErMin=12 ErrMin= 6.31D-07
 ErrMax= 6.31D-07  0.00D+00 EMaxC= 1.00D-01 BMatC= 7.01D-10 BMatP= 4.75D-09
 IDIUse=1 WtCom= 1.00D+00 WtEn= 0.00D+00
 Coeff-Com: -0.638D-05 0.918D-05 0.117D-03 0.298D-03 0.740D-03 0.101D-02
 Coeff-Com: -0.351D-02-0.135D-01-0.308D-01 0.452D-01 0.319D+00 0.681D+00
 Coeff:     -0.638D-05 0.918D-05 0.117D-03 0.298D-03 0.740D-03 0.101D-02
 Coeff:     -0.351D-02-0.135D-01-0.308D-01 0.452D-01 0.319D+00 0.681D+00
 Gap=     0.127 Goal=   None    Shift=    0.000
 RMSDP=2.96D-08 MaxDP=8.80D-06 DE=-7.67D-09 OVMax= 2.46D-05

 Cycle  13  Pass 1  IDiag  1:
 RMSU=  1.77D-08    CP:  9.94D-01  9.97D-01  9.18D-01  6.88D-01  1.10D+00
                    CP:  1.26D+00  1.25D+00  1.35D+00  1.43D+00  1.26D+00
                    CP:  1.25D+00  1.10D+00
 E= -4111.60969956630     Delta-E=       -0.000000001139 Rises=F Damp=F
 DIIS: error= 4.73D-07 at cycle  13 NSaved=  13.
 NSaved=13 IEnMin=13 EnMin= -4111.60969956630     IErMin=13 ErrMin= 4.73D-07
 ErrMax= 4.73D-07  0.00D+00 EMaxC= 1.00D-01 BMatC= 1.88D-10 BMatP= 7.01D-10
 IDIUse=1 WtCom= 1.00D+00 WtEn= 0.00D+00
 Coeff-Com:  0.428D-05-0.105D-04-0.343D-04-0.373D-04 0.751D-04 0.688D-03
 Coeff-Com:  0.218D-02 0.419D-03-0.173D-01-0.302D-01-0.217D-02 0.346D+00
 Coeff-Com:  0.701D+00
 Coeff:      0.428D-05-0.105D-04-0.343D-04-0.373D-04 0.751D-04 0.688D-03
 Coeff:      0.218D-02 0.419D-03-0.173D-01-0.302D-01-0.217D-02 0.346D+00
 Coeff:      0.701D+00
 Gap=     0.127 Goal=   None    Shift=    0.000
 RMSDP=1.70D-08 MaxDP=4.86D-06 DE=-1.14D-09 OVMax= 1.21D-05

 Cycle  14  Pass 1  IDiag  1:
 RMSU=  8.01D-09    CP:  9.94D-01  9.97D-01  9.18D-01  6.88D-01  1.10D+00
                    CP:  1.26D+00  1.25D+00  1.35D+00  1.44D+00  1.28D+00
                    CP:  1.31D+00  1.28D+00  1.15D+00
 E= -4111.60969956652     Delta-E=       -0.000000000216 Rises=F Damp=F
 DIIS: error= 2.26D-07 at cycle  14 NSaved=  14.
 NSaved=14 IEnMin=14 EnMin= -4111.60969956652     IErMin=14 ErrMin= 2.26D-07
 ErrMax= 2.26D-07  0.00D+00 EMaxC= 1.00D-01 BMatC= 3.89D-11 BMatP= 1.88D-10
 IDIUse=1 WtCom= 1.00D+00 WtEn= 0.00D+00
 Coeff-Com:  0.290D-05-0.616D-05-0.367D-04-0.670D-04-0.949D-04 0.160D-03
 Coeff-Com:  0.161D-02 0.261D-02-0.273D-02-0.222D-01-0.627D-01 0.489D-01
 Coeff-Com:  0.357D+00 0.678D+00
 Coeff:      0.290D-05-0.616D-05-0.367D-04-0.670D-04-0.949D-04 0.160D-03
 Coeff:      0.161D-02 0.261D-02-0.273D-02-0.222D-01-0.627D-01 0.489D-01
 Coeff:      0.357D+00 0.678D+00
 Gap=     0.127 Goal=   None    Shift=    0.000
 RMSDP=8.18D-09 MaxDP=2.12D-06 DE=-2.16D-10 OVMax= 7.73D-06

 Cycle  15  Pass 1  IDiag  1:
 RMSU=  3.80D-09    CP:  9.94D-01  9.97D-01  9.18D-01  6.88D-01  1.10D+00
                    CP:  1.26D+00  1.25D+00  1.35D+00  1.44D+00  1.28D+00
                    CP:  1.33D+00  1.36D+00  1.37D+00  1.15D+00
 E= -4111.60969956707     Delta-E=       -0.000000000553 Rises=F Damp=F
 DIIS: error= 8.64D-08 at cycle  15 NSaved=  15.
 NSaved=15 IEnMin=15 EnMin= -4111.60969956707     IErMin=15 ErrMin= 8.64D-08
 ErrMax= 8.64D-08  0.00D+00 EMaxC= 1.00D-01 BMatC= 7.93D-12 BMatP= 3.89D-11
 IDIUse=1 WtCom= 1.00D+00 WtEn= 0.00D+00
 Coeff-Com:  0.145D-06-0.400D-07-0.815D-05-0.196D-04-0.626D-04-0.872D-04
 Coeff-Com:  0.178D-03 0.108D-02 0.282D-02-0.265D-02-0.289D-01-0.577D-01
 Coeff-Com:  0.260D-02 0.312D+00 0.771D+00
 Coeff:      0.145D-06-0.400D-07-0.815D-05-0.196D-04-0.626D-04-0.872D-04
 Coeff:      0.178D-03 0.108D-02 0.282D-02-0.265D-02-0.289D-01-0.577D-01
 Coeff:      0.260D-02 0.312D+00 0.771D+00
 Gap=     0.127 Goal=   None    Shift=    0.000
 RMSDP=4.85D-09 MaxDP=1.08D-06 DE=-5.53D-10 OVMax= 5.58D-06

 Cycle  16  Pass 1  IDiag  1:
 RMSU=  1.82D-09    CP:  9.94D-01  9.97D-01  9.18D-01  6.88D-01  1.10D+00
                    CP:  1.26D+00  1.25D+00  1.35D+00  1.44D+00  1.28D+00
                    CP:  1.34D+00  1.40D+00  1.50D+00  1.46D+00  1.36D+00
 E= -4111.60969956694     Delta-E=        0.000000000136 Rises=F Damp=F
 DIIS: error= 2.91D-08 at cycle  16 NSaved=  16.
 NSaved=16 IEnMin=15 EnMin= -4111.60969956707     IErMin=16 ErrMin= 2.91D-08
 ErrMax= 2.91D-08  0.00D+00 EMaxC= 1.00D-01 BMatC= 1.90D-12 BMatP= 7.93D-12
 IDIUse=1 WtCom= 1.00D+00 WtEn= 0.00D+00
 Coeff-Com: -0.629D-06 0.145D-05 0.548D-05 0.826D-05-0.459D-05-0.725D-04
 Coeff-Com: -0.336D-03-0.172D-03 0.197D-02 0.476D-02 0.419D-02-0.418D-01
 Coeff-Com: -0.990D-01-0.438D-01 0.349D+00 0.826D+00
 Coeff:     -0.629D-06 0.145D-05 0.548D-05 0.826D-05-0.459D-05-0.725D-04
 Coeff:     -0.336D-03-0.172D-03 0.197D-02 0.476D-02 0.419D-02-0.418D-01
 Coeff:     -0.990D-01-0.438D-01 0.349D+00 0.826D+00
 Gap=     0.127 Goal=   None    Shift=    0.000
 RMSDP=3.05D-09 MaxDP=4.60D-07 DE= 1.36D-10 OVMax= 4.05D-06

 Error on total polarization charges =  0.03043
 SCF Done:  E(RM062X) =  -4111.60969957     A.U. after   16 cycles
            NFock= 16  Conv=0.31D-08     -V/T= 2.0044
 KE= 4.093790092584D+03 PE=-2.979209697788D+04 EE= 1.151164132847D+04
 Leave Link  502 at Fri Nov 14 00:50:06 2025, MaxMem= 30870077440 cpu:          115171.4 elap:            1839.4
 (Enter /public/software/gauss/g16/l601.exe)
 Copying SCF densities to generalized density rwf, IOpCl= 0 IROHF=0.
 Hyperfine terms turned off by default for NAtoms > 100.

 **********************************************************************

            Population analysis using the SCF density.

 **********************************************************************

 Orbital symmetries:
       Occupied  (A) (A) (A) (A) (A) (A) (A) (A) (A) (A) (A) (A)
                 (A) (A) (A) (A) (A) (A) (A) (A) (A) (A) (A) (A)
                 (A) (A) (A) (A) (A) (A) (A) (A) (A) (A) (A) (A)
                 (A) (A) (A) (A) (A) (A) (A) (A) (A) (A) (A) (A)
                 (A) (A) (A) (A) (A) (A) (A) (A) (A) (A) (A) (A)
                 (A) (A) (A) (A) (A) (A) (A) (A) (A) (A) (A) (A)
                 (A) (A) (A) (A) (A) (A) (A) (A) (A) (A) (A) (A)
                 (A) (A) (A) (A) (A) (A) (A) (A) (A) (A) (A) (A)
                 (A) (A) (A) (A) (A) (A) (A) (A) (A) (A) (A) (A)
                 (A) (A) (A) (A) (A) (A) (A) (A) (A) (A) (A) (A)
                 (A) (A) (A) (A) (A) (A) (A) (A) (A) (A) (A) (A)
                 (A) (A) (A) (A) (A) (A) (A) (A) (A) (A) (A) (A)
                 (A) (A) (A) (A) (A) (A) (A) (A) (A) (A) (A) (A)
                 (A) (A) (A) (A) (A) (A) (A) (A) (A) (A) (A) (A)
                 (A) (A) (A) (A) (A) (A) (A) (A) (A) (A) (A) (A)
                 (A) (A) (A) (A) (A) (A) (A) (A) (A) (A) (A) (A)
                 (A) (A) (A) (A) (A) (A) (A) (A) (A) (A) (A) (A)
                 (A) (A) (A) (A) (A) (A) (A) (A) (A) (A) (A) (A)
                 (A) (A) (A) (A) (A) (A) (A) (A) (A) (A) (A) (A)
                 (A) (A) (A) (A) (A) (A) (A) (A) (A) (A) (A) (A)
                 (A) (A) (A) (A) (A) (A) (A) (A) (A) (A) (A) (A)
                 (A) (A) (A) (A) (A) (A) (A) (A) (A)
       Virtual   (A) (A) (A) (A) (A) (A) (A) (A) (A) (A) (A) (A)
                 (A) (A) (A) (A) (A) (A) (A) (A) (A) (A) (A) (A)
                 (A) (A) (A) (A) (A) (A) (A) (A) (A) (A) (A) (A)
                 (A) (A) (A) (A) (A) (A) (A) (A) (A) (A) (A) (A)
                 (A) (A) (A) (A) (A) (A) (A) (A) (A) (A) (A) (A)
                 (A) (A) (A) (A) (A) (A) (A) (A) (A) (A) (A) (A)
                 (A) (A) (A) (A) (A) (A) (A) (A) (A) (A) (A) (A)
                 (A) (A) (A) (A) (A) (A) (A) (A) (A) (A) (A) (A)
                 (A) (A) (A) (A) (A) (A) (A) (A) (A) (A) (A) (A)
                 (A) (A) (A) (A) (A) (A) (A) (A) (A) (A) (A) (A)
                 (A) (A) (A) (A) (A) (A) (A) (A) (A) (A) (A) (A)
                 (A) (A) (A) (A) (A) (A) (A) (A) (A) (A) (A) (A)
                 (A) (A) (A) (A) (A) (A) (A) (A) (A) (A) (A) (A)
                 (A) (A) (A) (A) (A) (A) (A) (A) (A) (A) (A) (A)
                 (A) (A) (A) (A) (A) (A) (A) (A) (A) (A) (A) (A)
                 (A) (A) (A) (A) (A) (A) (A) (A) (A) (A) (A) (A)
                 (A) (A) (A) (A) (A) (A) (A) (A) (A) (A) (A) (A)
                 (A) (A) (A) (A) (A) (A) (A) (A) (A) (A) (A) (A)
                 (A) (A) (A) (A) (A) (A) (A) (A) (A) (A) (A) (A)
                 (A) (A) (A) (A) (A) (A) (A) (A) (A) (A) (A) (A)
                 (A) (A) (A) (A) (A) (A) (A) (A) (A) (A) (A) (A)
                 (A) (A) (A) (A) (A) (A) (A) (A) (A) (A) (A) (A)
                 (A) (A) (A) (A) (A) (A) (A) (A) (A) (A) (A) (A)
                 (A) (A) (A) (A) (A) (A) (A) (A) (A) (A) (A) (A)
                 (A) (A) (A) (A) (A) (A) (A) (A) (A) (A) (A) (A)
                 (A) (A) (A) (A) (A) (A) (A) (A) (A) (A) (A) (A)
                 (A) (A) (A) (A) (A) (A) (A) (A) (A) (A) (A) (A)
                 (A) (A) (A) (A) (A) (A) (A) (A) (A) (A) (A) (A)
                 (A) (A) (A) (A) (A) (A) (A) (A) (A) (A) (A) (A)
                 (A) (A) (A) (A) (A) (A) (A) (A) (A) (A) (A) (A)
                 (A) (A) (A) (A) (A) (A) (A) (A) (A) (A) (A) (A)
                 (A) (A) (A) (A) (A) (A) (A) (A) (A) (A) (A) (A)
                 (A) (A) (A) (A) (A) (A) (A) (A) (A) (A) (A) (A)
                 (A) (A) (A) (A) (A) (A) (A) (A) (A) (A) (A) (A)
                 (A) (A) (A) (A) (A) (A) (A) (A) (A) (A) (A) (A)
                 (A) (A) (A) (A) (A) (A) (A) (A) (A) (A) (A) (A)
                 (A) (A) (A) (A) (A) (A) (A) (A) (A) (A) (A) (A)
                 (A) (A) (A) (A) (A) (A) (A) (A) (A) (A) (A) (A)
                 (A) (A) (A) (A) (A) (A) (A) (A) (A) (A) (A) (A)
                 (A) (A) (A) (A) (A) (A) (A) (A) (A) (A) (A) (A)
                 (A) (A) (A) (A) (A) (A) (A) (A) (A) (A) (A) (A)
                 (A) (A) (A) (A) (A) (A) (A) (A) (A) (A) (A) (A)
                 (A) (A) (A) (A) (A) (A) (A) (A) (A) (A) (A) (A)
                 (A) (A) (A) (A) (A) (A) (A) (A) (A) (A) (A) (A)
                 (A) (A) (A) (A) (A) (A) (A) (A) (A) (A) (A) (A)
                 (A) (A) (A) (A) (A) (A) (A) (A) (A) (A) (A) (A)
                 (A) (A) (A) (A) (A) (A) (A) (A) (A) (A) (A) (A)
                 (A) (A) (A) (A) (A) (A) (A) (A) (A) (A) (A) (A)
                 (A) (A) (A) (A) (A) (A) (A) (A) (A) (A) (A) (A)
                 (A) (A) (A) (A) (A) (A) (A) (A) (A) (A) (A) (A)
                 (A) (A) (A) (A) (A) (A) (A) (A) (A) (A) (A) (A)
                 (A) (A) (A) (A) (A) (A) (A) (A) (A) (A) (A) (A)
                 (A) (A) (A) (A) (A) (A) (A) (A) (A) (A) (A) (A)
                 (A) (A) (A) (A) (A) (A) (A) (A) (A) (A) (A) (A)
                 (A) (A) (A) (A) (A) (A) (A) (A) (A) (A) (A) (A)
                 (A) (A) (A) (A) (A) (A) (A) (A) (A) (A) (A) (A)
                 (A) (A) (A) (A) (A) (A) (A) (A) (A) (A) (A) (A)
                 (A) (A) (A) (A) (A) (A) (A) (A) (A) (A) (A) (A)
                 (A) (A) (A) (A) (A) (A) (A) (A) (A) (A) (A) (A)
                 (A) (A) (A) (A) (A) (A) (A) (A) (A) (A) (A) (A)
                 (A) (A) (A) (A) (A) (A) (A) (A) (A) (A) (A) (A)
                 (A) (A) (A) (A) (A) (A) (A) (A) (A) (A) (A) (A)
                 (A) (A) (A) (A) (A) (A) (A) (A) (A) (A) (A) (A)
                 (A) (A) (A) (A) (A) (A) (A) (A) (A) (A) (A) (A)
                 (A) (A) (A) (A) (A) (A) (A) (A) (A) (A) (A) (A)
                 (A) (A) (A) (A) (A) (A) (A) (A) (A) (A) (A) (A)
                 (A) (A) (A) (A) (A) (A) (A) (A) (A) (A) (A) (A)
                 (A) (A) (A) (A) (A) (A) (A) (A) (A) (A) (A) (A)
                 (A) (A) (A) (A) (A) (A) (A) (A) (A) (A) (A) (A)
                 (A) (A) (A) (A) (A) (A) (A) (A) (A) (A) (A) (A)
                 (A) (A) (A) (A) (A) (A) (A) (A) (A) (A) (A) (A)
                 (A) (A) (A) (A) (A) (A) (A) (A) (A) (A) (A) (A)
                 (A) (A) (A) (A) (A) (A) (A) (A) (A) (A) (A) (A)
                 (A) (A) (A) (A) (A) (A) (A) (A) (A) (A) (A) (A)
                 (A) (A) (A) (A) (A) (A) (A) (A) (A) (A) (A) (A)
                 (A) (A) (A) (A) (A) (A) (A) (A) (A) (A) (A) (A)
                 (A) (A) (A) (A) (A) (A) (A) (A) (A) (A) (A) (A)
                 (A) (A) (A) (A) (A) (A) (A) (A) (A) (A) (A) (A)
                 (A) (A) (A) (A) (A) (A) (A) (A) (A) (A) (A) (A)
                 (A) (A) (A) (A) (A) (A) (A) (A) (A) (A) (A) (A)
                 (A) (A) (A) (A) (A) (A) (A) (A) (A) (A) (A) (A)
                 (A) (A) (A) (A) (A) (A) (A) (A) (A) (A) (A) (A)
                 (A) (A) (A) (A) (A) (A) (A) (A) (A) (A) (A) (A)
                 (A) (A) (A) (A) (A) (A) (A) (A) (A) (A) (A) (A)
                 (A) (A) (A) (A) (A) (A) (A) (A) (A) (A) (A) (A)
                 (A) (A) (A) (A) (A) (A) (A) (A) (A) (A) (A) (A)
                 (A) (A) (A) (A) (A) (A) (A) (A) (A) (A) (A) (A)
                 (A) (A) (A) (A) (A) (A) (A) (A) (A) (A) (A) (A)
                 (A) (A) (A) (A) (A) (A) (A) (A) (A) (A) (A) (A)
                 (A) (A) (A) (A) (A) (A) (A) (A) (A) (A) (A) (A)
                 (A) (A) (A) (A) (A) (A) (A) (A) (A) (A) (A) (A)
                 (A) (A) (A) (A) (A) (A) (A) (A) (A) (A) (A) (A)
                 (A) (A) (A) (A) (A) (A) (A) (A) (A) (A) (A) (A)
                 (A) (A) (A) (A) (A) (A) (A) (A) (A) (A) (A) (A)
                 (A) (A) (A) (A) (A) (A) (A) (A) (A) (A) (A) (A)
                 (A) (A) (A) (A) (A) (A) (A) (A) (A) (A) (A) (A)
                 (A) (A) (A) (A) (A) (A) (A) (A) (A) (A) (A) (A)
                 (A) (A) (A) (A) (A) (A) (A) (A) (A) (A) (A) (A)
                 (A) (A) (A) (A) (A) (A) (A) (A) (A) (A) (A) (A)
                 (A) (A) (A) (A) (A) (A) (A) (A) (A) (A) (A) (A)
                 (A) (A) (A) (A) (A) (A) (A) (A) (A) (A) (A) (A)
                 (A) (A) (A) (A) (A) (A) (A) (A) (A) (A) (A) (A)
                 (A) (A) (A) (A) (A) (A) (A) (A) (A) (A) (A) (A)
                 (A) (A) (A) (A) (A) (A) (A) (A) (A) (A) (A) (A)
                 (A) (A) (A) (A) (A) (A) (A) (A) (A) (A) (A) (A)
                 (A) (A) (A) (A) (A) (A) (A) (A) (A) (A) (A) (A)
                 (A) (A) (A) (A) (A) (A) (A) (A) (A) (A) (A) (A)
                 (A) (A) (A) (A) (A) (A) (A) (A) (A) (A) (A) (A)
                 (A) (A) (A) (A) (A) (A) (A) (A) (A) (A) (A) (A)
                 (A) (A) (A) (A) (A) (A) (A) (A) (A) (A) (A) (A)
                 (A) (A) (A) (A) (A) (A) (A) (A) (A) (A) (A) (A)
                 (A) (A) (A) (A) (A) (A) (A) (A) (A) (A) (A) (A)
                 (A) (A) (A) (A) (A) (A) (A) (A) (A) (A) (A) (A)
                 (A) (A) (A) (A) (A) (A) (A) (A) (A) (A) (A) (A)
                 (A) (A) (A) (A) (A) (A) (A) (A) (A) (A) (A) (A)
                 (A) (A) (A) (A) (A) (A) (A) (A) (A) (A) (A) (A)
                 (A) (A) (A) (A) (A) (A) (A) (A) (A) (A) (A) (A)
                 (A) (A) (A) (A) (A) (A) (A) (A) (A) (A) (A) (A)
                 (A) (A) (A) (A) (A) (A) (A) (A) (A) (A) (A) (A)
                 (A) (A) (A) (A) (A) (A) (A) (A) (A) (A) (A) (A)
                 (A) (A) (A) (A) (A) (A) (A) (A) (A) (A) (A) (A)
                 (A) (A) (A) (A) (A) (A) (A) (A) (A) (A) (A) (A)
                 (A) (A) (A) (A) (A) (A) (A) (A) (A) (A) (A) (A)
                 (A) (A) (A) (A) (A) (A) (A) (A) (A) (A) (A) (A)
                 (A) (A) (A) (A) (A) (A) (A) (A) (A) (A) (A) (A)
                 (A) (A) (A) (A) (A) (A) (A) (A) (A) (A) (A) (A)
                 (A) (A) (A) (A) (A) (A) (A) (A) (A) (A) (A) (A)
                 (A) (A) (A) (A) (A) (A) (A) (A) (A) (A) (A) (A)
                 (A) (A) (A) (A) (A) (A) (A) (A) (A) (A) (A) (A)
                 (A) (A) (A) (A) (A) (A) (A) (A) (A) (A) (A) (A)
                 (A) (A) (A) (A) (A) (A) (A) (A) (A) (A) (A) (A)
                 (A) (A) (A) (A) (A) (A) (A) (A) (A) (A) (A) (A)
                 (A) (A) (A) (A) (A) (A) (A) (A) (A) (A) (A) (A)
                 (A) (A) (A) (A) (A) (A) (A) (A) (A) (A) (A) (A)
                 (A) (A) (A) (A) (A) (A) (A) (A) (A) (A) (A) (A)
                 (A) (A) (A) (A) (A) (A) (A) (A) (A) (A) (A) (A)
                 (A) (A) (A) (A) (A) (A) (A) (A) (A) (A) (A) (A)
                 (A) (A) (A) (A) (A) (A) (A) (A) (A) (A) (A) (A)
                 (A) (A) (A) (A) (A) (A) (A) (A) (A) (A) (A) (A)
                 (A) (A) (A) (A) (A) (A) (A) (A) (A) (A) (A) (A)
                 (A) (A) (A) (A) (A) (A) (A) (A) (A) (A) (A) (A)
                 (A) (A) (A) (A) (A) (A) (A) (A) (A) (A) (A) (A)
                 (A) (A) (A) (A) (A) (A) (A) (A) (A) (A) (A) (A)
                 (A) (A) (A) (A) (A) (A) (A) (A) (A) (A) (A) (A)
                 (A) (A) (A) (A) (A) (A) (A) (A) (A) (A) (A) (A)
                 (A) (A) (A) (A) (A) (A) (A) (A) (A) (A) (A) (A)
                 (A) (A) (A) (A) (A) (A) (A) (A) (A) (A) (A) (A)
                 (A) (A) (A) (A) (A) (A) (A) (A) (A) (A) (A) (A)
                 (A) (A) (A) (A) (A) (A) (A) (A) (A) (A) (A) (A)
                 (A) (A) (A) (A) (A) (A) (A) (A) (A) (A) (A) (A)
                 (A) (A) (A) (A) (A) (A) (A) (A) (A) (A) (A) (A)
                 (A) (A) (A) (A) (A) (A) (A) (A) (A) (A) (A) (A)
                 (A) (A) (A) (A) (A) (A) (A) (A) (A) (A) (A) (A)
                 (A) (A) (A) (A) (A) (A) (A) (A) (A) (A) (A) (A)
                 (A) (A) (A) (A) (A) (A) (A) (A) (A) (A) (A) (A)
                 (A) (A) (A) (A) (A) (A) (A) (A) (A) (A) (A) (A)
                 (A) (A) (A) (A) (A) (A) (A) (A) (A) (A) (A) (A)
                 (A) (A) (A) (A) (A) (A) (A) (A) (A) (A) (A) (A)
                 (A) (A) (A) (A) (A) (A) (A) (A) (A) (A) (A) (A)
                 (A) (A) (A) (A) (A) (A) (A) (A) (A) (A) (A) (A)
                 (A) (A) (A) (A) (A) (A) (A) (A) (A) (A) (A) (A)
                 (A) (A) (A) (A) (A) (A) (A) (A) (A) (A) (A) (A)
                 (A) (A) (A) (A) (A) (A) (A) (A) (A) (A) (A) (A)
                 (A) (A) (A) (A) (A) (A) (A) (A) (A) (A) (A) (A)
                 (A) (A) (A) (A) (A) (A) (A) (A) (A) (A) (A) (A)
                 (A) (A) (A) (A) (A) (A) (A) (A) (A) (A) (A) (A)
                 (A) (A) (A) (A) (A) (A) (A) (A) (A) (A) (A) (A)
                 (A) (A) (A) (A) (A) (A) (A) (A) (A) (A) (A) (A)
                 (A) (A) (A) (A) (A) (A) (A) (A) (A) (A) (A) (A)
                 (A) (A) (A) (A) (A) (A) (A) (A) (A) (A) (A) (A)
                 (A) (A) (A) (A) (A) (A) (A) (A) (A) (A) (A) (A)
                 (A) (A) (A) (A) (A) (A) (A) (A) (A) (A) (A) (A)
                 (A) (A) (A) (A) (A) (A) (A) (A) (A) (A) (A) (A)
                 (A) (A) (A) (A) (A) (A) (A) (A) (A) (A) (A) (A)
                 (A) (A) (A) (A) (A) (A) (A) (A) (A) (A) (A) (A)
                 (A) (A) (A) (A) (A) (A) (A) (A) (A) (A) (A) (A)
                 (A) (A) (A) (A) (A) (A) (A) (A) (A) (A) (A) (A)
                 (A) (A) (A) (A) (A) (A) (A) (A) (A) (A) (A) (A)
                 (A) (A) (A) (A) (A) (A) (A) (A) (A) (A) (A) (A)
                 (A) (A) (A) (A) (A) (A) (A) (A) (A) (A) (A) (A)
                 (A) (A) (A) (A) (A) (A) (A) (A) (A) (A) (A) (A)
                 (A) (A) (A) (A) (A) (A) (A) (A) (A) (A) (A) (A)
                 (A) (A) (A) (A) (A) (A) (A) (A) (A) (A) (A) (A)
                 (A) (A) (A) (A) (A) (A) (A) (A) (A) (A) (A) (A)
                 (A) (A) (A) (A) (A) (A) (A) (A) (A) (A) (A) (A)
                 (A) (A) (A) (A) (A) (A) (A) (A) (A) (A) (A) (A)
                 (A) (A) (A) (A) (A) (A) (A) (A) (A) (A) (A) (A)
                 (A) (A) (A) (A) (A) (A) (A) (A) (A) (A) (A) (A)
                 (A) (A) (A) (A) (A) (A) (A) (A) (A) (A) (A) (A)
                 (A) (A) (A) (A) (A) (A) (A) (A) (A) (A) (A) (A)
                 (A) (A) (A) (A) (A) (A) (A) (A) (A) (A) (A) (A)
                 (A) (A) (A) (A) (A) (A) (A) (A) (A) (A) (A) (A)
                 (A) (A) (A) (A) (A) (A) (A) (A) (A) (A) (A) (A)
                 (A) (A) (A) (A) (A) (A) (A) (A) (A) (A) (A) (A)
                 (A) (A) (A) (A) (A) (A) (A) (A) (A) (A) (A) (A)
                 (A) (A) (A) (A) (A) (A) (A) (A) (A) (A) (A) (A)
                 (A) (A) (A) (A) (A) (A) (A) (A) (A) (A) (A) (A)
                 (A) (A) (A) (A) (A) (A) (A) (A) (A) (A) (A) (A)
                 (A) (A) (A) (A) (A) (A) (A) (A) (A) (A) (A) (A)
                 (A) (A) (A) (A) (A) (A) (A) (A) (A) (A) (A) (A)
                 (A) (A) (A) (A) (A) (A) (A) (A) (A) (A) (A) (A)
                 (A) (A) (A) (A) (A) (A) (A) (A) (A) (A) (A) (A)
                 (A) (A) (A) (A) (A) (A) (A) (A) (A) (A) (A) (A)
                 (A) (A) (A) (A) (A) (A) (A) (A) (A) (A) (A) (A)
                 (A) (A) (A) (A) (A) (A) (A) (A) (A) (A) (A) (A)
                 (A) (A) (A) (A) (A) (A) (A) (A) (A) (A) (A) (A)
                 (A) (A) (A) (A) (A) (A) (A) (A) (A) (A) (A) (A)
                 (A) (A) (A) (A) (A) (A) (A) (A) (A) (A) (A) (A)
                 (A) (A) (A) (A) (A) (A) (A) (A) (A) (A) (A) (A)
                 (A) (A) (A) (A) (A) (A) (A) (A) (A) (A) (A) (A)
                 (A) (A) (A) (A) (A) (A) (A) (A) (A) (A) (A) (A)
                 (A) (A) (A) (A) (A) (A) (A) (A) (A) (A) (A) (A)
                 (A) (A) (A) (A) (A) (A) (A) (A) (A) (A) (A) (A)
                 (A) (A) (A) (A) (A) (A) (A) (A) (A) (A) (A) (A)
                 (A) (A) (A) (A) (A) (A) (A) (A) (A) (A) (A) (A)
                 (A) (A) (A) (A) (A) (A) (A) (A) (A) (A) (A) (A)
                 (A) (A) (A) (A) (A) (A) (A) (A) (A) (A) (A) (A)
                 (A) (A) (A) (A) (A) (A) (A) (A) (A) (A) (A) (A)
                 (A) (A) (A) (A) (A) (A) (A) (A) (A) (A) (A) (A)
                 (A) (A) (A) (A) (A) (A) (A) (A) (A) (A) (A) (A)
                 (A) (A) (A) (A) (A) (A) (A) (A) (A) (A) (A) (A)
                 (A) (A) (A) (A)
 The electronic state is 1-A.
 Alpha  occ. eigenvalues -- -102.66329-102.66297 -25.21165 -25.21142 -19.70542
 Alpha  occ. eigenvalues --  -19.68031 -19.68026 -19.66974 -19.66972 -19.65212
 Alpha  occ. eigenvalues --  -19.64008 -19.63910 -19.63657 -19.63634 -19.63406
 Alpha  occ. eigenvalues --  -19.63250 -15.01491 -14.79940 -14.79680 -10.71476
 Alpha  occ. eigenvalues --  -10.62336 -10.62266 -10.62220 -10.62164 -10.62152
 Alpha  occ. eigenvalues --  -10.62102 -10.61630 -10.61222 -10.61008 -10.60881
 Alpha  occ. eigenvalues --  -10.60674 -10.60241 -10.60055 -10.59483 -10.59294
 Alpha  occ. eigenvalues --  -10.58834 -10.58813 -10.58773 -10.58771 -10.58662
 Alpha  occ. eigenvalues --  -10.58649 -10.58594 -10.58592 -10.58589 -10.58576
 Alpha  occ. eigenvalues --  -10.58502 -10.58076 -10.58062 -10.57905 -10.57787
 Alpha  occ. eigenvalues --  -10.57372 -10.57329 -10.57126 -10.56911 -10.56197
 Alpha  occ. eigenvalues --  -10.56182 -10.56160 -10.56120 -10.56052 -10.56043
 Alpha  occ. eigenvalues --  -10.55991 -10.55986 -10.55334 -10.55314 -10.55238
 Alpha  occ. eigenvalues --  -10.55233 -10.55073 -10.54911  -9.82538  -9.82501
 Alpha  occ. eigenvalues --   -7.54741  -7.54703  -7.54227  -7.54218  -7.54187
 Alpha  occ. eigenvalues --   -7.54185  -7.14274  -1.37025  -1.33181  -1.29959
 Alpha  occ. eigenvalues --   -1.26244  -1.20116  -1.20087  -1.18540  -1.17101
 Alpha  occ. eigenvalues --   -1.16762  -1.16721  -1.16143  -1.15753  -1.15419
 Alpha  occ. eigenvalues --   -1.14448  -1.12161  -1.10411  -1.00872  -0.98833
 Alpha  occ. eigenvalues --   -0.98162  -0.97692  -0.97671  -0.95539  -0.93465
 Alpha  occ. eigenvalues --   -0.92535  -0.91288  -0.90240  -0.90012  -0.88790
 Alpha  occ. eigenvalues --   -0.88573  -0.87777  -0.86918  -0.86705  -0.86253
 Alpha  occ. eigenvalues --   -0.85811  -0.85670  -0.84802  -0.84271  -0.82906
 Alpha  occ. eigenvalues --   -0.82209  -0.81634  -0.81214  -0.79607  -0.79245
 Alpha  occ. eigenvalues --   -0.77784  -0.76886  -0.76277  -0.74462  -0.74000
 Alpha  occ. eigenvalues --   -0.72858  -0.72590  -0.71870  -0.71339  -0.71170
 Alpha  occ. eigenvalues --   -0.69802  -0.69613  -0.69253  -0.68939  -0.68164
 Alpha  occ. eigenvalues --   -0.68131  -0.67688  -0.66830  -0.66564  -0.66140
 Alpha  occ. eigenvalues --   -0.65764  -0.64557  -0.63483  -0.63325  -0.62690
 Alpha  occ. eigenvalues --   -0.62584  -0.62175  -0.61809  -0.61648  -0.60133
 Alpha  occ. eigenvalues --   -0.59904  -0.59672  -0.59618  -0.59485  -0.59126
 Alpha  occ. eigenvalues --   -0.58900  -0.58780  -0.58278  -0.57664  -0.57357
 Alpha  occ. eigenvalues --   -0.57243  -0.57012  -0.56454  -0.56164  -0.56034
 Alpha  occ. eigenvalues --   -0.55608  -0.55500  -0.54881  -0.54806  -0.54355
 Alpha  occ. eigenvalues --   -0.54270  -0.54074  -0.53949  -0.53837  -0.53612
 Alpha  occ. eigenvalues --   -0.53448  -0.53353  -0.53331  -0.53005  -0.52353
 Alpha  occ. eigenvalues --   -0.52341  -0.52142  -0.52030  -0.51842  -0.51641
 Alpha  occ. eigenvalues --   -0.51545  -0.51174  -0.50869  -0.50658  -0.50445
 Alpha  occ. eigenvalues --   -0.50215  -0.49864  -0.49855  -0.49095  -0.49009
 Alpha  occ. eigenvalues --   -0.48792  -0.48539  -0.48296  -0.47920  -0.47716
 Alpha  occ. eigenvalues --   -0.47564  -0.47319  -0.47253  -0.46847  -0.46679
 Alpha  occ. eigenvalues --   -0.46476  -0.46391  -0.46339  -0.46140  -0.45775
 Alpha  occ. eigenvalues --   -0.45376  -0.45116  -0.45000  -0.44790  -0.44394
 Alpha  occ. eigenvalues --   -0.44285  -0.44115  -0.43766  -0.43507  -0.43450
 Alpha  occ. eigenvalues --   -0.43216  -0.42970  -0.42788  -0.42731  -0.42269
 Alpha  occ. eigenvalues --   -0.42130  -0.41966  -0.41580  -0.41291  -0.40803
 Alpha  occ. eigenvalues --   -0.40694  -0.40470  -0.40318  -0.40097  -0.40046
 Alpha  occ. eigenvalues --   -0.39818  -0.39793  -0.39745  -0.39251  -0.39039
 Alpha  occ. eigenvalues --   -0.38972  -0.38607  -0.38453  -0.38186  -0.36995
 Alpha  occ. eigenvalues --   -0.36262  -0.35172  -0.34391  -0.34228  -0.34133
 Alpha  occ. eigenvalues --   -0.34048  -0.33966  -0.32506  -0.32496  -0.32469
 Alpha  occ. eigenvalues --   -0.32319  -0.31934  -0.31420  -0.29867  -0.27361
 Alpha  occ. eigenvalues --   -0.23703
 Alpha virt. eigenvalues --   -0.10998  -0.07605  -0.03670  -0.01944  -0.00775
 Alpha virt. eigenvalues --    0.00692   0.00717   0.01100   0.01810   0.04408
 Alpha virt. eigenvalues --    0.05297   0.05635   0.06496   0.06643   0.06840
 Alpha virt. eigenvalues --    0.07041   0.07081   0.07212   0.07564   0.07869
 Alpha virt. eigenvalues --    0.08132   0.08289   0.08349   0.08741   0.08875
 Alpha virt. eigenvalues --    0.08950   0.09038   0.09507   0.09608   0.09695
 Alpha virt. eigenvalues --    0.09775   0.10004   0.10196   0.10331   0.10555
 Alpha virt. eigenvalues --    0.10838   0.11049   0.11099   0.11253   0.11336
 Alpha virt. eigenvalues --    0.11508   0.11889   0.12109   0.12144   0.12289
 Alpha virt. eigenvalues --    0.12587   0.12635   0.12792   0.12868   0.12921
 Alpha virt. eigenvalues --    0.13043   0.13447   0.13607   0.13730   0.13855
 Alpha virt. eigenvalues --    0.13964   0.14183   0.14317   0.14363   0.14441
 Alpha virt. eigenvalues --    0.14682   0.14886   0.15264   0.15337   0.15463
 Alpha virt. eigenvalues --    0.15588   0.15692   0.15753   0.15814   0.16070
 Alpha virt. eigenvalues --    0.16148   0.16334   0.16657   0.16726   0.16816
 Alpha virt. eigenvalues --    0.16869   0.16903   0.17130   0.17386   0.17521
 Alpha virt. eigenvalues --    0.17580   0.17721   0.17954   0.18084   0.18360
 Alpha virt. eigenvalues --    0.18430   0.18496   0.18834   0.18935   0.19235
 Alpha virt. eigenvalues --    0.19408   0.19531   0.19767   0.19992   0.20236
 Alpha virt. eigenvalues --    0.20490   0.20625   0.20939   0.21048   0.21291
 Alpha virt. eigenvalues --    0.21507   0.21596   0.21720   0.21890   0.21916
 Alpha virt. eigenvalues --    0.22204   0.22340   0.22402   0.22583   0.22717
 Alpha virt. eigenvalues --    0.22838   0.22931   0.22979   0.23185   0.23456
 Alpha virt. eigenvalues --    0.23561   0.23824   0.23980   0.24129   0.24366
 Alpha virt. eigenvalues --    0.24493   0.24519   0.24574   0.24640   0.24843
 Alpha virt. eigenvalues --    0.25055   0.25157   0.25275   0.25414   0.25754
 Alpha virt. eigenvalues --    0.25907   0.26047   0.26117   0.26196   0.26526
 Alpha virt. eigenvalues --    0.26717   0.26750   0.26828   0.26938   0.26978
 Alpha virt. eigenvalues --    0.27165   0.27469   0.27598   0.27913   0.27986
 Alpha virt. eigenvalues --    0.28191   0.28302   0.28412   0.28502   0.28969
 Alpha virt. eigenvalues --    0.29015   0.29288   0.29563   0.29776   0.29968
 Alpha virt. eigenvalues --    0.30247   0.30353   0.30397   0.30679   0.30688
 Alpha virt. eigenvalues --    0.30869   0.31006   0.31240   0.31291   0.31648
 Alpha virt. eigenvalues --    0.31762   0.31960   0.32043   0.32115   0.32478
 Alpha virt. eigenvalues --    0.32767   0.32846   0.32911   0.33035   0.33185
 Alpha virt. eigenvalues --    0.33359   0.33449   0.33743   0.33806   0.34073
 Alpha virt. eigenvalues --    0.34145   0.34236   0.34291   0.34494   0.34713
 Alpha virt. eigenvalues --    0.34854   0.34958   0.35245   0.35419   0.35534
 Alpha virt. eigenvalues --    0.35657   0.35786   0.36044   0.36189   0.36405
 Alpha virt. eigenvalues --    0.36451   0.36554   0.36628   0.36679   0.36860
 Alpha virt. eigenvalues --    0.37030   0.37098   0.37138   0.37155   0.37386
 Alpha virt. eigenvalues --    0.37452   0.37614   0.37775   0.37965   0.38102
 Alpha virt. eigenvalues --    0.38219   0.38311   0.38364   0.38648   0.38767
 Alpha virt. eigenvalues --    0.38876   0.38954   0.39118   0.39213   0.39319
 Alpha virt. eigenvalues --    0.39407   0.39484   0.39646   0.39727   0.39875
 Alpha virt. eigenvalues --    0.39970   0.40082   0.40168   0.40348   0.40566
 Alpha virt. eigenvalues --    0.40762   0.40864   0.40975   0.41078   0.41354
 Alpha virt. eigenvalues --    0.41639   0.41836   0.41966   0.42022   0.42186
 Alpha virt. eigenvalues --    0.42341   0.42537   0.42634   0.42745   0.42893
 Alpha virt. eigenvalues --    0.43004   0.43129   0.43175   0.43394   0.43449
 Alpha virt. eigenvalues --    0.43600   0.43776   0.43966   0.44025   0.44287
 Alpha virt. eigenvalues --    0.44434   0.44505   0.44824   0.44887   0.45056
 Alpha virt. eigenvalues --    0.45216   0.45255   0.45357   0.45446   0.45515
 Alpha virt. eigenvalues --    0.45597   0.45678   0.45761   0.46046   0.46233
 Alpha virt. eigenvalues --    0.46474   0.46536   0.46601   0.46795   0.46946
 Alpha virt. eigenvalues --    0.47008   0.47120   0.47509   0.47580   0.47636
 Alpha virt. eigenvalues --    0.47977   0.48015   0.48073   0.48134   0.48221
 Alpha virt. eigenvalues --    0.48454   0.48746   0.48809   0.48822   0.49007
 Alpha virt. eigenvalues --    0.49150   0.49313   0.49444   0.49656   0.49869
 Alpha virt. eigenvalues --    0.50031   0.50149   0.50230   0.50360   0.50528
 Alpha virt. eigenvalues --    0.50570   0.50767   0.50967   0.51050   0.51129
 Alpha virt. eigenvalues --    0.51186   0.51398   0.51599   0.51652   0.51888
 Alpha virt. eigenvalues --    0.52001   0.52099   0.52276   0.52316   0.52464
 Alpha virt. eigenvalues --    0.52478   0.52655   0.52721   0.53002   0.53020
[...]
 Alpha virt. eigenvalues --    4.62993   4.63025   4.63321   4.63759   4.64003
 Alpha virt. eigenvalues --    4.64425   4.64809   4.64924   4.64943   4.65394
 Alpha virt. eigenvalues --    4.65880   4.66247   4.66772   4.67054   4.67546
 Alpha virt. eigenvalues --    4.67636   4.67761   4.67877   4.68087   4.68565
 Alpha virt. eigenvalues --    4.68763   4.69211   4.69606   4.69759   4.69952
 Alpha virt. eigenvalues --    4.70308   4.70645   4.70708   4.70898   4.71247
 Alpha virt. eigenvalues --    4.71580   4.72091   4.72444   4.72589   4.73040
 Alpha virt. eigenvalues --    4.73366   4.73559   4.73723   4.74307   4.75113
 Alpha virt. eigenvalues --    4.75182   4.75409   4.75600   4.75980   4.76372
 Alpha virt. eigenvalues --    4.76723   4.77030   4.77490   4.77666   4.77917
 Alpha virt. eigenvalues --    4.78350   4.78532   4.78874   4.79297   4.79486
 Alpha virt. eigenvalues --    4.79871   4.80141   4.80526   4.80657   4.81472
 Alpha virt. eigenvalues --    4.81773   4.82077   4.82184   4.82414   4.82620
 Alpha virt. eigenvalues --    4.83052   4.83644   4.84148   4.84166   4.84513
 Alpha virt. eigenvalues --    4.84667   4.85286   4.85554   4.86446   4.86900
 Alpha virt. eigenvalues --    4.87057   4.87730   4.87948   4.88235   4.88613
 Alpha virt. eigenvalues --    4.89296   4.89567   4.89780   4.90280   4.90376
 Alpha virt. eigenvalues --    4.90652   4.90880   4.91698   4.92163   4.92627
 Alpha virt. eigenvalues --    4.92741   4.93084   4.93134   4.93222   4.93548
 Alpha virt. eigenvalues --    4.93724   4.93967   4.94031   4.94184   4.94752
 Alpha virt. eigenvalues --    4.94878   4.95152   4.95389   4.95793   4.95942
 Alpha virt. eigenvalues --    4.96023   4.96236   4.96504   4.96727   4.97870
 Alpha virt. eigenvalues --    4.98232   4.98474   4.98618   4.98777   4.99074
 Alpha virt. eigenvalues --    4.99395   4.99545   4.99757   5.00443   5.00770
 Alpha virt. eigenvalues --    5.01570   5.01721   5.01851   5.02257   5.02697
 Alpha virt. eigenvalues --    5.03402   5.03623   5.03968   5.04056   5.04751
 Alpha virt. eigenvalues --    5.05056   5.05459   5.05883   5.06113   5.06530
 Alpha virt. eigenvalues --    5.06799   5.06835   5.07185   5.07441   5.07670
 Alpha virt. eigenvalues --    5.08374   5.08433   5.08887   5.09680   5.09998
 Alpha virt. eigenvalues --    5.10036   5.10487   5.10699   5.11140   5.12363
 Alpha virt. eigenvalues --    5.12482   5.12941   5.13283   5.13569   5.14023
 Alpha virt. eigenvalues --    5.14058   5.14423   5.14781   5.15022   5.15877
 Alpha virt. eigenvalues --    5.16055   5.16658   5.17170   5.17259   5.17549
 Alpha virt. eigenvalues --    5.18026   5.18163   5.18367   5.18787   5.19264
 Alpha virt. eigenvalues --    5.19551   5.19887   5.21055   5.21277   5.21946
 Alpha virt. eigenvalues --    5.22137   5.22448   5.22922   5.23112   5.23994
 Alpha virt. eigenvalues --    5.24269   5.24918   5.25132   5.25334   5.25715
 Alpha virt. eigenvalues --    5.26270   5.26746   5.27311   5.27565   5.27796
 Alpha virt. eigenvalues --    5.28149   5.28270   5.28435   5.28511   5.28781
 Alpha virt. eigenvalues --    5.28804   5.29002   5.29238   5.29551   5.29679
 Alpha virt. eigenvalues --    5.30005   5.30277   5.30504   5.30629   5.30741
 Alpha virt. eigenvalues --    5.31257   5.31469   5.31530   5.31985   5.32111
 Alpha virt. eigenvalues --    5.32193   5.33326   5.33533   5.33851   5.34033
 Alpha virt. eigenvalues --    5.34129   5.34749   5.35396   5.36239   5.36514
 Alpha virt. eigenvalues --    5.37228   5.37261   5.37812   5.37904   5.38236
 Alpha virt. eigenvalues --    5.38387   5.38662   5.38905   5.39258   5.39555
 Alpha virt. eigenvalues --    5.39906   5.40136   5.40546   5.40785   5.41271
 Alpha virt. eigenvalues --    5.41795   5.42241   5.42755   5.42978   5.43204
 Alpha virt. eigenvalues --    5.43498   5.43576   5.44266   5.44565   5.45188
 Alpha virt. eigenvalues --    5.45463   5.46339   5.46431   5.46817   5.47000
 Alpha virt. eigenvalues --    5.47736   5.48149   5.48643   5.48854   5.49308
 Alpha virt. eigenvalues --    5.49956   5.50197   5.51137   5.51182   5.51390
 Alpha virt. eigenvalues --    5.51483   5.52360   5.52978   5.53315   5.54279
 Alpha virt. eigenvalues --    5.54622   5.55150   5.55259   5.55442   5.55618
 Alpha virt. eigenvalues --    5.56207   5.56989   5.57139   5.57343   5.58431
 Alpha virt. eigenvalues --    5.58686   5.58818   5.58968   5.59249   5.59699
 Alpha virt. eigenvalues --    5.59852   5.60022   5.60070   5.60268   5.60629
 Alpha virt. eigenvalues --    5.61091   5.61233   5.62081   5.62386   5.62699
 Alpha virt. eigenvalues --    5.62970   5.63595   5.63803   5.64019   5.64335
 Alpha virt. eigenvalues --    5.64583   5.64653   5.65118   5.65297   5.65751
 Alpha virt. eigenvalues --    5.65928   5.66718   5.66760   5.67100   5.67590
 Alpha virt. eigenvalues --    5.68249   5.69164   5.69932   5.71014   5.71399
 Alpha virt. eigenvalues --    5.73363   5.74417   5.76047   5.77362   5.77515
 Alpha virt. eigenvalues --    5.79647   5.81890   5.83681   5.84090   5.84681
 Alpha virt. eigenvalues --    5.85760   5.86405   5.87545   5.88080   5.88332
 Alpha virt. eigenvalues --    5.88772   5.88896   5.89777   5.91031   5.91606
 Alpha virt. eigenvalues --    5.92700   5.93273   5.94330   5.95293   5.96647
 Alpha virt. eigenvalues --    5.96735   5.98853   6.00179   6.00305   6.00800
 Alpha virt. eigenvalues --    6.02179   6.02946   6.03544   6.03913   6.04633
 Alpha virt. eigenvalues --    6.05294   6.06325   6.06419   6.08938   6.09570
 Alpha virt. eigenvalues --    6.09640   6.10199   6.10439   6.11758   6.12012
 Alpha virt. eigenvalues --    6.16374   6.17632   6.18834   6.21066   6.21967
 Alpha virt. eigenvalues --    6.22226   6.22316   6.22765   6.24733   6.24914
 Alpha virt. eigenvalues --    6.25273   6.25767   6.26505   6.28022   6.28141
 Alpha virt. eigenvalues --    6.28191   6.30551   6.31097   6.32968   6.34941
 Alpha virt. eigenvalues --    6.36039   6.38541   6.38727   6.40056   6.40144
 Alpha virt. eigenvalues --    6.40447   6.41866   6.42076   6.42742   6.43255
 Alpha virt. eigenvalues --    6.44674   6.58641   6.68324   6.72250   6.72252
 Alpha virt. eigenvalues --    6.72863   6.73360   6.73418   6.74771   6.75812
 Alpha virt. eigenvalues --    6.75879   6.76790   6.77012   6.77642   6.77964
 Alpha virt. eigenvalues --    6.80778   6.80785   6.81327   6.83125   6.83574
 Alpha virt. eigenvalues --    6.84093   6.84451   6.84488   6.84802   6.85282
 Alpha virt. eigenvalues --    6.85921   6.86661   6.87465   6.93263   6.93594
 Alpha virt. eigenvalues --    6.93652   6.95285   6.95719   6.96773   6.98301
 Alpha virt. eigenvalues --    6.98499   6.99234   6.99369   7.00286   7.01164
 Alpha virt. eigenvalues --    7.01681   7.03471   7.04592   7.07227   7.08397
 Alpha virt. eigenvalues --    7.08822   7.10834   7.13904   7.16849   7.20696
 Alpha virt. eigenvalues --    7.21766   7.23927   7.26541   7.26703   7.27065
 Alpha virt. eigenvalues --    7.28560   7.29793   7.30063   7.30069   7.30388
 Alpha virt. eigenvalues --    7.33011   7.33280   7.33315   7.33331   7.33445
 Alpha virt. eigenvalues --    7.34138   7.34313   7.38054   7.38195   7.38711
 Alpha virt. eigenvalues --    7.40060   7.44637   7.44744   7.46886   7.47095
 Alpha virt. eigenvalues --    7.50793   8.14848   8.16854   8.21798   8.22150
 Alpha virt. eigenvalues --    8.22220   8.24368   8.34461   8.34943   8.42488
 Alpha virt. eigenvalues --    8.43209   8.46156   8.49130   8.56169   8.61217
 Alpha virt. eigenvalues --    8.82753   8.87762   8.91154   8.92516   8.93353
 Alpha virt. eigenvalues --    9.00410  10.81599  10.82449  10.93875  10.96363
 Alpha virt. eigenvalues --   11.45122  11.45665  15.85095  22.73852  22.76639
 Alpha virt. eigenvalues --   22.87310  22.89163  22.90165  23.06969  23.07431
 Alpha virt. eigenvalues --   23.12596  23.13508  23.14515  23.18829  23.19037
 Alpha virt. eigenvalues --   23.19569  23.23851  23.26353  23.27560  23.27968
 Alpha virt. eigenvalues --   23.29012  23.31134  23.31699  23.31984  23.32193
 Alpha virt. eigenvalues --   23.34115  23.35956  23.36099  23.37382  23.38897
 Alpha virt. eigenvalues --   23.39401  23.39875  23.40217  23.41046  23.42295
 Alpha virt. eigenvalues --   23.43182  23.45539  23.45734  23.47607  23.49627
 Alpha virt. eigenvalues --   23.51055  23.51625  23.55384  23.59081  23.61879
 Alpha virt. eigenvalues --   23.63910  23.73576  23.80205  23.91744  24.06554
 Alpha virt. eigenvalues --   24.09678  24.10042  26.25185  26.27316  32.58325
 Alpha virt. eigenvalues --   33.12471  33.25160  44.20435  44.22328  44.25159
 Alpha virt. eigenvalues --   44.29827  44.34573  44.38449  44.43992  44.48278
 Alpha virt. eigenvalues --   44.48896  44.57028  44.62315  44.63607  57.40852
 Alpha virt. eigenvalues --   57.58505
          Condensed to atoms (all electrons):
 Mulliken charges:
               1
     1  B    0.339492
     2  N   -0.085024
     3  C    0.096965
     4  C   -0.043423
     5  C    0.049827
     6  C    0.132267
     7  C    0.074066
     8  C    0.155012
     9  O   -0.321951
    10  C   -0.165912
    11  C   -0.053905
    12  C   -0.104649
    13  C   -0.093121
    14  C   -0.011132
    15  C   -0.109763
    16  C   -0.087222
    17  N    0.493903
    18  O   -0.367062
    19  O   -0.367018
    20  C    0.109872
    21  N   -0.088477
    22  C    0.083172
    23  C   -0.040851
    24  C    0.047121
    25  C   -0.461235
    26  C   -0.133762
    27  C   -0.083010
    28  C    0.010841
    29  C   -0.153556
    30  C   -0.195082
    31  C    0.232290
    32  O   -0.279075
    33  C   -0.098956
    34  C   -0.145459
    35  O   -0.326901
    36  C   -0.045625
    37  C   -0.135273
    38  O   -0.334290
    39  C   -0.099475
    40  C   -0.107044
    41  O   -0.346249
    42  C   -0.210145
    43  C   -0.172551
    44  C   -0.146030
    45  C   -0.449243
    46  C   -0.165451
    47  C   -0.039055
    48  C   -0.020744
    49  C   -0.149248
    50  C   -0.171787
    51  C    0.226907
    52  O   -0.280105
    53  C   -0.103260
    54  C   -0.093914
    55  O   -0.341222
    56  C   -0.094482
    57  C   -0.060356
    58  O   -0.363393
    59  C   -0.076997
    60  C   -0.037805
    61  O   -0.353056
    62  C   -0.204328
    63  C   -0.196608
    64  C   -0.140186
    65  F   -0.336683
    66  F   -0.334734
    67  H    0.193060
    68  H    0.191533
    69  H    0.164074
    70  H    0.194993
    71  H    0.195783
    72  H    0.160718
    73  H    0.170200
    74  H    0.133760
    75  H    0.176667
    76  H    0.113135
    77  H    0.127659
    78  H    0.155875
    79  H    0.159498
    80  H    0.166304
    81  H    0.153002
    82  H    0.134116
    83  H    0.132028
    84  H    0.126295
    85  H    0.124451
    86  H    0.132343
    87  H    0.133148
    88  H    0.131048
    89  H    0.139957
    90  H    0.138016
    91  H    0.141274
    92  H    0.137669
    93  H    0.123817
    94  H    0.126040
    95  H    0.155098
    96  H    0.141732
    97  H    0.183799
    98  H    0.139851
    99  H    0.134190
   100  H    0.124508
   101  H    0.125913
   102  H    0.144420
   103  H    0.156673
   104  H    0.150657
   105  H    0.151843
   106  H    0.127866
   107  H    0.130129
   108  H    0.127743
   109  H    0.120481
   110  H    0.132766
   111  H    0.124769
   112  H    0.119173
   113  H    0.133798
   114  H    0.112633
   115  H    0.110435
   116  H    0.136640
   117  H    0.120772
   118  H    0.120376
   119  H    0.159518
   120  H    0.148352
   121  O   -0.215247
   122  Cl  -0.060219
   123  Cl  -0.060982
 Sum of Mulliken charges =  -0.00000
 Mulliken charges with hydrogens summed into heavy atoms:
               1
     1  B    0.339492
     2  N   -0.085024
     3  C    0.096965
     4  C   -0.043423
     5  C    0.049827
     6  C    0.132267
     7  C    0.074066
     8  C    0.155012
     9  O   -0.321951
    10  C    0.218681
    11  C   -0.053905
    12  C    0.059425
    13  C    0.101872
    14  C   -0.011132
    15  C    0.086020
    16  C    0.073495
    17  N    0.493903
    18  O   -0.367062
    19  O   -0.367018
    20  C    0.109872
    21  N   -0.088477
    22  C    0.083172
    23  C   -0.040851
    24  C    0.047121
    25  C    0.019393
    26  C   -0.020627
    27  C    0.044649
    28  C    0.010841
    29  C    0.002319
    30  C   -0.035583
    31  C    0.232290
    32  O   -0.279075
    33  C    0.220350
    34  C    0.120685
    35  O   -0.326901
    36  C    0.205121
    37  C    0.130218
    38  O   -0.334290
    39  C    0.171531
    40  C    0.172246
    41  O   -0.346249
    42  C    0.177382
    43  C   -0.017452
    44  C   -0.004298
    45  C    0.008597
    46  C   -0.040942
    47  C    0.086858
    48  C   -0.020744
    49  C   -0.004828
    50  C   -0.015114
    51  C    0.226907
    52  O   -0.280105
    53  C    0.199239
    54  C    0.164081
    55  O   -0.341222
    56  C    0.153743
    57  C    0.197179
    58  O   -0.363393
    59  C    0.175974
    60  C    0.185262
    61  O   -0.353056
    62  C    0.173460
    63  C   -0.037090
    64  C    0.008166
    65  F   -0.336683
    66  F   -0.334734
   121  O   -0.215247
   122  Cl  -0.060219
   123  Cl  -0.060982
 Electronic spatial extent (au):  <R**2>=         135664.5719
 Charge=             -0.0000 electrons
 Dipole moment (field-independent basis, Debye):
    X=             -4.9696    Y=             -3.7495    Z=             -6.0911  Tot=              8.7097
 Quadrupole moment (field-independent basis, Debye-Ang):
   XX=           -386.4914   YY=           -392.3205   ZZ=           -410.0545
   XY=            -50.1915   XZ=             51.7438   YZ=              1.9589
 Traceless Quadrupole moment (field-independent basis, Debye-Ang):
   XX=              9.7974   YY=              3.9683   ZZ=            -13.7657
   XY=            -50.1915   XZ=             51.7438   YZ=              1.9589
 Octapole moment (field-independent basis, Debye-Ang**2):
  XXX=          -1685.1187  YYY=             90.3449  ZZZ=            -60.9731  XYY=            -43.1721
  XXY=          -1188.2593  XXZ=             11.6462  XZZ=           -249.3574  YZZ=            -66.8719
  YYZ=           -359.6565  XYZ=            -84.5512
 Hexadecapole moment (field-independent basis, Debye-Ang**3):
 XXXX=        -130244.2137 YYYY=         -46195.2784 ZZZZ=          -5670.8267 XXXY=          -3038.1438
 XXXZ=           7001.8418 YYYX=            977.7161 YYYZ=           -660.6797 ZZZX=            303.6261
 ZZZY=            213.5568 XXYY=         -28506.5973 XXZZ=         -21171.5046 YYZZ=          -8215.1214
 XXYZ=           3258.4917 YYXZ=           2761.8766 ZZXY=            498.3797
 N-N= 1.007505585726D+04 E-N=-2.979209698015D+04  KE= 4.093790092584D+03
 Leave Link  601 at Fri Nov 14 00:50:08 2025, MaxMem= 30870077440 cpu:             113.5 elap:               2.2
 (Enter /public/software/gauss/g16/l9999.exe)
 1\1\GINC-CU137\SP\RM062X\def2TZVPP\C49H54B1Cl2F2N3O12\BAIDING\14-Nov-2
 025\0\\#p M062X/DEF2TZVPP scrf=(solvent=water) em=GD3\\Energy calculat
 ion for BE_Cl_i\\0,1\B,0,-2.553595,0.689081,0.523143\N,0,-3.708999,-0.
 350313,0.450794\C,0,-3.561887,-1.667215,0.112541\C,0,-4.878088,-2.2014
 72,-0.025442\C,0,-5.822297,-1.218115,0.223499\C,0,-5.062337,-0.042502,
 0.523629\C,0,-5.467552,1.257059,0.852509\C,0,-6.937019,1.546282,1.0234
 55\O,0,-7.572819,1.225202,2.009697\C,0,-8.829348,2.640158,0.03777\C,0,
 -9.764659,1.555767,-0.432923\C,0,-9.846224,1.249177,-1.799759\C,0,-10.
 696262,0.246835,-2.251814\C,0,-11.468248,-0.441082,-1.314291\C,0,-11.4
 13372,-0.156896,0.049835\C,0,-10.551283,0.845216,0.483556\N,0,-12.3679
 99,-1.494261,-1.778838\O,0,-12.414175,-1.737944,-2.988998\O,0,-13.0463
 8,-2.100338,-0.943125\C,0,-4.54214,2.282626,1.089388\N,0,-3.170992,2.0
 60402,0.927393\C,0,-2.498815,3.201259,1.272821\C,0,-3.481796,4.150827,
 1.680415\C,0,-4.751792,3.617805,1.565125\C,0,-6.037437,4.30981,1.88728
 1\C,0,-1.089448,3.475534,1.261372\C,0,-0.095549,2.802854,0.621206\C,0,
 1.318746,3.135663,0.652938\C,0,1.868486,4.199121,1.40812\C,0,3.226555,
 4.458389,1.393296\C,0,4.095518,3.662003,0.622838\O,0,5.414218,3.999658
 ,0.684011\C,0,6.361203,3.231711,-0.078674\C,0,7.741497,3.798891,0.1984
 37\O,0,7.90407,5.155237,-0.202515\C,0,8.05865,5.336999,-1.611863\C,0,8
 .478565,6.773458,-1.86281\O,0,9.756479,7.071556,-1.290646\C,0,10.82168
 5,7.254557,-2.223537\C,0,11.264161,5.978878,-2.935783\O,0,11.567108,4.
 891414,-2.065289\C,0,12.735829,5.088149,-1.275489\C,0,3.578557,2.60180
 7,-0.133747\C,0,2.208716,2.354277,-0.109733\C,0,-7.307347,-1.379819,0.
 184206\C,0,-2.260348,-2.265977,-0.004199\C,0,-1.967737,-3.450781,-0.60
 3008\C,0,-0.646512,-4.046858,-0.722171\C,0,-0.520159,-5.277001,-1.3955
 77\C,0,0.709089,-5.911768,-1.554036\C,0,1.861243,-5.312482,-1.028308\O
 ,0,3.117338,-5.834225,-1.12016\C,0,3.294319,-7.091133,-1.796049\C,0,4.
 761715,-7.442895,-1.745269\O,0,5.118291,-7.727037,-0.393073\C,0,6.4904
 61,-8.082058,-0.218538\C,0,7.388945,-6.848479,-0.098625\O,0,8.747342,-
 7.241215,0.124236\C,0,9.102746,-7.393293,1.500073\C,0,9.619236,-6.0762
 22,2.069774\O,0,9.977388,-6.30212,3.427426\C,0,10.473355,-5.127035,4.0
 55202\C,0,1.761084,-4.08238,-0.351003\C,0,0.533302,-3.46367,-0.202056\
 F,0,-1.610367,0.295402,1.476992\F,0,-1.944122,0.774671,-0.738115\H,0,-
 9.051993,2.951001,1.058111\H,0,-8.85993,3.502343,-0.628345\H,0,-9.2432
 05,1.801744,-2.513249\H,0,-10.768339,0.003684,-3.303916\H,0,-12.028514
 ,-0.708705,0.748686\H,0,-10.488982,1.078119,1.541046\H,0,-6.666571,3.7
 07112,2.547547\H,0,-5.837727,5.257505,2.39051\H,0,-6.612758,4.52593,0.
 981402\H,0,-0.835456,4.373782,1.815897\H,0,-0.347889,1.953456,-0.00212
 6\H,0,1.226091,4.828666,2.015124\H,0,3.645647,5.273962,1.97373\H,0,6.3
 37078,2.181146,0.234846\H,0,6.107452,3.282465,-1.143246\H,0,7.930688,3
 .777008,1.276197\H,0,8.48332,3.154188,-0.29419\H,0,8.812565,4.637687,-
 1.99658\H,0,7.114389,5.1489,-2.143362\H,0,8.472637,6.967405,-2.942059\
 H,0,7.747205,7.445661,-1.397239\H,0,10.547502,7.993965,-2.990792\H,0,1
 1.646049,7.675122,-1.640146\H,0,10.467888,5.614109,-3.591603\H,0,12.13
 3417,6.225006,-3.565921\H,0,12.945853,4.138769,-0.776442\H,0,13.598393
 ,5.36126,-1.899511\H,0,12.597178,5.86145,-0.509456\H,0,4.225542,1.9736
 35,-0.733175\H,0,1.813411,1.530498,-0.697541\H,0,-7.746655,-1.293433,1
 .182422\H,0,-7.773257,-0.621163,-0.450932\H,0,-7.570427,-2.359803,-0.2
 17643\H,0,-1.458116,-1.67942,0.427378\H,0,-2.764028,-4.027246,-1.06166
 9\H,0,-1.410029,-5.746372,-1.805682\H,0,0.758829,-6.856993,-2.079992\H
 ,0,2.697807,-7.86719,-1.302951\H,0,2.974965,-7.005943,-2.841025\H,0,4.
 930604,-8.324765,-2.379986\H,0,5.355737,-6.613737,-2.151232\H,0,6.5420
 05,-8.666658,0.705647\H,0,6.836471,-8.719577,-1.043571\H,0,7.379223,-6
 .270646,-1.027672\H,0,7.023567,-6.19962,0.706593\H,0,8.254643,-7.75330
 3,2.095294\H,0,9.892388,-8.150213,1.546406\H,0,10.489583,-5.735232,1.4
 88547\H,0,8.844367,-5.297188,1.999761\H,0,10.722452,-5.388287,5.086618
 \H,0,11.376678,-4.752916,3.552584\H,0,9.72087,-4.32559,4.060564\H,0,2.
 664329,-3.633288,0.049165\H,0,0.489698,-2.515441,0.323573\O,0,-7.42929
 1,2.205521,-0.031848\Cl,0,-5.269226,-3.862832,-0.3718\Cl,0,-3.113182,5
 .768642,2.208115\\Version=ES64L-G16RevA.03\State=1-A\HF=-4111.6096996\
 RMSD=3.050e-09\Dipole=1.9551974,1.4751815,-2.3964378\Quadrupole=7.2841
 374,2.9503365,-10.2344739,-37.3161818,-38.4702518,-1.4564\PG=C01 [X(C4
 9H54B1Cl2F2N3O12)]\\@


 WE ARE PERHAPS NOT FAR REMOVED FROM THE TIME WHEN WE SHALL BE ABLE TO SUBMIT
 THE BULK OF CHEMICAL PHENOMENA TO CALCULATION.

            -- JOSEPH LOUIS GAY-LUSSAC
               MEMOIRES DE LA SOCIETE D'ARCUEIL, 2, 207 (1808)
 Job cpu time:       1 days  9 hours  1 minutes 43.7 seconds.
 Elapsed time:       0 days  0 hours 31 minutes 38.7 seconds.
 File lengths (MBytes):  RWF=   5646 Int=      0 D2E=      0 Chk=    492 Scr=      1
 Normal termination of Gaussian 16 at Fri Nov 14 00:50:10 2025.
