 Entering Gaussian System, Link 0=g16
 Input=BE_F_i_sp.gjf
 Output=BE_F_i_sp.log
 Initial command:
 /public/software/gauss/g16/l1.exe "/public/home/baiding/1113_modified_sp/tmp_BE_F_i_sp_1602077/Gau-273128.inp" -scrdir="/public/home/baiding/1113_modified_sp/tmp_BE_F_i_sp_1602077/"
 Entering Link 1 = /public/software/gauss/g16/l1.exe PID=    273129.
  
 Copyright (c) 1988,1990,1992,1993,1995,1998,2003,2009,2016,
            Gaussian, Inc.  All Rights Reserved.
  
 This is part of the Gaussian(R) 16 program.  It is based on
 the Gaussian(R) 09 system (copyright 2009, Gaussian, Inc.),
 the Gaussian(R) 03 system (copyright 2003, Gaussian, Inc.),
 the Gaussian(R) 98 system (copyright 1998, Gaussian, Inc.),
 the Gaussian(R) 94 system (copyright 1995, Gaussian, Inc.),
 the Gaussian 92(TM) system (copyright 1992, Gaussian, Inc.),
 the Gaussian 90(TM) system (copyright 1990, Gaussian, Inc.),
 the Gaussian 88(TM) system (copyright 1988, Gaussian, Inc.),
 the Gaussian 86(TM) system (copyright 1986, Carnegie Mellon
 University), and the Gaussian 82(TM) system (copyright 1983,
 Carnegie Mellon University). Gaussian is a federally registered
 trademark of Gaussian, Inc.
  
 This software contains proprietary and confidential information,
 including trade secrets, belonging to Gaussian, Inc.
  
 This software is provided under written license and may be
 used, copied, transmitted, or stored only in accord with that
 written license.
  
 The following legend is applicable only to US Government
 contracts under FAR:
  
                    RESTRICTED RIGHTS LEGEND
  
 Use, reproduction and disclosure by the US Government is
 subject to restrictions as set forth in subparagraphs (a)
 and (c) of the Commercial Computer Software - Restricted
 Rights clause in FAR 52.227-19.
  
 Gaussian, Inc.
 340 Quinnipiac St., Bldg. 40, Wallingford CT 06492
  
  
 ---------------------------------------------------------------
 Warning -- This program may not be used in any manner that
 competes with the business of Gaussian, Inc. or will provide
 assistance to any competitor of Gaussian, Inc.  The licensee
 of this program is prohibited from giving any competitor of
 Gaussian, Inc. access to this program.  By using this program,
 the user acknowledges that Gaussian, Inc. is engaged in the
 business of creating and licensing software in the field of
 computational chemistry and represents and warrants to the
 licensee that it is not a competitor of Gaussian, Inc. and that
 it will not use this program in any manner prohibited above.
 ---------------------------------------------------------------
  

 Cite this work as:
 Gaussian 16, Revision A.03,
 M. J. Frisch, G. W. Trucks, H. B. Schlegel, G. E. Scuseria, 
 M. A. Robb, J. R. Cheeseman, G. Scalmani, V. Barone, 
 G. A. Petersson, H. Nakatsuji, X. Li, M. Caricato, A. V. Marenich, 
 J. Bloino, B. G. Janesko, R. Gomperts, B. Mennucci, H. P. Hratchian, 
 J. V. Ortiz, A. F. Izmaylov, J. L. Sonnenberg, D. Williams-Young, 
 F. Ding, F. Lipparini, F. Egidi, J. Goings, B. Peng, A. Petrone, 
 T. Henderson, D. Ranasinghe, V. G. Zakrzewski, J. Gao, N. Rega, 
 G. Zheng, W. Liang, M. Hada, M. Ehara, K. Toyota, R. Fukuda, 
 J. Hasegawa, M. Ishida, T. Nakajima, Y. Honda, O. Kitao, H. Nakai, 
 T. Vreven, K. Throssell, J. A. Montgomery, Jr., J. E. Peralta, 
 F. Ogliaro, M. J. Bearpark, J. J. Heyd, E. N. Brothers, K. N. Kudin, 
 V. N. Staroverov, T. A. Keith, R. Kobayashi, J. Normand, 
 K. Raghavachari, A. P. Rendell, J. C. Burant, S. S. Iyengar, 
 J. Tomasi, M. Cossi, J. M. Millam, M. Klene, C. Adamo, R. Cammi, 
 J. W. Ochterski, R. L. Martin, K. Morokuma, O. Farkas, 
 J. B. Foresman, and D. J. Fox, Gaussian, Inc., Wallingford CT, 2016.
 
 ******************************************
 Gaussian 16:  ES64L-G16RevA.03 25-Dec-2016
                14-Nov-2025 
 ******************************************
 %nprocshared=64
 Will use up to   64 processors via shared memory.
 %mem=230GB
 %chk=BE_F_i_sp.chk
 ----------------------------------------------
 #p M062X/DEF2TZVPP scrf=(solvent=water) em=GD3
 ----------------------------------------------
 1/38=1,172=1/1;
 2/12=2,17=6,18=5,40=1/2;
 3/5=44,7=202,11=2,25=1,30=1,70=2201,72=1,74=-55,124=31/1,2,3;
 4//1;
 5/5=2,38=5,53=1/2;
 6/7=2,8=2,9=2,10=2,28=1/1;
 99/5=1,9=1/99;
 Leave Link    1 at Fri Nov 14 01:52:29 2025, MaxMem= 30870077440 cpu:              17.9 elap:               0.3
 (Enter /public/software/gauss/g16/l101.exe)
 -----------------------------
 Energy calculation for BE_F_i
 -----------------------------
 Symbolic Z-matrix:
 Charge =  0 Multiplicity = 1
 B                    -2.73876  -0.60211  -0.38852 
 N                    -3.56065  -1.88274  -0.69756 
 C                    -3.03789  -3.13287  -0.88377 
 C                    -4.14574  -3.99099  -1.12043 
 C                    -5.33313  -3.29822  -1.08683 
 C                    -4.94606  -1.94444  -0.80693 
 C                    -5.70789  -0.77902  -0.67329 
 C                    -7.20302  -0.87394  -0.83149 
 O                    -7.79115  -0.55851  -1.84905 
 C                    -9.22785  -1.60574   0.22178 
 C                    -9.99683  -0.37054   0.61531 
 C                    -10.02719   0.03212   1.95907 
 C                    -10.72045   1.17433   2.34135 
 C                    -11.38832   1.90535   1.35754 
 C                    -11.38119   1.5289    0.01484 
 C                    -10.67612   0.38596  -0.34912 
 N                    -12.1237   3.10559   1.74887 
 O                    -12.12498   3.43349   2.9399 
 O                    -12.71509   3.7456    0.87331 
 C                    -5.11839   0.47115  -0.44354 
 N                    -3.72663   0.59727  -0.34774 
 C                    -3.42825   1.90789  -0.073 
 C                    -4.66788   2.59158  -0.00191 
 C                    -5.72974   1.74957  -0.2305 
 C                    -7.17041   2.15044  -0.22909 
 C                    -2.18019   2.57955   0.14062 
 C                    -0.90957   2.12702  -0.03873 
 C                     0.30696   2.87998   0.21816 
 C                     0.33226   4.1927    0.74691 
 C                     1.52766   4.85311   0.96489 
 C                     2.75237   4.2272    0.66374 
 O                     3.87087   4.96438   0.918 
 C                     5.15568   4.39869   0.60725 
 C                     6.21222   5.41944   0.98941 
 O                     6.11255   6.6525    0.28472 
 C                     6.55458   6.59287  -1.07351 
 C                     6.62781   8.00951  -1.61118 
 O                     7.61554   8.79125  -0.93108 
 C                     8.75997   9.14445  -1.7084 
 C                     9.68081   7.97337  -2.04086 
 O                     10.09486   7.20886  -0.91093 
 C                     10.98618   7.89767  -0.03956 
 C                     2.75728   2.92667   0.1425 
 C                     1.54557   2.27504  -0.07175 
 C                    -6.68697  -3.88989  -1.31881 
 C                    -1.63663  -3.42547  -0.84034 
 C                    -1.11297  -4.67771  -0.95049 
 C                     0.29539  -5.02951  -0.91019 
 C                     0.65859  -6.38466  -1.03509 
 C                     1.98676  -6.8011   -0.99982 
 C                     2.999    -5.84641  -0.8342 
 O                     4.33125  -6.13102  -0.78161 
 C                     4.7463   -7.50371  -0.88578 
 C                     6.25131  -7.54511  -0.77189 
 O                     6.62091  -7.16781   0.55366 
 C                     8.0196   -7.27077   0.81916 
 C                     8.80129  -6.05866   0.30484 
 O                     10.18362  -6.17637   0.65847 
 C                     10.52166  -5.61206   1.92754 
 C                     10.91687  -4.14709   1.77509 
 O                     11.25965  -3.65459   3.0644 
 C                     11.66491  -2.29233   3.02924 
 C                     2.66181  -4.48514  -0.70997 
 C                     1.33834  -4.08661  -0.74751 
 F                    -2.07937  -0.72995   0.83677 
 F                    -1.78929  -0.42416  -1.40951 
 H                    -9.49615  -1.94827  -0.77706 
 H                    -9.37795  -2.40888   0.94316 
 H                    -9.50739  -0.55482   2.7096 
 H                    -10.75146   1.49235   3.37529 
 H                    -11.91191   2.11873  -0.72124 
 H                    -10.65254   0.07915  -1.38916 
 H                    -7.75059   1.57014   0.49468 
 H                    -7.25248   3.20551   0.04165 
 H                    -7.63103   2.01352  -1.21139 
 H                    -2.32781   3.60365   0.47341 
 H                    -0.75329   1.12888  -0.42969 
 H                    -0.59493   4.70039   0.99196 
 H                     1.54341   5.85968   1.37028 
 H                     5.31853   3.48264   1.18795 
 H                     5.20144   4.1466   -0.45793 
 H                     6.10685   5.66911   2.04973 
 H                     7.20073   4.9617    0.8401 
 H                     7.53812   6.10717  -1.12467 
 H                     5.8538    6.01639  -1.69455 
 H                     6.82265   7.97521  -2.68943 
 H                     5.65765   8.4996   -1.46126 
 H                     8.45974   9.61986  -2.6541 
 H                     9.29044   9.89572  -1.116 
 H                     9.17062   7.26523  -2.70079 
 H                     10.55449   8.36921  -2.58226 
 H                     11.34724   7.1671    0.68869 
 H                     11.84512   8.30705  -0.58966 
 H                     10.49346   8.7153    0.50149 
 H                     3.68555   2.42161  -0.09386 
 H                     1.55626   1.26654  -0.4757 
 H                    -7.28504  -3.901    -0.40225 
 H                    -7.24711  -3.33512  -2.0772 
 H                    -6.58085  -4.92078  -1.66391 
 H                    -0.97822  -2.57389  -0.71551 
 H                    -1.79016  -5.51712  -1.07705 
 H                    -0.12245  -7.12924  -1.16202 
 H                     2.22032  -7.85382  -1.09951 
 H                     4.28666  -8.0938   -0.08483 
 H                     4.44153  -7.9179   -1.85375 
 H                     6.58717  -8.56983  -0.9869 
 H                     6.6989   -6.87704  -1.51924 
 H                     8.11951  -7.33526   1.90741 
 H                     8.43121  -8.19234   0.38481 
 H                     8.76187  -6.00472  -0.78734 
 H                     8.36372  -5.13606   0.70513 
 H                     9.69401  -5.70574   2.64129 
 H                     11.36944  -6.18416   2.3181 
 H                     11.77055  -4.06208   1.0855 
 H                     10.0839  -3.5666    1.34917 
 H                     11.90684  -1.99736   4.05324 
 H                     12.55347  -2.15295   2.39715 
 H                     10.86261  -1.64353   2.64986 
 H                     3.45972  -3.76055  -0.58335 
 H                     1.10899  -3.03076  -0.64784 
 O                    -7.78141  -1.36671   0.27085 
 F                    -4.03607  -5.3109   -1.36368 
 F                    -4.75842   3.9096    0.25137 
 
 ITRead=  0  0  0  0  0  0  0  0  0  0  0  0  0  0  0  0  0  0  0  0
 ITRead=  0  0  0  0  0  0  0  0  0  0  0  0  0  0  0  0  0  0  0  0
 ITRead=  0  0  0  0  0  0  0  0  0  0  0  0  0  0  0  0  0  0  0  0
 ITRead=  0  0  0  0  0  0  0  0  0  0  0  0  0  0  0  0  0  0  0  0
 ITRead=  0  0  0  0  0  0  0  0  0  0  0  0  0  0  0  0  0  0  0  0
 ITRead=  0  0  0  0  0  0  0  0  0  0  0  0  0  0  0  0  0  0  0  0
 ITRead=  0  0  0
 MicOpt= -1 -1 -1 -1 -1 -1 -1 -1 -1 -1 -1 -1 -1 -1 -1 -1 -1 -1 -1 -1
 MicOpt= -1 -1 -1 -1 -1 -1 -1 -1 -1 -1 -1 -1 -1 -1 -1 -1 -1 -1 -1 -1
 MicOpt= -1 -1 -1 -1 -1 -1 -1 -1 -1 -1 -1 -1 -1 -1 -1 -1 -1 -1 -1 -1
 MicOpt= -1 -1 -1 -1 -1 -1 -1 -1 -1 -1 -1 -1 -1 -1 -1 -1 -1 -1 -1 -1
 MicOpt= -1 -1 -1 -1 -1 -1 -1 -1 -1 -1 -1 -1 -1 -1 -1 -1 -1 -1 -1 -1
 MicOpt= -1 -1 -1 -1 -1 -1 -1 -1 -1 -1 -1 -1 -1 -1 -1 -1 -1 -1 -1 -1
 MicOpt= -1 -1 -1
 NAtoms=    123 NQM=      123 NQMF=       0 NMMI=      0 NMMIF=      0
                NMic=       0 NMicF=      0.
                    Isotopes and Nuclear Properties:
 (Nuclear quadrupole moments (NQMom) in fm**2, nuclear magnetic moments (NMagM)
  in nuclear magnetons)

  Atom         1           2           3           4           5           6           7           8           9          10
 IAtWgt=          11          14          12          12          12          12          12          12          16          12
 AtmWgt=  11.0093053  14.0030740  12.0000000  12.0000000  12.0000000  12.0000000  12.0000000  12.0000000  15.9949146  12.0000000
 NucSpn=           3           2           0           0           0           0           0           0           0           0
 AtZEff=  -0.0000000  -0.0000000  -0.0000000  -0.0000000  -0.0000000  -0.0000000  -0.0000000  -0.0000000  -0.0000000  -0.0000000
 NQMom=    4.0590000   2.0440000   0.0000000   0.0000000   0.0000000   0.0000000   0.0000000   0.0000000   0.0000000   0.0000000
 NMagM=    2.6886370   0.4037610   0.0000000   0.0000000   0.0000000   0.0000000   0.0000000   0.0000000   0.0000000   0.0000000
 AtZNuc=   5.0000000   7.0000000   6.0000000   6.0000000   6.0000000   6.0000000   6.0000000   6.0000000   8.0000000   6.0000000

  Atom        11          12          13          14          15          16          17          18          19          20
 IAtWgt=          12          12          12          12          12          12          14          16          16          12
 AtmWgt=  12.0000000  12.0000000  12.0000000  12.0000000  12.0000000  12.0000000  14.0030740  15.9949146  15.9949146  12.0000000
 NucSpn=           0           0           0           0           0           0           2           0           0           0
 AtZEff=  -0.0000000  -0.0000000  -0.0000000  -0.0000000  -0.0000000  -0.0000000  -0.0000000  -0.0000000  -0.0000000  -0.0000000
 NQMom=    0.0000000   0.0000000   0.0000000   0.0000000   0.0000000   0.0000000   2.0440000   0.0000000   0.0000000   0.0000000
 NMagM=    0.0000000   0.0000000   0.0000000   0.0000000   0.0000000   0.0000000   0.4037610   0.0000000   0.0000000   0.0000000
 AtZNuc=   6.0000000   6.0000000   6.0000000   6.0000000   6.0000000   6.0000000   7.0000000   8.0000000   8.0000000   6.0000000

  Atom        21          22          23          24          25          26          27          28          29          30
 IAtWgt=          14          12          12          12          12          12          12          12          12          12
 AtmWgt=  14.0030740  12.0000000  12.0000000  12.0000000  12.0000000  12.0000000  12.0000000  12.0000000  12.0000000  12.0000000
 NucSpn=           2           0           0           0           0           0           0           0           0           0
 AtZEff=  -0.0000000  -0.0000000  -0.0000000  -0.0000000  -0.0000000  -0.0000000  -0.0000000  -0.0000000  -0.0000000  -0.0000000
 NQMom=    2.0440000   0.0000000   0.0000000   0.0000000   0.0000000   0.0000000   0.0000000   0.0000000   0.0000000   0.0000000
 NMagM=    0.4037610   0.0000000   0.0000000   0.0000000   0.0000000   0.0000000   0.0000000   0.0000000   0.0000000   0.0000000
 AtZNuc=   7.0000000   6.0000000   6.0000000   6.0000000   6.0000000   6.0000000   6.0000000   6.0000000   6.0000000   6.0000000

  Atom        31          32          33          34          35          36          37          38          39          40
 IAtWgt=          12          16          12          12          16          12          12          16          12          12
 AtmWgt=  12.0000000  15.9949146  12.0000000  12.0000000  15.9949146  12.0000000  12.0000000  15.9949146  12.0000000  12.0000000
 NucSpn=           0           0           0           0           0           0           0           0           0           0
 AtZEff=  -0.0000000  -0.0000000  -0.0000000  -0.0000000  -0.0000000  -0.0000000  -0.0000000  -0.0000000  -0.0000000  -0.0000000
 NQMom=    0.0000000   0.0000000   0.0000000   0.0000000   0.0000000   0.0000000   0.0000000   0.0000000   0.0000000   0.0000000
 NMagM=    0.0000000   0.0000000   0.0000000   0.0000000   0.0000000   0.0000000   0.0000000   0.0000000   0.0000000   0.0000000
 AtZNuc=   6.0000000   8.0000000   6.0000000   6.0000000   8.0000000   6.0000000   6.0000000   8.0000000   6.0000000   6.0000000

  Atom        41          42          43          44          45          46          47          48          49          50
 IAtWgt=          16          12          12          12          12          12          12          12          12          12
 AtmWgt=  15.9949146  12.0000000  12.0000000  12.0000000  12.0000000  12.0000000  12.0000000  12.0000000  12.0000000  12.0000000
 NucSpn=           0           0           0           0           0           0           0           0           0           0
 AtZEff=  -0.0000000  -0.0000000  -0.0000000  -0.0000000  -0.0000000  -0.0000000  -0.0000000  -0.0000000  -0.0000000  -0.0000000
 NQMom=    0.0000000   0.0000000   0.0000000   0.0000000   0.0000000   0.0000000   0.0000000   0.0000000   0.0000000   0.0000000
 NMagM=    0.0000000   0.0000000   0.0000000   0.0000000   0.0000000   0.0000000   0.0000000   0.0000000   0.0000000   0.0000000
 AtZNuc=   8.0000000   6.0000000   6.0000000   6.0000000   6.0000000   6.0000000   6.0000000   6.0000000   6.0000000   6.0000000

  Atom        51          52          53          54          55          56          57          58          59          60
 IAtWgt=          12          16          12          12          16          12          12          16          12          12
 AtmWgt=  12.0000000  15.9949146  12.0000000  12.0000000  15.9949146  12.0000000  12.0000000  15.9949146  12.0000000  12.0000000
 NucSpn=           0           0           0           0           0           0           0           0           0           0
 AtZEff=  -0.0000000  -0.0000000  -0.0000000  -0.0000000  -0.0000000  -0.0000000  -0.0000000  -0.0000000  -0.0000000  -0.0000000
 NQMom=    0.0000000   0.0000000   0.0000000   0.0000000   0.0000000   0.0000000   0.0000000   0.0000000   0.0000000   0.0000000
 NMagM=    0.0000000   0.0000000   0.0000000   0.0000000   0.0000000   0.0000000   0.0000000   0.0000000   0.0000000   0.0000000
 AtZNuc=   6.0000000   8.0000000   6.0000000   6.0000000   8.0000000   6.0000000   6.0000000   8.0000000   6.0000000   6.0000000

  Atom        61          62          63          64          65          66          67          68          69          70
 IAtWgt=          16          12          12          12          19          19           1           1           1           1
 AtmWgt=  15.9949146  12.0000000  12.0000000  12.0000000  18.9984033  18.9984033   1.0078250   1.0078250   1.0078250   1.0078250
 NucSpn=           0           0           0           0           1           1           1           1           1           1
 AtZEff=  -0.0000000  -0.0000000  -0.0000000  -0.0000000  -0.0000000  -0.0000000  -0.0000000  -0.0000000  -0.0000000  -0.0000000
 NQMom=    0.0000000   0.0000000   0.0000000   0.0000000   0.0000000   0.0000000   0.0000000   0.0000000   0.0000000   0.0000000
 NMagM=    0.0000000   0.0000000   0.0000000   0.0000000   2.6288670   2.6288670   2.7928460   2.7928460   2.7928460   2.7928460
 AtZNuc=   8.0000000   6.0000000   6.0000000   6.0000000   9.0000000   9.0000000   1.0000000   1.0000000   1.0000000   1.0000000

  Atom        71          72          73          74          75          76          77          78          79          80
 IAtWgt=           1           1           1           1           1           1           1           1           1           1
 AtmWgt=   1.0078250   1.0078250   1.0078250   1.0078250   1.0078250   1.0078250   1.0078250   1.0078250   1.0078250   1.0078250
 NucSpn=           1           1           1           1           1           1           1           1           1           1
 AtZEff=  -0.0000000  -0.0000000  -0.0000000  -0.0000000  -0.0000000  -0.0000000  -0.0000000  -0.0000000  -0.0000000  -0.0000000
 NQMom=    0.0000000   0.0000000   0.0000000   0.0000000   0.0000000   0.0000000   0.0000000   0.0000000   0.0000000   0.0000000
 NMagM=    2.7928460   2.7928460   2.7928460   2.7928460   2.7928460   2.7928460   2.7928460   2.7928460   2.7928460   2.7928460
 AtZNuc=   1.0000000   1.0000000   1.0000000   1.0000000   1.0000000   1.0000000   1.0000000   1.0000000   1.0000000   1.0000000

  Atom        81          82          83          84          85          86          87          88          89          90
 IAtWgt=           1           1           1           1           1           1           1           1           1           1
 AtmWgt=   1.0078250   1.0078250   1.0078250   1.0078250   1.0078250   1.0078250   1.0078250   1.0078250   1.0078250   1.0078250
 NucSpn=           1           1           1           1           1           1           1           1           1           1
 AtZEff=  -0.0000000  -0.0000000  -0.0000000  -0.0000000  -0.0000000  -0.0000000  -0.0000000  -0.0000000  -0.0000000  -0.0000000
 NQMom=    0.0000000   0.0000000   0.0000000   0.0000000   0.0000000   0.0000000   0.0000000   0.0000000   0.0000000   0.0000000
 NMagM=    2.7928460   2.7928460   2.7928460   2.7928460   2.7928460   2.7928460   2.7928460   2.7928460   2.7928460   2.7928460
 AtZNuc=   1.0000000   1.0000000   1.0000000   1.0000000   1.0000000   1.0000000   1.0000000   1.0000000   1.0000000   1.0000000

  Atom        91          92          93          94          95          96          97          98          99         100
 IAtWgt=           1           1           1           1           1           1           1           1           1           1
 AtmWgt=   1.0078250   1.0078250   1.0078250   1.0078250   1.0078250   1.0078250   1.0078250   1.0078250   1.0078250   1.0078250
 NucSpn=           1           1           1           1           1           1           1           1           1           1
 AtZEff=  -0.0000000  -0.0000000  -0.0000000  -0.0000000  -0.0000000  -0.0000000  -0.0000000  -0.0000000  -0.0000000  -0.0000000
 NQMom=    0.0000000   0.0000000   0.0000000   0.0000000   0.0000000   0.0000000   0.0000000   0.0000000   0.0000000   0.0000000
 NMagM=    2.7928460   2.7928460   2.7928460   2.7928460   2.7928460   2.7928460   2.7928460   2.7928460   2.7928460   2.7928460
 AtZNuc=   1.0000000   1.0000000   1.0000000   1.0000000   1.0000000   1.0000000   1.0000000   1.0000000   1.0000000   1.0000000

  Atom       101         102         103         104         105         106         107         108         109         110
 IAtWgt=           1           1           1           1           1           1           1           1           1           1
 AtmWgt=   1.0078250   1.0078250   1.0078250   1.0078250   1.0078250   1.0078250   1.0078250   1.0078250   1.0078250   1.0078250
 NucSpn=           1           1           1           1           1           1           1           1           1           1
 AtZEff=  -0.0000000  -0.0000000  -0.0000000  -0.0000000  -0.0000000  -0.0000000  -0.0000000  -0.0000000  -0.0000000  -0.0000000
 NQMom=    0.0000000   0.0000000   0.0000000   0.0000000   0.0000000   0.0000000   0.0000000   0.0000000   0.0000000   0.0000000
 NMagM=    2.7928460   2.7928460   2.7928460   2.7928460   2.7928460   2.7928460   2.7928460   2.7928460   2.7928460   2.7928460
 AtZNuc=   1.0000000   1.0000000   1.0000000   1.0000000   1.0000000   1.0000000   1.0000000   1.0000000   1.0000000   1.0000000

  Atom       111         112         113         114         115         116         117         118         119         120
 IAtWgt=           1           1           1           1           1           1           1           1           1           1
 AtmWgt=   1.0078250   1.0078250   1.0078250   1.0078250   1.0078250   1.0078250   1.0078250   1.0078250   1.0078250   1.0078250
 NucSpn=           1           1           1           1           1           1           1           1           1           1
 AtZEff=  -0.0000000  -0.0000000  -0.0000000  -0.0000000  -0.0000000  -0.0000000  -0.0000000  -0.0000000  -0.0000000  -0.0000000
 NQMom=    0.0000000   0.0000000   0.0000000   0.0000000   0.0000000   0.0000000   0.0000000   0.0000000   0.0000000   0.0000000
 NMagM=    2.7928460   2.7928460   2.7928460   2.7928460   2.7928460   2.7928460   2.7928460   2.7928460   2.7928460   2.7928460
 AtZNuc=   1.0000000   1.0000000   1.0000000   1.0000000   1.0000000   1.0000000   1.0000000   1.0000000   1.0000000   1.0000000

  Atom       121         122         123
 IAtWgt=          16          19          19
 AtmWgt=  15.9949146  18.9984033  18.9984033
 NucSpn=           0           1           1
 AtZEff=  -0.0000000  -0.0000000  -0.0000000
 NQMom=    0.0000000   0.0000000   0.0000000
 NMagM=    0.0000000   2.6288670   2.6288670
 AtZNuc=   8.0000000   9.0000000   9.0000000
 Leave Link  101 at Fri Nov 14 01:52:29 2025, MaxMem= 30870077440 cpu:               4.7 elap:               0.1
 (Enter /public/software/gauss/g16/l202.exe)
 Stoichiometry    C49H54BF4N3O12
 Framework group  C1[X(C49H54BF4N3O12)]
 Deg. of freedom   363
 Full point group                 C1      NOp   1
 Largest Abelian subgroup         C1      NOp   1
 Largest concise Abelian subgroup C1      NOp   1
                         Standard orientation:                         
 ---------------------------------------------------------------------
 Center     Atomic      Atomic             Coordinates (Angstroms)
 Number     Number       Type             X           Y           Z
 ---------------------------------------------------------------------
      1          5           0       -2.738755   -0.602105   -0.388521
      2          7           0       -3.560649   -1.882742   -0.697557
      3          6           0       -3.037892   -3.132865   -0.883774
      4          6           0       -4.145736   -3.990993   -1.120426
      5          6           0       -5.333132   -3.298225   -1.086828
      6          6           0       -4.946057   -1.944441   -0.806929
      7          6           0       -5.707888   -0.779022   -0.673288
      8          6           0       -7.203023   -0.873935   -0.831491
      9          8           0       -7.791149   -0.558510   -1.849047
     10          6           0       -9.227847   -1.605735    0.221784
     11          6           0       -9.996828   -0.370541    0.615307
     12          6           0      -10.027193    0.032123    1.959067
     13          6           0      -10.720448    1.174333    2.341352
     14          6           0      -11.388319    1.905353    1.357540
     15          6           0      -11.381190    1.528901    0.014836
     16          6           0      -10.676119    0.385962   -0.349122
     17          7           0      -12.123702    3.105594    1.748871
     18          8           0      -12.124984    3.433491    2.939902
     19          8           0      -12.715085    3.745600    0.873314
     20          6           0       -5.118390    0.471148   -0.443540
     21          7           0       -3.726632    0.597267   -0.347736
     22          6           0       -3.428251    1.907888   -0.072999
     23          6           0       -4.667880    2.591581   -0.001910
     24          6           0       -5.729742    1.749573   -0.230498
     25          6           0       -7.170412    2.150436   -0.229090
     26          6           0       -2.180185    2.579548    0.140624
     27          6           0       -0.909571    2.127024   -0.038725
     28          6           0        0.306961    2.879979    0.218162
     29          6           0        0.332258    4.192699    0.746906
     30          6           0        1.527657    4.853110    0.964889
     31          6           0        2.752370    4.227202    0.663737
     32          8           0        3.870869    4.964381    0.917996
     33          6           0        5.155676    4.398694    0.607254
     34          6           0        6.212215    5.419438    0.989409
     35          8           0        6.112549    6.652501    0.284724
     36          6           0        6.554578    6.592869   -1.073514
     37          6           0        6.627811    8.009507   -1.611176
     38          8           0        7.615538    8.791248   -0.931078
     39          6           0        8.759974    9.144447   -1.708401
     40          6           0        9.680812    7.973365   -2.040856
     41          8           0       10.094856    7.208860   -0.910934
     42          6           0       10.986181    7.897673   -0.039558
     43          6           0        2.757284    2.926665    0.142504
     44          6           0        1.545568    2.275039   -0.071746
     45          6           0       -6.686973   -3.889886   -1.318814
     46          6           0       -1.636626   -3.425467   -0.840342
     47          6           0       -1.112974   -4.677711   -0.950487
     48          6           0        0.295389   -5.029508   -0.910193
     49          6           0        0.658588   -6.384658   -1.035094
     50          6           0        1.986764   -6.801101   -0.999824
     51          6           0        2.998999   -5.846408   -0.834204
     52          8           0        4.331245   -6.131021   -0.781608
     53          6           0        4.746299   -7.503713   -0.885783
     54          6           0        6.251315   -7.545105   -0.771887
     55          8           0        6.620908   -7.167810    0.553657
     56          6           0        8.019596   -7.270767    0.819158
     57          6           0        8.801290   -6.058662    0.304839
     58          8           0       10.183620   -6.176369    0.658467
     59          6           0       10.521655   -5.612064    1.927543
     60          6           0       10.916871   -4.147089    1.775093
     61          8           0       11.259645   -3.654594    3.064404
     62          6           0       11.664911   -2.292326    3.029242
     63          6           0        2.661814   -4.485143   -0.709971
     64          6           0        1.338336   -4.086614   -0.747512
     65          9           0       -2.079365   -0.729950    0.836773
     66          9           0       -1.789288   -0.424155   -1.409514
     67          1           0       -9.496150   -1.948266   -0.777055
     68          1           0       -9.377949   -2.408878    0.943161
     69          1           0       -9.507390   -0.554817    2.709597
     70          1           0      -10.751464    1.492345    3.375290
     71          1           0      -11.911905    2.118730   -0.721236
     72          1           0      -10.652539    0.079154   -1.389159
     73          1           0       -7.750594    1.570143    0.494680
     74          1           0       -7.252481    3.205513    0.041654
     75          1           0       -7.631027    2.013520   -1.211386
     76          1           0       -2.327811    3.603649    0.473413
     77          1           0       -0.753293    1.128883   -0.429687
     78          1           0       -0.594931    4.700391    0.991958
     79          1           0        1.543414    5.859680    1.370281
     80          1           0        5.318534    3.482641    1.187953
     81          1           0        5.201438    4.146603   -0.457931
     82          1           0        6.106846    5.669106    2.049728
     83          1           0        7.200732    4.961695    0.840100
     84          1           0        7.538115    6.107173   -1.124670
     85          1           0        5.853796    6.016386   -1.694548
     86          1           0        6.822650    7.975213   -2.689431
     87          1           0        5.657651    8.499600   -1.461255
     88          1           0        8.459745    9.619858   -2.654099
     89          1           0        9.290439    9.895715   -1.115998
     90          1           0        9.170622    7.265226   -2.700794
     91          1           0       10.554490    8.369211   -2.582264
     92          1           0       11.347241    7.167098    0.688688
     93          1           0       11.845121    8.307045   -0.589664
     94          1           0       10.493464    8.715300    0.501487
     95          1           0        3.685548    2.421613   -0.093860
     96          1           0        1.556257    1.266539   -0.475702
     97          1           0       -7.285044   -3.900996   -0.402251
     98          1           0       -7.247111   -3.335122   -2.077197
     99          1           0       -6.580850   -4.920782   -1.663907
    100          1           0       -0.978216   -2.573890   -0.715509
    101          1           0       -1.790160   -5.517118   -1.077046
    102          1           0       -0.122446   -7.129241   -1.162016
    103          1           0        2.220319   -7.853816   -1.099508
    104          1           0        4.286659   -8.093795   -0.084833
    105          1           0        4.441531   -7.917895   -1.853751
    106          1           0        6.587165   -8.569832   -0.986901
    107          1           0        6.698904   -6.877036   -1.519244
    108          1           0        8.119505   -7.335257    1.907414
    109          1           0        8.431213   -8.192345    0.384813
    110          1           0        8.761875   -6.004723   -0.787337
    111          1           0        8.363722   -5.136059    0.705130
    112          1           0        9.694014   -5.705736    2.641293
    113          1           0       11.369442   -6.184158    2.318100
    114          1           0       11.770546   -4.062084    1.085505
    115          1           0       10.083896   -3.566604    1.349170
    116          1           0       11.906837   -1.997355    4.053239
    117          1           0       12.553473   -2.152953    2.397149
    118          1           0       10.862606   -1.643534    2.649862
    119          1           0        3.459715   -3.760553   -0.583352
    120          1           0        1.108991   -3.030764   -0.647839
    121          8           0       -7.781405   -1.366713    0.270849
    122          9           0       -4.036073   -5.310905   -1.363675
    123          9           0       -4.758421    3.909596    0.251366
 ---------------------------------------------------------------------
 Rotational constants (GHZ):           0.0227761           0.0102353           0.0073472
 Leave Link  202 at Fri Nov 14 01:52:29 2025, MaxMem= 30870077440 cpu:               0.2 elap:               0.0
 (Enter /public/software/gauss/g16/l301.exe)
 Standard basis: def2TZVPP (5D, 7F)
 Ernie: Thresh=  0.10000D-02 Tol=  0.10000D-05 Strict=F.
 There are  3294 symmetry adapted cartesian basis functions of A   symmetry.
 There are  2895 symmetry adapted basis functions of A   symmetry.
  2895 basis functions,  4437 primitive gaussians,  3294 cartesian basis functions
   253 alpha electrons      253 beta electrons
       nuclear repulsion energy      9503.0162284504 Hartrees.
 IExCor= 4336 DFT=T Ex+Corr=M062X ExCW=0 ScaHFX=  0.540000
 ScaDFX=  1.000000  1.000000  1.000000  1.000000 ScalE2=  1.000000  1.000000
 IRadAn=      5 IRanWt=     -1 IRanGd=            0 ICorTp=0 IEmpDi=131
 NAtoms=  123 NActive=  123 NUniq=  123 SFac= 1.00D+00 NAtFMM=   60 NAOKFM=T Big=T
 Integral buffers will be    131072 words long.
 Raffenetti 2 integral format.
 Two-electron integral symmetry is turned on.
 R6Disp:  Grimme-D3 Dispersion energy=       -0.0096433594 Hartrees.
 Nuclear repulsion after empirical dispersion term =     9503.0065850910 Hartrees.
 ------------------------------------------------------------------------------
 Polarizable Continuum Model (PCM)
 =================================
 Model                : PCM.
 Atomic radii         : UFF (Universal Force Field).
 Polarization charges : Total charges.
 Charge compensation  : None.
 Solution method      : On-the-fly selection.
 Cavity type          : Scaled VdW (van der Waals Surface) (Alpha=1.100).
 Cavity algorithm     : GePol (No added spheres)
                        Default sphere list used, NSphG=  123.
                        Lebedev-Laikov grids with approx.  5.0 points / Ang**2.
                        Smoothing algorithm: York/Karplus (Gamma=1.0000).
                        Polarization charges: spherical gaussians, with
                                              point-specific exponents (IZeta= 3).
                        Self-potential: point-specific (ISelfS= 7).
                        Self-field    : sphere-specific E.n sum rule (ISelfD= 2).
 Solvent              : Water, Eps=  78.355300 Eps(inf)=   1.777849
 ------------------------------------------------------------------------------
 GePol: Number of generator spheres                  =     123
 GePol: Total number of spheres                      =     123
 GePol: Number of exposed spheres                    =     123 (100.00%)
 GePol: Number of points                             =    8770
 GePol: Average weight of points                     =       0.13
 GePol: Minimum weight of points                     =   0.40D-11
 GePol: Maximum weight of points                     =    0.20577
 GePol: Number of points with low weight             =     561
 GePol: Fraction of low-weight points (<1% of avg)   =       6.40%
 GePol: Cavity surface area                          =   1114.126 Ang**2
 GePol: Cavity volume                                =   1267.966 Ang**3
 Leave Link  301 at Fri Nov 14 01:52:29 2025, MaxMem= 30870077440 cpu:               4.7 elap:               0.1
 (Enter /public/software/gauss/g16/l302.exe)
 NPDir=0 NMtPBC=     1 NCelOv=     1 NCel=       1 NClECP=     1 NCelD=      1
         NCelK=      1 NCelE2=     1 NClLst=     1 CellRange=     0.0.
 One-electron integrals computed using PRISM.
 One-electron integral symmetry used in STVInt
   1 Symmetry operations used in ECPInt.
 ECPInt:  NShTT=  586986 NPrTT= 1644258 LenC2=  236993 LenP2D=  439569.
 LDataN:  DoStor=T MaxTD1= 6 Len=  172
 Number of processors reduced to  58 by ecpmxn.
 NBasis=  2895 RedAO= T EigKep=  5.65D-06  NBF=  2895
 NBsUse=  2895 1.00D-06 EigRej= -1.00D+00 NBFU=  2895
 Precomputing XC quadrature grid using
 IXCGrd= 4 IRadAn=           5 IRanWt=          -1 IRanGd=           0 AccXCQ= 0.00D+00.
 Generated NRdTot=       0 NPtTot=           0 NUsed=           0 NTot=          32
 NSgBfM=  2565  2565  2565  2565  2565 MxSgAt=   123 MxSgA2=   123.
 Leave Link  302 at Fri Nov 14 01:53:00 2025, MaxMem= 30870077440 cpu:            1934.9 elap:              30.3
 (Enter /public/software/gauss/g16/l303.exe)
 DipDrv:  MaxL=1.
 Leave Link  303 at Fri Nov 14 01:53:01 2025, MaxMem= 30870077440 cpu:              57.6 elap:               1.0
 (Enter /public/software/gauss/g16/l401.exe)
 ExpMin= 6.06D-02 ExpMax= 3.55D+04 ExpMxC= 1.21D+03 IAcc=3 IRadAn=         5 AccDes= 0.00D+00
 Harris functional with IExCor= 1009 and IRadAn=       5 diagonalized for initial guess.
 HarFok:  IExCor= 1009 AccDes= 0.00D+00 IRadAn=         5 IDoV= 1 UseB2=F ITyADJ=14
 ICtDFT=  3500011 ScaDFX=  1.000000  1.000000  1.000000  1.000000
 FoFCou: FMM=F IPFlag=           0 FMFlag=      100000 FMFlg1=        2001
         NFxFlg=           0 DoJE=T BraDBF=F KetDBF=T FulRan=T
         wScrn=  0.000000 ICntrl=       500 IOpCl=  0 I1Cent=   200000004 NGrid=           0
         NMat0=    1 NMatS0=      1 NMatT0=    0 NMatD0=    1 NMtDS0=    0 NMtDT0=    0
 Petite list used in FoFCou.
 Harris En= -3389.10404868491    
 JPrj=0 DoOrth=F DoCkMO=F.
 Leave Link  401 at Fri Nov 14 01:53:24 2025, MaxMem= 30870077440 cpu:            1481.3 elap:              23.3
 (Enter /public/software/gauss/g16/l502.exe)
 Integral symmetry usage will be decided dynamically.
 Closed shell SCF:
 Using DIIS extrapolation, IDIIS=  1040.
 NGot= 30870077440 LenX= 30848138025 LenY= 30837284295
 Requested convergence on RMS density matrix=1.00D-08 within 128 cycles.
 Requested convergence on MAX density matrix=1.00D-06.
 Requested convergence on             energy=1.00D-06.
 No special actions if energy rises.
 Fock matrices will be formed incrementally for  20 cycles.

 Cycle   1  Pass 1  IDiag  1:
 FoFJK:  IHMeth= 1 ICntrl=       0 DoSepK=F KAlg= 0 I1Cent=           0 FoldK=F
 IRaf= 360000000 NMat=       1 IRICut=       1 DoRegI=T DoRafI=F ISym2E= 0 IDoP0=0 IntGTp=1.
 FoFCou: FMM=T IPFlag=           0 FMFlag=      100000 FMFlg1=        2001
         NFxFlg=           0 DoJE=F BraDBF=F KetDBF=F FulRan=T
         wScrn=  0.000000 ICntrl=         0 IOpCl=  0 I1Cent=           0 NGrid=           0
         NMat0=    1 NMatS0=      1 NMatT0=    0 NMatD0=    1 NMtDS0=    0 NMtDT0=    0
 Symmetry not used in FoFCou.
 FMM levels:  10  Number of levels for PrismC:   9
 Inv3:  Mode=1 IEnd=   230738700.
 Iteration    1 A*A^-1 deviation from unit magnitude is 3.90D-14 for   3276.
 Iteration    1 A*A^-1 deviation from orthogonality  is 9.50D-15 for   8765   5432.
 Iteration    1 A^-1*A deviation from unit magnitude is 3.90D-14 for   3276.
 Iteration    1 A^-1*A deviation from orthogonality  is 5.67D-15 for   3885   3812.
 E= -3389.44290543785    
 DIIS: error= 2.19D-02 at cycle   1 NSaved=   1.
 NSaved= 1 IEnMin= 1 EnMin= -3389.44290543785     IErMin= 1 ErrMin= 2.19D-02
 ErrMax= 2.19D-02  0.00D+00 EMaxC= 1.00D-01 BMatC= 2.01D+00 BMatP= 2.01D+00
 IDIUse=3 WtCom= 7.81D-01 WtEn= 2.19D-01
 Coeff-Com:  0.100D+01
 Coeff-En:   0.100D+01
 Coeff:      0.100D+01
 Gap=     0.130 Goal=   None    Shift=    0.000
 GapD=    0.130 DampG=1.000 DampE=0.500 DampFc=0.5000 IDamp=-1.
 Damping current iteration by 5.00D-01
 RMSDP=1.42D-03 MaxDP=4.96D-01              OVMax= 2.61D-01

 Cycle   2  Pass 1  IDiag  1:
 RMSU=  7.12D-04    CP:  1.01D+00
 E= -3390.16220217388     Delta-E=       -0.719296736022 Rises=F Damp=T
 DIIS: error= 6.69D-03 at cycle   2 NSaved=   2.
 NSaved= 2 IEnMin= 2 EnMin= -3390.16220217388     IErMin= 2 ErrMin= 6.69D-03
 ErrMax= 6.69D-03  0.00D+00 EMaxC= 1.00D-01 BMatC= 2.19D-01 BMatP= 2.01D+00
 IDIUse=3 WtCom= 9.33D-01 WtEn= 6.69D-02
 Coeff-Com: -0.107D+00 0.111D+01
 Coeff-En:   0.000D+00 0.100D+01
 Coeff:     -0.994D-01 0.110D+01
 Gap=     0.178 Goal=   None    Shift=    0.000
 RMSDP=4.74D-04 MaxDP=1.67D-01 DE=-7.19D-01 OVMax= 1.92D-01

 Cycle   3  Pass 1  IDiag  1:
 RMSU=  4.69D-04    CP:  9.84D-01  9.62D-01
 E= -3390.81398552725     Delta-E=       -0.651783353373 Rises=F Damp=F
 DIIS: error= 1.31D-02 at cycle   3 NSaved=   3.
 NSaved= 3 IEnMin= 3 EnMin= -3390.81398552725     IErMin= 2 ErrMin= 6.69D-03
 ErrMax= 1.31D-02  0.00D+00 EMaxC= 1.00D-01 BMatC= 1.18D-01 BMatP= 2.19D-01
 IDIUse=3 WtCom= 8.69D-01 WtEn= 1.31D-01
 Coeff-Com: -0.137D+00 0.505D+00 0.631D+00
 Coeff-En:   0.000D+00 0.000D+00 0.100D+01
 Coeff:     -0.119D+00 0.440D+00 0.679D+00
 Gap=     0.120 Goal=   None    Shift=    0.000
 RMSDP=2.02D-04 MaxDP=5.10D-02 DE=-6.52D-01 OVMax= 9.50D-02

 Cycle   4  Pass 1  IDiag  1:
 RMSU=  1.54D-04    CP:  9.87D-01  1.09D+00  7.99D-01
 E= -3390.88188736342     Delta-E=       -0.067901836168 Rises=F Damp=F
 DIIS: error= 5.74D-03 at cycle   4 NSaved=   4.
 NSaved= 4 IEnMin= 4 EnMin= -3390.88188736342     IErMin= 4 ErrMin= 5.74D-03
 ErrMax= 5.74D-03  0.00D+00 EMaxC= 1.00D-01 BMatC= 2.63D-02 BMatP= 1.18D-01
 IDIUse=3 WtCom= 9.43D-01 WtEn= 5.74D-02
 Coeff-Com: -0.409D-01 0.104D+00 0.363D+00 0.573D+00
 Coeff-En:   0.000D+00 0.000D+00 0.180D+00 0.820D+00
 Coeff:     -0.385D-01 0.984D-01 0.353D+00 0.587D+00
 Gap=     0.122 Goal=   None    Shift=    0.000
 RMSDP=8.91D-05 MaxDP=2.24D-02 DE=-6.79D-02 OVMax= 2.77D-02

 Cycle   5  Pass 1  IDiag  1:
 RMSU=  3.89D-05    CP:  9.85D-01  1.05D+00  8.89D-01  6.05D-01
 E= -3390.90092966231     Delta-E=       -0.019042298891 Rises=F Damp=F
 DIIS: error= 4.09D-04 at cycle   5 NSaved=   5.
 NSaved= 5 IEnMin= 5 EnMin= -3390.90092966231     IErMin= 5 ErrMin= 4.09D-04
 ErrMax= 4.09D-04  0.00D+00 EMaxC= 1.00D-01 BMatC= 8.81D-04 BMatP= 2.63D-02
 IDIUse=3 WtCom= 9.96D-01 WtEn= 4.09D-03
 Coeff-Com: -0.103D-01 0.196D-01 0.128D+00 0.272D+00 0.591D+00
 Coeff-En:   0.000D+00 0.000D+00 0.000D+00 0.000D+00 0.100D+01
 Coeff:     -0.102D-01 0.195D-01 0.127D+00 0.271D+00 0.593D+00
 Gap=     0.123 Goal=   None    Shift=    0.000
 RMSDP=2.04D-05 MaxDP=5.27D-03 DE=-1.90D-02 OVMax= 4.87D-03

 Cycle   6  Pass 1  IDiag  1:
 RMSU=  1.44D-05    CP:  9.86D-01  1.06D+00  8.76D-01  6.46D-01  7.77D-01
 E= -3390.90160041378     Delta-E=       -0.000670751475 Rises=F Damp=F
 DIIS: error= 1.22D-04 at cycle   6 NSaved=   6.
 NSaved= 6 IEnMin= 6 EnMin= -3390.90160041378     IErMin= 6 ErrMin= 1.22D-04
 ErrMax= 1.22D-04  0.00D+00 EMaxC= 1.00D-01 BMatC= 8.18D-05 BMatP= 8.81D-04
 IDIUse=3 WtCom= 9.99D-01 WtEn= 1.22D-03
 Coeff-Com: -0.784D-03-0.795D-03 0.251D-01 0.697D-01 0.275D+00 0.632D+00
 Coeff-En:   0.000D+00 0.000D+00 0.000D+00 0.000D+00 0.000D+00 0.100D+01
 Coeff:     -0.783D-03-0.794D-03 0.250D-01 0.696D-01 0.274D+00 0.633D+00
 Gap=     0.124 Goal=   None    Shift=    0.000
 RMSDP=6.14D-06 MaxDP=1.71D-03 DE=-6.71D-04 OVMax= 3.74D-03

 Cycle   7  Pass 1  IDiag  1:
 RMSU=  4.92D-06    CP:  9.86D-01  1.05D+00  8.80D-01  6.33D-01  8.38D-01
                    CP:  9.78D-01
 E= -3390.90167750778     Delta-E=       -0.000077093995 Rises=F Damp=F
 DIIS: error= 7.67D-05 at cycle   7 NSaved=   7.
 NSaved= 7 IEnMin= 7 EnMin= -3390.90167750778     IErMin= 7 ErrMin= 7.67D-05
 ErrMax= 7.67D-05  0.00D+00 EMaxC= 1.00D-01 BMatC= 1.13D-05 BMatP= 8.18D-05
 IDIUse=1 WtCom= 1.00D+00 WtEn= 0.00D+00
 Coeff-Com:  0.136D-02-0.358D-02-0.914D-02-0.127D-01 0.276D-01 0.280D+00
 Coeff-Com:  0.716D+00
 Coeff:      0.136D-02-0.358D-02-0.914D-02-0.127D-01 0.276D-01 0.280D+00
 Coeff:      0.716D+00
 Gap=     0.124 Goal=   None    Shift=    0.000
 RMSDP=2.93D-06 MaxDP=5.52D-04 DE=-7.71D-05 OVMax= 1.77D-03

 Cycle   8  Pass 1  IDiag  1:
 RMSU=  2.07D-06    CP:  9.86D-01  1.05D+00  8.80D-01  6.37D-01  8.60D-01
                    CP:  1.10D+00  9.78D-01
 E= -3390.90169254006     Delta-E=       -0.000015032283 Rises=F Damp=F
 DIIS: error= 2.10D-05 at cycle   8 NSaved=   8.
 NSaved= 8 IEnMin= 8 EnMin= -3390.90169254006     IErMin= 8 ErrMin= 2.10D-05
 ErrMax= 2.10D-05  0.00D+00 EMaxC= 1.00D-01 BMatC= 1.98D-06 BMatP= 1.13D-05
 IDIUse=1 WtCom= 1.00D+00 WtEn= 0.00D+00
 Coeff-Com:  0.768D-03-0.153D-02-0.832D-02-0.179D-01-0.348D-01 0.208D-01
 Coeff-Com:  0.330D+00 0.711D+00
 Coeff:      0.768D-03-0.153D-02-0.832D-02-0.179D-01-0.348D-01 0.208D-01
 Coeff:      0.330D+00 0.711D+00
 Gap=     0.124 Goal=   None    Shift=    0.000
 RMSDP=1.58D-06 MaxDP=4.82D-04 DE=-1.50D-05 OVMax= 1.13D-03

 Cycle   9  Pass 1  IDiag  1:
 RMSU=  8.44D-07    CP:  9.86D-01  1.05D+00  8.81D-01  6.34D-01  8.75D-01
                    CP:  1.15D+00  1.06D+00  1.18D+00
 E= -3390.90169576713     Delta-E=       -0.000003227071 Rises=F Damp=F
 DIIS: error= 9.14D-06 at cycle   9 NSaved=   9.
 NSaved= 9 IEnMin= 9 EnMin= -3390.90169576713     IErMin= 9 ErrMin= 9.14D-06
 ErrMax= 9.14D-06  0.00D+00 EMaxC= 1.00D-01 BMatC= 1.98D-07 BMatP= 1.98D-06
 IDIUse=1 WtCom= 1.00D+00 WtEn= 0.00D+00
 Coeff-Com:  0.676D-04-0.254D-04-0.149D-02-0.451D-02-0.168D-01-0.323D-01
 Coeff-Com:  0.785D-02 0.230D+00 0.817D+00
 Coeff:      0.676D-04-0.254D-04-0.149D-02-0.451D-02-0.168D-01-0.323D-01
 Coeff:      0.785D-02 0.230D+00 0.817D+00
 Gap=     0.124 Goal=   None    Shift=    0.000
 RMSDP=5.94D-07 MaxDP=9.98D-05 DE=-3.23D-06 OVMax= 5.97D-04

 Cycle  10  Pass 1  IDiag  1:
 RMSU=  2.86D-07    CP:  9.86D-01  1.05D+00  8.81D-01  6.34D-01  8.77D-01
                    CP:  1.17D+00  1.11D+00  1.30D+00  1.14D+00
 E= -3390.90169626558     Delta-E=       -0.000000498454 Rises=F Damp=F
 DIIS: error= 3.09D-06 at cycle  10 NSaved=  10.
 NSaved=10 IEnMin=10 EnMin= -3390.90169626558     IErMin=10 ErrMin= 3.09D-06
 ErrMax= 3.09D-06  0.00D+00 EMaxC= 1.00D-01 BMatC= 4.45D-08 BMatP= 1.98D-07
 IDIUse=1 WtCom= 1.00D+00 WtEn= 0.00D+00
 Coeff-Com: -0.974D-04 0.237D-03 0.848D-03 0.136D-02-0.659D-03-0.134D-01
 Coeff-Com: -0.524D-01-0.372D-01 0.336D+00 0.765D+00
 Coeff:     -0.974D-04 0.237D-03 0.848D-03 0.136D-02-0.659D-03-0.134D-01
 Coeff:     -0.524D-01-0.372D-01 0.336D+00 0.765D+00
 Gap=     0.124 Goal=   None    Shift=    0.000
 RMSDP=2.89D-07 MaxDP=9.92D-05 DE=-4.98D-07 OVMax= 2.35D-04

 Cycle  11  Pass 1  IDiag  1:
 RMSU=  1.26D-07    CP:  9.86D-01  1.05D+00  8.81D-01  6.33D-01  8.78D-01
                    CP:  1.17D+00  1.11D+00  1.37D+00  1.30D+00  1.07D+00
 E= -3390.90169635296     Delta-E=       -0.000000087377 Rises=F Damp=F
 DIIS: error= 9.19D-07 at cycle  11 NSaved=  11.
 NSaved=11 IEnMin=11 EnMin= -3390.90169635296     IErMin=11 ErrMin= 9.19D-07
 ErrMax= 9.19D-07  0.00D+00 EMaxC= 1.00D-01 BMatC= 5.50D-09 BMatP= 4.45D-08
 IDIUse=1 WtCom= 1.00D+00 WtEn= 0.00D+00
 Coeff-Com: -0.451D-04 0.931D-04 0.524D-03 0.114D-02 0.175D-02-0.753D-03
 Coeff-Com: -0.229D-01-0.468D-01 0.237D-01 0.288D+00 0.755D+00
 Coeff:     -0.451D-04 0.931D-04 0.524D-03 0.114D-02 0.175D-02-0.753D-03
 Coeff:     -0.229D-01-0.468D-01 0.237D-01 0.288D+00 0.755D+00
 Gap=     0.124 Goal=   None    Shift=    0.000
 RMSDP=9.83D-08 MaxDP=2.87D-05 DE=-8.74D-08 OVMax= 8.30D-05

 Cycle  12  Pass 1  IDiag  1:
 RMSU=  4.86D-08    CP:  9.86D-01  1.05D+00  8.81D-01  6.33D-01  8.79D-01
                    CP:  1.17D+00  1.11D+00  1.39D+00  1.36D+00  1.17D+00
                    CP:  1.16D+00
 E= -3390.90169636427     Delta-E=       -0.000000011310 Rises=F Damp=F
 DIIS: error= 6.75D-07 at cycle  12 NSaved=  12.
 NSaved=12 IEnMin=12 EnMin= -3390.90169636427     IErMin=12 ErrMin= 6.75D-07
 ErrMax= 6.75D-07  0.00D+00 EMaxC= 1.00D-01 BMatC= 8.86D-10 BMatP= 5.50D-09
 IDIUse=1 WtCom= 1.00D+00 WtEn= 0.00D+00
 Coeff-Com: -0.423D-05 0.452D-05 0.862D-04 0.258D-03 0.684D-03 0.154D-02
 Coeff-Com: -0.192D-02-0.124D-01-0.328D-01 0.598D-02 0.284D+00 0.755D+00
 Coeff:     -0.423D-05 0.452D-05 0.862D-04 0.258D-03 0.684D-03 0.154D-02
 Coeff:     -0.192D-02-0.124D-01-0.328D-01 0.598D-02 0.284D+00 0.755D+00
 Gap=     0.124 Goal=   None    Shift=    0.000
 RMSDP=3.55D-08 MaxDP=5.64D-06 DE=-1.13D-08 OVMax= 4.68D-05

 Cycle  13  Pass 1  IDiag  1:
 RMSU=  2.18D-08    CP:  9.86D-01  1.05D+00  8.81D-01  6.33D-01  8.79D-01
                    CP:  1.18D+00  1.10D+00  1.40D+00  1.37D+00  1.21D+00
                    CP:  1.31D+00  1.20D+00
 E= -3390.90169636728     Delta-E=       -0.000000003003 Rises=F Damp=F
 DIIS: error= 5.87D-07 at cycle  13 NSaved=  13.
 NSaved=13 IEnMin=13 EnMin= -3390.90169636728     IErMin=13 ErrMin= 5.87D-07
 ErrMax= 5.87D-07  0.00D+00 EMaxC= 1.00D-01 BMatC= 3.24D-10 BMatP= 8.86D-10
 IDIUse=1 WtCom= 1.00D+00 WtEn= 0.00D+00
 Coeff-Com:  0.732D-05-0.173D-04-0.660D-04-0.102D-03-0.979D-05 0.995D-03
 Coeff-Com:  0.380D-02 0.372D-02-0.203D-01-0.588D-01-0.240D-01 0.388D+00
 Coeff-Com:  0.707D+00
 Coeff:      0.732D-05-0.173D-04-0.660D-04-0.102D-03-0.979D-05 0.995D-03
 Coeff:      0.380D-02 0.372D-02-0.203D-01-0.588D-01-0.240D-01 0.388D+00
 Coeff:      0.707D+00
 Gap=     0.124 Goal=   None    Shift=    0.000
 RMSDP=2.22D-08 MaxDP=3.34D-06 DE=-3.00D-09 OVMax= 3.07D-05

 Cycle  14  Pass 1  IDiag  1:
 RMSU=  1.17D-08    CP:  9.86D-01  1.05D+00  8.81D-01  6.33D-01  8.79D-01
                    CP:  1.18D+00  1.10D+00  1.40D+00  1.38D+00  1.22D+00
                    CP:  1.38D+00  1.44D+00  1.30D+00
 E= -3390.90169636775     Delta-E=       -0.000000000475 Rises=F Damp=F
 DIIS: error= 3.07D-07 at cycle  14 NSaved=  14.
 NSaved=14 IEnMin=14 EnMin= -3390.90169636775     IErMin=14 ErrMin= 3.07D-07
 ErrMax= 3.07D-07  0.00D+00 EMaxC= 1.00D-01 BMatC= 7.97D-11 BMatP= 3.24D-10
 IDIUse=1 WtCom= 1.00D+00 WtEn= 0.00D+00
 Coeff-Com:  0.445D-05-0.920D-05-0.556D-04-0.117D-03-0.185D-03 0.668D-04
 Coeff-Com:  0.230D-02 0.516D-02-0.130D-02-0.330D-01-0.943D-01-0.110D-01
 Coeff-Com:  0.344D+00 0.788D+00
 Coeff:      0.445D-05-0.920D-05-0.556D-04-0.117D-03-0.185D-03 0.668D-04
 Coeff:      0.230D-02 0.516D-02-0.130D-02-0.330D-01-0.943D-01-0.110D-01
 Coeff:      0.344D+00 0.788D+00
 Gap=     0.124 Goal=   None    Shift=    0.000
 RMSDP=1.55D-08 MaxDP=2.26D-06 DE=-4.75D-10 OVMax= 2.40D-05

 Cycle  15  Pass 1  IDiag  1:
 RMSU=  5.68D-09    CP:  9.86D-01  1.05D+00  8.81D-01  6.33D-01  8.79D-01
                    CP:  1.18D+00  1.10D+00  1.40D+00  1.38D+00  1.23D+00
                    CP:  1.43D+00  1.60D+00  1.71D+00  1.27D+00
 E= -3390.90169636826     Delta-E=       -0.000000000511 Rises=F Damp=F
 DIIS: error= 1.52D-07 at cycle  15 NSaved=  15.
 NSaved=15 IEnMin=15 EnMin= -3390.90169636826     IErMin=15 ErrMin= 1.52D-07
 ErrMax= 1.52D-07  0.00D+00 EMaxC= 1.00D-01 BMatC= 2.16D-11 BMatP= 7.97D-11
 IDIUse=1 WtCom= 1.00D+00 WtEn= 0.00D+00
 Coeff-Com: -0.229D-06 0.105D-05-0.636D-05-0.244D-04-0.837D-04-0.263D-03
 Coeff-Com: -0.775D-04 0.130D-02 0.555D-02 0.240D-02-0.339D-01-0.114D+00
 Coeff-Com: -0.584D-01 0.374D+00 0.824D+00
 Coeff:     -0.229D-06 0.105D-05-0.636D-05-0.244D-04-0.837D-04-0.263D-03
 Coeff:     -0.775D-04 0.130D-02 0.555D-02 0.240D-02-0.339D-01-0.114D+00
 Coeff:     -0.584D-01 0.374D+00 0.824D+00
 Gap=     0.124 Goal=   None    Shift=    0.000
 RMSDP=9.10D-09 MaxDP=1.28D-06 DE=-5.11D-10 OVMax= 1.47D-05

 Cycle  16  Pass 1  IDiag  1:
 RMSU=  2.78D-09    CP:  9.86D-01  1.05D+00  8.81D-01  6.33D-01  8.79D-01
                    CP:  1.18D+00  1.10D+00  1.40D+00  1.38D+00  1.24D+00
                    CP:  1.44D+00  1.68D+00  1.94D+00  1.65D+00  1.35D+00
 E= -3390.90169636801     Delta-E=        0.000000000247 Rises=F Damp=F
 DIIS: error= 5.12D-08 at cycle  16 NSaved=  16.
 NSaved=16 IEnMin=15 EnMin= -3390.90169636826     IErMin=16 ErrMin= 5.12D-08
 ErrMax= 5.12D-08  0.00D+00 EMaxC= 1.00D-01 BMatC= 5.70D-12 BMatP= 2.16D-11
 IDIUse=1 WtCom= 1.00D+00 WtEn= 0.00D+00
 Coeff-Com: -0.108D-05 0.249D-05 0.103D-04 0.161D-04 0.626D-05-0.136D-03
 Coeff-Com: -0.582D-03-0.658D-03 0.305D-02 0.998D-02 0.945D-02-0.553D-01
 Coeff-Com: -0.130D+00-0.285D-01 0.408D+00 0.785D+00
 Coeff:     -0.108D-05 0.249D-05 0.103D-04 0.161D-04 0.626D-05-0.136D-03
 Coeff:     -0.582D-03-0.658D-03 0.305D-02 0.998D-02 0.945D-02-0.553D-01
 Coeff:     -0.130D+00-0.285D-01 0.408D+00 0.785D+00
 Gap=     0.124 Goal=   None    Shift=    0.000
 RMSDP=5.20D-09 MaxDP=1.13D-06 DE= 2.47D-10 OVMax= 7.35D-06

 Cycle  17  Pass 1  IDiag  1:
 RMSU=  1.24D-09    CP:  9.86D-01  1.05D+00  8.81D-01  6.33D-01  8.79D-01
                    CP:  1.18D+00  1.10D+00  1.40D+00  1.38D+00  1.24D+00
                    CP:  1.45D+00  1.72D+00  2.08D+00  1.84D+00  1.67D+00
                    CP:  1.15D+00
 E= -3390.90169636887     Delta-E=       -0.000000000853 Rises=F Damp=F
 DIIS: error= 1.26D-08 at cycle  17 NSaved=  17.
 NSaved=17 IEnMin=17 EnMin= -3390.90169636887     IErMin=17 ErrMin= 1.26D-08
 ErrMax= 1.26D-08  0.00D+00 EMaxC= 1.00D-01 BMatC= 8.73D-13 BMatP= 5.70D-12
 IDIUse=1 WtCom= 1.00D+00 WtEn= 0.00D+00
 Coeff-Com: -0.345D-06 0.716D-06 0.534D-05 0.105D-04 0.187D-04-0.859D-05
 Coeff-Com: -0.214D-03-0.558D-03-0.705D-04 0.326D-02 0.106D-01 0.236D-03
 Coeff-Com: -0.404D-01-0.804D-01 0.378D-02 0.318D+00 0.786D+00
 Coeff:     -0.345D-06 0.716D-06 0.534D-05 0.105D-04 0.187D-04-0.859D-05
 Coeff:     -0.214D-03-0.558D-03-0.705D-04 0.326D-02 0.106D-01 0.236D-03
 Coeff:     -0.404D-01-0.804D-01 0.378D-02 0.318D+00 0.786D+00
 Gap=     0.124 Goal=   None    Shift=    0.000
 RMSDP=1.69D-09 MaxDP=3.70D-07 DE=-8.53D-10 OVMax= 2.44D-06

 Error on total polarization charges =  0.02927
 SCF Done:  E(RM062X) =  -3390.90169637     A.U. after   17 cycles
            NFock= 17  Conv=0.17D-08     -V/T= 2.0052
 KE= 3.373224627249D+03 PE=-2.693526980107D+04 EE= 1.066813689236D+04
 Leave Link  502 at Fri Nov 14 02:24:51 2025, MaxMem= 30870077440 cpu:          118183.4 elap:            1886.5
 (Enter /public/software/gauss/g16/l601.exe)
 Copying SCF densities to generalized density rwf, IOpCl= 0 IROHF=0.
 Hyperfine terms turned off by default for NAtoms > 100.

 **********************************************************************

            Population analysis using the SCF density.

 **********************************************************************

 Orbital symmetries:
       Occupied  (A) (A) (A) (A) (A) (A) (A) (A) (A) (A) (A) (A)
                 (A) (A) (A) (A) (A) (A) (A) (A) (A) (A) (A) (A)
                 (A) (A) (A) (A) (A) (A) (A) (A) (A) (A) (A) (A)
                 (A) (A) (A) (A) (A) (A) (A) (A) (A) (A) (A) (A)
                 (A) (A) (A) (A) (A) (A) (A) (A) (A) (A) (A) (A)
                 (A) (A) (A) (A) (A) (A) (A) (A) (A) (A) (A) (A)
                 (A) (A) (A) (A) (A) (A) (A) (A) (A) (A) (A) (A)
                 (A) (A) (A) (A) (A) (A) (A) (A) (A) (A) (A) (A)
                 (A) (A) (A) (A) (A) (A) (A) (A) (A) (A) (A) (A)
                 (A) (A) (A) (A) (A) (A) (A) (A) (A) (A) (A) (A)
                 (A) (A) (A) (A) (A) (A) (A) (A) (A) (A) (A) (A)
                 (A) (A) (A) (A) (A) (A) (A) (A) (A) (A) (A) (A)
                 (A) (A) (A) (A) (A) (A) (A) (A) (A) (A) (A) (A)
                 (A) (A) (A) (A) (A) (A) (A) (A) (A) (A) (A) (A)
                 (A) (A) (A) (A) (A) (A) (A) (A) (A) (A) (A) (A)
                 (A) (A) (A) (A) (A) (A) (A) (A) (A) (A) (A) (A)
                 (A) (A) (A) (A) (A) (A) (A) (A) (A) (A) (A) (A)
                 (A) (A) (A) (A) (A) (A) (A) (A) (A) (A) (A) (A)
                 (A) (A) (A) (A) (A) (A) (A) (A) (A) (A) (A) (A)
                 (A) (A) (A) (A) (A) (A) (A) (A) (A) (A) (A) (A)
                 (A) (A) (A) (A) (A) (A) (A) (A) (A) (A) (A) (A)
                 (A)
       Virtual   (A) (A) (A) (A) (A) (A) (A) (A) (A) (A) (A) (A)
                 (A) (A) (A) (A) (A) (A) (A) (A) (A) (A) (A) (A)
                 (A) (A) (A) (A) (A) (A) (A) (A) (A) (A) (A) (A)
                 (A) (A) (A) (A) (A) (A) (A) (A) (A) (A) (A) (A)
                 (A) (A) (A) (A) (A) (A) (A) (A) (A) (A) (A) (A)
                 (A) (A) (A) (A) (A) (A) (A) (A) (A) (A) (A) (A)
                 (A) (A) (A) (A) (A) (A) (A) (A) (A) (A) (A) (A)
                 (A) (A) (A) (A) (A) (A) (A) (A) (A) (A) (A) (A)
                 (A) (A) (A) (A) (A) (A) (A) (A) (A) (A) (A) (A)
                 (A) (A) (A) (A) (A) (A) (A) (A) (A) (A) (A) (A)
                 (A) (A) (A) (A) (A) (A) (A) (A) (A) (A) (A) (A)
                 (A) (A) (A) (A) (A) (A) (A) (A) (A) (A) (A) (A)
                 (A) (A) (A) (A) (A) (A) (A) (A) (A) (A) (A) (A)
                 (A) (A) (A) (A) (A) (A) (A) (A) (A) (A) (A) (A)
                 (A) (A) (A) (A) (A) (A) (A) (A) (A) (A) (A) (A)
                 (A) (A) (A) (A) (A) (A) (A) (A) (A) (A) (A) (A)
                 (A) (A) (A) (A) (A) (A) (A) (A) (A) (A) (A) (A)
                 (A) (A) (A) (A) (A) (A) (A) (A) (A) (A) (A) (A)
                 (A) (A) (A) (A) (A) (A) (A) (A) (A) (A) (A) (A)
                 (A) (A) (A) (A) (A) (A) (A) (A) (A) (A) (A) (A)
                 (A) (A) (A) (A) (A) (A) (A) (A) (A) (A) (A) (A)
                 (A) (A) (A) (A) (A) (A) (A) (A) (A) (A) (A) (A)
                 (A) (A) (A) (A) (A) (A) (A) (A) (A) (A) (A) (A)
                 (A) (A) (A) (A) (A) (A) (A) (A) (A) (A) (A) (A)
                 (A) (A) (A) (A) (A) (A) (A) (A) (A) (A) (A) (A)
                 (A) (A) (A) (A) (A) (A) (A) (A) (A) (A) (A) (A)
                 (A) (A) (A) (A) (A) (A) (A) (A) (A) (A) (A) (A)
                 (A) (A) (A) (A) (A) (A) (A) (A) (A) (A) (A) (A)
                 (A) (A) (A) (A) (A) (A) (A) (A) (A) (A) (A) (A)
                 (A) (A) (A) (A) (A) (A) (A) (A) (A) (A) (A) (A)
                 (A) (A) (A) (A) (A) (A) (A) (A) (A) (A) (A) (A)
                 (A) (A) (A) (A) (A) (A) (A) (A) (A) (A) (A) (A)
                 (A) (A) (A) (A) (A) (A) (A) (A) (A) (A) (A) (A)
                 (A) (A) (A) (A) (A) (A) (A) (A) (A) (A) (A) (A)
                 (A) (A) (A) (A) (A) (A) (A) (A) (A) (A) (A) (A)
                 (A) (A) (A) (A) (A) (A) (A) (A) (A) (A) (A) (A)
                 (A) (A) (A) (A) (A) (A) (A) (A) (A) (A) (A) (A)
                 (A) (A) (A) (A) (A) (A) (A) (A) (A) (A) (A) (A)
                 (A) (A) (A) (A) (A) (A) (A) (A) (A) (A) (A) (A)
                 (A) (A) (A) (A) (A) (A) (A) (A) (A) (A) (A) (A)
                 (A) (A) (A) (A) (A) (A) (A) (A) (A) (A) (A) (A)
                 (A) (A) (A) (A) (A) (A) (A) (A) (A) (A) (A) (A)
                 (A) (A) (A) (A) (A) (A) (A) (A) (A) (A) (A) (A)
                 (A) (A) (A) (A) (A) (A) (A) (A) (A) (A) (A) (A)
                 (A) (A) (A) (A) (A) (A) (A) (A) (A) (A) (A) (A)
                 (A) (A) (A) (A) (A) (A) (A) (A) (A) (A) (A) (A)
                 (A) (A) (A) (A) (A) (A) (A) (A) (A) (A) (A) (A)
                 (A) (A) (A) (A) (A) (A) (A) (A) (A) (A) (A) (A)
                 (A) (A) (A) (A) (A) (A) (A) (A) (A) (A) (A) (A)
                 (A) (A) (A) (A) (A) (A) (A) (A) (A) (A) (A) (A)
                 (A) (A) (A) (A) (A) (A) (A) (A) (A) (A) (A) (A)
                 (A) (A) (A) (A) (A) (A) (A) (A) (A) (A) (A) (A)
                 (A) (A) (A) (A) (A) (A) (A) (A) (A) (A) (A) (A)
                 (A) (A) (A) (A) (A) (A) (A) (A) (A) (A) (A) (A)
                 (A) (A) (A) (A) (A) (A) (A) (A) (A) (A) (A) (A)
                 (A) (A) (A) (A) (A) (A) (A) (A) (A) (A) (A) (A)
                 (A) (A) (A) (A) (A) (A) (A) (A) (A) (A) (A) (A)
                 (A) (A) (A) (A) (A) (A) (A) (A) (A) (A) (A) (A)
                 (A) (A) (A) (A) (A) (A) (A) (A) (A) (A) (A) (A)
                 (A) (A) (A) (A) (A) (A) (A) (A) (A) (A) (A) (A)
                 (A) (A) (A) (A) (A) (A) (A) (A) (A) (A) (A) (A)
                 (A) (A) (A) (A) (A) (A) (A) (A) (A) (A) (A) (A)
                 (A) (A) (A) (A) (A) (A) (A) (A) (A) (A) (A) (A)
                 (A) (A) (A) (A) (A) (A) (A) (A) (A) (A) (A) (A)
                 (A) (A) (A) (A) (A) (A) (A) (A) (A) (A) (A) (A)
                 (A) (A) (A) (A) (A) (A) (A) (A) (A) (A) (A) (A)
                 (A) (A) (A) (A) (A) (A) (A) (A) (A) (A) (A) (A)
                 (A) (A) (A) (A) (A) (A) (A) (A) (A) (A) (A) (A)
                 (A) (A) (A) (A) (A) (A) (A) (A) (A) (A) (A) (A)
                 (A) (A) (A) (A) (A) (A) (A) (A) (A) (A) (A) (A)
                 (A) (A) (A) (A) (A) (A) (A) (A) (A) (A) (A) (A)
                 (A) (A) (A) (A) (A) (A) (A) (A) (A) (A) (A) (A)
                 (A) (A) (A) (A) (A) (A) (A) (A) (A) (A) (A) (A)
                 (A) (A) (A) (A) (A) (A) (A) (A) (A) (A) (A) (A)
                 (A) (A) (A) (A) (A) (A) (A) (A) (A) (A) (A) (A)
                 (A) (A) (A) (A) (A) (A) (A) (A) (A) (A) (A) (A)
                 (A) (A) (A) (A) (A) (A) (A) (A) (A) (A) (A) (A)
                 (A) (A) (A) (A) (A) (A) (A) (A) (A) (A) (A) (A)
                 (A) (A) (A) (A) (A) (A) (A) (A) (A) (A) (A) (A)
                 (A) (A) (A) (A) (A) (A) (A) (A) (A) (A) (A) (A)
                 (A) (A) (A) (A) (A) (A) (A) (A) (A) (A) (A) (A)
                 (A) (A) (A) (A) (A) (A) (A) (A) (A) (A) (A) (A)
                 (A) (A) (A) (A) (A) (A) (A) (A) (A) (A) (A) (A)
                 (A) (A) (A) (A) (A) (A) (A) (A) (A) (A) (A) (A)
                 (A) (A) (A) (A) (A) (A) (A) (A) (A) (A) (A) (A)
                 (A) (A) (A) (A) (A) (A) (A) (A) (A) (A) (A) (A)
                 (A) (A) (A) (A) (A) (A) (A) (A) (A) (A) (A) (A)
                 (A) (A) (A) (A) (A) (A) (A) (A) (A) (A) (A) (A)
                 (A) (A) (A) (A) (A) (A) (A) (A) (A) (A) (A) (A)
                 (A) (A) (A) (A) (A) (A) (A) (A) (A) (A) (A) (A)
                 (A) (A) (A) (A) (A) (A) (A) (A) (A) (A) (A) (A)
                 (A) (A) (A) (A) (A) (A) (A) (A) (A) (A) (A) (A)
                 (A) (A) (A) (A) (A) (A) (A) (A) (A) (A) (A) (A)
                 (A) (A) (A) (A) (A) (A) (A) (A) (A) (A) (A) (A)
                 (A) (A) (A) (A) (A) (A) (A) (A) (A) (A) (A) (A)
                 (A) (A) (A) (A) (A) (A) (A) (A) (A) (A) (A) (A)
                 (A) (A) (A) (A) (A) (A) (A) (A) (A) (A) (A) (A)
                 (A) (A) (A) (A) (A) (A) (A) (A) (A) (A) (A) (A)
                 (A) (A) (A) (A) (A) (A) (A) (A) (A) (A) (A) (A)
                 (A) (A) (A) (A) (A) (A) (A) (A) (A) (A) (A) (A)
                 (A) (A) (A) (A) (A) (A) (A) (A) (A) (A) (A) (A)
                 (A) (A) (A) (A) (A) (A) (A) (A) (A) (A) (A) (A)
                 (A) (A) (A) (A) (A) (A) (A) (A) (A) (A) (A) (A)
                 (A) (A) (A) (A) (A) (A) (A) (A) (A) (A) (A) (A)
                 (A) (A) (A) (A) (A) (A) (A) (A) (A) (A) (A) (A)
                 (A) (A) (A) (A) (A) (A) (A) (A) (A) (A) (A) (A)
                 (A) (A) (A) (A) (A) (A) (A) (A) (A) (A) (A) (A)
                 (A) (A) (A) (A) (A) (A) (A) (A) (A) (A) (A) (A)
                 (A) (A) (A) (A) (A) (A) (A) (A) (A) (A) (A) (A)
                 (A) (A) (A) (A) (A) (A) (A) (A) (A) (A) (A) (A)
                 (A) (A) (A) (A) (A) (A) (A) (A) (A) (A) (A) (A)
                 (A) (A) (A) (A) (A) (A) (A) (A) (A) (A) (A) (A)
                 (A) (A) (A) (A) (A) (A) (A) (A) (A) (A) (A) (A)
                 (A) (A) (A) (A) (A) (A) (A) (A) (A) (A) (A) (A)
                 (A) (A) (A) (A) (A) (A) (A) (A) (A) (A) (A) (A)
                 (A) (A) (A) (A) (A) (A) (A) (A) (A) (A) (A) (A)
                 (A) (A) (A) (A) (A) (A) (A) (A) (A) (A) (A) (A)
                 (A) (A) (A) (A) (A) (A) (A) (A) (A) (A) (A) (A)
                 (A) (A) (A) (A) (A) (A) (A) (A) (A) (A) (A) (A)
                 (A) (A) (A) (A) (A) (A) (A) (A) (A) (A) (A) (A)
                 (A) (A) (A) (A) (A) (A) (A) (A) (A) (A) (A) (A)
                 (A) (A) (A) (A) (A) (A) (A) (A) (A) (A) (A) (A)
                 (A) (A) (A) (A) (A) (A) (A) (A) (A) (A) (A) (A)
                 (A) (A) (A) (A) (A) (A) (A) (A) (A) (A) (A) (A)
                 (A) (A) (A) (A) (A) (A) (A) (A) (A) (A) (A) (A)
                 (A) (A) (A) (A) (A) (A) (A) (A) (A) (A) (A) (A)
                 (A) (A) (A) (A) (A) (A) (A) (A) (A) (A) (A) (A)
                 (A) (A) (A) (A) (A) (A) (A) (A) (A) (A) (A) (A)
                 (A) (A) (A) (A) (A) (A) (A) (A) (A) (A) (A) (A)
                 (A) (A) (A) (A) (A) (A) (A) (A) (A) (A) (A) (A)
                 (A) (A) (A) (A) (A) (A) (A) (A) (A) (A) (A) (A)
                 (A) (A) (A) (A) (A) (A) (A) (A) (A) (A) (A) (A)
                 (A) (A) (A) (A) (A) (A) (A) (A) (A) (A) (A) (A)
                 (A) (A) (A) (A) (A) (A) (A) (A) (A) (A) (A) (A)
                 (A) (A) (A) (A) (A) (A) (A) (A) (A) (A) (A) (A)
                 (A) (A) (A) (A) (A) (A) (A) (A) (A) (A) (A) (A)
                 (A) (A) (A) (A) (A) (A) (A) (A) (A) (A) (A) (A)
                 (A) (A) (A) (A) (A) (A) (A) (A) (A) (A) (A) (A)
                 (A) (A) (A) (A) (A) (A) (A) (A) (A) (A) (A) (A)
                 (A) (A) (A) (A) (A) (A) (A) (A) (A) (A) (A) (A)
                 (A) (A) (A) (A) (A) (A) (A) (A) (A) (A) (A) (A)
                 (A) (A) (A) (A) (A) (A) (A) (A) (A) (A) (A) (A)
                 (A) (A) (A) (A) (A) (A) (A) (A) (A) (A) (A) (A)
                 (A) (A) (A) (A) (A) (A) (A) (A) (A) (A) (A) (A)
                 (A) (A) (A) (A) (A) (A) (A) (A) (A) (A) (A) (A)
                 (A) (A) (A) (A) (A) (A) (A) (A) (A) (A) (A) (A)
                 (A) (A) (A) (A) (A) (A) (A) (A) (A) (A) (A) (A)
                 (A) (A) (A) (A) (A) (A) (A) (A) (A) (A) (A) (A)
                 (A) (A) (A) (A) (A) (A) (A) (A) (A) (A) (A) (A)
                 (A) (A) (A) (A) (A) (A) (A) (A) (A) (A) (A) (A)
                 (A) (A) (A) (A) (A) (A) (A) (A) (A) (A) (A) (A)
                 (A) (A) (A) (A) (A) (A) (A) (A) (A) (A) (A) (A)
                 (A) (A) (A) (A) (A) (A) (A) (A) (A) (A) (A) (A)
                 (A) (A) (A) (A) (A) (A) (A) (A) (A) (A) (A) (A)
                 (A) (A) (A) (A) (A) (A) (A) (A) (A) (A) (A) (A)
                 (A) (A) (A) (A) (A) (A) (A) (A) (A) (A) (A) (A)
                 (A) (A) (A) (A) (A) (A) (A) (A) (A) (A) (A) (A)
                 (A) (A) (A) (A) (A) (A) (A) (A) (A) (A) (A) (A)
                 (A) (A) (A) (A) (A) (A) (A) (A) (A) (A) (A) (A)
                 (A) (A) (A) (A) (A) (A) (A) (A) (A) (A) (A) (A)
                 (A) (A) (A) (A) (A) (A) (A) (A) (A) (A) (A) (A)
                 (A) (A) (A) (A) (A) (A) (A) (A) (A) (A) (A) (A)
                 (A) (A) (A) (A) (A) (A) (A) (A) (A) (A) (A) (A)
                 (A) (A) (A) (A) (A) (A) (A) (A) (A) (A) (A) (A)
                 (A) (A) (A) (A) (A) (A) (A) (A) (A) (A) (A) (A)
                 (A) (A) (A) (A) (A) (A) (A) (A) (A) (A) (A) (A)
                 (A) (A) (A) (A) (A) (A) (A) (A) (A) (A) (A) (A)
                 (A) (A) (A) (A) (A) (A) (A) (A) (A) (A) (A) (A)
                 (A) (A) (A) (A) (A) (A) (A) (A) (A) (A) (A) (A)
                 (A) (A) (A) (A) (A) (A) (A) (A) (A) (A) (A) (A)
                 (A) (A) (A) (A) (A) (A) (A) (A) (A) (A) (A) (A)
                 (A) (A) (A) (A) (A) (A) (A) (A) (A) (A) (A) (A)
                 (A) (A) (A) (A) (A) (A) (A) (A) (A) (A) (A) (A)
                 (A) (A) (A) (A) (A) (A) (A) (A) (A) (A) (A) (A)
                 (A) (A) (A) (A) (A) (A) (A) (A) (A) (A) (A) (A)
                 (A) (A) (A) (A) (A) (A) (A) (A) (A) (A) (A) (A)
                 (A) (A) (A) (A) (A) (A) (A) (A) (A) (A) (A) (A)
                 (A) (A) (A) (A) (A) (A) (A) (A) (A) (A) (A) (A)
                 (A) (A) (A) (A) (A) (A) (A) (A) (A) (A) (A) (A)
                 (A) (A) (A) (A) (A) (A) (A) (A) (A) (A) (A) (A)
                 (A) (A) (A) (A) (A) (A) (A) (A) (A) (A) (A) (A)
                 (A) (A) (A) (A) (A) (A) (A) (A) (A) (A) (A) (A)
                 (A) (A) (A) (A) (A) (A) (A) (A) (A) (A) (A) (A)
                 (A) (A) (A) (A) (A) (A) (A) (A) (A) (A) (A) (A)
                 (A) (A) (A) (A) (A) (A) (A) (A) (A) (A) (A) (A)
                 (A) (A) (A) (A) (A) (A) (A) (A) (A) (A) (A) (A)
                 (A) (A) (A) (A) (A) (A) (A) (A) (A) (A) (A) (A)
                 (A) (A) (A) (A) (A) (A) (A) (A) (A) (A) (A) (A)
                 (A) (A) (A) (A) (A) (A) (A) (A) (A) (A) (A) (A)
                 (A) (A) (A) (A) (A) (A) (A) (A) (A) (A) (A) (A)
                 (A) (A) (A) (A) (A) (A) (A) (A) (A) (A) (A) (A)
                 (A) (A) (A) (A) (A) (A) (A) (A) (A) (A) (A) (A)
                 (A) (A) (A) (A) (A) (A) (A) (A) (A) (A) (A) (A)
                 (A) (A) (A) (A) (A) (A) (A) (A) (A) (A) (A) (A)
                 (A) (A) (A) (A) (A) (A) (A) (A) (A) (A) (A) (A)
                 (A) (A) (A) (A) (A) (A) (A) (A) (A) (A) (A) (A)
                 (A) (A) (A) (A) (A) (A) (A) (A) (A) (A) (A) (A)
                 (A) (A) (A) (A) (A) (A) (A) (A) (A) (A) (A) (A)
                 (A) (A) (A) (A) (A) (A) (A) (A) (A) (A) (A) (A)
                 (A) (A) (A) (A) (A) (A) (A) (A) (A) (A) (A) (A)
                 (A) (A) (A) (A) (A) (A) (A) (A) (A) (A) (A) (A)
                 (A) (A) (A) (A) (A) (A) (A) (A) (A) (A) (A) (A)
                 (A) (A) (A) (A) (A) (A) (A) (A) (A) (A) (A) (A)
                 (A) (A) (A) (A) (A) (A) (A) (A) (A) (A) (A) (A)
                 (A) (A) (A) (A) (A) (A) (A) (A) (A) (A) (A) (A)
                 (A) (A) (A) (A) (A) (A) (A) (A) (A) (A) (A) (A)
                 (A) (A) (A) (A) (A) (A) (A) (A) (A) (A) (A) (A)
                 (A) (A) (A) (A) (A) (A) (A) (A) (A) (A) (A) (A)
                 (A) (A) (A) (A) (A) (A) (A) (A) (A) (A) (A) (A)
                 (A) (A) (A) (A) (A) (A) (A) (A) (A) (A) (A) (A)
                 (A) (A) (A) (A) (A) (A) (A) (A) (A) (A) (A) (A)
                 (A) (A) (A) (A) (A) (A) (A) (A) (A) (A) (A) (A)
                 (A) (A) (A) (A) (A) (A) (A) (A) (A) (A) (A) (A)
                 (A) (A) (A) (A) (A) (A) (A) (A) (A) (A) (A) (A)
                 (A) (A) (A) (A) (A) (A) (A) (A) (A) (A) (A) (A)
                 (A) (A) (A) (A) (A) (A) (A) (A) (A) (A) (A) (A)
                 (A) (A) (A) (A) (A) (A) (A) (A) (A) (A) (A) (A)
                 (A) (A) (A) (A) (A) (A) (A) (A) (A) (A) (A) (A)
                 (A) (A) (A) (A) (A) (A) (A) (A) (A) (A) (A) (A)
                 (A) (A) (A) (A) (A) (A) (A) (A) (A) (A) (A) (A)
                 (A) (A)
 The electronic state is 1-A.
 Alpha  occ. eigenvalues --  -25.27822 -25.27626 -25.21044 -25.21010 -19.70465
 Alpha  occ. eigenvalues --  -19.68023 -19.68018 -19.67015 -19.66940 -19.65148
 Alpha  occ. eigenvalues --  -19.64027 -19.63923 -19.63651 -19.63639 -19.63396
 Alpha  occ. eigenvalues --  -19.63240 -15.01484 -14.79751 -14.79660 -10.71382
 Alpha  occ. eigenvalues --  -10.63613 -10.63266 -10.62272 -10.62202 -10.62107
 Alpha  occ. eigenvalues --  -10.62094 -10.61908 -10.61678 -10.61360 -10.60812
 Alpha  occ. eigenvalues --  -10.60714 -10.60251 -10.60038 -10.59490 -10.59287
 Alpha  occ. eigenvalues --  -10.58843 -10.58826 -10.58780 -10.58760 -10.58660
 Alpha  occ. eigenvalues --  -10.58631 -10.58597 -10.58590 -10.58508 -10.58110
 Alpha  occ. eigenvalues --  -10.58067 -10.58058 -10.57933 -10.57910 -10.57788
 Alpha  occ. eigenvalues --  -10.57353 -10.57322 -10.57224 -10.56773 -10.56387
 Alpha  occ. eigenvalues --  -10.56243 -10.56227 -10.56124 -10.56103 -10.56036
 Alpha  occ. eigenvalues --  -10.55988 -10.55937 -10.55370 -10.55284 -10.55272
 Alpha  occ. eigenvalues --  -10.55207 -10.55160 -10.54979  -7.14098  -1.38990
 Alpha  occ. eigenvalues --   -1.38826  -1.37018  -1.33049  -1.29785  -1.26157
 Alpha  occ. eigenvalues --   -1.20153  -1.20038  -1.18531  -1.17005  -1.16770
 Alpha  occ. eigenvalues --   -1.16709  -1.16156  -1.15743  -1.15424  -1.14447
 Alpha  occ. eigenvalues --   -1.11950  -1.10089  -1.00860  -0.97785  -0.97638
 Alpha  occ. eigenvalues --   -0.95586  -0.93466  -0.92738  -0.92675  -0.91421
 Alpha  occ. eigenvalues --   -0.91165  -0.89036  -0.88709  -0.87768  -0.86987
 Alpha  occ. eigenvalues --   -0.86898  -0.86247  -0.85928  -0.85710  -0.85207
 Alpha  occ. eigenvalues --   -0.84387  -0.83100  -0.82513  -0.81730  -0.81610
 Alpha  occ. eigenvalues --   -0.79591  -0.79295  -0.77776  -0.76884  -0.76314
 Alpha  occ. eigenvalues --   -0.74556  -0.74027  -0.72922  -0.72821  -0.72362
 Alpha  occ. eigenvalues --   -0.71885  -0.71398  -0.71203  -0.69823  -0.69707
 Alpha  occ. eigenvalues --   -0.69394  -0.68650  -0.68345  -0.68219  -0.68048
 Alpha  occ. eigenvalues --   -0.66918  -0.66644  -0.66135  -0.65920  -0.65179
 Alpha  occ. eigenvalues --   -0.63483  -0.63471  -0.62991  -0.62609  -0.62429
 Alpha  occ. eigenvalues --   -0.62000  -0.60644  -0.60074  -0.59813  -0.59700
 Alpha  occ. eigenvalues --   -0.59522  -0.59412  -0.59346  -0.59172  -0.59010
 Alpha  occ. eigenvalues --   -0.58840  -0.58372  -0.58270  -0.57729  -0.57624
 Alpha  occ. eigenvalues --   -0.57421  -0.57313  -0.57194  -0.56309  -0.56180
 Alpha  occ. eigenvalues --   -0.55972  -0.55804  -0.55617  -0.55171  -0.54769
 Alpha  occ. eigenvalues --   -0.54686  -0.54205  -0.54016  -0.53925  -0.53646
 Alpha  occ. eigenvalues --   -0.53532  -0.53379  -0.53013  -0.52703  -0.52560
 Alpha  occ. eigenvalues --   -0.52354  -0.52309  -0.52148  -0.52048  -0.51924
 Alpha  occ. eigenvalues --   -0.51649  -0.51565  -0.51150  -0.51029  -0.50579
 Alpha  occ. eigenvalues --   -0.50232  -0.50067  -0.49871  -0.49817  -0.49222
 Alpha  occ. eigenvalues --   -0.48924  -0.48840  -0.48452  -0.48153  -0.47641
 Alpha  occ. eigenvalues --   -0.47355  -0.47324  -0.47290  -0.47127  -0.46736
 Alpha  occ. eigenvalues --   -0.46646  -0.46499  -0.46339  -0.46298  -0.46055
 Alpha  occ. eigenvalues --   -0.45786  -0.45519  -0.45107  -0.44954  -0.44578
 Alpha  occ. eigenvalues --   -0.44368  -0.44116  -0.43607  -0.43523  -0.43121
 Alpha  occ. eigenvalues --   -0.42961  -0.42803  -0.42440  -0.42281  -0.41952
 Alpha  occ. eigenvalues --   -0.41680  -0.41290  -0.40964  -0.40773  -0.40708
 Alpha  occ. eigenvalues --   -0.40448  -0.40317  -0.40246  -0.39890  -0.39812
 Alpha  occ. eigenvalues --   -0.39786  -0.39718  -0.39262  -0.38975  -0.38735
 Alpha  occ. eigenvalues --   -0.38480  -0.37135  -0.36284  -0.35161  -0.34380
 Alpha  occ. eigenvalues --   -0.34230  -0.34131  -0.34059  -0.33960  -0.32553
 Alpha  occ. eigenvalues --   -0.32505  -0.32481  -0.32451  -0.32299  -0.31743
 Alpha  occ. eigenvalues --   -0.30018  -0.27384  -0.23379
 Alpha virt. eigenvalues --   -0.10954  -0.07597  -0.03545  -0.01409  -0.00767
 Alpha virt. eigenvalues --    0.00698   0.00770   0.01194   0.01831   0.04538
 Alpha virt. eigenvalues --    0.05593   0.05908   0.06004   0.06820   0.07078
 Alpha virt. eigenvalues --    0.07203   0.07531   0.07588   0.07872   0.07935
 Alpha virt. eigenvalues --    0.08356   0.08755   0.08771   0.08889   0.09038
 Alpha virt. eigenvalues --    0.09466   0.09561   0.09672   0.09831   0.10003
 Alpha virt. eigenvalues --    0.10299   0.10541   0.10697   0.10986   0.11065
 Alpha virt. eigenvalues --    0.11261   0.11275   0.11378   0.11651   0.11937
 Alpha virt. eigenvalues --    0.12070   0.12148   0.12331   0.12437   0.12742
 Alpha virt. eigenvalues --    0.12836   0.12882   0.12920   0.13243   0.13332
 Alpha virt. eigenvalues --    0.13558   0.13612   0.13695   0.13992   0.14126
 Alpha virt. eigenvalues --    0.14148   0.14461   0.14572   0.14747   0.14887
 Alpha virt. eigenvalues --    0.14993   0.15209   0.15430   0.15496   0.15599
 Alpha virt. eigenvalues --    0.15675   0.15725   0.15868   0.16190   0.16330
 Alpha virt. eigenvalues --    0.16393   0.16597   0.16817   0.16855   0.16905
 Alpha virt. eigenvalues --    0.17001   0.17133   0.17332   0.17531   0.17630
 Alpha virt. eigenvalues --    0.17742   0.17876   0.18135   0.18304   0.18500
 Alpha virt. eigenvalues --    0.18690   0.18792   0.19094   0.19366   0.19446
 Alpha virt. eigenvalues --    0.19625   0.19818   0.19891   0.20466   0.20597
 Alpha virt. eigenvalues --    0.20662   0.21069   0.21183   0.21328   0.21621
 Alpha virt. eigenvalues --    0.21873   0.22020   0.22120   0.22263   0.22300
 Alpha virt. eigenvalues --    0.22463   0.22481   0.22644   0.22841   0.22882
 Alpha virt. eigenvalues --    0.23031   0.23224   0.23442   0.23465   0.23797
 Alpha virt. eigenvalues --    0.24026   0.24103   0.24179   0.24357   0.24433
 Alpha virt. eigenvalues --    0.24554   0.24783   0.24972   0.25152   0.25274
 Alpha virt. eigenvalues --    0.25430   0.25556   0.25821   0.25977   0.26073
 Alpha virt. eigenvalues --    0.26152   0.26202   0.26465   0.26654   0.26785
 Alpha virt. eigenvalues --    0.26905   0.27199   0.27277   0.27431   0.27688
 Alpha virt. eigenvalues --    0.27834   0.27921   0.28010   0.28164   0.28460
 Alpha virt. eigenvalues --    0.28639   0.29091   0.29252   0.29304   0.29372
 Alpha virt. eigenvalues --    0.29644   0.29901   0.30100   0.30266   0.30401
 Alpha virt. eigenvalues --    0.30482   0.30700   0.30847   0.31020   0.31359
 Alpha virt. eigenvalues --    0.31424   0.31794   0.31885   0.32010   0.32155
 Alpha virt. eigenvalues --    0.32349   0.32539   0.32629   0.32913   0.33084
 Alpha virt. eigenvalues --    0.33209   0.33243   0.33405   0.33537   0.33594
 Alpha virt. eigenvalues --    0.33704   0.33778   0.34036   0.34173   0.34390
 Alpha virt. eigenvalues --    0.34617   0.34746   0.34829   0.34990   0.35257
 Alpha virt. eigenvalues --    0.35329   0.35620   0.35761   0.36020   0.36225
 Alpha virt. eigenvalues --    0.36290   0.36440   0.36512   0.36603   0.36768
 Alpha virt. eigenvalues --    0.36812   0.36851   0.37113   0.37173   0.37215
 Alpha virt. eigenvalues --    0.37341   0.37379   0.37618   0.37837   0.37882
 Alpha virt. eigenvalues --    0.38080   0.38150   0.38320   0.38428   0.38548
 Alpha virt. eigenvalues --    0.38736   0.38784   0.38886   0.39058   0.39083
 Alpha virt. eigenvalues --    0.39332   0.39497   0.39796   0.39827   0.39865
 Alpha virt. eigenvalues --    0.39983   0.40140   0.40285   0.40474   0.40623
 Alpha virt. eigenvalues --    0.40667   0.40825   0.40906   0.40996   0.41411
 Alpha virt. eigenvalues --    0.41607   0.41652   0.41837   0.41906   0.42088
 Alpha virt. eigenvalues --    0.42183   0.42376   0.42565   0.42843   0.42878
 Alpha virt. eigenvalues --    0.42913   0.43043   0.43100   0.43286   0.43399
 Alpha virt. eigenvalues --    0.43584   0.43697   0.43902   0.44073   0.44183
 Alpha virt. eigenvalues --    0.44257   0.44412   0.44573   0.44732   0.44946
 Alpha virt. eigenvalues --    0.44974   0.45203   0.45314   0.45420   0.45448
 Alpha virt. eigenvalues --    0.45534   0.45749   0.45871   0.45943   0.46262
[...]
 Alpha virt. eigenvalues --    4.62652   4.62818   4.63389   4.63558   4.64291
 Alpha virt. eigenvalues --    4.64489   4.64728   4.64884   4.65192   4.65576
 Alpha virt. eigenvalues --    4.65729   4.66026   4.66726   4.67281   4.67340
 Alpha virt. eigenvalues --    4.67465   4.67602   4.67886   4.67996   4.68364
 Alpha virt. eigenvalues --    4.68693   4.69038   4.69451   4.69616   4.69722
 Alpha virt. eigenvalues --    4.70014   4.70414   4.70917   4.71026   4.71338
 Alpha virt. eigenvalues --    4.71681   4.72179   4.72482   4.72670   4.72895
 Alpha virt. eigenvalues --    4.73131   4.73559   4.73897   4.74101   4.74782
 Alpha virt. eigenvalues --    4.75235   4.75385   4.75745   4.76057   4.76300
 Alpha virt. eigenvalues --    4.76386   4.76906   4.77261   4.77300   4.77782
 Alpha virt. eigenvalues --    4.77850   4.78456   4.78640   4.78923   4.79181
 Alpha virt. eigenvalues --    4.79252   4.79853   4.80215   4.80306   4.80840
 Alpha virt. eigenvalues --    4.81868   4.82011   4.82142   4.82153   4.82536
 Alpha virt. eigenvalues --    4.82688   4.83178   4.83873   4.83952   4.84580
 Alpha virt. eigenvalues --    4.84729   4.85287   4.85518   4.86050   4.86499
 Alpha virt. eigenvalues --    4.86936   4.87526   4.88103   4.88207   4.88523
 Alpha virt. eigenvalues --    4.88891   4.89276   4.90028   4.90076   4.90323
 Alpha virt. eigenvalues --    4.90464   4.90842   4.91071   4.92203   4.92524
 Alpha virt. eigenvalues --    4.92799   4.92862   4.92952   4.93247   4.93250
 Alpha virt. eigenvalues --    4.93804   4.93900   4.94076   4.94654   4.94680
 Alpha virt. eigenvalues --    4.94793   4.94981   4.95302   4.95597   4.95895
 Alpha virt. eigenvalues --    4.96053   4.96169   4.96838   4.97191   4.97681
 Alpha virt. eigenvalues --    4.97961   4.98252   4.98400   4.98743   4.98789
 Alpha virt. eigenvalues --    4.99044   4.99177   4.99768   5.00233   5.00601
 Alpha virt. eigenvalues --    5.00949   5.01281   5.01769   5.01892   5.01950
 Alpha virt. eigenvalues --    5.02547   5.03619   5.04038   5.04214   5.04836
 Alpha virt. eigenvalues --    5.05049   5.05533   5.05847   5.06100   5.06300
 Alpha virt. eigenvalues --    5.06807   5.07011   5.07160   5.07216   5.07337
 Alpha virt. eigenvalues --    5.08028   5.08490   5.08606   5.08887   5.09444
 Alpha virt. eigenvalues --    5.09921   5.10167   5.10412   5.10744   5.11106
 Alpha virt. eigenvalues --    5.12323   5.12480   5.13119   5.13277   5.13569
 Alpha virt. eigenvalues --    5.14031   5.14101   5.14361   5.14449   5.15203
 Alpha virt. eigenvalues --    5.15683   5.15923   5.16477   5.16890   5.17274
 Alpha virt. eigenvalues --    5.17398   5.17907   5.18346   5.18702   5.18845
 Alpha virt. eigenvalues --    5.19281   5.19611   5.20443   5.20615   5.21098
 Alpha virt. eigenvalues --    5.21332   5.21596   5.22096   5.22476   5.22867
 Alpha virt. eigenvalues --    5.23043   5.23099   5.24305   5.24789   5.25094
 Alpha virt. eigenvalues --    5.25396   5.25787   5.26244   5.26932   5.27331
 Alpha virt. eigenvalues --    5.27634   5.27783   5.27967   5.28163   5.28248
 Alpha virt. eigenvalues --    5.28313   5.28693   5.28790   5.28870   5.29039
 Alpha virt. eigenvalues --    5.29345   5.29593   5.29860   5.30300   5.30428
 Alpha virt. eigenvalues --    5.30720   5.31051   5.31175   5.31754   5.31953
 Alpha virt. eigenvalues --    5.32233   5.32440   5.33238   5.33358   5.33554
 Alpha virt. eigenvalues --    5.33784   5.34003   5.34048   5.34842   5.35577
 Alpha virt. eigenvalues --    5.35718   5.36263   5.36806   5.37294   5.37630
 Alpha virt. eigenvalues --    5.37680   5.37972   5.38315   5.38715   5.38776
 Alpha virt. eigenvalues --    5.39431   5.39564   5.39863   5.39965   5.40319
 Alpha virt. eigenvalues --    5.40801   5.41105   5.41644   5.42006   5.42664
 Alpha virt. eigenvalues --    5.42899   5.42986   5.43458   5.43615   5.43752
 Alpha virt. eigenvalues --    5.44435   5.44484   5.45503   5.45879   5.46714
 Alpha virt. eigenvalues --    5.46803   5.47265   5.47800   5.48347   5.48888
 Alpha virt. eigenvalues --    5.49160   5.49714   5.50173   5.50479   5.51154
 Alpha virt. eigenvalues --    5.51277   5.51517   5.51761   5.52371   5.53677
 Alpha virt. eigenvalues --    5.54212   5.54826   5.55147   5.55340   5.55433
 Alpha virt. eigenvalues --    5.55496   5.56111   5.57083   5.57096   5.57675
 Alpha virt. eigenvalues --    5.58175   5.58756   5.58842   5.58995   5.59202
 Alpha virt. eigenvalues --    5.59389   5.59771   5.59829   5.59991   5.60246
 Alpha virt. eigenvalues --    5.60532   5.60863   5.61075   5.61510   5.62064
 Alpha virt. eigenvalues --    5.62551   5.62782   5.62842   5.63629   5.63677
 Alpha virt. eigenvalues --    5.64273   5.64416   5.64804   5.65223   5.65359
 Alpha virt. eigenvalues --    5.65463   5.65852   5.66239   5.66782   5.66853
 Alpha virt. eigenvalues --    5.67229   5.67641   5.68591   5.68801   5.69885
 Alpha virt. eigenvalues --    5.69982   5.71201   5.73278   5.74057   5.75604
 Alpha virt. eigenvalues --    5.76626   5.77951   5.79693   5.80367   5.81811
 Alpha virt. eigenvalues --    5.83766   5.84532   5.85110   5.86288   5.87188
 Alpha virt. eigenvalues --    5.88147   5.88431   5.88622   5.88936   5.89632
 Alpha virt. eigenvalues --    5.90888   5.91032   5.91616   5.92817   5.93031
 Alpha virt. eigenvalues --    5.94653   5.96766   5.97003   5.98065   5.98877
 Alpha virt. eigenvalues --    6.00174   6.00523   6.01482   6.02357   6.02913
 Alpha virt. eigenvalues --    6.03696   6.03966   6.04862   6.05346   6.06381
 Alpha virt. eigenvalues --    6.06577   6.08788   6.09492   6.09791   6.10610
 Alpha virt. eigenvalues --    6.10667   6.11685   6.12922   6.17476   6.17779
 Alpha virt. eigenvalues --    6.19041   6.21543   6.21946   6.22301   6.22366
 Alpha virt. eigenvalues --    6.22751   6.24620   6.25271   6.25572   6.26021
 Alpha virt. eigenvalues --    6.26485   6.28130   6.28149   6.28263   6.30343
 Alpha virt. eigenvalues --    6.31377   6.32934   6.34876   6.36034   6.38460
 Alpha virt. eigenvalues --    6.38629   6.40181   6.40446   6.40778   6.42015
 Alpha virt. eigenvalues --    6.42261   6.42620   6.43135   6.44700   6.58141
 Alpha virt. eigenvalues --    6.68018   6.72272   6.72290   6.72860   6.73124
 Alpha virt. eigenvalues --    6.73359   6.74635   6.75784   6.75965   6.76827
 Alpha virt. eigenvalues --    6.77026   6.77782   6.77999   6.80707   6.80790
 Alpha virt. eigenvalues --    6.81011   6.83091   6.83256   6.84138   6.84422
 Alpha virt. eigenvalues --    6.84568   6.84892   6.85167   6.85263   6.86627
 Alpha virt. eigenvalues --    6.87468   6.89461   6.89622   6.91060   6.91634
 Alpha virt. eigenvalues --    6.93103   6.93624   6.93664   6.94260   6.95708
 Alpha virt. eigenvalues --    6.97005   6.98355   6.98360   6.99060   6.99198
 Alpha virt. eigenvalues --    7.00187   7.00364   7.00662   7.00974   7.01282
 Alpha virt. eigenvalues --    7.03188   7.04881   7.07276   7.08128   7.08401
 Alpha virt. eigenvalues --    7.08567   7.08873   7.11224   7.13546   7.17397
 Alpha virt. eigenvalues --    7.20699   7.21384   7.24133   7.26031   7.26542
 Alpha virt. eigenvalues --    7.26561   7.26710   7.27059   7.28560   7.29450
 Alpha virt. eigenvalues --    7.30027   7.30213   7.30362   7.33007   7.33042
 Alpha virt. eigenvalues --    7.33239   7.33286   7.33535   7.34037   7.34428
 Alpha virt. eigenvalues --    7.37909   7.38183   7.38709   7.40054   7.44436
 Alpha virt. eigenvalues --    7.44636   7.46639   7.46809   7.47161   7.47303
 Alpha virt. eigenvalues --    7.50792   7.62341   7.62790   8.34837   8.34894
 Alpha virt. eigenvalues --    8.45337   8.48277   8.51464   8.53597   8.57660
 Alpha virt. eigenvalues --    8.61578   8.75524   8.75831   8.81632   8.88077
 Alpha virt. eigenvalues --    8.89185   8.91615   8.94393   8.98101   8.99939
 Alpha virt. eigenvalues --    9.01125   9.02125   9.03970  15.86661  22.82487
 Alpha virt. eigenvalues --   22.86635  22.87708  22.91747  22.93950  23.10817
 Alpha virt. eigenvalues --   23.13448  23.14203  23.14523  23.17270  23.19398
 Alpha virt. eigenvalues --   23.20786  23.23912  23.24696  23.26711  23.27735
 Alpha virt. eigenvalues --   23.28535  23.29080  23.31612  23.31647  23.32156
 Alpha virt. eigenvalues --   23.33744  23.34115  23.35991  23.36547  23.37304
 Alpha virt. eigenvalues --   23.39310  23.39467  23.40307  23.40833  23.41968
 Alpha virt. eigenvalues --   23.43146  23.45177  23.45778  23.46354  23.47744
 Alpha virt. eigenvalues --   23.50436  23.51077  23.52161  23.58427  23.59006
 Alpha virt. eigenvalues --   23.61851  23.66108  23.73192  23.83091  23.92570
 Alpha virt. eigenvalues --   24.06545  24.10047  24.10284  32.58292  33.15883
 Alpha virt. eigenvalues --   33.27103  44.20372  44.20826  44.24777  44.29781
 Alpha virt. eigenvalues --   44.34601  44.38234  44.43734  44.48208  44.49224
 Alpha virt. eigenvalues --   44.55269  44.62046  44.63769  57.32340  57.57472
 Alpha virt. eigenvalues --   57.58189  57.60534
          Condensed to atoms (all electrons):
 Mulliken charges:
               1
     1  B    0.337267
     2  N   -0.069307
     3  C   -0.062037
     4  C    0.299335
     5  C   -0.023229
     6  C    0.119713
     7  C    0.075058
     8  C    0.153240
     9  O   -0.325882
    10  C   -0.166790
    11  C   -0.052471
    12  C   -0.104867
    13  C   -0.093150
    14  C   -0.011081
    15  C   -0.109451
    16  C   -0.088268
    17  N    0.493783
    18  O   -0.367066
    19  O   -0.367090
    20  C    0.153288
    21  N   -0.098881
    22  C   -0.051861
    23  C    0.280342
    24  C   -0.029971
    25  C   -0.454316
    26  C   -0.088086
    27  C   -0.065671
    28  C   -0.002997
    29  C   -0.156430
    30  C   -0.193505
    31  C    0.230392
    32  O   -0.279593
    33  C   -0.103533
    34  C   -0.145248
    35  O   -0.326628
    36  C   -0.043015
    37  C   -0.135423
    38  O   -0.334633
    39  C   -0.099131
    40  C   -0.105228
    41  O   -0.346544
    42  C   -0.209199
    43  C   -0.170392
    44  C   -0.146829
    45  C   -0.462583
    46  C   -0.083214
    47  C   -0.083674
    48  C   -0.017977
    49  C   -0.151335
    50  C   -0.172317
    51  C    0.227590
    52  O   -0.280384
    53  C   -0.103887
    54  C   -0.090606
    55  O   -0.340200
    56  C   -0.092862
    57  C   -0.065897
    58  O   -0.363597
    59  C   -0.077668
    60  C   -0.037549
    61  O   -0.353017
    62  C   -0.204295
    63  C   -0.192981
    64  C   -0.146227
    65  F   -0.326716
    66  F   -0.352904
    67  H    0.193356
    68  H    0.190072
    69  H    0.163555
    70  H    0.194834
    71  H    0.195673
    72  H    0.160808
    73  H    0.142031
    74  H    0.137096
    75  H    0.180426
    76  H    0.098831
    77  H    0.131297
    78  H    0.157502
    79  H    0.159196
    80  H    0.167528
    81  H    0.153846
    82  H    0.134299
    83  H    0.132731
    84  H    0.127006
    85  H    0.122496
    86  H    0.131727
    87  H    0.132930
    88  H    0.130827
    89  H    0.139402
    90  H    0.137652
    91  H    0.140842
    92  H    0.137491
    93  H    0.123010
    94  H    0.125744
    95  H    0.154833
    96  H    0.144452
    97  H    0.171468
    98  H    0.169131
    99  H    0.139147
   100  H    0.122534
   101  H    0.124387
   102  H    0.145253
   103  H    0.156830
   104  H    0.150358
   105  H    0.151892
   106  H    0.126716
   107  H    0.129181
   108  H    0.126210
   109  H    0.120889
   110  H    0.135808
   111  H    0.126398
   112  H    0.119357
   113  H    0.133902
   114  H    0.112497
   115  H    0.110664
   116  H    0.136662
   117  H    0.120928
   118  H    0.120267
   119  H    0.159938
   120  H    0.151554
   121  O   -0.216177
   122  F   -0.216788
   123  F   -0.212812
 Sum of Mulliken charges =  -0.00000
 Mulliken charges with hydrogens summed into heavy atoms:
               1
     1  B    0.337267
     2  N   -0.069307
     3  C   -0.062037
     4  C    0.299335
     5  C   -0.023229
     6  C    0.119713
     7  C    0.075058
     8  C    0.153240
     9  O   -0.325882
    10  C    0.216637
    11  C   -0.052471
    12  C    0.058688
    13  C    0.101684
    14  C   -0.011081
    15  C    0.086222
    16  C    0.072540
    17  N    0.493783
    18  O   -0.367066
    19  O   -0.367090
    20  C    0.153288
    21  N   -0.098881
    22  C   -0.051861
    23  C    0.280342
    24  C   -0.029971
    25  C    0.005236
    26  C    0.010745
    27  C    0.065626
    28  C   -0.002997
    29  C    0.001072
    30  C   -0.034309
    31  C    0.230392
    32  O   -0.279593
    33  C    0.217841
    34  C    0.121782
    35  O   -0.326628
    36  C    0.206487
    37  C    0.129234
    38  O   -0.334633
    39  C    0.171098
    40  C    0.173266
    41  O   -0.346544
    42  C    0.177046
    43  C   -0.015559
    44  C   -0.002377
    45  C    0.017163
    46  C    0.039320
    47  C    0.040714
    48  C   -0.017977
    49  C   -0.006082
    50  C   -0.015487
    51  C    0.227590
    52  O   -0.280384
    53  C    0.198363
    54  C    0.165292
    55  O   -0.340200
    56  C    0.154236
    57  C    0.196309
    58  O   -0.363597
    59  C    0.175591
    60  C    0.185612
    61  O   -0.353017
    62  C    0.173563
    63  C   -0.033043
    64  C    0.005327
    65  F   -0.326716
    66  F   -0.352904
   121  O   -0.216177
   122  F   -0.216788
   123  F   -0.212812
 Electronic spatial extent (au):  <R**2>=         135172.4247
 Charge=             -0.0000 electrons
 Dipole moment (field-independent basis, Debye):
    X=              5.5544    Y=             -8.7970    Z=             -4.8173  Tot=             11.4650
 Quadrupole moment (field-independent basis, Debye-Ang):
   XX=           -347.8822   YY=           -369.8955   ZZ=           -408.8770
   XY=             96.1040   XZ=            -22.6339   YZ=            -13.9027
 Traceless Quadrupole moment (field-independent basis, Debye-Ang):
   XX=             27.6693   YY=              5.6560   ZZ=            -33.3254
   XY=             96.1040   XZ=            -22.6339   YZ=            -13.9027
 Octapole moment (field-independent basis, Debye-Ang**2):
  XXX=           1127.4083  YYY=           -497.0354  ZZZ=             -4.8677  XYY=            527.3499
  XXY=           -398.9176  XXZ=           -430.0753  XZZ=            132.2541  YZZ=             77.6462
  YYZ=           -387.7504  XYZ=             42.7683
 Hexadecapole moment (field-independent basis, Debye-Ang**3):
 XXXX=        -125684.8525 YYYY=         -47923.4002 ZZZZ=          -3990.3658 XXXY=          18069.9549
 XXXZ=           1840.0623 YYYX=           1938.5340 YYYZ=           -929.4043 ZZZX=           -312.1255
 ZZZY=           -221.1614 XXYY=         -28282.7650 XXZZ=         -21043.4175 YYZZ=          -8985.3965
 XXYZ=          -2256.4108 YYXZ=          -1837.1023 ZZXY=           1095.6514
 N-N= 9.503006585091D+03 E-N=-2.693526979670D+04  KE= 3.373224627249D+03
 Leave Link  601 at Fri Nov 14 02:24:54 2025, MaxMem= 30870077440 cpu:             145.9 elap:               2.8
 (Enter /public/software/gauss/g16/l9999.exe)
 1\1\GINC-CU137\SP\RM062X\def2TZVPP\C49H54B1F4N3O12\BAIDING\14-Nov-2025
 \0\\#p M062X/DEF2TZVPP scrf=(solvent=water) em=GD3\\Energy calculation
  for BE_F_i\\0,1\B,0,-2.738755,-0.602105,-0.388521\N,0,-3.560649,-1.88
 2742,-0.697557\C,0,-3.037892,-3.132865,-0.883774\C,0,-4.145736,-3.9909
 93,-1.120426\C,0,-5.333132,-3.298225,-1.086828\C,0,-4.946057,-1.944441
 ,-0.806929\C,0,-5.707888,-0.779022,-0.673288\C,0,-7.203023,-0.873935,-
 0.831491\O,0,-7.791149,-0.55851,-1.849047\C,0,-9.227847,-1.605735,0.22
 1784\C,0,-9.996828,-0.370541,0.615307\C,0,-10.027193,0.032123,1.959067
 \C,0,-10.720448,1.174333,2.341352\C,0,-11.388319,1.905353,1.35754\C,0,
 -11.38119,1.528901,0.014836\C,0,-10.676119,0.385962,-0.349122\N,0,-12.
 123702,3.105594,1.748871\O,0,-12.124984,3.433491,2.939902\O,0,-12.7150
 85,3.7456,0.873314\C,0,-5.11839,0.471148,-0.44354\N,0,-3.726632,0.5972
 67,-0.347736\C,0,-3.428251,1.907888,-0.072999\C,0,-4.66788,2.591581,-0
 .00191\C,0,-5.729742,1.749573,-0.230498\C,0,-7.170412,2.150436,-0.2290
 9\C,0,-2.180185,2.579548,0.140624\C,0,-0.909571,2.127024,-0.038725\C,0
 ,0.306961,2.879979,0.218162\C,0,0.332258,4.192699,0.746906\C,0,1.52765
 7,4.85311,0.964889\C,0,2.75237,4.227202,0.663737\O,0,3.870869,4.964381
 ,0.917996\C,0,5.155676,4.398694,0.607254\C,0,6.212215,5.419438,0.98940
 9\O,0,6.112549,6.652501,0.284724\C,0,6.554578,6.592869,-1.073514\C,0,6
 .627811,8.009507,-1.611176\O,0,7.615538,8.791248,-0.931078\C,0,8.75997
 4,9.144447,-1.708401\C,0,9.680812,7.973365,-2.040856\O,0,10.094856,7.2
 0886,-0.910934\C,0,10.986181,7.897673,-0.039558\C,0,2.757284,2.926665,
 0.142504\C,0,1.545568,2.275039,-0.071746\C,0,-6.686973,-3.889886,-1.31
 8814\C,0,-1.636626,-3.425467,-0.840342\C,0,-1.112974,-4.677711,-0.9504
 87\C,0,0.295389,-5.029508,-0.910193\C,0,0.658588,-6.384658,-1.035094\C
 ,0,1.986764,-6.801101,-0.999824\C,0,2.998999,-5.846408,-0.834204\O,0,4
 .331245,-6.131021,-0.781608\C,0,4.746299,-7.503713,-0.885783\C,0,6.251
 315,-7.545105,-0.771887\O,0,6.620908,-7.16781,0.553657\C,0,8.019596,-7
 .270767,0.819158\C,0,8.80129,-6.058662,0.304839\O,0,10.18362,-6.176369
 ,0.658467\C,0,10.521655,-5.612064,1.927543\C,0,10.916871,-4.147089,1.7
 75093\O,0,11.259645,-3.654594,3.064404\C,0,11.664911,-2.292326,3.02924
 2\C,0,2.661814,-4.485143,-0.709971\C,0,1.338336,-4.086614,-0.747512\F,
 0,-2.079365,-0.72995,0.836773\F,0,-1.789288,-0.424155,-1.409514\H,0,-9
 .49615,-1.948266,-0.777055\H,0,-9.377949,-2.408878,0.943161\H,0,-9.507
 39,-0.554817,2.709597\H,0,-10.751464,1.492345,3.37529\H,0,-11.911905,2
 .11873,-0.721236\H,0,-10.652539,0.079154,-1.389159\H,0,-7.750594,1.570
 143,0.49468\H,0,-7.252481,3.205513,0.041654\H,0,-7.631027,2.01352,-1.2
 11386\H,0,-2.327811,3.603649,0.473413\H,0,-0.753293,1.128883,-0.429687
 \H,0,-0.594931,4.700391,0.991958\H,0,1.543414,5.85968,1.370281\H,0,5.3
 18534,3.482641,1.187953\H,0,5.201438,4.146603,-0.457931\H,0,6.106846,5
 .669106,2.049728\H,0,7.200732,4.961695,0.8401\H,0,7.538115,6.107173,-1
 .12467\H,0,5.853796,6.016386,-1.694548\H,0,6.82265,7.975213,-2.689431\
 H,0,5.657651,8.4996,-1.461255\H,0,8.459745,9.619858,-2.654099\H,0,9.29
 0439,9.895715,-1.115998\H,0,9.170622,7.265226,-2.700794\H,0,10.55449,8
 .369211,-2.582264\H,0,11.347241,7.167098,0.688688\H,0,11.845121,8.3070
 45,-0.589664\H,0,10.493464,8.7153,0.501487\H,0,3.685548,2.421613,-0.09
 386\H,0,1.556257,1.266539,-0.475702\H,0,-7.285044,-3.900996,-0.402251\
 H,0,-7.247111,-3.335122,-2.077197\H,0,-6.58085,-4.920782,-1.663907\H,0
 ,-0.978216,-2.57389,-0.715509\H,0,-1.79016,-5.517118,-1.077046\H,0,-0.
 122446,-7.129241,-1.162016\H,0,2.220319,-7.853816,-1.099508\H,0,4.2866
 59,-8.093795,-0.084833\H,0,4.441531,-7.917895,-1.853751\H,0,6.587165,-
 8.569832,-0.986901\H,0,6.698904,-6.877036,-1.519244\H,0,8.119505,-7.33
 5257,1.907414\H,0,8.431213,-8.192345,0.384813\H,0,8.761875,-6.004723,-
 0.787337\H,0,8.363722,-5.136059,0.70513\H,0,9.694014,-5.705736,2.64129
 3\H,0,11.369442,-6.184158,2.3181\H,0,11.770546,-4.062084,1.085505\H,0,
 10.083896,-3.566604,1.34917\H,0,11.906837,-1.997355,4.053239\H,0,12.55
 3473,-2.152953,2.397149\H,0,10.862606,-1.643534,2.649862\H,0,3.459715,
 -3.760553,-0.583352\H,0,1.108991,-3.030764,-0.647839\O,0,-7.781405,-1.
 366713,0.270849\F,0,-4.036073,-5.310905,-1.363675\F,0,-4.758421,3.9095
 96,0.251366\\Version=ES64L-G16RevA.03\State=1-A\HF=-3390.9016964\RMSD=
 1.692e-09\Dipole=2.1852721,-3.4609981,-1.8952912\Quadrupole=20.5714756
 ,4.2051289,-24.7766045,71.4509354,-16.8277138,-10.3363131\PG=C01 [X(C4
 9H54B1F4N3O12)]\\@


 A true friend is someone who is there for
 you when he'd rather be anywhere else.
                               -- Len Wein
 Job cpu time:       1 days  9 hours 51 minutes 20.1 seconds.
 Elapsed time:       0 days  0 hours 32 minutes 25.3 seconds.
 File lengths (MBytes):  RWF=   5590 Int=      0 D2E=      0 Chk=    485 Scr=      1
 Normal termination of Gaussian 16 at Fri Nov 14 02:24:55 2025.
