 Entering Gaussian System, Link 0=g16
 Input=BE_F_reduced_i_sp.gjf
 Output=BE_F_reduced_i_sp.log
 Initial command:
 /public/software/gauss/g16/l1.exe "/public/home/baiding/1113_modified_sp/tmp_BE_F_reduced_i_sp_1602077/Gau-274766.inp" -scrdir="/public/home/baiding/1113_modified_sp/tmp_BE_F_reduced_i_sp_1602077/"
 Entering Link 1 = /public/software/gauss/g16/l1.exe PID=    274767.
  
 Copyright (c) 1988,1990,1992,1993,1995,1998,2003,2009,2016,
            Gaussian, Inc.  All Rights Reserved.
  
 This is part of the Gaussian(R) 16 program.  It is based on
 the Gaussian(R) 09 system (copyright 2009, Gaussian, Inc.),
 the Gaussian(R) 03 system (copyright 2003, Gaussian, Inc.),
 the Gaussian(R) 98 system (copyright 1998, Gaussian, Inc.),
 the Gaussian(R) 94 system (copyright 1995, Gaussian, Inc.),
 the Gaussian 92(TM) system (copyright 1992, Gaussian, Inc.),
 the Gaussian 90(TM) system (copyright 1990, Gaussian, Inc.),
 the Gaussian 88(TM) system (copyright 1988, Gaussian, Inc.),
 the Gaussian 86(TM) system (copyright 1986, Carnegie Mellon
 University), and the Gaussian 82(TM) system (copyright 1983,
 Carnegie Mellon University). Gaussian is a federally registered
 trademark of Gaussian, Inc.
  
 This software contains proprietary and confidential information,
 including trade secrets, belonging to Gaussian, Inc.
  
 This software is provided under written license and may be
 used, copied, transmitted, or stored only in accord with that
 written license.
  
 The following legend is applicable only to US Government
 contracts under FAR:
  
                    RESTRICTED RIGHTS LEGEND
  
 Use, reproduction and disclosure by the US Government is
 subject to restrictions as set forth in subparagraphs (a)
 and (c) of the Commercial Computer Software - Restricted
 Rights clause in FAR 52.227-19.
  
 Gaussian, Inc.
 340 Quinnipiac St., Bldg. 40, Wallingford CT 06492
  
  
 ---------------------------------------------------------------
 Warning -- This program may not be used in any manner that
 competes with the business of Gaussian, Inc. or will provide
 assistance to any competitor of Gaussian, Inc.  The licensee
 of this program is prohibited from giving any competitor of
 Gaussian, Inc. access to this program.  By using this program,
 the user acknowledges that Gaussian, Inc. is engaged in the
 business of creating and licensing software in the field of
 computational chemistry and represents and warrants to the
 licensee that it is not a competitor of Gaussian, Inc. and that
 it will not use this program in any manner prohibited above.
 ---------------------------------------------------------------
  

 Cite this work as:
 Gaussian 16, Revision A.03,
 M. J. Frisch, G. W. Trucks, H. B. Schlegel, G. E. Scuseria, 
 M. A. Robb, J. R. Cheeseman, G. Scalmani, V. Barone, 
 G. A. Petersson, H. Nakatsuji, X. Li, M. Caricato, A. V. Marenich, 
 J. Bloino, B. G. Janesko, R. Gomperts, B. Mennucci, H. P. Hratchian, 
 J. V. Ortiz, A. F. Izmaylov, J. L. Sonnenberg, D. Williams-Young, 
 F. Ding, F. Lipparini, F. Egidi, J. Goings, B. Peng, A. Petrone, 
 T. Henderson, D. Ranasinghe, V. G. Zakrzewski, J. Gao, N. Rega, 
 G. Zheng, W. Liang, M. Hada, M. Ehara, K. Toyota, R. Fukuda, 
 J. Hasegawa, M. Ishida, T. Nakajima, Y. Honda, O. Kitao, H. Nakai, 
 T. Vreven, K. Throssell, J. A. Montgomery, Jr., J. E. Peralta, 
 F. Ogliaro, M. J. Bearpark, J. J. Heyd, E. N. Brothers, K. N. Kudin, 
 V. N. Staroverov, T. A. Keith, R. Kobayashi, J. Normand, 
 K. Raghavachari, A. P. Rendell, J. C. Burant, S. S. Iyengar, 
 J. Tomasi, M. Cossi, J. M. Millam, M. Klene, C. Adamo, R. Cammi, 
 J. W. Ochterski, R. L. Martin, K. Morokuma, O. Farkas, 
 J. B. Foresman, and D. J. Fox, Gaussian, Inc., Wallingford CT, 2016.
 
 ******************************************
 Gaussian 16:  ES64L-G16RevA.03 25-Dec-2016
                14-Nov-2025 
 ******************************************
 %nprocshared=64
 Will use up to   64 processors via shared memory.
 %mem=230GB
 %chk=BE_F_reduced_i_sp.chk
 ----------------------------------------------
 #p M062X/DEF2TZVPP scrf=(solvent=water) em=GD3
 ----------------------------------------------
 1/38=1,172=1/1;
 2/12=2,17=6,18=5,40=1/2;
 3/5=44,7=202,11=2,25=1,30=1,70=2201,72=1,74=-55,124=31/1,2,3;
 4//1;
 5/5=2,38=5,53=1/2;
 6/7=2,8=2,9=2,10=2,28=1/1;
 99/5=1,9=1/99;
 Leave Link    1 at Fri Nov 14 02:24:55 2025, MaxMem= 30870077440 cpu:              10.3 elap:               0.2
 (Enter /public/software/gauss/g16/l101.exe)
 -------------------------------------
 Energy calculation for BE_F_reduced_i
 -------------------------------------
 Symbolic Z-matrix:
 Charge = -1 Multiplicity = 2
 B                    -2.60921   0.21995   0.77967 
 N                    -3.68122  -0.88056   0.64059 
 C                    -3.42577  -2.13683   0.10416 
 C                    -4.68683  -2.69586  -0.1533 
 C                    -5.71696  -1.83723   0.20039 
 C                    -5.05335  -0.67965   0.72091 
 C                    -5.54784   0.55541   1.22253 
 C                    -7.00171   0.7545    1.35998 
 O                    -7.78693  -0.01249   1.90454 
 C                    -8.80672   2.2605    0.9506 
 C                    -9.70953   1.57192  -0.04635 
 C                    -9.23477   1.1577   -1.2989 
 C                    -10.09361   0.57403  -2.22358 
 C                    -11.438    0.41821  -1.88322 
 C                    -11.93992   0.82568  -0.64591 
 C                    -11.06528   1.39951   0.26847 
 N                    -12.34511  -0.18923  -2.84771 
 O                    -11.89206  -0.5491   -3.94051 
 O                    -13.53491  -0.32154  -2.53816 
 C                    -4.64779   1.58796   1.61744 
 N                    -3.28498   1.48665   1.34085 
 C                    -2.63093   2.58725   1.88727 
 C                    -3.62689   3.33676   2.52894 
 C                    -4.88143   2.76355   2.39332 
 C                    -6.12649   3.29747   3.03421 
 C                    -1.25933   2.99645   1.81939 
 C                    -0.23875   2.51582   1.05785 
 C                     1.13165   3.01733   1.05262 
 C                     1.61401   4.02229   1.92417 
 C                     2.92493   4.46675   1.85861 
 C                     3.81642   3.92189   0.91865 
 O                     5.08923   4.43253   0.93726 
 C                     6.03151   3.94853  -0.02986 
 C                     7.33882   4.69055   0.18424 
 O                     7.2422    6.10234   0.02516 
 C                     7.07616   6.53387  -1.32721 
 C                     7.26244   8.03898  -1.37088 
 O                     8.59679   8.42815  -1.02802 
 C                     9.37651   8.95235  -2.10314 
 C                     9.76794   7.92226  -3.15934 
 O                     10.40246   6.75573  -2.64046 
 C                     11.7035   6.99068  -2.11095 
 C                     3.37187   2.91907   0.04971 
 C                     2.04894   2.48316   0.1273 
 C                    -7.16718  -2.1582    0.00102 
 C                    -2.11091  -2.67811  -0.07065 
 C                    -1.81724  -3.86207  -0.67778 
 C                    -0.48972  -4.44219  -0.84058 
 C                    -0.35899  -5.67525  -1.50775 
 C                     0.87717  -6.29248  -1.70013 
 C                     2.03553  -5.6746   -1.2157 
 O                     3.30312  -6.18176  -1.34074 
 C                     3.46996  -7.44424  -2.00204 
 C                     4.94011  -7.7895   -1.98289 
 O                     5.33005  -8.0561   -0.63588 
 C                     6.70842  -8.39783  -0.48841 
 C                     7.59885  -7.15539  -0.40448 
 O                     8.96436  -7.53293  -0.19896 
 C                     9.34296  -7.66321   1.17296 
 C                     9.85426  -6.33384   1.71831 
 O                     10.23266  -6.53899   3.07381 
 C                     10.72263  -5.35077   3.68115 
 C                     1.93437  -4.44244  -0.54702 
 C                     0.6997   -3.84138  -0.36405 
 F                    -1.58626  -0.21161   1.64911 
 F                    -2.02769   0.47365  -0.4862 
 H                    -9.12553   2.04387   1.97197 
 H                    -8.84228   3.3424    0.79465 
 H                    -8.18858   1.28917  -1.55058 
 H                    -9.7346    0.24927  -3.19163 
 H                    -12.9868   0.68729  -0.40848 
 H                    -11.43759   1.71396   1.23847 
 H                    -6.74889   2.49973   3.4509 
 H                    -5.85206   3.96704   3.85465 
 H                    -6.74846   3.86948   2.33769 
 H                    -1.06466   3.85154   2.46393 
 H                    -0.43563   1.71111   0.35867 
 H                     0.95478   4.46045   2.66705 
 H                     3.28435   5.2392    2.53158 
 H                     6.20652   2.874     0.10854 
 H                     5.64105   4.10465  -1.04193 
 H                     7.68463   4.52836   1.20978 
 H                     8.08784   4.2706   -0.5028 
 H                     7.80987   6.03259  -1.97243 
 H                     6.06984   6.29396  -1.69978 
 H                     6.98632   8.40744  -2.36574 
 H                     6.5862    8.50315  -0.64218 
 H                     8.84455   9.7718   -2.60927 
 H                     10.26701   9.3791   -1.6324 
 H                     8.87924   7.56086  -3.68549 
 H                     10.41668   8.42047  -3.89704 
 H                     12.1389   6.01264  -1.8911 
 H                     12.34287   7.50997  -2.83866 
 H                     11.67776   7.57738  -1.1841 
 H                     4.03713   2.47524  -0.68098 
 H                     1.71446   1.70506  -0.55392 
 H                    -7.69436  -2.31859   0.94599 
 H                    -7.69732  -1.36255  -0.53153 
 H                    -7.25202  -3.07271  -0.59247 
 H                    -1.30758  -2.07868   0.344 
 H                    -2.62939  -4.45492  -1.08976 
 H                    -1.25221  -6.16453  -1.88729 
 H                     0.92359  -7.24132  -2.22065 
 H                     2.8912   -8.21944  -1.48571 
 H                     3.12482  -7.37856  -3.04081 
 H                     5.09947  -8.67811  -2.61067 
 H                     5.52068  -6.96226  -2.41167 
 H                     6.78605  -8.96983   0.44188 
 H                     7.04106  -9.04337  -1.31277 
 H                     7.56836  -6.59285  -1.34241 
 H                     7.2418   -6.49647   0.39631 
 H                     8.50812  -8.02411   1.78609 
 H                     10.14105  -8.41139   1.21651 
 H                     10.71337  -5.99181   1.12117 
 H                     9.0709   -5.56334   1.64898 
 H                     10.9877  -5.59664   4.71237 
 H                     11.61515  -4.97227   3.16273 
 H                     9.96091  -4.55811   3.6865 
 H                     2.84091  -3.97421  -0.17614 
 H                     0.65826  -2.89078   0.15825 
 O                    -7.4162    1.91838   0.78319 
 F                    -4.8753   -3.93268  -0.67147 
 F                    -3.37553   4.48592   3.19714 
 
 ITRead=  0  0  0  0  0  0  0  0  0  0  0  0  0  0  0  0  0  0  0  0
 ITRead=  0  0  0  0  0  0  0  0  0  0  0  0  0  0  0  0  0  0  0  0
 ITRead=  0  0  0  0  0  0  0  0  0  0  0  0  0  0  0  0  0  0  0  0
 ITRead=  0  0  0  0  0  0  0  0  0  0  0  0  0  0  0  0  0  0  0  0
 ITRead=  0  0  0  0  0  0  0  0  0  0  0  0  0  0  0  0  0  0  0  0
 ITRead=  0  0  0  0  0  0  0  0  0  0  0  0  0  0  0  0  0  0  0  0
 ITRead=  0  0  0
 MicOpt= -1 -1 -1 -1 -1 -1 -1 -1 -1 -1 -1 -1 -1 -1 -1 -1 -1 -1 -1 -1
 MicOpt= -1 -1 -1 -1 -1 -1 -1 -1 -1 -1 -1 -1 -1 -1 -1 -1 -1 -1 -1 -1
 MicOpt= -1 -1 -1 -1 -1 -1 -1 -1 -1 -1 -1 -1 -1 -1 -1 -1 -1 -1 -1 -1
 MicOpt= -1 -1 -1 -1 -1 -1 -1 -1 -1 -1 -1 -1 -1 -1 -1 -1 -1 -1 -1 -1
 MicOpt= -1 -1 -1 -1 -1 -1 -1 -1 -1 -1 -1 -1 -1 -1 -1 -1 -1 -1 -1 -1
 MicOpt= -1 -1 -1 -1 -1 -1 -1 -1 -1 -1 -1 -1 -1 -1 -1 -1 -1 -1 -1 -1
 MicOpt= -1 -1 -1
 NAtoms=    123 NQM=      123 NQMF=       0 NMMI=      0 NMMIF=      0
                NMic=       0 NMicF=      0.
                    Isotopes and Nuclear Properties:
 (Nuclear quadrupole moments (NQMom) in fm**2, nuclear magnetic moments (NMagM)
  in nuclear magnetons)

  Atom         1           2           3           4           5           6           7           8           9          10
 IAtWgt=          11          14          12          12          12          12          12          12          16          12
 AtmWgt=  11.0093053  14.0030740  12.0000000  12.0000000  12.0000000  12.0000000  12.0000000  12.0000000  15.9949146  12.0000000
 NucSpn=           3           2           0           0           0           0           0           0           0           0
 AtZEff=  -0.0000000  -0.0000000  -0.0000000  -0.0000000  -0.0000000  -0.0000000  -0.0000000  -0.0000000  -0.0000000  -0.0000000
 NQMom=    4.0590000   2.0440000   0.0000000   0.0000000   0.0000000   0.0000000   0.0000000   0.0000000   0.0000000   0.0000000
 NMagM=    2.6886370   0.4037610   0.0000000   0.0000000   0.0000000   0.0000000   0.0000000   0.0000000   0.0000000   0.0000000
 AtZNuc=   5.0000000   7.0000000   6.0000000   6.0000000   6.0000000   6.0000000   6.0000000   6.0000000   8.0000000   6.0000000

  Atom        11          12          13          14          15          16          17          18          19          20
 IAtWgt=          12          12          12          12          12          12          14          16          16          12
 AtmWgt=  12.0000000  12.0000000  12.0000000  12.0000000  12.0000000  12.0000000  14.0030740  15.9949146  15.9949146  12.0000000
 NucSpn=           0           0           0           0           0           0           2           0           0           0
 AtZEff=  -0.0000000  -0.0000000  -0.0000000  -0.0000000  -0.0000000  -0.0000000  -0.0000000  -0.0000000  -0.0000000  -0.0000000
 NQMom=    0.0000000   0.0000000   0.0000000   0.0000000   0.0000000   0.0000000   2.0440000   0.0000000   0.0000000   0.0000000
 NMagM=    0.0000000   0.0000000   0.0000000   0.0000000   0.0000000   0.0000000   0.4037610   0.0000000   0.0000000   0.0000000
 AtZNuc=   6.0000000   6.0000000   6.0000000   6.0000000   6.0000000   6.0000000   7.0000000   8.0000000   8.0000000   6.0000000

  Atom        21          22          23          24          25          26          27          28          29          30
 IAtWgt=          14          12          12          12          12          12          12          12          12          12
 AtmWgt=  14.0030740  12.0000000  12.0000000  12.0000000  12.0000000  12.0000000  12.0000000  12.0000000  12.0000000  12.0000000
 NucSpn=           2           0           0           0           0           0           0           0           0           0
 AtZEff=  -0.0000000  -0.0000000  -0.0000000  -0.0000000  -0.0000000  -0.0000000  -0.0000000  -0.0000000  -0.0000000  -0.0000000
 NQMom=    2.0440000   0.0000000   0.0000000   0.0000000   0.0000000   0.0000000   0.0000000   0.0000000   0.0000000   0.0000000
 NMagM=    0.4037610   0.0000000   0.0000000   0.0000000   0.0000000   0.0000000   0.0000000   0.0000000   0.0000000   0.0000000
 AtZNuc=   7.0000000   6.0000000   6.0000000   6.0000000   6.0000000   6.0000000   6.0000000   6.0000000   6.0000000   6.0000000

  Atom        31          32          33          34          35          36          37          38          39          40
 IAtWgt=          12          16          12          12          16          12          12          16          12          12
 AtmWgt=  12.0000000  15.9949146  12.0000000  12.0000000  15.9949146  12.0000000  12.0000000  15.9949146  12.0000000  12.0000000
 NucSpn=           0           0           0           0           0           0           0           0           0           0
 AtZEff=  -0.0000000  -0.0000000  -0.0000000  -0.0000000  -0.0000000  -0.0000000  -0.0000000  -0.0000000  -0.0000000  -0.0000000
 NQMom=    0.0000000   0.0000000   0.0000000   0.0000000   0.0000000   0.0000000   0.0000000   0.0000000   0.0000000   0.0000000
 NMagM=    0.0000000   0.0000000   0.0000000   0.0000000   0.0000000   0.0000000   0.0000000   0.0000000   0.0000000   0.0000000
 AtZNuc=   6.0000000   8.0000000   6.0000000   6.0000000   8.0000000   6.0000000   6.0000000   8.0000000   6.0000000   6.0000000

  Atom        41          42          43          44          45          46          47          48          49          50
 IAtWgt=          16          12          12          12          12          12          12          12          12          12
 AtmWgt=  15.9949146  12.0000000  12.0000000  12.0000000  12.0000000  12.0000000  12.0000000  12.0000000  12.0000000  12.0000000
 NucSpn=           0           0           0           0           0           0           0           0           0           0
 AtZEff=  -0.0000000  -0.0000000  -0.0000000  -0.0000000  -0.0000000  -0.0000000  -0.0000000  -0.0000000  -0.0000000  -0.0000000
 NQMom=    0.0000000   0.0000000   0.0000000   0.0000000   0.0000000   0.0000000   0.0000000   0.0000000   0.0000000   0.0000000
 NMagM=    0.0000000   0.0000000   0.0000000   0.0000000   0.0000000   0.0000000   0.0000000   0.0000000   0.0000000   0.0000000
 AtZNuc=   8.0000000   6.0000000   6.0000000   6.0000000   6.0000000   6.0000000   6.0000000   6.0000000   6.0000000   6.0000000

  Atom        51          52          53          54          55          56          57          58          59          60
 IAtWgt=          12          16          12          12          16          12          12          16          12          12
 AtmWgt=  12.0000000  15.9949146  12.0000000  12.0000000  15.9949146  12.0000000  12.0000000  15.9949146  12.0000000  12.0000000
 NucSpn=           0           0           0           0           0           0           0           0           0           0
 AtZEff=  -0.0000000  -0.0000000  -0.0000000  -0.0000000  -0.0000000  -0.0000000  -0.0000000  -0.0000000  -0.0000000  -0.0000000
 NQMom=    0.0000000   0.0000000   0.0000000   0.0000000   0.0000000   0.0000000   0.0000000   0.0000000   0.0000000   0.0000000
 NMagM=    0.0000000   0.0000000   0.0000000   0.0000000   0.0000000   0.0000000   0.0000000   0.0000000   0.0000000   0.0000000
 AtZNuc=   6.0000000   8.0000000   6.0000000   6.0000000   8.0000000   6.0000000   6.0000000   8.0000000   6.0000000   6.0000000

  Atom        61          62          63          64          65          66          67          68          69          70
 IAtWgt=          16          12          12          12          19          19           1           1           1           1
 AtmWgt=  15.9949146  12.0000000  12.0000000  12.0000000  18.9984033  18.9984033   1.0078250   1.0078250   1.0078250   1.0078250
 NucSpn=           0           0           0           0           1           1           1           1           1           1
 AtZEff=  -0.0000000  -0.0000000  -0.0000000  -0.0000000  -0.0000000  -0.0000000  -0.0000000  -0.0000000  -0.0000000  -0.0000000
 NQMom=    0.0000000   0.0000000   0.0000000   0.0000000   0.0000000   0.0000000   0.0000000   0.0000000   0.0000000   0.0000000
 NMagM=    0.0000000   0.0000000   0.0000000   0.0000000   2.6288670   2.6288670   2.7928460   2.7928460   2.7928460   2.7928460
 AtZNuc=   8.0000000   6.0000000   6.0000000   6.0000000   9.0000000   9.0000000   1.0000000   1.0000000   1.0000000   1.0000000

  Atom        71          72          73          74          75          76          77          78          79          80
 IAtWgt=           1           1           1           1           1           1           1           1           1           1
 AtmWgt=   1.0078250   1.0078250   1.0078250   1.0078250   1.0078250   1.0078250   1.0078250   1.0078250   1.0078250   1.0078250
 NucSpn=           1           1           1           1           1           1           1           1           1           1
 AtZEff=  -0.0000000  -0.0000000  -0.0000000  -0.0000000  -0.0000000  -0.0000000  -0.0000000  -0.0000000  -0.0000000  -0.0000000
 NQMom=    0.0000000   0.0000000   0.0000000   0.0000000   0.0000000   0.0000000   0.0000000   0.0000000   0.0000000   0.0000000
 NMagM=    2.7928460   2.7928460   2.7928460   2.7928460   2.7928460   2.7928460   2.7928460   2.7928460   2.7928460   2.7928460
 AtZNuc=   1.0000000   1.0000000   1.0000000   1.0000000   1.0000000   1.0000000   1.0000000   1.0000000   1.0000000   1.0000000

  Atom        81          82          83          84          85          86          87          88          89          90
 IAtWgt=           1           1           1           1           1           1           1           1           1           1
 AtmWgt=   1.0078250   1.0078250   1.0078250   1.0078250   1.0078250   1.0078250   1.0078250   1.0078250   1.0078250   1.0078250
 NucSpn=           1           1           1           1           1           1           1           1           1           1
 AtZEff=  -0.0000000  -0.0000000  -0.0000000  -0.0000000  -0.0000000  -0.0000000  -0.0000000  -0.0000000  -0.0000000  -0.0000000
 NQMom=    0.0000000   0.0000000   0.0000000   0.0000000   0.0000000   0.0000000   0.0000000   0.0000000   0.0000000   0.0000000
 NMagM=    2.7928460   2.7928460   2.7928460   2.7928460   2.7928460   2.7928460   2.7928460   2.7928460   2.7928460   2.7928460
 AtZNuc=   1.0000000   1.0000000   1.0000000   1.0000000   1.0000000   1.0000000   1.0000000   1.0000000   1.0000000   1.0000000

  Atom        91          92          93          94          95          96          97          98          99         100
 IAtWgt=           1           1           1           1           1           1           1           1           1           1
 AtmWgt=   1.0078250   1.0078250   1.0078250   1.0078250   1.0078250   1.0078250   1.0078250   1.0078250   1.0078250   1.0078250
 NucSpn=           1           1           1           1           1           1           1           1           1           1
 AtZEff=  -0.0000000  -0.0000000  -0.0000000  -0.0000000  -0.0000000  -0.0000000  -0.0000000  -0.0000000  -0.0000000  -0.0000000
 NQMom=    0.0000000   0.0000000   0.0000000   0.0000000   0.0000000   0.0000000   0.0000000   0.0000000   0.0000000   0.0000000
 NMagM=    2.7928460   2.7928460   2.7928460   2.7928460   2.7928460   2.7928460   2.7928460   2.7928460   2.7928460   2.7928460
 AtZNuc=   1.0000000   1.0000000   1.0000000   1.0000000   1.0000000   1.0000000   1.0000000   1.0000000   1.0000000   1.0000000

  Atom       101         102         103         104         105         106         107         108         109         110
 IAtWgt=           1           1           1           1           1           1           1           1           1           1
 AtmWgt=   1.0078250   1.0078250   1.0078250   1.0078250   1.0078250   1.0078250   1.0078250   1.0078250   1.0078250   1.0078250
 NucSpn=           1           1           1           1           1           1           1           1           1           1
 AtZEff=  -0.0000000  -0.0000000  -0.0000000  -0.0000000  -0.0000000  -0.0000000  -0.0000000  -0.0000000  -0.0000000  -0.0000000
 NQMom=    0.0000000   0.0000000   0.0000000   0.0000000   0.0000000   0.0000000   0.0000000   0.0000000   0.0000000   0.0000000
 NMagM=    2.7928460   2.7928460   2.7928460   2.7928460   2.7928460   2.7928460   2.7928460   2.7928460   2.7928460   2.7928460
 AtZNuc=   1.0000000   1.0000000   1.0000000   1.0000000   1.0000000   1.0000000   1.0000000   1.0000000   1.0000000   1.0000000

  Atom       111         112         113         114         115         116         117         118         119         120
 IAtWgt=           1           1           1           1           1           1           1           1           1           1
 AtmWgt=   1.0078250   1.0078250   1.0078250   1.0078250   1.0078250   1.0078250   1.0078250   1.0078250   1.0078250   1.0078250
 NucSpn=           1           1           1           1           1           1           1           1           1           1
 AtZEff=  -0.0000000  -0.0000000  -0.0000000  -0.0000000  -0.0000000  -0.0000000  -0.0000000  -0.0000000  -0.0000000  -0.0000000
 NQMom=    0.0000000   0.0000000   0.0000000   0.0000000   0.0000000   0.0000000   0.0000000   0.0000000   0.0000000   0.0000000
 NMagM=    2.7928460   2.7928460   2.7928460   2.7928460   2.7928460   2.7928460   2.7928460   2.7928460   2.7928460   2.7928460
 AtZNuc=   1.0000000   1.0000000   1.0000000   1.0000000   1.0000000   1.0000000   1.0000000   1.0000000   1.0000000   1.0000000

  Atom       121         122         123
 IAtWgt=          16          19          19
 AtmWgt=  15.9949146  18.9984033  18.9984033
 NucSpn=           0           1           1
 AtZEff=  -0.0000000  -0.0000000  -0.0000000
 NQMom=    0.0000000   0.0000000   0.0000000
 NMagM=    0.0000000   2.6288670   2.6288670
 AtZNuc=   8.0000000   9.0000000   9.0000000
 Leave Link  101 at Fri Nov 14 02:24:56 2025, MaxMem= 30870077440 cpu:               6.5 elap:               0.1
 (Enter /public/software/gauss/g16/l202.exe)
 Stoichiometry    C49H54BF4N3O12(1-,2)
 Framework group  C1[X(C49H54BF4N3O12)]
 Deg. of freedom   363
 Full point group                 C1      NOp   1
 Largest Abelian subgroup         C1      NOp   1
 Largest concise Abelian subgroup C1      NOp   1
                         Standard orientation:                         
 ---------------------------------------------------------------------
 Center     Atomic      Atomic             Coordinates (Angstroms)
 Number     Number       Type             X           Y           Z
 ---------------------------------------------------------------------
      1          5           0        2.609209   -0.219948    0.779669
      2          7           0        3.681216    0.880561    0.640590
      3          6           0        3.425772    2.136833    0.104161
      4          6           0        4.686827    2.695859   -0.153296
      5          6           0        5.716958    1.837233    0.200386
      6          6           0        5.053354    0.679645    0.720909
      7          6           0        5.547842   -0.555408    1.222527
      8          6           0        7.001713   -0.754503    1.359980
      9          8           0        7.786930    0.012487    1.904538
     10          6           0        8.806715   -2.260499    0.950597
     11          6           0        9.709532   -1.571918   -0.046345
     12          6           0        9.234769   -1.157695   -1.298903
     13          6           0       10.093609   -0.574027   -2.223584
     14          6           0       11.437995   -0.418211   -1.883221
     15          6           0       11.939915   -0.825683   -0.645914
     16          6           0       11.065278   -1.399510    0.268465
     17          7           0       12.345111    0.189230   -2.847714
     18          8           0       11.892060    0.549104   -3.940514
     19          8           0       13.534907    0.321538   -2.538163
     20          6           0        4.647790   -1.587957    1.617438
     21          7           0        3.284977   -1.486646    1.340845
     22          6           0        2.630927   -2.587246    1.887267
     23          6           0        3.626893   -3.336763    2.528937
     24          6           0        4.881426   -2.763554    2.393320
     25          6           0        6.126486   -3.297474    3.034208
     26          6           0        1.259330   -2.996445    1.819394
     27          6           0        0.238745   -2.515818    1.057846
     28          6           0       -1.131647   -3.017331    1.052624
     29          6           0       -1.614011   -4.022295    1.924166
     30          6           0       -2.924931   -4.466747    1.858608
     31          6           0       -3.816420   -3.921885    0.918646
     32          8           0       -5.089227   -4.432525    0.937264
     33          6           0       -6.031505   -3.948533   -0.029857
     34          6           0       -7.338822   -4.690552    0.184237
     35          8           0       -7.242201   -6.102339    0.025158
     36          6           0       -7.076157   -6.533873   -1.327214
     37          6           0       -7.262436   -8.038980   -1.370875
     38          8           0       -8.596793   -8.428149   -1.028017
     39          6           0       -9.376507   -8.952347   -2.103138
     40          6           0       -9.767940   -7.922259   -3.159336
     41          8           0      -10.402465   -6.755733   -2.640461
     42          6           0      -11.703500   -6.990677   -2.110949
     43          6           0       -3.371871   -2.919073    0.049705
     44          6           0       -2.048944   -2.483158    0.127304
     45          6           0        7.167184    2.158200    0.001015
     46          6           0        2.110911    2.678111   -0.070653
     47          6           0        1.817239    3.862074   -0.677781
     48          6           0        0.489724    4.442192   -0.840580
     49          6           0        0.358985    5.675254   -1.507747
     50          6           0       -0.877171    6.292482   -1.700133
     51          6           0       -2.035534    5.674602   -1.215702
     52          8           0       -3.303124    6.181760   -1.340741
     53          6           0       -3.469961    7.444236   -2.002041
     54          6           0       -4.940114    7.789495   -1.982886
     55          8           0       -5.330048    8.056104   -0.635884
     56          6           0       -6.708415    8.397833   -0.488410
     57          6           0       -7.598854    7.155391   -0.404483
     58          8           0       -8.964362    7.532934   -0.198955
     59          6           0       -9.342956    7.663213    1.172956
     60          6           0       -9.854265    6.333842    1.718311
     61          8           0      -10.232659    6.538985    3.073813
     62          6           0      -10.722632    5.350767    3.681150
     63          6           0       -1.934370    4.442439   -0.547020
     64          6           0       -0.699695    3.841381   -0.364050
     65          9           0        1.586264    0.211605    1.649112
     66          9           0        2.027687   -0.473649   -0.486204
     67          1           0        9.125531   -2.043874    1.971973
     68          1           0        8.842281   -3.342397    0.794650
     69          1           0        8.188575   -1.289171   -1.550575
     70          1           0        9.734604   -0.249272   -3.191629
     71          1           0       12.986802   -0.687289   -0.408480
     72          1           0       11.437594   -1.713955    1.238467
     73          1           0        6.748889   -2.499733    3.450901
     74          1           0        5.852064   -3.967039    3.854646
     75          1           0        6.748464   -3.869477    2.337688
     76          1           0        1.064657   -3.851537    2.463933
     77          1           0        0.435629   -1.711110    0.358672
     78          1           0       -0.954783   -4.460451    2.667045
     79          1           0       -3.284345   -5.239198    2.531584
     80          1           0       -6.206524   -2.873997    0.108544
     81          1           0       -5.641050   -4.104647   -1.041927
     82          1           0       -7.684634   -4.528359    1.209776
     83          1           0       -8.087842   -4.270599   -0.502799
     84          1           0       -7.809871   -6.032594   -1.972425
     85          1           0       -6.069840   -6.293960   -1.699776
     86          1           0       -6.986320   -8.407436   -2.365739
     87          1           0       -6.586197   -8.503154   -0.642177
     88          1           0       -8.844550   -9.771799   -2.609266
     89          1           0      -10.267007   -9.379096   -1.632402
     90          1           0       -8.879239   -7.560856   -3.685489
     91          1           0      -10.416680   -8.420471   -3.897042
     92          1           0      -12.138896   -6.012637   -1.891099
     93          1           0      -12.342872   -7.509973   -2.838656
     94          1           0      -11.677755   -7.577380   -1.184103
     95          1           0       -4.037129   -2.475244   -0.680980
     96          1           0       -1.714455   -1.705064   -0.553916
     97          1           0        7.694356    2.318590    0.945988
     98          1           0        7.697322    1.362554   -0.531526
     99          1           0        7.252018    3.072714   -0.592472
    100          1           0        1.307576    2.078682    0.344002
    101          1           0        2.629387    4.454919   -1.089757
    102          1           0        1.252212    6.164534   -1.887290
    103          1           0       -0.923590    7.241324   -2.220651
    104          1           0       -2.891204    8.219438   -1.485713
    105          1           0       -3.124818    7.378564   -3.040814
    106          1           0       -5.099475    8.678107   -2.610668
    107          1           0       -5.520682    6.962255   -2.411670
    108          1           0       -6.786049    8.969832    0.441877
    109          1           0       -7.041055    9.043372   -1.312772
    110          1           0       -7.568364    6.592854   -1.342409
    111          1           0       -7.241800    6.496473    0.396311
    112          1           0       -8.508122    8.024106    1.786092
    113          1           0      -10.141047    8.411386    1.216514
    114          1           0      -10.713367    5.991810    1.121169
    115          1           0       -9.070901    5.563341    1.648984
    116          1           0      -10.987695    5.596643    4.712372
    117          1           0      -11.615148    4.972273    3.162731
    118          1           0       -9.960906    4.558109    3.686496
    119          1           0       -2.840906    3.974209   -0.176143
    120          1           0       -0.658263    2.890781    0.158250
    121          8           0        7.416195   -1.918381    0.783188
    122          9           0        4.875296    3.932677   -0.671473
    123          9           0        3.375528   -4.485921    3.197145
 ---------------------------------------------------------------------
 Rotational constants (GHZ):           0.0211280           0.0102730           0.0074754
 Leave Link  202 at Fri Nov 14 02:24:56 2025, MaxMem= 30870077440 cpu:               0.2 elap:               0.0
 (Enter /public/software/gauss/g16/l301.exe)
 Standard basis: def2TZVPP (5D, 7F)
 Ernie: Thresh=  0.10000D-02 Tol=  0.10000D-05 Strict=F.
 There are  3294 symmetry adapted cartesian basis functions of A   symmetry.
 There are  2895 symmetry adapted basis functions of A   symmetry.
  2895 basis functions,  4437 primitive gaussians,  3294 cartesian basis functions
   254 alpha electrons      253 beta electrons
       nuclear repulsion energy      9478.7833537743 Hartrees.
 IExCor= 4336 DFT=T Ex+Corr=M062X ExCW=0 ScaHFX=  0.540000
 ScaDFX=  1.000000  1.000000  1.000000  1.000000 ScalE2=  1.000000  1.000000
 IRadAn=      5 IRanWt=     -1 IRanGd=            0 ICorTp=0 IEmpDi=131
 NAtoms=  123 NActive=  123 NUniq=  123 SFac= 1.00D+00 NAtFMM=   60 NAOKFM=T Big=T
 Integral buffers will be    131072 words long.
 Raffenetti 2 integral format.
 Two-electron integral symmetry is turned on.
 R6Disp:  Grimme-D3 Dispersion energy=       -0.0096014877 Hartrees.
 Nuclear repulsion after empirical dispersion term =     9478.7737522867 Hartrees.
 ------------------------------------------------------------------------------
 Polarizable Continuum Model (PCM)
 =================================
 Model                : PCM.
 Atomic radii         : UFF (Universal Force Field).
 Polarization charges : Total charges.
 Charge compensation  : None.
 Solution method      : On-the-fly selection.
 Cavity type          : Scaled VdW (van der Waals Surface) (Alpha=1.100).
 Cavity algorithm     : GePol (No added spheres)
                        Default sphere list used, NSphG=  123.
                        Lebedev-Laikov grids with approx.  5.0 points / Ang**2.
                        Smoothing algorithm: York/Karplus (Gamma=1.0000).
                        Polarization charges: spherical gaussians, with
                                              point-specific exponents (IZeta= 3).
                        Self-potential: point-specific (ISelfS= 7).
                        Self-field    : sphere-specific E.n sum rule (ISelfD= 2).
 Solvent              : Water, Eps=  78.355300 Eps(inf)=   1.777849
 ------------------------------------------------------------------------------
 GePol: Number of generator spheres                  =     123
 GePol: Total number of spheres                      =     123
 GePol: Number of exposed spheres                    =     123 (100.00%)
 GePol: Number of points                             =    8756
 GePol: Average weight of points                     =       0.13
 GePol: Minimum weight of points                     =   0.16D-11
 GePol: Maximum weight of points                     =    0.20577
 GePol: Number of points with low weight             =     568
 GePol: Fraction of low-weight points (<1% of avg)   =       6.49%
 GePol: Cavity surface area                          =   1114.237 Ang**2
 GePol: Cavity volume                                =   1263.914 Ang**3
 Leave Link  301 at Fri Nov 14 02:24:56 2025, MaxMem= 30870077440 cpu:               4.3 elap:               0.1
 (Enter /public/software/gauss/g16/l302.exe)
 NPDir=0 NMtPBC=     1 NCelOv=     1 NCel=       1 NClECP=     1 NCelD=      1
         NCelK=      1 NCelE2=     1 NClLst=     1 CellRange=     0.0.
 One-electron integrals computed using PRISM.
 One-electron integral symmetry used in STVInt
   1 Symmetry operations used in ECPInt.
 ECPInt:  NShTT=  586986 NPrTT= 1644258 LenC2=  235026 LenP2D=  436188.
 LDataN:  DoStor=T MaxTD1= 6 Len=  172
 Number of processors reduced to  58 by ecpmxn.
 NBasis=  2895 RedAO= T EigKep=  7.07D-06  NBF=  2895
 NBsUse=  2895 1.00D-06 EigRej= -1.00D+00 NBFU=  2895
 Precomputing XC quadrature grid using
 IXCGrd= 4 IRadAn=           5 IRanWt=          -1 IRanGd=           0 AccXCQ= 0.00D+00.
 Generated NRdTot=       0 NPtTot=           0 NUsed=           0 NTot=          32
 NSgBfM=  2452  2452  2452  2452  2452 MxSgAt=   123 MxSgA2=   123.
 Leave Link  302 at Fri Nov 14 02:25:27 2025, MaxMem= 30870077440 cpu:            2006.6 elap:              31.6
 (Enter /public/software/gauss/g16/l303.exe)
 DipDrv:  MaxL=1.
 Leave Link  303 at Fri Nov 14 02:25:28 2025, MaxMem= 30870077440 cpu:              56.6 elap:               1.0
 (Enter /public/software/gauss/g16/l401.exe)
 ExpMin= 6.06D-02 ExpMax= 3.55D+04 ExpMxC= 1.21D+03 IAcc=3 IRadAn=         5 AccDes= 0.00D+00
 Harris functional with IExCor= 1009 and IRadAn=       5 diagonalized for initial guess.
 HarFok:  IExCor= 1009 AccDes= 0.00D+00 IRadAn=         5 IDoV= 1 UseB2=F ITyADJ=14
 ICtDFT=  3500011 ScaDFX=  1.000000  1.000000  1.000000  1.000000
 FoFCou: FMM=F IPFlag=           0 FMFlag=      100000 FMFlg1=        2001
         NFxFlg=           0 DoJE=T BraDBF=F KetDBF=T FulRan=T
         wScrn=  0.000000 ICntrl=       500 IOpCl=  0 I1Cent=   200000004 NGrid=           0
         NMat0=    1 NMatS0=      1 NMatT0=    0 NMatD0=    1 NMtDS0=    0 NMtDT0=    0
 Petite list used in FoFCou.
 Harris En= -3389.32491208527    
 JPrj=0 DoOrth=F DoCkMO=F.
 Initial guess <Sx>= 0.0000 <Sy>= 0.0000 <Sz>= 0.5000 <S**2>= 0.7500 S= 0.5000
 Leave Link  401 at Fri Nov 14 02:25:52 2025, MaxMem= 30870077440 cpu:            1535.4 elap:              24.1
 (Enter /public/software/gauss/g16/l502.exe)
 Integral symmetry usage will be decided dynamically.
 UHF open shell SCF:
 Using DIIS extrapolation, IDIIS=  1040.
 NGot= 30870077440 LenX= 30848138025 LenY= 30837284295
 Requested convergence on RMS density matrix=1.00D-08 within 128 cycles.
 Requested convergence on MAX density matrix=1.00D-06.
 Requested convergence on             energy=1.00D-06.
 No special actions if energy rises.
 Fock matrices will be formed incrementally for  20 cycles.

 Cycle   1  Pass 1  IDiag  1:
 FoFJK:  IHMeth= 1 ICntrl=       0 DoSepK=F KAlg= 0 I1Cent=           0 FoldK=F
 IRaf= 360000000 NMat=       1 IRICut=       1 DoRegI=T DoRafI=F ISym2E= 0 IDoP0=0 IntGTp=1.
 FoFCou: FMM=T IPFlag=           0 FMFlag=      100000 FMFlg1=        2001
         NFxFlg=           0 DoJE=F BraDBF=F KetDBF=F FulRan=T
         wScrn=  0.000000 ICntrl=         0 IOpCl=  1 I1Cent=           0 NGrid=           0
         NMat0=    1 NMatS0=      1 NMatT0=    0 NMatD0=    1 NMtDS0=    0 NMtDT0=    0
 Symmetry not used in FoFCou.
 FMM levels:  10  Number of levels for PrismC:   9
 Inv3:  Mode=1 IEnd=   230002608.
 Iteration    1 A*A^-1 deviation from unit magnitude is 2.96D-14 for   8740.
 Iteration    1 A*A^-1 deviation from orthogonality  is 1.12D-14 for   8740   3746.
 Iteration    1 A^-1*A deviation from unit magnitude is 2.96D-14 for   8740.
 Iteration    1 A^-1*A deviation from orthogonality  is 5.38D-14 for   8592   8547.
 E= -3389.51445393317    
 DIIS: error= 2.43D-02 at cycle   1 NSaved=   1.
 NSaved= 1 IEnMin= 1 EnMin= -3389.51445393317     IErMin= 1 ErrMin= 2.43D-02
 ErrMax= 2.43D-02  0.00D+00 EMaxC= 1.00D-01 BMatC= 8.28D+00 BMatP= 8.28D+00
 IDIUse=3 WtCom= 7.57D-01 WtEn= 2.43D-01
 Coeff-Com:  0.100D+01
 Coeff-En:   0.100D+01
 Coeff:      0.100D+01
 Gap=     0.060 Goal=   None    Shift=    0.000
 Gap=     0.127 Goal=   None    Shift=    0.000
 GapD=    0.060 DampG=0.500 DampE=0.500 DampFc=0.2500 IDamp=-1.
 Damping current iteration by 2.50D-01
 RMSDP=1.45D-03 MaxDP=4.38D-01              OVMax= 2.61D-01

 Cycle   2  Pass 1  IDiag  1:
 RMSU=  3.62D-04    CP:  1.01D+00
 E= -3390.03211164814     Delta-E=       -0.517657714969 Rises=F Damp=T
 DIIS: error= 1.11D-02 at cycle   2 NSaved=   2.
 NSaved= 2 IEnMin= 2 EnMin= -3390.03211164814     IErMin= 2 ErrMin= 1.11D-02
 ErrMax= 1.11D-02  0.00D+00 EMaxC= 1.00D-01 BMatC= 3.06D+00 BMatP= 8.28D+00
 IDIUse=3 WtCom= 8.89D-01 WtEn= 1.11D-01
 Coeff-Com: -0.122D+01 0.222D+01
 Coeff-En:   0.000D+00 0.100D+01
 Coeff:     -0.109D+01 0.209D+01
 Gap=     0.121 Goal=   None    Shift=    0.000
 Gap=     0.156 Goal=   None    Shift=    0.000
 RMSDP=6.10D-04 MaxDP=1.09D-01 DE=-5.18D-01 OVMax= 2.10D-01

 Cycle   3  Pass 1  IDiag  1:
 RMSU=  4.51D-04    CP:  9.93D-01  2.13D+00
 E= -3390.98541554121     Delta-E=       -0.953303893073 Rises=F Damp=F
 DIIS: error= 9.36D-03 at cycle   3 NSaved=   3.
 NSaved= 3 IEnMin= 3 EnMin= -3390.98541554121     IErMin= 3 ErrMin= 9.36D-03
 ErrMax= 9.36D-03  0.00D+00 EMaxC= 1.00D-01 BMatC= 3.10D-01 BMatP= 3.06D+00
 IDIUse=3 WtCom= 9.06D-01 WtEn= 9.36D-02
 Coeff-Com: -0.527D+00 0.863D+00 0.664D+00
 Coeff-En:   0.000D+00 0.000D+00 0.100D+01
 Coeff:     -0.478D+00 0.782D+00 0.696D+00
 Gap=     0.109 Goal=   None    Shift=    0.000
 Gap=     0.124 Goal=   None    Shift=    0.000
 RMSDP=1.60D-04 MaxDP=5.52D-02 DE=-9.53D-01 OVMax= 7.96D-02

 Cycle   4  Pass 1  IDiag  1:
 RMSU=  1.48D-04    CP:  9.93D-01  2.17D+00  8.73D-01
 E= -3391.02927426110     Delta-E=       -0.043858719893 Rises=F Damp=F
 DIIS: error= 4.24D-03 at cycle   4 NSaved=   4.
 NSaved= 4 IEnMin= 4 EnMin= -3391.02927426110     IErMin= 4 ErrMin= 4.24D-03
 ErrMax= 4.24D-03  0.00D+00 EMaxC= 1.00D-01 BMatC= 7.97D-02 BMatP= 3.10D-01
 IDIUse=3 WtCom= 9.58D-01 WtEn= 4.24D-02
 Coeff-Com: -0.956D-01 0.145D+00 0.358D+00 0.593D+00
 Coeff-En:   0.000D+00 0.000D+00 0.196D+00 0.804D+00
 Coeff:     -0.915D-01 0.138D+00 0.351D+00 0.602D+00
 Gap=     0.111 Goal=   None    Shift=    0.000
 Gap=     0.127 Goal=   None    Shift=    0.000
 RMSDP=6.52D-05 MaxDP=2.00D-02 DE=-4.39D-02 OVMax= 2.46D-02

 Cycle   5  Pass 1  IDiag  1:
 RMSU=  4.44D-05    CP:  9.93D-01  2.16D+00  9.03D-01  6.92D-01
 E= -3391.04411375010     Delta-E=       -0.014839489002 Rises=F Damp=F
 DIIS: error= 3.41D-04 at cycle   5 NSaved=   5.
 NSaved= 5 IEnMin= 5 EnMin= -3391.04411375010     IErMin= 5 ErrMin= 3.41D-04
 ErrMax= 3.41D-04  0.00D+00 EMaxC= 1.00D-01 BMatC= 3.05D-03 BMatP= 7.97D-02
 IDIUse=3 WtCom= 9.97D-01 WtEn= 3.41D-03
 Coeff-Com: -0.153D-01 0.209D-01 0.124D+00 0.269D+00 0.602D+00
 Coeff-En:   0.000D+00 0.000D+00 0.000D+00 0.000D+00 0.100D+01
 Coeff:     -0.153D-01 0.208D-01 0.123D+00 0.268D+00 0.603D+00
 Gap=     0.112 Goal=   None    Shift=    0.000
 Gap=     0.128 Goal=   None    Shift=    0.000
 RMSDP=2.20D-05 MaxDP=8.34D-03 DE=-1.48D-02 OVMax= 6.99D-03

 Cycle   6  Pass 1  IDiag  1:
 RMSU=  1.94D-05    CP:  9.93D-01  2.18D+00  8.92D-01  7.33D-01  9.64D-01
 E= -3391.04479212363     Delta-E=       -0.000678373526 Rises=F Damp=F
 DIIS: error= 1.09D-04 at cycle   6 NSaved=   6.
 NSaved= 6 IEnMin= 6 EnMin= -3391.04479212363     IErMin= 6 ErrMin= 1.09D-04
 ErrMax= 1.09D-04  0.00D+00 EMaxC= 1.00D-01 BMatC= 3.17D-04 BMatP= 3.05D-03
 IDIUse=3 WtCom= 9.99D-01 WtEn= 1.09D-03
 Coeff-Com:  0.362D-02-0.624D-02 0.138D-01 0.469D-01 0.244D+00 0.697D+00
 Coeff-En:   0.000D+00 0.000D+00 0.000D+00 0.000D+00 0.000D+00 0.100D+01
 Coeff:      0.361D-02-0.623D-02 0.138D-01 0.468D-01 0.244D+00 0.698D+00
 Gap=     0.113 Goal=   None    Shift=    0.000
 Gap=     0.130 Goal=   None    Shift=    0.000
 RMSDP=8.43D-06 MaxDP=1.46D-03 DE=-6.78D-04 OVMax= 6.70D-03

 Cycle   7  Pass 1  IDiag  1:
 RMSU=  6.12D-06    CP:  9.93D-01  2.18D+00  8.92D-01  7.38D-01  1.08D+00
                    CP:  1.15D+00
 E= -3391.04493146875     Delta-E=       -0.000139345124 Rises=F Damp=F
 DIIS: error= 6.14D-05 at cycle   7 NSaved=   7.
 NSaved= 7 IEnMin= 7 EnMin= -3391.04493146875     IErMin= 7 ErrMin= 6.14D-05
 ErrMax= 6.14D-05  0.00D+00 EMaxC= 1.00D-01 BMatC= 7.70D-05 BMatP= 3.17D-04
 IDIUse=1 WtCom= 1.00D+00 WtEn= 0.00D+00
 Coeff-Com:  0.472D-02-0.689D-02-0.214D-01-0.414D-01-0.415D-01 0.270D+00
 Coeff-Com:  0.836D+00
 Coeff:      0.472D-02-0.689D-02-0.214D-01-0.414D-01-0.415D-01 0.270D+00
 Coeff:      0.836D+00
 Gap=     0.114 Goal=   None    Shift=    0.000
 Gap=     0.131 Goal=   None    Shift=    0.000
 RMSDP=7.54D-06 MaxDP=2.90D-03 DE=-1.39D-04 OVMax= 4.91D-03

 Cycle   8  Pass 1  IDiag  1:
 RMSU=  3.79D-06    CP:  9.93D-01  2.18D+00  8.91D-01  7.54D-01  1.14D+00
                    CP:  1.38D+00  1.39D+00
 E= -3391.04499370692     Delta-E=       -0.000062238170 Rises=F Damp=F
 DIIS: error= 3.97D-05 at cycle   8 NSaved=   8.
 NSaved= 8 IEnMin= 8 EnMin= -3391.04499370692     IErMin= 8 ErrMin= 3.97D-05
 ErrMax= 3.97D-05  0.00D+00 EMaxC= 1.00D-01 BMatC= 2.50D-05 BMatP= 7.70D-05
 IDIUse=1 WtCom= 1.00D+00 WtEn= 0.00D+00
 Coeff-Com:  0.101D-02-0.120D-02-0.132D-01-0.324D-01-0.934D-01-0.883D-01
 Coeff-Com:  0.378D+00 0.850D+00
 Coeff:      0.101D-02-0.120D-02-0.132D-01-0.324D-01-0.934D-01-0.883D-01
 Coeff:      0.378D+00 0.850D+00
 Gap=     0.115 Goal=   None    Shift=    0.000
 Gap=     0.132 Goal=   None    Shift=    0.000
 RMSDP=4.77D-06 MaxDP=9.96D-04 DE=-6.22D-05 OVMax= 3.59D-03

 Cycle   9  Pass 1  IDiag  1:
 RMSU=  1.67D-06    CP:  9.93D-01  2.18D+00  8.92D-01  7.57D-01  1.19D+00
                    CP:  1.52D+00  1.80D+00  1.39D+00
 E= -3391.04501678099     Delta-E=       -0.000023074064 Rises=F Damp=F
 DIIS: error= 1.92D-05 at cycle   9 NSaved=   9.
 NSaved= 9 IEnMin= 9 EnMin= -3391.04501678099     IErMin= 9 ErrMin= 1.92D-05
 ErrMax= 1.92D-05  0.00D+00 EMaxC= 1.00D-01 BMatC= 5.14D-06 BMatP= 2.50D-05
 IDIUse=1 WtCom= 1.00D+00 WtEn= 0.00D+00
 Coeff-Com: -0.104D-02 0.159D-02 0.200D-02 0.128D-02-0.205D-01-0.104D+00
 Coeff-Com: -0.117D+00 0.287D+00 0.951D+00
 Coeff:     -0.104D-02 0.159D-02 0.200D-02 0.128D-02-0.205D-01-0.104D+00
 Coeff:     -0.117D+00 0.287D+00 0.951D+00
 Gap=     0.115 Goal=   None    Shift=    0.000
 Gap=     0.133 Goal=   None    Shift=    0.000
 RMSDP=2.60D-06 MaxDP=8.03D-04 DE=-2.31D-05 OVMax= 1.98D-03

 Cycle  10  Pass 1  IDiag  1:
 RMSU=  8.79D-07    CP:  9.94D-01  2.18D+00  8.92D-01  7.60D-01  1.20D+00
                    CP:  1.58D+00  2.04D+00  1.69D+00  1.37D+00
 E= -3391.04502231220     Delta-E=       -0.000005531216 Rises=F Damp=F
 DIIS: error= 9.46D-06 at cycle  10 NSaved=  10.
 NSaved=10 IEnMin=10 EnMin= -3391.04502231220     IErMin=10 ErrMin= 9.46D-06
 ErrMax= 9.46D-06  0.00D+00 EMaxC= 1.00D-01 BMatC= 1.30D-06 BMatP= 5.14D-06
 IDIUse=1 WtCom= 1.00D+00 WtEn= 0.00D+00
 Coeff-Com: -0.632D-03 0.906D-03 0.364D-02 0.768D-02 0.114D-01-0.225D-01
 Coeff-Com: -0.132D+00-0.526D-01 0.406D+00 0.778D+00
 Coeff:     -0.632D-03 0.906D-03 0.364D-02 0.768D-02 0.114D-01-0.225D-01
 Coeff:     -0.132D+00-0.526D-01 0.406D+00 0.778D+00
 Gap=     0.115 Goal=   None    Shift=    0.000
 Gap=     0.133 Goal=   None    Shift=    0.000
 RMSDP=9.75D-07 MaxDP=4.05D-04 DE=-5.53D-06 OVMax= 7.23D-04

 Cycle  11  Pass 1  IDiag  1:
 RMSU=  4.41D-07    CP:  9.94D-01  2.18D+00  8.92D-01  7.60D-01  1.21D+00
                    CP:  1.59D+00  2.09D+00  1.81D+00  1.63D+00  1.38D+00
 E= -3391.04502327862     Delta-E=       -0.000000966420 Rises=F Damp=F
 DIIS: error= 3.77D-06 at cycle  11 NSaved=  11.
 NSaved=11 IEnMin=11 EnMin= -3391.04502327862     IErMin=11 ErrMin= 3.77D-06
 ErrMax= 3.77D-06  0.00D+00 EMaxC= 1.00D-01 BMatC= 2.24D-07 BMatP= 1.30D-06
 IDIUse=1 WtCom= 1.00D+00 WtEn= 0.00D+00
 Coeff-Com: -0.257D-04 0.189D-04 0.770D-03 0.226D-02 0.710D-02 0.105D-01
 Coeff-Com: -0.241D-01-0.622D-01-0.464D-01 0.245D+00 0.868D+00
 Coeff:     -0.257D-04 0.189D-04 0.770D-03 0.226D-02 0.710D-02 0.105D-01
 Coeff:     -0.241D-01-0.622D-01-0.464D-01 0.245D+00 0.868D+00
 Gap=     0.115 Goal=   None    Shift=    0.000
 Gap=     0.133 Goal=   None    Shift=    0.000
 RMSDP=4.90D-07 MaxDP=2.27D-04 DE=-9.66D-07 OVMax= 3.96D-04

 Cycle  12  Pass 1  IDiag  1:
 RMSU=  2.19D-07    CP:  9.94D-01  2.18D+00  8.92D-01  7.60D-01  1.21D+00
                    CP:  1.58D+00  2.10D+00  1.84D+00  1.77D+00  1.66D+00
                    CP:  1.44D+00
 E= -3391.04502355624     Delta-E=       -0.000000277616 Rises=F Damp=F
 DIIS: error= 2.28D-06 at cycle  12 NSaved=  12.
 NSaved=12 IEnMin=12 EnMin= -3391.04502355624     IErMin=12 ErrMin= 2.28D-06
 ErrMax= 2.28D-06  0.00D+00 EMaxC= 1.00D-01 BMatC= 6.51D-08 BMatP= 2.24D-07
 IDIUse=1 WtCom= 1.00D+00 WtEn= 0.00D+00
 Coeff-Com:  0.124D-03-0.183D-03-0.642D-03-0.116D-02-0.568D-03 0.720D-02
 Coeff-Com:  0.224D-01-0.627D-03-0.107D+00-0.123D+00 0.259D+00 0.945D+00
 Coeff:      0.124D-03-0.183D-03-0.642D-03-0.116D-02-0.568D-03 0.720D-02
 Coeff:      0.224D-01-0.627D-03-0.107D+00-0.123D+00 0.259D+00 0.945D+00
 Gap=     0.115 Goal=   None    Shift=    0.000
 Gap=     0.133 Goal=   None    Shift=    0.000
 RMSDP=3.46D-07 MaxDP=1.43D-04 DE=-2.78D-07 OVMax= 3.76D-04

 Cycle  13  Pass 1  IDiag  1:
 RMSU=  1.17D-07    CP:  9.94D-01  2.18D+00  8.92D-01  7.59D-01  1.21D+00
                    CP:  1.58D+00  2.11D+00  1.84D+00  1.84D+00  1.87D+00
                    CP:  1.86D+00  1.62D+00
 E= -3391.04502367600     Delta-E=       -0.000000119764 Rises=F Damp=F
 DIIS: error= 1.70D-06 at cycle  13 NSaved=  13.
 NSaved=13 IEnMin=13 EnMin= -3391.04502367600     IErMin=13 ErrMin= 1.70D-06
 ErrMax= 1.70D-06  0.00D+00 EMaxC= 1.00D-01 BMatC= 2.34D-08 BMatP= 6.51D-08
 IDIUse=1 WtCom= 1.00D+00 WtEn= 0.00D+00
 Coeff-Com:  0.496D-04-0.689D-04-0.439D-03-0.102D-02-0.192D-02-0.264D-03
 Coeff-Com:  0.139D-01 0.170D-01-0.269D-01-0.115D+00-0.140D+00 0.341D+00
 Coeff-Com:  0.914D+00
 Coeff:      0.496D-04-0.689D-04-0.439D-03-0.102D-02-0.192D-02-0.264D-03
 Coeff:      0.139D-01 0.170D-01-0.269D-01-0.115D+00-0.140D+00 0.341D+00
 Coeff:      0.914D+00
 Gap=     0.115 Goal=   None    Shift=    0.000
 Gap=     0.133 Goal=   None    Shift=    0.000
 RMSDP=2.28D-07 MaxDP=8.12D-05 DE=-1.20D-07 OVMax= 2.34D-04

 Cycle  14  Pass 1  IDiag  1:
 RMSU=  5.06D-08    CP:  9.94D-01  2.18D+00  8.92D-01  7.59D-01  1.21D+00
                    CP:  1.58D+00  2.11D+00  1.84D+00  1.87D+00  1.98D+00
                    CP:  2.12D+00  2.16D+00  1.57D+00
 E= -3391.04502372254     Delta-E=       -0.000000046539 Rises=F Damp=F
 DIIS: error= 1.22D-06 at cycle  14 NSaved=  14.
 NSaved=14 IEnMin=14 EnMin= -3391.04502372254     IErMin=14 ErrMin= 1.22D-06
 ErrMax= 1.22D-06  0.00D+00 EMaxC= 1.00D-01 BMatC= 9.46D-09 BMatP= 2.34D-08
 IDIUse=1 WtCom= 1.00D+00 WtEn= 0.00D+00
 Coeff-Com: -0.280D-04 0.425D-04 0.557D-04-0.184D-04-0.638D-03-0.318D-02
 Coeff-Com: -0.300D-02 0.769D-02 0.302D-01-0.456D-02-0.158D+00-0.206D+00
 Coeff-Com:  0.413D+00 0.924D+00
 Coeff:     -0.280D-04 0.425D-04 0.557D-04-0.184D-04-0.638D-03-0.318D-02
 Coeff:     -0.300D-02 0.769D-02 0.302D-01-0.456D-02-0.158D+00-0.206D+00
 Coeff:      0.413D+00 0.924D+00
 Gap=     0.115 Goal=   None    Shift=    0.000
 Gap=     0.133 Goal=   None    Shift=    0.000
 RMSDP=1.51D-07 MaxDP=4.26D-05 DE=-4.65D-08 OVMax= 1.50D-04

 Cycle  15  Pass 1  IDiag  1:
 RMSU=  3.42D-08    CP:  9.94D-01  2.18D+00  8.92D-01  7.59D-01  1.21D+00
                    CP:  1.58D+00  2.11D+00  1.85D+00  1.90D+00  2.03D+00
                    CP:  2.27D+00  2.54D+00  2.11D+00  1.48D+00
 E= -3391.04502373995     Delta-E=       -0.000000017402 Rises=F Damp=F
 DIIS: error= 6.32D-07 at cycle  15 NSaved=  15.
 NSaved=15 IEnMin=15 EnMin= -3391.04502373995     IErMin=15 ErrMin= 6.32D-07
 ErrMax= 6.32D-07  0.00D+00 EMaxC= 1.00D-01 BMatC= 3.61D-09 BMatP= 9.46D-09
 IDIUse=1 WtCom= 1.00D+00 WtEn= 0.00D+00
 Coeff-Com: -0.300D-04 0.438D-04 0.187D-03 0.352D-03 0.360D-03-0.156D-02
 Coeff-Com: -0.654D-02-0.264D-02 0.254D-01 0.399D-01-0.257D-01-0.235D+00
 Coeff-Com: -0.121D+00 0.487D+00 0.838D+00
 Coeff:     -0.300D-04 0.438D-04 0.187D-03 0.352D-03 0.360D-03-0.156D-02
 Coeff:     -0.654D-02-0.264D-02 0.254D-01 0.399D-01-0.257D-01-0.235D+00
 Coeff:     -0.121D+00 0.487D+00 0.838D+00
 Gap=     0.115 Goal=   None    Shift=    0.000
 Gap=     0.133 Goal=   None    Shift=    0.000
 RMSDP=7.76D-08 MaxDP=1.53D-05 DE=-1.74D-08 OVMax= 7.29D-05

 Cycle  16  Pass 1  IDiag  1:
 RMSU=  2.05D-08    CP:  9.94D-01  2.18D+00  8.92D-01  7.59D-01  1.21D+00
                    CP:  1.58D+00  2.11D+00  1.85D+00  1.91D+00  2.05D+00
                    CP:  2.33D+00  2.72D+00  2.42D+00  2.01D+00  1.34D+00
 E= -3391.04502374456     Delta-E=       -0.000000004617 Rises=F Damp=F
 DIIS: error= 4.17D-07 at cycle  16 NSaved=  16.
 NSaved=16 IEnMin=16 EnMin= -3391.04502374456     IErMin=16 ErrMin= 4.17D-07
 ErrMax= 4.17D-07  0.00D+00 EMaxC= 1.00D-01 BMatC= 1.09D-09 BMatP= 3.61D-09
 IDIUse=1 WtCom= 1.00D+00 WtEn= 0.00D+00
 Coeff-Com: -0.481D-05 0.682D-05 0.766D-04 0.181D-03 0.371D-03 0.172D-03
 Coeff-Com: -0.232D-02-0.392D-02 0.344D-02 0.218D-01 0.373D-01-0.573D-01
 Coeff-Com: -0.184D+00-0.382D-01 0.428D+00 0.795D+00
 Coeff:     -0.481D-05 0.682D-05 0.766D-04 0.181D-03 0.371D-03 0.172D-03
 Coeff:     -0.232D-02-0.392D-02 0.344D-02 0.218D-01 0.373D-01-0.573D-01
 Coeff:     -0.184D+00-0.382D-01 0.428D+00 0.795D+00
 Gap=     0.115 Goal=   None    Shift=    0.000
 Gap=     0.133 Goal=   None    Shift=    0.000
 RMSDP=3.14D-08 MaxDP=5.63D-06 DE=-4.62D-09 OVMax= 3.39D-05

 Cycle  17  Pass 1  IDiag  1:
 RMSU=  1.22D-08    CP:  9.94D-01  2.18D+00  8.92D-01  7.59D-01  1.21D+00
                    CP:  1.58D+00  2.11D+00  1.85D+00  1.91D+00  2.06D+00
                    CP:  2.35D+00  2.77D+00  2.53D+00  2.23D+00  1.73D+00
                    CP:  1.36D+00
 E= -3391.04502374569     Delta-E=       -0.000000001131 Rises=F Damp=F
 DIIS: error= 2.56D-07 at cycle  17 NSaved=  17.
 NSaved=17 IEnMin=17 EnMin= -3391.04502374569     IErMin=17 ErrMin= 2.56D-07
 ErrMax= 2.56D-07  0.00D+00 EMaxC= 1.00D-01 BMatC= 3.02D-10 BMatP= 1.09D-09
 IDIUse=1 WtCom= 1.00D+00 WtEn= 0.00D+00
 Coeff-Com:  0.606D-05-0.893D-05-0.177D-04-0.149D-04 0.680D-04 0.507D-03
 Coeff-Com:  0.816D-03-0.112D-02-0.604D-02-0.132D-02 0.268D-01 0.447D-01
 Coeff-Com: -0.484D-01-0.171D+00-0.571D-01 0.394D+00 0.817D+00
 Coeff:      0.606D-05-0.893D-05-0.177D-04-0.149D-04 0.680D-04 0.507D-03
 Coeff:      0.816D-03-0.112D-02-0.604D-02-0.132D-02 0.268D-01 0.447D-01
 Coeff:     -0.484D-01-0.171D+00-0.571D-01 0.394D+00 0.817D+00
 Gap=     0.115 Goal=   None    Shift=    0.000
 Gap=     0.133 Goal=   None    Shift=    0.000
 RMSDP=1.53D-08 MaxDP=5.38D-06 DE=-1.13D-09 OVMax= 1.50D-05

 Cycle  18  Pass 1  IDiag  1:
 RMSU=  6.13D-09    CP:  9.94D-01  2.18D+00  8.92D-01  7.59D-01  1.21D+00
                    CP:  1.58D+00  2.11D+00  1.85D+00  1.91D+00  2.06D+00
                    CP:  2.35D+00  2.77D+00  2.56D+00  2.33D+00  1.92D+00
                    CP:  1.79D+00  1.42D+00
 E= -3391.04502374629     Delta-E=       -0.000000000597 Rises=F Damp=F
 DIIS: error= 1.22D-07 at cycle  18 NSaved=  18.
 NSaved=18 IEnMin=18 EnMin= -3391.04502374629     IErMin=18 ErrMin= 1.22D-07
 ErrMax= 1.22D-07  0.00D+00 EMaxC= 1.00D-01 BMatC= 6.37D-11 BMatP= 3.02D-10
 IDIUse=1 WtCom= 1.00D+00 WtEn= 0.00D+00
 Coeff-Com:  0.311D-05-0.455D-05-0.251D-04-0.472D-04-0.579D-04 0.174D-03
 Coeff-Com:  0.919D-03 0.540D-03-0.336D-02-0.583D-02 0.179D-02 0.315D-01
 Coeff-Com:  0.260D-01-0.578D-01-0.128D+00-0.289D-01 0.335D+00 0.828D+00
 Coeff:      0.311D-05-0.455D-05-0.251D-04-0.472D-04-0.579D-04 0.174D-03
 Coeff:      0.919D-03 0.540D-03-0.336D-02-0.583D-02 0.179D-02 0.315D-01
 Coeff:      0.260D-01-0.578D-01-0.128D+00-0.289D-01 0.335D+00 0.828D+00
 Gap=     0.115 Goal=   None    Shift=    0.000
 Gap=     0.133 Goal=   None    Shift=    0.000
 RMSDP=8.83D-09 MaxDP=3.87D-06 DE=-5.97D-10 OVMax= 6.50D-06

 Cycle  19  Pass 1  IDiag  1:
 RMSU=  2.76D-09    CP:  9.94D-01  2.18D+00  8.92D-01  7.59D-01  1.21D+00
                    CP:  1.58D+00  2.11D+00  1.85D+00  1.91D+00  2.06D+00
                    CP:  2.35D+00  2.76D+00  2.56D+00  2.36D+00  2.00D+00
                    CP:  2.00D+00  1.80D+00  1.48D+00
 E= -3391.04502374591     Delta-E=        0.000000000382 Rises=F Damp=F
 DIIS: error= 5.20D-08 at cycle  19 NSaved=  19.
 NSaved=19 IEnMin=18 EnMin= -3391.04502374629     IErMin=19 ErrMin= 5.20D-08
 ErrMax= 5.20D-08  0.00D+00 EMaxC= 1.00D-01 BMatC= 1.34D-11 BMatP= 6.37D-11
 IDIUse=1 WtCom= 1.00D+00 WtEn= 0.00D+00
 Coeff-Com: -0.939D-06 0.131D-05-0.196D-05-0.696D-05-0.328D-04-0.862D-04
 Coeff-Com: -0.689D-05 0.465D-03 0.699D-03-0.102D-02-0.649D-02-0.368D-02
 Coeff-Com:  0.181D-01 0.295D-01-0.166D-01-0.106D+00-0.122D+00 0.195D+00
 Coeff-Com:  0.101D+01
 Coeff:     -0.939D-06 0.131D-05-0.196D-05-0.696D-05-0.328D-04-0.862D-04
 Coeff:     -0.689D-05 0.465D-03 0.699D-03-0.102D-02-0.649D-02-0.368D-02
 Coeff:      0.181D-01 0.295D-01-0.166D-01-0.106D+00-0.122D+00 0.195D+00
 Coeff:      0.101D+01
 Gap=     0.115 Goal=   None    Shift=    0.000
 Gap=     0.133 Goal=   None    Shift=    0.000
 RMSDP=5.88D-09 MaxDP=2.63D-06 DE= 3.82D-10 OVMax= 4.55D-06

 Cycle  20  Pass 1  IDiag  1:
 RMSU=  1.45D-09    CP:  9.94D-01  2.18D+00  8.92D-01  7.59D-01  1.21D+00
                    CP:  1.58D+00  2.11D+00  1.85D+00  1.91D+00  2.06D+00
                    CP:  2.35D+00  2.76D+00  2.55D+00  2.37D+00  2.04D+00
                    CP:  2.12D+00  2.06D+00  1.96D+00  1.58D+00
 E= -3391.04502374648     Delta-E=       -0.000000000571 Rises=F Damp=F
 DIIS: error= 2.38D-08 at cycle  20 NSaved=  20.
 NSaved=20 IEnMin=20 EnMin= -3391.04502374648     IErMin=20 ErrMin= 2.38D-08
 ErrMax= 2.38D-08  0.00D+00 EMaxC= 1.00D-01 BMatC= 4.78D-12 BMatP= 1.34D-11
 IDIUse=1 WtCom= 1.00D+00 WtEn= 0.00D+00
 Coeff-Com: -0.124D-05 0.179D-05 0.538D-05 0.894D-05-0.116D-05-0.770D-04
 Coeff-Com: -0.248D-03 0.764D-04 0.113D-02 0.111D-02-0.306D-02-0.929D-02
 Coeff-Com:  0.638D-03 0.272D-01 0.261D-01-0.396D-01-0.142D+00-0.133D+00
 Coeff-Com:  0.430D+00 0.841D+00
 Coeff:     -0.124D-05 0.179D-05 0.538D-05 0.894D-05-0.116D-05-0.770D-04
 Coeff:     -0.248D-03 0.764D-04 0.113D-02 0.111D-02-0.306D-02-0.929D-02
 Coeff:      0.638D-03 0.272D-01 0.261D-01-0.396D-01-0.142D+00-0.133D+00
 Coeff:      0.430D+00 0.841D+00
 Gap=     0.115 Goal=   None    Shift=    0.000
 Gap=     0.133 Goal=   None    Shift=    0.000
 RMSDP=3.12D-09 MaxDP=1.27D-06 DE=-5.71D-10 OVMax= 2.95D-06

 Cycle  21  Pass 1  IDiag  1:
 Restarting incremental Fock formation.
 E= -3391.04502374634     Delta-E=        0.000000000138 Rises=F Damp=F
 DIIS: error= 1.15D-08 at cycle  21 NSaved=  20.
 NSaved=20 IEnMin=19 EnMin= -3391.04502374648     IErMin=20 ErrMin= 1.15D-08
 ErrMax= 1.15D-08  0.00D+00 EMaxC= 1.00D-01 BMatC= 1.23D-12 BMatP= 4.78D-12
 IDIUse=1 WtCom= 1.00D+00 WtEn= 0.00D+00
 Coeff-Com:  0.270D-07 0.172D-05 0.362D-05 0.656D-05 0.644D-05-0.634D-04
 Coeff-Com: -0.937D-04 0.117D-03 0.515D-03 0.692D-03-0.158D-02-0.477D-02
 Coeff-Com: -0.929D-04 0.123D-01 0.167D-01-0.759D-02-0.826D-01-0.149D+00
 Coeff-Com:  0.228D+00 0.987D+00
 Coeff:      0.270D-07 0.172D-05 0.362D-05 0.656D-05 0.644D-05-0.634D-04
 Coeff:     -0.937D-04 0.117D-03 0.515D-03 0.692D-03-0.158D-02-0.477D-02
 Coeff:     -0.929D-04 0.123D-01 0.167D-01-0.759D-02-0.826D-01-0.149D+00
 Coeff:      0.228D+00 0.987D+00
 Gap=     0.115 Goal=   None    Shift=    0.000
 Gap=     0.133 Goal=   None    Shift=    0.000
 RMSDP=3.32D-09 MaxDP=5.18D-07 DE= 1.38D-10 OVMax= 2.20D-06

 Error on total polarization charges =  0.03038
 SCF Done:  E(UM062X) =  -3391.04502375     A.U. after   21 cycles
            NFock= 21  Conv=0.33D-08     -V/T= 2.0052
 <Sx>= 0.0000 <Sy>= 0.0000 <Sz>= 0.5000 <S**2>= 0.7919 S= 0.5207
 <L.S>= 0.000000000000E+00
 KE= 3.373353613818D+03 PE=-2.692936168492D+04 EE= 1.068618929507D+04
 Annihilation of the first spin contaminant:
 S**2 before annihilation     0.7919,   after     0.7514
 Leave Link  502 at Fri Nov 14 03:25:32 2025, MaxMem= 30870077440 cpu:          225898.7 elap:            3579.1
 (Enter /public/software/gauss/g16/l601.exe)
 Copying SCF densities to generalized density rwf, IOpCl= 1 IROHF=0.
 Hyperfine terms turned off by default for NAtoms > 100.

 **********************************************************************

            Population analysis using the SCF density.

 **********************************************************************

 Orbital symmetries:
 Alpha Orbitals:
       Occupied  (A) (A) (A) (A) (A) (A) (A) (A) (A) (A) (A) (A)
                 (A) (A) (A) (A) (A) (A) (A) (A) (A) (A) (A) (A)
                 (A) (A) (A) (A) (A) (A) (A) (A) (A) (A) (A) (A)
                 (A) (A) (A) (A) (A) (A) (A) (A) (A) (A) (A) (A)
                 (A) (A) (A) (A) (A) (A) (A) (A) (A) (A) (A) (A)
                 (A) (A) (A) (A) (A) (A) (A) (A) (A) (A) (A) (A)
                 (A) (A) (A) (A) (A) (A) (A) (A) (A) (A) (A) (A)
                 (A) (A) (A) (A) (A) (A) (A) (A) (A) (A) (A) (A)
                 (A) (A) (A) (A) (A) (A) (A) (A) (A) (A) (A) (A)
                 (A) (A) (A) (A) (A) (A) (A) (A) (A) (A) (A) (A)
                 (A) (A) (A) (A) (A) (A) (A) (A) (A) (A) (A) (A)
                 (A) (A) (A) (A) (A) (A) (A) (A) (A) (A) (A) (A)
                 (A) (A) (A) (A) (A) (A) (A) (A) (A) (A) (A) (A)
                 (A) (A) (A) (A) (A) (A) (A) (A) (A) (A) (A) (A)
                 (A) (A) (A) (A) (A) (A) (A) (A) (A) (A) (A) (A)
                 (A) (A) (A) (A) (A) (A) (A) (A) (A) (A) (A) (A)
                 (A) (A) (A) (A) (A) (A) (A) (A) (A) (A) (A) (A)
                 (A) (A) (A) (A) (A) (A) (A) (A) (A) (A) (A) (A)
                 (A) (A) (A) (A) (A) (A) (A) (A) (A) (A) (A) (A)
                 (A) (A) (A) (A) (A) (A) (A) (A) (A) (A) (A) (A)
                 (A) (A) (A) (A) (A) (A) (A) (A) (A) (A) (A) (A)
                 (A) (A)
       Virtual   (A) (A) (A) (A) (A) (A) (A) (A) (A) (A) (A) (A)
                 (A) (A) (A) (A) (A) (A) (A) (A) (A) (A) (A) (A)
                 (A) (A) (A) (A) (A) (A) (A) (A) (A) (A) (A) (A)
                 (A) (A) (A) (A) (A) (A) (A) (A) (A) (A) (A) (A)
                 (A) (A) (A) (A) (A) (A) (A) (A) (A) (A) (A) (A)
                 (A) (A) (A) (A) (A) (A) (A) (A) (A) (A) (A) (A)
                 (A) (A) (A) (A) (A) (A) (A) (A) (A) (A) (A) (A)
                 (A) (A) (A) (A) (A) (A) (A) (A) (A) (A) (A) (A)
                 (A) (A) (A) (A) (A) (A) (A) (A) (A) (A) (A) (A)
                 (A) (A) (A) (A) (A) (A) (A) (A) (A) (A) (A) (A)
                 (A) (A) (A) (A) (A) (A) (A) (A) (A) (A) (A) (A)
                 (A) (A) (A) (A) (A) (A) (A) (A) (A) (A) (A) (A)
                 (A) (A) (A) (A) (A) (A) (A) (A) (A) (A) (A) (A)
                 (A) (A) (A) (A) (A) (A) (A) (A) (A) (A) (A) (A)
                 (A) (A) (A) (A) (A) (A) (A) (A) (A) (A) (A) (A)
                 (A) (A) (A) (A) (A) (A) (A) (A) (A) (A) (A) (A)
                 (A) (A) (A) (A) (A) (A) (A) (A) (A) (A) (A) (A)
                 (A) (A) (A) (A) (A) (A) (A) (A) (A) (A) (A) (A)
                 (A) (A) (A) (A) (A) (A) (A) (A) (A) (A) (A) (A)
                 (A) (A) (A) (A) (A) (A) (A) (A) (A) (A) (A) (A)
                 (A) (A) (A) (A) (A) (A) (A) (A) (A) (A) (A) (A)
                 (A) (A) (A) (A) (A) (A) (A) (A) (A) (A) (A) (A)
                 (A) (A) (A) (A) (A) (A) (A) (A) (A) (A) (A) (A)
                 (A) (A) (A) (A) (A) (A) (A) (A) (A) (A) (A) (A)
                 (A) (A) (A) (A) (A) (A) (A) (A) (A) (A) (A) (A)
                 (A) (A) (A) (A) (A) (A) (A) (A) (A) (A) (A) (A)
                 (A) (A) (A) (A) (A) (A) (A) (A) (A) (A) (A) (A)
                 (A) (A) (A) (A) (A) (A) (A) (A) (A) (A) (A) (A)
                 (A) (A) (A) (A) (A) (A) (A) (A) (A) (A) (A) (A)
                 (A) (A) (A) (A) (A) (A) (A) (A) (A) (A) (A) (A)
                 (A) (A) (A) (A) (A) (A) (A) (A) (A) (A) (A) (A)
                 (A) (A) (A) (A) (A) (A) (A) (A) (A) (A) (A) (A)
                 (A) (A) (A) (A) (A) (A) (A) (A) (A) (A) (A) (A)
                 (A) (A) (A) (A) (A) (A) (A) (A) (A) (A) (A) (A)
                 (A) (A) (A) (A) (A) (A) (A) (A) (A) (A) (A) (A)
                 (A) (A) (A) (A) (A) (A) (A) (A) (A) (A) (A) (A)
                 (A) (A) (A) (A) (A) (A) (A) (A) (A) (A) (A) (A)
                 (A) (A) (A) (A) (A) (A) (A) (A) (A) (A) (A) (A)
                 (A) (A) (A) (A) (A) (A) (A) (A) (A) (A) (A) (A)
                 (A) (A) (A) (A) (A) (A) (A) (A) (A) (A) (A) (A)
                 (A) (A) (A) (A) (A) (A) (A) (A) (A) (A) (A) (A)
                 (A) (A) (A) (A) (A) (A) (A) (A) (A) (A) (A) (A)
                 (A) (A) (A) (A) (A) (A) (A) (A) (A) (A) (A) (A)
                 (A) (A) (A) (A) (A) (A) (A) (A) (A) (A) (A) (A)
                 (A) (A) (A) (A) (A) (A) (A) (A) (A) (A) (A) (A)
                 (A) (A) (A) (A) (A) (A) (A) (A) (A) (A) (A) (A)
                 (A) (A) (A) (A) (A) (A) (A) (A) (A) (A) (A) (A)
                 (A) (A) (A) (A) (A) (A) (A) (A) (A) (A) (A) (A)
                 (A) (A) (A) (A) (A) (A) (A) (A) (A) (A) (A) (A)
                 (A) (A) (A) (A) (A) (A) (A) (A) (A) (A) (A) (A)
                 (A) (A) (A) (A) (A) (A) (A) (A) (A) (A) (A) (A)
                 (A) (A) (A) (A) (A) (A) (A) (A) (A) (A) (A) (A)
                 (A) (A) (A) (A) (A) (A) (A) (A) (A) (A) (A) (A)
                 (A) (A) (A) (A) (A) (A) (A) (A) (A) (A) (A) (A)
                 (A) (A) (A) (A) (A) (A) (A) (A) (A) (A) (A) (A)
                 (A) (A) (A) (A) (A) (A) (A) (A) (A) (A) (A) (A)
                 (A) (A) (A) (A) (A) (A) (A) (A) (A) (A) (A) (A)
                 (A) (A) (A) (A) (A) (A) (A) (A) (A) (A) (A) (A)
                 (A) (A) (A) (A) (A) (A) (A) (A) (A) (A) (A) (A)
                 (A) (A) (A) (A) (A) (A) (A) (A) (A) (A) (A) (A)
                 (A) (A) (A) (A) (A) (A) (A) (A) (A) (A) (A) (A)
                 (A) (A) (A) (A) (A) (A) (A) (A) (A) (A) (A) (A)
                 (A) (A) (A) (A) (A) (A) (A) (A) (A) (A) (A) (A)
                 (A) (A) (A) (A) (A) (A) (A) (A) (A) (A) (A) (A)
                 (A) (A) (A) (A) (A) (A) (A) (A) (A) (A) (A) (A)
                 (A) (A) (A) (A) (A) (A) (A) (A) (A) (A) (A) (A)
                 (A) (A) (A) (A) (A) (A) (A) (A) (A) (A) (A) (A)
                 (A) (A) (A) (A) (A) (A) (A) (A) (A) (A) (A) (A)
                 (A) (A) (A) (A) (A) (A) (A) (A) (A) (A) (A) (A)
                 (A) (A) (A) (A) (A) (A) (A) (A) (A) (A) (A) (A)
                 (A) (A) (A) (A) (A) (A) (A) (A) (A) (A) (A) (A)
                 (A) (A) (A) (A) (A) (A) (A) (A) (A) (A) (A) (A)
                 (A) (A) (A) (A) (A) (A) (A) (A) (A) (A) (A) (A)
                 (A) (A) (A) (A) (A) (A) (A) (A) (A) (A) (A) (A)
                 (A) (A) (A) (A) (A) (A) (A) (A) (A) (A) (A) (A)
                 (A) (A) (A) (A) (A) (A) (A) (A) (A) (A) (A) (A)
                 (A) (A) (A) (A) (A) (A) (A) (A) (A) (A) (A) (A)
                 (A) (A) (A) (A) (A) (A) (A) (A) (A) (A) (A) (A)
                 (A) (A) (A) (A) (A) (A) (A) (A) (A) (A) (A) (A)
                 (A) (A) (A) (A) (A) (A) (A) (A) (A) (A) (A) (A)
                 (A) (A) (A) (A) (A) (A) (A) (A) (A) (A) (A) (A)
                 (A) (A) (A) (A) (A) (A) (A) (A) (A) (A) (A) (A)
                 (A) (A) (A) (A) (A) (A) (A) (A) (A) (A) (A) (A)
                 (A) (A) (A) (A) (A) (A) (A) (A) (A) (A) (A) (A)
                 (A) (A) (A) (A) (A) (A) (A) (A) (A) (A) (A) (A)
                 (A) (A) (A) (A) (A) (A) (A) (A) (A) (A) (A) (A)
                 (A) (A) (A) (A) (A) (A) (A) (A) (A) (A) (A) (A)
                 (A) (A) (A) (A) (A) (A) (A) (A) (A) (A) (A) (A)
                 (A) (A) (A) (A) (A) (A) (A) (A) (A) (A) (A) (A)
                 (A) (A) (A) (A) (A) (A) (A) (A) (A) (A) (A) (A)
                 (A) (A) (A) (A) (A) (A) (A) (A) (A) (A) (A) (A)
                 (A) (A) (A) (A) (A) (A) (A) (A) (A) (A) (A) (A)
                 (A) (A) (A) (A) (A) (A) (A) (A) (A) (A) (A) (A)
                 (A) (A) (A) (A) (A) (A) (A) (A) (A) (A) (A) (A)
                 (A) (A) (A) (A) (A) (A) (A) (A) (A) (A) (A) (A)
                 (A) (A) (A) (A) (A) (A) (A) (A) (A) (A) (A) (A)
                 (A) (A) (A) (A) (A) (A) (A) (A) (A) (A) (A) (A)
                 (A) (A) (A) (A) (A) (A) (A) (A) (A) (A) (A) (A)
                 (A) (A) (A) (A) (A) (A) (A) (A) (A) (A) (A) (A)
                 (A) (A) (A) (A) (A) (A) (A) (A) (A) (A) (A) (A)
                 (A) (A) (A) (A) (A) (A) (A) (A) (A) (A) (A) (A)
                 (A) (A) (A) (A) (A) (A) (A) (A) (A) (A) (A) (A)
                 (A) (A) (A) (A) (A) (A) (A) (A) (A) (A) (A) (A)
                 (A) (A) (A) (A) (A) (A) (A) (A) (A) (A) (A) (A)
                 (A) (A) (A) (A) (A) (A) (A) (A) (A) (A) (A) (A)
                 (A) (A) (A) (A) (A) (A) (A) (A) (A) (A) (A) (A)
                 (A) (A) (A) (A) (A) (A) (A) (A) (A) (A) (A) (A)
                 (A) (A) (A) (A) (A) (A) (A) (A) (A) (A) (A) (A)
                 (A) (A) (A) (A) (A) (A) (A) (A) (A) (A) (A) (A)
                 (A) (A) (A) (A) (A) (A) (A) (A) (A) (A) (A) (A)
                 (A) (A) (A) (A) (A) (A) (A) (A) (A) (A) (A) (A)
                 (A) (A) (A) (A) (A) (A) (A) (A) (A) (A) (A) (A)
                 (A) (A) (A) (A) (A) (A) (A) (A) (A) (A) (A) (A)
                 (A) (A) (A) (A) (A) (A) (A) (A) (A) (A) (A) (A)
                 (A) (A) (A) (A) (A) (A) (A) (A) (A) (A) (A) (A)
                 (A) (A) (A) (A) (A) (A) (A) (A) (A) (A) (A) (A)
                 (A) (A) (A) (A) (A) (A) (A) (A) (A) (A) (A) (A)
                 (A) (A) (A) (A) (A) (A) (A) (A) (A) (A) (A) (A)
                 (A) (A) (A) (A) (A) (A) (A) (A) (A) (A) (A) (A)
                 (A) (A) (A) (A) (A) (A) (A) (A) (A) (A) (A) (A)
                 (A) (A) (A) (A) (A) (A) (A) (A) (A) (A) (A) (A)
                 (A) (A) (A) (A) (A) (A) (A) (A) (A) (A) (A) (A)
                 (A) (A) (A) (A) (A) (A) (A) (A) (A) (A) (A) (A)
                 (A) (A) (A) (A) (A) (A) (A) (A) (A) (A) (A) (A)
                 (A) (A) (A) (A) (A) (A) (A) (A) (A) (A) (A) (A)
                 (A) (A) (A) (A) (A) (A) (A) (A) (A) (A) (A) (A)
                 (A) (A) (A) (A) (A) (A) (A) (A) (A) (A) (A) (A)
                 (A) (A) (A) (A) (A) (A) (A) (A) (A) (A) (A) (A)
                 (A) (A) (A) (A) (A) (A) (A) (A) (A) (A) (A) (A)
                 (A) (A) (A) (A) (A) (A) (A) (A) (A) (A) (A) (A)
                 (A) (A) (A) (A) (A) (A) (A) (A) (A) (A) (A) (A)
                 (A) (A) (A) (A) (A) (A) (A) (A) (A) (A) (A) (A)
                 (A) (A) (A) (A) (A) (A) (A) (A) (A) (A) (A) (A)
                 (A) (A) (A) (A) (A) (A) (A) (A) (A) (A) (A) (A)
                 (A) (A) (A) (A) (A) (A) (A) (A) (A) (A) (A) (A)
                 (A) (A) (A) (A) (A) (A) (A) (A) (A) (A) (A) (A)
                 (A) (A) (A) (A) (A) (A) (A) (A) (A) (A) (A) (A)
                 (A) (A) (A) (A) (A) (A) (A) (A) (A) (A) (A) (A)
                 (A) (A) (A) (A) (A) (A) (A) (A) (A) (A) (A) (A)
                 (A) (A) (A) (A) (A) (A) (A) (A) (A) (A) (A) (A)
                 (A) (A) (A) (A) (A) (A) (A) (A) (A) (A) (A) (A)
                 (A) (A) (A) (A) (A) (A) (A) (A) (A) (A) (A) (A)
                 (A) (A) (A) (A) (A) (A) (A) (A) (A) (A) (A) (A)
                 (A) (A) (A) (A) (A) (A) (A) (A) (A) (A) (A) (A)
                 (A) (A) (A) (A) (A) (A) (A) (A) (A) (A) (A) (A)
                 (A) (A) (A) (A) (A) (A) (A) (A) (A) (A) (A) (A)
                 (A) (A) (A) (A) (A) (A) (A) (A) (A) (A) (A) (A)
                 (A) (A) (A) (A) (A) (A) (A) (A) (A) (A) (A) (A)
                 (A) (A) (A) (A) (A) (A) (A) (A) (A) (A) (A) (A)
                 (A) (A) (A) (A) (A) (A) (A) (A) (A) (A) (A) (A)
                 (A) (A) (A) (A) (A) (A) (A) (A) (A) (A) (A) (A)
                 (A) (A) (A) (A) (A) (A) (A) (A) (A) (A) (A) (A)
                 (A) (A) (A) (A) (A) (A) (A) (A) (A) (A) (A) (A)
                 (A) (A) (A) (A) (A) (A) (A) (A) (A) (A) (A) (A)
                 (A) (A) (A) (A) (A) (A) (A) (A) (A) (A) (A) (A)
                 (A) (A) (A) (A) (A) (A) (A) (A) (A) (A) (A) (A)
                 (A) (A) (A) (A) (A) (A) (A) (A) (A) (A) (A) (A)
                 (A) (A) (A) (A) (A) (A) (A) (A) (A) (A) (A) (A)
                 (A) (A) (A) (A) (A) (A) (A) (A) (A) (A) (A) (A)
                 (A) (A) (A) (A) (A) (A) (A) (A) (A) (A) (A) (A)
                 (A) (A) (A) (A) (A) (A) (A) (A) (A) (A) (A) (A)
                 (A) (A) (A) (A) (A) (A) (A) (A) (A) (A) (A) (A)
                 (A) (A) (A) (A) (A) (A) (A) (A) (A) (A) (A) (A)
                 (A) (A) (A) (A) (A) (A) (A) (A) (A) (A) (A) (A)
                 (A) (A) (A) (A) (A) (A) (A) (A) (A) (A) (A) (A)
                 (A) (A) (A) (A) (A) (A) (A) (A) (A) (A) (A) (A)
                 (A) (A) (A) (A) (A) (A) (A) (A) (A) (A) (A) (A)
                 (A) (A) (A) (A) (A) (A) (A) (A) (A) (A) (A) (A)
                 (A) (A) (A) (A) (A) (A) (A) (A) (A) (A) (A) (A)
                 (A) (A) (A) (A) (A) (A) (A) (A) (A) (A) (A) (A)
                 (A) (A) (A) (A) (A) (A) (A) (A) (A) (A) (A) (A)
                 (A) (A) (A) (A) (A) (A) (A) (A) (A) (A) (A) (A)
                 (A) (A) (A) (A) (A) (A) (A) (A) (A) (A) (A) (A)
                 (A) (A) (A) (A) (A) (A) (A) (A) (A) (A) (A) (A)
                 (A) (A) (A) (A) (A) (A) (A) (A) (A) (A) (A) (A)
                 (A) (A) (A) (A) (A) (A) (A) (A) (A) (A) (A) (A)
                 (A) (A) (A) (A) (A) (A) (A) (A) (A) (A) (A) (A)
                 (A) (A) (A) (A) (A) (A) (A) (A) (A) (A) (A) (A)
                 (A) (A) (A) (A) (A) (A) (A) (A) (A) (A) (A) (A)
                 (A) (A) (A) (A) (A) (A) (A) (A) (A) (A) (A) (A)
                 (A) (A) (A) (A) (A) (A) (A) (A) (A) (A) (A) (A)
                 (A) (A) (A) (A) (A) (A) (A) (A) (A) (A) (A) (A)
                 (A) (A) (A) (A) (A) (A) (A) (A) (A) (A) (A) (A)
                 (A) (A) (A) (A) (A) (A) (A) (A) (A) (A) (A) (A)
                 (A) (A) (A) (A) (A) (A) (A) (A) (A) (A) (A) (A)
                 (A) (A) (A) (A) (A) (A) (A) (A) (A) (A) (A) (A)
                 (A) (A) (A) (A) (A) (A) (A) (A) (A) (A) (A) (A)
                 (A) (A) (A) (A) (A) (A) (A) (A) (A) (A) (A) (A)
                 (A) (A) (A) (A) (A) (A) (A) (A) (A) (A) (A) (A)
                 (A) (A) (A) (A) (A) (A) (A) (A) (A) (A) (A) (A)
                 (A) (A) (A) (A) (A) (A) (A) (A) (A) (A) (A) (A)
                 (A) (A) (A) (A) (A) (A) (A) (A) (A) (A) (A) (A)
                 (A) (A) (A) (A) (A) (A) (A) (A) (A) (A) (A) (A)
                 (A) (A) (A) (A) (A) (A) (A) (A) (A) (A) (A) (A)
                 (A) (A) (A) (A) (A) (A) (A) (A) (A) (A) (A) (A)
                 (A) (A) (A) (A) (A) (A) (A) (A) (A) (A) (A) (A)
                 (A) (A) (A) (A) (A) (A) (A) (A) (A) (A) (A) (A)
                 (A) (A) (A) (A) (A) (A) (A) (A) (A) (A) (A) (A)
                 (A) (A) (A) (A) (A) (A) (A) (A) (A) (A) (A) (A)
                 (A) (A) (A) (A) (A) (A) (A) (A) (A) (A) (A) (A)
                 (A) (A) (A) (A) (A) (A) (A) (A) (A) (A) (A) (A)
                 (A) (A) (A) (A) (A) (A) (A) (A) (A) (A) (A) (A)
                 (A) (A) (A) (A) (A) (A) (A) (A) (A) (A) (A) (A)
                 (A) (A) (A) (A) (A) (A) (A) (A) (A) (A) (A) (A)
                 (A) (A) (A) (A) (A) (A) (A) (A) (A) (A) (A) (A)
                 (A) (A) (A) (A) (A) (A) (A) (A) (A) (A) (A) (A)
                 (A) (A) (A) (A) (A) (A) (A) (A) (A) (A) (A) (A)
                 (A) (A) (A) (A) (A) (A) (A) (A) (A) (A) (A) (A)
                 (A) (A) (A) (A) (A) (A) (A) (A) (A) (A) (A) (A)
                 (A) (A) (A) (A) (A) (A) (A) (A) (A) (A) (A) (A)
                 (A) (A) (A) (A) (A) (A) (A) (A) (A) (A) (A) (A)
                 (A) (A) (A) (A) (A) (A) (A) (A) (A) (A) (A) (A)
                 (A) (A) (A) (A) (A) (A) (A) (A) (A) (A) (A) (A)
                 (A) (A) (A) (A) (A) (A) (A) (A) (A) (A) (A) (A)
                 (A) (A) (A) (A) (A) (A) (A) (A) (A) (A) (A) (A)
                 (A) (A) (A) (A) (A) (A) (A) (A) (A) (A) (A) (A)
                 (A) (A) (A) (A) (A) (A) (A) (A) (A) (A) (A) (A)
                 (A) (A) (A) (A) (A) (A) (A) (A) (A) (A) (A) (A)
                 (A) (A) (A) (A) (A) (A) (A) (A) (A) (A) (A) (A)
                 (A) (A) (A) (A) (A) (A) (A) (A) (A) (A) (A) (A)
                 (A)
 Beta  Orbitals:
       Occupied  (A) (A) (A) (A) (A) (A) (A) (A) (A) (A) (A) (A)
                 (A) (A) (A) (A) (A) (A) (A) (A) (A) (A) (A) (A)
                 (A) (A) (A) (A) (A) (A) (A) (A) (A) (A) (A) (A)
                 (A) (A) (A) (A) (A) (A) (A) (A) (A) (A) (A) (A)
                 (A) (A) (A) (A) (A) (A) (A) (A) (A) (A) (A) (A)
                 (A) (A) (A) (A) (A) (A) (A) (A) (A) (A) (A) (A)
                 (A) (A) (A) (A) (A) (A) (A) (A) (A) (A) (A) (A)
                 (A) (A) (A) (A) (A) (A) (A) (A) (A) (A) (A) (A)
                 (A) (A) (A) (A) (A) (A) (A) (A) (A) (A) (A) (A)
                 (A) (A) (A) (A) (A) (A) (A) (A) (A) (A) (A) (A)
                 (A) (A) (A) (A) (A) (A) (A) (A) (A) (A) (A) (A)
                 (A) (A) (A) (A) (A) (A) (A) (A) (A) (A) (A) (A)
                 (A) (A) (A) (A) (A) (A) (A) (A) (A) (A) (A) (A)
                 (A) (A) (A) (A) (A) (A) (A) (A) (A) (A) (A) (A)
                 (A) (A) (A) (A) (A) (A) (A) (A) (A) (A) (A) (A)
                 (A) (A) (A) (A) (A) (A) (A) (A) (A) (A) (A) (A)
                 (A) (A) (A) (A) (A) (A) (A) (A) (A) (A) (A) (A)
                 (A) (A) (A) (A) (A) (A) (A) (A) (A) (A) (A) (A)
                 (A) (A) (A) (A) (A) (A) (A) (A) (A) (A) (A) (A)
                 (A) (A) (A) (A) (A) (A) (A) (A) (A) (A) (A) (A)
                 (A) (A) (A) (A) (A) (A) (A) (A) (A) (A) (A) (A)
                 (A)
       Virtual   (A) (A) (A) (A) (A) (A) (A) (A) (A) (A) (A) (A)
                 (A) (A) (A) (A) (A) (A) (A) (A) (A) (A) (A) (A)
                 (A) (A) (A) (A) (A) (A) (A) (A) (A) (A) (A) (A)
                 (A) (A) (A) (A) (A) (A) (A) (A) (A) (A) (A) (A)
                 (A) (A) (A) (A) (A) (A) (A) (A) (A) (A) (A) (A)
                 (A) (A) (A) (A) (A) (A) (A) (A) (A) (A) (A) (A)
                 (A) (A) (A) (A) (A) (A) (A) (A) (A) (A) (A) (A)
                 (A) (A) (A) (A) (A) (A) (A) (A) (A) (A) (A) (A)
                 (A) (A) (A) (A) (A) (A) (A) (A) (A) (A) (A) (A)
                 (A) (A) (A) (A) (A) (A) (A) (A) (A) (A) (A) (A)
                 (A) (A) (A) (A) (A) (A) (A) (A) (A) (A) (A) (A)
                 (A) (A) (A) (A) (A) (A) (A) (A) (A) (A) (A) (A)
                 (A) (A) (A) (A) (A) (A) (A) (A) (A) (A) (A) (A)
[...]
  Beta virt. eigenvalues --    5.08479   5.08819   5.09247   5.09680   5.09933
  Beta virt. eigenvalues --    5.10218   5.10544   5.10886   5.11188   5.11478
  Beta virt. eigenvalues --    5.12074   5.12392   5.12804   5.13295   5.13648
  Beta virt. eigenvalues --    5.13978   5.14366   5.14790   5.15167   5.15935
  Beta virt. eigenvalues --    5.16234   5.16387   5.16988   5.17651   5.17773
  Beta virt. eigenvalues --    5.18158   5.18547   5.18732   5.19310   5.19680
  Beta virt. eigenvalues --    5.20515   5.20842   5.21016   5.21116   5.21978
  Beta virt. eigenvalues --    5.22164   5.22230   5.22694   5.23097   5.23525
  Beta virt. eigenvalues --    5.23779   5.24240   5.24314   5.25130   5.25173
  Beta virt. eigenvalues --    5.25538   5.25861   5.26186   5.26997   5.27647
  Beta virt. eigenvalues --    5.27910   5.28313   5.28368   5.28469   5.28829
  Beta virt. eigenvalues --    5.28906   5.29085   5.29272   5.29542   5.29599
  Beta virt. eigenvalues --    5.29924   5.30226   5.30370   5.30535   5.30896
  Beta virt. eigenvalues --    5.31145   5.31332   5.31591   5.31993   5.32226
  Beta virt. eigenvalues --    5.32485   5.32773   5.33378   5.33674   5.33995
  Beta virt. eigenvalues --    5.34130   5.34182   5.35006   5.35905   5.36342
  Beta virt. eigenvalues --    5.36671   5.37061   5.37315   5.37604   5.37757
  Beta virt. eigenvalues --    5.38289   5.38369   5.38779   5.38996   5.39130
  Beta virt. eigenvalues --    5.39479   5.40030   5.40231   5.40469   5.40701
  Beta virt. eigenvalues --    5.41538   5.41622   5.42071   5.42318   5.42937
  Beta virt. eigenvalues --    5.42978   5.43363   5.43639   5.43671   5.44325
  Beta virt. eigenvalues --    5.44643   5.45136   5.45753   5.46551   5.46903
  Beta virt. eigenvalues --    5.46991   5.47833   5.48454   5.48764   5.49175
  Beta virt. eigenvalues --    5.49346   5.50185   5.50274   5.51476   5.51513
  Beta virt. eigenvalues --    5.51796   5.52011   5.52488   5.53040   5.53484
  Beta virt. eigenvalues --    5.54337   5.54899   5.55572   5.55622   5.55865
  Beta virt. eigenvalues --    5.56428   5.57021   5.57031   5.57262   5.57359
  Beta virt. eigenvalues --    5.58756   5.58922   5.59081   5.59755   5.59945
  Beta virt. eigenvalues --    5.60058   5.60224   5.60337   5.60678   5.61007
  Beta virt. eigenvalues --    5.61288   5.61521   5.62085   5.62342   5.62515
  Beta virt. eigenvalues --    5.62663   5.62996   5.63307   5.63871   5.64235
  Beta virt. eigenvalues --    5.64443   5.64603   5.64922   5.65394   5.65613
  Beta virt. eigenvalues --    5.65954   5.66136   5.66539   5.66983   5.67648
  Beta virt. eigenvalues --    5.67807   5.68377   5.68893   5.69661   5.69969
  Beta virt. eigenvalues --    5.70360   5.74009   5.74416   5.76145   5.76426
  Beta virt. eigenvalues --    5.77712   5.78921   5.79665   5.80699   5.82310
  Beta virt. eigenvalues --    5.84203   5.84864   5.85773   5.86512   5.87843
  Beta virt. eigenvalues --    5.88490   5.88648   5.88715   5.89751   5.90083
  Beta virt. eigenvalues --    5.91083   5.91590   5.92124   5.92845   5.93473
  Beta virt. eigenvalues --    5.95489   5.96819   5.97534   5.98693   5.98981
  Beta virt. eigenvalues --    6.00314   6.00838   6.02120   6.02330   6.03009
  Beta virt. eigenvalues --    6.03697   6.04122   6.05210   6.05451   6.06392
  Beta virt. eigenvalues --    6.06619   6.08956   6.09378   6.09500   6.10318
  Beta virt. eigenvalues --    6.10888   6.12243   6.15729   6.17625   6.18643
  Beta virt. eigenvalues --    6.19681   6.21355   6.22018   6.22551   6.22632
  Beta virt. eigenvalues --    6.24037   6.24955   6.25336   6.25836   6.26444
  Beta virt. eigenvalues --    6.28094   6.28333   6.28368   6.29679   6.30452
  Beta virt. eigenvalues --    6.31220   6.33113   6.34993   6.35828   6.38656
  Beta virt. eigenvalues --    6.39432   6.39825   6.40497   6.40533   6.42034
  Beta virt. eigenvalues --    6.42354   6.42652   6.43558   6.46835   6.59908
  Beta virt. eigenvalues --    6.72791   6.72858   6.72925   6.73511   6.74227
  Beta virt. eigenvalues --    6.74867   6.75783   6.76012   6.76675   6.76959
  Beta virt. eigenvalues --    6.77879   6.78070   6.78758   6.80876   6.80971
  Beta virt. eigenvalues --    6.81194   6.83298   6.84186   6.84602   6.84624
  Beta virt. eigenvalues --    6.84985   6.85373   6.85402   6.86809   6.87533
  Beta virt. eigenvalues --    6.88456   6.91055   6.91102   6.92300   6.92792
  Beta virt. eigenvalues --    6.93728   6.94126   6.95426   6.95769   6.96545
  Beta virt. eigenvalues --    6.98144   6.98316   6.98922   6.99981   7.00645
  Beta virt. eigenvalues --    7.00937   7.01310   7.01491   7.01723   7.01812
  Beta virt. eigenvalues --    7.05561   7.07220   7.07238   7.08643   7.08774
  Beta virt. eigenvalues --    7.08873   7.09540   7.12339   7.14119   7.18752
  Beta virt. eigenvalues --    7.20722   7.23298   7.24817   7.26627   7.26814
  Beta virt. eigenvalues --    7.26880   7.27187   7.28211   7.28612   7.30143
  Beta virt. eigenvalues --    7.30240   7.30247   7.32087   7.32810   7.33322
  Beta virt. eigenvalues --    7.33421   7.34026   7.34619   7.34708   7.34983
  Beta virt. eigenvalues --    7.37980   7.38324   7.38761   7.40354   7.45054
  Beta virt. eigenvalues --    7.46039   7.46762   7.47251   7.47548   7.48862
  Beta virt. eigenvalues --    7.51952   7.62079   7.62467   8.36204   8.36287
  Beta virt. eigenvalues --    8.47470   8.48691   8.52284   8.54109   8.58589
  Beta virt. eigenvalues --    8.61655   8.76421   8.76573   8.82213   8.88165
  Beta virt. eigenvalues --    8.91952   8.93016   8.94758   8.98301   9.00366
  Beta virt. eigenvalues --    9.02167   9.02965   9.04863  15.86492  22.80971
  Beta virt. eigenvalues --   22.82775  22.84144  22.90239  22.93454  23.10820
  Beta virt. eigenvalues --   23.12979  23.13530  23.14670  23.17551  23.19425
  Beta virt. eigenvalues --   23.21243  23.24144  23.25449  23.27749  23.28506
  Beta virt. eigenvalues --   23.29310  23.29532  23.31852  23.31874  23.33172
  Beta virt. eigenvalues --   23.33244  23.34154  23.36474  23.37215  23.37608
  Beta virt. eigenvalues --   23.39329  23.39831  23.40744  23.41705  23.43221
  Beta virt. eigenvalues --   23.44280  23.45270  23.45639  23.45941  23.48658
  Beta virt. eigenvalues --   23.50977  23.51590  23.52746  23.58607  23.59103
  Beta virt. eigenvalues --   23.61921  23.66198  23.72569  23.80329  23.89279
  Beta virt. eigenvalues --   24.06702  24.09720  24.10030  32.58184  33.14794
  Beta virt. eigenvalues --   33.26769  44.20455  44.21636  44.24673  44.29869
  Beta virt. eigenvalues --   44.34601  44.38531  44.43895  44.48389  44.48956
  Beta virt. eigenvalues --   44.49613  44.62533  44.64083  57.39865  57.56236
  Beta virt. eigenvalues --   57.57394  57.58269
          Condensed to atoms (all electrons):
          Atomic-Atomic Spin Densities.
 Mulliken charges and spin densities:
               1          2
     1  B    0.369742   0.003363
     2  N   -0.128147   0.026423
     3  C   -0.071125   0.207603
     4  C    0.249840  -0.083126
     5  C   -0.047591   0.156710
     6  C    0.093017  -0.066427
     7  C    0.052896   0.340485
     8  C    0.155029  -0.029117
     9  O   -0.390870   0.049292
    10  C   -0.093291   0.003544
    11  C    0.044995   0.001486
    12  C   -0.220548  -0.000385
    13  C   -0.079984  -0.000030
    14  C   -0.020999  -0.000024
    15  C   -0.105487   0.000040
    16  C   -0.133298  -0.000317
    17  N    0.489018   0.000005
    18  O   -0.372166  -0.000013
    19  O   -0.372863  -0.000018
    20  C    0.080504  -0.087376
    21  N   -0.139543   0.027350
    22  C   -0.078403   0.182450
    23  C    0.231174  -0.069563
    24  C   -0.029010   0.149567
    25  C   -0.473226  -0.009239
    26  C   -0.099887  -0.101717
    27  C   -0.121566   0.144017
    28  C    0.006809  -0.034148
    29  C   -0.165931   0.036823
    30  C   -0.197639  -0.019422
    31  C    0.211301   0.037486
    32  O   -0.289648   0.005148
    33  C   -0.103704  -0.000376
    34  C   -0.143594  -0.000113
    35  O   -0.326103   0.000006
    36  C   -0.044033   0.000128
    37  C   -0.136486  -0.000016
    38  O   -0.334808   0.000000
    39  C   -0.099229   0.000000
    40  C   -0.105888  -0.000001
    41  O   -0.346264  -0.000000
    42  C   -0.209856   0.000000
    43  C   -0.173397  -0.021803
    44  C   -0.161607   0.039199
    45  C   -0.423862  -0.009185
    46  C   -0.113153  -0.096081
    47  C   -0.126179   0.151304
    48  C   -0.009644  -0.038281
    49  C   -0.166510   0.043313
    50  C   -0.174814  -0.023229
    51  C    0.208660   0.040900
    52  O   -0.288985   0.005717
    53  C   -0.097952  -0.000448
    54  C   -0.094229  -0.000172
    55  O   -0.341226   0.000029
    56  C   -0.094360   0.000003
    57  C   -0.060474   0.000001
    58  O   -0.363629  -0.000000
    59  C   -0.076862   0.000000
    60  C   -0.038179   0.000000
    61  O   -0.353113   0.000000
    62  C   -0.204289   0.000000
    63  C   -0.197936  -0.021427
    64  C   -0.156629   0.040242
    65  F   -0.362924   0.001079
    66  F   -0.362601   0.001359
    67  H    0.171415  -0.000114
    68  H    0.181255   0.000160
    69  H    0.174194  -0.000899
    70  H    0.194443   0.000028
    71  H    0.192550  -0.000006
    72  H    0.158718   0.000064
    73  H    0.151876   0.003942
    74  H    0.131167   0.001342
    75  H    0.149086   0.006902
    76  H    0.087427   0.005196
    77  H    0.113264  -0.007613
    78  H    0.150931  -0.001170
    79  H    0.153840   0.000230
    80  H    0.165206   0.000392
    81  H    0.149514   0.000481
    82  H    0.133298  -0.000011
    83  H    0.130001  -0.000032
    84  H    0.128964  -0.000014
    85  H    0.121248  -0.000086
    86  H    0.131723   0.000000
    87  H    0.132772   0.000002
    88  H    0.130922   0.000000
    89  H    0.139641  -0.000000
    90  H    0.137700   0.000000
    91  H    0.140836   0.000000
    92  H    0.137596  -0.000000
    93  H    0.123426   0.000000
    94  H    0.125848   0.000000
    95  H    0.150669   0.000262
    96  H    0.137036  -0.001103
    97  H    0.154253   0.007169
    98  H    0.134061   0.006436
    99  H    0.121048   0.000373
   100  H    0.119372   0.003437
   101  H    0.111411  -0.008147
   102  H    0.138846  -0.001223
   103  H    0.152505   0.000277
   104  H    0.145546   0.000484
   105  H    0.147342   0.000487
   106  H    0.126454  -0.000026
   107  H    0.128751  -0.000004
   108  H    0.127244  -0.000001
   109  H    0.120091   0.000001
   110  H    0.132953  -0.000000
   111  H    0.124728   0.000001
   112  H    0.119084  -0.000000
   113  H    0.133707   0.000000
   114  H    0.112727  -0.000000
   115  H    0.110665  -0.000000
   116  H    0.136560   0.000000
   117  H    0.120668  -0.000000
   118  H    0.120519  -0.000000
   119  H    0.155061   0.000267
   120  H    0.144641  -0.001537
   121  O   -0.270711   0.004205
   122  F   -0.233073  -0.001706
   123  F   -0.230262  -0.001467
 Sum of Mulliken charges =  -1.00000   1.00000
 Mulliken charges and spin densities with hydrogens summed into heavy atoms:
               1          2
     1  B    0.369742   0.003363
     2  N   -0.128147   0.026423
     3  C   -0.071125   0.207603
     4  C    0.249840  -0.083126
     5  C   -0.047591   0.156710
     6  C    0.093017  -0.066427
     7  C    0.052896   0.340485
     8  C    0.155029  -0.029117
     9  O   -0.390870   0.049292
    10  C    0.259379   0.003590
    11  C    0.044995   0.001486
    12  C   -0.046354  -0.001284
    13  C    0.114460  -0.000002
    14  C   -0.020999  -0.000024
    15  C    0.087062   0.000034
    16  C    0.025420  -0.000253
    17  N    0.489018   0.000005
    18  O   -0.372166  -0.000013
    19  O   -0.372863  -0.000018
    20  C    0.080504  -0.087376
    21  N   -0.139543   0.027350
    22  C   -0.078403   0.182450
    23  C    0.231174  -0.069563
    24  C   -0.029010   0.149567
    25  C   -0.041097   0.002947
    26  C   -0.012460  -0.096521
    27  C   -0.008302   0.136404
    28  C    0.006809  -0.034148
    29  C   -0.014999   0.035653
    30  C   -0.043799  -0.019192
    31  C    0.211301   0.037486
    32  O   -0.289648   0.005148
    33  C    0.211016   0.000497
    34  C    0.119706  -0.000156
    35  O   -0.326103   0.000006
    36  C    0.206180   0.000029
    37  C    0.128008  -0.000014
    38  O   -0.334808   0.000000
    39  C    0.171334   0.000000
    40  C    0.172647  -0.000001
    41  O   -0.346264  -0.000000
    42  C    0.177014   0.000000
    43  C   -0.022728  -0.021541
    44  C   -0.024571   0.038096
    45  C   -0.014500   0.004792
    46  C    0.006219  -0.092644
    47  C   -0.014768   0.143157
    48  C   -0.009644  -0.038281
    49  C   -0.027664   0.042090
    50  C   -0.022310  -0.022952
    51  C    0.208660   0.040900
    52  O   -0.288985   0.005717
    53  C    0.194936   0.000523
    54  C    0.160976  -0.000202
    55  O   -0.341226   0.000029
    56  C    0.152975   0.000004
    57  C    0.197207   0.000002
    58  O   -0.363629  -0.000000
    59  C    0.175929   0.000000
    60  C    0.185213  -0.000000
    61  O   -0.353113   0.000000
    62  C    0.173458   0.000000
    63  C   -0.042875  -0.021160
    64  C   -0.011988   0.038705
    65  F   -0.362924   0.001079
    66  F   -0.362601   0.001359
   121  O   -0.270711   0.004205
   122  F   -0.233073  -0.001706
   123  F   -0.230262  -0.001467
 Electronic spatial extent (au):  <R**2>=         135735.7266
 Charge=             -1.0000 electrons
 Dipole moment (field-independent basis, Debye):
    X=            -19.9074    Y=             -3.1531    Z=             -6.6003  Tot=             21.2088
 Quadrupole moment (field-independent basis, Debye-Ang):
   XX=           -513.5333   YY=           -406.7297   ZZ=           -420.7689
   XY=            -23.9648   XZ=             74.8939   YZ=             13.1385
 Traceless Quadrupole moment (field-independent basis, Debye-Ang):
   XX=            -66.5227   YY=             40.2809   ZZ=             26.2418
   XY=            -23.9648   XZ=             74.8939   YZ=             13.1385
 Octapole moment (field-independent basis, Debye-Ang**2):
  XXX=          -2179.3177  YYY=            -91.4522  ZZZ=             -8.0414  XYY=           -133.4792
  XXY=           -860.0151  XXZ=            455.8092  XZZ=           -377.0014  YZZ=            -56.1259
  YYZ=           -502.3518  XYZ=           -176.5270
 Hexadecapole moment (field-independent basis, Debye-Ang**3):
 XXXX=        -134080.0053 YYYY=         -50632.5830 ZZZZ=          -7516.6537 XXXY=             14.4393
 XXXZ=          11418.6034 YYYX=           3148.5444 YYYZ=            632.3547 ZZZX=            838.5107
 ZZZY=            148.2238 XXYY=         -27319.2160 XXZZ=         -22794.8313 YYZZ=          -9251.8201
 XXYZ=           2350.1632 YYXZ=           3292.8814 ZZXY=            362.2700
 N-N= 9.478773752287D+03 E-N=-2.692936168432D+04  KE= 3.373353613818D+03
 Leave Link  601 at Fri Nov 14 03:25:36 2025, MaxMem= 30870077440 cpu:             227.3 elap:               4.1
 (Enter /public/software/gauss/g16/l9999.exe)
 1\1\GINC-CU137\SP\UM062X\def2TZVPP\C49H54B1F4N3O12(1-,2)\BAIDING\14-No
 v-2025\0\\#p M062X/DEF2TZVPP scrf=(solvent=water) em=GD3\\Energy calcu
 lation for BE_F_reduced_i\\-1,2\B,0,-2.609209,0.219948,0.779669\N,0,-3
 .681216,-0.880561,0.64059\C,0,-3.425772,-2.136833,0.104161\C,0,-4.6868
 27,-2.695859,-0.153296\C,0,-5.716958,-1.837233,0.200386\C,0,-5.053354,
 -0.679645,0.720909\C,0,-5.547842,0.555408,1.222527\C,0,-7.001713,0.754
 503,1.35998\O,0,-7.78693,-0.012487,1.904538\C,0,-8.806715,2.260499,0.9
 50597\C,0,-9.709532,1.571918,-0.046345\C,0,-9.234769,1.157695,-1.29890
 3\C,0,-10.093609,0.574027,-2.223584\C,0,-11.437995,0.418211,-1.883221\
 C,0,-11.939915,0.825683,-0.645914\C,0,-11.065278,1.39951,0.268465\N,0,
 -12.345111,-0.18923,-2.847714\O,0,-11.89206,-0.549104,-3.940514\O,0,-1
 3.534907,-0.321538,-2.538163\C,0,-4.64779,1.587957,1.617438\N,0,-3.284
 977,1.486646,1.340845\C,0,-2.630927,2.587246,1.887267\C,0,-3.626893,3.
 336763,2.528937\C,0,-4.881426,2.763554,2.39332\C,0,-6.126486,3.297474,
 3.034208\C,0,-1.25933,2.996445,1.819394\C,0,-0.238745,2.515818,1.05784
 6\C,0,1.131647,3.017331,1.052624\C,0,1.614011,4.022295,1.924166\C,0,2.
 924931,4.466747,1.858608\C,0,3.81642,3.921885,0.918646\O,0,5.089227,4.
 432525,0.937264\C,0,6.031505,3.948533,-0.029857\C,0,7.338822,4.690552,
 0.184237\O,0,7.242201,6.102339,0.025158\C,0,7.076157,6.533873,-1.32721
 4\C,0,7.262436,8.03898,-1.370875\O,0,8.596793,8.428149,-1.028017\C,0,9
 .376507,8.952347,-2.103138\C,0,9.76794,7.922259,-3.159336\O,0,10.40246
 5,6.755733,-2.640461\C,0,11.7035,6.990677,-2.110949\C,0,3.371871,2.919
 073,0.049705\C,0,2.048944,2.483158,0.127304\C,0,-7.167184,-2.1582,0.00
 1015\C,0,-2.110911,-2.678111,-0.070653\C,0,-1.817239,-3.862074,-0.6777
 81\C,0,-0.489724,-4.442192,-0.84058\C,0,-0.358985,-5.675254,-1.507747\
 C,0,0.877171,-6.292482,-1.700133\C,0,2.035534,-5.674602,-1.215702\O,0,
 3.303124,-6.18176,-1.340741\C,0,3.469961,-7.444236,-2.002041\C,0,4.940
 114,-7.789495,-1.982886\O,0,5.330048,-8.056104,-0.635884\C,0,6.708415,
 -8.397833,-0.48841\C,0,7.598854,-7.155391,-0.404483\O,0,8.964362,-7.53
 2934,-0.198955\C,0,9.342956,-7.663213,1.172956\C,0,9.854265,-6.333842,
 1.718311\O,0,10.232659,-6.538985,3.073813\C,0,10.722632,-5.350767,3.68
 115\C,0,1.93437,-4.442439,-0.54702\C,0,0.699695,-3.841381,-0.36405\F,0
 ,-1.586264,-0.211605,1.649112\F,0,-2.027687,0.473649,-0.486204\H,0,-9.
 125531,2.043874,1.971973\H,0,-8.842281,3.342397,0.79465\H,0,-8.188575,
 1.289171,-1.550575\H,0,-9.734604,0.249272,-3.191629\H,0,-12.986802,0.6
 87289,-0.40848\H,0,-11.437594,1.713955,1.238467\H,0,-6.748889,2.499733
 ,3.450901\H,0,-5.852064,3.967039,3.854646\H,0,-6.748464,3.869477,2.337
 688\H,0,-1.064657,3.851537,2.463933\H,0,-0.435629,1.71111,0.358672\H,0
 ,0.954783,4.460451,2.667045\H,0,3.284345,5.239198,2.531584\H,0,6.20652
 4,2.873997,0.108544\H,0,5.64105,4.104647,-1.041927\H,0,7.684634,4.5283
 59,1.209776\H,0,8.087842,4.270599,-0.502799\H,0,7.809871,6.032594,-1.9
 72425\H,0,6.06984,6.29396,-1.699776\H,0,6.98632,8.407436,-2.365739\H,0
 ,6.586197,8.503154,-0.642177\H,0,8.84455,9.771799,-2.609266\H,0,10.267
 007,9.379096,-1.632402\H,0,8.879239,7.560856,-3.685489\H,0,10.41668,8.
 420471,-3.897042\H,0,12.138896,6.012637,-1.891099\H,0,12.342872,7.5099
 73,-2.838656\H,0,11.677755,7.57738,-1.184103\H,0,4.037129,2.475244,-0.
 68098\H,0,1.714455,1.705064,-0.553916\H,0,-7.694356,-2.31859,0.945988\
 H,0,-7.697322,-1.362554,-0.531526\H,0,-7.252018,-3.072714,-0.592472\H,
 0,-1.307576,-2.078682,0.344002\H,0,-2.629387,-4.454919,-1.089757\H,0,-
 1.252212,-6.164534,-1.88729\H,0,0.92359,-7.241324,-2.220651\H,0,2.8912
 04,-8.219438,-1.485713\H,0,3.124818,-7.378564,-3.040814\H,0,5.099475,-
 8.678107,-2.610668\H,0,5.520682,-6.962255,-2.41167\H,0,6.786049,-8.969
 832,0.441877\H,0,7.041055,-9.043372,-1.312772\H,0,7.568364,-6.592854,-
 1.342409\H,0,7.2418,-6.496473,0.396311\H,0,8.508122,-8.024106,1.786092
 \H,0,10.141047,-8.411386,1.216514\H,0,10.713367,-5.99181,1.121169\H,0,
 9.070901,-5.563341,1.648984\H,0,10.987695,-5.596643,4.712372\H,0,11.61
 5148,-4.972273,3.162731\H,0,9.960906,-4.558109,3.686496\H,0,2.840906,-
 3.974209,-0.176143\H,0,0.658263,-2.890781,0.15825\O,0,-7.416195,1.9183
 81,0.783188\F,0,-4.875296,-3.932677,-0.671473\F,0,-3.375528,4.485921,3
 .197145\\Version=ES64L-G16RevA.03\State=2-A\HF=-3391.0450237\S2=0.7919
 18\S2-1=0.\S2A=0.751386\RMSD=3.319e-09\Dipole=7.8321907,1.2405204,-2.5
 967492\Quadrupole=-49.4579605,29.9478562,19.5101043,-17.8172203,-55.68
 18087,-9.7681723\PG=C01 [X(C49H54B1F4N3O12)]\\@


 ABSOLUTISM, OBSOLETISM -- IF IT WORKS, IT'S OUT OF DATE

                          -- STAFFORD BEER
 Job cpu time:       2 days 15 hours 49 minutes 55.0 seconds.
 Elapsed time:       0 days  1 hours  0 minutes 41.1 seconds.
 File lengths (MBytes):  RWF=   8976 Int=      0 D2E=      0 Chk=    581 Scr=      1
 Normal termination of Gaussian 16 at Fri Nov 14 03:25:39 2025.
