 Entering Gaussian System, Link 0=g16
 Input=BE_F_sp.gjf
 Output=BE_F_sp.log
 Initial command:
 /public/software/gauss/g16/l1.exe "/public/home/baiding/1105_BE_sp/tmp_BE_F_sp_1568733/Gau-1938202.inp" -scrdir="/public/home/baiding/1105_BE_sp/tmp_BE_F_sp_1568733/"
 Entering Link 1 = /public/software/gauss/g16/l1.exe PID=   1938203.
  
 Copyright (c) 1988,1990,1992,1993,1995,1998,2003,2009,2016,
            Gaussian, Inc.  All Rights Reserved.
  
 This is part of the Gaussian(R) 16 program.  It is based on
 the Gaussian(R) 09 system (copyright 2009, Gaussian, Inc.),
 the Gaussian(R) 03 system (copyright 2003, Gaussian, Inc.),
 the Gaussian(R) 98 system (copyright 1998, Gaussian, Inc.),
 the Gaussian(R) 94 system (copyright 1995, Gaussian, Inc.),
 the Gaussian 92(TM) system (copyright 1992, Gaussian, Inc.),
 the Gaussian 90(TM) system (copyright 1990, Gaussian, Inc.),
 the Gaussian 88(TM) system (copyright 1988, Gaussian, Inc.),
 the Gaussian 86(TM) system (copyright 1986, Carnegie Mellon
 University), and the Gaussian 82(TM) system (copyright 1983,
 Carnegie Mellon University). Gaussian is a federally registered
 trademark of Gaussian, Inc.
  
 This software contains proprietary and confidential information,
 including trade secrets, belonging to Gaussian, Inc.
  
 This software is provided under written license and may be
 used, copied, transmitted, or stored only in accord with that
 written license.
  
 The following legend is applicable only to US Government
 contracts under FAR:
  
                    RESTRICTED RIGHTS LEGEND
  
 Use, reproduction and disclosure by the US Government is
 subject to restrictions as set forth in subparagraphs (a)
 and (c) of the Commercial Computer Software - Restricted
 Rights clause in FAR 52.227-19.
  
 Gaussian, Inc.
 340 Quinnipiac St., Bldg. 40, Wallingford CT 06492
  
  
 ---------------------------------------------------------------
 Warning -- This program may not be used in any manner that
 competes with the business of Gaussian, Inc. or will provide
 assistance to any competitor of Gaussian, Inc.  The licensee
 of this program is prohibited from giving any competitor of
 Gaussian, Inc. access to this program.  By using this program,
 the user acknowledges that Gaussian, Inc. is engaged in the
 business of creating and licensing software in the field of
 computational chemistry and represents and warrants to the
 licensee that it is not a competitor of Gaussian, Inc. and that
 it will not use this program in any manner prohibited above.
 ---------------------------------------------------------------
  

 Cite this work as:
 Gaussian 16, Revision A.03,
 M. J. Frisch, G. W. Trucks, H. B. Schlegel, G. E. Scuseria, 
 M. A. Robb, J. R. Cheeseman, G. Scalmani, V. Barone, 
 G. A. Petersson, H. Nakatsuji, X. Li, M. Caricato, A. V. Marenich, 
 J. Bloino, B. G. Janesko, R. Gomperts, B. Mennucci, H. P. Hratchian, 
 J. V. Ortiz, A. F. Izmaylov, J. L. Sonnenberg, D. Williams-Young, 
 F. Ding, F. Lipparini, F. Egidi, J. Goings, B. Peng, A. Petrone, 
 T. Henderson, D. Ranasinghe, V. G. Zakrzewski, J. Gao, N. Rega, 
 G. Zheng, W. Liang, M. Hada, M. Ehara, K. Toyota, R. Fukuda, 
 J. Hasegawa, M. Ishida, T. Nakajima, Y. Honda, O. Kitao, H. Nakai, 
 T. Vreven, K. Throssell, J. A. Montgomery, Jr., J. E. Peralta, 
 F. Ogliaro, M. J. Bearpark, J. J. Heyd, E. N. Brothers, K. N. Kudin, 
 V. N. Staroverov, T. A. Keith, R. Kobayashi, J. Normand, 
 K. Raghavachari, A. P. Rendell, J. C. Burant, S. S. Iyengar, 
 J. Tomasi, M. Cossi, J. M. Millam, M. Klene, C. Adamo, R. Cammi, 
 J. W. Ochterski, R. L. Martin, K. Morokuma, O. Farkas, 
 J. B. Foresman, and D. J. Fox, Gaussian, Inc., Wallingford CT, 2016.
 
 ******************************************
 Gaussian 16:  ES64L-G16RevA.03 25-Dec-2016
                 6-Nov-2025 
 ******************************************
 %nprocshared=64
 Will use up to   64 processors via shared memory.
 %mem=230GB
 %chk=BE_F_sp.chk
 ----------------------------------------------
 #p M062X/DEF2TZVPP scrf=(solvent=water) em=GD3
 ----------------------------------------------
 1/38=1,172=1/1;
 2/12=2,17=6,18=5,40=1/2;
 3/5=44,7=202,11=2,25=1,30=1,70=2201,72=1,74=-55,124=31/1,2,3;
 4//1;
 5/5=2,38=5,53=1/2;
 6/7=2,8=2,9=2,10=2,28=1/1;
 99/5=1,9=1/99;
 Leave Link    1 at Thu Nov  6 00:45:28 2025, MaxMem= 30870077440 cpu:              13.7 elap:               0.2
 (Enter /public/software/gauss/g16/l101.exe)
 ---------------------------
 Energy calculation for BE_F
 ---------------------------
 Symbolic Z-matrix:
 Charge =  0 Multiplicity = 1
 B                     2.48761  -0.52794  -0.13707 
 N                     3.16319   0.81723   0.23765 
 C                     2.5867    2.06174   0.25496 
 C                     3.62308   2.97128   0.57886 
 C                     4.82971   2.33543   0.74993 
 C                     4.53019   0.9525    0.51543 
 C                     5.37148  -0.17292   0.54403 
 C                     6.86572   0.05569   0.68649 
 O                     7.39639   0.13489   1.77952 
 C                     7.63586   0.17809  -0.62859 
 C                     8.89688   1.0039   -0.55628 
 C                     10.00418   0.7402    0.27356 
 N                     10.09831  -0.48529   1.07381 
 O                     9.64897  -1.52665   0.59461 
 O                     10.66074  -0.41847   2.16703 
 C                     11.1017   1.58894   0.36186 
 C                     11.11128   2.72442  -0.4358 
 C                     10.05625   3.0301   -1.29151 
 C                     8.96229   2.17371  -1.32923 
 N                     12.26704   3.61815  -0.37035 
 O                     13.18824   3.32668   0.39604 
 O                     12.26464   4.62295  -1.08508 
 C                     4.86749  -1.47132   0.40176 
 N                     3.50857  -1.66068   0.15079 
 C                     3.24329  -3.00015   0.07893 
 C                     4.48073  -3.65784   0.30793 
 C                     5.49856  -2.75752   0.5153 
 C                     6.90836  -3.13184   0.8415 
 F                     4.62495  -4.99615   0.3517 
 C                     1.94363  -3.54891  -0.1707 
 C                     1.69715  -4.87687  -0.34356 
 C                     0.40623  -5.4889   -0.60479 
 C                     0.3374   -6.89345  -0.74164 
 C                    -0.86193  -7.53871  -0.99591 
 C                    -2.04618  -6.79558  -1.12529 
 O                    -3.1699   -7.52777  -1.39331 
 C                    -4.43889  -6.8734   -1.56678 
 C                    -5.11162  -6.61058  -0.2167 
 O                    -6.384    -5.99484  -0.3885 
 C                    -7.45077  -6.91283  -0.64535 
 C                    -8.74894  -6.13045  -0.72479 
 O                    -9.07509  -5.46738   0.49948 
 C                    -9.77792  -6.27638   1.44869 
 C                    -11.28118  -6.2949    1.1972 
 O                    -11.88504  -5.00241   1.23869 
 C                    -12.07667  -4.50249   2.55796 
 C                    -2.00685  -5.39772  -0.99094 
 C                    -0.79656  -4.7643   -0.73627 
 C                     6.09868   3.0176    1.15444 
 F                     3.41689   4.29426   0.71117 
 C                     1.25246   2.51168  -0.0174 
 C                     0.12552   1.8052   -0.30304 
 C                    -1.18309   2.37197  -0.58959 
 C                    -2.26017   1.49061  -0.8349 
 C                    -3.53475   1.95951  -1.10907 
 C                    -3.78281   3.34098  -1.15094 
 O                    -5.06849   3.69669  -1.44888 
 C                    -5.4534    5.08427  -1.46283 
 C                    -5.73265   5.6212   -0.06624 
 O                    -6.77624   4.89669   0.58971 
 C                    -8.09769   5.37419   0.31704 
 C                    -8.4991    6.42632   1.35415 
 O                    -9.85246   6.85124   1.20244 
 C                    -10.05772   7.81253   0.16693 
 C                    -11.49493   8.31065   0.30619 
 O                    -11.85581   9.21626  -0.73166 
 C                    -11.39255   10.54759  -0.51743 
 C                    -2.72996   4.24014  -0.91101 
 C                    -1.45648   3.75462  -0.63799 
 F                     2.11346  -0.53319  -1.48442 
 F                     1.35082  -0.7349    0.66203 
 H                     7.85122  -0.84932  -0.94644 
 H                     6.96976   0.60193  -1.3828 
 H                     11.92953   1.35727   1.01756 
 H                     10.08696   3.92097  -1.90527 
 H                     8.12618   2.41725  -1.97498 
 H                     7.27934  -2.59573   1.7178 
 H                     6.95936  -4.20332   1.04893 
 H                     7.58807  -2.92356   0.0101 
 H                     1.12755  -2.83739  -0.2087 
 H                     2.5285   -5.57333  -0.29066 
 H                     1.24771  -7.4788   -0.64669 
 H                    -0.90611  -8.61759  -1.10308 
 H                    -4.3287   -5.94665  -2.13757 
 H                    -5.03045  -7.57223  -2.16182 
 H                    -5.20092  -7.55243   0.34102 
 H                    -4.50687  -5.91983   0.37839 
 H                    -7.30447  -7.44189  -1.59745 
 H                    -7.49283  -7.66719   0.15364 
 H                    -8.65312  -5.34574  -1.48248 
 H                    -9.55233  -6.80714  -1.04219 
 H                    -9.40684  -7.3099    1.44824 
 H                    -9.55626  -5.85056   2.43213 
 H                    -11.48916  -6.68828   0.19662 
 H                    -11.75541  -6.96761   1.9282 
 H                    -12.67722  -5.19597   3.16368 
 H                    -11.12887  -4.31538   3.07906 
 H                    -12.61416  -3.55536   2.4653 
 H                    -2.90617  -4.80099  -1.07957 
 H                    -0.79309  -3.68343  -0.63948 
 H                     6.48886   2.62068   2.09549 
 H                     6.88475   2.9191    0.40055 
 H                     5.90383   4.08404   1.2893 
 H                     1.18604   3.59565   0.02308 
 H                     0.16218   0.72307  -0.31123 
 H                    -2.08198   0.41924  -0.80655 
 H                    -4.35519   1.27448  -1.29657 
 H                    -4.69769   5.69583  -1.9663 
 H                    -6.36263   5.1065   -2.06837 
 H                    -4.84647   5.52315   0.56735 
 H                    -5.97218   6.68948  -0.14499 
 H                    -8.16998   5.77223  -0.7019 
 H                    -8.77212   4.51487   0.3902 
 H                    -8.42393   5.98469   2.35287 
 H                    -7.81892   7.28872   1.31044 
 H                    -9.34013   8.6379    0.27397 
 H                    -9.91998   7.36998  -0.82887 
 H                    -12.17755   7.45818   0.22798 
 H                    -11.63706   8.77187   1.29385 
 H                    -11.76271   10.94766   0.4367 
 H                    -10.29755   10.6166  -0.52506 
 H                    -11.78674   11.15676  -1.33462 
 H                    -2.8916    5.31064  -0.9335 
 H                    -0.66294   4.47307  -0.45974 
 
 ITRead=  0  0  0  0  0  0  0  0  0  0  0  0  0  0  0  0  0  0  0  0
 ITRead=  0  0  0  0  0  0  0  0  0  0  0  0  0  0  0  0  0  0  0  0
 ITRead=  0  0  0  0  0  0  0  0  0  0  0  0  0  0  0  0  0  0  0  0
 ITRead=  0  0  0  0  0  0  0  0  0  0  0  0  0  0  0  0  0  0  0  0
 ITRead=  0  0  0  0  0  0  0  0  0  0  0  0  0  0  0  0  0  0  0  0
 ITRead=  0  0  0  0  0  0  0  0  0  0  0  0  0  0  0  0  0  0  0  0
 ITRead=  0  0  0  0
 MicOpt= -1 -1 -1 -1 -1 -1 -1 -1 -1 -1 -1 -1 -1 -1 -1 -1 -1 -1 -1 -1
 MicOpt= -1 -1 -1 -1 -1 -1 -1 -1 -1 -1 -1 -1 -1 -1 -1 -1 -1 -1 -1 -1
 MicOpt= -1 -1 -1 -1 -1 -1 -1 -1 -1 -1 -1 -1 -1 -1 -1 -1 -1 -1 -1 -1
 MicOpt= -1 -1 -1 -1 -1 -1 -1 -1 -1 -1 -1 -1 -1 -1 -1 -1 -1 -1 -1 -1
 MicOpt= -1 -1 -1 -1 -1 -1 -1 -1 -1 -1 -1 -1 -1 -1 -1 -1 -1 -1 -1 -1
 MicOpt= -1 -1 -1 -1 -1 -1 -1 -1 -1 -1 -1 -1 -1 -1 -1 -1 -1 -1 -1 -1
 MicOpt= -1 -1 -1 -1
 NAtoms=    124 NQM=      124 NQMF=       0 NMMI=      0 NMMIF=      0
                NMic=       0 NMicF=      0.
                    Isotopes and Nuclear Properties:
 (Nuclear quadrupole moments (NQMom) in fm**2, nuclear magnetic moments (NMagM)
  in nuclear magnetons)

  Atom         1           2           3           4           5           6           7           8           9          10
 IAtWgt=          11          14          12          12          12          12          12          12          16          12
 AtmWgt=  11.0093053  14.0030740  12.0000000  12.0000000  12.0000000  12.0000000  12.0000000  12.0000000  15.9949146  12.0000000
 NucSpn=           3           2           0           0           0           0           0           0           0           0
 AtZEff=  -0.0000000  -0.0000000  -0.0000000  -0.0000000  -0.0000000  -0.0000000  -0.0000000  -0.0000000  -0.0000000  -0.0000000
 NQMom=    4.0590000   2.0440000   0.0000000   0.0000000   0.0000000   0.0000000   0.0000000   0.0000000   0.0000000   0.0000000
 NMagM=    2.6886370   0.4037610   0.0000000   0.0000000   0.0000000   0.0000000   0.0000000   0.0000000   0.0000000   0.0000000
 AtZNuc=   5.0000000   7.0000000   6.0000000   6.0000000   6.0000000   6.0000000   6.0000000   6.0000000   8.0000000   6.0000000

  Atom        11          12          13          14          15          16          17          18          19          20
 IAtWgt=          12          12          14          16          16          12          12          12          12          14
 AtmWgt=  12.0000000  12.0000000  14.0030740  15.9949146  15.9949146  12.0000000  12.0000000  12.0000000  12.0000000  14.0030740
 NucSpn=           0           0           2           0           0           0           0           0           0           2
 AtZEff=  -0.0000000  -0.0000000  -0.0000000  -0.0000000  -0.0000000  -0.0000000  -0.0000000  -0.0000000  -0.0000000  -0.0000000
 NQMom=    0.0000000   0.0000000   2.0440000   0.0000000   0.0000000   0.0000000   0.0000000   0.0000000   0.0000000   2.0440000
 NMagM=    0.0000000   0.0000000   0.4037610   0.0000000   0.0000000   0.0000000   0.0000000   0.0000000   0.0000000   0.4037610
 AtZNuc=   6.0000000   6.0000000   7.0000000   8.0000000   8.0000000   6.0000000   6.0000000   6.0000000   6.0000000   7.0000000

  Atom        21          22          23          24          25          26          27          28          29          30
 IAtWgt=          16          16          12          14          12          12          12          12          19          12
 AtmWgt=  15.9949146  15.9949146  12.0000000  14.0030740  12.0000000  12.0000000  12.0000000  12.0000000  18.9984033  12.0000000
 NucSpn=           0           0           0           2           0           0           0           0           1           0
 AtZEff=  -0.0000000  -0.0000000  -0.0000000  -0.0000000  -0.0000000  -0.0000000  -0.0000000  -0.0000000  -0.0000000  -0.0000000
 NQMom=    0.0000000   0.0000000   0.0000000   2.0440000   0.0000000   0.0000000   0.0000000   0.0000000   0.0000000   0.0000000
 NMagM=    0.0000000   0.0000000   0.0000000   0.4037610   0.0000000   0.0000000   0.0000000   0.0000000   2.6288670   0.0000000
 AtZNuc=   8.0000000   8.0000000   6.0000000   7.0000000   6.0000000   6.0000000   6.0000000   6.0000000   9.0000000   6.0000000

  Atom        31          32          33          34          35          36          37          38          39          40
 IAtWgt=          12          12          12          12          12          16          12          12          16          12
 AtmWgt=  12.0000000  12.0000000  12.0000000  12.0000000  12.0000000  15.9949146  12.0000000  12.0000000  15.9949146  12.0000000
 NucSpn=           0           0           0           0           0           0           0           0           0           0
 AtZEff=  -0.0000000  -0.0000000  -0.0000000  -0.0000000  -0.0000000  -0.0000000  -0.0000000  -0.0000000  -0.0000000  -0.0000000
 NQMom=    0.0000000   0.0000000   0.0000000   0.0000000   0.0000000   0.0000000   0.0000000   0.0000000   0.0000000   0.0000000
 NMagM=    0.0000000   0.0000000   0.0000000   0.0000000   0.0000000   0.0000000   0.0000000   0.0000000   0.0000000   0.0000000
 AtZNuc=   6.0000000   6.0000000   6.0000000   6.0000000   6.0000000   8.0000000   6.0000000   6.0000000   8.0000000   6.0000000

  Atom        41          42          43          44          45          46          47          48          49          50
 IAtWgt=          12          16          12          12          16          12          12          12          12          19
 AtmWgt=  12.0000000  15.9949146  12.0000000  12.0000000  15.9949146  12.0000000  12.0000000  12.0000000  12.0000000  18.9984033
 NucSpn=           0           0           0           0           0           0           0           0           0           1
 AtZEff=  -0.0000000  -0.0000000  -0.0000000  -0.0000000  -0.0000000  -0.0000000  -0.0000000  -0.0000000  -0.0000000  -0.0000000
 NQMom=    0.0000000   0.0000000   0.0000000   0.0000000   0.0000000   0.0000000   0.0000000   0.0000000   0.0000000   0.0000000
 NMagM=    0.0000000   0.0000000   0.0000000   0.0000000   0.0000000   0.0000000   0.0000000   0.0000000   0.0000000   2.6288670
 AtZNuc=   6.0000000   8.0000000   6.0000000   6.0000000   8.0000000   6.0000000   6.0000000   6.0000000   6.0000000   9.0000000

  Atom        51          52          53          54          55          56          57          58          59          60
 IAtWgt=          12          12          12          12          12          12          16          12          12          16
 AtmWgt=  12.0000000  12.0000000  12.0000000  12.0000000  12.0000000  12.0000000  15.9949146  12.0000000  12.0000000  15.9949146
 NucSpn=           0           0           0           0           0           0           0           0           0           0
 AtZEff=  -0.0000000  -0.0000000  -0.0000000  -0.0000000  -0.0000000  -0.0000000  -0.0000000  -0.0000000  -0.0000000  -0.0000000
 NQMom=    0.0000000   0.0000000   0.0000000   0.0000000   0.0000000   0.0000000   0.0000000   0.0000000   0.0000000   0.0000000
 NMagM=    0.0000000   0.0000000   0.0000000   0.0000000   0.0000000   0.0000000   0.0000000   0.0000000   0.0000000   0.0000000
 AtZNuc=   6.0000000   6.0000000   6.0000000   6.0000000   6.0000000   6.0000000   8.0000000   6.0000000   6.0000000   8.0000000

  Atom        61          62          63          64          65          66          67          68          69          70
 IAtWgt=          12          12          16          12          12          16          12          12          12          19
 AtmWgt=  12.0000000  12.0000000  15.9949146  12.0000000  12.0000000  15.9949146  12.0000000  12.0000000  12.0000000  18.9984033
 NucSpn=           0           0           0           0           0           0           0           0           0           1
 AtZEff=  -0.0000000  -0.0000000  -0.0000000  -0.0000000  -0.0000000  -0.0000000  -0.0000000  -0.0000000  -0.0000000  -0.0000000
 NQMom=    0.0000000   0.0000000   0.0000000   0.0000000   0.0000000   0.0000000   0.0000000   0.0000000   0.0000000   0.0000000
 NMagM=    0.0000000   0.0000000   0.0000000   0.0000000   0.0000000   0.0000000   0.0000000   0.0000000   0.0000000   2.6288670
 AtZNuc=   6.0000000   6.0000000   8.0000000   6.0000000   6.0000000   8.0000000   6.0000000   6.0000000   6.0000000   9.0000000

  Atom        71          72          73          74          75          76          77          78          79          80
 IAtWgt=          19           1           1           1           1           1           1           1           1           1
 AtmWgt=  18.9984033   1.0078250   1.0078250   1.0078250   1.0078250   1.0078250   1.0078250   1.0078250   1.0078250   1.0078250
 NucSpn=           1           1           1           1           1           1           1           1           1           1
 AtZEff=  -0.0000000  -0.0000000  -0.0000000  -0.0000000  -0.0000000  -0.0000000  -0.0000000  -0.0000000  -0.0000000  -0.0000000
 NQMom=    0.0000000   0.0000000   0.0000000   0.0000000   0.0000000   0.0000000   0.0000000   0.0000000   0.0000000   0.0000000
 NMagM=    2.6288670   2.7928460   2.7928460   2.7928460   2.7928460   2.7928460   2.7928460   2.7928460   2.7928460   2.7928460
 AtZNuc=   9.0000000   1.0000000   1.0000000   1.0000000   1.0000000   1.0000000   1.0000000   1.0000000   1.0000000   1.0000000

  Atom        81          82          83          84          85          86          87          88          89          90
 IAtWgt=           1           1           1           1           1           1           1           1           1           1
 AtmWgt=   1.0078250   1.0078250   1.0078250   1.0078250   1.0078250   1.0078250   1.0078250   1.0078250   1.0078250   1.0078250
 NucSpn=           1           1           1           1           1           1           1           1           1           1
 AtZEff=  -0.0000000  -0.0000000  -0.0000000  -0.0000000  -0.0000000  -0.0000000  -0.0000000  -0.0000000  -0.0000000  -0.0000000
 NQMom=    0.0000000   0.0000000   0.0000000   0.0000000   0.0000000   0.0000000   0.0000000   0.0000000   0.0000000   0.0000000
 NMagM=    2.7928460   2.7928460   2.7928460   2.7928460   2.7928460   2.7928460   2.7928460   2.7928460   2.7928460   2.7928460
 AtZNuc=   1.0000000   1.0000000   1.0000000   1.0000000   1.0000000   1.0000000   1.0000000   1.0000000   1.0000000   1.0000000

  Atom        91          92          93          94          95          96          97          98          99         100
 IAtWgt=           1           1           1           1           1           1           1           1           1           1
 AtmWgt=   1.0078250   1.0078250   1.0078250   1.0078250   1.0078250   1.0078250   1.0078250   1.0078250   1.0078250   1.0078250
 NucSpn=           1           1           1           1           1           1           1           1           1           1
 AtZEff=  -0.0000000  -0.0000000  -0.0000000  -0.0000000  -0.0000000  -0.0000000  -0.0000000  -0.0000000  -0.0000000  -0.0000000
 NQMom=    0.0000000   0.0000000   0.0000000   0.0000000   0.0000000   0.0000000   0.0000000   0.0000000   0.0000000   0.0000000
 NMagM=    2.7928460   2.7928460   2.7928460   2.7928460   2.7928460   2.7928460   2.7928460   2.7928460   2.7928460   2.7928460
 AtZNuc=   1.0000000   1.0000000   1.0000000   1.0000000   1.0000000   1.0000000   1.0000000   1.0000000   1.0000000   1.0000000

  Atom       101         102         103         104         105         106         107         108         109         110
 IAtWgt=           1           1           1           1           1           1           1           1           1           1
 AtmWgt=   1.0078250   1.0078250   1.0078250   1.0078250   1.0078250   1.0078250   1.0078250   1.0078250   1.0078250   1.0078250
 NucSpn=           1           1           1           1           1           1           1           1           1           1
 AtZEff=  -0.0000000  -0.0000000  -0.0000000  -0.0000000  -0.0000000  -0.0000000  -0.0000000  -0.0000000  -0.0000000  -0.0000000
 NQMom=    0.0000000   0.0000000   0.0000000   0.0000000   0.0000000   0.0000000   0.0000000   0.0000000   0.0000000   0.0000000
 NMagM=    2.7928460   2.7928460   2.7928460   2.7928460   2.7928460   2.7928460   2.7928460   2.7928460   2.7928460   2.7928460
 AtZNuc=   1.0000000   1.0000000   1.0000000   1.0000000   1.0000000   1.0000000   1.0000000   1.0000000   1.0000000   1.0000000

  Atom       111         112         113         114         115         116         117         118         119         120
 IAtWgt=           1           1           1           1           1           1           1           1           1           1
 AtmWgt=   1.0078250   1.0078250   1.0078250   1.0078250   1.0078250   1.0078250   1.0078250   1.0078250   1.0078250   1.0078250
 NucSpn=           1           1           1           1           1           1           1           1           1           1
 AtZEff=  -0.0000000  -0.0000000  -0.0000000  -0.0000000  -0.0000000  -0.0000000  -0.0000000  -0.0000000  -0.0000000  -0.0000000
 NQMom=    0.0000000   0.0000000   0.0000000   0.0000000   0.0000000   0.0000000   0.0000000   0.0000000   0.0000000   0.0000000
 NMagM=    2.7928460   2.7928460   2.7928460   2.7928460   2.7928460   2.7928460   2.7928460   2.7928460   2.7928460   2.7928460
 AtZNuc=   1.0000000   1.0000000   1.0000000   1.0000000   1.0000000   1.0000000   1.0000000   1.0000000   1.0000000   1.0000000

  Atom       121         122         123         124
 IAtWgt=           1           1           1           1
 AtmWgt=   1.0078250   1.0078250   1.0078250   1.0078250
 NucSpn=           1           1           1           1
 AtZEff=  -0.0000000  -0.0000000  -0.0000000  -0.0000000
 NQMom=    0.0000000   0.0000000   0.0000000   0.0000000
 NMagM=    2.7928460   2.7928460   2.7928460   2.7928460
 AtZNuc=   1.0000000   1.0000000   1.0000000   1.0000000
 Leave Link  101 at Thu Nov  6 00:45:28 2025, MaxMem= 30870077440 cpu:               5.2 elap:               0.1
 (Enter /public/software/gauss/g16/l202.exe)
 Stoichiometry    C49H53BF4N4O13
 Framework group  C1[X(C49H53BF4N4O13)]
 Deg. of freedom   366
 Full point group                 C1      NOp   1
 Largest Abelian subgroup         C1      NOp   1
 Largest concise Abelian subgroup C1      NOp   1
                         Standard orientation:                         
 ---------------------------------------------------------------------
 Center     Atomic      Atomic             Coordinates (Angstroms)
 Number     Number       Type             X           Y           Z
 ---------------------------------------------------------------------
      1          5           0        2.487605   -0.527936   -0.137066
      2          7           0        3.163192    0.817227    0.237648
      3          6           0        2.586704    2.061744    0.254960
      4          6           0        3.623082    2.971280    0.578856
      5          6           0        4.829705    2.335427    0.749933
      6          6           0        4.530190    0.952497    0.515426
      7          6           0        5.371477   -0.172916    0.544026
      8          6           0        6.865719    0.055692    0.686489
      9          8           0        7.396387    0.134893    1.779524
     10          6           0        7.635864    0.178093   -0.628585
     11          6           0        8.896882    1.003902   -0.556276
     12          6           0       10.004178    0.740199    0.273563
     13          7           0       10.098310   -0.485292    1.073813
     14          8           0        9.648971   -1.526648    0.594610
     15          8           0       10.660737   -0.418472    2.167030
     16          6           0       11.101704    1.588939    0.361864
     17          6           0       11.111279    2.724422   -0.435803
     18          6           0       10.056250    3.030104   -1.291511
     19          6           0        8.962293    2.173712   -1.329233
     20          7           0       12.267042    3.618145   -0.370345
     21          8           0       13.188241    3.326680    0.396038
     22          8           0       12.264635    4.622951   -1.085082
     23          6           0        4.867494   -1.471318    0.401763
     24          7           0        3.508568   -1.660681    0.150789
     25          6           0        3.243285   -3.000152    0.078928
     26          6           0        4.480730   -3.657837    0.307926
     27          6           0        5.498563   -2.757521    0.515295
     28          6           0        6.908360   -3.131838    0.841499
     29          9           0        4.624947   -4.996145    0.351699
     30          6           0        1.943628   -3.548908   -0.170695
     31          6           0        1.697151   -4.876871   -0.343556
     32          6           0        0.406229   -5.488896   -0.604789
     33          6           0        0.337397   -6.893448   -0.741641
     34          6           0       -0.861933   -7.538706   -0.995911
     35          6           0       -2.046177   -6.795583   -1.125294
     36          8           0       -3.169900   -7.527772   -1.393312
     37          6           0       -4.438892   -6.873399   -1.566776
     38          6           0       -5.111624   -6.610578   -0.216701
     39          8           0       -6.384002   -5.994839   -0.388496
     40          6           0       -7.450773   -6.912830   -0.645352
     41          6           0       -8.748938   -6.130448   -0.724785
     42          8           0       -9.075088   -5.467376    0.499478
     43          6           0       -9.777917   -6.276379    1.448686
     44          6           0      -11.281178   -6.294897    1.197195
     45          8           0      -11.885035   -5.002405    1.238687
     46          6           0      -12.076668   -4.502489    2.557962
     47          6           0       -2.006853   -5.397723   -0.990936
     48          6           0       -0.796558   -4.764303   -0.736274
     49          6           0        6.098678    3.017598    1.154439
     50          9           0        3.416893    4.294261    0.711172
     51          6           0        1.252461    2.511683   -0.017395
     52          6           0        0.125523    1.805201   -0.303040
     53          6           0       -1.183091    2.371973   -0.589591
     54          6           0       -2.260168    1.490610   -0.834898
     55          6           0       -3.534745    1.959505   -1.109073
     56          6           0       -3.782814    3.340978   -1.150940
     57          8           0       -5.068494    3.696689   -1.448881
     58          6           0       -5.453403    5.084275   -1.462830
     59          6           0       -5.732651    5.621204   -0.066236
     60          8           0       -6.776236    4.896691    0.589713
     61          6           0       -8.097689    5.374192    0.317037
     62          6           0       -8.499097    6.426323    1.354152
     63          8           0       -9.852461    6.851244    1.202440
     64          6           0      -10.057724    7.812526    0.166929
     65          6           0      -11.494933    8.310649    0.306192
     66          8           0      -11.855809    9.216265   -0.731660
     67          6           0      -11.392549   10.547590   -0.517434
     68          6           0       -2.729958    4.240141   -0.911013
     69          6           0       -1.456482    3.754617   -0.637987
     70          9           0        2.113459   -0.533188   -1.484423
     71          9           0        1.350816   -0.734895    0.662028
     72          1           0        7.851220   -0.849324   -0.946437
     73          1           0        6.969760    0.601926   -1.382798
     74          1           0       11.929529    1.357265    1.017560
     75          1           0       10.086958    3.920973   -1.905269
     76          1           0        8.126183    2.417253   -1.974984
     77          1           0        7.279339   -2.595728    1.717800
     78          1           0        6.959356   -4.203318    1.048933
     79          1           0        7.588065   -2.923559    0.010104
     80          1           0        1.127547   -2.837388   -0.208701
     81          1           0        2.528497   -5.573332   -0.290659
     82          1           0        1.247710   -7.478800   -0.646691
     83          1           0       -0.906114   -8.617595   -1.103084
     84          1           0       -4.328698   -5.946649   -2.137569
     85          1           0       -5.030451   -7.572227   -2.161816
     86          1           0       -5.200920   -7.552430    0.341024
     87          1           0       -4.506868   -5.919831    0.378390
     88          1           0       -7.304465   -7.441892   -1.597448
     89          1           0       -7.492832   -7.667186    0.153643
     90          1           0       -8.653122   -5.345745   -1.482479
     91          1           0       -9.552327   -6.807142   -1.042195
     92          1           0       -9.406843   -7.309895    1.448235
     93          1           0       -9.556261   -5.850564    2.432131
     94          1           0      -11.489157   -6.688277    0.196622
     95          1           0      -11.755408   -6.967606    1.928202
     96          1           0      -12.677215   -5.195968    3.163684
     97          1           0      -11.128872   -4.315377    3.079061
     98          1           0      -12.614162   -3.555358    2.465295
     99          1           0       -2.906166   -4.800987   -1.079565
    100          1           0       -0.793087   -3.683431   -0.639483
    101          1           0        6.488863    2.620679    2.095492
    102          1           0        6.884754    2.919101    0.400546
    103          1           0        5.903828    4.084040    1.289300
    104          1           0        1.186037    3.595648    0.023079
    105          1           0        0.162184    0.723072   -0.311234
    106          1           0       -2.081979    0.419243   -0.806550
    107          1           0       -4.355188    1.274481   -1.296565
    108          1           0       -4.697689    5.695832   -1.966297
    109          1           0       -6.362634    5.106498   -2.068368
    110          1           0       -4.846465    5.523148    0.567352
    111          1           0       -5.972181    6.689481   -0.144986
    112          1           0       -8.169976    5.772228   -0.701899
    113          1           0       -8.772118    4.514866    0.390203
    114          1           0       -8.423931    5.984685    2.352873
    115          1           0       -7.818922    7.288717    1.310442
    116          1           0       -9.340134    8.637895    0.273968
    117          1           0       -9.919975    7.369978   -0.828871
    118          1           0      -12.177549    7.458184    0.227978
    119          1           0      -11.637060    8.771867    1.293847
    120          1           0      -11.762711   10.947661    0.436698
    121          1           0      -10.297549   10.616598   -0.525056
    122          1           0      -11.786736   11.156757   -1.334623
    123          1           0       -2.891597    5.310635   -0.933503
    124          1           0       -0.662940    4.473066   -0.459737
 ---------------------------------------------------------------------
 Rotational constants (GHZ):           0.0225740           0.0094841           0.0068433
 Leave Link  202 at Thu Nov  6 00:45:28 2025, MaxMem= 30870077440 cpu:               0.2 elap:               0.0
 (Enter /public/software/gauss/g16/l301.exe)
 Standard basis: def2TZVPP (5D, 7F)
 Ernie: Thresh=  0.10000D-02 Tol=  0.10000D-05 Strict=F.
 There are  3351 symmetry adapted cartesian basis functions of A   symmetry.
 There are  2943 symmetry adapted basis functions of A   symmetry.
  2943 basis functions,  4522 primitive gaussians,  3351 cartesian basis functions
   260 alpha electrons      260 beta electrons
       nuclear repulsion energy      9979.0190988751 Hartrees.
 IExCor= 4336 DFT=T Ex+Corr=M062X ExCW=0 ScaHFX=  0.540000
 ScaDFX=  1.000000  1.000000  1.000000  1.000000 ScalE2=  1.000000  1.000000
 IRadAn=      5 IRanWt=     -1 IRanGd=            0 ICorTp=0 IEmpDi=131
 NAtoms=  124 NActive=  124 NUniq=  124 SFac= 1.00D+00 NAtFMM=   60 NAOKFM=T Big=T
 Integral buffers will be    131072 words long.
 Raffenetti 2 integral format.
 Two-electron integral symmetry is turned on.
 R6Disp:  Grimme-D3 Dispersion energy=       -0.0099319165 Hartrees.
 Nuclear repulsion after empirical dispersion term =     9979.0091669587 Hartrees.
 ------------------------------------------------------------------------------
 Polarizable Continuum Model (PCM)
 =================================
 Model                : PCM.
 Atomic radii         : UFF (Universal Force Field).
 Polarization charges : Total charges.
 Charge compensation  : None.
 Solution method      : On-the-fly selection.
 Cavity type          : Scaled VdW (van der Waals Surface) (Alpha=1.100).
 Cavity algorithm     : GePol (No added spheres)
                        Default sphere list used, NSphG=  124.
                        Lebedev-Laikov grids with approx.  5.0 points / Ang**2.
                        Smoothing algorithm: York/Karplus (Gamma=1.0000).
                        Polarization charges: spherical gaussians, with
                                              point-specific exponents (IZeta= 3).
                        Self-potential: point-specific (ISelfS= 7).
                        Self-field    : sphere-specific E.n sum rule (ISelfD= 2).
 Solvent              : Water, Eps=  78.355300 Eps(inf)=   1.777849
 ------------------------------------------------------------------------------
 GePol: Number of generator spheres                  =     124
 GePol: Total number of spheres                      =     124
 GePol: Number of exposed spheres                    =     124 (100.00%)
 GePol: Number of points                             =    8795
 GePol: Average weight of points                     =       0.13
 GePol: Minimum weight of points                     =   0.94D-10
 GePol: Maximum weight of points                     =    0.20577
 GePol: Number of points with low weight             =     547
 GePol: Fraction of low-weight points (<1% of avg)   =       6.22%
 GePol: Cavity surface area                          =   1112.789 Ang**2
 GePol: Cavity volume                                =   1279.154 Ang**3
 Leave Link  301 at Thu Nov  6 00:45:28 2025, MaxMem= 30870077440 cpu:               4.3 elap:               0.1
 (Enter /public/software/gauss/g16/l302.exe)
 NPDir=0 NMtPBC=     1 NCelOv=     1 NCel=       1 NClECP=     1 NCelD=      1
         NCelK=      1 NCelE2=     1 NClLst=     1 CellRange=     0.0.
 One-electron integrals computed using PRISM.
 One-electron integral symmetry used in STVInt
   1 Symmetry operations used in ECPInt.
 ECPInt:  NShTT=  604450 NPrTT= 1702811 LenC2=  243504 LenP2D=  452886.
 LDataN:  DoStor=T MaxTD1= 6 Len=  172
 Number of processors reduced to  57 by ecpmxn.
 NBasis=  2943 RedAO= T EigKep=  4.43D-06  NBF=  2943
 NBsUse=  2943 1.00D-06 EigRej= -1.00D+00 NBFU=  2943
 Precomputing XC quadrature grid using
 IXCGrd= 4 IRadAn=           5 IRanWt=          -1 IRanGd=           0 AccXCQ= 0.00D+00.
 Generated NRdTot=       0 NPtTot=           0 NUsed=           0 NTot=          32
 NSgBfM=  2529  2529  2529  2529  2529 MxSgAt=   124 MxSgA2=   124.
 Leave Link  302 at Thu Nov  6 00:46:00 2025, MaxMem= 30870077440 cpu:            2038.3 elap:              32.0
 (Enter /public/software/gauss/g16/l303.exe)
 DipDrv:  MaxL=1.
 Leave Link  303 at Thu Nov  6 00:46:01 2025, MaxMem= 30870077440 cpu:              58.9 elap:               1.0
 (Enter /public/software/gauss/g16/l401.exe)
 ExpMin= 6.06D-02 ExpMax= 3.55D+04 ExpMxC= 1.21D+03 IAcc=3 IRadAn=         5 AccDes= 0.00D+00
 Harris functional with IExCor= 1009 and IRadAn=       5 diagonalized for initial guess.
 HarFok:  IExCor= 1009 AccDes= 0.00D+00 IRadAn=         5 IDoV= 1 UseB2=F ITyADJ=14
 ICtDFT=  3500011 ScaDFX=  1.000000  1.000000  1.000000  1.000000
 FoFCou: FMM=F IPFlag=           0 FMFlag=      100000 FMFlg1=        2001
         NFxFlg=           0 DoJE=T BraDBF=F KetDBF=T FulRan=T
         wScrn=  0.000000 ICntrl=       500 IOpCl=  0 I1Cent=   200000004 NGrid=           0
         NMat0=    1 NMatS0=      1 NMatT0=    0 NMatD0=    1 NMtDS0=    0 NMtDT0=    0
 Petite list used in FoFCou.
 Harris En= -3518.31209007681    
 JPrj=0 DoOrth=F DoCkMO=F.
 Leave Link  401 at Thu Nov  6 00:46:25 2025, MaxMem= 30870077440 cpu:            1541.0 elap:              24.2
 (Enter /public/software/gauss/g16/l502.exe)
 Integral symmetry usage will be decided dynamically.
 Closed shell SCF:
 Using DIIS extrapolation, IDIIS=  1040.
 NGot= 30870077440 LenX= 30847376410 LenY= 30836143858
 Requested convergence on RMS density matrix=1.00D-08 within 128 cycles.
 Requested convergence on MAX density matrix=1.00D-06.
 Requested convergence on             energy=1.00D-06.
 No special actions if energy rises.
 Fock matrices will be formed incrementally for  20 cycles.

 Cycle   1  Pass 1  IDiag  1:
 FoFJK:  IHMeth= 1 ICntrl=       0 DoSepK=F KAlg= 0 I1Cent=           0 FoldK=F
 IRaf= 360000000 NMat=       1 IRICut=       1 DoRegI=T DoRafI=F ISym2E= 0 IDoP0=0 IntGTp=1.
 FoFCou: FMM=T IPFlag=           0 FMFlag=      100000 FMFlg1=        2001
         NFxFlg=           0 DoJE=F BraDBF=F KetDBF=F FulRan=T
         wScrn=  0.000000 ICntrl=         0 IOpCl=  0 I1Cent=           0 NGrid=           0
         NMat0=    1 NMatS0=      1 NMatT0=    0 NMatD0=    1 NMtDS0=    0 NMtDT0=    0
 Symmetry not used in FoFCou.
 FMM levels:  10  Number of levels for PrismC:   9
 Inv3:  Mode=1 IEnd=   232056075.
 Iteration    1 A*A^-1 deviation from unit magnitude is 7.66D-15 for   8771.
 Iteration    1 A*A^-1 deviation from orthogonality  is 5.10D-15 for   8769   5439.
 Iteration    1 A^-1*A deviation from unit magnitude is 7.22D-15 for   8769.
 Iteration    1 A^-1*A deviation from orthogonality  is 4.26D-13 for   8792   8771.
 E= -3518.60028378692    
 DIIS: error= 2.39D-02 at cycle   1 NSaved=   1.
 NSaved= 1 IEnMin= 1 EnMin= -3518.60028378692     IErMin= 1 ErrMin= 2.39D-02
 ErrMax= 2.39D-02  0.00D+00 EMaxC= 1.00D-01 BMatC= 2.19D+00 BMatP= 2.19D+00
 IDIUse=3 WtCom= 7.61D-01 WtEn= 2.39D-01
 Coeff-Com:  0.100D+01
 Coeff-En:   0.100D+01
 Coeff:      0.100D+01
 Gap=     0.131 Goal=   None    Shift=    0.000
 GapD=    0.131 DampG=1.000 DampE=0.500 DampFc=0.5000 IDamp=-1.
 Damping current iteration by 5.00D-01
 RMSDP=1.46D-03 MaxDP=5.72D-01              OVMax= 2.59D-01

 Cycle   2  Pass 1  IDiag  1:
 RMSU=  7.30D-04    CP:  1.01D+00
 E= -3519.34938256031     Delta-E=       -0.749098773393 Rises=F Damp=T
 DIIS: error= 4.81D-03 at cycle   2 NSaved=   2.
 NSaved= 2 IEnMin= 2 EnMin= -3519.34938256031     IErMin= 2 ErrMin= 4.81D-03
 ErrMax= 4.81D-03  0.00D+00 EMaxC= 1.00D-01 BMatC= 2.37D-01 BMatP= 2.19D+00
 IDIUse=3 WtCom= 9.52D-01 WtEn= 4.81D-02
 Coeff-Com: -0.654D-01 0.107D+01
 Coeff-En:   0.000D+00 0.100D+01
 Coeff:     -0.622D-01 0.106D+01
 Gap=     0.173 Goal=   None    Shift=    0.000
 RMSDP=4.77D-04 MaxDP=1.34D-01 DE=-7.49D-01 OVMax= 1.89D-01

 Cycle   3  Pass 1  IDiag  1:
 RMSU=  4.71D-04    CP:  9.92D-01  1.04D+00
 E= -3520.06248376638     Delta-E=       -0.713101206074 Rises=F Damp=F
 DIIS: error= 9.14D-03 at cycle   3 NSaved=   3.
 NSaved= 3 IEnMin= 3 EnMin= -3520.06248376638     IErMin= 2 ErrMin= 4.81D-03
 ErrMax= 9.14D-03  0.00D+00 EMaxC= 1.00D-01 BMatC= 1.28D-01 BMatP= 2.37D-01
 IDIUse=3 WtCom= 9.09D-01 WtEn= 9.14D-02
 Coeff-Com: -0.124D+00 0.482D+00 0.643D+00
 Coeff-En:   0.000D+00 0.000D+00 0.100D+01
 Coeff:     -0.113D+00 0.438D+00 0.675D+00
 Gap=     0.120 Goal=   None    Shift=    0.000
 RMSDP=1.67D-04 MaxDP=4.85D-02 DE=-7.13D-01 OVMax= 7.30D-02

 Cycle   4  Pass 1  IDiag  1:
 RMSU=  1.44D-04    CP:  9.95D-01  1.12D+00  8.73D-01
 E= -3520.14057193202     Delta-E=       -0.078088165632 Rises=F Damp=F
 DIIS: error= 2.92D-03 at cycle   4 NSaved=   4.
 NSaved= 4 IEnMin= 4 EnMin= -3520.14057193202     IErMin= 4 ErrMin= 2.92D-03
 ErrMax= 2.92D-03  0.00D+00 EMaxC= 1.00D-01 BMatC= 2.08D-02 BMatP= 1.28D-01
 IDIUse=3 WtCom= 9.71D-01 WtEn= 2.92D-02
 Coeff-Com: -0.378D-01 0.962D-01 0.336D+00 0.606D+00
 Coeff-En:   0.000D+00 0.000D+00 0.117D+00 0.883D+00
 Coeff:     -0.367D-01 0.933D-01 0.330D+00 0.614D+00
 Gap=     0.123 Goal=   None    Shift=    0.000
 RMSDP=6.83D-05 MaxDP=2.27D-02 DE=-7.81D-02 OVMax= 1.76D-02

 Cycle   5  Pass 1  IDiag  1:
 RMSU=  3.59D-05    CP:  9.92D-01  1.09D+00  9.31D-01  6.88D-01
 E= -3520.15584378790     Delta-E=       -0.015271855882 Rises=F Damp=F
 DIIS: error= 2.26D-04 at cycle   5 NSaved=   5.
 NSaved= 5 IEnMin= 5 EnMin= -3520.15584378790     IErMin= 5 ErrMin= 2.26D-04
 ErrMax= 2.26D-04  0.00D+00 EMaxC= 1.00D-01 BMatC= 7.60D-04 BMatP= 2.08D-02
 IDIUse=3 WtCom= 9.98D-01 WtEn= 2.26D-03
 Coeff-Com: -0.105D-01 0.200D-01 0.120D+00 0.278D+00 0.593D+00
 Coeff-En:   0.000D+00 0.000D+00 0.000D+00 0.000D+00 0.100D+01
 Coeff:     -0.105D-01 0.200D-01 0.120D+00 0.277D+00 0.594D+00
 Gap=     0.123 Goal=   None    Shift=    0.000
 RMSDP=1.93D-05 MaxDP=4.53D-03 DE=-1.53D-02 OVMax= 5.46D-03

 Cycle   6  Pass 1  IDiag  1:
 RMSU=  1.52D-05    CP:  9.93D-01  1.10D+00  9.26D-01  7.07D-01  7.73D-01
 E= -3520.15642081830     Delta-E=       -0.000577030401 Rises=F Damp=F
 DIIS: error= 1.32D-04 at cycle   6 NSaved=   6.
 NSaved= 6 IEnMin= 6 EnMin= -3520.15642081830     IErMin= 6 ErrMin= 1.32D-04
 ErrMax= 1.32D-04  0.00D+00 EMaxC= 1.00D-01 BMatC= 1.02D-04 BMatP= 7.60D-04
 IDIUse=3 WtCom= 9.99D-01 WtEn= 1.32D-03
 Coeff-Com: -0.111D-02-0.234D-03 0.257D-01 0.756D-01 0.299D+00 0.601D+00
 Coeff-En:   0.000D+00 0.000D+00 0.000D+00 0.000D+00 0.000D+00 0.100D+01
 Coeff:     -0.111D-02-0.234D-03 0.257D-01 0.755D-01 0.298D+00 0.602D+00
 Gap=     0.124 Goal=   None    Shift=    0.000
 RMSDP=6.12D-06 MaxDP=1.61D-03 DE=-5.77D-04 OVMax= 4.30D-03

 Cycle   7  Pass 1  IDiag  1:
 RMSU=  4.76D-06    CP:  9.93D-01  1.10D+00  9.29D-01  7.03D-01  8.45D-01
                    CP:  9.70D-01
 E= -3520.15651627536     Delta-E=       -0.000095457057 Rises=F Damp=F
 DIIS: error= 3.95D-05 at cycle   7 NSaved=   7.
 NSaved= 7 IEnMin= 7 EnMin= -3520.15651627536     IErMin= 7 ErrMin= 3.95D-05
 ErrMax= 3.95D-05  0.00D+00 EMaxC= 1.00D-01 BMatC= 1.42D-05 BMatP= 1.02D-04
 IDIUse=1 WtCom= 1.00D+00 WtEn= 0.00D+00
 Coeff-Com:  0.135D-02-0.362D-02-0.828D-02-0.127D-01 0.342D-01 0.285D+00
 Coeff-Com:  0.704D+00
 Coeff:      0.135D-02-0.362D-02-0.828D-02-0.127D-01 0.342D-01 0.285D+00
 Coeff:      0.704D+00
 Gap=     0.124 Goal=   None    Shift=    0.000
 RMSDP=3.06D-06 MaxDP=6.96D-04 DE=-9.55D-05 OVMax= 1.80D-03

 Cycle   8  Pass 1  IDiag  1:
 RMSU=  2.27D-06    CP:  9.93D-01  1.10D+00  9.30D-01  7.06D-01  8.69D-01
                    CP:  1.08D+00  9.57D-01
 E= -3520.15653414904     Delta-E=       -0.000017873686 Rises=F Damp=F
 DIIS: error= 2.03D-05 at cycle   8 NSaved=   8.
 NSaved= 8 IEnMin= 8 EnMin= -3520.15653414904     IErMin= 8 ErrMin= 2.03D-05
 ErrMax= 2.03D-05  0.00D+00 EMaxC= 1.00D-01 BMatC= 2.26D-06 BMatP= 1.42D-05
 IDIUse=1 WtCom= 1.00D+00 WtEn= 0.00D+00
 Coeff-Com:  0.855D-03-0.172D-02-0.831D-02-0.196D-01-0.387D-01 0.271D-01
 Coeff-Com:  0.324D+00 0.716D+00
 Coeff:      0.855D-03-0.172D-02-0.831D-02-0.196D-01-0.387D-01 0.271D-01
 Coeff:      0.324D+00 0.716D+00
 Gap=     0.125 Goal=   None    Shift=    0.000
 RMSDP=1.74D-06 MaxDP=5.51D-04 DE=-1.79D-05 OVMax= 1.10D-03

 Cycle   9  Pass 1  IDiag  1:
 RMSU=  9.51D-07    CP:  9.93D-01  1.09D+00  9.32D-01  7.05D-01  8.83D-01
                    CP:  1.13D+00  1.11D+00  1.16D+00
 E= -3520.15653754076     Delta-E=       -0.000003391719 Rises=F Damp=F
 DIIS: error= 1.20D-05 at cycle   9 NSaved=   9.
 NSaved= 9 IEnMin= 9 EnMin= -3520.15653754076     IErMin= 9 ErrMin= 1.20D-05
 ErrMax= 1.20D-05  0.00D+00 EMaxC= 1.00D-01 BMatC= 3.40D-07 BMatP= 2.26D-06
 IDIUse=1 WtCom= 1.00D+00 WtEn= 0.00D+00
 Coeff-Com:  0.208D-03-0.311D-03-0.254D-02-0.718D-02-0.226D-01-0.234D-01
 Coeff-Com:  0.538D-01 0.314D+00 0.688D+00
 Coeff:      0.208D-03-0.311D-03-0.254D-02-0.718D-02-0.226D-01-0.234D-01
 Coeff:      0.538D-01 0.314D+00 0.688D+00
 Gap=     0.125 Goal=   None    Shift=    0.000
 RMSDP=5.64D-07 MaxDP=1.32D-04 DE=-3.39D-06 OVMax= 5.72D-04

 Cycle  10  Pass 1  IDiag  1:
 RMSU=  3.90D-07    CP:  9.93D-01  1.09D+00  9.32D-01  7.05D-01  8.83D-01
                    CP:  1.14D+00  1.14D+00  1.28D+00  9.93D-01
 E= -3520.15653805863     Delta-E=       -0.000000517872 Rises=F Damp=F
 DIIS: error= 7.75D-06 at cycle  10 NSaved=  10.
 NSaved=10 IEnMin=10 EnMin= -3520.15653805863     IErMin=10 ErrMin= 7.75D-06
 ErrMax= 7.75D-06  0.00D+00 EMaxC= 1.00D-01 BMatC= 1.16D-07 BMatP= 3.40D-07
 IDIUse=1 WtCom= 1.00D+00 WtEn= 0.00D+00
 Coeff-Com: -0.703D-04 0.199D-03 0.459D-03 0.422D-03-0.406D-02-0.162D-01
 Coeff-Com: -0.416D-01 0.490D-02 0.399D+00 0.657D+00
 Coeff:     -0.703D-04 0.199D-03 0.459D-03 0.422D-03-0.406D-02-0.162D-01
 Coeff:     -0.416D-01 0.490D-02 0.399D+00 0.657D+00
 Gap=     0.125 Goal=   None    Shift=    0.000
 RMSDP=2.85D-07 MaxDP=5.54D-05 DE=-5.18D-07 OVMax= 2.47D-04

 Cycle  11  Pass 1  IDiag  1:
 RMSU=  1.57D-07    CP:  9.93D-01  1.09D+00  9.32D-01  7.05D-01  8.84D-01
                    CP:  1.15D+00  1.16D+00  1.34D+00  1.15D+00  9.58D-01
 E= -3520.15653821180     Delta-E=       -0.000000153168 Rises=F Damp=F
 DIIS: error= 2.19D-06 at cycle  11 NSaved=  11.
 NSaved=11 IEnMin=11 EnMin= -3520.15653821180     IErMin=11 ErrMin= 2.19D-06
 ErrMax= 2.19D-06  0.00D+00 EMaxC= 1.00D-01 BMatC= 1.42D-08 BMatP= 1.16D-07
 IDIUse=1 WtCom= 1.00D+00 WtEn= 0.00D+00
 Coeff-Com: -0.678D-04 0.147D-03 0.662D-03 0.150D-02 0.180D-02-0.287D-02
 Coeff-Com: -0.313D-01-0.584D-01 0.794D-01 0.311D+00 0.698D+00
 Coeff:     -0.678D-04 0.147D-03 0.662D-03 0.150D-02 0.180D-02-0.287D-02
 Coeff:     -0.313D-01-0.584D-01 0.794D-01 0.311D+00 0.698D+00
 Gap=     0.125 Goal=   None    Shift=    0.000
 RMSDP=1.48D-07 MaxDP=5.03D-05 DE=-1.53D-07 OVMax= 1.06D-04

 Cycle  12  Pass 1  IDiag  1:
 RMSU=  6.68D-08    CP:  9.93D-01  1.09D+00  9.32D-01  7.05D-01  8.85D-01
                    CP:  1.15D+00  1.16D+00  1.37D+00  1.21D+00  1.09D+00
                    CP:  1.03D+00
 E= -3520.15653823313     Delta-E=       -0.000000021329 Rises=F Damp=F
 DIIS: error= 5.44D-07 at cycle  12 NSaved=  12.
 NSaved=12 IEnMin=12 EnMin= -3520.15653823313     IErMin=12 ErrMin= 5.44D-07
 ErrMax= 5.44D-07  0.00D+00 EMaxC= 1.00D-01 BMatC= 1.85D-09 BMatP= 1.42D-08
 IDIUse=1 WtCom= 1.00D+00 WtEn= 0.00D+00
 Coeff-Com: -0.201D-04 0.374D-04 0.224D-03 0.614D-03 0.124D-02 0.119D-02
 Coeff-Com: -0.846D-02-0.267D-01-0.172D-01 0.393D-01 0.293D+00 0.717D+00
 Coeff:     -0.201D-04 0.374D-04 0.224D-03 0.614D-03 0.124D-02 0.119D-02
 Coeff:     -0.846D-02-0.267D-01-0.172D-01 0.393D-01 0.293D+00 0.717D+00
 Gap=     0.125 Goal=   None    Shift=    0.000
 RMSDP=4.06D-08 MaxDP=8.65D-06 DE=-2.13D-08 OVMax= 4.03D-05

 Cycle  13  Pass 1  IDiag  1:
 RMSU=  2.92D-08    CP:  9.93D-01  1.09D+00  9.32D-01  7.05D-01  8.85D-01
                    CP:  1.15D+00  1.16D+00  1.37D+00  1.23D+00  1.12D+00
                    CP:  1.14D+00  1.11D+00
 E= -3520.15653823692     Delta-E=       -0.000000003794 Rises=F Damp=F
 DIIS: error= 2.63D-07 at cycle  13 NSaved=  13.
 NSaved=13 IEnMin=13 EnMin= -3520.15653823692     IErMin=13 ErrMin= 2.63D-07
 ErrMax= 2.63D-07  0.00D+00 EMaxC= 1.00D-01 BMatC= 3.41D-10 BMatP= 1.85D-09
 IDIUse=1 WtCom= 1.00D+00 WtEn= 0.00D+00
 Coeff-Com:  0.388D-05-0.107D-04-0.302D-04-0.148D-04 0.140D-03 0.111D-02
 Coeff-Com:  0.196D-02 0.111D-03-0.180D-01-0.415D-01-0.126D-01 0.289D+00
 Coeff-Com:  0.780D+00
 Coeff:      0.388D-05-0.107D-04-0.302D-04-0.148D-04 0.140D-03 0.111D-02
 Coeff:      0.196D-02 0.111D-03-0.180D-01-0.415D-01-0.126D-01 0.289D+00
 Coeff:      0.780D+00
 Gap=     0.125 Goal=   None    Shift=    0.000
 RMSDP=2.22D-08 MaxDP=3.62D-06 DE=-3.79D-09 OVMax= 2.44D-05

 Cycle  14  Pass 1  IDiag  1:
 RMSU=  1.15D-08    CP:  9.93D-01  1.09D+00  9.32D-01  7.05D-01  8.85D-01
                    CP:  1.15D+00  1.16D+00  1.38D+00  1.23D+00  1.14D+00
                    CP:  1.20D+00  1.29D+00  1.19D+00
 E= -3520.15653823771     Delta-E=       -0.000000000782 Rises=F Damp=F
 DIIS: error= 1.08D-07 at cycle  14 NSaved=  14.
 NSaved=14 IEnMin=14 EnMin= -3520.15653823771     IErMin=14 ErrMin= 1.08D-07
 ErrMax= 1.08D-07  0.00D+00 EMaxC= 1.00D-01 BMatC= 7.07D-11 BMatP= 3.41D-10
 IDIUse=1 WtCom= 1.00D+00 WtEn= 0.00D+00
 Coeff-Com:  0.487D-05-0.105D-04-0.520D-04-0.110D-03-0.154D-03 0.294D-03
 Coeff-Com:  0.221D-02 0.476D-02-0.405D-02-0.255D-01-0.598D-01-0.123D-01
 Coeff-Com:  0.318D+00 0.777D+00
 Coeff:      0.487D-05-0.105D-04-0.520D-04-0.110D-03-0.154D-03 0.294D-03
 Coeff:      0.221D-02 0.476D-02-0.405D-02-0.255D-01-0.598D-01-0.123D-01
 Coeff:      0.318D+00 0.777D+00
 Gap=     0.125 Goal=   None    Shift=    0.000
 RMSDP=1.23D-08 MaxDP=3.45D-06 DE=-7.82D-10 OVMax= 1.58D-05

 Cycle  15  Pass 1  IDiag  1:
 RMSU=  5.53D-09    CP:  9.93D-01  1.09D+00  9.32D-01  7.05D-01  8.85D-01
                    CP:  1.15D+00  1.16D+00  1.38D+00  1.23D+00  1.14D+00
                    CP:  1.23D+00  1.36D+00  1.45D+00  1.32D+00
 E= -3520.15653823897     Delta-E=       -0.000000001266 Rises=F Damp=F
 DIIS: error= 6.59D-08 at cycle  15 NSaved=  15.
 NSaved=15 IEnMin=15 EnMin= -3520.15653823897     IErMin=15 ErrMin= 6.59D-08
 ErrMax= 6.59D-08  0.00D+00 EMaxC= 1.00D-01 BMatC= 1.87D-11 BMatP= 7.07D-11
 IDIUse=1 WtCom= 1.00D+00 WtEn= 0.00D+00
 Coeff-Com:  0.954D-06-0.161D-05-0.145D-04-0.414D-04-0.983D-04-0.129D-03
 Coeff-Com:  0.421D-03 0.200D-02 0.273D-02-0.150D-02-0.230D-01-0.725D-01
 Coeff-Com: -0.470D-01 0.345D+00 0.794D+00
 Coeff:      0.954D-06-0.161D-05-0.145D-04-0.414D-04-0.983D-04-0.129D-03
 Coeff:      0.421D-03 0.200D-02 0.273D-02-0.150D-02-0.230D-01-0.725D-01
 Coeff:     -0.470D-01 0.345D+00 0.794D+00
 Gap=     0.125 Goal=   None    Shift=    0.000
 RMSDP=7.14D-09 MaxDP=1.03D-06 DE=-1.27D-09 OVMax= 1.07D-05

 Cycle  16  Pass 1  IDiag  1:
 RMSU=  2.94D-09    CP:  9.93D-01  1.09D+00  9.32D-01  7.05D-01  8.85D-01
                    CP:  1.15D+00  1.16D+00  1.38D+00  1.23D+00  1.14D+00
                    CP:  1.24D+00  1.40D+00  1.58D+00  1.65D+00  1.30D+00
 E= -3520.15653823787     Delta-E=        0.000000001104 Rises=F Damp=F
 DIIS: error= 4.93D-08 at cycle  16 NSaved=  16.
 NSaved=16 IEnMin=15 EnMin= -3520.15653823897     IErMin=16 ErrMin= 4.93D-08
 ErrMax= 4.93D-08  0.00D+00 EMaxC= 1.00D-01 BMatC= 5.68D-12 BMatP= 1.87D-11
 IDIUse=1 WtCom= 1.00D+00 WtEn= 0.00D+00
 Coeff-Com: -0.818D-06 0.197D-05 0.696D-05 0.867D-05-0.735D-05-0.146D-03
 Coeff-Com: -0.395D-03-0.332D-03 0.256D-02 0.668D-02 0.601D-02-0.316D-01
 Coeff-Com: -0.117D+00-0.579D-01 0.397D+00 0.795D+00
 Coeff:     -0.818D-06 0.197D-05 0.696D-05 0.867D-05-0.735D-05-0.146D-03
 Coeff:     -0.395D-03-0.332D-03 0.256D-02 0.668D-02 0.601D-02-0.316D-01
 Coeff:     -0.117D+00-0.579D-01 0.397D+00 0.795D+00
 Gap=     0.125 Goal=   None    Shift=    0.000
 RMSDP=4.32D-09 MaxDP=7.23D-07 DE= 1.10D-09 OVMax= 6.65D-06

 Cycle  17  Pass 1  IDiag  1:
 RMSU=  1.47D-09    CP:  9.93D-01  1.09D+00  9.32D-01  7.05D-01  8.85D-01
                    CP:  1.15D+00  1.16D+00  1.38D+00  1.23D+00  1.14D+00
                    CP:  1.24D+00  1.42D+00  1.65D+00  1.85D+00  1.68D+00
                    CP:  1.26D+00
 E= -3520.15653823779     Delta-E=        0.000000000075 Rises=F Damp=F
 DIIS: error= 2.90D-08 at cycle  17 NSaved=  17.
 NSaved=17 IEnMin=15 EnMin= -3520.15653823897     IErMin=17 ErrMin= 2.90D-08
 ErrMax= 2.90D-08  0.00D+00 EMaxC= 1.00D-01 BMatC= 1.65D-12 BMatP= 5.68D-12
 IDIUse=1 WtCom= 1.00D+00 WtEn= 0.00D+00
 Coeff-Com: -0.587D-06 0.128D-05 0.703D-05 0.137D-04 0.202D-04-0.476D-04
 Coeff-Com: -0.293D-03-0.676D-03 0.583D-03 0.395D-02 0.884D-02 0.170D-02
 Coeff-Com: -0.518D-01-0.122D+00 0.214D-01 0.430D+00 0.708D+00
 Coeff:     -0.587D-06 0.128D-05 0.703D-05 0.137D-04 0.202D-04-0.476D-04
 Coeff:     -0.293D-03-0.676D-03 0.583D-03 0.395D-02 0.884D-02 0.170D-02
 Coeff:     -0.518D-01-0.122D+00 0.214D-01 0.430D+00 0.708D+00
 Gap=     0.125 Goal=   None    Shift=    0.000
 RMSDP=2.13D-09 MaxDP=4.29D-07 DE= 7.46D-11 OVMax= 3.07D-06

 Error on total polarization charges =  0.02909
 SCF Done:  E(RM062X) =  -3520.15653824     A.U. after   17 cycles
            NFock= 17  Conv=0.21D-08     -V/T= 2.0052
 KE= 3.501862816284D+03 PE=-2.818850798786D+04 EE= 1.118747946638D+04
 Leave Link  502 at Thu Nov  6 01:20:07 2025, MaxMem= 30870077440 cpu:          126596.2 elap:            2021.4
 (Enter /public/software/gauss/g16/l601.exe)
 Copying SCF densities to generalized density rwf, IOpCl= 0 IROHF=0.
 Hyperfine terms turned off by default for NAtoms > 100.

 **********************************************************************

            Population analysis using the SCF density.

 **********************************************************************

 Orbital symmetries:
       Occupied  (A) (A) (A) (A) (A) (A) (A) (A) (A) (A) (A) (A)
                 (A) (A) (A) (A) (A) (A) (A) (A) (A) (A) (A) (A)
                 (A) (A) (A) (A) (A) (A) (A) (A) (A) (A) (A) (A)
                 (A) (A) (A) (A) (A) (A) (A) (A) (A) (A) (A) (A)
                 (A) (A) (A) (A) (A) (A) (A) (A) (A) (A) (A) (A)
                 (A) (A) (A) (A) (A) (A) (A) (A) (A) (A) (A) (A)
                 (A) (A) (A) (A) (A) (A) (A) (A) (A) (A) (A) (A)
                 (A) (A) (A) (A) (A) (A) (A) (A) (A) (A) (A) (A)
                 (A) (A) (A) (A) (A) (A) (A) (A) (A) (A) (A) (A)
                 (A) (A) (A) (A) (A) (A) (A) (A) (A) (A) (A) (A)
                 (A) (A) (A) (A) (A) (A) (A) (A) (A) (A) (A) (A)
                 (A) (A) (A) (A) (A) (A) (A) (A) (A) (A) (A) (A)
                 (A) (A) (A) (A) (A) (A) (A) (A) (A) (A) (A) (A)
                 (A) (A) (A) (A) (A) (A) (A) (A) (A) (A) (A) (A)
                 (A) (A) (A) (A) (A) (A) (A) (A) (A) (A) (A) (A)
                 (A) (A) (A) (A) (A) (A) (A) (A) (A) (A) (A) (A)
                 (A) (A) (A) (A) (A) (A) (A) (A) (A) (A) (A) (A)
                 (A) (A) (A) (A) (A) (A) (A) (A) (A) (A) (A) (A)
                 (A) (A) (A) (A) (A) (A) (A) (A) (A) (A) (A) (A)
                 (A) (A) (A) (A) (A) (A) (A) (A) (A) (A) (A) (A)
                 (A) (A) (A) (A) (A) (A) (A) (A) (A) (A) (A) (A)
                 (A) (A) (A) (A) (A) (A) (A) (A)
       Virtual   (A) (A) (A) (A) (A) (A) (A) (A) (A) (A) (A) (A)
                 (A) (A) (A) (A) (A) (A) (A) (A) (A) (A) (A) (A)
                 (A) (A) (A) (A) (A) (A) (A) (A) (A) (A) (A) (A)
                 (A) (A) (A) (A) (A) (A) (A) (A) (A) (A) (A) (A)
                 (A) (A) (A) (A) (A) (A) (A) (A) (A) (A) (A) (A)
                 (A) (A) (A) (A) (A) (A) (A) (A) (A) (A) (A) (A)
                 (A) (A) (A) (A) (A) (A) (A) (A) (A) (A) (A) (A)
                 (A) (A) (A) (A) (A) (A) (A) (A) (A) (A) (A) (A)
                 (A) (A) (A) (A) (A) (A) (A) (A) (A) (A) (A) (A)
                 (A) (A) (A) (A) (A) (A) (A) (A) (A) (A) (A) (A)
                 (A) (A) (A) (A) (A) (A) (A) (A) (A) (A) (A) (A)
                 (A) (A) (A) (A) (A) (A) (A) (A) (A) (A) (A) (A)
                 (A) (A) (A) (A) (A) (A) (A) (A) (A) (A) (A) (A)
                 (A) (A) (A) (A) (A) (A) (A) (A) (A) (A) (A) (A)
                 (A) (A) (A) (A) (A) (A) (A) (A) (A) (A) (A) (A)
                 (A) (A) (A) (A) (A) (A) (A) (A) (A) (A) (A) (A)
                 (A) (A) (A) (A) (A) (A) (A) (A) (A) (A) (A) (A)
                 (A) (A) (A) (A) (A) (A) (A) (A) (A) (A) (A) (A)
                 (A) (A) (A) (A) (A) (A) (A) (A) (A) (A) (A) (A)
                 (A) (A) (A) (A) (A) (A) (A) (A) (A) (A) (A) (A)
                 (A) (A) (A) (A) (A) (A) (A) (A) (A) (A) (A) (A)
                 (A) (A) (A) (A) (A) (A) (A) (A) (A) (A) (A) (A)
                 (A) (A) (A) (A) (A) (A) (A) (A) (A) (A) (A) (A)
                 (A) (A) (A) (A) (A) (A) (A) (A) (A) (A) (A) (A)
                 (A) (A) (A) (A) (A) (A) (A) (A) (A) (A) (A) (A)
                 (A) (A) (A) (A) (A) (A) (A) (A) (A) (A) (A) (A)
                 (A) (A) (A) (A) (A) (A) (A) (A) (A) (A) (A) (A)
                 (A) (A) (A) (A) (A) (A) (A) (A) (A) (A) (A) (A)
                 (A) (A) (A) (A) (A) (A) (A) (A) (A) (A) (A) (A)
                 (A) (A) (A) (A) (A) (A) (A) (A) (A) (A) (A) (A)
                 (A) (A) (A) (A) (A) (A) (A) (A) (A) (A) (A) (A)
                 (A) (A) (A) (A) (A) (A) (A) (A) (A) (A) (A) (A)
                 (A) (A) (A) (A) (A) (A) (A) (A) (A) (A) (A) (A)
                 (A) (A) (A) (A) (A) (A) (A) (A) (A) (A) (A) (A)
                 (A) (A) (A) (A) (A) (A) (A) (A) (A) (A) (A) (A)
                 (A) (A) (A) (A) (A) (A) (A) (A) (A) (A) (A) (A)
                 (A) (A) (A) (A) (A) (A) (A) (A) (A) (A) (A) (A)
                 (A) (A) (A) (A) (A) (A) (A) (A) (A) (A) (A) (A)
                 (A) (A) (A) (A) (A) (A) (A) (A) (A) (A) (A) (A)
                 (A) (A) (A) (A) (A) (A) (A) (A) (A) (A) (A) (A)
                 (A) (A) (A) (A) (A) (A) (A) (A) (A) (A) (A) (A)
                 (A) (A) (A) (A) (A) (A) (A) (A) (A) (A) (A) (A)
                 (A) (A) (A) (A) (A) (A) (A) (A) (A) (A) (A) (A)
                 (A) (A) (A) (A) (A) (A) (A) (A) (A) (A) (A) (A)
                 (A) (A) (A) (A) (A) (A) (A) (A) (A) (A) (A) (A)
                 (A) (A) (A) (A) (A) (A) (A) (A) (A) (A) (A) (A)
                 (A) (A) (A) (A) (A) (A) (A) (A) (A) (A) (A) (A)
                 (A) (A) (A) (A) (A) (A) (A) (A) (A) (A) (A) (A)
                 (A) (A) (A) (A) (A) (A) (A) (A) (A) (A) (A) (A)
                 (A) (A) (A) (A) (A) (A) (A) (A) (A) (A) (A) (A)
                 (A) (A) (A) (A) (A) (A) (A) (A) (A) (A) (A) (A)
                 (A) (A) (A) (A) (A) (A) (A) (A) (A) (A) (A) (A)
                 (A) (A) (A) (A) (A) (A) (A) (A) (A) (A) (A) (A)
                 (A) (A) (A) (A) (A) (A) (A) (A) (A) (A) (A) (A)
                 (A) (A) (A) (A) (A) (A) (A) (A) (A) (A) (A) (A)
                 (A) (A) (A) (A) (A) (A) (A) (A) (A) (A) (A) (A)
                 (A) (A) (A) (A) (A) (A) (A) (A) (A) (A) (A) (A)
                 (A) (A) (A) (A) (A) (A) (A) (A) (A) (A) (A) (A)
                 (A) (A) (A) (A) (A) (A) (A) (A) (A) (A) (A) (A)
                 (A) (A) (A) (A) (A) (A) (A) (A) (A) (A) (A) (A)
                 (A) (A) (A) (A) (A) (A) (A) (A) (A) (A) (A) (A)
                 (A) (A) (A) (A) (A) (A) (A) (A) (A) (A) (A) (A)
                 (A) (A) (A) (A) (A) (A) (A) (A) (A) (A) (A) (A)
                 (A) (A) (A) (A) (A) (A) (A) (A) (A) (A) (A) (A)
                 (A) (A) (A) (A) (A) (A) (A) (A) (A) (A) (A) (A)
                 (A) (A) (A) (A) (A) (A) (A) (A) (A) (A) (A) (A)
                 (A) (A) (A) (A) (A) (A) (A) (A) (A) (A) (A) (A)
                 (A) (A) (A) (A) (A) (A) (A) (A) (A) (A) (A) (A)
                 (A) (A) (A) (A) (A) (A) (A) (A) (A) (A) (A) (A)
                 (A) (A) (A) (A) (A) (A) (A) (A) (A) (A) (A) (A)
                 (A) (A) (A) (A) (A) (A) (A) (A) (A) (A) (A) (A)
                 (A) (A) (A) (A) (A) (A) (A) (A) (A) (A) (A) (A)
                 (A) (A) (A) (A) (A) (A) (A) (A) (A) (A) (A) (A)
                 (A) (A) (A) (A) (A) (A) (A) (A) (A) (A) (A) (A)
                 (A) (A) (A) (A) (A) (A) (A) (A) (A) (A) (A) (A)
                 (A) (A) (A) (A) (A) (A) (A) (A) (A) (A) (A) (A)
                 (A) (A) (A) (A) (A) (A) (A) (A) (A) (A) (A) (A)
                 (A) (A) (A) (A) (A) (A) (A) (A) (A) (A) (A) (A)
                 (A) (A) (A) (A) (A) (A) (A) (A) (A) (A) (A) (A)
                 (A) (A) (A) (A) (A) (A) (A) (A) (A) (A) (A) (A)
                 (A) (A) (A) (A) (A) (A) (A) (A) (A) (A) (A) (A)
                 (A) (A) (A) (A) (A) (A) (A) (A) (A) (A) (A) (A)
                 (A) (A) (A) (A) (A) (A) (A) (A) (A) (A) (A) (A)
                 (A) (A) (A) (A) (A) (A) (A) (A) (A) (A) (A) (A)
                 (A) (A) (A) (A) (A) (A) (A) (A) (A) (A) (A) (A)
                 (A) (A) (A) (A) (A) (A) (A) (A) (A) (A) (A) (A)
                 (A) (A) (A) (A) (A) (A) (A) (A) (A) (A) (A) (A)
                 (A) (A) (A) (A) (A) (A) (A) (A) (A) (A) (A) (A)
                 (A) (A) (A) (A) (A) (A) (A) (A) (A) (A) (A) (A)
                 (A) (A) (A) (A) (A) (A) (A) (A) (A) (A) (A) (A)
                 (A) (A) (A) (A) (A) (A) (A) (A) (A) (A) (A) (A)
                 (A) (A) (A) (A) (A) (A) (A) (A) (A) (A) (A) (A)
                 (A) (A) (A) (A) (A) (A) (A) (A) (A) (A) (A) (A)
                 (A) (A) (A) (A) (A) (A) (A) (A) (A) (A) (A) (A)
                 (A) (A) (A) (A) (A) (A) (A) (A) (A) (A) (A) (A)
                 (A) (A) (A) (A) (A) (A) (A) (A) (A) (A) (A) (A)
                 (A) (A) (A) (A) (A) (A) (A) (A) (A) (A) (A) (A)
                 (A) (A) (A) (A) (A) (A) (A) (A) (A) (A) (A) (A)
                 (A) (A) (A) (A) (A) (A) (A) (A) (A) (A) (A) (A)
                 (A) (A) (A) (A) (A) (A) (A) (A) (A) (A) (A) (A)
                 (A) (A) (A) (A) (A) (A) (A) (A) (A) (A) (A) (A)
                 (A) (A) (A) (A) (A) (A) (A) (A) (A) (A) (A) (A)
                 (A) (A) (A) (A) (A) (A) (A) (A) (A) (A) (A) (A)
                 (A) (A) (A) (A) (A) (A) (A) (A) (A) (A) (A) (A)
                 (A) (A) (A) (A) (A) (A) (A) (A) (A) (A) (A) (A)
                 (A) (A) (A) (A) (A) (A) (A) (A) (A) (A) (A) (A)
                 (A) (A) (A) (A) (A) (A) (A) (A) (A) (A) (A) (A)
                 (A) (A) (A) (A) (A) (A) (A) (A) (A) (A) (A) (A)
                 (A) (A) (A) (A) (A) (A) (A) (A) (A) (A) (A) (A)
                 (A) (A) (A) (A) (A) (A) (A) (A) (A) (A) (A) (A)
                 (A) (A) (A) (A) (A) (A) (A) (A) (A) (A) (A) (A)
                 (A) (A) (A) (A) (A) (A) (A) (A) (A) (A) (A) (A)
                 (A) (A) (A) (A) (A) (A) (A) (A) (A) (A) (A) (A)
                 (A) (A) (A) (A) (A) (A) (A) (A) (A) (A) (A) (A)
                 (A) (A) (A) (A) (A) (A) (A) (A) (A) (A) (A) (A)
                 (A) (A) (A) (A) (A) (A) (A) (A) (A) (A) (A) (A)
                 (A) (A) (A) (A) (A) (A) (A) (A) (A) (A) (A) (A)
                 (A) (A) (A) (A) (A) (A) (A) (A) (A) (A) (A) (A)
                 (A) (A) (A) (A) (A) (A) (A) (A) (A) (A) (A) (A)
                 (A) (A) (A) (A) (A) (A) (A) (A) (A) (A) (A) (A)
                 (A) (A) (A) (A) (A) (A) (A) (A) (A) (A) (A) (A)
                 (A) (A) (A) (A) (A) (A) (A) (A) (A) (A) (A) (A)
                 (A) (A) (A) (A) (A) (A) (A) (A) (A) (A) (A) (A)
                 (A) (A) (A) (A) (A) (A) (A) (A) (A) (A) (A) (A)
                 (A) (A) (A) (A) (A) (A) (A) (A) (A) (A) (A) (A)
                 (A) (A) (A) (A) (A) (A) (A) (A) (A) (A) (A) (A)
                 (A) (A) (A) (A) (A) (A) (A) (A) (A) (A) (A) (A)
                 (A) (A) (A) (A) (A) (A) (A) (A) (A) (A) (A) (A)
                 (A) (A) (A) (A) (A) (A) (A) (A) (A) (A) (A) (A)
                 (A) (A) (A) (A) (A) (A) (A) (A) (A) (A) (A) (A)
                 (A) (A) (A) (A) (A) (A) (A) (A) (A) (A) (A) (A)
                 (A) (A) (A) (A) (A) (A) (A) (A) (A) (A) (A) (A)
                 (A) (A) (A) (A) (A) (A) (A) (A) (A) (A) (A) (A)
                 (A) (A) (A) (A) (A) (A) (A) (A) (A) (A) (A) (A)
                 (A) (A) (A) (A) (A) (A) (A) (A) (A) (A) (A) (A)
                 (A) (A) (A) (A) (A) (A) (A) (A) (A) (A) (A) (A)
                 (A) (A) (A) (A) (A) (A) (A) (A) (A) (A) (A) (A)
                 (A) (A) (A) (A) (A) (A) (A) (A) (A) (A) (A) (A)
                 (A) (A) (A) (A) (A) (A) (A) (A) (A) (A) (A) (A)
                 (A) (A) (A) (A) (A) (A) (A) (A) (A) (A) (A) (A)
                 (A) (A) (A) (A) (A) (A) (A) (A) (A) (A) (A) (A)
                 (A) (A) (A) (A) (A) (A) (A) (A) (A) (A) (A) (A)
                 (A) (A) (A) (A) (A) (A) (A) (A) (A) (A) (A) (A)
                 (A) (A) (A) (A) (A) (A) (A) (A) (A) (A) (A) (A)
                 (A) (A) (A) (A) (A) (A) (A) (A) (A) (A) (A) (A)
                 (A) (A) (A) (A) (A) (A) (A) (A) (A) (A) (A) (A)
                 (A) (A) (A) (A) (A) (A) (A) (A) (A) (A) (A) (A)
                 (A) (A) (A) (A) (A) (A) (A) (A) (A) (A) (A) (A)
                 (A) (A) (A) (A) (A) (A) (A) (A) (A) (A) (A) (A)
                 (A) (A) (A) (A) (A) (A) (A) (A) (A) (A) (A) (A)
                 (A) (A) (A) (A) (A) (A) (A) (A) (A) (A) (A) (A)
                 (A) (A) (A) (A) (A) (A) (A) (A) (A) (A) (A) (A)
                 (A) (A) (A) (A) (A) (A) (A) (A) (A) (A) (A) (A)
                 (A) (A) (A) (A) (A) (A) (A) (A) (A) (A) (A) (A)
                 (A) (A) (A) (A) (A) (A) (A) (A) (A) (A) (A) (A)
                 (A) (A) (A) (A) (A) (A) (A) (A) (A) (A) (A) (A)
                 (A) (A) (A) (A) (A) (A) (A) (A) (A) (A) (A) (A)
                 (A) (A) (A) (A) (A) (A) (A) (A) (A) (A) (A) (A)
                 (A) (A) (A) (A) (A) (A) (A) (A) (A) (A) (A) (A)
                 (A) (A) (A) (A) (A) (A) (A) (A) (A) (A) (A) (A)
                 (A) (A) (A) (A) (A) (A) (A) (A) (A) (A) (A) (A)
                 (A) (A) (A) (A) (A) (A) (A) (A) (A) (A) (A) (A)
                 (A) (A) (A) (A) (A) (A) (A) (A) (A) (A) (A) (A)
                 (A) (A) (A) (A) (A) (A) (A) (A) (A) (A) (A) (A)
                 (A) (A) (A) (A) (A) (A) (A) (A) (A) (A) (A) (A)
                 (A) (A) (A) (A) (A) (A) (A) (A) (A) (A) (A) (A)
                 (A) (A) (A) (A) (A) (A) (A) (A) (A) (A) (A) (A)
                 (A) (A) (A) (A) (A) (A) (A) (A) (A) (A) (A) (A)
                 (A) (A) (A) (A) (A) (A) (A) (A) (A) (A) (A) (A)
                 (A) (A) (A) (A) (A) (A) (A) (A) (A) (A) (A) (A)
                 (A) (A) (A) (A) (A) (A) (A) (A) (A) (A) (A) (A)
                 (A) (A) (A) (A) (A) (A) (A) (A) (A) (A) (A) (A)
                 (A) (A) (A) (A) (A) (A) (A) (A) (A) (A) (A) (A)
                 (A) (A) (A) (A) (A) (A) (A) (A) (A) (A) (A) (A)
                 (A) (A) (A) (A) (A) (A) (A) (A) (A) (A) (A) (A)
                 (A) (A) (A) (A) (A) (A) (A) (A) (A) (A) (A) (A)
                 (A) (A) (A) (A) (A) (A) (A) (A) (A) (A) (A) (A)
                 (A) (A) (A) (A) (A) (A) (A) (A) (A) (A) (A) (A)
                 (A) (A) (A) (A) (A) (A) (A) (A) (A) (A) (A) (A)
                 (A) (A) (A) (A) (A) (A) (A) (A) (A) (A) (A) (A)
                 (A) (A) (A) (A) (A) (A) (A) (A) (A) (A) (A) (A)
                 (A) (A) (A) (A) (A) (A) (A) (A) (A) (A) (A) (A)
                 (A) (A) (A) (A) (A) (A) (A) (A) (A) (A) (A) (A)
                 (A) (A) (A) (A) (A) (A) (A) (A) (A) (A) (A) (A)
                 (A) (A) (A) (A) (A) (A) (A) (A) (A) (A) (A) (A)
                 (A) (A) (A) (A) (A) (A) (A) (A) (A) (A) (A) (A)
                 (A) (A) (A) (A) (A) (A) (A) (A) (A) (A) (A) (A)
                 (A) (A) (A) (A) (A) (A) (A) (A) (A) (A) (A) (A)
                 (A) (A) (A) (A) (A) (A) (A) (A) (A) (A) (A) (A)
                 (A) (A) (A) (A) (A) (A) (A) (A) (A) (A) (A) (A)
                 (A) (A) (A) (A) (A) (A) (A) (A) (A) (A) (A) (A)
                 (A) (A) (A) (A) (A) (A) (A) (A) (A) (A) (A) (A)
                 (A) (A) (A) (A) (A) (A) (A) (A) (A) (A) (A) (A)
                 (A) (A) (A) (A) (A) (A) (A) (A) (A) (A) (A) (A)
                 (A) (A) (A) (A) (A) (A) (A) (A) (A) (A) (A) (A)
                 (A) (A) (A) (A) (A) (A) (A) (A) (A) (A) (A) (A)
                 (A) (A) (A) (A) (A) (A) (A) (A) (A) (A) (A) (A)
                 (A) (A) (A) (A) (A) (A) (A) (A) (A) (A) (A) (A)
                 (A) (A) (A) (A) (A) (A) (A) (A) (A) (A) (A) (A)
                 (A) (A) (A) (A) (A) (A) (A) (A) (A) (A) (A) (A)
                 (A) (A) (A) (A) (A) (A) (A) (A) (A) (A) (A) (A)
                 (A) (A) (A) (A) (A) (A) (A) (A) (A) (A) (A) (A)
                 (A) (A) (A) (A) (A) (A) (A) (A) (A) (A) (A) (A)
                 (A) (A) (A) (A) (A) (A) (A) (A) (A) (A) (A) (A)
                 (A) (A) (A) (A) (A) (A) (A) (A) (A) (A) (A) (A)
                 (A) (A) (A) (A) (A) (A) (A) (A) (A) (A) (A) (A)
                 (A) (A) (A) (A) (A) (A) (A) (A) (A) (A) (A) (A)
                 (A) (A) (A) (A) (A) (A) (A) (A) (A) (A) (A) (A)
                 (A) (A) (A) (A) (A) (A) (A) (A) (A) (A) (A) (A)
                 (A) (A) (A) (A) (A) (A) (A) (A) (A) (A) (A) (A)
                 (A) (A) (A) (A) (A) (A) (A) (A) (A) (A) (A) (A)
                 (A) (A) (A) (A) (A) (A) (A) (A) (A) (A) (A) (A)
                 (A) (A) (A) (A) (A) (A) (A) (A) (A) (A) (A) (A)
                 (A) (A) (A) (A) (A) (A) (A) (A) (A) (A) (A) (A)
                 (A) (A) (A) (A) (A) (A) (A) (A) (A) (A) (A) (A)
                 (A) (A) (A) (A) (A) (A) (A) (A) (A) (A) (A) (A)
                 (A) (A) (A) (A) (A) (A) (A) (A) (A) (A) (A) (A)
                 (A) (A) (A) (A) (A) (A) (A) (A) (A) (A) (A) (A)
                 (A) (A) (A) (A) (A) (A) (A) (A) (A) (A) (A) (A)
                 (A) (A) (A) (A) (A) (A) (A) (A) (A) (A) (A) (A)
                 (A) (A) (A) (A) (A) (A) (A) (A) (A) (A) (A) (A)
                 (A) (A) (A) (A) (A) (A) (A) (A) (A) (A) (A) (A)
                 (A) (A) (A) (A) (A) (A) (A) (A) (A) (A) (A) (A)
                 (A) (A) (A) (A) (A) (A) (A)
 The electronic state is 1-A.
 Alpha  occ. eigenvalues --  -25.27859 -25.27662 -25.21106 -25.21028 -19.69111
 Alpha  occ. eigenvalues --  -19.69060 -19.68785 -19.68777 -19.67170 -19.66839
 Alpha  occ. eigenvalues --  -19.66699 -19.64033 -19.64005 -19.63983 -19.63597
 Alpha  occ. eigenvalues --  -19.63319 -19.63266 -15.02467 -15.02326 -14.79774
 Alpha  occ. eigenvalues --  -14.79711 -10.68359 -10.64120 -10.63620 -10.63566
 Alpha  occ. eigenvalues --  -10.63271 -10.62394 -10.62194 -10.62037 -10.61948
 Alpha  occ. eigenvalues --  -10.61662 -10.61294 -10.60908 -10.60900 -10.60555
 Alpha  occ. eigenvalues --  -10.60109 -10.60030 -10.59770 -10.59513 -10.59306
 Alpha  occ. eigenvalues --  -10.58947 -10.58901 -10.58869 -10.58857 -10.58810
 Alpha  occ. eigenvalues --  -10.58771 -10.58692 -10.58634 -10.58619 -10.58519
 Alpha  occ. eigenvalues --  -10.58201 -10.58002 -10.57921 -10.57761 -10.57308
 Alpha  occ. eigenvalues --  -10.56764 -10.56391 -10.56295 -10.56256 -10.56222
 Alpha  occ. eigenvalues --  -10.56139 -10.56066 -10.56034 -10.55867 -10.55638
 Alpha  occ. eigenvalues --  -10.55529 -10.55189 -10.55163 -10.55026 -10.55000
 Alpha  occ. eigenvalues --   -7.14071  -1.39026  -1.38860  -1.38227  -1.37892
 Alpha  occ. eigenvalues --   -1.33086  -1.29829  -1.21171  -1.19974  -1.19808
 Alpha  occ. eigenvalues --   -1.19782  -1.19458  -1.16906  -1.16761  -1.15965
 Alpha  occ. eigenvalues --   -1.15866  -1.15369  -1.14514  -1.11956  -1.10093
 Alpha  occ. eigenvalues --   -1.03665  -0.97853  -0.97644  -0.96510  -0.95454
 Alpha  occ. eigenvalues --   -0.93211  -0.92771  -0.92672  -0.91437  -0.91169
 Alpha  occ. eigenvalues --   -0.88737  -0.88664  -0.88077  -0.87039  -0.86566
 Alpha  occ. eigenvalues --   -0.86172  -0.85942  -0.85068  -0.84574  -0.83445
 Alpha  occ. eigenvalues --   -0.82939  -0.82673  -0.81664  -0.81419  -0.80356
 Alpha  occ. eigenvalues --   -0.79674  -0.77955  -0.77729  -0.76960  -0.74708
 Alpha  occ. eigenvalues --   -0.73937  -0.73349  -0.73028  -0.72427  -0.72273
 Alpha  occ. eigenvalues --   -0.71401  -0.71075  -0.70574  -0.70169  -0.69924
 Alpha  occ. eigenvalues --   -0.68951  -0.68617  -0.68244  -0.68101  -0.67181
 Alpha  occ. eigenvalues --   -0.66779  -0.66543  -0.65545  -0.65125  -0.64295
 Alpha  occ. eigenvalues --   -0.63982  -0.63520  -0.63485  -0.62707  -0.62316
 Alpha  occ. eigenvalues --   -0.62266  -0.61861  -0.61689  -0.59866  -0.59808
 Alpha  occ. eigenvalues --   -0.59568  -0.59521  -0.59334  -0.59127  -0.59052
 Alpha  occ. eigenvalues --   -0.58871  -0.58761  -0.58508  -0.58388  -0.58054
 Alpha  occ. eigenvalues --   -0.57949  -0.57578  -0.57436  -0.57139  -0.56893
 Alpha  occ. eigenvalues --   -0.56488  -0.56085  -0.55895  -0.55440  -0.55365
 Alpha  occ. eigenvalues --   -0.55094  -0.54961  -0.54779  -0.54599  -0.54466
 Alpha  occ. eigenvalues --   -0.53967  -0.53227  -0.53094  -0.53061  -0.52844
 Alpha  occ. eigenvalues --   -0.52706  -0.52423  -0.52269  -0.52163  -0.52035
 Alpha  occ. eigenvalues --   -0.51988  -0.51863  -0.51193  -0.50770  -0.50492
 Alpha  occ. eigenvalues --   -0.50453  -0.50174  -0.49859  -0.49701  -0.49528
 Alpha  occ. eigenvalues --   -0.49122  -0.48894  -0.48758  -0.48565  -0.48483
 Alpha  occ. eigenvalues --   -0.48262  -0.48005  -0.47516  -0.47416  -0.47323
 Alpha  occ. eigenvalues --   -0.47152  -0.47068  -0.46858  -0.46593  -0.46436
 Alpha  occ. eigenvalues --   -0.45806  -0.45560  -0.45269  -0.45089  -0.44860
 Alpha  occ. eigenvalues --   -0.44752  -0.44590  -0.44055  -0.43756  -0.43600
 Alpha  occ. eigenvalues --   -0.43192  -0.42917  -0.42771  -0.42677  -0.42291
 Alpha  occ. eigenvalues --   -0.42277  -0.41964  -0.41638  -0.41116  -0.41105
 Alpha  occ. eigenvalues --   -0.40770  -0.40658  -0.40588  -0.40434  -0.40415
 Alpha  occ. eigenvalues --   -0.40064  -0.39757  -0.39676  -0.39365  -0.39166
 Alpha  occ. eigenvalues --   -0.38759  -0.38594  -0.37749  -0.37537  -0.36407
 Alpha  occ. eigenvalues --   -0.35898  -0.35420  -0.35096  -0.34821  -0.33851
 Alpha  occ. eigenvalues --   -0.33742  -0.32605  -0.32590  -0.32535  -0.32398
 Alpha  occ. eigenvalues --   -0.32270  -0.31774  -0.29918  -0.27327  -0.23458
 Alpha virt. eigenvalues --   -0.10982  -0.08652  -0.07049  -0.03815  -0.02522
 Alpha virt. eigenvalues --   -0.01550  -0.00737   0.00717   0.00866   0.01878
 Alpha virt. eigenvalues --    0.04444   0.05049   0.05602   0.05845   0.06857
 Alpha virt. eigenvalues --    0.06982   0.07054   0.07449   0.07941   0.07981
 Alpha virt. eigenvalues --    0.08229   0.08297   0.08371   0.08649   0.09038
 Alpha virt. eigenvalues --    0.09225   0.09311   0.09435   0.09553   0.09801
 Alpha virt. eigenvalues --    0.10043   0.10454   0.10679   0.10835   0.10860
 Alpha virt. eigenvalues --    0.11138   0.11201   0.11313   0.11656   0.11884
 Alpha virt. eigenvalues --    0.11960   0.12094   0.12153   0.12248   0.12486
 Alpha virt. eigenvalues --    0.12535   0.12662   0.12754   0.13030   0.13290
 Alpha virt. eigenvalues --    0.13307   0.13405   0.13581   0.13751   0.13889
 Alpha virt. eigenvalues --    0.13953   0.14181   0.14317   0.14613   0.14702
 Alpha virt. eigenvalues --    0.14753   0.14904   0.14986   0.15060   0.15321
 Alpha virt. eigenvalues --    0.15361   0.15423   0.15566   0.16155   0.16234
 Alpha virt. eigenvalues --    0.16339   0.16619   0.16729   0.16864   0.17007
 Alpha virt. eigenvalues --    0.17152   0.17285   0.17340   0.17589   0.17829
 Alpha virt. eigenvalues --    0.17998   0.18112   0.18217   0.18499   0.18659
 Alpha virt. eigenvalues --    0.18773   0.18901   0.18914   0.19411   0.19552
 Alpha virt. eigenvalues --    0.19664   0.19927   0.20020   0.20209   0.20364
 Alpha virt. eigenvalues --    0.20692   0.20748   0.21089   0.21157   0.21343
 Alpha virt. eigenvalues --    0.21552   0.21671   0.21905   0.21983   0.22137
 Alpha virt. eigenvalues --    0.22193   0.22552   0.22631   0.22852   0.23136
 Alpha virt. eigenvalues --    0.23181   0.23303   0.23460   0.23522   0.23625
 Alpha virt. eigenvalues --    0.23729   0.24020   0.24191   0.24228   0.24313
 Alpha virt. eigenvalues --    0.24624   0.24833   0.24920   0.25024   0.25308
 Alpha virt. eigenvalues --    0.25336   0.25417   0.25604   0.25820   0.25872
 Alpha virt. eigenvalues --    0.26061   0.26149   0.26370   0.26506   0.26693
 Alpha virt. eigenvalues --    0.26763   0.26895   0.26898   0.27004   0.27193
 Alpha virt. eigenvalues --    0.27433   0.27776   0.27917   0.27924   0.28078
 Alpha virt. eigenvalues --    0.28160   0.28328   0.28482   0.28597   0.28985
 Alpha virt. eigenvalues --    0.29072   0.29128   0.29531   0.29661   0.29769
 Alpha virt. eigenvalues --    0.29909   0.30241   0.30702   0.30928   0.30980
 Alpha virt. eigenvalues --    0.31374   0.31495   0.31641   0.31809   0.31859
 Alpha virt. eigenvalues --    0.31998   0.32185   0.32448   0.32520   0.32626
 Alpha virt. eigenvalues --    0.32788   0.33025   0.33157   0.33326   0.33427
 Alpha virt. eigenvalues --    0.33623   0.33935   0.34095   0.34117   0.34255
 Alpha virt. eigenvalues --    0.34433   0.34612   0.34720   0.34802   0.34978
 Alpha virt. eigenvalues --    0.35218   0.35387   0.35483   0.35568   0.35838
 Alpha virt. eigenvalues --    0.35982   0.36110   0.36165   0.36286   0.36402
 Alpha virt. eigenvalues --    0.36577   0.36673   0.36888   0.37089   0.37120
 Alpha virt. eigenvalues --    0.37246   0.37388   0.37677   0.37736   0.37871
 Alpha virt. eigenvalues --    0.37934   0.38000   0.38120   0.38241   0.38308
 Alpha virt. eigenvalues --    0.38441   0.38523   0.38774   0.38821   0.39101
 Alpha virt. eigenvalues --    0.39167   0.39371   0.39392   0.39519   0.39637
 Alpha virt. eigenvalues --    0.39794   0.39998   0.40064   0.40245   0.40347
 Alpha virt. eigenvalues --    0.40421   0.40686   0.40744   0.40863   0.41068
[...]
 Alpha virt. eigenvalues --    4.69324   4.69607   4.70043   4.70257   4.70919
 Alpha virt. eigenvalues --    4.71096   4.71275   4.71399   4.71539   4.71695
 Alpha virt. eigenvalues --    4.72271   4.72655   4.72880   4.73435   4.73717
 Alpha virt. eigenvalues --    4.73933   4.74296   4.74410   4.74784   4.74962
 Alpha virt. eigenvalues --    4.75321   4.75576   4.76026   4.76431   4.76902
 Alpha virt. eigenvalues --    4.77122   4.77541   4.77575   4.77753   4.78233
 Alpha virt. eigenvalues --    4.78457   4.78751   4.79226   4.79601   4.79981
 Alpha virt. eigenvalues --    4.80237   4.80750   4.80788   4.81148   4.81399
 Alpha virt. eigenvalues --    4.81523   4.81862   4.82174   4.82787   4.82958
 Alpha virt. eigenvalues --    4.83040   4.83442   4.83612   4.84273   4.85096
 Alpha virt. eigenvalues --    4.85352   4.85585   4.86002   4.86144   4.86555
 Alpha virt. eigenvalues --    4.87156   4.87317   4.87618   4.88134   4.88398
 Alpha virt. eigenvalues --    4.88823   4.89257   4.89317   4.89391   4.90012
 Alpha virt. eigenvalues --    4.90197   4.90457   4.91022   4.91228   4.91426
 Alpha virt. eigenvalues --    4.91877   4.92123   4.92245   4.92645   4.92971
 Alpha virt. eigenvalues --    4.93252   4.93789   4.93964   4.93991   4.94238
 Alpha virt. eigenvalues --    4.94582   4.94666   4.94929   4.95081   4.95321
 Alpha virt. eigenvalues --    4.95516   4.95802   4.96287   4.96487   4.96726
 Alpha virt. eigenvalues --    4.97309   4.97794   4.98236   4.98826   4.99138
 Alpha virt. eigenvalues --    4.99546   4.99569   4.99927   5.00334   5.00524
 Alpha virt. eigenvalues --    5.01035   5.01289   5.01414   5.02061   5.02338
 Alpha virt. eigenvalues --    5.02496   5.03489   5.03701   5.04659   5.05001
 Alpha virt. eigenvalues --    5.05188   5.05215   5.05761   5.06191   5.06488
 Alpha virt. eigenvalues --    5.06768   5.06882   5.07251   5.07948   5.08476
 Alpha virt. eigenvalues --    5.08884   5.09118   5.09371   5.09829   5.09869
 Alpha virt. eigenvalues --    5.09995   5.10034   5.10874   5.11010   5.11549
 Alpha virt. eigenvalues --    5.11921   5.12228   5.12395   5.12788   5.13021
 Alpha virt. eigenvalues --    5.13323   5.13451   5.14033   5.14503   5.14624
 Alpha virt. eigenvalues --    5.15191   5.15617   5.15973   5.16327   5.16380
 Alpha virt. eigenvalues --    5.16468   5.17235   5.17381   5.17482   5.17788
 Alpha virt. eigenvalues --    5.18173   5.18366   5.18402   5.19110   5.19385
 Alpha virt. eigenvalues --    5.19867   5.20289   5.20689   5.20940   5.21343
 Alpha virt. eigenvalues --    5.21773   5.22598   5.22712   5.22897   5.23360
 Alpha virt. eigenvalues --    5.23411   5.23752   5.24241   5.24298   5.24672
 Alpha virt. eigenvalues --    5.25065   5.25853   5.25964   5.26164   5.26518
 Alpha virt. eigenvalues --    5.26655   5.26976   5.27096   5.27423   5.27664
 Alpha virt. eigenvalues --    5.27717   5.28524   5.28647   5.28806   5.29242
 Alpha virt. eigenvalues --    5.29513   5.29805   5.29991   5.30085   5.30235
 Alpha virt. eigenvalues --    5.30866   5.31541   5.31867   5.32145   5.32191
 Alpha virt. eigenvalues --    5.32433   5.32674   5.32868   5.33527   5.33838
 Alpha virt. eigenvalues --    5.34233   5.34389   5.35218   5.35428   5.35710
 Alpha virt. eigenvalues --    5.36000   5.36764   5.37104   5.37254   5.37529
 Alpha virt. eigenvalues --    5.37895   5.38284   5.38386   5.38605   5.38945
 Alpha virt. eigenvalues --    5.39061   5.39356   5.39702   5.40048   5.40091
 Alpha virt. eigenvalues --    5.40196   5.40616   5.41162   5.41445   5.41644
 Alpha virt. eigenvalues --    5.42214   5.42792   5.43074   5.43289   5.43809
 Alpha virt. eigenvalues --    5.44459   5.44869   5.44934   5.45666   5.45725
 Alpha virt. eigenvalues --    5.46289   5.46407   5.46815   5.47176   5.47254
 Alpha virt. eigenvalues --    5.47961   5.48880   5.49038   5.50145   5.50541
 Alpha virt. eigenvalues --    5.50800   5.51105   5.51548   5.51838   5.52763
 Alpha virt. eigenvalues --    5.53197   5.53397   5.53774   5.55985   5.56346
 Alpha virt. eigenvalues --    5.56636   5.56918   5.57452   5.57586   5.57662
 Alpha virt. eigenvalues --    5.57907   5.58353   5.58775   5.58976   5.59035
 Alpha virt. eigenvalues --    5.59192   5.59483   5.59639   5.59964   5.60150
 Alpha virt. eigenvalues --    5.60321   5.60547   5.61070   5.61610   5.61912
 Alpha virt. eigenvalues --    5.62326   5.62590   5.62675   5.63194   5.63430
 Alpha virt. eigenvalues --    5.63832   5.64204   5.64624   5.64804   5.65306
 Alpha virt. eigenvalues --    5.65497   5.65777   5.66190   5.66466   5.66833
 Alpha virt. eigenvalues --    5.67258   5.67432   5.67562   5.67857   5.68668
 Alpha virt. eigenvalues --    5.68899   5.69170   5.70084   5.70588   5.71183
 Alpha virt. eigenvalues --    5.73248   5.74376   5.75710   5.76412   5.79462
 Alpha virt. eigenvalues --    5.80199   5.82959   5.83703   5.84336   5.84743
 Alpha virt. eigenvalues --    5.85235   5.86140   5.86403   5.86874   5.88275
 Alpha virt. eigenvalues --    5.89755   5.89932   5.89963   5.91319   5.91766
 Alpha virt. eigenvalues --    5.91961   5.92868   5.93649   5.94696   5.95698
 Alpha virt. eigenvalues --    5.96272   5.97983   5.98208   5.99542   6.00809
 Alpha virt. eigenvalues --    6.01767   6.03033   6.03391   6.03641   6.04651
 Alpha virt. eigenvalues --    6.05885   6.06390   6.06557   6.06784   6.07364
 Alpha virt. eigenvalues --    6.09660   6.10391   6.11111   6.15620   6.16312
 Alpha virt. eigenvalues --    6.17983   6.21624   6.22461   6.22520   6.23917
 Alpha virt. eigenvalues --    6.24450   6.25193   6.26210   6.26305   6.26604
 Alpha virt. eigenvalues --    6.26679   6.27458   6.27819   6.28386   6.28673
 Alpha virt. eigenvalues --    6.29604   6.30251   6.32320   6.32685   6.32861
 Alpha virt. eigenvalues --    6.34967   6.35657   6.36474   6.37148   6.39709
 Alpha virt. eigenvalues --    6.40105   6.40480   6.41223   6.42974   6.44491
 Alpha virt. eigenvalues --    6.44930   6.45702   6.46562   6.49147   6.50578
 Alpha virt. eigenvalues --    6.63733   6.68455   6.69833   6.70535   6.72058
 Alpha virt. eigenvalues --    6.72463   6.73761   6.75198   6.75239   6.75934
 Alpha virt. eigenvalues --    6.76035   6.76713   6.76824   6.80403   6.81359
 Alpha virt. eigenvalues --    6.82768   6.82797   6.82840   6.83520   6.83832
 Alpha virt. eigenvalues --    6.84475   6.84501   6.85192   6.85375   6.86536
 Alpha virt. eigenvalues --    6.87129   6.87472   6.89292   6.89500   6.89574
 Alpha virt. eigenvalues --    6.91167   6.91626   6.93832   6.94377   6.96789
 Alpha virt. eigenvalues --    6.96965   6.97900   6.98528   6.98639   6.99040
 Alpha virt. eigenvalues --    6.99096   7.00143   7.00361   7.00590   7.01200
 Alpha virt. eigenvalues --    7.02472   7.04157   7.04829   7.06567   7.06719
 Alpha virt. eigenvalues --    7.07311   7.08020   7.08144   7.08539   7.10103
 Alpha virt. eigenvalues --    7.10794   7.17138   7.20445   7.22130   7.22179
 Alpha virt. eigenvalues --    7.24001   7.26220   7.26503   7.26887   7.27114
 Alpha virt. eigenvalues --    7.27277   7.27414   7.28182   7.28332   7.29885
 Alpha virt. eigenvalues --    7.30101   7.30202   7.31400   7.32563   7.33349
 Alpha virt. eigenvalues --    7.33558   7.34210   7.34321   7.35971   7.36575
 Alpha virt. eigenvalues --    7.38076   7.38750   7.39290   7.41870   7.45174
 Alpha virt. eigenvalues --    7.46294   7.46736   7.47238   7.47605   7.50195
 Alpha virt. eigenvalues --    7.62288   7.62656   8.34828   8.35101   8.45905
 Alpha virt. eigenvalues --    8.48794   8.51359   8.53470   8.56962   8.59984
 Alpha virt. eigenvalues --    8.75574   8.75790   8.82056   8.86923   8.90124
 Alpha virt. eigenvalues --    8.91660   8.93563   8.98096   8.99853   9.00507
 Alpha virt. eigenvalues --    9.02250   9.03801  15.86931  22.79058  22.81912
 Alpha virt. eigenvalues --   22.85489  22.92115  22.93526  23.07859  23.10915
 Alpha virt. eigenvalues --   23.12287  23.13087  23.16136  23.16658  23.18140
 Alpha virt. eigenvalues --   23.20160  23.24466  23.26671  23.27454  23.29104
 Alpha virt. eigenvalues --   23.29809  23.30352  23.31959  23.32017  23.32773
 Alpha virt. eigenvalues --   23.34139  23.34194  23.35989  23.36501  23.37795
 Alpha virt. eigenvalues --   23.39395  23.40584  23.42093  23.43357  23.43633
 Alpha virt. eigenvalues --   23.43795  23.45177  23.46011  23.47710  23.48897
 Alpha virt. eigenvalues --   23.50433  23.51163  23.57174  23.57934  23.58002
 Alpha virt. eigenvalues --   23.66327  23.72922  23.83054  23.89772  23.98918
 Alpha virt. eigenvalues --   24.09670  24.09858  32.58770  32.62409  33.15978
 Alpha virt. eigenvalues --   33.26875  44.17349  44.21005  44.23786  44.26481
 Alpha virt. eigenvalues --   44.26524  44.29745  44.31641  44.38883  44.40424
 Alpha virt. eigenvalues --   44.45407  44.50335  44.61351  44.61980  57.34031
 Alpha virt. eigenvalues --   57.57073  57.58290  57.59795
          Condensed to atoms (all electrons):
 Mulliken charges:
               1
     1  B    0.329935
     2  N   -0.097954
     3  C   -0.061253
     4  C    0.289772
     5  C   -0.050430
     6  C    0.123173
     7  C    0.191794
     8  C   -0.113629
     9  O   -0.273683
    10  C   -0.470460
    11  C    0.129952
    12  C   -0.013709
    13  N    0.483984
    14  O   -0.333498
    15  O   -0.336587
    16  C   -0.000810
    17  C   -0.047691
    18  C   -0.061206
    19  C   -0.109853
    20  N    0.499515
    21  O   -0.357586
    22  O   -0.355761
    23  C    0.129847
    24  N   -0.078753
    25  C   -0.042584
    26  C    0.293616
    27  C    0.002839
    28  C   -0.459801
    29  F   -0.216515
    30  C   -0.100621
    31  C   -0.082134
    32  C   -0.012733
    33  C   -0.118936
    34  C   -0.199284
    35  C    0.233065
    36  O   -0.299787
    37  C   -0.117494
    38  C   -0.106914
    39  O   -0.338054
    40  C   -0.040896
    41  C   -0.107994
    42  O   -0.342451
    43  C   -0.079706
    44  C   -0.079725
    45  O   -0.351895
    46  C   -0.198203
    47  C   -0.157944
    48  C   -0.188586
    49  C   -0.410324
    50  F   -0.213593
    51  C   -0.078145
    52  C   -0.062233
    53  C   -0.003816
    54  C   -0.117952
    55  C   -0.195028
    56  C    0.237630
    57  O   -0.291281
    58  C   -0.143454
    59  C   -0.103046
    60  O   -0.351251
    61  C   -0.075425
    62  C   -0.106090
    63  O   -0.350841
    64  C   -0.038041
    65  C   -0.078549
    66  O   -0.354811
    67  C   -0.196303
    68  C   -0.163881
    69  C   -0.200563
    70  F   -0.323615
    71  F   -0.356691
    72  H    0.262152
    73  H    0.200861
    74  H    0.209682
    75  H    0.203465
    76  H    0.175195
    77  H    0.174456
    78  H    0.141299
    79  H    0.164063
    80  H    0.135907
    81  H    0.124979
    82  H    0.146614
    83  H    0.160586
    84  H    0.148343
    85  H    0.160308
    86  H    0.131355
    87  H    0.150689
    88  H    0.122375
    89  H    0.119059
    90  H    0.130528
    91  H    0.121742
    92  H    0.124137
    93  H    0.137156
    94  H    0.126623
    95  H    0.123367
    96  H    0.118154
    97  H    0.121929
    98  H    0.136521
    99  H    0.153427
   100  H    0.150970
   101  H    0.178333
   102  H    0.144915
   103  H    0.137308
   104  H    0.098331
   105  H    0.129678
   106  H    0.146565
   107  H    0.158978
   108  H    0.158736
   109  H    0.160960
   110  H    0.159240
   111  H    0.144717
   112  H    0.128591
   113  H    0.136480
   114  H    0.130116
   115  H    0.126188
   116  H    0.118849
   117  H    0.114353
   118  H    0.127930
   119  H    0.116261
   120  H    0.119951
   121  H    0.121173
   122  H    0.137610
   123  H    0.147489
   124  H    0.156237
 Sum of Mulliken charges =  -0.00000
 Mulliken charges with hydrogens summed into heavy atoms:
               1
     1  B    0.329935
     2  N   -0.097954
     3  C   -0.061253
     4  C    0.289772
     5  C   -0.050430
     6  C    0.123173
     7  C    0.191794
     8  C   -0.113629
     9  O   -0.273683
    10  C   -0.007447
    11  C    0.129952
    12  C   -0.013709
    13  N    0.483984
    14  O   -0.333498
    15  O   -0.336587
    16  C    0.208872
    17  C   -0.047691
    18  C    0.142259
    19  C    0.065342
    20  N    0.499515
    21  O   -0.357586
    22  O   -0.355761
    23  C    0.129847
    24  N   -0.078753
    25  C   -0.042584
    26  C    0.293616
    27  C    0.002839
    28  C    0.020016
    29  F   -0.216515
    30  C    0.035286
    31  C    0.042845
    32  C   -0.012733
    33  C    0.027678
    34  C   -0.038697
    35  C    0.233065
    36  O   -0.299787
    37  C    0.191157
    38  C    0.175130
    39  O   -0.338054
    40  C    0.200538
    41  C    0.144276
    42  O   -0.342451
    43  C    0.181587
    44  C    0.170265
    45  O   -0.351895
    46  C    0.178401
    47  C   -0.004518
    48  C   -0.037616
    49  C    0.050232
    50  F   -0.213593
    51  C    0.020186
    52  C    0.067445
    53  C   -0.003816
    54  C    0.028614
    55  C   -0.036050
    56  C    0.237630
    57  O   -0.291281
    58  C    0.176242
    59  C    0.200910
    60  O   -0.351251
    61  C    0.189646
    62  C    0.150214
    63  O   -0.350841
    64  C    0.195161
    65  C    0.165642
    66  O   -0.354811
    67  C    0.182431
    68  C   -0.016391
    69  C   -0.044325
    70  F   -0.323615
    71  F   -0.356691
 Electronic spatial extent (au):  <R**2>=         143582.7130
 Charge=             -0.0000 electrons
 Dipole moment (field-independent basis, Debye):
    X=             -5.5015    Y=              0.5201    Z=             -5.2905  Tot=              7.6503
 Quadrupole moment (field-independent basis, Debye-Ang):
   XX=           -495.2328   YY=           -294.0928   ZZ=           -421.1432
   XY=             14.8802   XZ=            -49.8359   YZ=             -7.2144
 Traceless Quadrupole moment (field-independent basis, Debye-Ang):
   XX=            -91.7432   YY=            109.3968   ZZ=            -17.6536
   XY=             14.8802   XZ=            -49.8359   YZ=             -7.2144
 Octapole moment (field-independent basis, Debye-Ang**2):
  XXX=          -1161.9300  YYY=             39.8102  ZZZ=             23.6715  XYY=          -1053.3883
  XXY=           -758.6246  XXZ=           -234.9071  XZZ=           -160.6156  YZZ=            -30.7478
  YYZ=             -0.6917  XYZ=             46.7264
 Hexadecapole moment (field-independent basis, Debye-Ang**3):
 XXXX=        -160712.2926 YYYY=         -44333.3993 ZZZZ=          -2756.8012 XXXY=             -6.3836
 XXXZ=          -6665.9494 YYYX=          -1249.0218 YYYZ=             32.7384 ZZZX=           -370.9334
 ZZZY=           -134.8179 XXYY=         -27259.8199 XXZZ=         -21853.1255 YYZZ=          -9510.4657
 XXYZ=           -276.1476 YYXZ=           -461.6104 ZZXY=            819.1967
 N-N= 9.979009166959D+03 E-N=-2.818850798635D+04  KE= 3.501862816284D+03
 Leave Link  601 at Thu Nov  6 01:20:10 2025, MaxMem= 30870077440 cpu:             145.9 elap:               2.8
 (Enter /public/software/gauss/g16/l9999.exe)
 1\1\GINC-CU161\SP\RM062X\def2TZVPP\C49H53B1F4N4O13\BAIDING\06-Nov-2025
 \0\\#p M062X/DEF2TZVPP scrf=(solvent=water) em=GD3\\Energy calculation
  for BE_F\\0,1\B,0,2.487605,-0.527936,-0.137066\N,0,3.163192,0.817227,
 0.237648\C,0,2.586704,2.061744,0.25496\C,0,3.623082,2.97128,0.578856\C
 ,0,4.829705,2.335427,0.749933\C,0,4.53019,0.952497,0.515426\C,0,5.3714
 77,-0.172916,0.544026\C,0,6.865719,0.055692,0.686489\O,0,7.396387,0.13
 4893,1.779524\C,0,7.635864,0.178093,-0.628585\C,0,8.896882,1.003902,-0
 .556276\C,0,10.004178,0.740199,0.273563\N,0,10.09831,-0.485292,1.07381
 3\O,0,9.648971,-1.526648,0.59461\O,0,10.660737,-0.418472,2.16703\C,0,1
 1.101704,1.588939,0.361864\C,0,11.111279,2.724422,-0.435803\C,0,10.056
 25,3.030104,-1.291511\C,0,8.962293,2.173712,-1.329233\N,0,12.267042,3.
 618145,-0.370345\O,0,13.188241,3.32668,0.396038\O,0,12.264635,4.622951
 ,-1.085082\C,0,4.867494,-1.471318,0.401763\N,0,3.508568,-1.660681,0.15
 0789\C,0,3.243285,-3.000152,0.078928\C,0,4.48073,-3.657837,0.307926\C,
 0,5.498563,-2.757521,0.515295\C,0,6.90836,-3.131838,0.841499\F,0,4.624
 947,-4.996145,0.351699\C,0,1.943628,-3.548908,-0.170695\C,0,1.697151,-
 4.876871,-0.343556\C,0,0.406229,-5.488896,-0.604789\C,0,0.337397,-6.89
 3448,-0.741641\C,0,-0.861933,-7.538706,-0.995911\C,0,-2.046177,-6.7955
 83,-1.125294\O,0,-3.1699,-7.527772,-1.393312\C,0,-4.438892,-6.873399,-
 1.566776\C,0,-5.111624,-6.610578,-0.216701\O,0,-6.384002,-5.994839,-0.
 388496\C,0,-7.450773,-6.91283,-0.645352\C,0,-8.748938,-6.130448,-0.724
 785\O,0,-9.075088,-5.467376,0.499478\C,0,-9.777917,-6.276379,1.448686\
 C,0,-11.281178,-6.294897,1.197195\O,0,-11.885035,-5.002405,1.238687\C,
 0,-12.076668,-4.502489,2.557962\C,0,-2.006853,-5.397723,-0.990936\C,0,
 -0.796558,-4.764303,-0.736274\C,0,6.098678,3.017598,1.154439\F,0,3.416
 893,4.294261,0.711172\C,0,1.252461,2.511683,-0.017395\C,0,0.125523,1.8
 05201,-0.30304\C,0,-1.183091,2.371973,-0.589591\C,0,-2.260168,1.49061,
 -0.834898\C,0,-3.534745,1.959505,-1.109073\C,0,-3.782814,3.340978,-1.1
 5094\O,0,-5.068494,3.696689,-1.448881\C,0,-5.453403,5.084275,-1.46283\
 C,0,-5.732651,5.621204,-0.066236\O,0,-6.776236,4.896691,0.589713\C,0,-
 8.097689,5.374192,0.317037\C,0,-8.499097,6.426323,1.354152\O,0,-9.8524
 61,6.851244,1.20244\C,0,-10.057724,7.812526,0.166929\C,0,-11.494933,8.
 310649,0.306192\O,0,-11.855809,9.216265,-0.73166\C,0,-11.392549,10.547
 59,-0.517434\C,0,-2.729958,4.240141,-0.911013\C,0,-1.456482,3.754617,-
 0.637987\F,0,2.113459,-0.533188,-1.484423\F,0,1.350816,-0.734895,0.662
 028\H,0,7.85122,-0.849324,-0.946437\H,0,6.96976,0.601926,-1.382798\H,0
 ,11.929529,1.357265,1.01756\H,0,10.086958,3.920973,-1.905269\H,0,8.126
 183,2.417253,-1.974984\H,0,7.279339,-2.595728,1.7178\H,0,6.959356,-4.2
 03318,1.048933\H,0,7.588065,-2.923559,0.010104\H,0,1.127547,-2.837388,
 -0.208701\H,0,2.528497,-5.573332,-0.290659\H,0,1.24771,-7.4788,-0.6466
 91\H,0,-0.906114,-8.617595,-1.103084\H,0,-4.328698,-5.946649,-2.137569
 \H,0,-5.030451,-7.572227,-2.161816\H,0,-5.20092,-7.55243,0.341024\H,0,
 -4.506868,-5.919831,0.37839\H,0,-7.304465,-7.441892,-1.597448\H,0,-7.4
 92832,-7.667186,0.153643\H,0,-8.653122,-5.345745,-1.482479\H,0,-9.5523
 27,-6.807142,-1.042195\H,0,-9.406843,-7.309895,1.448235\H,0,-9.556261,
 -5.850564,2.432131\H,0,-11.489157,-6.688277,0.196622\H,0,-11.755408,-6
 .967606,1.928202\H,0,-12.677215,-5.195968,3.163684\H,0,-11.128872,-4.3
 15377,3.079061\H,0,-12.614162,-3.555358,2.465295\H,0,-2.906166,-4.8009
 87,-1.079565\H,0,-0.793087,-3.683431,-0.639483\H,0,6.488863,2.620679,2
 .095492\H,0,6.884754,2.919101,0.400546\H,0,5.903828,4.08404,1.2893\H,0
 ,1.186037,3.595648,0.023079\H,0,0.162184,0.723072,-0.311234\H,0,-2.081
 979,0.419243,-0.80655\H,0,-4.355188,1.274481,-1.296565\H,0,-4.697689,5
 .695832,-1.966297\H,0,-6.362634,5.106498,-2.068368\H,0,-4.846465,5.523
 148,0.567352\H,0,-5.972181,6.689481,-0.144986\H,0,-8.169976,5.772228,-
 0.701899\H,0,-8.772118,4.514866,0.390203\H,0,-8.423931,5.984685,2.3528
 73\H,0,-7.818922,7.288717,1.310442\H,0,-9.340134,8.637895,0.273968\H,0
 ,-9.919975,7.369978,-0.828871\H,0,-12.177549,7.458184,0.227978\H,0,-11
 .63706,8.771867,1.293847\H,0,-11.762711,10.947661,0.436698\H,0,-10.297
 549,10.616598,-0.525056\H,0,-11.786736,11.156757,-1.334623\H,0,-2.8915
 97,5.310635,-0.933503\H,0,-0.66294,4.473066,-0.459737\\Version=ES64L-G
 16RevA.03\State=1-A\HF=-3520.1565382\RMSD=2.126e-09\Dipole=-2.1644757,
 0.204604,-2.0814576\Quadrupole=-68.2088433,81.3338501,-13.1250068,11.0
 630937,-37.051757,-5.3637067\PG=C01 [X(C49H53B1F4N4O13)]\\@


 AN OPTIMIST IS A GUY
 THAT HAS NEVER HAD
 MUCH EXPERIENCE
   (CERTAIN MAXIMS OF ARCHY  -- DON MARQUIS)
 Job cpu time:       1 days 12 hours 14 minutes 11.2 seconds.
 Elapsed time:       0 days  0 hours 34 minutes 42.6 seconds.
 File lengths (MBytes):  RWF=   5741 Int=      0 D2E=      0 Chk=    501 Scr=      1
 Normal termination of Gaussian 16 at Thu Nov  6 01:20:12 2025.
