 Entering Gaussian System, Link 0=g16
 Input=BE_F_reduced_sp.gjf
 Output=BE_F_reduced_sp.log
 Initial command:
 /public/software/gauss/g16/l1.exe "/public/home/baiding/1105_BE_sp/tmp_BE_F_reduced_sp_1568733/Gau-1934931.inp" -scrdir="/public/home/baiding/1105_BE_sp/tmp_BE_F_reduced_sp_1568733/"
 Entering Link 1 = /public/software/gauss/g16/l1.exe PID=   1934932.
  
 Copyright (c) 1988,1990,1992,1993,1995,1998,2003,2009,2016,
            Gaussian, Inc.  All Rights Reserved.
  
 This is part of the Gaussian(R) 16 program.  It is based on
 the Gaussian(R) 09 system (copyright 2009, Gaussian, Inc.),
 the Gaussian(R) 03 system (copyright 2003, Gaussian, Inc.),
 the Gaussian(R) 98 system (copyright 1998, Gaussian, Inc.),
 the Gaussian(R) 94 system (copyright 1995, Gaussian, Inc.),
 the Gaussian 92(TM) system (copyright 1992, Gaussian, Inc.),
 the Gaussian 90(TM) system (copyright 1990, Gaussian, Inc.),
 the Gaussian 88(TM) system (copyright 1988, Gaussian, Inc.),
 the Gaussian 86(TM) system (copyright 1986, Carnegie Mellon
 University), and the Gaussian 82(TM) system (copyright 1983,
 Carnegie Mellon University). Gaussian is a federally registered
 trademark of Gaussian, Inc.
  
 This software contains proprietary and confidential information,
 including trade secrets, belonging to Gaussian, Inc.
  
 This software is provided under written license and may be
 used, copied, transmitted, or stored only in accord with that
 written license.
  
 The following legend is applicable only to US Government
 contracts under FAR:
  
                    RESTRICTED RIGHTS LEGEND
  
 Use, reproduction and disclosure by the US Government is
 subject to restrictions as set forth in subparagraphs (a)
 and (c) of the Commercial Computer Software - Restricted
 Rights clause in FAR 52.227-19.
  
 Gaussian, Inc.
 340 Quinnipiac St., Bldg. 40, Wallingford CT 06492
  
  
 ---------------------------------------------------------------
 Warning -- This program may not be used in any manner that
 competes with the business of Gaussian, Inc. or will provide
 assistance to any competitor of Gaussian, Inc.  The licensee
 of this program is prohibited from giving any competitor of
 Gaussian, Inc. access to this program.  By using this program,
 the user acknowledges that Gaussian, Inc. is engaged in the
 business of creating and licensing software in the field of
 computational chemistry and represents and warrants to the
 licensee that it is not a competitor of Gaussian, Inc. and that
 it will not use this program in any manner prohibited above.
 ---------------------------------------------------------------
  

 Cite this work as:
 Gaussian 16, Revision A.03,
 M. J. Frisch, G. W. Trucks, H. B. Schlegel, G. E. Scuseria, 
 M. A. Robb, J. R. Cheeseman, G. Scalmani, V. Barone, 
 G. A. Petersson, H. Nakatsuji, X. Li, M. Caricato, A. V. Marenich, 
 J. Bloino, B. G. Janesko, R. Gomperts, B. Mennucci, H. P. Hratchian, 
 J. V. Ortiz, A. F. Izmaylov, J. L. Sonnenberg, D. Williams-Young, 
 F. Ding, F. Lipparini, F. Egidi, J. Goings, B. Peng, A. Petrone, 
 T. Henderson, D. Ranasinghe, V. G. Zakrzewski, J. Gao, N. Rega, 
 G. Zheng, W. Liang, M. Hada, M. Ehara, K. Toyota, R. Fukuda, 
 J. Hasegawa, M. Ishida, T. Nakajima, Y. Honda, O. Kitao, H. Nakai, 
 T. Vreven, K. Throssell, J. A. Montgomery, Jr., J. E. Peralta, 
 F. Ogliaro, M. J. Bearpark, J. J. Heyd, E. N. Brothers, K. N. Kudin, 
 V. N. Staroverov, T. A. Keith, R. Kobayashi, J. Normand, 
 K. Raghavachari, A. P. Rendell, J. C. Burant, S. S. Iyengar, 
 J. Tomasi, M. Cossi, J. M. Millam, M. Klene, C. Adamo, R. Cammi, 
 J. W. Ochterski, R. L. Martin, K. Morokuma, O. Farkas, 
 J. B. Foresman, and D. J. Fox, Gaussian, Inc., Wallingford CT, 2016.
 
 ******************************************
 Gaussian 16:  ES64L-G16RevA.03 25-Dec-2016
                 5-Nov-2025 
 ******************************************
 %nprocshared=64
 Will use up to   64 processors via shared memory.
 %mem=230GB
 %chk=BE_F_reduced_sp.chk
 ----------------------------------------------
 #p M062X/DEF2TZVPP scrf=(solvent=water) em=GD3
 ----------------------------------------------
 1/38=1,172=1/1;
 2/12=2,17=6,18=5,40=1/2;
 3/5=44,7=202,11=2,25=1,30=1,70=2201,72=1,74=-55,124=31/1,2,3;
 4//1;
 5/5=2,38=5,53=1/2;
 6/7=2,8=2,9=2,10=2,28=1/1;
 99/5=1,9=1/99;
 Leave Link    1 at Wed Nov  5 23:29:09 2025, MaxMem= 30870077440 cpu:              16.0 elap:               0.3
 (Enter /public/software/gauss/g16/l101.exe)
 -----------------------------------
 Energy calculation for BE_F_reduced
 -----------------------------------
 Symbolic Z-matrix:
 Charge = -1 Multiplicity = 2
 B                     2.78403   0.03207  -1.16616 
 N                     3.22275   1.44901  -1.61215 
 C                     2.41577   2.50587  -2.01404 
 C                     3.29673   3.49723  -2.46879 
 C                     4.62618   3.12203  -2.31669 
 C                     4.55434   1.81953  -1.75641 
 C                     5.59499   0.88303  -1.39317 
 C                     6.75492   1.3861   -0.67605 
 O                     6.98218   2.60546  -0.53157 
 C                     7.68941   0.41865   0.06879 
 C                     8.28062   1.02428   1.32071 
 C                     7.54251   1.57144   2.3927 
 N                     6.07571   1.57655   2.39778 
 O                     5.47862   0.73069   1.72684 
 O                     5.50098   2.42096   3.09145 
 C                     8.14345   2.13143   3.51512 
 C                     9.52911   2.12826   3.5845 
 C                     10.3129   1.60108   2.56048 
 C                     9.6776    1.06773   1.44609 
 N                     10.175    2.69614   4.76529 
 O                     9.4603    3.14955   5.66306 
 O                     11.40791   2.69594   4.81027 
 C                     5.28529  -0.51629  -1.51815 
 N                     3.96288  -0.92686  -1.47228 
 C                     3.89678  -2.30043  -1.66451 
 C                     5.22257  -2.71055  -1.87691 
 C                     6.10731  -1.64291  -1.81189 
 C                     7.55524  -1.72966  -2.19116 
 F                     5.59095  -3.97716  -2.18093 
 C                     2.68868  -3.07488  -1.61685 
 C                     2.63015  -4.43262  -1.69568 
 C                     1.42519  -5.25226  -1.64782 
 C                     1.55153  -6.65513  -1.75274 
 C                     0.44669  -7.49338  -1.70947 
 C                    -0.83932  -6.95538  -1.55664 
 O                    -1.86408  -7.87116  -1.53853 
 C                    -3.22122  -7.42913  -1.3786 
 C                    -3.55993  -7.19972   0.09721 
 O                    -4.92179  -6.81363   0.25814 
 C                    -5.83777  -7.91052   0.31622 
 C                    -7.23164  -7.3626    0.56199 
 O                    -7.34969  -6.67772   1.81174 
 C                    -7.60892  -7.52368   2.93658 
 C                    -9.08946  -7.85249   3.09448 
 O                    -9.92994  -6.70543   3.21191 
 C                    -9.84109  -6.05225   4.47374 
 C                    -0.99591  -5.5657   -1.4479 
 C                     0.12182  -4.73721  -1.49509 
 C                     5.79381   3.92145  -2.81089 
 F                     2.88493   4.67622  -2.98969 
 C                     0.99747   2.70414  -1.91114 
 C                     0.06506   1.99013  -1.22716 
 C                    -1.36178   2.28986  -1.15199 
 C                    -2.18308   1.48488  -0.33175 
 C                    -3.54563   1.71655  -0.20873 
 C                    -4.14785   2.77107  -0.91045 
 O                    -5.50474   2.89705  -0.73779 
 C                    -6.20732   3.99514  -1.34361 
 C                    -6.06205   5.28727  -0.5518 
 O                    -6.54538   5.15645   0.78807 
 C                    -7.9526    5.36916   0.93734 
 C                    -8.23299   6.8431    1.24227 
 O                    -9.61571   7.08838   1.49576 
 C                    -10.41346   7.23097   0.32036 
 C                    -11.81142   7.63696   0.78244 
 O                    -12.73412   7.72584  -0.29796 
 C                    -12.62919   8.93548  -1.04503 
 C                    -3.35776   3.58723  -1.73357 
 C                    -1.99178   3.34112  -1.84806 
 F                     1.66255  -0.36791  -1.91155 
 F                     2.45782   0.0088    0.20399 
 H                     7.17441  -0.51066   0.31626 
 H                     8.52215   0.16566  -0.59167 
 H                     7.54421   2.5461    4.31314 
 H                     11.3927   1.61406   2.63399 
 H                     10.28108   0.67036   0.63763 
 H                     8.20163  -2.00478  -1.3505 
 H                     7.68705  -2.49743  -2.96004 
 H                     7.91859  -0.7821   -2.59663 
 H                     1.77352  -2.50396  -1.51563 
 H                     3.55559  -4.99136  -1.80294 
 H                     2.54131  -7.08795  -1.87129 
 H                     0.55883  -8.56974  -1.79384 
 H                    -3.4162   -6.52876  -1.96956 
 H                    -3.82735  -8.24076  -1.78714 
 H                    -3.33744  -8.10904   0.67162 
 H                    -2.95348  -6.38522   0.50413 
 H                    -5.84781  -8.4758   -0.62626 
 H                    -5.53936  -8.60218   1.11723 
 H                    -7.47446  -6.62824  -0.21301 
 H                    -7.95407  -8.18474   0.48383 
 H                    -7.04649  -8.46469   2.87118 
 H                    -7.23699  -6.98269   3.81198 
 H                    -9.45143  -8.39257   2.21358 
 H                    -9.21094  -8.513     3.96712 
 H                    -10.03136  -6.75189   5.30007 
 H                    -8.86397  -5.57908   4.63476 
 H                    -10.60855  -5.27406   4.48434 
 H                    -1.97544  -5.12103  -1.3204 
 H                    -0.03251  -3.66666  -1.40455 
 H                     6.19671   4.59204  -2.04585 
 H                     6.61163   3.27625  -3.13952 
 H                     5.4827    4.53817  -3.66056 
 H                     0.68074   3.60642  -2.43067 
 H                     0.37699   1.12394  -0.65478 
 H                    -1.73378   0.66268   0.21882 
 H                    -4.16361   1.08845   0.42526 
 H                    -5.88749   4.14496  -2.38033 
 H                    -7.25175   3.67379  -1.35981 
 H                    -5.00872   5.56997  -0.46891 
 H                    -6.58397   6.08862  -1.09068 
 H                    -8.49703   5.03911   0.04502 
 H                    -8.2843    4.75333   1.77956 
 H                    -7.69516   7.12555   2.1529 
 H                    -7.8737    7.4811    0.42269 
 H                    -9.97596   7.99414  -0.33821 
 H                    -10.47532   6.29069  -0.244 
 H                    -12.19957   6.87063   1.46122 
 H                    -11.7623   8.58733   1.33288 
 H                    -12.74506   9.81433  -0.3957 
 H                    -11.67391   9.01716  -1.57851 
 H                    -13.43918   8.92709  -1.77868 
 H                    -3.7913    4.41041  -2.28824 
 H                    -1.41036   3.98721  -2.49839 
 
 ITRead=  0  0  0  0  0  0  0  0  0  0  0  0  0  0  0  0  0  0  0  0
 ITRead=  0  0  0  0  0  0  0  0  0  0  0  0  0  0  0  0  0  0  0  0
 ITRead=  0  0  0  0  0  0  0  0  0  0  0  0  0  0  0  0  0  0  0  0
 ITRead=  0  0  0  0  0  0  0  0  0  0  0  0  0  0  0  0  0  0  0  0
 ITRead=  0  0  0  0  0  0  0  0  0  0  0  0  0  0  0  0  0  0  0  0
 ITRead=  0  0  0  0  0  0  0  0  0  0  0  0  0  0  0  0  0  0  0  0
 ITRead=  0  0  0  0
 MicOpt= -1 -1 -1 -1 -1 -1 -1 -1 -1 -1 -1 -1 -1 -1 -1 -1 -1 -1 -1 -1
 MicOpt= -1 -1 -1 -1 -1 -1 -1 -1 -1 -1 -1 -1 -1 -1 -1 -1 -1 -1 -1 -1
 MicOpt= -1 -1 -1 -1 -1 -1 -1 -1 -1 -1 -1 -1 -1 -1 -1 -1 -1 -1 -1 -1
 MicOpt= -1 -1 -1 -1 -1 -1 -1 -1 -1 -1 -1 -1 -1 -1 -1 -1 -1 -1 -1 -1
 MicOpt= -1 -1 -1 -1 -1 -1 -1 -1 -1 -1 -1 -1 -1 -1 -1 -1 -1 -1 -1 -1
 MicOpt= -1 -1 -1 -1 -1 -1 -1 -1 -1 -1 -1 -1 -1 -1 -1 -1 -1 -1 -1 -1
 MicOpt= -1 -1 -1 -1
 NAtoms=    124 NQM=      124 NQMF=       0 NMMI=      0 NMMIF=      0
                NMic=       0 NMicF=      0.
                    Isotopes and Nuclear Properties:
 (Nuclear quadrupole moments (NQMom) in fm**2, nuclear magnetic moments (NMagM)
  in nuclear magnetons)

  Atom         1           2           3           4           5           6           7           8           9          10
 IAtWgt=          11          14          12          12          12          12          12          12          16          12
 AtmWgt=  11.0093053  14.0030740  12.0000000  12.0000000  12.0000000  12.0000000  12.0000000  12.0000000  15.9949146  12.0000000
 NucSpn=           3           2           0           0           0           0           0           0           0           0
 AtZEff=  -0.0000000  -0.0000000  -0.0000000  -0.0000000  -0.0000000  -0.0000000  -0.0000000  -0.0000000  -0.0000000  -0.0000000
 NQMom=    4.0590000   2.0440000   0.0000000   0.0000000   0.0000000   0.0000000   0.0000000   0.0000000   0.0000000   0.0000000
 NMagM=    2.6886370   0.4037610   0.0000000   0.0000000   0.0000000   0.0000000   0.0000000   0.0000000   0.0000000   0.0000000
 AtZNuc=   5.0000000   7.0000000   6.0000000   6.0000000   6.0000000   6.0000000   6.0000000   6.0000000   8.0000000   6.0000000

  Atom        11          12          13          14          15          16          17          18          19          20
 IAtWgt=          12          12          14          16          16          12          12          12          12          14
 AtmWgt=  12.0000000  12.0000000  14.0030740  15.9949146  15.9949146  12.0000000  12.0000000  12.0000000  12.0000000  14.0030740
 NucSpn=           0           0           2           0           0           0           0           0           0           2
 AtZEff=  -0.0000000  -0.0000000  -0.0000000  -0.0000000  -0.0000000  -0.0000000  -0.0000000  -0.0000000  -0.0000000  -0.0000000
 NQMom=    0.0000000   0.0000000   2.0440000   0.0000000   0.0000000   0.0000000   0.0000000   0.0000000   0.0000000   2.0440000
 NMagM=    0.0000000   0.0000000   0.4037610   0.0000000   0.0000000   0.0000000   0.0000000   0.0000000   0.0000000   0.4037610
 AtZNuc=   6.0000000   6.0000000   7.0000000   8.0000000   8.0000000   6.0000000   6.0000000   6.0000000   6.0000000   7.0000000

  Atom        21          22          23          24          25          26          27          28          29          30
 IAtWgt=          16          16          12          14          12          12          12          12          19          12
 AtmWgt=  15.9949146  15.9949146  12.0000000  14.0030740  12.0000000  12.0000000  12.0000000  12.0000000  18.9984033  12.0000000
 NucSpn=           0           0           0           2           0           0           0           0           1           0
 AtZEff=  -0.0000000  -0.0000000  -0.0000000  -0.0000000  -0.0000000  -0.0000000  -0.0000000  -0.0000000  -0.0000000  -0.0000000
 NQMom=    0.0000000   0.0000000   0.0000000   2.0440000   0.0000000   0.0000000   0.0000000   0.0000000   0.0000000   0.0000000
 NMagM=    0.0000000   0.0000000   0.0000000   0.4037610   0.0000000   0.0000000   0.0000000   0.0000000   2.6288670   0.0000000
 AtZNuc=   8.0000000   8.0000000   6.0000000   7.0000000   6.0000000   6.0000000   6.0000000   6.0000000   9.0000000   6.0000000

  Atom        31          32          33          34          35          36          37          38          39          40
 IAtWgt=          12          12          12          12          12          16          12          12          16          12
 AtmWgt=  12.0000000  12.0000000  12.0000000  12.0000000  12.0000000  15.9949146  12.0000000  12.0000000  15.9949146  12.0000000
 NucSpn=           0           0           0           0           0           0           0           0           0           0
 AtZEff=  -0.0000000  -0.0000000  -0.0000000  -0.0000000  -0.0000000  -0.0000000  -0.0000000  -0.0000000  -0.0000000  -0.0000000
 NQMom=    0.0000000   0.0000000   0.0000000   0.0000000   0.0000000   0.0000000   0.0000000   0.0000000   0.0000000   0.0000000
 NMagM=    0.0000000   0.0000000   0.0000000   0.0000000   0.0000000   0.0000000   0.0000000   0.0000000   0.0000000   0.0000000
 AtZNuc=   6.0000000   6.0000000   6.0000000   6.0000000   6.0000000   8.0000000   6.0000000   6.0000000   8.0000000   6.0000000

  Atom        41          42          43          44          45          46          47          48          49          50
 IAtWgt=          12          16          12          12          16          12          12          12          12          19
 AtmWgt=  12.0000000  15.9949146  12.0000000  12.0000000  15.9949146  12.0000000  12.0000000  12.0000000  12.0000000  18.9984033
 NucSpn=           0           0           0           0           0           0           0           0           0           1
 AtZEff=  -0.0000000  -0.0000000  -0.0000000  -0.0000000  -0.0000000  -0.0000000  -0.0000000  -0.0000000  -0.0000000  -0.0000000
 NQMom=    0.0000000   0.0000000   0.0000000   0.0000000   0.0000000   0.0000000   0.0000000   0.0000000   0.0000000   0.0000000
 NMagM=    0.0000000   0.0000000   0.0000000   0.0000000   0.0000000   0.0000000   0.0000000   0.0000000   0.0000000   2.6288670
 AtZNuc=   6.0000000   8.0000000   6.0000000   6.0000000   8.0000000   6.0000000   6.0000000   6.0000000   6.0000000   9.0000000

  Atom        51          52          53          54          55          56          57          58          59          60
 IAtWgt=          12          12          12          12          12          12          16          12          12          16
 AtmWgt=  12.0000000  12.0000000  12.0000000  12.0000000  12.0000000  12.0000000  15.9949146  12.0000000  12.0000000  15.9949146
 NucSpn=           0           0           0           0           0           0           0           0           0           0
 AtZEff=  -0.0000000  -0.0000000  -0.0000000  -0.0000000  -0.0000000  -0.0000000  -0.0000000  -0.0000000  -0.0000000  -0.0000000
 NQMom=    0.0000000   0.0000000   0.0000000   0.0000000   0.0000000   0.0000000   0.0000000   0.0000000   0.0000000   0.0000000
 NMagM=    0.0000000   0.0000000   0.0000000   0.0000000   0.0000000   0.0000000   0.0000000   0.0000000   0.0000000   0.0000000
 AtZNuc=   6.0000000   6.0000000   6.0000000   6.0000000   6.0000000   6.0000000   8.0000000   6.0000000   6.0000000   8.0000000

  Atom        61          62          63          64          65          66          67          68          69          70
 IAtWgt=          12          12          16          12          12          16          12          12          12          19
 AtmWgt=  12.0000000  12.0000000  15.9949146  12.0000000  12.0000000  15.9949146  12.0000000  12.0000000  12.0000000  18.9984033
 NucSpn=           0           0           0           0           0           0           0           0           0           1
 AtZEff=  -0.0000000  -0.0000000  -0.0000000  -0.0000000  -0.0000000  -0.0000000  -0.0000000  -0.0000000  -0.0000000  -0.0000000
 NQMom=    0.0000000   0.0000000   0.0000000   0.0000000   0.0000000   0.0000000   0.0000000   0.0000000   0.0000000   0.0000000
 NMagM=    0.0000000   0.0000000   0.0000000   0.0000000   0.0000000   0.0000000   0.0000000   0.0000000   0.0000000   2.6288670
 AtZNuc=   6.0000000   6.0000000   8.0000000   6.0000000   6.0000000   8.0000000   6.0000000   6.0000000   6.0000000   9.0000000

  Atom        71          72          73          74          75          76          77          78          79          80
 IAtWgt=          19           1           1           1           1           1           1           1           1           1
 AtmWgt=  18.9984033   1.0078250   1.0078250   1.0078250   1.0078250   1.0078250   1.0078250   1.0078250   1.0078250   1.0078250
 NucSpn=           1           1           1           1           1           1           1           1           1           1
 AtZEff=  -0.0000000  -0.0000000  -0.0000000  -0.0000000  -0.0000000  -0.0000000  -0.0000000  -0.0000000  -0.0000000  -0.0000000
 NQMom=    0.0000000   0.0000000   0.0000000   0.0000000   0.0000000   0.0000000   0.0000000   0.0000000   0.0000000   0.0000000
 NMagM=    2.6288670   2.7928460   2.7928460   2.7928460   2.7928460   2.7928460   2.7928460   2.7928460   2.7928460   2.7928460
 AtZNuc=   9.0000000   1.0000000   1.0000000   1.0000000   1.0000000   1.0000000   1.0000000   1.0000000   1.0000000   1.0000000

  Atom        81          82          83          84          85          86          87          88          89          90
 IAtWgt=           1           1           1           1           1           1           1           1           1           1
 AtmWgt=   1.0078250   1.0078250   1.0078250   1.0078250   1.0078250   1.0078250   1.0078250   1.0078250   1.0078250   1.0078250
 NucSpn=           1           1           1           1           1           1           1           1           1           1
 AtZEff=  -0.0000000  -0.0000000  -0.0000000  -0.0000000  -0.0000000  -0.0000000  -0.0000000  -0.0000000  -0.0000000  -0.0000000
 NQMom=    0.0000000   0.0000000   0.0000000   0.0000000   0.0000000   0.0000000   0.0000000   0.0000000   0.0000000   0.0000000
 NMagM=    2.7928460   2.7928460   2.7928460   2.7928460   2.7928460   2.7928460   2.7928460   2.7928460   2.7928460   2.7928460
 AtZNuc=   1.0000000   1.0000000   1.0000000   1.0000000   1.0000000   1.0000000   1.0000000   1.0000000   1.0000000   1.0000000

  Atom        91          92          93          94          95          96          97          98          99         100
 IAtWgt=           1           1           1           1           1           1           1           1           1           1
 AtmWgt=   1.0078250   1.0078250   1.0078250   1.0078250   1.0078250   1.0078250   1.0078250   1.0078250   1.0078250   1.0078250
 NucSpn=           1           1           1           1           1           1           1           1           1           1
 AtZEff=  -0.0000000  -0.0000000  -0.0000000  -0.0000000  -0.0000000  -0.0000000  -0.0000000  -0.0000000  -0.0000000  -0.0000000
 NQMom=    0.0000000   0.0000000   0.0000000   0.0000000   0.0000000   0.0000000   0.0000000   0.0000000   0.0000000   0.0000000
 NMagM=    2.7928460   2.7928460   2.7928460   2.7928460   2.7928460   2.7928460   2.7928460   2.7928460   2.7928460   2.7928460
 AtZNuc=   1.0000000   1.0000000   1.0000000   1.0000000   1.0000000   1.0000000   1.0000000   1.0000000   1.0000000   1.0000000

  Atom       101         102         103         104         105         106         107         108         109         110
 IAtWgt=           1           1           1           1           1           1           1           1           1           1
 AtmWgt=   1.0078250   1.0078250   1.0078250   1.0078250   1.0078250   1.0078250   1.0078250   1.0078250   1.0078250   1.0078250
 NucSpn=           1           1           1           1           1           1           1           1           1           1
 AtZEff=  -0.0000000  -0.0000000  -0.0000000  -0.0000000  -0.0000000  -0.0000000  -0.0000000  -0.0000000  -0.0000000  -0.0000000
 NQMom=    0.0000000   0.0000000   0.0000000   0.0000000   0.0000000   0.0000000   0.0000000   0.0000000   0.0000000   0.0000000
 NMagM=    2.7928460   2.7928460   2.7928460   2.7928460   2.7928460   2.7928460   2.7928460   2.7928460   2.7928460   2.7928460
 AtZNuc=   1.0000000   1.0000000   1.0000000   1.0000000   1.0000000   1.0000000   1.0000000   1.0000000   1.0000000   1.0000000

  Atom       111         112         113         114         115         116         117         118         119         120
 IAtWgt=           1           1           1           1           1           1           1           1           1           1
 AtmWgt=   1.0078250   1.0078250   1.0078250   1.0078250   1.0078250   1.0078250   1.0078250   1.0078250   1.0078250   1.0078250
 NucSpn=           1           1           1           1           1           1           1           1           1           1
 AtZEff=  -0.0000000  -0.0000000  -0.0000000  -0.0000000  -0.0000000  -0.0000000  -0.0000000  -0.0000000  -0.0000000  -0.0000000
 NQMom=    0.0000000   0.0000000   0.0000000   0.0000000   0.0000000   0.0000000   0.0000000   0.0000000   0.0000000   0.0000000
 NMagM=    2.7928460   2.7928460   2.7928460   2.7928460   2.7928460   2.7928460   2.7928460   2.7928460   2.7928460   2.7928460
 AtZNuc=   1.0000000   1.0000000   1.0000000   1.0000000   1.0000000   1.0000000   1.0000000   1.0000000   1.0000000   1.0000000

  Atom       121         122         123         124
 IAtWgt=           1           1           1           1
 AtmWgt=   1.0078250   1.0078250   1.0078250   1.0078250
 NucSpn=           1           1           1           1
 AtZEff=  -0.0000000  -0.0000000  -0.0000000  -0.0000000
 NQMom=    0.0000000   0.0000000   0.0000000   0.0000000
 NMagM=    2.7928460   2.7928460   2.7928460   2.7928460
 AtZNuc=   1.0000000   1.0000000   1.0000000   1.0000000
 Leave Link  101 at Wed Nov  5 23:29:10 2025, MaxMem= 30870077440 cpu:               4.7 elap:               0.1
 (Enter /public/software/gauss/g16/l202.exe)
 Stoichiometry    C49H53BF4N4O13(1-,2)
 Framework group  C1[X(C49H53BF4N4O13)]
 Deg. of freedom   366
 Full point group                 C1      NOp   1
 Largest Abelian subgroup         C1      NOp   1
 Largest concise Abelian subgroup C1      NOp   1
                         Standard orientation:                         
 ---------------------------------------------------------------------
 Center     Atomic      Atomic             Coordinates (Angstroms)
 Number     Number       Type             X           Y           Z
 ---------------------------------------------------------------------
      1          5           0       -2.784025   -0.032068   -1.166161
      2          7           0       -3.222747   -1.449005   -1.612151
      3          6           0       -2.415773   -2.505869   -2.014036
      4          6           0       -3.296725   -3.497232   -2.468793
      5          6           0       -4.626179   -3.122026   -2.316694
      6          6           0       -4.554336   -1.819525   -1.756405
      7          6           0       -5.594991   -0.883029   -1.393167
      8          6           0       -6.754916   -1.386103   -0.676052
      9          8           0       -6.982180   -2.605455   -0.531565
     10          6           0       -7.689411   -0.418652    0.068791
     11          6           0       -8.280624   -1.024280    1.320707
     12          6           0       -7.542513   -1.571438    2.392698
     13          7           0       -6.075706   -1.576545    2.397779
     14          8           0       -5.478615   -0.730694    1.726843
     15          8           0       -5.500979   -2.420961    3.091446
     16          6           0       -8.143454   -2.131434    3.515124
     17          6           0       -9.529106   -2.128257    3.584498
     18          6           0      -10.312903   -1.601083    2.560477
     19          6           0       -9.677595   -1.067725    1.446094
     20          7           0      -10.174999   -2.696144    4.765294
     21          8           0       -9.460304   -3.149554    5.663063
     22          8           0      -11.407909   -2.695937    4.810266
     23          6           0       -5.285287    0.516292   -1.518148
     24          7           0       -3.962878    0.926859   -1.472278
     25          6           0       -3.896777    2.300428   -1.664508
     26          6           0       -5.222572    2.710551   -1.876914
     27          6           0       -6.107305    1.642913   -1.811888
     28          6           0       -7.555241    1.729664   -2.191160
     29          9           0       -5.590948    3.977161   -2.180929
     30          6           0       -2.688679    3.074881   -1.616847
     31          6           0       -2.630150    4.432625   -1.695675
     32          6           0       -1.425186    5.252259   -1.647815
     33          6           0       -1.551527    6.655134   -1.752743
     34          6           0       -0.446690    7.493378   -1.709473
     35          6           0        0.839315    6.955383   -1.556640
     36          8           0        1.864078    7.871163   -1.538534
     37          6           0        3.221220    7.429129   -1.378602
     38          6           0        3.559932    7.199716    0.097213
     39          8           0        4.921792    6.813631    0.258144
     40          6           0        5.837773    7.910518    0.316218
     41          6           0        7.231643    7.362602    0.561987
     42          8           0        7.349686    6.677716    1.811744
     43          6           0        7.608923    7.523680    2.936577
     44          6           0        9.089461    7.852493    3.094483
     45          8           0        9.929940    6.705429    3.211909
     46          6           0        9.841093    6.052248    4.473738
     47          6           0        0.995912    5.565699   -1.447900
     48          6           0       -0.121817    4.737207   -1.495089
     49          6           0       -5.793808   -3.921450   -2.810887
     50          9           0       -2.884927   -4.676222   -2.989687
     51          6           0       -0.997472   -2.704140   -1.911135
     52          6           0       -0.065056   -1.990130   -1.227157
     53          6           0        1.361777   -2.289862   -1.151993
     54          6           0        2.183081   -1.484877   -0.331747
     55          6           0        3.545629   -1.716546   -0.208727
     56          6           0        4.147853   -2.771073   -0.910450
     57          8           0        5.504738   -2.897046   -0.737787
     58          6           0        6.207315   -3.995141   -1.343609
     59          6           0        6.062054   -5.287268   -0.551801
     60          8           0        6.545379   -5.156453    0.788074
     61          6           0        7.952597   -5.369156    0.937340
     62          6           0        8.232988   -6.843099    1.242265
     63          8           0        9.615707   -7.088377    1.495758
     64          6           0       10.413464   -7.230968    0.320360
     65          6           0       11.811423   -7.636960    0.782444
     66          8           0       12.734123   -7.725838   -0.297964
     67          6           0       12.629192   -8.935477   -1.045035
     68          6           0        3.357762   -3.587230   -1.733568
     69          6           0        1.991775   -3.341116   -1.848060
     70          9           0       -1.662547    0.367912   -1.911547
     71          9           0       -2.457820   -0.008803    0.203989
     72          1           0       -7.174408    0.510664    0.316257
     73          1           0       -8.522146   -0.165663   -0.591673
     74          1           0       -7.544206   -2.546099    4.313141
     75          1           0      -11.392703   -1.614064    2.633993
     76          1           0      -10.281084   -0.670355    0.637628
     77          1           0       -8.201631    2.004780   -1.350499
     78          1           0       -7.687050    2.497433   -2.960043
     79          1           0       -7.918586    0.782097   -2.596632
     80          1           0       -1.773520    2.503962   -1.515631
     81          1           0       -3.555593    4.991363   -1.802944
     82          1           0       -2.541312    7.087946   -1.871292
     83          1           0       -0.558827    8.569738   -1.793840
     84          1           0        3.416198    6.528763   -1.969560
     85          1           0        3.827345    8.240757   -1.787136
     86          1           0        3.337438    8.109036    0.671617
     87          1           0        2.953482    6.385217    0.504131
     88          1           0        5.847814    8.475799   -0.626261
     89          1           0        5.539355    8.602180    1.117225
     90          1           0        7.474457    6.628235   -0.213012
     91          1           0        7.954072    8.184738    0.483825
     92          1           0        7.046488    8.464689    2.871175
     93          1           0        7.236987    6.982692    3.811976
     94          1           0        9.451425    8.392570    2.213581
     95          1           0        9.210938    8.512997    3.967119
     96          1           0       10.031358    6.751890    5.300065
     97          1           0        8.863971    5.579084    4.634762
     98          1           0       10.608547    5.274060    4.484337
     99          1           0        1.975443    5.121029   -1.320395
    100          1           0        0.032505    3.666659   -1.404549
    101          1           0       -6.196710   -4.592042   -2.045847
    102          1           0       -6.611628   -3.276251   -3.139516
    103          1           0       -5.482701   -4.538169   -3.660563
    104          1           0       -0.680737   -3.606416   -2.430671
    105          1           0       -0.376994   -1.123935   -0.654776
    106          1           0        1.733782   -0.662684    0.218815
    107          1           0        4.163606   -1.088453    0.425264
    108          1           0        5.887490   -4.144955   -2.380325
    109          1           0        7.251749   -3.673791   -1.359812
    110          1           0        5.008721   -5.569970   -0.468911
    111          1           0        6.583970   -6.088616   -1.090675
    112          1           0        8.497028   -5.039112    0.045020
    113          1           0        8.284301   -4.753328    1.779564
    114          1           0        7.695155   -7.125550    2.152903
    115          1           0        7.873701   -7.481097    0.422685
    116          1           0        9.975962   -7.994137   -0.338207
    117          1           0       10.475316   -6.290692   -0.243999
    118          1           0       12.199568   -6.870625    1.461224
    119          1           0       11.762296   -8.587329    1.332879
    120          1           0       12.745061   -9.814330   -0.395695
    121          1           0       11.673908   -9.017158   -1.578505
    122          1           0       13.439180   -8.927093   -1.778679
    123          1           0        3.791301   -4.410413   -2.288239
    124          1           0        1.410355   -3.987205   -2.498390
 ---------------------------------------------------------------------
 Rotational constants (GHZ):           0.0192209           0.0107316           0.0078463
 Leave Link  202 at Wed Nov  5 23:29:10 2025, MaxMem= 30870077440 cpu:               0.2 elap:               0.0
 (Enter /public/software/gauss/g16/l301.exe)
 Standard basis: def2TZVPP (5D, 7F)
 Ernie: Thresh=  0.10000D-02 Tol=  0.10000D-05 Strict=F.
 There are  3351 symmetry adapted cartesian basis functions of A   symmetry.
 There are  2943 symmetry adapted basis functions of A   symmetry.
  2943 basis functions,  4522 primitive gaussians,  3351 cartesian basis functions
   261 alpha electrons      260 beta electrons
       nuclear repulsion energy     10107.7248532597 Hartrees.
 IExCor= 4336 DFT=T Ex+Corr=M062X ExCW=0 ScaHFX=  0.540000
 ScaDFX=  1.000000  1.000000  1.000000  1.000000 ScalE2=  1.000000  1.000000
 IRadAn=      5 IRanWt=     -1 IRanGd=            0 ICorTp=0 IEmpDi=131
 NAtoms=  124 NActive=  124 NUniq=  124 SFac= 1.00D+00 NAtFMM=   60 NAOKFM=T Big=T
 Integral buffers will be    131072 words long.
 Raffenetti 2 integral format.
 Two-electron integral symmetry is turned on.
 R6Disp:  Grimme-D3 Dispersion energy=       -0.0099935557 Hartrees.
 Nuclear repulsion after empirical dispersion term =    10107.7148597040 Hartrees.
 ------------------------------------------------------------------------------
 Polarizable Continuum Model (PCM)
 =================================
 Model                : PCM.
 Atomic radii         : UFF (Universal Force Field).
 Polarization charges : Total charges.
 Charge compensation  : None.
 Solution method      : On-the-fly selection.
 Cavity type          : Scaled VdW (van der Waals Surface) (Alpha=1.100).
 Cavity algorithm     : GePol (No added spheres)
                        Default sphere list used, NSphG=  124.
                        Lebedev-Laikov grids with approx.  5.0 points / Ang**2.
                        Smoothing algorithm: York/Karplus (Gamma=1.0000).
                        Polarization charges: spherical gaussians, with
                                              point-specific exponents (IZeta= 3).
                        Self-potential: point-specific (ISelfS= 7).
                        Self-field    : sphere-specific E.n sum rule (ISelfD= 2).
 Solvent              : Water, Eps=  78.355300 Eps(inf)=   1.777849
 ------------------------------------------------------------------------------
 GePol: Number of generator spheres                  =     124
 GePol: Total number of spheres                      =     124
 GePol: Number of exposed spheres                    =     124 (100.00%)
 GePol: Number of points                             =    8867
 GePol: Average weight of points                     =       0.13
 GePol: Minimum weight of points                     =   0.21D-11
 GePol: Maximum weight of points                     =    0.20577
 GePol: Number of points with low weight             =     578
 GePol: Fraction of low-weight points (<1% of avg)   =       6.52%
 GePol: Cavity surface area                          =   1123.857 Ang**2
 GePol: Cavity volume                                =   1283.289 Ang**3
 Leave Link  301 at Wed Nov  5 23:29:10 2025, MaxMem= 30870077440 cpu:               4.5 elap:               0.1
 (Enter /public/software/gauss/g16/l302.exe)
 NPDir=0 NMtPBC=     1 NCelOv=     1 NCel=       1 NClECP=     1 NCelD=      1
         NCelK=      1 NCelE2=     1 NClLst=     1 CellRange=     0.0.
 One-electron integrals computed using PRISM.
 One-electron integral symmetry used in STVInt
   1 Symmetry operations used in ECPInt.
 ECPInt:  NShTT=  604450 NPrTT= 1702811 LenC2=  245440 LenP2D=  456077.
 LDataN:  DoStor=T MaxTD1= 6 Len=  172
 Number of processors reduced to  57 by ecpmxn.
 NBasis=  2943 RedAO= T EigKep=  5.76D-06  NBF=  2943
 NBsUse=  2943 1.00D-06 EigRej= -1.00D+00 NBFU=  2943
 Precomputing XC quadrature grid using
 IXCGrd= 4 IRadAn=           5 IRanWt=          -1 IRanGd=           0 AccXCQ= 0.00D+00.
 Generated NRdTot=       0 NPtTot=           0 NUsed=           0 NTot=          32
 NSgBfM=  2641  2641  2641  2641  2641 MxSgAt=   124 MxSgA2=   124.
 Leave Link  302 at Wed Nov  5 23:29:42 2025, MaxMem= 30870077440 cpu:            2057.0 elap:              32.4
 (Enter /public/software/gauss/g16/l303.exe)
 DipDrv:  MaxL=1.
 Leave Link  303 at Wed Nov  5 23:29:43 2025, MaxMem= 30870077440 cpu:              58.8 elap:               1.0
 (Enter /public/software/gauss/g16/l401.exe)
 ExpMin= 6.06D-02 ExpMax= 3.55D+04 ExpMxC= 1.21D+03 IAcc=3 IRadAn=         5 AccDes= 0.00D+00
 Harris functional with IExCor= 1009 and IRadAn=       5 diagonalized for initial guess.
 HarFok:  IExCor= 1009 AccDes= 0.00D+00 IRadAn=         5 IDoV= 1 UseB2=F ITyADJ=14
 ICtDFT=  3500011 ScaDFX=  1.000000  1.000000  1.000000  1.000000
 FoFCou: FMM=F IPFlag=           0 FMFlag=      100000 FMFlg1=        2001
         NFxFlg=           0 DoJE=T BraDBF=F KetDBF=T FulRan=T
         wScrn=  0.000000 ICntrl=       500 IOpCl=  0 I1Cent=   200000004 NGrid=           0
         NMat0=    1 NMatS0=      1 NMatT0=    0 NMatD0=    1 NMtDS0=    0 NMtDT0=    0
 Petite list used in FoFCou.
 Harris En= -3518.53242668001    
 JPrj=0 DoOrth=F DoCkMO=F.
 Initial guess <Sx>= 0.0000 <Sy>= 0.0000 <Sz>= 0.5000 <S**2>= 0.7500 S= 0.5000
 Leave Link  401 at Wed Nov  5 23:30:08 2025, MaxMem= 30870077440 cpu:            1601.4 elap:              25.1
 (Enter /public/software/gauss/g16/l502.exe)
 Integral symmetry usage will be decided dynamically.
 UHF open shell SCF:
 Using DIIS extrapolation, IDIIS=  1040.
 NGot= 30870077440 LenX= 30847376410 LenY= 30836143858
 Requested convergence on RMS density matrix=1.00D-08 within 128 cycles.
 Requested convergence on MAX density matrix=1.00D-06.
 Requested convergence on             energy=1.00D-06.
 No special actions if energy rises.
 Fock matrices will be formed incrementally for  20 cycles.

 Cycle   1  Pass 1  IDiag  1:
 FoFJK:  IHMeth= 1 ICntrl=       0 DoSepK=F KAlg= 0 I1Cent=           0 FoldK=F
 IRaf= 360000000 NMat=       1 IRICut=       1 DoRegI=T DoRafI=F ISym2E= 0 IDoP0=0 IntGTp=1.
 FoFCou: FMM=T IPFlag=           0 FMFlag=      100000 FMFlg1=        2001
         NFxFlg=           0 DoJE=F BraDBF=F KetDBF=F FulRan=T
         wScrn=  0.000000 ICntrl=         0 IOpCl=  1 I1Cent=           0 NGrid=           0
         NMat0=    1 NMatS0=      1 NMatT0=    0 NMatD0=    1 NMtDS0=    0 NMtDT0=    0
 Symmetry not used in FoFCou.
 FMM levels:  10  Number of levels for PrismC:   9
 Inv3:  Mode=1 IEnd=   235871067.
 Iteration    1 A*A^-1 deviation from unit magnitude is 1.84D-14 for   3325.
 Iteration    1 A*A^-1 deviation from orthogonality  is 8.66D-15 for   8851   5581.
 Iteration    1 A^-1*A deviation from unit magnitude is 1.84D-14 for   1656.
 Iteration    1 A^-1*A deviation from orthogonality  is 7.28D-15 for   7161   7105.
 E= -3518.66175524376    
 DIIS: error= 2.32D-02 at cycle   1 NSaved=   1.
 NSaved= 1 IEnMin= 1 EnMin= -3518.66175524376     IErMin= 1 ErrMin= 2.32D-02
 ErrMax= 2.32D-02  0.00D+00 EMaxC= 1.00D-01 BMatC= 9.00D+00 BMatP= 9.00D+00
 IDIUse=3 WtCom= 7.68D-01 WtEn= 2.32D-01
 Coeff-Com:  0.100D+01
 Coeff-En:   0.100D+01
 Coeff:      0.100D+01
 Gap=     0.060 Goal=   None    Shift=    0.000
 Gap=     0.107 Goal=   None    Shift=    0.000
 GapD=    0.060 DampG=0.500 DampE=0.500 DampFc=0.2500 IDamp=-1.
 Damping current iteration by 2.50D-01
 RMSDP=1.62D-03 MaxDP=1.09D+00              OVMax= 2.96D-01

 Cycle   2  Pass 1  IDiag  1:
 RMSU=  4.05D-04    CP:  1.00D+00
 E= -3519.21910756240     Delta-E=       -0.557352318638 Rises=F Damp=T
 DIIS: error= 1.07D-02 at cycle   2 NSaved=   2.
 NSaved= 2 IEnMin= 2 EnMin= -3519.21910756240     IErMin= 2 ErrMin= 1.07D-02
 ErrMax= 1.07D-02  0.00D+00 EMaxC= 1.00D-01 BMatC= 3.19D+00 BMatP= 9.00D+00
 IDIUse=3 WtCom= 8.93D-01 WtEn= 1.07D-01
 Coeff-Com: -0.113D+01 0.213D+01
 Coeff-En:   0.000D+00 0.100D+01
 Coeff:     -0.101D+01 0.201D+01
 Gap=     0.123 Goal=   None    Shift=    0.000
 Gap=     0.146 Goal=   None    Shift=    0.000
 RMSDP=6.26D-04 MaxDP=3.37D-01 DE=-5.57D-01 OVMax= 2.11D-01

 Cycle   3  Pass 1  IDiag  1:
 RMSU=  5.14D-04    CP:  9.90D-01  1.88D+00
 E= -3520.22955860802     Delta-E=       -1.010451045620 Rises=F Damp=F
 DIIS: error= 7.16D-03 at cycle   3 NSaved=   3.
 NSaved= 3 IEnMin= 3 EnMin= -3520.22955860802     IErMin= 3 ErrMin= 7.16D-03
 ErrMax= 7.16D-03  0.00D+00 EMaxC= 1.00D-01 BMatC= 3.47D-01 BMatP= 3.19D+00
 IDIUse=3 WtCom= 9.28D-01 WtEn= 7.16D-02
 Coeff-Com: -0.497D+00 0.826D+00 0.671D+00
 Coeff-En:   0.000D+00 0.000D+00 0.100D+01
 Coeff:     -0.461D+00 0.767D+00 0.694D+00
 Gap=     0.117 Goal=   None    Shift=    0.000
 Gap=     0.103 Goal=   None    Shift=    0.000
 RMSDP=1.65D-04 MaxDP=5.86D-02 DE=-1.01D+00 OVMax= 5.90D-02

 Cycle   4  Pass 1  IDiag  1:
 RMSU=  1.52D-04    CP:  9.91D-01  1.98D+00  9.06D-01
 E= -3520.28240566447     Delta-E=       -0.052847056457 Rises=F Damp=F
 DIIS: error= 2.60D-03 at cycle   4 NSaved=   4.
 NSaved= 4 IEnMin= 4 EnMin= -3520.28240566447     IErMin= 4 ErrMin= 2.60D-03
 ErrMax= 2.60D-03  0.00D+00 EMaxC= 1.00D-01 BMatC= 6.64D-02 BMatP= 3.47D-01
 IDIUse=3 WtCom= 9.74D-01 WtEn= 2.60D-02
 Coeff-Com: -0.861D-01 0.130D+00 0.330D+00 0.626D+00
 Coeff-En:   0.000D+00 0.000D+00 0.131D+00 0.869D+00
 Coeff:     -0.839D-01 0.127D+00 0.325D+00 0.632D+00
 Gap=     0.119 Goal=   None    Shift=    0.000
 Gap=     0.107 Goal=   None    Shift=    0.000
 RMSDP=7.33D-05 MaxDP=4.46D-02 DE=-5.28D-02 OVMax= 2.42D-02

 Cycle   5  Pass 1  IDiag  1:
 RMSU=  4.79D-05    CP:  9.88D-01  1.90D+00  9.49D-01  7.35D-01
 E= -3520.29510320440     Delta-E=       -0.012697539931 Rises=F Damp=F
 DIIS: error= 2.27D-04 at cycle   5 NSaved=   5.
 NSaved= 5 IEnMin= 5 EnMin= -3520.29510320440     IErMin= 5 ErrMin= 2.27D-04
 ErrMax= 2.27D-04  0.00D+00 EMaxC= 1.00D-01 BMatC= 2.64D-03 BMatP= 6.64D-02
 IDIUse=3 WtCom= 9.98D-01 WtEn= 2.27D-03
 Coeff-Com: -0.152D-01 0.205D-01 0.111D+00 0.271D+00 0.612D+00
 Coeff-En:   0.000D+00 0.000D+00 0.000D+00 0.000D+00 0.100D+01
 Coeff:     -0.151D-01 0.205D-01 0.111D+00 0.271D+00 0.613D+00
 Gap=     0.121 Goal=   None    Shift=    0.000
 Gap=     0.108 Goal=   None    Shift=    0.000
 RMSDP=2.47D-05 MaxDP=2.03D-02 DE=-1.27D-02 OVMax= 9.68D-03

 Cycle   6  Pass 1  IDiag  1:
 RMSU=  2.30D-05    CP:  9.89D-01  1.92D+00  9.52D-01  7.70D-01  1.00D+00
 E= -3520.29574268686     Delta-E=       -0.000639482454 Rises=F Damp=F
 DIIS: error= 1.15D-04 at cycle   6 NSaved=   6.
 NSaved= 6 IEnMin= 6 EnMin= -3520.29574268686     IErMin= 6 ErrMin= 1.15D-04
 ErrMax= 1.15D-04  0.00D+00 EMaxC= 1.00D-01 BMatC= 3.46D-04 BMatP= 2.64D-03
 IDIUse=3 WtCom= 9.99D-01 WtEn= 1.15D-03
 Coeff-Com:  0.327D-02-0.577D-02 0.124D-01 0.472D-01 0.255D+00 0.688D+00
 Coeff-En:   0.000D+00 0.000D+00 0.000D+00 0.000D+00 0.000D+00 0.100D+01
 Coeff:      0.327D-02-0.576D-02 0.123D-01 0.472D-01 0.255D+00 0.688D+00
 Gap=     0.122 Goal=   None    Shift=    0.000
 Gap=     0.110 Goal=   None    Shift=    0.000
 RMSDP=1.25D-05 MaxDP=7.23D-03 DE=-6.39D-04 OVMax= 1.21D-02

 Cycle   7  Pass 1  IDiag  1:
 RMSU=  7.72D-06    CP:  9.89D-01  1.90D+00  9.58D-01  7.76D-01  1.15D+00
                    CP:  1.16D+00
 E= -3520.29591867288     Delta-E=       -0.000175986017 Rises=F Damp=F
 DIIS: error= 6.46D-05 at cycle   7 NSaved=   7.
 NSaved= 7 IEnMin= 7 EnMin= -3520.29591867288     IErMin= 7 ErrMin= 6.46D-05
 ErrMax= 6.46D-05  0.00D+00 EMaxC= 1.00D-01 BMatC= 1.12D-04 BMatP= 3.46D-04
 IDIUse=1 WtCom= 1.00D+00 WtEn= 0.00D+00
 Coeff-Com:  0.505D-02-0.738D-02-0.198D-01-0.424D-01-0.364D-01 0.331D+00
 Coeff-Com:  0.769D+00
 Coeff:      0.505D-02-0.738D-02-0.198D-01-0.424D-01-0.364D-01 0.331D+00
 Coeff:      0.769D+00
 Gap=     0.123 Goal=   None    Shift=    0.000
 Gap=     0.112 Goal=   None    Shift=    0.000
 RMSDP=1.10D-05 MaxDP=7.82D-03 DE=-1.76D-04 OVMax= 8.75D-03

 Cycle   8  Pass 1  IDiag  1:
 RMSU=  5.47D-06    CP:  9.90D-01  1.90D+00  9.63D-01  7.92D-01  1.22D+00
                    CP:  1.50D+00  1.35D+00
 E= -3520.29600946796     Delta-E=       -0.000090795080 Rises=F Damp=F
 DIIS: error= 3.27D-05 at cycle   8 NSaved=   8.
 NSaved= 8 IEnMin= 8 EnMin= -3520.29600946796     IErMin= 8 ErrMin= 3.27D-05
 ErrMax= 3.27D-05  0.00D+00 EMaxC= 1.00D-01 BMatC= 3.65D-05 BMatP= 1.12D-04
 IDIUse=1 WtCom= 1.00D+00 WtEn= 0.00D+00
 Coeff-Com:  0.150D-02-0.184D-02-0.133D-01-0.371D-01-0.111D+00-0.663D-01
 Coeff-Com:  0.381D+00 0.847D+00
 Coeff:      0.150D-02-0.184D-02-0.133D-01-0.371D-01-0.111D+00-0.663D-01
 Coeff:      0.381D+00 0.847D+00
 Gap=     0.123 Goal=   None    Shift=    0.000
 Gap=     0.113 Goal=   None    Shift=    0.000
 RMSDP=8.12D-06 MaxDP=3.62D-03 DE=-9.08D-05 OVMax= 7.82D-03

 Cycle   9  Pass 1  IDiag  1:
 RMSU=  2.15D-06    CP:  9.90D-01  1.90D+00  9.68D-01  7.97D-01  1.27D+00
                    CP:  1.71D+00  1.86D+00  1.41D+00
 E= -3520.29604989129     Delta-E=       -0.000040423338 Rises=F Damp=F
 DIIS: error= 2.32D-05 at cycle   9 NSaved=   9.
 NSaved= 9 IEnMin= 9 EnMin= -3520.29604989129     IErMin= 9 ErrMin= 2.32D-05
 ErrMax= 2.32D-05  0.00D+00 EMaxC= 1.00D-01 BMatC= 9.54D-06 BMatP= 3.65D-05
 IDIUse=1 WtCom= 1.00D+00 WtEn= 0.00D+00
 Coeff-Com: -0.910D-03 0.148D-02 0.137D-02-0.113D-02-0.331D-01-0.123D+00
 Coeff-Com: -0.845D-01 0.340D+00 0.900D+00
 Coeff:     -0.910D-03 0.148D-02 0.137D-02-0.113D-02-0.331D-01-0.123D+00
 Coeff:     -0.845D-01 0.340D+00 0.900D+00
 Gap=     0.123 Goal=   None    Shift=    0.000
 Gap=     0.114 Goal=   None    Shift=    0.000
 RMSDP=4.64D-06 MaxDP=2.88D-03 DE=-4.04D-05 OVMax= 4.46D-03

 Cycle  10  Pass 1  IDiag  1:
 RMSU=  1.32D-06    CP:  9.90D-01  1.90D+00  9.70D-01  7.99D-01  1.29D+00
                    CP:  1.83D+00  2.14D+00  1.82D+00  1.36D+00
 E= -3520.29606114447     Delta-E=       -0.000011253180 Rises=F Damp=F
 DIIS: error= 2.07D-05 at cycle  10 NSaved=  10.
 NSaved=10 IEnMin=10 EnMin= -3520.29606114447     IErMin=10 ErrMin= 2.07D-05
 ErrMax= 2.07D-05  0.00D+00 EMaxC= 1.00D-01 BMatC= 4.63D-06 BMatP= 9.54D-06
 IDIUse=1 WtCom= 1.00D+00 WtEn= 0.00D+00
 Coeff-Com: -0.101D-02 0.145D-02 0.526D-02 0.117D-01 0.165D-01-0.504D-01
 Coeff-Com: -0.178D+00-0.690D-01 0.560D+00 0.704D+00
 Coeff:     -0.101D-02 0.145D-02 0.526D-02 0.117D-01 0.165D-01-0.504D-01
 Coeff:     -0.178D+00-0.690D-01 0.560D+00 0.704D+00
 Gap=     0.123 Goal=   None    Shift=    0.000
 Gap=     0.114 Goal=   None    Shift=    0.000
 RMSDP=2.12D-06 MaxDP=1.37D-03 DE=-1.13D-05 OVMax= 1.84D-03

 Cycle  11  Pass 1  IDiag  1:
 RMSU=  6.67D-07    CP:  9.90D-01  1.90D+00  9.71D-01  8.00D-01  1.30D+00
                    CP:  1.87D+00  2.26D+00  2.02D+00  1.75D+00  1.23D+00
 E= -3520.29606407198     Delta-E=       -0.000002927509 Rises=F Damp=F
 DIIS: error= 8.96D-06 at cycle  11 NSaved=  11.
 NSaved=11 IEnMin=11 EnMin= -3520.29606407198     IErMin=11 ErrMin= 8.96D-06
 ErrMax= 8.96D-06  0.00D+00 EMaxC= 1.00D-01 BMatC= 7.20D-07 BMatP= 4.63D-06
 IDIUse=1 WtCom= 1.00D+00 WtEn= 0.00D+00
 Coeff-Com: -0.202D-03 0.259D-03 0.187D-02 0.532D-02 0.151D-01 0.664D-02
 Coeff-Com: -0.587D-01-0.107D+00 0.262D-01 0.301D+00 0.810D+00
 Coeff:     -0.202D-03 0.259D-03 0.187D-02 0.532D-02 0.151D-01 0.664D-02
 Coeff:     -0.587D-01-0.107D+00 0.262D-01 0.301D+00 0.810D+00
 Gap=     0.123 Goal=   None    Shift=    0.000
 Gap=     0.114 Goal=   None    Shift=    0.000
 RMSDP=9.36D-07 MaxDP=4.23D-04 DE=-2.93D-06 OVMax= 5.90D-04

 Cycle  12  Pass 1  IDiag  1:
 RMSU=  3.87D-07    CP:  9.90D-01  1.90D+00  9.71D-01  8.00D-01  1.30D+00
                    CP:  1.87D+00  2.30D+00  2.10D+00  1.89D+00  1.57D+00
                    CP:  1.40D+00
 E= -3520.29606467105     Delta-E=       -0.000000599070 Rises=F Damp=F
 DIIS: error= 5.15D-06 at cycle  12 NSaved=  12.
 NSaved=12 IEnMin=12 EnMin= -3520.29606467105     IErMin=12 ErrMin= 5.15D-06
 ErrMax= 5.15D-06  0.00D+00 EMaxC= 1.00D-01 BMatC= 1.67D-07 BMatP= 7.20D-07
 IDIUse=1 WtCom= 1.00D+00 WtEn= 0.00D+00
 Coeff-Com:  0.136D-03-0.208D-03-0.483D-03-0.687D-03 0.188D-02 0.117D-01
 Coeff-Com:  0.187D-01-0.168D-01-0.117D+00-0.548D-01 0.303D+00 0.855D+00
 Coeff:      0.136D-03-0.208D-03-0.483D-03-0.687D-03 0.188D-02 0.117D-01
 Coeff:      0.187D-01-0.168D-01-0.117D+00-0.548D-01 0.303D+00 0.855D+00
 Gap=     0.123 Goal=   None    Shift=    0.000
 Gap=     0.114 Goal=   None    Shift=    0.000
 RMSDP=4.32D-07 MaxDP=1.12D-04 DE=-5.99D-07 OVMax= 4.28D-04

 Cycle  13  Pass 1  IDiag  1:
 RMSU=  1.63D-07    CP:  9.90D-01  1.90D+00  9.71D-01  8.00D-01  1.30D+00
                    CP:  1.87D+00  2.30D+00  2.11D+00  1.97D+00  1.72D+00
                    CP:  1.72D+00  1.42D+00
 E= -3520.29606484897     Delta-E=       -0.000000177915 Rises=F Damp=F
 DIIS: error= 3.11D-06 at cycle  13 NSaved=  13.
 NSaved=13 IEnMin=13 EnMin= -3520.29606484897     IErMin=13 ErrMin= 3.11D-06
 ErrMax= 3.11D-06  0.00D+00 EMaxC= 1.00D-01 BMatC= 5.55D-08 BMatP= 1.67D-07
 IDIUse=1 WtCom= 1.00D+00 WtEn= 0.00D+00
 Coeff-Com:  0.108D-03-0.154D-03-0.659D-03-0.159D-02-0.248D-02 0.342D-02
 Coeff-Com:  0.229D-01 0.191D-01-0.604D-01-0.953D-01-0.598D-01 0.374D+00
 Coeff-Com:  0.801D+00
 Coeff:      0.108D-03-0.154D-03-0.659D-03-0.159D-02-0.248D-02 0.342D-02
 Coeff:      0.229D-01 0.191D-01-0.604D-01-0.953D-01-0.598D-01 0.374D+00
 Coeff:      0.801D+00
 Gap=     0.123 Goal=   None    Shift=    0.000
 Gap=     0.114 Goal=   None    Shift=    0.000
 RMSDP=2.64D-07 MaxDP=7.01D-05 DE=-1.78D-07 OVMax= 3.25D-04

 Cycle  14  Pass 1  IDiag  1:
 RMSU=  8.59D-08    CP:  9.90D-01  1.90D+00  9.71D-01  8.00D-01  1.29D+00
                    CP:  1.86D+00  2.30D+00  2.10D+00  1.98D+00  1.79D+00
                    CP:  1.89D+00  1.78D+00  1.50D+00
 E= -3520.29606491963     Delta-E=       -0.000000070666 Rises=F Damp=F
 DIIS: error= 2.41D-06 at cycle  14 NSaved=  14.
 NSaved=14 IEnMin=14 EnMin= -3520.29606491963     IErMin=14 ErrMin= 2.41D-06
 ErrMax= 2.41D-06  0.00D+00 EMaxC= 1.00D-01 BMatC= 2.01D-08 BMatP= 5.55D-08
 IDIUse=1 WtCom= 1.00D+00 WtEn= 0.00D+00
 Coeff-Com:  0.657D-05-0.594D-05-0.113D-03-0.425D-03-0.133D-02-0.194D-02
 Coeff-Com:  0.382D-02 0.113D-01 0.723D-02-0.194D-01-0.104D+00-0.816D-01
 Coeff-Com:  0.317D+00 0.870D+00
 Coeff:      0.657D-05-0.594D-05-0.113D-03-0.425D-03-0.133D-02-0.194D-02
 Coeff:      0.382D-02 0.113D-01 0.723D-02-0.194D-01-0.104D+00-0.816D-01
 Coeff:      0.317D+00 0.870D+00
 Gap=     0.123 Goal=   None    Shift=    0.000
 Gap=     0.114 Goal=   None    Shift=    0.000
 RMSDP=1.70D-07 MaxDP=7.17D-05 DE=-7.07D-08 OVMax= 2.75D-04

 Cycle  15  Pass 1  IDiag  1:
 RMSU=  5.72D-08    CP:  9.90D-01  1.90D+00  9.71D-01  8.00D-01  1.29D+00
                    CP:  1.86D+00  2.30D+00  2.10D+00  1.99D+00  1.82D+00
                    CP:  1.98D+00  1.98D+00  2.05D+00  1.62D+00
 E= -3520.29606495840     Delta-E=       -0.000000038763 Rises=F Damp=F
 DIIS: error= 1.85D-06 at cycle  15 NSaved=  15.
 NSaved=15 IEnMin=15 EnMin= -3520.29606495840     IErMin=15 ErrMin= 1.85D-06
 ErrMax= 1.85D-06  0.00D+00 EMaxC= 1.00D-01 BMatC= 1.13D-08 BMatP= 2.01D-08
 IDIUse=1 WtCom= 1.00D+00 WtEn= 0.00D+00
 Coeff-Com: -0.390D-04 0.573D-04 0.208D-03 0.404D-03 0.251D-03-0.253D-02
 Coeff-Com: -0.706D-02-0.196D-02 0.286D-01 0.297D-01-0.339D-01-0.195D+00
 Coeff-Com: -0.152D+00 0.467D+00 0.866D+00
 Coeff:     -0.390D-04 0.573D-04 0.208D-03 0.404D-03 0.251D-03-0.253D-02
 Coeff:     -0.706D-02-0.196D-02 0.286D-01 0.297D-01-0.339D-01-0.195D+00
 Coeff:     -0.152D+00 0.467D+00 0.866D+00
 Gap=     0.123 Goal=   None    Shift=    0.000
 Gap=     0.114 Goal=   None    Shift=    0.000
 RMSDP=1.34D-07 MaxDP=3.91D-05 DE=-3.88D-08 OVMax= 2.56D-04

 Cycle  16  Pass 1  IDiag  1:
 RMSU=  3.98D-08    CP:  9.90D-01  1.90D+00  9.71D-01  8.00D-01  1.29D+00
                    CP:  1.86D+00  2.30D+00  2.10D+00  2.00D+00  1.84D+00
                    CP:  2.02D+00  2.12D+00  2.48D+00  2.42D+00  1.76D+00
 E= -3520.29606498450     Delta-E=       -0.000000026104 Rises=F Damp=F
 DIIS: error= 1.45D-06 at cycle  16 NSaved=  16.
 NSaved=16 IEnMin=16 EnMin= -3520.29606498450     IErMin=16 ErrMin= 1.45D-06
 ErrMax= 1.45D-06  0.00D+00 EMaxC= 1.00D-01 BMatC= 5.89D-09 BMatP= 1.13D-08
 IDIUse=1 WtCom= 1.00D+00 WtEn= 0.00D+00
 Coeff-Com: -0.197D-04 0.274D-04 0.160D-03 0.429D-03 0.847D-03-0.354D-04
 Coeff-Com: -0.537D-02-0.780D-02 0.958D-02 0.259D-01 0.429D-01-0.472D-01
 Coeff-Com: -0.254D+00-0.295D+00 0.448D+00 0.108D+01
 Coeff:     -0.197D-04 0.274D-04 0.160D-03 0.429D-03 0.847D-03-0.354D-04
 Coeff:     -0.537D-02-0.780D-02 0.958D-02 0.259D-01 0.429D-01-0.472D-01
 Coeff:     -0.254D+00-0.295D+00 0.448D+00 0.108D+01
 Gap=     0.123 Goal=   None    Shift=    0.000
 Gap=     0.114 Goal=   None    Shift=    0.000
 RMSDP=1.42D-07 MaxDP=3.52D-05 DE=-2.61D-08 OVMax= 2.81D-04

 Cycle  17  Pass 1  IDiag  1:
 RMSU=  3.46D-08    CP:  9.90D-01  1.90D+00  9.71D-01  8.00D-01  1.30D+00
                    CP:  1.86D+00  2.31D+00  2.10D+00  2.00D+00  1.85D+00
                    CP:  2.05D+00  2.20D+00  2.94D+00  3.00D+00  3.00D+00
                    CP:  1.86D+00
 E= -3520.29606500457     Delta-E=       -0.000000020071 Rises=F Damp=F
 DIIS: error= 9.70D-07 at cycle  17 NSaved=  17.
 NSaved=17 IEnMin=17 EnMin= -3520.29606500457     IErMin=17 ErrMin= 9.70D-07
 ErrMax= 9.70D-07  0.00D+00 EMaxC= 1.00D-01 BMatC= 2.72D-09 BMatP= 5.89D-09
 IDIUse=1 WtCom= 1.00D+00 WtEn= 0.00D+00
 Coeff-Com:  0.136D-04-0.205D-04-0.544D-04-0.443D-04 0.198D-03 0.152D-02
 Coeff-Com:  0.178D-02-0.229D-02-0.128D-01-0.695D-02 0.387D-01 0.966D-01
 Coeff-Com: -0.102D-01-0.414D+00-0.316D+00 0.473D+00 0.115D+01
 Coeff:      0.136D-04-0.205D-04-0.544D-04-0.443D-04 0.198D-03 0.152D-02
 Coeff:      0.178D-02-0.229D-02-0.128D-01-0.695D-02 0.387D-01 0.966D-01
 Coeff:     -0.102D-01-0.414D+00-0.316D+00 0.473D+00 0.115D+01
 Gap=     0.123 Goal=   None    Shift=    0.000
 Gap=     0.114 Goal=   None    Shift=    0.000
 RMSDP=1.26D-07 MaxDP=2.71D-05 DE=-2.01D-08 OVMax= 2.39D-04

 Cycle  18  Pass 1  IDiag  1:
 RMSU=  8.43D-08    CP:  9.90D-01  1.90D+00  9.71D-01  8.00D-01  1.30D+00
                    CP:  1.86D+00  2.31D+00  2.10D+00  2.01D+00  1.86D+00
                    CP:  2.07D+00  2.24D+00  3.00D+00  3.00D+00  3.00D+00
                    CP:  3.00D+00  2.84D+00
 E= -3520.29606501740     Delta-E=       -0.000000012833 Rises=F Damp=F
 DIIS: error= 6.38D-07 at cycle  18 NSaved=  18.
 NSaved=18 IEnMin=18 EnMin= -3520.29606501740     IErMin=18 ErrMin= 6.38D-07
 ErrMax= 6.38D-07  0.00D+00 EMaxC= 1.00D-01 BMatC= 1.12D-09 BMatP= 2.72D-09
 IDIUse=1 WtCom= 1.00D+00 WtEn= 0.00D+00
 Coeff-Com:  0.135D-04-0.197D-04-0.961D-04-0.204D-03-0.292D-03 0.789D-03
 Coeff-Com:  0.309D-02 0.256D-02-0.104D-01-0.157D-01 0.613D-04 0.680D-01
 Coeff-Com:  0.114D+00-0.765D-01-0.364D+00-0.238D+00 0.560D+00 0.957D+00
 Coeff:      0.135D-04-0.197D-04-0.961D-04-0.204D-03-0.292D-03 0.789D-03
 Coeff:      0.309D-02 0.256D-02-0.104D-01-0.157D-01 0.613D-04 0.680D-01
 Coeff:      0.114D+00-0.765D-01-0.364D+00-0.238D+00 0.560D+00 0.957D+00
 Gap=     0.123 Goal=   None    Shift=    0.000
 Gap=     0.114 Goal=   None    Shift=    0.000
 RMSDP=7.66D-08 MaxDP=2.95D-05 DE=-1.28D-08 OVMax= 1.31D-04

 Cycle  19  Pass 1  IDiag  1:
 RMSU=  4.77D-08    CP:  9.90D-01  1.90D+00  9.71D-01  8.00D-01  1.30D+00
                    CP:  1.86D+00  2.31D+00  2.10D+00  2.01D+00  1.87D+00
                    CP:  2.09D+00  2.26D+00  3.00D+00  3.00D+00  3.00D+00
                    CP:  3.00D+00  3.00D+00  1.59D+00
 E= -3520.29606502005     Delta-E=       -0.000000002647 Rises=F Damp=F
 DIIS: error= 4.13D-07 at cycle  19 NSaved=  19.
 NSaved=19 IEnMin=19 EnMin= -3520.29606502005     IErMin=19 ErrMin= 4.13D-07
 ErrMax= 4.13D-07  0.00D+00 EMaxC= 1.00D-01 BMatC= 4.22D-10 BMatP= 1.12D-09
 IDIUse=1 WtCom= 1.00D+00 WtEn= 0.00D+00
 Coeff-Com:  0.349D-06-0.424D-06-0.213D-04-0.697D-04-0.201D-03-0.165D-03
 Coeff-Com:  0.584D-03 0.214D-02 0.421D-03-0.455D-02-0.142D-01-0.925D-02
 Coeff-Com:  0.527D-01 0.123D+00-0.346D-01-0.271D+00-0.215D+00 0.423D+00
 Coeff-Com:  0.947D+00
 Coeff:      0.349D-06-0.424D-06-0.213D-04-0.697D-04-0.201D-03-0.165D-03
 Coeff:      0.584D-03 0.214D-02 0.421D-03-0.455D-02-0.142D-01-0.925D-02
 Coeff:      0.527D-01 0.123D+00-0.346D-01-0.271D+00-0.215D+00 0.423D+00
 Coeff:      0.947D+00
 Gap=     0.123 Goal=   None    Shift=    0.000
 Gap=     0.114 Goal=   None    Shift=    0.000
 RMSDP=4.01D-08 MaxDP=3.28D-05 DE=-2.65D-09 OVMax= 5.00D-05

 Cycle  20  Pass 1  IDiag  1:
 RMSU=  1.15D-08    CP:  9.90D-01  1.90D+00  9.71D-01  8.00D-01  1.30D+00
                    CP:  1.86D+00  2.31D+00  2.10D+00  2.02D+00  1.87D+00
                    CP:  2.09D+00  2.26D+00  3.00D+00  3.00D+00  3.00D+00
                    CP:  3.00D+00  3.00D+00  1.84D+00  1.60D+00
 E= -3520.29606502157     Delta-E=       -0.000000001522 Rises=F Damp=F
 DIIS: error= 2.54D-07 at cycle  20 NSaved=  20.
 NSaved=20 IEnMin=20 EnMin= -3520.29606502157     IErMin=20 ErrMin= 2.54D-07
 ErrMax= 2.54D-07  0.00D+00 EMaxC= 1.00D-01 BMatC= 1.50D-10 BMatP= 4.22D-10
 IDIUse=1 WtCom= 1.00D+00 WtEn= 0.00D+00
 Coeff-Com: -0.458D-05 0.670D-05 0.266D-04 0.458D-04 0.227D-04-0.348D-03
 Coeff-Com: -0.996D-03-0.211D-04 0.406D-02 0.385D-02-0.521D-02-0.284D-01
 Coeff-Com: -0.213D-01 0.749D-01 0.117D+00-0.165D-01-0.291D+00-0.180D+00
 Coeff-Com:  0.366D+00 0.978D+00
 Coeff:     -0.458D-05 0.670D-05 0.266D-04 0.458D-04 0.227D-04-0.348D-03
 Coeff:     -0.996D-03-0.211D-04 0.406D-02 0.385D-02-0.521D-02-0.284D-01
 Coeff:     -0.213D-01 0.749D-01 0.117D+00-0.165D-01-0.291D+00-0.180D+00
 Coeff:      0.366D+00 0.978D+00
 Gap=     0.123 Goal=   None    Shift=    0.000
 Gap=     0.114 Goal=   None    Shift=    0.000
 RMSDP=2.23D-08 MaxDP=2.29D-05 DE=-1.52D-09 OVMax= 2.59D-05

 Cycle  21  Pass 1  IDiag  1:
 Restarting incremental Fock formation.
 E= -3520.29606502138     Delta-E=        0.000000000195 Rises=F Damp=F
 DIIS: error= 1.63D-07 at cycle  21 NSaved=  20.
 NSaved=20 IEnMin=19 EnMin= -3520.29606502157     IErMin=20 ErrMin= 1.63D-07
 ErrMax= 1.63D-07  0.00D+00 EMaxC= 1.00D-01 BMatC= 6.46D-11 BMatP= 1.50D-10
 IDIUse=1 WtCom= 1.00D+00 WtEn= 0.00D+00
 Coeff-Com:  0.326D-07 0.944D-05 0.235D-04 0.572D-04-0.270D-05-0.337D-03
 Coeff-Com: -0.636D-03 0.541D-03 0.204D-02 0.328D-02-0.218D-02-0.208D-01
 Coeff-Com: -0.218D-01 0.343D-01 0.796D-01 0.895D-02-0.173D+00-0.216D+00
 Coeff-Com:  0.238D+00 0.107D+01
 Coeff:      0.326D-07 0.944D-05 0.235D-04 0.572D-04-0.270D-05-0.337D-03
 Coeff:     -0.636D-03 0.541D-03 0.204D-02 0.328D-02-0.218D-02-0.208D-01
 Coeff:     -0.218D-01 0.343D-01 0.796D-01 0.895D-02-0.173D+00-0.216D+00
 Coeff:      0.238D+00 0.107D+01
 Gap=     0.123 Goal=   None    Shift=    0.000
 Gap=     0.114 Goal=   None    Shift=    0.000
 RMSDP=1.23D-08 MaxDP=9.72D-06 DE= 1.95D-10 OVMax= 1.39D-05

 Cycle  22  Pass 1  IDiag  1:
 RMSU=  1.23D-08    CP:  1.00D+00
 E= -3520.29606502183     Delta-E=       -0.000000000447 Rises=F Damp=F
 DIIS: error= 1.12D-07 at cycle  22 NSaved=  20.
 NSaved=20 IEnMin=20 EnMin= -3520.29606502183     IErMin=20 ErrMin= 1.12D-07
 ErrMax= 1.12D-07  0.00D+00 EMaxC= 1.00D-01 BMatC= 3.54D-11 BMatP= 6.46D-11
 IDIUse=1 WtCom= 1.00D+00 WtEn= 0.00D+00
 Coeff-Com:  0.104D-05 0.845D-05 0.469D-04 0.118D-03 0.145D-03-0.455D-03
 Coeff-Com: -0.126D-02-0.183D-03 0.422D-02 0.114D-01-0.242D-02-0.469D-01
 Coeff-Com: -0.405D-01 0.450D-01 0.161D+00 0.773D-02-0.298D+00-0.428D+00
 Coeff-Com:  0.414D+00 0.117D+01
 Coeff:      0.104D-05 0.845D-05 0.469D-04 0.118D-03 0.145D-03-0.455D-03
 Coeff:     -0.126D-02-0.183D-03 0.422D-02 0.114D-01-0.242D-02-0.469D-01
 Coeff:     -0.405D-01 0.450D-01 0.161D+00 0.773D-02-0.298D+00-0.428D+00
 Coeff:      0.414D+00 0.117D+01
 Gap=     0.123 Goal=   None    Shift=    0.000
 Gap=     0.114 Goal=   None    Shift=    0.000
 RMSDP=1.22D-08 MaxDP=5.96D-06 DE=-4.47D-10 OVMax= 1.52D-05

 Cycle  23  Pass 1  IDiag  1:
 RMSU=  4.13D-09    CP:  1.00D+00  1.93D+00
 E= -3520.29606502230     Delta-E=       -0.000000000477 Rises=F Damp=F
 DIIS: error= 6.52D-08 at cycle  23 NSaved=  20.
 NSaved=20 IEnMin=20 EnMin= -3520.29606502230     IErMin=20 ErrMin= 6.52D-08
 ErrMax= 6.52D-08  0.00D+00 EMaxC= 1.00D-01 BMatC= 1.56D-11 BMatP= 3.54D-11
 IDIUse=1 WtCom= 1.00D+00 WtEn= 0.00D+00
 Coeff-Com:  0.398D-05 0.183D-04 0.259D-04 0.709D-04-0.544D-04-0.380D-03
 Coeff-Com: -0.322D-03 0.440D-03 0.311D-02 0.439D-02-0.547D-02-0.213D-01
 Coeff-Com: -0.145D-01 0.458D-01 0.599D-01-0.446D-03-0.212D+00-0.398D+00
 Coeff-Com:  0.366D+00 0.117D+01
 Coeff:      0.398D-05 0.183D-04 0.259D-04 0.709D-04-0.544D-04-0.380D-03
 Coeff:     -0.322D-03 0.440D-03 0.311D-02 0.439D-02-0.547D-02-0.213D-01
 Coeff:     -0.145D-01 0.458D-01 0.599D-01-0.446D-03-0.212D+00-0.398D+00
 Coeff:      0.366D+00 0.117D+01
 Gap=     0.123 Goal=   None    Shift=    0.000
 Gap=     0.114 Goal=   None    Shift=    0.000
 RMSDP=9.31D-09 MaxDP=1.79D-06 DE=-4.77D-10 OVMax= 1.54D-05

 Cycle  24  Pass 1  IDiag  1:
 RMSU=  2.91D-09    CP:  1.00D+00  2.51D+00  2.28D+00
 E= -3520.29606502205     Delta-E=        0.000000000255 Rises=F Damp=F
 DIIS: error= 3.34D-08 at cycle  24 NSaved=  20.
 NSaved=20 IEnMin=19 EnMin= -3520.29606502230     IErMin=20 ErrMin= 3.34D-08
 ErrMax= 3.34D-08  0.00D+00 EMaxC= 1.00D-01 BMatC= 6.33D-12 BMatP= 1.56D-11
 IDIUse=1 WtCom= 1.00D+00 WtEn= 0.00D+00
 Coeff-Com: -0.100D-04-0.455D-04-0.295D-04 0.183D-03 0.335D-03-0.112D-03
 Coeff-Com: -0.158D-02-0.334D-02 0.407D-02 0.187D-01 0.500D-02-0.311D-01
 Coeff-Com: -0.474D-01 0.301D-01 0.147D+00 0.107D+00-0.426D+00-0.387D+00
 Coeff-Com:  0.528D+00 0.106D+01
 Coeff:     -0.100D-04-0.455D-04-0.295D-04 0.183D-03 0.335D-03-0.112D-03
 Coeff:     -0.158D-02-0.334D-02 0.407D-02 0.187D-01 0.500D-02-0.311D-01
 Coeff:     -0.474D-01 0.301D-01 0.147D+00 0.107D+00-0.426D+00-0.387D+00
 Coeff:      0.528D+00 0.106D+01
 Gap=     0.123 Goal=   None    Shift=    0.000
 Gap=     0.114 Goal=   None    Shift=    0.000
 RMSDP=6.80D-09 MaxDP=1.17D-06 DE= 2.55D-10 OVMax= 1.21D-05

 Cycle  25  Pass 1  IDiag  1:
 RMSU=  2.31D-09    CP:  1.00D+00  2.83D+00  3.00D+00  1.82D+00
 E= -3520.29606502112     Delta-E=        0.000000000928 Rises=F Damp=F
 DIIS: error= 1.20D-08 at cycle  25 NSaved=  20.
 NSaved=20 IEnMin=18 EnMin= -3520.29606502230     IErMin=20 ErrMin= 1.20D-08
 ErrMax= 1.20D-08  0.00D+00 EMaxC= 1.00D-01 BMatC= 1.52D-12 BMatP= 6.33D-12
 IDIUse=1 WtCom= 1.00D+00 WtEn= 0.00D+00
 Coeff-Com: -0.996D-05-0.419D-04 0.336D-04 0.171D-03 0.945D-04-0.375D-03
 Coeff-Com: -0.192D-02-0.324D-03 0.665D-02 0.798D-02-0.327D-02-0.275D-01
 Coeff-Com: -0.131D-01 0.404D-01 0.104D+00-0.121D-01-0.216D+00-0.190D+00
 Coeff-Com:  0.313D+00 0.992D+00
 Coeff:     -0.996D-05-0.419D-04 0.336D-04 0.171D-03 0.945D-04-0.375D-03
 Coeff:     -0.192D-02-0.324D-03 0.665D-02 0.798D-02-0.327D-02-0.275D-01
 Coeff:     -0.131D-01 0.404D-01 0.104D+00-0.121D-01-0.216D+00-0.190D+00
 Coeff:      0.313D+00 0.992D+00
 Gap=     0.123 Goal=   None    Shift=    0.000
 Gap=     0.114 Goal=   None    Shift=    0.000
 RMSDP=2.73D-09 MaxDP=4.92D-07 DE= 9.28D-10 OVMax= 4.61D-06

 Error on total polarization charges =  0.02991
 SCF Done:  E(UM062X) =  -3520.29606502     A.U. after   25 cycles
            NFock= 25  Conv=0.27D-08     -V/T= 2.0052
 <Sx>= 0.0000 <Sy>= 0.0000 <Sz>= 0.5000 <S**2>= 0.7788 S= 0.5143
 <L.S>= 0.000000000000E+00
 KE= 3.502004552093D+03 PE=-2.849261154661D+04 EE= 1.136259606980D+04
 Annihilation of the first spin contaminant:
 S**2 before annihilation     0.7788,   after     0.7507
 Leave Link  502 at Thu Nov  6 00:45:18 2025, MaxMem= 30870077440 cpu:          284824.6 elap:            4509.6
 (Enter /public/software/gauss/g16/l601.exe)
 Copying SCF densities to generalized density rwf, IOpCl= 1 IROHF=0.
 Hyperfine terms turned off by default for NAtoms > 100.

 **********************************************************************

            Population analysis using the SCF density.

 **********************************************************************

 Orbital symmetries:
 Alpha Orbitals:
       Occupied  (A) (A) (A) (A) (A) (A) (A) (A) (A) (A) (A) (A)
                 (A) (A) (A) (A) (A) (A) (A) (A) (A) (A) (A) (A)
                 (A) (A) (A) (A) (A) (A) (A) (A) (A) (A) (A) (A)
                 (A) (A) (A) (A) (A) (A) (A) (A) (A) (A) (A) (A)
                 (A) (A) (A) (A) (A) (A) (A) (A) (A) (A) (A) (A)
                 (A) (A) (A) (A) (A) (A) (A) (A) (A) (A) (A) (A)
                 (A) (A) (A) (A) (A) (A) (A) (A) (A) (A) (A) (A)
                 (A) (A) (A) (A) (A) (A) (A) (A) (A) (A) (A) (A)
                 (A) (A) (A) (A) (A) (A) (A) (A) (A) (A) (A) (A)
                 (A) (A) (A) (A) (A) (A) (A) (A) (A) (A) (A) (A)
                 (A) (A) (A) (A) (A) (A) (A) (A) (A) (A) (A) (A)
                 (A) (A) (A) (A) (A) (A) (A) (A) (A) (A) (A) (A)
                 (A) (A) (A) (A) (A) (A) (A) (A) (A) (A) (A) (A)
                 (A) (A) (A) (A) (A) (A) (A) (A) (A) (A) (A) (A)
                 (A) (A) (A) (A) (A) (A) (A) (A) (A) (A) (A) (A)
                 (A) (A) (A) (A) (A) (A) (A) (A) (A) (A) (A) (A)
                 (A) (A) (A) (A) (A) (A) (A) (A) (A) (A) (A) (A)
                 (A) (A) (A) (A) (A) (A) (A) (A) (A) (A) (A) (A)
                 (A) (A) (A) (A) (A) (A) (A) (A) (A) (A) (A) (A)
                 (A) (A) (A) (A) (A) (A) (A) (A) (A) (A) (A) (A)
                 (A) (A) (A) (A) (A) (A) (A) (A) (A) (A) (A) (A)
                 (A) (A) (A) (A) (A) (A) (A) (A) (A)
       Virtual   (A) (A) (A) (A) (A) (A) (A) (A) (A) (A) (A) (A)
                 (A) (A) (A) (A) (A) (A) (A) (A) (A) (A) (A) (A)
                 (A) (A) (A) (A) (A) (A) (A) (A) (A) (A) (A) (A)
                 (A) (A) (A) (A) (A) (A) (A) (A) (A) (A) (A) (A)
                 (A) (A) (A) (A) (A) (A) (A) (A) (A) (A) (A) (A)
                 (A) (A) (A) (A) (A) (A) (A) (A) (A) (A) (A) (A)
                 (A) (A) (A) (A) (A) (A) (A) (A) (A) (A) (A) (A)
                 (A) (A) (A) (A) (A) (A) (A) (A) (A) (A) (A) (A)
                 (A) (A) (A) (A) (A) (A) (A) (A) (A) (A) (A) (A)
                 (A) (A) (A) (A) (A) (A) (A) (A) (A) (A) (A) (A)
                 (A) (A) (A) (A) (A) (A) (A) (A) (A) (A) (A) (A)
                 (A) (A) (A) (A) (A) (A) (A) (A) (A) (A) (A) (A)
                 (A) (A) (A) (A) (A) (A) (A) (A) (A) (A) (A) (A)
                 (A) (A) (A) (A) (A) (A) (A) (A) (A) (A) (A) (A)
                 (A) (A) (A) (A) (A) (A) (A) (A) (A) (A) (A) (A)
                 (A) (A) (A) (A) (A) (A) (A) (A) (A) (A) (A) (A)
                 (A) (A) (A) (A) (A) (A) (A) (A) (A) (A) (A) (A)
                 (A) (A) (A) (A) (A) (A) (A) (A) (A) (A) (A) (A)
                 (A) (A) (A) (A) (A) (A) (A) (A) (A) (A) (A) (A)
                 (A) (A) (A) (A) (A) (A) (A) (A) (A) (A) (A) (A)
                 (A) (A) (A) (A) (A) (A) (A) (A) (A) (A) (A) (A)
                 (A) (A) (A) (A) (A) (A) (A) (A) (A) (A) (A) (A)
                 (A) (A) (A) (A) (A) (A) (A) (A) (A) (A) (A) (A)
                 (A) (A) (A) (A) (A) (A) (A) (A) (A) (A) (A) (A)
                 (A) (A) (A) (A) (A) (A) (A) (A) (A) (A) (A) (A)
                 (A) (A) (A) (A) (A) (A) (A) (A) (A) (A) (A) (A)
                 (A) (A) (A) (A) (A) (A) (A) (A) (A) (A) (A) (A)
                 (A) (A) (A) (A) (A) (A) (A) (A) (A) (A) (A) (A)
                 (A) (A) (A) (A) (A) (A) (A) (A) (A) (A) (A) (A)
                 (A) (A) (A) (A) (A) (A) (A) (A) (A) (A) (A) (A)
                 (A) (A) (A) (A) (A) (A) (A) (A) (A) (A) (A) (A)
                 (A) (A) (A) (A) (A) (A) (A) (A) (A) (A) (A) (A)
                 (A) (A) (A) (A) (A) (A) (A) (A) (A) (A) (A) (A)
                 (A) (A) (A) (A) (A) (A) (A) (A) (A) (A) (A) (A)
                 (A) (A) (A) (A) (A) (A) (A) (A) (A) (A) (A) (A)
                 (A) (A) (A) (A) (A) (A) (A) (A) (A) (A) (A) (A)
                 (A) (A) (A) (A) (A) (A) (A) (A) (A) (A) (A) (A)
                 (A) (A) (A) (A) (A) (A) (A) (A) (A) (A) (A) (A)
                 (A) (A) (A) (A) (A) (A) (A) (A) (A) (A) (A) (A)
                 (A) (A) (A) (A) (A) (A) (A) (A) (A) (A) (A) (A)
                 (A) (A) (A) (A) (A) (A) (A) (A) (A) (A) (A) (A)
                 (A) (A) (A) (A) (A) (A) (A) (A) (A) (A) (A) (A)
                 (A) (A) (A) (A) (A) (A) (A) (A) (A) (A) (A) (A)
                 (A) (A) (A) (A) (A) (A) (A) (A) (A) (A) (A) (A)
                 (A) (A) (A) (A) (A) (A) (A) (A) (A) (A) (A) (A)
                 (A) (A) (A) (A) (A) (A) (A) (A) (A) (A) (A) (A)
                 (A) (A) (A) (A) (A) (A) (A) (A) (A) (A) (A) (A)
                 (A) (A) (A) (A) (A) (A) (A) (A) (A) (A) (A) (A)
                 (A) (A) (A) (A) (A) (A) (A) (A) (A) (A) (A) (A)
                 (A) (A) (A) (A) (A) (A) (A) (A) (A) (A) (A) (A)
                 (A) (A) (A) (A) (A) (A) (A) (A) (A) (A) (A) (A)
                 (A) (A) (A) (A) (A) (A) (A) (A) (A) (A) (A) (A)
                 (A) (A) (A) (A) (A) (A) (A) (A) (A) (A) (A) (A)
                 (A) (A) (A) (A) (A) (A) (A) (A) (A) (A) (A) (A)
                 (A) (A) (A) (A) (A) (A) (A) (A) (A) (A) (A) (A)
                 (A) (A) (A) (A) (A) (A) (A) (A) (A) (A) (A) (A)
                 (A) (A) (A) (A) (A) (A) (A) (A) (A) (A) (A) (A)
                 (A) (A) (A) (A) (A) (A) (A) (A) (A) (A) (A) (A)
                 (A) (A) (A) (A) (A) (A) (A) (A) (A) (A) (A) (A)
                 (A) (A) (A) (A) (A) (A) (A) (A) (A) (A) (A) (A)
                 (A) (A) (A) (A) (A) (A) (A) (A) (A) (A) (A) (A)
                 (A) (A) (A) (A) (A) (A) (A) (A) (A) (A) (A) (A)
                 (A) (A) (A) (A) (A) (A) (A) (A) (A) (A) (A) (A)
                 (A) (A) (A) (A) (A) (A) (A) (A) (A) (A) (A) (A)
                 (A) (A) (A) (A) (A) (A) (A) (A) (A) (A) (A) (A)
                 (A) (A) (A) (A) (A) (A) (A) (A) (A) (A) (A) (A)
                 (A) (A) (A) (A) (A) (A) (A) (A) (A) (A) (A) (A)
                 (A) (A) (A) (A) (A) (A) (A) (A) (A) (A) (A) (A)
                 (A) (A) (A) (A) (A) (A) (A) (A) (A) (A) (A) (A)
                 (A) (A) (A) (A) (A) (A) (A) (A) (A) (A) (A) (A)
                 (A) (A) (A) (A) (A) (A) (A) (A) (A) (A) (A) (A)
                 (A) (A) (A) (A) (A) (A) (A) (A) (A) (A) (A) (A)
                 (A) (A) (A) (A) (A) (A) (A) (A) (A) (A) (A) (A)
                 (A) (A) (A) (A) (A) (A) (A) (A) (A) (A) (A) (A)
                 (A) (A) (A) (A) (A) (A) (A) (A) (A) (A) (A) (A)
                 (A) (A) (A) (A) (A) (A) (A) (A) (A) (A) (A) (A)
                 (A) (A) (A) (A) (A) (A) (A) (A) (A) (A) (A) (A)
                 (A) (A) (A) (A) (A) (A) (A) (A) (A) (A) (A) (A)
                 (A) (A) (A) (A) (A) (A) (A) (A) (A) (A) (A) (A)
                 (A) (A) (A) (A) (A) (A) (A) (A) (A) (A) (A) (A)
                 (A) (A) (A) (A) (A) (A) (A) (A) (A) (A) (A) (A)
                 (A) (A) (A) (A) (A) (A) (A) (A) (A) (A) (A) (A)
                 (A) (A) (A) (A) (A) (A) (A) (A) (A) (A) (A) (A)
                 (A) (A) (A) (A) (A) (A) (A) (A) (A) (A) (A) (A)
                 (A) (A) (A) (A) (A) (A) (A) (A) (A) (A) (A) (A)
                 (A) (A) (A) (A) (A) (A) (A) (A) (A) (A) (A) (A)
                 (A) (A) (A) (A) (A) (A) (A) (A) (A) (A) (A) (A)
                 (A) (A) (A) (A) (A) (A) (A) (A) (A) (A) (A) (A)
                 (A) (A) (A) (A) (A) (A) (A) (A) (A) (A) (A) (A)
                 (A) (A) (A) (A) (A) (A) (A) (A) (A) (A) (A) (A)
                 (A) (A) (A) (A) (A) (A) (A) (A) (A) (A) (A) (A)
                 (A) (A) (A) (A) (A) (A) (A) (A) (A) (A) (A) (A)
                 (A) (A) (A) (A) (A) (A) (A) (A) (A) (A) (A) (A)
                 (A) (A) (A) (A) (A) (A) (A) (A) (A) (A) (A) (A)
                 (A) (A) (A) (A) (A) (A) (A) (A) (A) (A) (A) (A)
                 (A) (A) (A) (A) (A) (A) (A) (A) (A) (A) (A) (A)
                 (A) (A) (A) (A) (A) (A) (A) (A) (A) (A) (A) (A)
                 (A) (A) (A) (A) (A) (A) (A) (A) (A) (A) (A) (A)
                 (A) (A) (A) (A) (A) (A) (A) (A) (A) (A) (A) (A)
                 (A) (A) (A) (A) (A) (A) (A) (A) (A) (A) (A) (A)
                 (A) (A) (A) (A) (A) (A) (A) (A) (A) (A) (A) (A)
                 (A) (A) (A) (A) (A) (A) (A) (A) (A) (A) (A) (A)
                 (A) (A) (A) (A) (A) (A) (A) (A) (A) (A) (A) (A)
                 (A) (A) (A) (A) (A) (A) (A) (A) (A) (A) (A) (A)
                 (A) (A) (A) (A) (A) (A) (A) (A) (A) (A) (A) (A)
                 (A) (A) (A) (A) (A) (A) (A) (A) (A) (A) (A) (A)
                 (A) (A) (A) (A) (A) (A) (A) (A) (A) (A) (A) (A)
                 (A) (A) (A) (A) (A) (A) (A) (A) (A) (A) (A) (A)
                 (A) (A) (A) (A) (A) (A) (A) (A) (A) (A) (A) (A)
                 (A) (A) (A) (A) (A) (A) (A) (A) (A) (A) (A) (A)
                 (A) (A) (A) (A) (A) (A) (A) (A) (A) (A) (A) (A)
                 (A) (A) (A) (A) (A) (A) (A) (A) (A) (A) (A) (A)
                 (A) (A) (A) (A) (A) (A) (A) (A) (A) (A) (A) (A)
                 (A) (A) (A) (A) (A) (A) (A) (A) (A) (A) (A) (A)
                 (A) (A) (A) (A) (A) (A) (A) (A) (A) (A) (A) (A)
                 (A) (A) (A) (A) (A) (A) (A) (A) (A) (A) (A) (A)
                 (A) (A) (A) (A) (A) (A) (A) (A) (A) (A) (A) (A)
                 (A) (A) (A) (A) (A) (A) (A) (A) (A) (A) (A) (A)
                 (A) (A) (A) (A) (A) (A) (A) (A) (A) (A) (A) (A)
                 (A) (A) (A) (A) (A) (A) (A) (A) (A) (A) (A) (A)
                 (A) (A) (A) (A) (A) (A) (A) (A) (A) (A) (A) (A)
                 (A) (A) (A) (A) (A) (A) (A) (A) (A) (A) (A) (A)
                 (A) (A) (A) (A) (A) (A) (A) (A) (A) (A) (A) (A)
                 (A) (A) (A) (A) (A) (A) (A) (A) (A) (A) (A) (A)
                 (A) (A) (A) (A) (A) (A) (A) (A) (A) (A) (A) (A)
                 (A) (A) (A) (A) (A) (A) (A) (A) (A) (A) (A) (A)
                 (A) (A) (A) (A) (A) (A) (A) (A) (A) (A) (A) (A)
                 (A) (A) (A) (A) (A) (A) (A) (A) (A) (A) (A) (A)
                 (A) (A) (A) (A) (A) (A) (A) (A) (A) (A) (A) (A)
                 (A) (A) (A) (A) (A) (A) (A) (A) (A) (A) (A) (A)
                 (A) (A) (A) (A) (A) (A) (A) (A) (A) (A) (A) (A)
                 (A) (A) (A) (A) (A) (A) (A) (A) (A) (A) (A) (A)
                 (A) (A) (A) (A) (A) (A) (A) (A) (A) (A) (A) (A)
                 (A) (A) (A) (A) (A) (A) (A) (A) (A) (A) (A) (A)
                 (A) (A) (A) (A) (A) (A) (A) (A) (A) (A) (A) (A)
                 (A) (A) (A) (A) (A) (A) (A) (A) (A) (A) (A) (A)
                 (A) (A) (A) (A) (A) (A) (A) (A) (A) (A) (A) (A)
                 (A) (A) (A) (A) (A) (A) (A) (A) (A) (A) (A) (A)
                 (A) (A) (A) (A) (A) (A) (A) (A) (A) (A) (A) (A)
                 (A) (A) (A) (A) (A) (A) (A) (A) (A) (A) (A) (A)
                 (A) (A) (A) (A) (A) (A) (A) (A) (A) (A) (A) (A)
                 (A) (A) (A) (A) (A) (A) (A) (A) (A) (A) (A) (A)
                 (A) (A) (A) (A) (A) (A) (A) (A) (A) (A) (A) (A)
                 (A) (A) (A) (A) (A) (A) (A) (A) (A) (A) (A) (A)
                 (A) (A) (A) (A) (A) (A) (A) (A) (A) (A) (A) (A)
                 (A) (A) (A) (A) (A) (A) (A) (A) (A) (A) (A) (A)
                 (A) (A) (A) (A) (A) (A) (A) (A) (A) (A) (A) (A)
                 (A) (A) (A) (A) (A) (A) (A) (A) (A) (A) (A) (A)
                 (A) (A) (A) (A) (A) (A) (A) (A) (A) (A) (A) (A)
                 (A) (A) (A) (A) (A) (A) (A) (A) (A) (A) (A) (A)
                 (A) (A) (A) (A) (A) (A) (A) (A) (A) (A) (A) (A)
                 (A) (A) (A) (A) (A) (A) (A) (A) (A) (A) (A) (A)
                 (A) (A) (A) (A) (A) (A) (A) (A) (A) (A) (A) (A)
                 (A) (A) (A) (A) (A) (A) (A) (A) (A) (A) (A) (A)
                 (A) (A) (A) (A) (A) (A) (A) (A) (A) (A) (A) (A)
                 (A) (A) (A) (A) (A) (A) (A) (A) (A) (A) (A) (A)
                 (A) (A) (A) (A) (A) (A) (A) (A) (A) (A) (A) (A)
                 (A) (A) (A) (A) (A) (A) (A) (A) (A) (A) (A) (A)
                 (A) (A) (A) (A) (A) (A) (A) (A) (A) (A) (A) (A)
                 (A) (A) (A) (A) (A) (A) (A) (A) (A) (A) (A) (A)
                 (A) (A) (A) (A) (A) (A) (A) (A) (A) (A) (A) (A)
                 (A) (A) (A) (A) (A) (A) (A) (A) (A) (A) (A) (A)
                 (A) (A) (A) (A) (A) (A) (A) (A) (A) (A) (A) (A)
                 (A) (A) (A) (A) (A) (A) (A) (A) (A) (A) (A) (A)
                 (A) (A) (A) (A) (A) (A) (A) (A) (A) (A) (A) (A)
                 (A) (A) (A) (A) (A) (A) (A) (A) (A) (A) (A) (A)
                 (A) (A) (A) (A) (A) (A) (A) (A) (A) (A) (A) (A)
                 (A) (A) (A) (A) (A) (A) (A) (A) (A) (A) (A) (A)
                 (A) (A) (A) (A) (A) (A) (A) (A) (A) (A) (A) (A)
                 (A) (A) (A) (A) (A) (A) (A) (A) (A) (A) (A) (A)
                 (A) (A) (A) (A) (A) (A) (A) (A) (A) (A) (A) (A)
                 (A) (A) (A) (A) (A) (A) (A) (A) (A) (A) (A) (A)
                 (A) (A) (A) (A) (A) (A) (A) (A) (A) (A) (A) (A)
                 (A) (A) (A) (A) (A) (A) (A) (A) (A) (A) (A) (A)
                 (A) (A) (A) (A) (A) (A) (A) (A) (A) (A) (A) (A)
                 (A) (A) (A) (A) (A) (A) (A) (A) (A) (A) (A) (A)
                 (A) (A) (A) (A) (A) (A) (A) (A) (A) (A) (A) (A)
                 (A) (A) (A) (A) (A) (A) (A) (A) (A) (A) (A) (A)
                 (A) (A) (A) (A) (A) (A) (A) (A) (A) (A) (A) (A)
                 (A) (A) (A) (A) (A) (A) (A) (A) (A) (A) (A) (A)
                 (A) (A) (A) (A) (A) (A) (A) (A) (A) (A) (A) (A)
                 (A) (A) (A) (A) (A) (A) (A) (A) (A) (A) (A) (A)
                 (A) (A) (A) (A) (A) (A) (A) (A) (A) (A) (A) (A)
                 (A) (A) (A) (A) (A) (A) (A) (A) (A) (A) (A) (A)
                 (A) (A) (A) (A) (A) (A) (A) (A) (A) (A) (A) (A)
                 (A) (A) (A) (A) (A) (A) (A) (A) (A) (A) (A) (A)
                 (A) (A) (A) (A) (A) (A) (A) (A) (A) (A) (A) (A)
[...]
  Beta virt. eigenvalues --    5.18675   5.19249   5.19431   5.20140   5.20742
  Beta virt. eigenvalues --    5.21135   5.21586   5.21971   5.22135   5.22709
  Beta virt. eigenvalues --    5.23152   5.23244   5.23646   5.24174   5.24349
  Beta virt. eigenvalues --    5.24565   5.25038   5.25245   5.25731   5.26122
  Beta virt. eigenvalues --    5.26280   5.26477   5.26783   5.26967   5.27246
  Beta virt. eigenvalues --    5.27356   5.27628   5.27979   5.28352   5.28682
  Beta virt. eigenvalues --    5.28939   5.29163   5.29442   5.29832   5.29947
  Beta virt. eigenvalues --    5.30018   5.30197   5.30775   5.30957   5.31075
  Beta virt. eigenvalues --    5.31354   5.31623   5.31823   5.31987   5.32616
  Beta virt. eigenvalues --    5.32900   5.33203   5.33827   5.34073   5.34418
  Beta virt. eigenvalues --    5.34493   5.35039   5.35364   5.35726   5.36150
  Beta virt. eigenvalues --    5.36660   5.37016   5.37265   5.37668   5.37769
  Beta virt. eigenvalues --    5.38186   5.38467   5.38751   5.38905   5.39153
  Beta virt. eigenvalues --    5.39371   5.39498   5.39830   5.39989   5.40116
  Beta virt. eigenvalues --    5.40429   5.40496   5.41281   5.41765   5.42259
  Beta virt. eigenvalues --    5.42556   5.42615   5.43223   5.43363   5.44294
  Beta virt. eigenvalues --    5.44643   5.44873   5.45644   5.45739   5.46355
  Beta virt. eigenvalues --    5.46446   5.46652   5.46807   5.46901   5.47153
  Beta virt. eigenvalues --    5.47342   5.49129   5.49254   5.49904   5.50239
  Beta virt. eigenvalues --    5.50778   5.51165   5.51799   5.52883   5.53281
  Beta virt. eigenvalues --    5.53455   5.53889   5.53979   5.54353   5.56563
  Beta virt. eigenvalues --    5.56673   5.57171   5.57201   5.57931   5.58046
  Beta virt. eigenvalues --    5.58495   5.58828   5.59103   5.59188   5.59368
  Beta virt. eigenvalues --    5.59422   5.59565   5.60016   5.60182   5.60453
  Beta virt. eigenvalues --    5.60776   5.61227   5.61423   5.61586   5.62407
  Beta virt. eigenvalues --    5.62427   5.62868   5.62954   5.63233   5.63284
  Beta virt. eigenvalues --    5.63983   5.64472   5.64599   5.65012   5.65288
  Beta virt. eigenvalues --    5.65599   5.65812   5.66059   5.66108   5.66425
  Beta virt. eigenvalues --    5.66961   5.67916   5.67950   5.68373   5.68877
  Beta virt. eigenvalues --    5.69431   5.69937   5.70329   5.71225   5.72901
  Beta virt. eigenvalues --    5.73206   5.73679   5.75509   5.77440   5.78164
  Beta virt. eigenvalues --    5.80869   5.83038   5.83141   5.84559   5.84945
  Beta virt. eigenvalues --    5.85387   5.85669   5.86248   5.86574   5.88446
  Beta virt. eigenvalues --    5.89834   5.90145   5.90766   5.91239   5.92182
  Beta virt. eigenvalues --    5.92974   5.93670   5.93951   5.94500   5.95241
  Beta virt. eigenvalues --    5.96188   5.97773   5.98665   5.99187   6.00336
  Beta virt. eigenvalues --    6.00870   6.01987   6.03293   6.03523   6.04135
  Beta virt. eigenvalues --    6.04801   6.06150   6.06638   6.06807   6.06902
  Beta virt. eigenvalues --    6.07872   6.10656   6.11078   6.11925   6.15740
  Beta virt. eigenvalues --    6.16892   6.21424   6.21912   6.22677   6.23523
  Beta virt. eigenvalues --    6.23942   6.25346   6.26358   6.26454   6.26574
  Beta virt. eigenvalues --    6.26928   6.27607   6.28029   6.28520   6.29234
  Beta virt. eigenvalues --    6.30397   6.31052   6.32918   6.33205   6.33696
  Beta virt. eigenvalues --    6.34904   6.35651   6.36244   6.37350   6.39742
  Beta virt. eigenvalues --    6.40203   6.41289   6.42116   6.43826   6.44992
  Beta virt. eigenvalues --    6.45721   6.49052   6.51783   6.52863   6.56240
  Beta virt. eigenvalues --    6.67414   6.70397   6.71126   6.71150   6.72013
  Beta virt. eigenvalues --    6.72366   6.73960   6.75342   6.75440   6.75852
  Beta virt. eigenvalues --    6.75884   6.76612   6.76676   6.80625   6.81652
  Beta virt. eigenvalues --    6.82850   6.82916   6.83085   6.83183   6.83947
  Beta virt. eigenvalues --    6.84638   6.84647   6.85357   6.85451   6.86608
  Beta virt. eigenvalues --    6.87593   6.88905   6.90694   6.91006   6.91252
  Beta virt. eigenvalues --    6.92344   6.92718   6.95472   6.95855   6.97108
  Beta virt. eigenvalues --    6.97816   6.98378   6.98729   6.98774   7.00224
  Beta virt. eigenvalues --    7.00508   7.01200   7.01292   7.01550   7.01890
  Beta virt. eigenvalues --    7.02651   7.05386   7.06580   7.07240   7.08217
  Beta virt. eigenvalues --    7.08623   7.09041   7.09097   7.11325   7.11537
  Beta virt. eigenvalues --    7.15167   7.17812   7.20655   7.23490   7.24274
  Beta virt. eigenvalues --    7.25162   7.26985   7.27246   7.27469   7.27506
  Beta virt. eigenvalues --    7.28250   7.28933   7.29338   7.29649   7.30237
  Beta virt. eigenvalues --    7.30513   7.30575   7.31495   7.32640   7.33700
  Beta virt. eigenvalues --    7.34195   7.34857   7.35538   7.36199   7.36936
  Beta virt. eigenvalues --    7.38983   7.39418   7.41615   7.46004   7.46200
  Beta virt. eigenvalues --    7.46541   7.47422   7.47839   7.50112   7.50976
  Beta virt. eigenvalues --    7.61910   7.62173   8.36377   8.36689   8.45982
  Beta virt. eigenvalues --    8.49172   8.51832   8.53953   8.56255   8.61117
  Beta virt. eigenvalues --    8.76552   8.76752   8.84812   8.85540   8.92880
  Beta virt. eigenvalues --    8.94312   8.95371   8.97919   8.99828   9.00579
  Beta virt. eigenvalues --    9.02809   9.04555  15.86786  22.79664  22.81580
  Beta virt. eigenvalues --   22.83745  22.88610  22.92376  23.01010  23.10968
  Beta virt. eigenvalues --   23.12011  23.12604  23.16412  23.16931  23.17366
  Beta virt. eigenvalues --   23.19876  23.24985  23.27145  23.28174  23.28349
  Beta virt. eigenvalues --   23.30328  23.30790  23.31885  23.31953  23.32962
  Beta virt. eigenvalues --   23.34690  23.35316  23.36544  23.36734  23.39085
  Beta virt. eigenvalues --   23.39629  23.40625  23.41375  23.42222  23.43000
  Beta virt. eigenvalues --   23.44228  23.44284  23.45443  23.47599  23.48991
  Beta virt. eigenvalues --   23.51666  23.54952  23.58075  23.58293  23.58479
  Beta virt. eigenvalues --   23.66156  23.70531  23.76443  23.82043  23.99442
  Beta virt. eigenvalues --   24.09530  24.09584  32.59125  32.63164  33.09847
  Beta virt. eigenvalues --   33.27047  44.18405  44.21242  44.25822  44.26565
  Beta virt. eigenvalues --   44.28838  44.32143  44.32867  44.39003  44.40466
  Beta virt. eigenvalues --   44.45701  44.50199  44.61524  44.62091  57.39162
  Beta virt. eigenvalues --   57.51643  57.56808  57.58603
          Condensed to atoms (all electrons):
          Atomic-Atomic Spin Densities.
 Mulliken charges and spin densities:
               1          2
     1  B    0.344312  -0.002558
     2  N   -0.112542   0.017492
     3  C   -0.063070   0.135477
     4  C    0.260224  -0.037313
     5  C   -0.079152   0.100480
     6  C    0.139979  -0.033503
     7  C   -0.185581   0.345145
     8  C    0.194345   0.003625
     9  O   -0.428533   0.166591
    10  C   -0.406615   0.012495
    11  C    0.076268   0.000923
    12  C   -0.072787  -0.000471
    13  N    0.494546   0.004359
    14  O   -0.325694  -0.010752
    15  O   -0.354086   0.011358
    16  C    0.019923   0.001632
    17  C   -0.061501  -0.000552
    18  C   -0.082611   0.000459
    19  C   -0.074450  -0.000290
    20  N    0.499015   0.000038
    21  O   -0.362275  -0.000134
    22  O   -0.360768   0.000078
    23  C    0.130348  -0.076263
    24  N   -0.091271   0.017788
    25  C   -0.104786   0.154616
    26  C    0.302700  -0.041777
    27  C   -0.080544   0.110451
    28  C   -0.441375  -0.008581
    29  F   -0.231254  -0.000336
    30  C   -0.096101  -0.071890
    31  C   -0.140695   0.113993
    32  C   -0.005837  -0.028120
    33  C   -0.129873   0.027627
    34  C   -0.201090  -0.017042
    35  C    0.216202   0.031308
    36  O   -0.308716   0.004642
    37  C   -0.114908  -0.000187
    38  C   -0.106512   0.000024
    39  O   -0.338913   0.000041
    40  C   -0.039351  -0.000003
    41  C   -0.110272   0.000005
    42  O   -0.341269   0.000000
    43  C   -0.085100   0.000000
    44  C   -0.081245  -0.000000
    45  O   -0.350817  -0.000000
    46  C   -0.203016   0.000000
    47  C   -0.164404  -0.016499
    48  C   -0.198393   0.033364
    49  C   -0.410714  -0.002314
    50  F   -0.231125  -0.000292
    51  C   -0.097382  -0.073728
    52  C   -0.106231   0.101771
    53  C    0.006821  -0.024318
    54  C   -0.128998   0.023928
    55  C   -0.198018  -0.015165
    56  C    0.220833   0.027411
    57  O   -0.301234   0.003987
    58  C   -0.142972  -0.000014
    59  C   -0.101624  -0.000073
    60  O   -0.352220   0.000056
    61  C   -0.073150  -0.000003
    62  C   -0.106346   0.000007
    63  O   -0.352007   0.000000
    64  C   -0.038496  -0.000001
    65  C   -0.076975   0.000000
    66  O   -0.354653   0.000000
    67  C   -0.197810   0.000000
    68  C   -0.171146  -0.014441
    69  C   -0.205131   0.029417
    70  F   -0.363186   0.000465
    71  F   -0.345023   0.000722
    72  H    0.227482  -0.002658
    73  H    0.175824  -0.004551
    74  H    0.211184  -0.000063
    75  H    0.199886  -0.000040
    76  H    0.153636  -0.000098
    77  H    0.145227   0.004369
    78  H    0.137462   0.001780
    79  H    0.150762  -0.001310
    80  H    0.142226   0.002094
    81  H    0.112569  -0.006064
    82  H    0.141019  -0.000724
    83  H    0.155890   0.000264
    84  H    0.144871   0.000217
    85  H    0.156410   0.000052
    86  H    0.129372   0.000006
    87  H    0.150812   0.000122
    88  H    0.121810   0.000004
    89  H    0.118542   0.000001
    90  H    0.130454  -0.000000
    91  H    0.121793  -0.000001
    92  H    0.125842  -0.000000
    93  H    0.139590  -0.000000
    94  H    0.127656   0.000000
    95  H    0.124323   0.000000
    96  H    0.119715  -0.000000
    97  H    0.124039  -0.000000
    98  H    0.136847   0.000000
    99  H    0.150486   0.000131
   100  H    0.143560  -0.001275
   101  H    0.137961   0.003553
   102  H    0.134397   0.000788
   103  H    0.121541   0.000700
   104  H    0.092947   0.004173
   105  H    0.098584  -0.005601
   106  H    0.139713  -0.000609
   107  H    0.154043   0.000244
   108  H    0.155609   0.000196
   109  H    0.159273  -0.000000
   110  H    0.158458   0.000130
   111  H    0.143346  -0.000022
   112  H    0.125706   0.000003
   113  H    0.135293   0.000000
   114  H    0.130249   0.000001
   115  H    0.126104  -0.000004
   116  H    0.118389   0.000000
   117  H    0.115120  -0.000000
   118  H    0.127681  -0.000000
   119  H    0.116544  -0.000000
   120  H    0.120145  -0.000000
   121  H    0.122106  -0.000000
   122  H    0.137645   0.000000
   123  H    0.144441   0.000087
   124  H    0.149748  -0.001053
 Sum of Mulliken charges =  -1.00000   1.00000
 Mulliken charges and spin densities with hydrogens summed into heavy atoms:
               1          2
     1  B    0.344312  -0.002558
     2  N   -0.112542   0.017492
     3  C   -0.063070   0.135477
     4  C    0.260224  -0.037313
     5  C   -0.079152   0.100480
     6  C    0.139979  -0.033503
     7  C   -0.185581   0.345145
     8  C    0.194345   0.003625
     9  O   -0.428533   0.166591
    10  C   -0.003309   0.005286
    11  C    0.076268   0.000923
    12  C   -0.072787  -0.000471
    13  N    0.494546   0.004359
    14  O   -0.325694  -0.010752
    15  O   -0.354086   0.011358
    16  C    0.231107   0.001568
    17  C   -0.061501  -0.000552
    18  C    0.117274   0.000420
    19  C    0.079186  -0.000387
    20  N    0.499015   0.000038
    21  O   -0.362275  -0.000134
    22  O   -0.360768   0.000078
    23  C    0.130348  -0.076263
    24  N   -0.091271   0.017788
    25  C   -0.104786   0.154616
    26  C    0.302700  -0.041777
    27  C   -0.080544   0.110451
    28  C   -0.007924  -0.003742
    29  F   -0.231254  -0.000336
    30  C    0.046125  -0.069795
    31  C   -0.028126   0.107929
    32  C   -0.005837  -0.028120
    33  C    0.011146   0.026902
    34  C   -0.045200  -0.016778
    35  C    0.216202   0.031308
    36  O   -0.308716   0.004642
    37  C    0.186373   0.000082
    38  C    0.173672   0.000152
    39  O   -0.338913   0.000041
    40  C    0.201001   0.000002
    41  C    0.141976   0.000004
    42  O   -0.341269   0.000000
    43  C    0.180332   0.000000
    44  C    0.170735  -0.000000
    45  O   -0.350817  -0.000000
    46  C    0.177584   0.000000
    47  C   -0.013918  -0.016368
    48  C   -0.054833   0.032090
    49  C   -0.016816   0.002727
    50  F   -0.231125  -0.000292
    51  C   -0.004435  -0.069555
    52  C   -0.007647   0.096170
    53  C    0.006821  -0.024318
    54  C    0.010715   0.023318
    55  C   -0.043975  -0.014921
    56  C    0.220833   0.027411
    57  O   -0.301234   0.003987
    58  C    0.171910   0.000181
    59  C    0.200180   0.000035
    60  O   -0.352220   0.000056
    61  C    0.187849  -0.000000
    62  C    0.150007   0.000004
    63  O   -0.352007   0.000000
    64  C    0.195013  -0.000001
    65  C    0.167250   0.000000
    66  O   -0.354653   0.000000
    67  C    0.182086  -0.000000
    68  C   -0.026705  -0.014353
    69  C   -0.055382   0.028364
    70  F   -0.363186   0.000465
    71  F   -0.345023   0.000722
 Electronic spatial extent (au):  <R**2>=         132926.6591
 Charge=             -1.0000 electrons
 Dipole moment (field-independent basis, Debye):
    X=             15.3237    Y=              8.2006    Z=             -2.3375  Tot=             17.5365
 Quadrupole moment (field-independent basis, Debye-Ang):
   XX=           -477.8132   YY=           -369.7252   ZZ=           -452.7501
   XY=            -47.1556   XZ=             17.0154   YZ=             56.8881
 Traceless Quadrupole moment (field-independent basis, Debye-Ang):
   XX=            -44.3837   YY=             63.7043   ZZ=            -19.3206
   XY=            -47.1556   XZ=             17.0154   YZ=             56.8881
 Octapole moment (field-independent basis, Debye-Ang**2):
  XXX=           -185.3339  YYY=            301.6124  ZZZ=            -24.3414  XYY=           1020.5826
  XXY=            430.6935  XXZ=           -605.9145  XZZ=            531.5873  YZZ=            187.7279
  YYZ=            -38.8515  XYZ=             93.1987
 Hexadecapole moment (field-independent basis, Debye-Ang**3):
 XXXX=        -118044.3577 YYYY=         -46890.3304 ZZZZ=         -12487.8089 XXXY=          -4133.2407
 XXXZ=           4105.8757 YYYX=             50.7993 YYYZ=           2504.0912 ZZZX=           2533.3149
 ZZZY=           1430.4324 XXYY=         -23926.2999 XXZZ=         -22348.2549 YYZZ=         -11135.9774
 XXYZ=           4245.3013 YYXZ=            -38.6470 ZZXY=           -461.4974
 N-N= 1.010771485970D+04 E-N=-2.849261155656D+04  KE= 3.502004552092D+03
 Leave Link  601 at Thu Nov  6 00:45:25 2025, MaxMem= 30870077440 cpu:             383.6 elap:               6.7
 (Enter /public/software/gauss/g16/l9999.exe)
 1\1\GINC-CU161\SP\UM062X\def2TZVPP\C49H53B1F4N4O13(1-,2)\BAIDING\06-No
 v-2025\0\\#p M062X/DEF2TZVPP scrf=(solvent=water) em=GD3\\Energy calcu
 lation for BE_F_reduced\\-1,2\B,0,2.784025,0.032068,-1.166161\N,0,3.22
 2747,1.449005,-1.612151\C,0,2.415773,2.505869,-2.014036\C,0,3.296725,3
 .497232,-2.468793\C,0,4.626179,3.122026,-2.316694\C,0,4.554336,1.81952
 5,-1.756405\C,0,5.594991,0.883029,-1.393167\C,0,6.754916,1.386103,-0.6
 76052\O,0,6.98218,2.605455,-0.531565\C,0,7.689411,0.418652,0.068791\C,
 0,8.280624,1.02428,1.320707\C,0,7.542513,1.571438,2.392698\N,0,6.07570
 6,1.576545,2.397779\O,0,5.478615,0.730694,1.726843\O,0,5.500979,2.4209
 61,3.091446\C,0,8.143454,2.131434,3.515124\C,0,9.529106,2.128257,3.584
 498\C,0,10.312903,1.601083,2.560477\C,0,9.677595,1.067725,1.446094\N,0
 ,10.174999,2.696144,4.765294\O,0,9.460304,3.149554,5.663063\O,0,11.407
 909,2.695937,4.810266\C,0,5.285287,-0.516292,-1.518148\N,0,3.962878,-0
 .926859,-1.472278\C,0,3.896777,-2.300428,-1.664508\C,0,5.222572,-2.710
 551,-1.876914\C,0,6.107305,-1.642913,-1.811888\C,0,7.555241,-1.729664,
 -2.19116\F,0,5.590948,-3.977161,-2.180929\C,0,2.688679,-3.074881,-1.61
 6847\C,0,2.63015,-4.432625,-1.695675\C,0,1.425186,-5.252259,-1.647815\
 C,0,1.551527,-6.655134,-1.752743\C,0,0.44669,-7.493378,-1.709473\C,0,-
 0.839315,-6.955383,-1.55664\O,0,-1.864078,-7.871163,-1.538534\C,0,-3.2
 2122,-7.429129,-1.378602\C,0,-3.559932,-7.199716,0.097213\O,0,-4.92179
 2,-6.813631,0.258144\C,0,-5.837773,-7.910518,0.316218\C,0,-7.231643,-7
 .362602,0.561987\O,0,-7.349686,-6.677716,1.811744\C,0,-7.608923,-7.523
 68,2.936577\C,0,-9.089461,-7.852493,3.094483\O,0,-9.92994,-6.705429,3.
 211909\C,0,-9.841093,-6.052248,4.473738\C,0,-0.995912,-5.565699,-1.447
 9\C,0,0.121817,-4.737207,-1.495089\C,0,5.793808,3.92145,-2.810887\F,0,
 2.884927,4.676222,-2.989687\C,0,0.997472,2.70414,-1.911135\C,0,0.06505
 6,1.99013,-1.227157\C,0,-1.361777,2.289862,-1.151993\C,0,-2.183081,1.4
 84877,-0.331747\C,0,-3.545629,1.716546,-0.208727\C,0,-4.147853,2.77107
 3,-0.91045\O,0,-5.504738,2.897046,-0.737787\C,0,-6.207315,3.995141,-1.
 343609\C,0,-6.062054,5.287268,-0.551801\O,0,-6.545379,5.156453,0.78807
 4\C,0,-7.952597,5.369156,0.93734\C,0,-8.232988,6.843099,1.242265\O,0,-
 9.615707,7.088377,1.495758\C,0,-10.413464,7.230968,0.32036\C,0,-11.811
 423,7.63696,0.782444\O,0,-12.734123,7.725838,-0.297964\C,0,-12.629192,
 8.935477,-1.045035\C,0,-3.357762,3.58723,-1.733568\C,0,-1.991775,3.341
 116,-1.84806\F,0,1.662547,-0.367912,-1.911547\F,0,2.45782,0.008803,0.2
 03989\H,0,7.174408,-0.510664,0.316257\H,0,8.522146,0.165663,-0.591673\
 H,0,7.544206,2.546099,4.313141\H,0,11.392703,1.614064,2.633993\H,0,10.
 281084,0.670355,0.637628\H,0,8.201631,-2.00478,-1.350499\H,0,7.68705,-
 2.497433,-2.960043\H,0,7.918586,-0.782097,-2.596632\H,0,1.77352,-2.503
 962,-1.515631\H,0,3.555593,-4.991363,-1.802944\H,0,2.541312,-7.087946,
 -1.871292\H,0,0.558827,-8.569738,-1.79384\H,0,-3.416198,-6.528763,-1.9
 6956\H,0,-3.827345,-8.240757,-1.787136\H,0,-3.337438,-8.109036,0.67161
 7\H,0,-2.953482,-6.385217,0.504131\H,0,-5.847814,-8.475799,-0.626261\H
 ,0,-5.539355,-8.60218,1.117225\H,0,-7.474457,-6.628235,-0.213012\H,0,-
 7.954072,-8.184738,0.483825\H,0,-7.046488,-8.464689,2.871175\H,0,-7.23
 6987,-6.982692,3.811976\H,0,-9.451425,-8.39257,2.213581\H,0,-9.210938,
 -8.512997,3.967119\H,0,-10.031358,-6.75189,5.300065\H,0,-8.863971,-5.5
 79084,4.634762\H,0,-10.608547,-5.27406,4.484337\H,0,-1.975443,-5.12102
 9,-1.320395\H,0,-0.032505,-3.666659,-1.404549\H,0,6.19671,4.592042,-2.
 045847\H,0,6.611628,3.276251,-3.139516\H,0,5.482701,4.538169,-3.660563
 \H,0,0.680737,3.606416,-2.430671\H,0,0.376994,1.123935,-0.654776\H,0,-
 1.733782,0.662684,0.218815\H,0,-4.163606,1.088453,0.425264\H,0,-5.8874
 9,4.144955,-2.380325\H,0,-7.251749,3.673791,-1.359812\H,0,-5.008721,5.
 56997,-0.468911\H,0,-6.58397,6.088616,-1.090675\H,0,-8.497028,5.039112
 ,0.04502\H,0,-8.284301,4.753328,1.779564\H,0,-7.695155,7.12555,2.15290
 3\H,0,-7.873701,7.481097,0.422685\H,0,-9.975962,7.994137,-0.338207\H,0
 ,-10.475316,6.290692,-0.243999\H,0,-12.199568,6.870625,1.461224\H,0,-1
 1.762296,8.587329,1.332879\H,0,-12.745061,9.81433,-0.395695\H,0,-11.67
 3908,9.017158,-1.578505\H,0,-13.43918,8.927093,-1.778679\H,0,-3.791301
 ,4.410413,-2.288239\H,0,-1.410355,3.987205,-2.49839\\Version=ES64L-G16
 RevA.03\State=2-A\HF=-3520.296065\S2=0.778755\S2-1=0.\S2A=0.750681\RMS
 D=2.733e-09\Dipole=-6.0287935,-3.2263772,-0.9196353\Quadrupole=-32.998
 2062,47.3625808,-14.3643746,-35.0590396,-12.6505133,-42.2949381\PG=C01
  [X(C49H53B1F4N4O13)]\\@


 NATURE GIVES TO EVERY TIME AND SEASON SOME BEAUTY OF ITS OWN.

                                                    --DICKENS
 Job cpu time:       3 days  8 hours 16 minutes 32.4 seconds.
 Elapsed time:       0 days  1 hours 16 minutes 16.0 seconds.
 File lengths (MBytes):  RWF=   9265 Int=      0 D2E=      0 Chk=    600 Scr=      1
 Normal termination of Gaussian 16 at Thu Nov  6 00:45:27 2025.
