 Entering Gaussian System, Link 0=g16
 Input=BE_I_i_sp.gjf
 Output=BE_I_i_sp.log
 Initial command:
 /public/software/gauss/g16/l1.exe "/public/home/baiding/1113_modified_sp/tmp_BE_I_i_sp_1602077/Gau-277654.inp" -scrdir="/public/home/baiding/1113_modified_sp/tmp_BE_I_i_sp_1602077/"
 Entering Link 1 = /public/software/gauss/g16/l1.exe PID=    277655.
  
 Copyright (c) 1988,1990,1992,1993,1995,1998,2003,2009,2016,
            Gaussian, Inc.  All Rights Reserved.
  
 This is part of the Gaussian(R) 16 program.  It is based on
 the Gaussian(R) 09 system (copyright 2009, Gaussian, Inc.),
 the Gaussian(R) 03 system (copyright 2003, Gaussian, Inc.),
 the Gaussian(R) 98 system (copyright 1998, Gaussian, Inc.),
 the Gaussian(R) 94 system (copyright 1995, Gaussian, Inc.),
 the Gaussian 92(TM) system (copyright 1992, Gaussian, Inc.),
 the Gaussian 90(TM) system (copyright 1990, Gaussian, Inc.),
 the Gaussian 88(TM) system (copyright 1988, Gaussian, Inc.),
 the Gaussian 86(TM) system (copyright 1986, Carnegie Mellon
 University), and the Gaussian 82(TM) system (copyright 1983,
 Carnegie Mellon University). Gaussian is a federally registered
 trademark of Gaussian, Inc.
  
 This software contains proprietary and confidential information,
 including trade secrets, belonging to Gaussian, Inc.
  
 This software is provided under written license and may be
 used, copied, transmitted, or stored only in accord with that
 written license.
  
 The following legend is applicable only to US Government
 contracts under FAR:
  
                    RESTRICTED RIGHTS LEGEND
  
 Use, reproduction and disclosure by the US Government is
 subject to restrictions as set forth in subparagraphs (a)
 and (c) of the Commercial Computer Software - Restricted
 Rights clause in FAR 52.227-19.
  
 Gaussian, Inc.
 340 Quinnipiac St., Bldg. 40, Wallingford CT 06492
  
  
 ---------------------------------------------------------------
 Warning -- This program may not be used in any manner that
 competes with the business of Gaussian, Inc. or will provide
 assistance to any competitor of Gaussian, Inc.  The licensee
 of this program is prohibited from giving any competitor of
 Gaussian, Inc. access to this program.  By using this program,
 the user acknowledges that Gaussian, Inc. is engaged in the
 business of creating and licensing software in the field of
 computational chemistry and represents and warrants to the
 licensee that it is not a competitor of Gaussian, Inc. and that
 it will not use this program in any manner prohibited above.
 ---------------------------------------------------------------
  

 Cite this work as:
 Gaussian 16, Revision A.03,
 M. J. Frisch, G. W. Trucks, H. B. Schlegel, G. E. Scuseria, 
 M. A. Robb, J. R. Cheeseman, G. Scalmani, V. Barone, 
 G. A. Petersson, H. Nakatsuji, X. Li, M. Caricato, A. V. Marenich, 
 J. Bloino, B. G. Janesko, R. Gomperts, B. Mennucci, H. P. Hratchian, 
 J. V. Ortiz, A. F. Izmaylov, J. L. Sonnenberg, D. Williams-Young, 
 F. Ding, F. Lipparini, F. Egidi, J. Goings, B. Peng, A. Petrone, 
 T. Henderson, D. Ranasinghe, V. G. Zakrzewski, J. Gao, N. Rega, 
 G. Zheng, W. Liang, M. Hada, M. Ehara, K. Toyota, R. Fukuda, 
 J. Hasegawa, M. Ishida, T. Nakajima, Y. Honda, O. Kitao, H. Nakai, 
 T. Vreven, K. Throssell, J. A. Montgomery, Jr., J. E. Peralta, 
 F. Ogliaro, M. J. Bearpark, J. J. Heyd, E. N. Brothers, K. N. Kudin, 
 V. N. Staroverov, T. A. Keith, R. Kobayashi, J. Normand, 
 K. Raghavachari, A. P. Rendell, J. C. Burant, S. S. Iyengar, 
 J. Tomasi, M. Cossi, J. M. Millam, M. Klene, C. Adamo, R. Cammi, 
 J. W. Ochterski, R. L. Martin, K. Morokuma, O. Farkas, 
 J. B. Foresman, and D. J. Fox, Gaussian, Inc., Wallingford CT, 2016.
 
 ******************************************
 Gaussian 16:  ES64L-G16RevA.03 25-Dec-2016
                14-Nov-2025 
 ******************************************
 %nprocshared=64
 Will use up to   64 processors via shared memory.
 %mem=230GB
 %chk=BE_I_i_sp.chk
 ----------------------------------------------
 #p M062X/DEF2TZVPP scrf=(solvent=water) em=GD3
 ----------------------------------------------
 1/38=1,172=1/1;
 2/12=2,17=6,18=5,40=1/2;
 3/5=44,7=202,11=2,25=1,30=1,70=2201,72=1,74=-55,124=31/1,2,3;
 4//1;
 5/5=2,38=5,53=1/2;
 6/7=2,8=2,9=2,10=2,28=1/1;
 99/5=1,9=1/99;
 Leave Link    1 at Fri Nov 14 03:25:39 2025, MaxMem= 30870077440 cpu:              13.8 elap:               0.2
 (Enter /public/software/gauss/g16/l101.exe)
 -----------------------------
 Energy calculation for BE_I_i
 -----------------------------
 Symbolic Z-matrix:
 Charge =  0 Multiplicity = 1
 B                    -2.06962   0.60044   0.40048 
 N                    -3.2262   -0.43999   0.39452 
 C                    -3.08311  -1.7768    0.14323 
 C                    -4.39749  -2.33079   0.03011 
 C                    -5.33639  -1.31664   0.19516 
 C                    -4.57853  -0.12334   0.42535 
 C                    -4.98215   1.19799   0.66302 
 C                    -6.45271   1.50583   0.78616 
 O                    -7.11119   1.25227   1.77769 
 C                    -8.31795   2.54296  -0.30704 
 C                    -9.24807   1.43931  -0.74311 
 C                    -9.31527   1.07733  -2.09739 
 C                    -10.16003   0.05605  -2.51701 
 C                    -10.94075  -0.5945   -1.56003 
 C                    -10.89983  -0.25549  -0.20765 
 C                    -10.04362   0.76537   0.19384 
 N                    -11.83491  -1.66671  -1.99056 
 O                    -11.86964  -1.95682  -3.19049 
 O                    -12.51903  -2.23985  -1.13691 
 C                    -4.05423   2.23271   0.85128 
 N                    -2.6831    1.99687   0.7158 
 C                    -2.01144   3.15348   1.00624 
 C                    -2.98779   4.13898   1.35563 
 C                    -4.25917   3.59397   1.2529 
 C                    -5.55867   4.28405   1.52395 
 C                    -0.59379   3.39655   0.98861 
 C                     0.38274   2.69723   0.35103 
 C                     1.80485   3.00195   0.3733 
 C                     2.38042   4.05653   1.12185 
 C                     3.74396   4.28803   1.09895 
 C                     4.59285   3.4717    0.32661 
 O                     5.91864   3.78189   0.37979 
 C                     6.84429   2.99302  -0.38626 
 C                     8.23792   3.53436  -0.1206 
 O                     8.4238    4.88416  -0.53079 
 C                     8.58595   5.05351  -1.94001 
 C                     9.01346   6.48662  -2.20048 
 O                     10.29262   6.78022  -1.63084 
 C                     11.35655   6.95955  -2.56458 
 C                     11.79074   5.68367  -3.28299 
 O                     12.09237   4.59189  -2.41864 
 C                     13.26267   4.78065  -1.63064 
 C                     4.04985   2.42002  -0.42377 
 C                     2.67479   2.20026  -0.39147 
 C                    -6.82508  -1.44767   0.14785 
 C                    -1.76828  -2.36409   0.07232 
 C                    -1.43255  -3.5173   -0.56129 
 C                    -0.0996   -4.09736  -0.64533 
 C                     0.07435  -5.2818   -1.38655 
 C                     1.31717  -5.89732  -1.51926 
 C                     2.43456  -5.32447  -0.89756 
 O                     3.6994   -5.83037  -0.95706 
 C                     3.9218   -7.04182  -1.69743 
 C                     5.3917   -7.37806  -1.60972 
 O                     5.70188  -7.73788  -0.26507 
 C                     7.06727  -8.10146  -0.0639 
 C                     7.96022  -6.87747   0.15848 
 O                     9.31157  -7.28362   0.39431 
 C                     9.62721  -7.52967   1.76547 
 C                     10.12826  -6.25518   2.43761 
 O                     10.44816  -6.57289   3.78562 
 C                     10.93325  -5.44634   4.50272 
 C                     2.28589  -4.14081  -0.14976 
 C                     1.04508  -3.54094  -0.02692 
 F                    -1.12589   0.27063   1.37913 
 F                    -1.46139   0.59889  -0.86575 
 H                    -8.56435   2.90746   0.6899 
 H                    -8.32793   3.36946  -1.01783 
 H                    -8.70525   1.60145  -2.82649 
 H                    -10.22158  -0.22994  -3.55914 
 H                    -11.52173  -0.7799    0.50647 
 H                    -9.99199   1.04131   1.24164 
 H                    -6.19567   3.6992    2.19272 
 H                    -5.38005   5.25144   1.9965 
 H                    -6.11786   4.46142   0.5992 
 H                    -0.31835   4.29653   1.53008 
 H                     0.11065   1.84674  -0.26286 
 H                     1.75423   4.70068   1.73072 
 H                     4.183     5.09665   1.6747 
 H                     6.80145   1.94384  -0.06936 
 H                     6.58474   3.04516  -1.44957 
 H                     8.43243   3.51472   0.95648 
 H                     8.96418   2.87187  -0.61316 
 H                     9.33943   4.34824  -2.31535 
 H                     7.64361   4.86504  -2.47506 
 H                     9.00773   6.67358  -3.2811 
 H                     8.2853    7.1654   -1.73899 
 H                     11.08582   7.70314  -3.32936 
 H                     12.18502   7.3732   -1.98174 
 H                     10.99011   5.32516  -3.93723 
 H                     12.65849   5.92892  -3.91589 
 H                     13.47127   3.82803  -1.1367 
 H                     14.12524   5.05455  -2.25478 
 H                     13.12843   5.55048  -0.85999 
 H                     4.68078   1.77686  -1.02475 
 H                     2.25972   1.38254  -0.97442 
 H                    -7.27177  -1.32854   1.13998 
 H                    -7.26982  -0.69534  -0.50943 
 H                    -7.1069   -2.43071  -0.23327 
 H                    -0.99281  -1.7771    0.55065 
 H                    -2.20082  -4.07477  -1.08752 
 H                    -0.78814  -5.7306   -1.87181 
 H                     1.40316  -6.80775  -2.09955 
 H                     3.31735  -7.85341  -1.27585 
 H                     3.64353  -6.89949  -2.7481 
 H                     5.59729  -8.21816  -2.28907 
 H                     5.98787  -6.5185   -1.94349 
 H                     7.08859  -8.73926   0.82582 
 H                     7.44383  -8.68984  -0.91207 
 H                     7.97532  -6.243    -0.73314 
 H                     7.57089  -6.27933   0.99155 
 H                     8.76279  -7.92737   2.3115 
 H                     10.41511  -8.28993   1.78323 
 H                     11.01454  -5.87759   1.90467 
 H                     9.3559   -5.47119   2.39857 
 H                     11.15184  -5.7763    5.52154 
 H                     11.8528  -5.04663   4.05125 
 H                     10.18596  -4.64054   4.54039 
 H                     3.16247  -3.71207   0.32554 
 H                     0.96398  -2.62941   0.55652 
 O                    -6.92008   2.0983   -0.31905 
 I                    -4.89779  -4.35251  -0.17078 
 I                    -2.55283   6.11878   1.87063 
 
 ITRead=  0  0  0  0  0  0  0  0  0  0  0  0  0  0  0  0  0  0  0  0
 ITRead=  0  0  0  0  0  0  0  0  0  0  0  0  0  0  0  0  0  0  0  0
 ITRead=  0  0  0  0  0  0  0  0  0  0  0  0  0  0  0  0  0  0  0  0
 ITRead=  0  0  0  0  0  0  0  0  0  0  0  0  0  0  0  0  0  0  0  0
 ITRead=  0  0  0  0  0  0  0  0  0  0  0  0  0  0  0  0  0  0  0  0
 ITRead=  0  0  0  0  0  0  0  0  0  0  0  0  0  0  0  0  0  0  0  0
 ITRead=  0  0  0
 MicOpt= -1 -1 -1 -1 -1 -1 -1 -1 -1 -1 -1 -1 -1 -1 -1 -1 -1 -1 -1 -1
 MicOpt= -1 -1 -1 -1 -1 -1 -1 -1 -1 -1 -1 -1 -1 -1 -1 -1 -1 -1 -1 -1
 MicOpt= -1 -1 -1 -1 -1 -1 -1 -1 -1 -1 -1 -1 -1 -1 -1 -1 -1 -1 -1 -1
 MicOpt= -1 -1 -1 -1 -1 -1 -1 -1 -1 -1 -1 -1 -1 -1 -1 -1 -1 -1 -1 -1
 MicOpt= -1 -1 -1 -1 -1 -1 -1 -1 -1 -1 -1 -1 -1 -1 -1 -1 -1 -1 -1 -1
 MicOpt= -1 -1 -1 -1 -1 -1 -1 -1 -1 -1 -1 -1 -1 -1 -1 -1 -1 -1 -1 -1
 MicOpt= -1 -1 -1
 NAtoms=    123 NQM=      123 NQMF=       0 NMMI=      0 NMMIF=      0
                NMic=       0 NMicF=      0.
                    Isotopes and Nuclear Properties:
 (Nuclear quadrupole moments (NQMom) in fm**2, nuclear magnetic moments (NMagM)
  in nuclear magnetons)

  Atom         1           2           3           4           5           6           7           8           9          10
 IAtWgt=          11          14          12          12          12          12          12          12          16          12
 AtmWgt=  11.0093053  14.0030740  12.0000000  12.0000000  12.0000000  12.0000000  12.0000000  12.0000000  15.9949146  12.0000000
 NucSpn=           3           2           0           0           0           0           0           0           0           0
 AtZEff=  -0.0000000  -0.0000000  -0.0000000  -0.0000000  -0.0000000  -0.0000000  -0.0000000  -0.0000000  -0.0000000  -0.0000000
 NQMom=    4.0590000   2.0440000   0.0000000   0.0000000   0.0000000   0.0000000   0.0000000   0.0000000   0.0000000   0.0000000
 NMagM=    2.6886370   0.4037610   0.0000000   0.0000000   0.0000000   0.0000000   0.0000000   0.0000000   0.0000000   0.0000000
 AtZNuc=   5.0000000   7.0000000   6.0000000   6.0000000   6.0000000   6.0000000   6.0000000   6.0000000   8.0000000   6.0000000

  Atom        11          12          13          14          15          16          17          18          19          20
 IAtWgt=          12          12          12          12          12          12          14          16          16          12
 AtmWgt=  12.0000000  12.0000000  12.0000000  12.0000000  12.0000000  12.0000000  14.0030740  15.9949146  15.9949146  12.0000000
 NucSpn=           0           0           0           0           0           0           2           0           0           0
 AtZEff=  -0.0000000  -0.0000000  -0.0000000  -0.0000000  -0.0000000  -0.0000000  -0.0000000  -0.0000000  -0.0000000  -0.0000000
 NQMom=    0.0000000   0.0000000   0.0000000   0.0000000   0.0000000   0.0000000   2.0440000   0.0000000   0.0000000   0.0000000
 NMagM=    0.0000000   0.0000000   0.0000000   0.0000000   0.0000000   0.0000000   0.4037610   0.0000000   0.0000000   0.0000000
 AtZNuc=   6.0000000   6.0000000   6.0000000   6.0000000   6.0000000   6.0000000   7.0000000   8.0000000   8.0000000   6.0000000

  Atom        21          22          23          24          25          26          27          28          29          30
 IAtWgt=          14          12          12          12          12          12          12          12          12          12
 AtmWgt=  14.0030740  12.0000000  12.0000000  12.0000000  12.0000000  12.0000000  12.0000000  12.0000000  12.0000000  12.0000000
 NucSpn=           2           0           0           0           0           0           0           0           0           0
 AtZEff=  -0.0000000  -0.0000000  -0.0000000  -0.0000000  -0.0000000  -0.0000000  -0.0000000  -0.0000000  -0.0000000  -0.0000000
 NQMom=    2.0440000   0.0000000   0.0000000   0.0000000   0.0000000   0.0000000   0.0000000   0.0000000   0.0000000   0.0000000
 NMagM=    0.4037610   0.0000000   0.0000000   0.0000000   0.0000000   0.0000000   0.0000000   0.0000000   0.0000000   0.0000000
 AtZNuc=   7.0000000   6.0000000   6.0000000   6.0000000   6.0000000   6.0000000   6.0000000   6.0000000   6.0000000   6.0000000

  Atom        31          32          33          34          35          36          37          38          39          40
 IAtWgt=          12          16          12          12          16          12          12          16          12          12
 AtmWgt=  12.0000000  15.9949146  12.0000000  12.0000000  15.9949146  12.0000000  12.0000000  15.9949146  12.0000000  12.0000000
 NucSpn=           0           0           0           0           0           0           0           0           0           0
 AtZEff=  -0.0000000  -0.0000000  -0.0000000  -0.0000000  -0.0000000  -0.0000000  -0.0000000  -0.0000000  -0.0000000  -0.0000000
 NQMom=    0.0000000   0.0000000   0.0000000   0.0000000   0.0000000   0.0000000   0.0000000   0.0000000   0.0000000   0.0000000
 NMagM=    0.0000000   0.0000000   0.0000000   0.0000000   0.0000000   0.0000000   0.0000000   0.0000000   0.0000000   0.0000000
 AtZNuc=   6.0000000   8.0000000   6.0000000   6.0000000   8.0000000   6.0000000   6.0000000   8.0000000   6.0000000   6.0000000

  Atom        41          42          43          44          45          46          47          48          49          50
 IAtWgt=          16          12          12          12          12          12          12          12          12          12
 AtmWgt=  15.9949146  12.0000000  12.0000000  12.0000000  12.0000000  12.0000000  12.0000000  12.0000000  12.0000000  12.0000000
 NucSpn=           0           0           0           0           0           0           0           0           0           0
 AtZEff=  -0.0000000  -0.0000000  -0.0000000  -0.0000000  -0.0000000  -0.0000000  -0.0000000  -0.0000000  -0.0000000  -0.0000000
 NQMom=    0.0000000   0.0000000   0.0000000   0.0000000   0.0000000   0.0000000   0.0000000   0.0000000   0.0000000   0.0000000
 NMagM=    0.0000000   0.0000000   0.0000000   0.0000000   0.0000000   0.0000000   0.0000000   0.0000000   0.0000000   0.0000000
 AtZNuc=   8.0000000   6.0000000   6.0000000   6.0000000   6.0000000   6.0000000   6.0000000   6.0000000   6.0000000   6.0000000

  Atom        51          52          53          54          55          56          57          58          59          60
 IAtWgt=          12          16          12          12          16          12          12          16          12          12
 AtmWgt=  12.0000000  15.9949146  12.0000000  12.0000000  15.9949146  12.0000000  12.0000000  15.9949146  12.0000000  12.0000000
 NucSpn=           0           0           0           0           0           0           0           0           0           0
 AtZEff=  -0.0000000  -0.0000000  -0.0000000  -0.0000000  -0.0000000  -0.0000000  -0.0000000  -0.0000000  -0.0000000  -0.0000000
 NQMom=    0.0000000   0.0000000   0.0000000   0.0000000   0.0000000   0.0000000   0.0000000   0.0000000   0.0000000   0.0000000
 NMagM=    0.0000000   0.0000000   0.0000000   0.0000000   0.0000000   0.0000000   0.0000000   0.0000000   0.0000000   0.0000000
 AtZNuc=   6.0000000   8.0000000   6.0000000   6.0000000   8.0000000   6.0000000   6.0000000   8.0000000   6.0000000   6.0000000

  Atom        61          62          63          64          65          66          67          68          69          70
 IAtWgt=          16          12          12          12          19          19           1           1           1           1
 AtmWgt=  15.9949146  12.0000000  12.0000000  12.0000000  18.9984033  18.9984033   1.0078250   1.0078250   1.0078250   1.0078250
 NucSpn=           0           0           0           0           1           1           1           1           1           1
 AtZEff=  -0.0000000  -0.0000000  -0.0000000  -0.0000000  -0.0000000  -0.0000000  -0.0000000  -0.0000000  -0.0000000  -0.0000000
 NQMom=    0.0000000   0.0000000   0.0000000   0.0000000   0.0000000   0.0000000   0.0000000   0.0000000   0.0000000   0.0000000
 NMagM=    0.0000000   0.0000000   0.0000000   0.0000000   2.6288670   2.6288670   2.7928460   2.7928460   2.7928460   2.7928460
 AtZNuc=   8.0000000   6.0000000   6.0000000   6.0000000   9.0000000   9.0000000   1.0000000   1.0000000   1.0000000   1.0000000

  Atom        71          72          73          74          75          76          77          78          79          80
 IAtWgt=           1           1           1           1           1           1           1           1           1           1
 AtmWgt=   1.0078250   1.0078250   1.0078250   1.0078250   1.0078250   1.0078250   1.0078250   1.0078250   1.0078250   1.0078250
 NucSpn=           1           1           1           1           1           1           1           1           1           1
 AtZEff=  -0.0000000  -0.0000000  -0.0000000  -0.0000000  -0.0000000  -0.0000000  -0.0000000  -0.0000000  -0.0000000  -0.0000000
 NQMom=    0.0000000   0.0000000   0.0000000   0.0000000   0.0000000   0.0000000   0.0000000   0.0000000   0.0000000   0.0000000
 NMagM=    2.7928460   2.7928460   2.7928460   2.7928460   2.7928460   2.7928460   2.7928460   2.7928460   2.7928460   2.7928460
 AtZNuc=   1.0000000   1.0000000   1.0000000   1.0000000   1.0000000   1.0000000   1.0000000   1.0000000   1.0000000   1.0000000

  Atom        81          82          83          84          85          86          87          88          89          90
 IAtWgt=           1           1           1           1           1           1           1           1           1           1
 AtmWgt=   1.0078250   1.0078250   1.0078250   1.0078250   1.0078250   1.0078250   1.0078250   1.0078250   1.0078250   1.0078250
 NucSpn=           1           1           1           1           1           1           1           1           1           1
 AtZEff=  -0.0000000  -0.0000000  -0.0000000  -0.0000000  -0.0000000  -0.0000000  -0.0000000  -0.0000000  -0.0000000  -0.0000000
 NQMom=    0.0000000   0.0000000   0.0000000   0.0000000   0.0000000   0.0000000   0.0000000   0.0000000   0.0000000   0.0000000
 NMagM=    2.7928460   2.7928460   2.7928460   2.7928460   2.7928460   2.7928460   2.7928460   2.7928460   2.7928460   2.7928460
 AtZNuc=   1.0000000   1.0000000   1.0000000   1.0000000   1.0000000   1.0000000   1.0000000   1.0000000   1.0000000   1.0000000

  Atom        91          92          93          94          95          96          97          98          99         100
 IAtWgt=           1           1           1           1           1           1           1           1           1           1
 AtmWgt=   1.0078250   1.0078250   1.0078250   1.0078250   1.0078250   1.0078250   1.0078250   1.0078250   1.0078250   1.0078250
 NucSpn=           1           1           1           1           1           1           1           1           1           1
 AtZEff=  -0.0000000  -0.0000000  -0.0000000  -0.0000000  -0.0000000  -0.0000000  -0.0000000  -0.0000000  -0.0000000  -0.0000000
 NQMom=    0.0000000   0.0000000   0.0000000   0.0000000   0.0000000   0.0000000   0.0000000   0.0000000   0.0000000   0.0000000
 NMagM=    2.7928460   2.7928460   2.7928460   2.7928460   2.7928460   2.7928460   2.7928460   2.7928460   2.7928460   2.7928460
 AtZNuc=   1.0000000   1.0000000   1.0000000   1.0000000   1.0000000   1.0000000   1.0000000   1.0000000   1.0000000   1.0000000

  Atom       101         102         103         104         105         106         107         108         109         110
 IAtWgt=           1           1           1           1           1           1           1           1           1           1
 AtmWgt=   1.0078250   1.0078250   1.0078250   1.0078250   1.0078250   1.0078250   1.0078250   1.0078250   1.0078250   1.0078250
 NucSpn=           1           1           1           1           1           1           1           1           1           1
 AtZEff=  -0.0000000  -0.0000000  -0.0000000  -0.0000000  -0.0000000  -0.0000000  -0.0000000  -0.0000000  -0.0000000  -0.0000000
 NQMom=    0.0000000   0.0000000   0.0000000   0.0000000   0.0000000   0.0000000   0.0000000   0.0000000   0.0000000   0.0000000
 NMagM=    2.7928460   2.7928460   2.7928460   2.7928460   2.7928460   2.7928460   2.7928460   2.7928460   2.7928460   2.7928460
 AtZNuc=   1.0000000   1.0000000   1.0000000   1.0000000   1.0000000   1.0000000   1.0000000   1.0000000   1.0000000   1.0000000

  Atom       111         112         113         114         115         116         117         118         119         120
 IAtWgt=           1           1           1           1           1           1           1           1           1           1
 AtmWgt=   1.0078250   1.0078250   1.0078250   1.0078250   1.0078250   1.0078250   1.0078250   1.0078250   1.0078250   1.0078250
 NucSpn=           1           1           1           1           1           1           1           1           1           1
 AtZEff=  -0.0000000  -0.0000000  -0.0000000  -0.0000000  -0.0000000  -0.0000000  -0.0000000  -0.0000000  -0.0000000  -0.0000000
 NQMom=    0.0000000   0.0000000   0.0000000   0.0000000   0.0000000   0.0000000   0.0000000   0.0000000   0.0000000   0.0000000
 NMagM=    2.7928460   2.7928460   2.7928460   2.7928460   2.7928460   2.7928460   2.7928460   2.7928460   2.7928460   2.7928460
 AtZNuc=   1.0000000   1.0000000   1.0000000   1.0000000   1.0000000   1.0000000   1.0000000   1.0000000   1.0000000   1.0000000

  Atom       121         122         123
 IAtWgt=          16         127         127
 AtmWgt=  15.9949146 126.9004000 126.9004000
 NucSpn=           0           5           5
 AtZEff=  -0.0000000  -0.0000000  -0.0000000
 NQMom=    0.0000000 -71.0000000 -71.0000000
 NMagM=    0.0000000   2.8132800   2.8132800
 AtZNuc=   8.0000000  53.0000000  53.0000000
 Leave Link  101 at Fri Nov 14 03:25:39 2025, MaxMem= 30870077440 cpu:               4.6 elap:               0.1
 (Enter /public/software/gauss/g16/l202.exe)
 Stoichiometry    C49H54BF2I2N3O12
 Framework group  C1[X(C49H54BF2I2N3O12)]
 Deg. of freedom   363
 Full point group                 C1      NOp   1
 Largest Abelian subgroup         C1      NOp   1
 Largest concise Abelian subgroup C1      NOp   1
                         Standard orientation:                         
 ---------------------------------------------------------------------
 Center     Atomic      Atomic             Coordinates (Angstroms)
 Number     Number       Type             X           Y           Z
 ---------------------------------------------------------------------
      1          5           0        2.069623   -0.600436    0.400484
      2          7           0        3.226197    0.439989    0.394524
      3          6           0        3.083107    1.776796    0.143229
      4          6           0        4.397487    2.330791    0.030105
      5          6           0        5.336387    1.316640    0.195155
      6          6           0        4.578530    0.123344    0.425352
      7          6           0        4.982154   -1.197990    0.663017
      8          6           0        6.452711   -1.505828    0.786162
      9          8           0        7.111186   -1.252265    1.777689
     10          6           0        8.317952   -2.542963   -0.307044
     11          6           0        9.248073   -1.439309   -0.743114
     12          6           0        9.315272   -1.077326   -2.097389
     13          6           0       10.160025   -0.056052   -2.517012
     14          6           0       10.940750    0.594498   -1.560025
     15          6           0       10.899831    0.255485   -0.207650
     16          6           0       10.043617   -0.765368    0.193835
     17          7           0       11.834906    1.666713   -1.990562
     18          8           0       11.869643    1.956820   -3.190487
     19          8           0       12.519028    2.239852   -1.136905
     20          6           0        4.054234   -2.232712    0.851284
     21          7           0        2.683095   -1.996871    0.715800
     22          6           0        2.011437   -3.153484    1.006240
     23          6           0        2.987792   -4.138984    1.355634
     24          6           0        4.259172   -3.593973    1.252904
     25          6           0        5.558666   -4.284054    1.523953
     26          6           0        0.593785   -3.396550    0.988608
     27          6           0       -0.382744   -2.697228    0.351033
     28          6           0       -1.804846   -3.001945    0.373304
     29          6           0       -2.380422   -4.056530    1.121852
     30          6           0       -3.743960   -4.288032    1.098954
     31          6           0       -4.592849   -3.471699    0.326608
     32          8           0       -5.918644   -3.781893    0.379785
     33          6           0       -6.844285   -2.993017   -0.386261
     34          6           0       -8.237924   -3.534358   -0.120595
     35          8           0       -8.423801   -4.884157   -0.530785
     36          6           0       -8.585952   -5.053512   -1.940007
     37          6           0       -9.013458   -6.486619   -2.200483
     38          8           0      -10.292616   -6.780215   -1.630840
     39          6           0      -11.356545   -6.959552   -2.564584
     40          6           0      -11.790740   -5.683670   -3.282986
     41          8           0      -12.092370   -4.591885   -2.418644
     42          6           0      -13.262670   -4.780649   -1.630637
     43          6           0       -4.049849   -2.420023   -0.423766
     44          6           0       -2.674792   -2.200258   -0.391469
     45          6           0        6.825076    1.447672    0.147852
     46          6           0        1.768281    2.364086    0.072319
     47          6           0        1.432548    3.517304   -0.561285
     48          6           0        0.099603    4.097363   -0.645326
     49          6           0       -0.074348    5.281799   -1.386550
     50          6           0       -1.317169    5.897321   -1.519264
     51          6           0       -2.434564    5.324470   -0.897557
     52          8           0       -3.699401    5.830365   -0.957056
     53          6           0       -3.921804    7.041816   -1.697426
     54          6           0       -5.391701    7.378057   -1.609717
     55          8           0       -5.701882    7.737884   -0.265073
     56          6           0       -7.067274    8.101460   -0.063900
     57          6           0       -7.960223    6.877468    0.158475
     58          8           0       -9.311567    7.283618    0.394305
     59          6           0       -9.627214    7.529668    1.765473
     60          6           0      -10.128263    6.255179    2.437606
     61          8           0      -10.448165    6.572889    3.785618
     62          6           0      -10.933254    5.446341    4.502717
     63          6           0       -2.285894    4.140812   -0.149762
     64          6           0       -1.045084    3.540935   -0.026921
     65          9           0        1.125890   -0.270628    1.379127
     66          9           0        1.461390   -0.598885   -0.865749
     67          1           0        8.564346   -2.907460    0.689897
     68          1           0        8.327925   -3.369459   -1.017832
     69          1           0        8.705247   -1.601452   -2.826485
     70          1           0       10.221585    0.229944   -3.559140
     71          1           0       11.521730    0.779900    0.506470
     72          1           0        9.991989   -1.041311    1.241641
     73          1           0        6.195674   -3.699201    2.192717
     74          1           0        5.380047   -5.251436    1.996503
     75          1           0        6.117861   -4.461417    0.599200
     76          1           0        0.318352   -4.296533    1.530080
     77          1           0       -0.110650   -1.846736   -0.262860
     78          1           0       -1.754228   -4.700677    1.730718
     79          1           0       -4.182997   -5.096651    1.674699
     80          1           0       -6.801445   -1.943841   -0.069356
     81          1           0       -6.584744   -3.045156   -1.449571
     82          1           0       -8.432428   -3.514720    0.956479
     83          1           0       -8.964176   -2.871869   -0.613158
     84          1           0       -9.339431   -4.348242   -2.315349
     85          1           0       -7.643610   -4.865036   -2.475061
     86          1           0       -9.007725   -6.673584   -3.281103
     87          1           0       -8.285303   -7.165402   -1.738986
     88          1           0      -11.085817   -7.703137   -3.329356
     89          1           0      -12.185021   -7.373204   -1.981740
     90          1           0      -10.990110   -5.325155   -3.937228
     91          1           0      -12.658494   -5.928923   -3.915889
     92          1           0      -13.471271   -3.828031   -1.136699
     93          1           0      -14.125244   -5.054554   -2.254777
     94          1           0      -13.128426   -5.550479   -0.859985
     95          1           0       -4.680776   -1.776855   -1.024749
     96          1           0       -2.259725   -1.382536   -0.974419
     97          1           0        7.271775    1.328541    1.139983
     98          1           0        7.269821    0.695342   -0.509428
     99          1           0        7.106904    2.430706   -0.233273
    100          1           0        0.992807    1.777103    0.550653
    101          1           0        2.200818    4.074771   -1.087515
    102          1           0        0.788140    5.730603   -1.871807
    103          1           0       -1.403157    6.807753   -2.099553
    104          1           0       -3.317349    7.853406   -1.275846
    105          1           0       -3.643525    6.899487   -2.748103
    106          1           0       -5.597288    8.218160   -2.289072
    107          1           0       -5.987870    6.518499   -1.943486
    108          1           0       -7.088594    8.739259    0.825820
    109          1           0       -7.443831    8.689842   -0.912065
    110          1           0       -7.975320    6.242998   -0.733140
    111          1           0       -7.570885    6.279328    0.991553
    112          1           0       -8.762785    7.927369    2.311500
    113          1           0      -10.415108    8.289926    1.783225
    114          1           0      -11.014536    5.877589    1.904672
    115          1           0       -9.355899    5.471194    2.398571
    116          1           0      -11.151843    5.776297    5.521543
    117          1           0      -11.852802    5.046627    4.051252
    118          1           0      -10.185957    4.640544    4.540394
    119          1           0       -3.162472    3.712068    0.325542
    120          1           0       -0.963981    2.629412    0.556521
    121          8           0        6.920076   -2.098300   -0.319045
    122         53           0        4.897790    4.352512   -0.170783
    123         53           0        2.552831   -6.118778    1.870634
 ---------------------------------------------------------------------
 Rotational constants (GHZ):           0.0189641           0.0091944           0.0066101
 Leave Link  202 at Fri Nov 14 03:25:39 2025, MaxMem= 30870077440 cpu:               1.6 elap:               0.0
 (Enter /public/software/gauss/g16/l301.exe)
 Standard basis: def2TZVPP (5D, 7F)
 Ernie: Thresh=  0.10000D-02 Tol=  0.10000D-05 Strict=F.
 There are  3340 symmetry adapted cartesian basis functions of A   symmetry.
 There are  2933 symmetry adapted basis functions of A   symmetry.
  2933 basis functions,  4553 primitive gaussians,  3340 cartesian basis functions
   269 alpha electrons      269 beta electrons
       nuclear repulsion energy     10563.2698081966 Hartrees.
 IExCor= 4336 DFT=T Ex+Corr=M062X ExCW=0 ScaHFX=  0.540000
 ScaDFX=  1.000000  1.000000  1.000000  1.000000 ScalE2=  1.000000  1.000000
 IRadAn=      5 IRanWt=     -1 IRanGd=            0 ICorTp=0 IEmpDi=131
 NAtoms=  123 NActive=  123 NUniq=  123 SFac= 1.00D+00 NAtFMM=   60 NAOKFM=T Big=T
 Integral buffers will be    131072 words long.
 Raffenetti 2 integral format.
 Two-electron integral symmetry is turned on.
 R6Disp:  Grimme-D3 Dispersion energy=       -0.0103405244 Hartrees.
 Nuclear repulsion after empirical dispersion term =    10563.2594676723 Hartrees.
 ------------------------------------------------------------------------------
 Polarizable Continuum Model (PCM)
 =================================
 Model                : PCM.
 Atomic radii         : UFF (Universal Force Field).
 Polarization charges : Total charges.
 Charge compensation  : None.
 Solution method      : On-the-fly selection.
 Cavity type          : Scaled VdW (van der Waals Surface) (Alpha=1.100).
 Cavity algorithm     : GePol (No added spheres)
                        Default sphere list used, NSphG=  123.
                        Lebedev-Laikov grids with approx.  5.0 points / Ang**2.
                        Smoothing algorithm: York/Karplus (Gamma=1.0000).
                        Polarization charges: spherical gaussians, with
                                              point-specific exponents (IZeta= 3).
                        Self-potential: point-specific (ISelfS= 7).
                        Self-field    : sphere-specific E.n sum rule (ISelfD= 2).
 Solvent              : Water, Eps=  78.355300 Eps(inf)=   1.777849
 ------------------------------------------------------------------------------
 GePol: Number of generator spheres                  =     123
 GePol: Total number of spheres                      =     123
 GePol: Number of exposed spheres                    =     123 (100.00%)
 GePol: Number of points                             =    8921
 GePol: Average weight of points                     =       0.13
 GePol: Minimum weight of points                     =   0.40D-11
 GePol: Maximum weight of points                     =    0.20577
 GePol: Number of points with low weight             =     579
 GePol: Fraction of low-weight points (<1% of avg)   =       6.49%
 GePol: Cavity surface area                          =   1158.127 Ang**2
 GePol: Cavity volume                                =   1330.046 Ang**3
 Leave Link  301 at Fri Nov 14 03:25:40 2025, MaxMem= 30870077440 cpu:               7.0 elap:               0.1
 (Enter /public/software/gauss/g16/l302.exe)
 NPDir=0 NMtPBC=     1 NCelOv=     1 NCel=       1 NClECP=     1 NCelD=      1
         NCelK=      1 NCelE2=     1 NClLst=     1 CellRange=     0.0.
 One-electron integrals computed using PRISM.
 One-electron integral symmetry used in STVInt
   1 Symmetry operations used in ECPInt.
 ECPInt:  NShTT=  597871 NPrTT= 1684401 LenC2=  248345 LenP2D=  461237.
 LDataN:  DoStor=T MaxTD1= 7 Len=  274
 Number of processors reduced to  34 by ecpmxn.
 NBasis=  2933 RedAO= T EigKep=  4.91D-06  NBF=  2933
 NBsUse=  2933 1.00D-06 EigRej= -1.00D+00 NBFU=  2933
 Precomputing XC quadrature grid using
 IXCGrd= 4 IRadAn=           5 IRanWt=          -1 IRanGd=           0 AccXCQ= 0.00D+00.
 Defaulting to unpruned grid for atomic number  53.
 Defaulting to unpruned grid for atomic number  53.
 Generated NRdTot=       0 NPtTot=           0 NUsed=           0 NTot=          32
 NSgBfM=  2512  2512  2512  2512  2512 MxSgAt=   123 MxSgA2=   123.
 Leave Link  302 at Fri Nov 14 03:26:12 2025, MaxMem= 30870077440 cpu:            2070.1 elap:              32.8
 (Enter /public/software/gauss/g16/l303.exe)
 DipDrv:  MaxL=1.
 Leave Link  303 at Fri Nov 14 03:26:14 2025, MaxMem= 30870077440 cpu:              58.3 elap:               1.0
 (Enter /public/software/gauss/g16/l401.exe)
 ExpMin= 6.06D-02 ExpMax= 3.55D+04 ExpMxC= 1.21D+03 IAcc=3 IRadAn=         5 AccDes= 0.00D+00
 Harris functional with IExCor= 1009 and IRadAn=       5 diagonalized for initial guess.
 HarFok:  IExCor= 1009 AccDes= 0.00D+00 IRadAn=         5 IDoV= 1 UseB2=F ITyADJ=14
 ICtDFT=  3500011 ScaDFX=  1.000000  1.000000  1.000000  1.000000
 Defaulting to unpruned grid for atomic number  53.
 FoFCou: FMM=F IPFlag=           0 FMFlag=      100000 FMFlg1=        2001
         NFxFlg=           0 DoJE=T BraDBF=F KetDBF=T FulRan=T
         wScrn=  0.000000 ICntrl=       500 IOpCl=  0 I1Cent=   200000004 NGrid=           0
         NMat0=    1 NMatS0=      1 NMatT0=    0 NMatD0=    1 NMtDS0=    0 NMtDT0=    0
 Petite list used in FoFCou.
 Harris En= -3785.41363668745    
 JPrj=0 DoOrth=F DoCkMO=F.
 Leave Link  401 at Fri Nov 14 03:26:38 2025, MaxMem= 30870077440 cpu:            1561.8 elap:              24.5
 (Enter /public/software/gauss/g16/l502.exe)
 Integral symmetry usage will be decided dynamically.
 Closed shell SCF:
 Using DIIS extrapolation, IDIIS=  1040.
 NGot= 30870077440 LenX= 30847524429 LenY= 30836365489
 Requested convergence on RMS density matrix=1.00D-08 within 128 cycles.
 Requested convergence on MAX density matrix=1.00D-06.
 Requested convergence on             energy=1.00D-06.
 No special actions if energy rises.
 Fock matrices will be formed incrementally for  20 cycles.

 Cycle   1  Pass 1  IDiag  1:
 FoFJK:  IHMeth= 1 ICntrl=       0 DoSepK=F KAlg= 0 I1Cent=           0 FoldK=F
 IRaf= 370000000 NMat=       1 IRICut=       1 DoRegI=T DoRafI=F ISym2E= 0 IDoP0=0 IntGTp=1.
 FoFCou: FMM=T IPFlag=           0 FMFlag=      100000 FMFlg1=        2001
         NFxFlg=           0 DoJE=F BraDBF=F KetDBF=F FulRan=T
         wScrn=  0.000000 ICntrl=         0 IOpCl=  0 I1Cent=           0 NGrid=           0
         NMat0=    1 NMatS0=      1 NMatT0=    0 NMatD0=    1 NMtDS0=    0 NMtDT0=    0
 Symmetry not used in FoFCou.
 FMM levels:  10  Number of levels for PrismC:   9
 Defaulting to unpruned grid for atomic number  53.
 Defaulting to unpruned grid for atomic number  53.
 Defaulting to unpruned grid for atomic number  53.
 Defaulting to unpruned grid for atomic number  53.
 Defaulting to unpruned grid for atomic number  53.
 Defaulting to unpruned grid for atomic number  53.
 Defaulting to unpruned grid for atomic number  53.
 Defaulting to unpruned grid for atomic number  53.
 Defaulting to unpruned grid for atomic number  53.
 Defaulting to unpruned grid for atomic number  53.
 Defaulting to unpruned grid for atomic number  53.
 Defaulting to unpruned grid for atomic number  53.
 Defaulting to unpruned grid for atomic number  53.
 Defaulting to unpruned grid for atomic number  53.
 Defaulting to unpruned grid for atomic number  53.
 Defaulting to unpruned grid for atomic number  53.
 Defaulting to unpruned grid for atomic number  53.
 Defaulting to unpruned grid for atomic number  53.
 Defaulting to unpruned grid for atomic number  53.
 Defaulting to unpruned grid for atomic number  53.
 Defaulting to unpruned grid for atomic number  53.
 Defaulting to unpruned grid for atomic number  53.
 Defaulting to unpruned grid for atomic number  53.
 Defaulting to unpruned grid for atomic number  53.
 Defaulting to unpruned grid for atomic number  53.
 Defaulting to unpruned grid for atomic number  53.
 Defaulting to unpruned grid for atomic number  53.
 Defaulting to unpruned grid for atomic number  53.
 Defaulting to unpruned grid for atomic number  53.
 Defaulting to unpruned grid for atomic number  53.
 Defaulting to unpruned grid for atomic number  53.
 Defaulting to unpruned grid for atomic number  53.
 Defaulting to unpruned grid for atomic number  53.
 Defaulting to unpruned grid for atomic number  53.
 Defaulting to unpruned grid for atomic number  53.
 Defaulting to unpruned grid for atomic number  53.
 Defaulting to unpruned grid for atomic number  53.
 Defaulting to unpruned grid for atomic number  53.
 Defaulting to unpruned grid for atomic number  53.
 Defaulting to unpruned grid for atomic number  53.
 Defaulting to unpruned grid for atomic number  53.
 Defaulting to unpruned grid for atomic number  53.
 Defaulting to unpruned grid for atomic number  53.
 Defaulting to unpruned grid for atomic number  53.
 Defaulting to unpruned grid for atomic number  53.
 Defaulting to unpruned grid for atomic number  53.
 Defaulting to unpruned grid for atomic number  53.
 Defaulting to unpruned grid for atomic number  53.
 Defaulting to unpruned grid for atomic number  53.
 Defaulting to unpruned grid for atomic number  53.
 Defaulting to unpruned grid for atomic number  53.
 Defaulting to unpruned grid for atomic number  53.
 Defaulting to unpruned grid for atomic number  53.
 Defaulting to unpruned grid for atomic number  53.
 Defaulting to unpruned grid for atomic number  53.
 Defaulting to unpruned grid for atomic number  53.
 Defaulting to unpruned grid for atomic number  53.
 Defaulting to unpruned grid for atomic number  53.
 Defaulting to unpruned grid for atomic number  53.
 Defaulting to unpruned grid for atomic number  53.
 Defaulting to unpruned grid for atomic number  53.
 Defaulting to unpruned grid for atomic number  53.
 Defaulting to unpruned grid for atomic number  53.
 Defaulting to unpruned grid for atomic number  53.
 Inv3:  Mode=1 IEnd=   238752723.
 Iteration    1 A*A^-1 deviation from unit magnitude is 1.13D-14 for   8914.
 Iteration    1 A*A^-1 deviation from orthogonality  is 4.14D-15 for   8908   8778.
 Iteration    1 A^-1*A deviation from unit magnitude is 1.11D-14 for   8904.
 Iteration    1 A^-1*A deviation from orthogonality  is 5.59D-14 for   7426   7418.
 E= -3784.90377745561    
 DIIS: error= 2.37D-02 at cycle   1 NSaved=   1.
 NSaved= 1 IEnMin= 1 EnMin= -3784.90377745561     IErMin= 1 ErrMin= 2.37D-02
 ErrMax= 2.37D-02  0.00D+00 EMaxC= 1.00D-01 BMatC= 2.11D+00 BMatP= 2.11D+00
 IDIUse=3 WtCom= 7.63D-01 WtEn= 2.37D-01
 Coeff-Com:  0.100D+01
 Coeff-En:   0.100D+01
 Coeff:      0.100D+01
 Gap=     0.247 Goal=   None    Shift=    0.000
 GapD=    0.247 DampG=1.000 DampE=0.500 DampFc=0.5000 IDamp=-1.
 Damping current iteration by 5.00D-01
 RMSDP=1.54D-03 MaxDP=4.83D-01              OVMax= 2.61D-01

 Cycle   2  Pass 1  IDiag  1:
 RMSU=  7.69D-04    CP:  1.01D+00
 E= -3785.67772122791     Delta-E=       -0.773943772299 Rises=F Damp=T
 DIIS: error= 6.49D-03 at cycle   2 NSaved=   2.
 NSaved= 2 IEnMin= 2 EnMin= -3785.67772122791     IErMin= 2 ErrMin= 6.49D-03
 ErrMax= 6.49D-03  0.00D+00 EMaxC= 1.00D-01 BMatC= 2.15D-01 BMatP= 2.11D+00
 IDIUse=3 WtCom= 9.35D-01 WtEn= 6.49D-02
 Coeff-Com: -0.998D-01 0.110D+01
 Coeff-En:   0.000D+00 0.100D+01
 Coeff:     -0.933D-01 0.109D+01
 Gap=     0.182 Goal=   None    Shift=    0.000
 RMSDP=5.40D-04 MaxDP=1.56D-01 DE=-7.74D-01 OVMax= 2.16D-01

 Cycle   3  Pass 1  IDiag  1:
 RMSU=  5.36D-04    CP:  9.92D-01  1.00D+00
 E= -3786.37968686945     Delta-E=       -0.701965641534 Rises=F Damp=F
 DIIS: error= 1.27D-02 at cycle   3 NSaved=   3.
 NSaved= 3 IEnMin= 3 EnMin= -3786.37968686945     IErMin= 2 ErrMin= 6.49D-03
 ErrMax= 1.27D-02  0.00D+00 EMaxC= 1.00D-01 BMatC= 1.17D-01 BMatP= 2.15D-01
 IDIUse=3 WtCom= 8.73D-01 WtEn= 1.27D-01
 Coeff-Com: -0.126D+00 0.499D+00 0.627D+00
 Coeff-En:   0.000D+00 0.000D+00 0.100D+01
 Coeff:     -0.110D+00 0.436D+00 0.674D+00
 Gap=     0.122 Goal=   None    Shift=    0.000
 RMSDP=2.01D-04 MaxDP=4.36D-02 DE=-7.02D-01 OVMax= 9.31D-02

 Cycle   4  Pass 1  IDiag  1:
 RMSU=  1.75D-04    CP:  9.93D-01  1.09D+00  8.70D-01
 E= -3786.44490572105     Delta-E=       -0.065218851605 Rises=F Damp=F
 DIIS: error= 5.62D-03 at cycle   4 NSaved=   4.
 NSaved= 4 IEnMin= 4 EnMin= -3786.44490572105     IErMin= 4 ErrMin= 5.62D-03
 ErrMax= 5.62D-03  0.00D+00 EMaxC= 1.00D-01 BMatC= 2.88D-02 BMatP= 1.17D-01
 IDIUse=3 WtCom= 9.44D-01 WtEn= 5.62D-02
 Coeff-Com: -0.380D-01 0.947D-01 0.369D+00 0.574D+00
 Coeff-En:   0.000D+00 0.000D+00 0.208D+00 0.792D+00
 Coeff:     -0.359D-01 0.894D-01 0.360D+00 0.587D+00
 Gap=     0.127 Goal=   None    Shift=    0.000
 RMSDP=8.61D-05 MaxDP=1.59D-02 DE=-6.52D-02 OVMax= 2.64D-02

 Cycle   5  Pass 1  IDiag  1:
 RMSU=  4.40D-05    CP:  9.93D-01  1.07D+00  9.25D-01  6.28D-01
 E= -3786.46649670439     Delta-E=       -0.021590983341 Rises=F Damp=F
 DIIS: error= 3.04D-04 at cycle   5 NSaved=   5.
 NSaved= 5 IEnMin= 5 EnMin= -3786.46649670439     IErMin= 5 ErrMin= 3.04D-04
 ErrMax= 3.04D-04  0.00D+00 EMaxC= 1.00D-01 BMatC= 8.64D-04 BMatP= 2.88D-02
 IDIUse=3 WtCom= 9.97D-01 WtEn= 3.04D-03
 Coeff-Com: -0.107D-01 0.198D-01 0.136D+00 0.271D+00 0.584D+00
 Coeff-En:   0.000D+00 0.000D+00 0.000D+00 0.000D+00 0.100D+01
 Coeff:     -0.106D-01 0.197D-01 0.136D+00 0.270D+00 0.585D+00
 Gap=     0.127 Goal=   None    Shift=    0.000
 RMSDP=2.03D-05 MaxDP=5.36D-03 DE=-2.16D-02 OVMax= 7.01D-03

 Cycle   6  Pass 1  IDiag  1:
 RMSU=  1.54D-05    CP:  9.93D-01  1.08D+00  9.20D-01  6.87D-01  9.31D-01
 E= -3786.46717298401     Delta-E=       -0.000676279618 Rises=F Damp=F
 DIIS: error= 1.93D-04 at cycle   6 NSaved=   6.
 NSaved= 6 IEnMin= 6 EnMin= -3786.46717298401     IErMin= 6 ErrMin= 1.93D-04
 ErrMax= 1.93D-04  0.00D+00 EMaxC= 1.00D-01 BMatC= 1.13D-04 BMatP= 8.64D-04
 IDIUse=3 WtCom= 9.98D-01 WtEn= 1.93D-03
 Coeff-Com: -0.530D-03-0.183D-02 0.225D-01 0.625D-01 0.294D+00 0.623D+00
 Coeff-En:   0.000D+00 0.000D+00 0.000D+00 0.000D+00 0.126D-01 0.987D+00
 Coeff:     -0.529D-03-0.182D-02 0.225D-01 0.624D-01 0.294D+00 0.624D+00
 Gap=     0.128 Goal=   None    Shift=    0.000
 RMSDP=6.75D-06 MaxDP=1.29D-03 DE=-6.76D-04 OVMax= 3.67D-03

 Cycle   7  Pass 1  IDiag  1:
 RMSU=  4.88D-06    CP:  9.93D-01  1.08D+00  9.23D-01  6.79D-01  1.02D+00
                    CP:  9.80D-01
 E= -3786.46727998238     Delta-E=       -0.000106998372 Rises=F Damp=F
 DIIS: error= 7.90D-05 at cycle   7 NSaved=   7.
 NSaved= 7 IEnMin= 7 EnMin= -3786.46727998238     IErMin= 7 ErrMin= 7.90D-05
 ErrMax= 7.90D-05  0.00D+00 EMaxC= 1.00D-01 BMatC= 1.15D-05 BMatP= 1.13D-04
 IDIUse=1 WtCom= 1.00D+00 WtEn= 0.00D+00
 Coeff-Com:  0.132D-02-0.365D-02-0.932D-02-0.114D-01 0.441D-01 0.262D+00
 Coeff-Com:  0.717D+00
 Coeff:      0.132D-02-0.365D-02-0.932D-02-0.114D-01 0.441D-01 0.262D+00
 Coeff:      0.717D+00
 Gap=     0.128 Goal=   None    Shift=    0.000
 RMSDP=3.40D-06 MaxDP=8.25D-04 DE=-1.07D-04 OVMax= 1.61D-03

 Cycle   8  Pass 1  IDiag  1:
 RMSU=  2.18D-06    CP:  9.93D-01  1.08D+00  9.24D-01  6.85D-01  1.05D+00
                    CP:  1.10D+00  1.06D+00
 E= -3786.46729416941     Delta-E=       -0.000014187030 Rises=F Damp=F
 DIIS: error= 1.99D-05 at cycle   8 NSaved=   8.
 NSaved= 8 IEnMin= 8 EnMin= -3786.46729416941     IErMin= 8 ErrMin= 1.99D-05
 ErrMax= 1.99D-05  0.00D+00 EMaxC= 1.00D-01 BMatC= 1.98D-06 BMatP= 1.15D-05
 IDIUse=1 WtCom= 1.00D+00 WtEn= 0.00D+00
 Coeff-Com:  0.691D-03-0.137D-02-0.779D-02-0.156D-01-0.291D-01 0.152D-01
 Coeff-Com:  0.326D+00 0.712D+00
 Coeff:      0.691D-03-0.137D-02-0.779D-02-0.156D-01-0.291D-01 0.152D-01
 Coeff:      0.326D+00 0.712D+00
 Gap=     0.128 Goal=   None    Shift=    0.000
 RMSDP=1.44D-06 MaxDP=2.32D-04 DE=-1.42D-05 OVMax= 9.61D-04

 Cycle   9  Pass 1  IDiag  1:
 RMSU=  8.42D-07    CP:  9.93D-01  1.08D+00  9.24D-01  6.85D-01  1.07D+00
                    CP:  1.14D+00  1.15D+00  1.17D+00
 E= -3786.46729725895     Delta-E=       -0.000003089533 Rises=F Damp=F
 DIIS: error= 8.11D-06 at cycle   9 NSaved=   9.
 NSaved= 9 IEnMin= 9 EnMin= -3786.46729725895     IErMin= 9 ErrMin= 8.11D-06
 ErrMax= 8.11D-06  0.00D+00 EMaxC= 1.00D-01 BMatC= 1.85D-07 BMatP= 1.98D-06
 IDIUse=1 WtCom= 1.00D+00 WtEn= 0.00D+00
 Coeff-Com:  0.507D-04 0.624D-05-0.123D-02-0.351D-02-0.146D-01-0.253D-01
 Coeff-Com:  0.818D-02 0.220D+00 0.817D+00
 Coeff:      0.507D-04 0.624D-05-0.123D-02-0.351D-02-0.146D-01-0.253D-01
 Coeff:      0.818D-02 0.220D+00 0.817D+00
 Gap=     0.128 Goal=   None    Shift=    0.000
 RMSDP=6.05D-07 MaxDP=9.23D-05 DE=-3.09D-06 OVMax= 4.56D-04

 Cycle  10  Pass 1  IDiag  1:
 RMSU=  2.84D-07    CP:  9.93D-01  1.08D+00  9.25D-01  6.84D-01  1.07D+00
                    CP:  1.16D+00  1.19D+00  1.34D+00  1.20D+00
 E= -3786.46729766234     Delta-E=       -0.000000403397 Rises=F Damp=F
 DIIS: error= 2.54D-06 at cycle  10 NSaved=  10.
 NSaved=10 IEnMin=10 EnMin= -3786.46729766234     IErMin=10 ErrMin= 2.54D-06
 ErrMax= 2.54D-06  0.00D+00 EMaxC= 1.00D-01 BMatC= 4.03D-08 BMatP= 1.85D-07
 IDIUse=1 WtCom= 1.00D+00 WtEn= 0.00D+00
 Coeff-Com: -0.989D-04 0.241D-03 0.888D-03 0.138D-02-0.972D-03-0.118D-01
 Coeff-Com: -0.553D-01-0.388D-01 0.347D+00 0.757D+00
 Coeff:     -0.989D-04 0.241D-03 0.888D-03 0.138D-02-0.972D-03-0.118D-01
 Coeff:     -0.553D-01-0.388D-01 0.347D+00 0.757D+00
 Gap=     0.128 Goal=   None    Shift=    0.000
 RMSDP=2.61D-07 MaxDP=4.71D-05 DE=-4.03D-07 OVMax= 2.22D-04

 Cycle  11  Pass 1  IDiag  1:
 RMSU=  1.22D-07    CP:  9.93D-01  1.08D+00  9.25D-01  6.84D-01  1.07D+00
                    CP:  1.16D+00  1.20D+00  1.41D+00  1.34D+00  1.12D+00
 E= -3786.46729773634     Delta-E=       -0.000000073998 Rises=F Damp=F
 DIIS: error= 6.97D-07 at cycle  11 NSaved=  11.
 NSaved=11 IEnMin=11 EnMin= -3786.46729773634     IErMin=11 ErrMin= 6.97D-07
 ErrMax= 6.97D-07  0.00D+00 EMaxC= 1.00D-01 BMatC= 4.24D-09 BMatP= 4.03D-08
 IDIUse=1 WtCom= 1.00D+00 WtEn= 0.00D+00
 Coeff-Com: -0.393D-04 0.827D-04 0.467D-03 0.937D-03 0.121D-02-0.102D-02
 Coeff-Com: -0.210D-01-0.396D-01 0.291D-01 0.275D+00 0.754D+00
 Coeff:     -0.393D-04 0.827D-04 0.467D-03 0.937D-03 0.121D-02-0.102D-02
 Coeff:     -0.210D-01-0.396D-01 0.291D-01 0.275D+00 0.754D+00
 Gap=     0.128 Goal=   None    Shift=    0.000
 RMSDP=1.05D-07 MaxDP=3.39D-05 DE=-7.40D-08 OVMax= 5.66D-05

 Cycle  12  Pass 1  IDiag  1:
 RMSU=  4.77D-08    CP:  9.93D-01  1.08D+00  9.25D-01  6.84D-01  1.07D+00
                    CP:  1.17D+00  1.20D+00  1.43D+00  1.39D+00  1.24D+00
                    CP:  1.13D+00
 E= -3786.46729774228     Delta-E=       -0.000000005935 Rises=F Damp=F
 DIIS: error= 3.91D-07 at cycle  12 NSaved=  12.
 NSaved=12 IEnMin=12 EnMin= -3786.46729774228     IErMin=12 ErrMin= 3.91D-07
 ErrMax= 3.91D-07  0.00D+00 EMaxC= 1.00D-01 BMatC= 7.73D-10 BMatP= 4.24D-09
 IDIUse=1 WtCom= 1.00D+00 WtEn= 0.00D+00
 Coeff-Com: -0.510D-05 0.682D-05 0.973D-04 0.251D-03 0.589D-03 0.994D-03
 Coeff-Com: -0.279D-02-0.134D-01-0.314D-01 0.327D-01 0.333D+00 0.680D+00
 Coeff:     -0.510D-05 0.682D-05 0.973D-04 0.251D-03 0.589D-03 0.994D-03
 Coeff:     -0.279D-02-0.134D-01-0.314D-01 0.327D-01 0.333D+00 0.680D+00
 Gap=     0.128 Goal=   None    Shift=    0.000
 RMSDP=2.92D-08 MaxDP=7.61D-06 DE=-5.94D-09 OVMax= 2.51D-05

 Cycle  13  Pass 1  IDiag  1:
 RMSU=  1.96D-08    CP:  9.93D-01  1.08D+00  9.25D-01  6.84D-01  1.07D+00
                    CP:  1.17D+00  1.20D+00  1.43D+00  1.40D+00  1.27D+00
                    CP:  1.25D+00  1.03D+00
 E= -3786.46729774440     Delta-E=       -0.000000002119 Rises=F Damp=F
 DIIS: error= 2.71D-07 at cycle  13 NSaved=  13.
 NSaved=13 IEnMin=13 EnMin= -3786.46729774440     IErMin=13 ErrMin= 2.71D-07
 ErrMax= 2.71D-07  0.00D+00 EMaxC= 1.00D-01 BMatC= 1.63D-10 BMatP= 7.73D-10
 IDIUse=1 WtCom= 1.00D+00 WtEn= 0.00D+00
 Coeff-Com:  0.421D-05-0.104D-04-0.344D-04-0.384D-04 0.553D-04 0.675D-03
 Coeff-Com:  0.235D-02 0.790D-03-0.191D-01-0.316D-01 0.127D-01 0.325D+00
 Coeff-Com:  0.709D+00
 Coeff:      0.421D-05-0.104D-04-0.344D-04-0.384D-04 0.553D-04 0.675D-03
 Coeff:      0.235D-02 0.790D-03-0.191D-01-0.316D-01 0.127D-01 0.325D+00
 Coeff:      0.709D+00
 Gap=     0.128 Goal=   None    Shift=    0.000
 RMSDP=1.63D-08 MaxDP=3.78D-06 DE=-2.12D-09 OVMax= 1.30D-05

 Cycle  14  Pass 1  IDiag  1:
 RMSU=  7.99D-09    CP:  9.93D-01  1.08D+00  9.25D-01  6.84D-01  1.07D+00
                    CP:  1.17D+00  1.20D+00  1.43D+00  1.41D+00  1.28D+00
                    CP:  1.31D+00  1.18D+00  1.13D+00
 E= -3786.46729774644     Delta-E=       -0.000000002046 Rises=F Damp=F
 DIIS: error= 1.43D-07 at cycle  14 NSaved=  14.
 NSaved=14 IEnMin=14 EnMin= -3786.46729774644     IErMin=14 ErrMin= 1.43D-07
 ErrMax= 1.43D-07  0.00D+00 EMaxC= 1.00D-01 BMatC= 3.31D-11 BMatP= 1.63D-10
 IDIUse=1 WtCom= 1.00D+00 WtEn= 0.00D+00
 Coeff-Com:  0.264D-05-0.565D-05-0.327D-04-0.592D-04-0.845D-04 0.138D-03
 Coeff-Com:  0.158D-02 0.276D-02-0.281D-02-0.201D-01-0.589D-01 0.253D-01
 Coeff-Com:  0.341D+00 0.711D+00
 Coeff:      0.264D-05-0.565D-05-0.327D-04-0.592D-04-0.845D-04 0.138D-03
 Coeff:      0.158D-02 0.276D-02-0.281D-02-0.201D-01-0.589D-01 0.253D-01
 Coeff:      0.341D+00 0.711D+00
 Gap=     0.128 Goal=   None    Shift=    0.000
 RMSDP=8.16D-09 MaxDP=2.06D-06 DE=-2.05D-09 OVMax= 7.95D-06

 Cycle  15  Pass 1  IDiag  1:
 RMSU=  3.88D-09    CP:  9.93D-01  1.08D+00  9.25D-01  6.84D-01  1.07D+00
                    CP:  1.17D+00  1.20D+00  1.43D+00  1.41D+00  1.28D+00
                    CP:  1.33D+00  1.25D+00  1.34D+00  1.23D+00
 E= -3786.46729774591     Delta-E=        0.000000000533 Rises=F Damp=F
 DIIS: error= 6.89D-08 at cycle  15 NSaved=  15.
 NSaved=15 IEnMin=14 EnMin= -3786.46729774644     IErMin=15 ErrMin= 6.89D-08
 ErrMax= 6.89D-08  0.00D+00 EMaxC= 1.00D-01 BMatC= 6.99D-12 BMatP= 3.31D-11
 IDIUse=1 WtCom= 1.00D+00 WtEn= 0.00D+00
 Coeff-Com:  0.196D-06-0.196D-06-0.747D-05-0.175D-04-0.539D-04-0.777D-04
 Coeff-Com:  0.199D-03 0.103D-02 0.283D-02-0.225D-02-0.298D-01-0.583D-01
 Coeff-Com:  0.146D-01 0.316D+00 0.756D+00
 Coeff:      0.196D-06-0.196D-06-0.747D-05-0.175D-04-0.539D-04-0.777D-04
 Coeff:      0.199D-03 0.103D-02 0.283D-02-0.225D-02-0.298D-01-0.583D-01
 Coeff:      0.146D-01 0.316D+00 0.756D+00
 Gap=     0.128 Goal=   None    Shift=    0.000
 RMSDP=4.57D-09 MaxDP=1.16D-06 DE= 5.33D-10 OVMax= 5.45D-06

 Cycle  16  Pass 1  IDiag  1:
 RMSU=  1.87D-09    CP:  9.93D-01  1.08D+00  9.25D-01  6.84D-01  1.07D+00
                    CP:  1.17D+00  1.20D+00  1.43D+00  1.41D+00  1.29D+00
                    CP:  1.34D+00  1.29D+00  1.46D+00  1.52D+00  1.36D+00
 E= -3786.46729774537     Delta-E=        0.000000000544 Rises=F Damp=F
 DIIS: error= 4.14D-08 at cycle  16 NSaved=  16.
 NSaved=16 IEnMin=14 EnMin= -3786.46729774644     IErMin=16 ErrMin= 4.14D-08
 ErrMax= 4.14D-08  0.00D+00 EMaxC= 1.00D-01 BMatC= 2.25D-12 BMatP= 6.99D-12
 IDIUse=1 WtCom= 1.00D+00 WtEn= 0.00D+00
 Coeff-Com: -0.654D-06 0.152D-05 0.554D-05 0.821D-05-0.407D-05-0.743D-04
 Coeff-Com: -0.362D-03-0.287D-03 0.234D-02 0.491D-02 0.284D-02-0.409D-01
 Coeff-Com: -0.942D-01-0.639D-01 0.394D+00 0.796D+00
 Coeff:     -0.654D-06 0.152D-05 0.554D-05 0.821D-05-0.407D-05-0.743D-04
 Coeff:     -0.362D-03-0.287D-03 0.234D-02 0.491D-02 0.284D-02-0.409D-01
 Coeff:     -0.942D-01-0.639D-01 0.394D+00 0.796D+00
 Gap=     0.128 Goal=   None    Shift=    0.000
 RMSDP=3.16D-09 MaxDP=6.67D-07 DE= 5.44D-10 OVMax= 4.20D-06

 Error on total polarization charges =  0.03315
 SCF Done:  E(RM062X) =  -3786.46729775     A.U. after   16 cycles
            NFock= 16  Conv=0.32D-08     -V/T= 2.1133
 KE= 3.401151030985D+03 PE=-2.984120568392D+04 EE= 1.209032788752D+04
 Leave Link  502 at Fri Nov 14 03:58:25 2025, MaxMem= 30870077440 cpu:          119409.0 elap:            1906.8
 (Enter /public/software/gauss/g16/l601.exe)
 Copying SCF densities to generalized density rwf, IOpCl= 0 IROHF=0.
 Hyperfine terms turned off by default for NAtoms > 100.

 **********************************************************************

            Population analysis using the SCF density.

 **********************************************************************

 Orbital symmetries:
       Occupied  (A) (A) (A) (A) (A) (A) (A) (A) (A) (A) (A) (A)
                 (A) (A) (A) (A) (A) (A) (A) (A) (A) (A) (A) (A)
                 (A) (A) (A) (A) (A) (A) (A) (A) (A) (A) (A) (A)
                 (A) (A) (A) (A) (A) (A) (A) (A) (A) (A) (A) (A)
                 (A) (A) (A) (A) (A) (A) (A) (A) (A) (A) (A) (A)
                 (A) (A) (A) (A) (A) (A) (A) (A) (A) (A) (A) (A)
                 (A) (A) (A) (A) (A) (A) (A) (A) (A) (A) (A) (A)
                 (A) (A) (A) (A) (A) (A) (A) (A) (A) (A) (A) (A)
                 (A) (A) (A) (A) (A) (A) (A) (A) (A) (A) (A) (A)
                 (A) (A) (A) (A) (A) (A) (A) (A) (A) (A) (A) (A)
                 (A) (A) (A) (A) (A) (A) (A) (A) (A) (A) (A) (A)
                 (A) (A) (A) (A) (A) (A) (A) (A) (A) (A) (A) (A)
                 (A) (A) (A) (A) (A) (A) (A) (A) (A) (A) (A) (A)
                 (A) (A) (A) (A) (A) (A) (A) (A) (A) (A) (A) (A)
                 (A) (A) (A) (A) (A) (A) (A) (A) (A) (A) (A) (A)
                 (A) (A) (A) (A) (A) (A) (A) (A) (A) (A) (A) (A)
                 (A) (A) (A) (A) (A) (A) (A) (A) (A) (A) (A) (A)
                 (A) (A) (A) (A) (A) (A) (A) (A) (A) (A) (A) (A)
                 (A) (A) (A) (A) (A) (A) (A) (A) (A) (A) (A) (A)
                 (A) (A) (A) (A) (A) (A) (A) (A) (A) (A) (A) (A)
                 (A) (A) (A) (A) (A) (A) (A) (A) (A) (A) (A) (A)
                 (A) (A) (A) (A) (A) (A) (A) (A) (A) (A) (A) (A)
                 (A) (A) (A) (A) (A)
       Virtual   (A) (A) (A) (A) (A) (A) (A) (A) (A) (A) (A) (A)
                 (A) (A) (A) (A) (A) (A) (A) (A) (A) (A) (A) (A)
                 (A) (A) (A) (A) (A) (A) (A) (A) (A) (A) (A) (A)
                 (A) (A) (A) (A) (A) (A) (A) (A) (A) (A) (A) (A)
                 (A) (A) (A) (A) (A) (A) (A) (A) (A) (A) (A) (A)
                 (A) (A) (A) (A) (A) (A) (A) (A) (A) (A) (A) (A)
                 (A) (A) (A) (A) (A) (A) (A) (A) (A) (A) (A) (A)
                 (A) (A) (A) (A) (A) (A) (A) (A) (A) (A) (A) (A)
                 (A) (A) (A) (A) (A) (A) (A) (A) (A) (A) (A) (A)
                 (A) (A) (A) (A) (A) (A) (A) (A) (A) (A) (A) (A)
                 (A) (A) (A) (A) (A) (A) (A) (A) (A) (A) (A) (A)
                 (A) (A) (A) (A) (A) (A) (A) (A) (A) (A) (A) (A)
                 (A) (A) (A) (A) (A) (A) (A) (A) (A) (A) (A) (A)
                 (A) (A) (A) (A) (A) (A) (A) (A) (A) (A) (A) (A)
                 (A) (A) (A) (A) (A) (A) (A) (A) (A) (A) (A) (A)
                 (A) (A) (A) (A) (A) (A) (A) (A) (A) (A) (A) (A)
                 (A) (A) (A) (A) (A) (A) (A) (A) (A) (A) (A) (A)
                 (A) (A) (A) (A) (A) (A) (A) (A) (A) (A) (A) (A)
                 (A) (A) (A) (A) (A) (A) (A) (A) (A) (A) (A) (A)
                 (A) (A) (A) (A) (A) (A) (A) (A) (A) (A) (A) (A)
                 (A) (A) (A) (A) (A) (A) (A) (A) (A) (A) (A) (A)
                 (A) (A) (A) (A) (A) (A) (A) (A) (A) (A) (A) (A)
                 (A) (A) (A) (A) (A) (A) (A) (A) (A) (A) (A) (A)
                 (A) (A) (A) (A) (A) (A) (A) (A) (A) (A) (A) (A)
                 (A) (A) (A) (A) (A) (A) (A) (A) (A) (A) (A) (A)
                 (A) (A) (A) (A) (A) (A) (A) (A) (A) (A) (A) (A)
                 (A) (A) (A) (A) (A) (A) (A) (A) (A) (A) (A) (A)
                 (A) (A) (A) (A) (A) (A) (A) (A) (A) (A) (A) (A)
                 (A) (A) (A) (A) (A) (A) (A) (A) (A) (A) (A) (A)
                 (A) (A) (A) (A) (A) (A) (A) (A) (A) (A) (A) (A)
                 (A) (A) (A) (A) (A) (A) (A) (A) (A) (A) (A) (A)
                 (A) (A) (A) (A) (A) (A) (A) (A) (A) (A) (A) (A)
                 (A) (A) (A) (A) (A) (A) (A) (A) (A) (A) (A) (A)
                 (A) (A) (A) (A) (A) (A) (A) (A) (A) (A) (A) (A)
                 (A) (A) (A) (A) (A) (A) (A) (A) (A) (A) (A) (A)
                 (A) (A) (A) (A) (A) (A) (A) (A) (A) (A) (A) (A)
                 (A) (A) (A) (A) (A) (A) (A) (A) (A) (A) (A) (A)
                 (A) (A) (A) (A) (A) (A) (A) (A) (A) (A) (A) (A)
                 (A) (A) (A) (A) (A) (A) (A) (A) (A) (A) (A) (A)
                 (A) (A) (A) (A) (A) (A) (A) (A) (A) (A) (A) (A)
                 (A) (A) (A) (A) (A) (A) (A) (A) (A) (A) (A) (A)
                 (A) (A) (A) (A) (A) (A) (A) (A) (A) (A) (A) (A)
                 (A) (A) (A) (A) (A) (A) (A) (A) (A) (A) (A) (A)
                 (A) (A) (A) (A) (A) (A) (A) (A) (A) (A) (A) (A)
                 (A) (A) (A) (A) (A) (A) (A) (A) (A) (A) (A) (A)
                 (A) (A) (A) (A) (A) (A) (A) (A) (A) (A) (A) (A)
                 (A) (A) (A) (A) (A) (A) (A) (A) (A) (A) (A) (A)
                 (A) (A) (A) (A) (A) (A) (A) (A) (A) (A) (A) (A)
                 (A) (A) (A) (A) (A) (A) (A) (A) (A) (A) (A) (A)
                 (A) (A) (A) (A) (A) (A) (A) (A) (A) (A) (A) (A)
                 (A) (A) (A) (A) (A) (A) (A) (A) (A) (A) (A) (A)
                 (A) (A) (A) (A) (A) (A) (A) (A) (A) (A) (A) (A)
                 (A) (A) (A) (A) (A) (A) (A) (A) (A) (A) (A) (A)
                 (A) (A) (A) (A) (A) (A) (A) (A) (A) (A) (A) (A)
                 (A) (A) (A) (A) (A) (A) (A) (A) (A) (A) (A) (A)
                 (A) (A) (A) (A) (A) (A) (A) (A) (A) (A) (A) (A)
                 (A) (A) (A) (A) (A) (A) (A) (A) (A) (A) (A) (A)
                 (A) (A) (A) (A) (A) (A) (A) (A) (A) (A) (A) (A)
                 (A) (A) (A) (A) (A) (A) (A) (A) (A) (A) (A) (A)
                 (A) (A) (A) (A) (A) (A) (A) (A) (A) (A) (A) (A)
                 (A) (A) (A) (A) (A) (A) (A) (A) (A) (A) (A) (A)
                 (A) (A) (A) (A) (A) (A) (A) (A) (A) (A) (A) (A)
                 (A) (A) (A) (A) (A) (A) (A) (A) (A) (A) (A) (A)
                 (A) (A) (A) (A) (A) (A) (A) (A) (A) (A) (A) (A)
                 (A) (A) (A) (A) (A) (A) (A) (A) (A) (A) (A) (A)
                 (A) (A) (A) (A) (A) (A) (A) (A) (A) (A) (A) (A)
                 (A) (A) (A) (A) (A) (A) (A) (A) (A) (A) (A) (A)
                 (A) (A) (A) (A) (A) (A) (A) (A) (A) (A) (A) (A)
                 (A) (A) (A) (A) (A) (A) (A) (A) (A) (A) (A) (A)
                 (A) (A) (A) (A) (A) (A) (A) (A) (A) (A) (A) (A)
                 (A) (A) (A) (A) (A) (A) (A) (A) (A) (A) (A) (A)
                 (A) (A) (A) (A) (A) (A) (A) (A) (A) (A) (A) (A)
                 (A) (A) (A) (A) (A) (A) (A) (A) (A) (A) (A) (A)
                 (A) (A) (A) (A) (A) (A) (A) (A) (A) (A) (A) (A)
                 (A) (A) (A) (A) (A) (A) (A) (A) (A) (A) (A) (A)
                 (A) (A) (A) (A) (A) (A) (A) (A) (A) (A) (A) (A)
                 (A) (A) (A) (A) (A) (A) (A) (A) (A) (A) (A) (A)
                 (A) (A) (A) (A) (A) (A) (A) (A) (A) (A) (A) (A)
                 (A) (A) (A) (A) (A) (A) (A) (A) (A) (A) (A) (A)
                 (A) (A) (A) (A) (A) (A) (A) (A) (A) (A) (A) (A)
                 (A) (A) (A) (A) (A) (A) (A) (A) (A) (A) (A) (A)
                 (A) (A) (A) (A) (A) (A) (A) (A) (A) (A) (A) (A)
                 (A) (A) (A) (A) (A) (A) (A) (A) (A) (A) (A) (A)
                 (A) (A) (A) (A) (A) (A) (A) (A) (A) (A) (A) (A)
                 (A) (A) (A) (A) (A) (A) (A) (A) (A) (A) (A) (A)
                 (A) (A) (A) (A) (A) (A) (A) (A) (A) (A) (A) (A)
                 (A) (A) (A) (A) (A) (A) (A) (A) (A) (A) (A) (A)
                 (A) (A) (A) (A) (A) (A) (A) (A) (A) (A) (A) (A)
                 (A) (A) (A) (A) (A) (A) (A) (A) (A) (A) (A) (A)
                 (A) (A) (A) (A) (A) (A) (A) (A) (A) (A) (A) (A)
                 (A) (A) (A) (A) (A) (A) (A) (A) (A) (A) (A) (A)
                 (A) (A) (A) (A) (A) (A) (A) (A) (A) (A) (A) (A)
                 (A) (A) (A) (A) (A) (A) (A) (A) (A) (A) (A) (A)
                 (A) (A) (A) (A) (A) (A) (A) (A) (A) (A) (A) (A)
                 (A) (A) (A) (A) (A) (A) (A) (A) (A) (A) (A) (A)
                 (A) (A) (A) (A) (A) (A) (A) (A) (A) (A) (A) (A)
                 (A) (A) (A) (A) (A) (A) (A) (A) (A) (A) (A) (A)
                 (A) (A) (A) (A) (A) (A) (A) (A) (A) (A) (A) (A)
                 (A) (A) (A) (A) (A) (A) (A) (A) (A) (A) (A) (A)
                 (A) (A) (A) (A) (A) (A) (A) (A) (A) (A) (A) (A)
                 (A) (A) (A) (A) (A) (A) (A) (A) (A) (A) (A) (A)
                 (A) (A) (A) (A) (A) (A) (A) (A) (A) (A) (A) (A)
                 (A) (A) (A) (A) (A) (A) (A) (A) (A) (A) (A) (A)
                 (A) (A) (A) (A) (A) (A) (A) (A) (A) (A) (A) (A)
                 (A) (A) (A) (A) (A) (A) (A) (A) (A) (A) (A) (A)
                 (A) (A) (A) (A) (A) (A) (A) (A) (A) (A) (A) (A)
                 (A) (A) (A) (A) (A) (A) (A) (A) (A) (A) (A) (A)
                 (A) (A) (A) (A) (A) (A) (A) (A) (A) (A) (A) (A)
                 (A) (A) (A) (A) (A) (A) (A) (A) (A) (A) (A) (A)
                 (A) (A) (A) (A) (A) (A) (A) (A) (A) (A) (A) (A)
                 (A) (A) (A) (A) (A) (A) (A) (A) (A) (A) (A) (A)
                 (A) (A) (A) (A) (A) (A) (A) (A) (A) (A) (A) (A)
                 (A) (A) (A) (A) (A) (A) (A) (A) (A) (A) (A) (A)
                 (A) (A) (A) (A) (A) (A) (A) (A) (A) (A) (A) (A)
                 (A) (A) (A) (A) (A) (A) (A) (A) (A) (A) (A) (A)
                 (A) (A) (A) (A) (A) (A) (A) (A) (A) (A) (A) (A)
                 (A) (A) (A) (A) (A) (A) (A) (A) (A) (A) (A) (A)
                 (A) (A) (A) (A) (A) (A) (A) (A) (A) (A) (A) (A)
                 (A) (A) (A) (A) (A) (A) (A) (A) (A) (A) (A) (A)
                 (A) (A) (A) (A) (A) (A) (A) (A) (A) (A) (A) (A)
                 (A) (A) (A) (A) (A) (A) (A) (A) (A) (A) (A) (A)
                 (A) (A) (A) (A) (A) (A) (A) (A) (A) (A) (A) (A)
                 (A) (A) (A) (A) (A) (A) (A) (A) (A) (A) (A) (A)
                 (A) (A) (A) (A) (A) (A) (A) (A) (A) (A) (A) (A)
                 (A) (A) (A) (A) (A) (A) (A) (A) (A) (A) (A) (A)
                 (A) (A) (A) (A) (A) (A) (A) (A) (A) (A) (A) (A)
                 (A) (A) (A) (A) (A) (A) (A) (A) (A) (A) (A) (A)
                 (A) (A) (A) (A) (A) (A) (A) (A) (A) (A) (A) (A)
                 (A) (A) (A) (A) (A) (A) (A) (A) (A) (A) (A) (A)
                 (A) (A) (A) (A) (A) (A) (A) (A) (A) (A) (A) (A)
                 (A) (A) (A) (A) (A) (A) (A) (A) (A) (A) (A) (A)
                 (A) (A) (A) (A) (A) (A) (A) (A) (A) (A) (A) (A)
                 (A) (A) (A) (A) (A) (A) (A) (A) (A) (A) (A) (A)
                 (A) (A) (A) (A) (A) (A) (A) (A) (A) (A) (A) (A)
                 (A) (A) (A) (A) (A) (A) (A) (A) (A) (A) (A) (A)
                 (A) (A) (A) (A) (A) (A) (A) (A) (A) (A) (A) (A)
                 (A) (A) (A) (A) (A) (A) (A) (A) (A) (A) (A) (A)
                 (A) (A) (A) (A) (A) (A) (A) (A) (A) (A) (A) (A)
                 (A) (A) (A) (A) (A) (A) (A) (A) (A) (A) (A) (A)
                 (A) (A) (A) (A) (A) (A) (A) (A) (A) (A) (A) (A)
                 (A) (A) (A) (A) (A) (A) (A) (A) (A) (A) (A) (A)
                 (A) (A) (A) (A) (A) (A) (A) (A) (A) (A) (A) (A)
                 (A) (A) (A) (A) (A) (A) (A) (A) (A) (A) (A) (A)
                 (A) (A) (A) (A) (A) (A) (A) (A) (A) (A) (A) (A)
                 (A) (A) (A) (A) (A) (A) (A) (A) (A) (A) (A) (A)
                 (A) (A) (A) (A) (A) (A) (A) (A) (A) (A) (A) (A)
                 (A) (A) (A) (A) (A) (A) (A) (A) (A) (A) (A) (A)
                 (A) (A) (A) (A) (A) (A) (A) (A) (A) (A) (A) (A)
                 (A) (A) (A) (A) (A) (A) (A) (A) (A) (A) (A) (A)
                 (A) (A) (A) (A) (A) (A) (A) (A) (A) (A) (A) (A)
                 (A) (A) (A) (A) (A) (A) (A) (A) (A) (A) (A) (A)
                 (A) (A) (A) (A) (A) (A) (A) (A) (A) (A) (A) (A)
                 (A) (A) (A) (A) (A) (A) (A) (A) (A) (A) (A) (A)
                 (A) (A) (A) (A) (A) (A) (A) (A) (A) (A) (A) (A)
                 (A) (A) (A) (A) (A) (A) (A) (A) (A) (A) (A) (A)
                 (A) (A) (A) (A) (A) (A) (A) (A) (A) (A) (A) (A)
                 (A) (A) (A) (A) (A) (A) (A) (A) (A) (A) (A) (A)
                 (A) (A) (A) (A) (A) (A) (A) (A) (A) (A) (A) (A)
                 (A) (A) (A) (A) (A) (A) (A) (A) (A) (A) (A) (A)
                 (A) (A) (A) (A) (A) (A) (A) (A) (A) (A) (A) (A)
                 (A) (A) (A) (A) (A) (A) (A) (A) (A) (A) (A) (A)
                 (A) (A) (A) (A) (A) (A) (A) (A) (A) (A) (A) (A)
                 (A) (A) (A) (A) (A) (A) (A) (A) (A) (A) (A) (A)
                 (A) (A) (A) (A) (A) (A) (A) (A) (A) (A) (A) (A)
                 (A) (A) (A) (A) (A) (A) (A) (A) (A) (A) (A) (A)
                 (A) (A) (A) (A) (A) (A) (A) (A) (A) (A) (A) (A)
                 (A) (A) (A) (A) (A) (A) (A) (A) (A) (A) (A) (A)
                 (A) (A) (A) (A) (A) (A) (A) (A) (A) (A) (A) (A)
                 (A) (A) (A) (A) (A) (A) (A) (A) (A) (A) (A) (A)
                 (A) (A) (A) (A) (A) (A) (A) (A) (A) (A) (A) (A)
                 (A) (A) (A) (A) (A) (A) (A) (A) (A) (A) (A) (A)
                 (A) (A) (A) (A) (A) (A) (A) (A) (A) (A) (A) (A)
                 (A) (A) (A) (A) (A) (A) (A) (A) (A) (A) (A) (A)
                 (A) (A) (A) (A) (A) (A) (A) (A) (A) (A) (A) (A)
                 (A) (A) (A) (A) (A) (A) (A) (A) (A) (A) (A) (A)
                 (A) (A) (A) (A) (A) (A) (A) (A) (A) (A) (A) (A)
                 (A) (A) (A) (A) (A) (A) (A) (A) (A) (A) (A) (A)
                 (A) (A) (A) (A) (A) (A) (A) (A) (A) (A) (A) (A)
                 (A) (A) (A) (A) (A) (A) (A) (A) (A) (A) (A) (A)
                 (A) (A) (A) (A) (A) (A) (A) (A) (A) (A) (A) (A)
                 (A) (A) (A) (A) (A) (A) (A) (A) (A) (A) (A) (A)
                 (A) (A) (A) (A) (A) (A) (A) (A) (A) (A) (A) (A)
                 (A) (A) (A) (A) (A) (A) (A) (A) (A) (A) (A) (A)
                 (A) (A) (A) (A) (A) (A) (A) (A) (A) (A) (A) (A)
                 (A) (A) (A) (A) (A) (A) (A) (A) (A) (A) (A) (A)
                 (A) (A) (A) (A) (A) (A) (A) (A) (A) (A) (A) (A)
                 (A) (A) (A) (A) (A) (A) (A) (A) (A) (A) (A) (A)
                 (A) (A) (A) (A) (A) (A) (A) (A) (A) (A) (A) (A)
                 (A) (A) (A) (A) (A) (A) (A) (A) (A) (A) (A) (A)
                 (A) (A) (A) (A) (A) (A) (A) (A) (A) (A) (A) (A)
                 (A) (A) (A) (A) (A) (A) (A) (A) (A) (A) (A) (A)
                 (A) (A) (A) (A) (A) (A) (A) (A) (A) (A) (A) (A)
                 (A) (A) (A) (A) (A) (A) (A) (A) (A) (A) (A) (A)
                 (A) (A) (A) (A) (A) (A) (A) (A) (A) (A) (A) (A)
                 (A) (A) (A) (A) (A) (A) (A) (A) (A) (A) (A) (A)
                 (A) (A) (A) (A) (A) (A) (A) (A) (A) (A) (A) (A)
                 (A) (A) (A) (A) (A) (A) (A) (A) (A) (A) (A) (A)
                 (A) (A) (A) (A) (A) (A) (A) (A) (A) (A) (A) (A)
                 (A) (A) (A) (A) (A) (A) (A) (A) (A) (A) (A) (A)
                 (A) (A) (A) (A) (A) (A) (A) (A) (A) (A) (A) (A)
                 (A) (A) (A) (A) (A) (A) (A) (A) (A) (A) (A) (A)
                 (A) (A) (A) (A) (A) (A) (A) (A) (A) (A) (A) (A)
                 (A) (A) (A) (A) (A) (A) (A) (A) (A) (A) (A) (A)
                 (A) (A) (A) (A) (A) (A) (A) (A) (A) (A) (A) (A)
                 (A) (A) (A) (A) (A) (A) (A) (A) (A) (A) (A) (A)
                 (A) (A) (A) (A) (A) (A) (A) (A) (A) (A) (A) (A)
                 (A) (A) (A) (A) (A) (A) (A) (A) (A) (A) (A) (A)
                 (A) (A) (A) (A) (A) (A) (A) (A) (A) (A) (A) (A)
                 (A) (A) (A) (A) (A) (A) (A) (A) (A) (A) (A) (A)
                 (A) (A) (A) (A) (A) (A) (A) (A) (A) (A) (A) (A)
                 (A) (A) (A) (A) (A) (A) (A) (A) (A) (A) (A) (A)
                 (A) (A) (A) (A) (A) (A) (A) (A) (A) (A) (A) (A)
                 (A) (A) (A) (A) (A) (A) (A) (A) (A) (A) (A) (A)
                 (A) (A) (A) (A) (A) (A) (A) (A) (A) (A) (A) (A)
                 (A) (A) (A) (A) (A) (A) (A) (A) (A) (A) (A) (A)
                 (A) (A) (A) (A) (A) (A) (A) (A) (A) (A) (A) (A)
                 (A) (A) (A) (A) (A) (A) (A) (A) (A) (A) (A) (A)
                 (A) (A) (A) (A) (A) (A) (A) (A) (A) (A) (A) (A)
                 (A) (A) (A) (A) (A) (A) (A) (A) (A) (A) (A) (A)
                 (A) (A) (A) (A) (A) (A) (A) (A) (A) (A) (A) (A)
                 (A) (A) (A) (A) (A) (A) (A) (A) (A) (A) (A) (A)
                 (A) (A) (A) (A) (A) (A) (A) (A) (A) (A) (A) (A)
 The electronic state is 1-A.
 Alpha  occ. eigenvalues --  -25.21139 -25.21102 -19.70542 -19.68038 -19.68032
 Alpha  occ. eigenvalues --  -19.66959 -19.66946 -19.65187 -19.64013 -19.63911
 Alpha  occ. eigenvalues --  -19.63654 -19.63635 -19.63407 -19.63255 -15.01495
 Alpha  occ. eigenvalues --  -14.79906 -14.79618 -10.71484 -10.62331 -10.62280
 Alpha  occ. eigenvalues --  -10.62260 -10.62146 -10.62109 -10.62098 -10.61687
 Alpha  occ. eigenvalues --  -10.60820 -10.60587 -10.60226 -10.60045 -10.59872
 Alpha  occ. eigenvalues --  -10.59705 -10.59478 -10.59291 -10.58835 -10.58813
 Alpha  occ. eigenvalues --  -10.58773 -10.58768 -10.58687 -10.58666 -10.58666
 Alpha  occ. eigenvalues --  -10.58651 -10.58595 -10.58592 -10.58501 -10.58080
 Alpha  occ. eigenvalues --  -10.58065 -10.57907 -10.57790 -10.57381 -10.57334
 Alpha  occ. eigenvalues --  -10.57048 -10.56869 -10.56187 -10.56152 -10.56058
 Alpha  occ. eigenvalues --  -10.56042 -10.56032 -10.56020 -10.55978 -10.55966
 Alpha  occ. eigenvalues --  -10.55317 -10.55309 -10.55231 -10.55224 -10.54989
 Alpha  occ. eigenvalues --  -10.54827  -7.14266  -7.11688  -7.11669  -5.11062
 Alpha  occ. eigenvalues --   -5.11048  -5.09978  -5.09972  -5.09964  -5.09942
 Alpha  occ. eigenvalues --   -2.07911  -2.07897  -2.07443  -2.07439  -2.07430
 Alpha  occ. eigenvalues --   -2.07419  -2.06540  -2.06538  -2.06519  -2.06517
 Alpha  occ. eigenvalues --   -1.37051  -1.33119  -1.29918  -1.26244  -1.20103
 Alpha  occ. eigenvalues --   -1.20093  -1.18579  -1.17080  -1.16802  -1.16759
 Alpha  occ. eigenvalues --   -1.16184  -1.15791  -1.15462  -1.14495  -1.11944
 Alpha  occ. eigenvalues --   -1.10111  -1.00850  -0.97687  -0.97639  -0.95640
 Alpha  occ. eigenvalues --   -0.93507  -0.93191  -0.92637  -0.91776  -0.91130
 Alpha  occ. eigenvalues --   -0.89065  -0.88683  -0.87761  -0.87072  -0.86901
 Alpha  occ. eigenvalues --   -0.86275  -0.86008  -0.85697  -0.85348  -0.84300
 Alpha  occ. eigenvalues --   -0.83329  -0.82784  -0.81973  -0.81763  -0.80134
 Alpha  occ. eigenvalues --   -0.79684  -0.79266  -0.78368  -0.77769  -0.76817
 Alpha  occ. eigenvalues --   -0.76234  -0.74378  -0.73972  -0.72845  -0.72449
 Alpha  occ. eigenvalues --   -0.71845  -0.71281  -0.71130  -0.69771  -0.69548
 Alpha  occ. eigenvalues --   -0.69158  -0.68446  -0.68111  -0.67748  -0.67381
 Alpha  occ. eigenvalues --   -0.66766  -0.66319  -0.66137  -0.65668  -0.64281
 Alpha  occ. eigenvalues --   -0.63501  -0.63198  -0.62655  -0.62534  -0.62097
 Alpha  occ. eigenvalues --   -0.61622  -0.60371  -0.60005  -0.59800  -0.59670
 Alpha  occ. eigenvalues --   -0.59570  -0.59477  -0.59048  -0.58857  -0.58656
 Alpha  occ. eigenvalues --   -0.58261  -0.57646  -0.57351  -0.57172  -0.56925
 Alpha  occ. eigenvalues --   -0.56418  -0.56165  -0.56034  -0.55601  -0.55373
 Alpha  occ. eigenvalues --   -0.54854  -0.54771  -0.54258  -0.54062  -0.53980
 Alpha  occ. eigenvalues --   -0.53898  -0.53583  -0.53393  -0.53337  -0.53227
 Alpha  occ. eigenvalues --   -0.53120  -0.52963  -0.52305  -0.52250  -0.52098
 Alpha  occ. eigenvalues --   -0.51905  -0.51695  -0.51660  -0.51190  -0.50859
 Alpha  occ. eigenvalues --   -0.50477  -0.50428  -0.49955  -0.49829  -0.49520
 Alpha  occ. eigenvalues --   -0.49431  -0.49020  -0.48720  -0.48394  -0.48127
 Alpha  occ. eigenvalues --   -0.47879  -0.47484  -0.47420  -0.47202  -0.46958
 Alpha  occ. eigenvalues --   -0.46772  -0.46584  -0.46370  -0.46332  -0.46240
 Alpha  occ. eigenvalues --   -0.45784  -0.45569  -0.45305  -0.45150  -0.44752
 Alpha  occ. eigenvalues --   -0.44373  -0.44210  -0.43652  -0.43590  -0.43480
 Alpha  occ. eigenvalues --   -0.43379  -0.43097  -0.42963  -0.42674  -0.42246
 Alpha  occ. eigenvalues --   -0.42040  -0.41843  -0.41818  -0.41461  -0.41279
 Alpha  occ. eigenvalues --   -0.40836  -0.40763  -0.40549  -0.40387  -0.40311
 Alpha  occ. eigenvalues --   -0.39932  -0.39833  -0.39813  -0.39737  -0.39239
 Alpha  occ. eigenvalues --   -0.38981  -0.38857  -0.38516  -0.37190  -0.36824
 Alpha  occ. eigenvalues --   -0.36616  -0.36249  -0.35168  -0.34364  -0.34223
 Alpha  occ. eigenvalues --   -0.34120  -0.34042  -0.33953  -0.33141  -0.32840
 Alpha  occ. eigenvalues --   -0.32472  -0.32451  -0.32443  -0.32301  -0.30673
 Alpha  occ. eigenvalues --   -0.30491  -0.29424  -0.27307  -0.23761
 Alpha virt. eigenvalues --   -0.10930  -0.07597  -0.03616  -0.02069  -0.00780
 Alpha virt. eigenvalues --   -0.00160   0.00373   0.00680   0.00730   0.01156
 Alpha virt. eigenvalues --    0.01813   0.04370   0.05054   0.06060   0.06414
 Alpha virt. eigenvalues --    0.06728   0.06929   0.07227   0.07518   0.07583
 Alpha virt. eigenvalues --    0.07868   0.08157   0.08357   0.08440   0.08579
 Alpha virt. eigenvalues --    0.08759   0.08976   0.09417   0.09459   0.09551
 Alpha virt. eigenvalues --    0.09671   0.09814   0.10049   0.10217   0.10356
 Alpha virt. eigenvalues --    0.10493   0.10852   0.11032   0.11090   0.11241
 Alpha virt. eigenvalues --    0.11364   0.11630   0.11803   0.12110   0.12162
 Alpha virt. eigenvalues --    0.12319   0.12459   0.12704   0.12858   0.12866
 Alpha virt. eigenvalues --    0.12927   0.13019   0.13469   0.13566   0.13708
 Alpha virt. eigenvalues --    0.13776   0.13882   0.13961   0.14138   0.14403
 Alpha virt. eigenvalues --    0.14513   0.14555   0.14846   0.15189   0.15252
 Alpha virt. eigenvalues --    0.15405   0.15580   0.15631   0.15687   0.15749
 Alpha virt. eigenvalues --    0.15893   0.16047   0.16164   0.16455   0.16607
 Alpha virt. eigenvalues --    0.16669   0.16767   0.16833   0.16952   0.16967
 Alpha virt. eigenvalues --    0.17143   0.17387   0.17428   0.17692   0.17812
 Alpha virt. eigenvalues --    0.17998   0.18062   0.18216   0.18383   0.18644
[...]
 Alpha virt. eigenvalues --    4.55373   4.55559   4.56054   4.56091   4.56865
 Alpha virt. eigenvalues --    4.57505   4.58037   4.58357   4.58569   4.58753
 Alpha virt. eigenvalues --    4.59372   4.59882   4.60437   4.60727   4.61226
 Alpha virt. eigenvalues --    4.61292   4.61489   4.61576   4.61911   4.62031
 Alpha virt. eigenvalues --    4.62297   4.62419   4.62956   4.63190   4.63505
 Alpha virt. eigenvalues --    4.63755   4.64244   4.64709   4.64759   4.64875
 Alpha virt. eigenvalues --    4.65161   4.65682   4.65798   4.66404   4.66693
 Alpha virt. eigenvalues --    4.67346   4.67511   4.67575   4.67738   4.67947
 Alpha virt. eigenvalues --    4.68368   4.68740   4.68849   4.69484   4.69642
 Alpha virt. eigenvalues --    4.69822   4.69897   4.70330   4.70474   4.70641
 Alpha virt. eigenvalues --    4.70988   4.71123   4.71959   4.72137   4.72399
 Alpha virt. eigenvalues --    4.72627   4.72924   4.73248   4.73606   4.74108
 Alpha virt. eigenvalues --    4.74908   4.75009   4.75432   4.75582   4.76025
 Alpha virt. eigenvalues --    4.76308   4.76797   4.77050   4.77579   4.77689
 Alpha virt. eigenvalues --    4.77751   4.78361   4.78436   4.78795   4.78973
 Alpha virt. eigenvalues --    4.79306   4.79905   4.80126   4.80471   4.80555
 Alpha virt. eigenvalues --    4.81585   4.81643   4.82033   4.82125   4.82515
 Alpha virt. eigenvalues --    4.82624   4.82889   4.83570   4.83927   4.84297
 Alpha virt. eigenvalues --    4.84350   4.84612   4.84889   4.85483   4.85956
 Alpha virt. eigenvalues --    4.86463   4.86835   4.87018   4.87812   4.88040
 Alpha virt. eigenvalues --    4.88176   4.89216   4.89364   4.89564   4.90180
 Alpha virt. eigenvalues --    4.90254   4.90271   4.90662   4.91284   4.91535
 Alpha virt. eigenvalues --    4.92512   4.92607   4.92960   4.93045   4.93101
 Alpha virt. eigenvalues --    4.93504   4.93808   4.93879   4.93951   4.94107
 Alpha virt. eigenvalues --    4.94372   4.94817   4.95052   4.95247   4.95508
 Alpha virt. eigenvalues --    4.95708   4.95827   4.95956   4.96191   4.96526
 Alpha virt. eigenvalues --    4.97377   4.97823   4.98323   4.98404   4.98555
 Alpha virt. eigenvalues --    4.98861   4.99173   4.99454   4.99740   5.00365
 Alpha virt. eigenvalues --    5.00434   5.01452   5.01622   5.01660   5.01977
 Alpha virt. eigenvalues --    5.02462   5.02851   5.03625   5.03781   5.03983
 Alpha virt. eigenvalues --    5.04574   5.04885   5.05239   5.05708   5.05856
 Alpha virt. eigenvalues --    5.06062   5.06202   5.06754   5.06963   5.07367
 Alpha virt. eigenvalues --    5.07497   5.08193   5.08308   5.08785   5.09565
 Alpha virt. eigenvalues --    5.09764   5.09913   5.10157   5.10452   5.11029
 Alpha virt. eigenvalues --    5.12225   5.12354   5.12962   5.13207   5.13542
 Alpha virt. eigenvalues --    5.13861   5.14022   5.14258   5.14426   5.14895
 Alpha virt. eigenvalues --    5.15452   5.15991   5.16500   5.17034   5.17082
 Alpha virt. eigenvalues --    5.17407   5.17846   5.17955   5.18372   5.18580
 Alpha virt. eigenvalues --    5.18949   5.19578   5.19637   5.20997   5.21205
 Alpha virt. eigenvalues --    5.21967   5.22066   5.22464   5.22894   5.23104
 Alpha virt. eigenvalues --    5.23568   5.23965   5.24302   5.24860   5.25083
 Alpha virt. eigenvalues --    5.25518   5.25705   5.26241   5.27052   5.27522
 Alpha virt. eigenvalues --    5.27792   5.28007   5.28204   5.28362   5.28420
 Alpha virt. eigenvalues --    5.28573   5.28776   5.28851   5.29121   5.29525
 Alpha virt. eigenvalues --    5.29625   5.29917   5.30269   5.30477   5.30633
 Alpha virt. eigenvalues --    5.30769   5.30966   5.31234   5.31438   5.31949
 Alpha virt. eigenvalues --    5.32148   5.32187   5.33301   5.33576   5.33782
 Alpha virt. eigenvalues --    5.33957   5.34096   5.34660   5.35384   5.36208
 Alpha virt. eigenvalues --    5.36403   5.37144   5.37289   5.37706   5.37936
 Alpha virt. eigenvalues --    5.38141   5.38323   5.38526   5.38849   5.38961
 Alpha virt. eigenvalues --    5.39501   5.39870   5.40010   5.40504   5.40777
 Alpha virt. eigenvalues --    5.41193   5.41663   5.42250   5.42636   5.42988
 Alpha virt. eigenvalues --    5.43075   5.43468   5.43611   5.44078   5.44406
 Alpha virt. eigenvalues --    5.44707   5.45115   5.45453   5.45873   5.46584
 Alpha virt. eigenvalues --    5.46835   5.47342   5.47888   5.48305   5.48762
 Alpha virt. eigenvalues --    5.48976   5.49869   5.50160   5.51003   5.51133
 Alpha virt. eigenvalues --    5.51262   5.51437   5.52284   5.52945   5.53298
 Alpha virt. eigenvalues --    5.53852   5.54268   5.55043   5.55163   5.55461
 Alpha virt. eigenvalues --    5.55528   5.56248   5.57006   5.57167   5.57367
 Alpha virt. eigenvalues --    5.58104   5.58685   5.58790   5.58916   5.59048
 Alpha virt. eigenvalues --    5.59673   5.59808   5.59977   5.60046   5.60165
 Alpha virt. eigenvalues --    5.60673   5.60995   5.61230   5.62073   5.62175
 Alpha virt. eigenvalues --    5.62658   5.63061   5.63633   5.63791   5.63873
 Alpha virt. eigenvalues --    5.64250   5.64422   5.64652   5.64885   5.65193
 Alpha virt. eigenvalues --    5.65800   5.65892   5.66587   5.66849   5.67034
 Alpha virt. eigenvalues --    5.67652   5.68089   5.68931   5.69993   5.70526
 Alpha virt. eigenvalues --    5.71220   5.72879   5.74590   5.75387   5.77239
 Alpha virt. eigenvalues --    5.77531   5.79493   5.81894   5.82977   5.83676
 Alpha virt. eigenvalues --    5.84593   5.85351   5.86450   5.86859   5.88030
 Alpha virt. eigenvalues --    5.88392   5.88793   5.88847   5.89915   5.91146
 Alpha virt. eigenvalues --    5.91635   5.92824   5.92930   5.93535   5.94814
 Alpha virt. eigenvalues --    5.96120   5.96860   5.98903   5.99866   6.00428
 Alpha virt. eigenvalues --    6.00759   6.02292   6.03008   6.03339   6.03948
 Alpha virt. eigenvalues --    6.04559   6.05363   6.06485   6.06500   6.08585
 Alpha virt. eigenvalues --    6.09370   6.09739   6.10378   6.10447   6.11576
 Alpha virt. eigenvalues --    6.11726   6.14347   6.17655   6.18619   6.20504
 Alpha virt. eigenvalues --    6.21347   6.22086   6.22280   6.22963   6.23952
 Alpha virt. eigenvalues --    6.24898   6.25364   6.25937   6.26431   6.28175
 Alpha virt. eigenvalues --    6.28215   6.28389   6.30579   6.31200   6.33055
 Alpha virt. eigenvalues --    6.35065   6.36161   6.38601   6.38686   6.39108
 Alpha virt. eigenvalues --    6.39593   6.40476   6.41709   6.41995   6.42741
 Alpha virt. eigenvalues --    6.43252   6.44909   6.58956   6.68388   6.72273
 Alpha virt. eigenvalues --    6.72318   6.72866   6.73430   6.73432   6.74755
 Alpha virt. eigenvalues --    6.75809   6.75864   6.76733   6.76943   6.77707
 Alpha virt. eigenvalues --    6.77811   6.80808   6.80815   6.81260   6.83172
 Alpha virt. eigenvalues --    6.84005   6.84129   6.84455   6.84505   6.84760
 Alpha virt. eigenvalues --    6.85210   6.86257   6.86683   6.87525   6.93280
 Alpha virt. eigenvalues --    6.93588   6.93692   6.95486   6.95776   6.96669
 Alpha virt. eigenvalues --    6.98343   6.98569   6.99432   6.99550   7.00614
 Alpha virt. eigenvalues --    7.01276   7.01736   7.03769   7.04495   7.07301
 Alpha virt. eigenvalues --    7.08409   7.08903   7.10708   7.14035   7.16777
 Alpha virt. eigenvalues --    7.20768   7.21937   7.23888   7.26559   7.26716
 Alpha virt. eigenvalues --    7.27223   7.28568   7.29770   7.30034   7.30063
 Alpha virt. eigenvalues --    7.30405   7.33194   7.33280   7.33317   7.33340
 Alpha virt. eigenvalues --    7.33458   7.34148   7.34273   7.38093   7.38217
 Alpha virt. eigenvalues --    7.38735   7.40036   7.44686   7.44716   7.46779
 Alpha virt. eigenvalues --    7.47076   7.50702   8.46320   8.49441   8.56200
 Alpha virt. eigenvalues --    8.61430   8.82924   8.87598   8.91648   8.92869
 Alpha virt. eigenvalues --    8.93266   9.00099  15.84224  22.74993  22.76459
 Alpha virt. eigenvalues --   22.87279  22.88503  22.89657  23.03773  23.04380
 Alpha virt. eigenvalues --   23.11936  23.13151  23.14491  23.17751  23.18838
 Alpha virt. eigenvalues --   23.19105  23.23680  23.25635  23.27393  23.27626
 Alpha virt. eigenvalues --   23.28781  23.30197  23.31614  23.31862  23.31953
 Alpha virt. eigenvalues --   23.34183  23.35627  23.35756  23.36642  23.37407
 Alpha virt. eigenvalues --   23.38304  23.39463  23.39856  23.40748  23.41186
 Alpha virt. eigenvalues --   23.43216  23.45549  23.45852  23.47613  23.49183
 Alpha virt. eigenvalues --   23.51018  23.51492  23.55114  23.59111  23.61909
 Alpha virt. eigenvalues --   23.62646  23.73206  23.79470  23.91076  24.06352
 Alpha virt. eigenvalues --   24.09281  24.09671  32.58457  33.10952  33.23861
 Alpha virt. eigenvalues --   34.47500  34.48350  34.60327  34.61456  34.89169
 Alpha virt. eigenvalues --   34.89479  42.91866  42.92134  44.20581  44.23049
 Alpha virt. eigenvalues --   44.25640  44.29913  44.34651  44.38493  44.44071
 Alpha virt. eigenvalues --   44.48439  44.49008  44.57702  44.62240  44.63650
 Alpha virt. eigenvalues --   57.42825  57.58193 117.58888 117.58980
          Condensed to atoms (all electrons):
 Mulliken charges:
               1
     1  B    0.342440
     2  N   -0.088103
     3  C    0.104518
     4  C   -0.038887
     5  C    0.024787
     6  C    0.121825
     7  C    0.077248
     8  C    0.151184
     9  O   -0.321835
    10  C   -0.165165
    11  C   -0.054444
    12  C   -0.098966
    13  C   -0.095980
    14  C   -0.010412
    15  C   -0.109612
    16  C   -0.091625
    17  N    0.494209
    18  O   -0.366933
    19  O   -0.366911
    20  C    0.096079
    21  N   -0.086541
    22  C    0.063585
    23  C   -0.019996
    24  C    0.028583
    25  C   -0.454746
    26  C   -0.125411
    27  C   -0.087363
    28  C    0.015205
    29  C   -0.151886
    30  C   -0.195983
    31  C    0.232038
    32  O   -0.279209
    33  C   -0.098214
    34  C   -0.145710
    35  O   -0.326899
    36  C   -0.044235
    37  C   -0.134776
    38  O   -0.334126
    39  C   -0.099442
    40  C   -0.106956
    41  O   -0.345948
    42  C   -0.210033
    43  C   -0.172334
    44  C   -0.148876
    45  C   -0.436871
    46  C   -0.177394
    47  C   -0.048494
    48  C   -0.005722
    49  C   -0.150435
    50  C   -0.173582
    51  C    0.226039
    52  O   -0.280784
    53  C   -0.102884
    54  C   -0.092539
    55  O   -0.341013
    56  C   -0.094570
    57  C   -0.060109
    58  O   -0.362910
    59  C   -0.077472
    60  C   -0.037441
    61  O   -0.352666
    62  C   -0.204195
    63  C   -0.196681
    64  C   -0.141358
    65  F   -0.337048
    66  F   -0.335280
    67  H    0.193951
    68  H    0.190241
    69  H    0.163824
    70  H    0.195177
    71  H    0.195960
    72  H    0.161340
    73  H    0.171648
    74  H    0.133586
    75  H    0.179123
    76  H    0.108642
    77  H    0.131832
    78  H    0.156229
    79  H    0.159483
    80  H    0.165840
    81  H    0.152308
    82  H    0.133889
    83  H    0.132441
    84  H    0.125774
    85  H    0.123847
    86  H    0.132095
    87  H    0.132936
    88  H    0.130924
    89  H    0.139848
    90  H    0.137969
    91  H    0.141091
    92  H    0.137612
    93  H    0.123655
    94  H    0.125927
    95  H    0.155057
    96  H    0.141967
    97  H    0.186856
    98  H    0.137385
    99  H    0.135072
   100  H    0.126145
   101  H    0.125605
   102  H    0.143590
   103  H    0.156747
   104  H    0.151236
   105  H    0.150122
   106  H    0.127200
   107  H    0.129576
   108  H    0.127781
   109  H    0.120112
   110  H    0.132376
   111  H    0.124934
   112  H    0.119233
   113  H    0.133620
   114  H    0.112399
   115  H    0.110396
   116  H    0.136503
   117  H    0.120688
   118  H    0.120175
   119  H    0.159333
   120  H    0.150021
   121  O   -0.215315
   122  I   -0.040297
   123  I   -0.046447
 Sum of Mulliken charges =  -0.00000
 Mulliken charges with hydrogens summed into heavy atoms:
               1
     1  B    0.342440
     2  N   -0.088103
     3  C    0.104518
     4  C   -0.038887
     5  C    0.024787
     6  C    0.121825
     7  C    0.077248
     8  C    0.151184
     9  O   -0.321835
    10  C    0.219027
    11  C   -0.054444
    12  C    0.064858
    13  C    0.099197
    14  C   -0.010412
    15  C    0.086349
    16  C    0.069715
    17  N    0.494209
    18  O   -0.366933
    19  O   -0.366911
    20  C    0.096079
    21  N   -0.086541
    22  C    0.063585
    23  C   -0.019996
    24  C    0.028583
    25  C    0.029611
    26  C   -0.016769
    27  C    0.044469
    28  C    0.015205
    29  C    0.004343
    30  C   -0.036500
    31  C    0.232038
    32  O   -0.279209
    33  C    0.219934
    34  C    0.120620
    35  O   -0.326899
    36  C    0.205386
    37  C    0.130255
    38  O   -0.334126
    39  C    0.171329
    40  C    0.172103
    41  O   -0.345948
    42  C    0.177161
    43  C   -0.017277
    44  C   -0.006910
    45  C    0.022441
    46  C   -0.051249
    47  C    0.077111
    48  C   -0.005722
    49  C   -0.006846
    50  C   -0.016835
    51  C    0.226039
    52  O   -0.280784
    53  C    0.198475
    54  C    0.164238
    55  O   -0.341013
    56  C    0.153323
    57  C    0.197201
    58  O   -0.362910
    59  C    0.175381
    60  C    0.185355
    61  O   -0.352666
    62  C    0.173171
    63  C   -0.037348
    64  C    0.008663
    65  F   -0.337048
    66  F   -0.335280
   121  O   -0.215315
   122  I   -0.040297
   123  I   -0.046447
 Electronic spatial extent (au):  <R**2>=         139189.5903
 Charge=             -0.0000 electrons
 Dipole moment (field-independent basis, Debye):
    X=             -4.8653    Y=             -4.0095    Z=             -6.2280  Tot=              8.8620
 Quadrupole moment (field-independent basis, Debye-Ang):
   XX=           -410.1712   YY=           -416.5837   ZZ=           -434.9739
   XY=            -49.1188   XZ=             52.0215   YZ=              1.1604
 Traceless Quadrupole moment (field-independent basis, Debye-Ang):
   XX=             10.4051   YY=              3.9926   ZZ=            -14.3977
   XY=            -49.1188   XZ=             52.0215   YZ=              1.1604
 Octapole moment (field-independent basis, Debye-Ang**2):
  XXX=          -1396.7547  YYY=            -49.1231  ZZZ=              9.3872  XYY=             77.0933
  XXY=          -1123.7626  XXZ=            -48.6743  XZZ=           -187.8953  YZZ=           -108.5317
  YYZ=           -307.7193  XYZ=            -62.1872
 Hexadecapole moment (field-independent basis, Debye-Ang**3):
 XXXX=        -130353.5449 YYYY=         -50389.9314 ZZZZ=          -6375.4280 XXXY=          -1472.3266
 XXXZ=           7239.6012 YYYX=           1207.1066 YYYZ=          -1514.1715 ZZZX=            561.9193
 ZZZY=           -182.0374 XXYY=         -30103.4667 XXZZ=         -21368.8751 YYZZ=          -9092.9848
 XXYZ=           3406.2697 YYXZ=           2986.1637 ZZXY=            657.1008
 N-N= 1.056325946767D+04 E-N=-2.984120569071D+04  KE= 3.401151030985D+03
 Leave Link  601 at Fri Nov 14 03:58:28 2025, MaxMem= 30870077440 cpu:             139.7 elap:               2.7
 (Enter /public/software/gauss/g16/l9999.exe)
 1\1\GINC-CU137\SP\RM062X\def2TZVPP\C49H54B1F2I2N3O12\BAIDING\14-Nov-20
 25\0\\#p M062X/DEF2TZVPP scrf=(solvent=water) em=GD3\\Energy calculati
 on for BE_I_i\\0,1\B,0,-2.069623,0.600436,0.400484\N,0,-3.226197,-0.43
 9989,0.394524\C,0,-3.083107,-1.776796,0.143229\C,0,-4.397487,-2.330791
 ,0.030105\C,0,-5.336387,-1.31664,0.195155\C,0,-4.57853,-0.123344,0.425
 352\C,0,-4.982154,1.19799,0.663017\C,0,-6.452711,1.505828,0.786162\O,0
 ,-7.111186,1.252265,1.777689\C,0,-8.317952,2.542963,-0.307044\C,0,-9.2
 48073,1.439309,-0.743114\C,0,-9.315272,1.077326,-2.097389\C,0,-10.1600
 25,0.056052,-2.517012\C,0,-10.94075,-0.594498,-1.560025\C,0,-10.899831
 ,-0.255485,-0.20765\C,0,-10.043617,0.765368,0.193835\N,0,-11.834906,-1
 .666713,-1.990562\O,0,-11.869643,-1.95682,-3.190487\O,0,-12.519028,-2.
 239852,-1.136905\C,0,-4.054234,2.232712,0.851284\N,0,-2.683095,1.99687
 1,0.7158\C,0,-2.011437,3.153484,1.00624\C,0,-2.987792,4.138984,1.35563
 4\C,0,-4.259172,3.593973,1.252904\C,0,-5.558666,4.284054,1.523953\C,0,
 -0.593785,3.39655,0.988608\C,0,0.382744,2.697228,0.351033\C,0,1.804846
 ,3.001945,0.373304\C,0,2.380422,4.05653,1.121852\C,0,3.74396,4.288032,
 1.098954\C,0,4.592849,3.471699,0.326608\O,0,5.918644,3.781893,0.379785
 \C,0,6.844285,2.993017,-0.386261\C,0,8.237924,3.534358,-0.120595\O,0,8
 .423801,4.884157,-0.530785\C,0,8.585952,5.053512,-1.940007\C,0,9.01345
 8,6.486619,-2.200483\O,0,10.292616,6.780215,-1.63084\C,0,11.356545,6.9
 59552,-2.564584\C,0,11.79074,5.68367,-3.282986\O,0,12.09237,4.591885,-
 2.418644\C,0,13.26267,4.780649,-1.630637\C,0,4.049849,2.420023,-0.4237
 66\C,0,2.674792,2.200258,-0.391469\C,0,-6.825076,-1.447672,0.147852\C,
 0,-1.768281,-2.364086,0.072319\C,0,-1.432548,-3.517304,-0.561285\C,0,-
 0.099603,-4.097363,-0.645326\C,0,0.074348,-5.281799,-1.38655\C,0,1.317
 169,-5.897321,-1.519264\C,0,2.434564,-5.32447,-0.897557\O,0,3.699401,-
 5.830365,-0.957056\C,0,3.921804,-7.041816,-1.697426\C,0,5.391701,-7.37
 8057,-1.609717\O,0,5.701882,-7.737884,-0.265073\C,0,7.067274,-8.10146,
 -0.0639\C,0,7.960223,-6.877468,0.158475\O,0,9.311567,-7.283618,0.39430
 5\C,0,9.627214,-7.529668,1.765473\C,0,10.128263,-6.255179,2.437606\O,0
 ,10.448165,-6.572889,3.785618\C,0,10.933254,-5.446341,4.502717\C,0,2.2
 85894,-4.140812,-0.149762\C,0,1.045084,-3.540935,-0.026921\F,0,-1.1258
 9,0.270628,1.379127\F,0,-1.46139,0.598885,-0.865749\H,0,-8.564346,2.90
 746,0.689897\H,0,-8.327925,3.369459,-1.017832\H,0,-8.705247,1.601452,-
 2.826485\H,0,-10.221585,-0.229944,-3.55914\H,0,-11.52173,-0.7799,0.506
 47\H,0,-9.991989,1.041311,1.241641\H,0,-6.195674,3.699201,2.192717\H,0
 ,-5.380047,5.251436,1.996503\H,0,-6.117861,4.461417,0.5992\H,0,-0.3183
 52,4.296533,1.53008\H,0,0.11065,1.846736,-0.26286\H,0,1.754228,4.70067
 7,1.730718\H,0,4.182997,5.096651,1.674699\H,0,6.801445,1.943841,-0.069
 356\H,0,6.584744,3.045156,-1.449571\H,0,8.432428,3.51472,0.956479\H,0,
 8.964176,2.871869,-0.613158\H,0,9.339431,4.348242,-2.315349\H,0,7.6436
 1,4.865036,-2.475061\H,0,9.007725,6.673584,-3.281103\H,0,8.285303,7.16
 5402,-1.738986\H,0,11.085817,7.703137,-3.329356\H,0,12.185021,7.373204
 ,-1.98174\H,0,10.99011,5.325155,-3.937228\H,0,12.658494,5.928923,-3.91
 5889\H,0,13.471271,3.828031,-1.136699\H,0,14.125244,5.054554,-2.254777
 \H,0,13.128426,5.550479,-0.859985\H,0,4.680776,1.776855,-1.024749\H,0,
 2.259725,1.382536,-0.974419\H,0,-7.271775,-1.328541,1.139983\H,0,-7.26
 9821,-0.695342,-0.509428\H,0,-7.106904,-2.430706,-0.233273\H,0,-0.9928
 07,-1.777103,0.550653\H,0,-2.200818,-4.074771,-1.087515\H,0,-0.78814,-
 5.730603,-1.871807\H,0,1.403157,-6.807753,-2.099553\H,0,3.317349,-7.85
 3406,-1.275846\H,0,3.643525,-6.899487,-2.748103\H,0,5.597288,-8.21816,
 -2.289072\H,0,5.98787,-6.518499,-1.943486\H,0,7.088594,-8.739259,0.825
 82\H,0,7.443831,-8.689842,-0.912065\H,0,7.97532,-6.242998,-0.73314\H,0
 ,7.570885,-6.279328,0.991553\H,0,8.762785,-7.927369,2.3115\H,0,10.4151
 08,-8.289926,1.783225\H,0,11.014536,-5.877589,1.904672\H,0,9.355899,-5
 .471194,2.398571\H,0,11.151843,-5.776297,5.521543\H,0,11.852802,-5.046
 627,4.051252\H,0,10.185957,-4.640544,4.540394\H,0,3.162472,-3.712068,0
 .325542\H,0,0.963981,-2.629412,0.556521\O,0,-6.920076,2.0983,-0.319045
 \I,0,-4.89779,-4.352512,-0.170783\I,0,-2.552831,6.118778,1.870634\\Ver
 sion=ES64L-G16RevA.03\State=1-A\HF=-3786.4672977\RMSD=3.159e-09\Dipole
 =1.9141387,1.5774781,-2.4502981\Quadrupole=7.7359189,2.9683815,-10.704
 3004,-36.5185991,-38.6767442,-0.8627223\PG=C01 [X(C49H54B1F2I2N3O12)]\
 \@


 FROM THE ASHES OF OUR DESPAIR GROW THE FLOWERS OF TOMORROW.
 Job cpu time:       1 days 10 hours 15 minutes 22.1 seconds.
 Elapsed time:       0 days  0 hours 32 minutes 49.2 seconds.
 File lengths (MBytes):  RWF=   5846 Int=      0 D2E=      0 Chk=    497 Scr=      1
 Normal termination of Gaussian 16 at Fri Nov 14 03:58:29 2025.
