 Entering Gaussian System, Link 0=g16
 Input=BE_I_reduced_sp.gjf
 Output=BE_I_reduced_sp.log
 Initial command:
 /public/software/gauss/g16/l1.exe "/public/home/baiding/1106_BE_sp/tmp_BE_I_reduced_sp_1571376/Gau-1385673.inp" -scrdir="/public/home/baiding/1106_BE_sp/tmp_BE_I_reduced_sp_1571376/"
 Entering Link 1 = /public/software/gauss/g16/l1.exe PID=   1385674.
  
 Copyright (c) 1988,1990,1992,1993,1995,1998,2003,2009,2016,
            Gaussian, Inc.  All Rights Reserved.
  
 This is part of the Gaussian(R) 16 program.  It is based on
 the Gaussian(R) 09 system (copyright 2009, Gaussian, Inc.),
 the Gaussian(R) 03 system (copyright 2003, Gaussian, Inc.),
 the Gaussian(R) 98 system (copyright 1998, Gaussian, Inc.),
 the Gaussian(R) 94 system (copyright 1995, Gaussian, Inc.),
 the Gaussian 92(TM) system (copyright 1992, Gaussian, Inc.),
 the Gaussian 90(TM) system (copyright 1990, Gaussian, Inc.),
 the Gaussian 88(TM) system (copyright 1988, Gaussian, Inc.),
 the Gaussian 86(TM) system (copyright 1986, Carnegie Mellon
 University), and the Gaussian 82(TM) system (copyright 1983,
 Carnegie Mellon University). Gaussian is a federally registered
 trademark of Gaussian, Inc.
  
 This software contains proprietary and confidential information,
 including trade secrets, belonging to Gaussian, Inc.
  
 This software is provided under written license and may be
 used, copied, transmitted, or stored only in accord with that
 written license.
  
 The following legend is applicable only to US Government
 contracts under FAR:
  
                    RESTRICTED RIGHTS LEGEND
  
 Use, reproduction and disclosure by the US Government is
 subject to restrictions as set forth in subparagraphs (a)
 and (c) of the Commercial Computer Software - Restricted
 Rights clause in FAR 52.227-19.
  
 Gaussian, Inc.
 340 Quinnipiac St., Bldg. 40, Wallingford CT 06492
  
  
 ---------------------------------------------------------------
 Warning -- This program may not be used in any manner that
 competes with the business of Gaussian, Inc. or will provide
 assistance to any competitor of Gaussian, Inc.  The licensee
 of this program is prohibited from giving any competitor of
 Gaussian, Inc. access to this program.  By using this program,
 the user acknowledges that Gaussian, Inc. is engaged in the
 business of creating and licensing software in the field of
 computational chemistry and represents and warrants to the
 licensee that it is not a competitor of Gaussian, Inc. and that
 it will not use this program in any manner prohibited above.
 ---------------------------------------------------------------
  

 Cite this work as:
 Gaussian 16, Revision A.03,
 M. J. Frisch, G. W. Trucks, H. B. Schlegel, G. E. Scuseria, 
 M. A. Robb, J. R. Cheeseman, G. Scalmani, V. Barone, 
 G. A. Petersson, H. Nakatsuji, X. Li, M. Caricato, A. V. Marenich, 
 J. Bloino, B. G. Janesko, R. Gomperts, B. Mennucci, H. P. Hratchian, 
 J. V. Ortiz, A. F. Izmaylov, J. L. Sonnenberg, D. Williams-Young, 
 F. Ding, F. Lipparini, F. Egidi, J. Goings, B. Peng, A. Petrone, 
 T. Henderson, D. Ranasinghe, V. G. Zakrzewski, J. Gao, N. Rega, 
 G. Zheng, W. Liang, M. Hada, M. Ehara, K. Toyota, R. Fukuda, 
 J. Hasegawa, M. Ishida, T. Nakajima, Y. Honda, O. Kitao, H. Nakai, 
 T. Vreven, K. Throssell, J. A. Montgomery, Jr., J. E. Peralta, 
 F. Ogliaro, M. J. Bearpark, J. J. Heyd, E. N. Brothers, K. N. Kudin, 
 V. N. Staroverov, T. A. Keith, R. Kobayashi, J. Normand, 
 K. Raghavachari, A. P. Rendell, J. C. Burant, S. S. Iyengar, 
 J. Tomasi, M. Cossi, J. M. Millam, M. Klene, C. Adamo, R. Cammi, 
 J. W. Ochterski, R. L. Martin, K. Morokuma, O. Farkas, 
 J. B. Foresman, and D. J. Fox, Gaussian, Inc., Wallingford CT, 2016.
 
 ******************************************
 Gaussian 16:  ES64L-G16RevA.03 25-Dec-2016
                 6-Nov-2025 
 ******************************************
 %nprocshared=64
 Will use up to   64 processors via shared memory.
 %mem=230GB
 %chk=BE_I_reduced_sp.chk
 ----------------------------------------------
 #p M062X/DEF2TZVPP scrf=(solvent=water) em=GD3
 ----------------------------------------------
 1/38=1,172=1/1;
 2/12=2,17=6,18=5,40=1/2;
 3/5=44,7=202,11=2,25=1,30=1,70=2201,72=1,74=-55,124=31/1,2,3;
 4//1;
 5/5=2,38=5,53=1/2;
 6/7=2,8=2,9=2,10=2,28=1/1;
 99/5=1,9=1/99;
 Leave Link    1 at Thu Nov  6 17:11:13 2025, MaxMem= 30870077440 cpu:              11.0 elap:               0.2
 (Enter /public/software/gauss/g16/l101.exe)
 -----------------------------------
 Energy calculation for BE_I_reduced
 -----------------------------------
 Symbolic Z-matrix:
 Charge = -1 Multiplicity = 2
 B                     2.29537   0.2015   -0.67091 
 N                     3.00445   1.54433  -1.02079 
 C                     2.43684   2.78686  -1.26508 
 C                     3.51021   3.69881  -1.3985 
 C                     4.72916   3.02999  -1.1946 
 C                     4.37972   1.68472  -0.92121 
 C                     5.18712   0.52884  -0.61642 
 C                     6.29543   0.67074   0.3158 
 O                     6.67775   1.77981   0.74377 
 C                     6.96852  -0.57575   0.91402 
 C                     7.52116  -0.34387   2.30064 
 C                     6.78118   0.11345   3.41291 
 N                     5.34488   0.3965    3.32223 
 O                     4.68479  -0.16763   2.44669 
 O                     4.85606   1.17736   4.14362 
 C                     7.35031   0.31836   4.66594 
 C                     8.69983   0.03777   4.82503 
 C                     9.48355  -0.41663   3.76614 
 C                     8.885    -0.5905    2.52426 
 N                     9.3069    0.22892   6.14004 
 O                     8.59265   0.63394   7.06063 
 O                     10.50736  -0.02426   6.26753 
 C                     4.65308  -0.75265  -1.02061 
 N                     3.28056  -0.93082  -1.082 
 C                     3.00552  -2.23597  -1.46596 
 C                     4.25095  -2.84729  -1.72764 
 C                     5.28958  -1.9313   -1.47367 
 C                     6.73795  -2.11985  -1.80932 
 I                     4.59175  -4.73837  -2.56558 
 C                     1.65012  -2.73727  -1.52748 
 C                     1.26334  -4.03346  -1.41899 
 C                    -0.10699  -4.53482  -1.50566 
 C                    -0.3538   -5.89595  -1.22302 
 C                    -1.6326   -6.43229  -1.27949 
 C                    -2.72311  -5.62146  -1.62875 
 O                    -3.93734  -6.25794  -1.68185 
 C                    -5.13294  -5.5108   -1.95802 
 C                    -5.66144  -4.77314  -0.73347 
 O                    -5.86124  -5.60871   0.40588 
 C                    -6.89039  -6.5951    0.30514 
 C                    -8.29112  -6.02985   0.07983 
 O                    -8.63164  -4.93035   0.9283 
 C                    -8.6154   -5.16134   2.33836 
 C                    -9.72313  -6.06246   2.85805 
 O                    -9.40184  -7.43177   2.62749 
 C                    -10.41659  -8.30615   3.10198 
 C                    -2.50632  -4.26558  -1.91835 
 C                    -1.21674  -3.74208  -1.85892 
 C                     6.0972    3.60188  -1.40867 
 I                     3.40523   5.70053  -2.0144 
 C                     1.00527   2.96226  -1.34179 
 C                     0.3171    4.11259  -1.12386 
 C                    -1.12923   4.28334  -1.2341 
 C                    -2.00971   3.28475  -1.71058 
 C                    -3.37538   3.5076   -1.78687 
 C                    -3.92229   4.74283  -1.39582 
 O                    -5.2816    4.85415  -1.54219 
 C                    -5.95218   6.05672  -1.13113 
 C                    -6.2123    6.09775   0.37013 
 O                    -6.96768   4.98981   0.85075 
 C                    -8.34578   5.00823   0.48399 
 C                    -9.04382   3.95406   1.34171 
 O                    -10.39818   3.7485    0.95614 
 C                    -11.29255   4.78201   1.36761 
 C                    -12.7081   4.26819   1.10876 
 O                    -13.69832   5.25892   1.35884 
 C                    -14.01065   5.4241    2.73913 
 C                    -3.07273   5.75034  -0.92261 
 C                    -1.70052   5.51119  -0.85088 
 F                     1.10454   0.0865   -1.41057 
 F                     2.0013    0.1366    0.69999 
 H                     6.27802  -1.42085   0.9257 
 H                     7.8095   -0.85449   0.27451 
 H                     6.75201   0.67422   5.49279 
 H                     10.53613  -0.62376   3.91144 
 H                     9.4925   -0.92814   1.69169 
 H                     7.26448  -2.74906  -1.08194 
 H                     6.83853  -2.60857  -2.78408 
 H                     7.25835  -1.1614   -1.8675 
 H                     0.89058  -1.97282  -1.63634 
 H                     2.01039  -4.79752  -1.22546 
 H                     0.47963  -6.53849  -0.95119 
 H                    -1.8089   -7.48078  -1.06003 
 H                    -4.97793  -4.80165  -2.77818 
 H                    -5.8476   -6.2609   -2.3039 
 H                    -4.94183  -4.01866  -0.40438 
 H                    -6.58209  -4.24838  -1.02146 
 H                    -6.68613  -7.31925  -0.49596 
 H                    -6.8448   -7.14139   1.25076 
 H                    -8.38923  -5.63426  -0.93541 
 H                    -9.00604  -6.85575   0.18209 
 H                    -7.64211  -5.54356   2.67179 
 H                    -8.75136  -4.17115   2.7845 
 H                    -9.84132  -5.88485   3.93913 
 H                    -10.67602  -5.80261   2.3714 
 H                    -10.57303  -8.18882   4.18422 
 H                    -11.37403  -8.12843   2.59148 
 H                    -10.08924  -9.32877   2.89862 
 H                    -3.3256   -3.61275  -2.19448 
 H                    -1.07893  -2.6928   -2.10111 
 H                     6.43207   4.20591  -0.55791 
 H                     6.83535   2.81435  -1.56237 
 H                     6.10089   4.25227  -2.28994 
 H                     0.45154   2.05836  -1.56345 
 H                     0.85396   5.00485  -0.81641 
 H                    -1.62117   2.32402  -2.034 
 H                    -4.0444    2.73723  -2.15793 
 H                    -5.3922    6.94675  -1.4372 
 H                    -6.89207   6.04944  -1.6878 
 H                    -5.26833   6.07254   0.92173 
 H                    -6.7196    7.04619   0.60301 
 H                    -8.76893   6.00733   0.65908 
 H                    -8.48569   4.76019  -0.57732 
 H                    -8.53634   2.99344   1.20671 
 H                    -8.97931   4.23004   2.40381 
 H                    -11.13942   5.0092    2.43196 
 H                    -11.13215   5.70633   0.79595 
 H                    -12.79885   3.99703   0.05165 
 H                    -12.89601   3.3666    1.7094 
 H                    -14.33039   4.47436   3.19059 
 H                    -13.16471   5.81864   3.31635 
 H                    -14.8355   6.1391    2.79589 
 H                    -3.4576    6.7131   -0.6092 
 H                    -1.05181   6.30096  -0.481 
 
 ITRead=  0  0  0  0  0  0  0  0  0  0  0  0  0  0  0  0  0  0  0  0
 ITRead=  0  0  0  0  0  0  0  0  0  0  0  0  0  0  0  0  0  0  0  0
 ITRead=  0  0  0  0  0  0  0  0  0  0  0  0  0  0  0  0  0  0  0  0
 ITRead=  0  0  0  0  0  0  0  0  0  0  0  0  0  0  0  0  0  0  0  0
 ITRead=  0  0  0  0  0  0  0  0  0  0  0  0  0  0  0  0  0  0  0  0
 ITRead=  0  0  0  0  0  0  0  0  0  0  0  0  0  0  0  0  0  0  0  0
 ITRead=  0  0  0  0
 MicOpt= -1 -1 -1 -1 -1 -1 -1 -1 -1 -1 -1 -1 -1 -1 -1 -1 -1 -1 -1 -1
 MicOpt= -1 -1 -1 -1 -1 -1 -1 -1 -1 -1 -1 -1 -1 -1 -1 -1 -1 -1 -1 -1
 MicOpt= -1 -1 -1 -1 -1 -1 -1 -1 -1 -1 -1 -1 -1 -1 -1 -1 -1 -1 -1 -1
 MicOpt= -1 -1 -1 -1 -1 -1 -1 -1 -1 -1 -1 -1 -1 -1 -1 -1 -1 -1 -1 -1
 MicOpt= -1 -1 -1 -1 -1 -1 -1 -1 -1 -1 -1 -1 -1 -1 -1 -1 -1 -1 -1 -1
 MicOpt= -1 -1 -1 -1 -1 -1 -1 -1 -1 -1 -1 -1 -1 -1 -1 -1 -1 -1 -1 -1
 MicOpt= -1 -1 -1 -1
 NAtoms=    124 NQM=      124 NQMF=       0 NMMI=      0 NMMIF=      0
                NMic=       0 NMicF=      0.
                    Isotopes and Nuclear Properties:
 (Nuclear quadrupole moments (NQMom) in fm**2, nuclear magnetic moments (NMagM)
  in nuclear magnetons)

  Atom         1           2           3           4           5           6           7           8           9          10
 IAtWgt=          11          14          12          12          12          12          12          12          16          12
 AtmWgt=  11.0093053  14.0030740  12.0000000  12.0000000  12.0000000  12.0000000  12.0000000  12.0000000  15.9949146  12.0000000
 NucSpn=           3           2           0           0           0           0           0           0           0           0
 AtZEff=  -0.0000000  -0.0000000  -0.0000000  -0.0000000  -0.0000000  -0.0000000  -0.0000000  -0.0000000  -0.0000000  -0.0000000
 NQMom=    4.0590000   2.0440000   0.0000000   0.0000000   0.0000000   0.0000000   0.0000000   0.0000000   0.0000000   0.0000000
 NMagM=    2.6886370   0.4037610   0.0000000   0.0000000   0.0000000   0.0000000   0.0000000   0.0000000   0.0000000   0.0000000
 AtZNuc=   5.0000000   7.0000000   6.0000000   6.0000000   6.0000000   6.0000000   6.0000000   6.0000000   8.0000000   6.0000000

  Atom        11          12          13          14          15          16          17          18          19          20
 IAtWgt=          12          12          14          16          16          12          12          12          12          14
 AtmWgt=  12.0000000  12.0000000  14.0030740  15.9949146  15.9949146  12.0000000  12.0000000  12.0000000  12.0000000  14.0030740
 NucSpn=           0           0           2           0           0           0           0           0           0           2
 AtZEff=  -0.0000000  -0.0000000  -0.0000000  -0.0000000  -0.0000000  -0.0000000  -0.0000000  -0.0000000  -0.0000000  -0.0000000
 NQMom=    0.0000000   0.0000000   2.0440000   0.0000000   0.0000000   0.0000000   0.0000000   0.0000000   0.0000000   2.0440000
 NMagM=    0.0000000   0.0000000   0.4037610   0.0000000   0.0000000   0.0000000   0.0000000   0.0000000   0.0000000   0.4037610
 AtZNuc=   6.0000000   6.0000000   7.0000000   8.0000000   8.0000000   6.0000000   6.0000000   6.0000000   6.0000000   7.0000000

  Atom        21          22          23          24          25          26          27          28          29          30
 IAtWgt=          16          16          12          14          12          12          12          12         127          12
 AtmWgt=  15.9949146  15.9949146  12.0000000  14.0030740  12.0000000  12.0000000  12.0000000  12.0000000 126.9004000  12.0000000
 NucSpn=           0           0           0           2           0           0           0           0           5           0
 AtZEff=  -0.0000000  -0.0000000  -0.0000000  -0.0000000  -0.0000000  -0.0000000  -0.0000000  -0.0000000  -0.0000000  -0.0000000
 NQMom=    0.0000000   0.0000000   0.0000000   2.0440000   0.0000000   0.0000000   0.0000000   0.0000000 -71.0000000   0.0000000
 NMagM=    0.0000000   0.0000000   0.0000000   0.4037610   0.0000000   0.0000000   0.0000000   0.0000000   2.8132800   0.0000000
 AtZNuc=   8.0000000   8.0000000   6.0000000   7.0000000   6.0000000   6.0000000   6.0000000   6.0000000  53.0000000   6.0000000

  Atom        31          32          33          34          35          36          37          38          39          40
 IAtWgt=          12          12          12          12          12          16          12          12          16          12
 AtmWgt=  12.0000000  12.0000000  12.0000000  12.0000000  12.0000000  15.9949146  12.0000000  12.0000000  15.9949146  12.0000000
 NucSpn=           0           0           0           0           0           0           0           0           0           0
 AtZEff=  -0.0000000  -0.0000000  -0.0000000  -0.0000000  -0.0000000  -0.0000000  -0.0000000  -0.0000000  -0.0000000  -0.0000000
 NQMom=    0.0000000   0.0000000   0.0000000   0.0000000   0.0000000   0.0000000   0.0000000   0.0000000   0.0000000   0.0000000
 NMagM=    0.0000000   0.0000000   0.0000000   0.0000000   0.0000000   0.0000000   0.0000000   0.0000000   0.0000000   0.0000000
 AtZNuc=   6.0000000   6.0000000   6.0000000   6.0000000   6.0000000   8.0000000   6.0000000   6.0000000   8.0000000   6.0000000

  Atom        41          42          43          44          45          46          47          48          49          50
 IAtWgt=          12          16          12          12          16          12          12          12          12         127
 AtmWgt=  12.0000000  15.9949146  12.0000000  12.0000000  15.9949146  12.0000000  12.0000000  12.0000000  12.0000000 126.9004000
 NucSpn=           0           0           0           0           0           0           0           0           0           5
 AtZEff=  -0.0000000  -0.0000000  -0.0000000  -0.0000000  -0.0000000  -0.0000000  -0.0000000  -0.0000000  -0.0000000  -0.0000000
 NQMom=    0.0000000   0.0000000   0.0000000   0.0000000   0.0000000   0.0000000   0.0000000   0.0000000   0.0000000 -71.0000000
 NMagM=    0.0000000   0.0000000   0.0000000   0.0000000   0.0000000   0.0000000   0.0000000   0.0000000   0.0000000   2.8132800
 AtZNuc=   6.0000000   8.0000000   6.0000000   6.0000000   8.0000000   6.0000000   6.0000000   6.0000000   6.0000000  53.0000000

  Atom        51          52          53          54          55          56          57          58          59          60
 IAtWgt=          12          12          12          12          12          12          16          12          12          16
 AtmWgt=  12.0000000  12.0000000  12.0000000  12.0000000  12.0000000  12.0000000  15.9949146  12.0000000  12.0000000  15.9949146
 NucSpn=           0           0           0           0           0           0           0           0           0           0
 AtZEff=  -0.0000000  -0.0000000  -0.0000000  -0.0000000  -0.0000000  -0.0000000  -0.0000000  -0.0000000  -0.0000000  -0.0000000
 NQMom=    0.0000000   0.0000000   0.0000000   0.0000000   0.0000000   0.0000000   0.0000000   0.0000000   0.0000000   0.0000000
 NMagM=    0.0000000   0.0000000   0.0000000   0.0000000   0.0000000   0.0000000   0.0000000   0.0000000   0.0000000   0.0000000
 AtZNuc=   6.0000000   6.0000000   6.0000000   6.0000000   6.0000000   6.0000000   8.0000000   6.0000000   6.0000000   8.0000000

  Atom        61          62          63          64          65          66          67          68          69          70
 IAtWgt=          12          12          16          12          12          16          12          12          12          19
 AtmWgt=  12.0000000  12.0000000  15.9949146  12.0000000  12.0000000  15.9949146  12.0000000  12.0000000  12.0000000  18.9984033
 NucSpn=           0           0           0           0           0           0           0           0           0           1
 AtZEff=  -0.0000000  -0.0000000  -0.0000000  -0.0000000  -0.0000000  -0.0000000  -0.0000000  -0.0000000  -0.0000000  -0.0000000
 NQMom=    0.0000000   0.0000000   0.0000000   0.0000000   0.0000000   0.0000000   0.0000000   0.0000000   0.0000000   0.0000000
 NMagM=    0.0000000   0.0000000   0.0000000   0.0000000   0.0000000   0.0000000   0.0000000   0.0000000   0.0000000   2.6288670
 AtZNuc=   6.0000000   6.0000000   8.0000000   6.0000000   6.0000000   8.0000000   6.0000000   6.0000000   6.0000000   9.0000000

  Atom        71          72          73          74          75          76          77          78          79          80
 IAtWgt=          19           1           1           1           1           1           1           1           1           1
 AtmWgt=  18.9984033   1.0078250   1.0078250   1.0078250   1.0078250   1.0078250   1.0078250   1.0078250   1.0078250   1.0078250
 NucSpn=           1           1           1           1           1           1           1           1           1           1
 AtZEff=  -0.0000000  -0.0000000  -0.0000000  -0.0000000  -0.0000000  -0.0000000  -0.0000000  -0.0000000  -0.0000000  -0.0000000
 NQMom=    0.0000000   0.0000000   0.0000000   0.0000000   0.0000000   0.0000000   0.0000000   0.0000000   0.0000000   0.0000000
 NMagM=    2.6288670   2.7928460   2.7928460   2.7928460   2.7928460   2.7928460   2.7928460   2.7928460   2.7928460   2.7928460
 AtZNuc=   9.0000000   1.0000000   1.0000000   1.0000000   1.0000000   1.0000000   1.0000000   1.0000000   1.0000000   1.0000000

  Atom        81          82          83          84          85          86          87          88          89          90
 IAtWgt=           1           1           1           1           1           1           1           1           1           1
 AtmWgt=   1.0078250   1.0078250   1.0078250   1.0078250   1.0078250   1.0078250   1.0078250   1.0078250   1.0078250   1.0078250
 NucSpn=           1           1           1           1           1           1           1           1           1           1
 AtZEff=  -0.0000000  -0.0000000  -0.0000000  -0.0000000  -0.0000000  -0.0000000  -0.0000000  -0.0000000  -0.0000000  -0.0000000
 NQMom=    0.0000000   0.0000000   0.0000000   0.0000000   0.0000000   0.0000000   0.0000000   0.0000000   0.0000000   0.0000000
 NMagM=    2.7928460   2.7928460   2.7928460   2.7928460   2.7928460   2.7928460   2.7928460   2.7928460   2.7928460   2.7928460
 AtZNuc=   1.0000000   1.0000000   1.0000000   1.0000000   1.0000000   1.0000000   1.0000000   1.0000000   1.0000000   1.0000000

  Atom        91          92          93          94          95          96          97          98          99         100
 IAtWgt=           1           1           1           1           1           1           1           1           1           1
 AtmWgt=   1.0078250   1.0078250   1.0078250   1.0078250   1.0078250   1.0078250   1.0078250   1.0078250   1.0078250   1.0078250
 NucSpn=           1           1           1           1           1           1           1           1           1           1
 AtZEff=  -0.0000000  -0.0000000  -0.0000000  -0.0000000  -0.0000000  -0.0000000  -0.0000000  -0.0000000  -0.0000000  -0.0000000
 NQMom=    0.0000000   0.0000000   0.0000000   0.0000000   0.0000000   0.0000000   0.0000000   0.0000000   0.0000000   0.0000000
 NMagM=    2.7928460   2.7928460   2.7928460   2.7928460   2.7928460   2.7928460   2.7928460   2.7928460   2.7928460   2.7928460
 AtZNuc=   1.0000000   1.0000000   1.0000000   1.0000000   1.0000000   1.0000000   1.0000000   1.0000000   1.0000000   1.0000000

  Atom       101         102         103         104         105         106         107         108         109         110
 IAtWgt=           1           1           1           1           1           1           1           1           1           1
 AtmWgt=   1.0078250   1.0078250   1.0078250   1.0078250   1.0078250   1.0078250   1.0078250   1.0078250   1.0078250   1.0078250
 NucSpn=           1           1           1           1           1           1           1           1           1           1
 AtZEff=  -0.0000000  -0.0000000  -0.0000000  -0.0000000  -0.0000000  -0.0000000  -0.0000000  -0.0000000  -0.0000000  -0.0000000
 NQMom=    0.0000000   0.0000000   0.0000000   0.0000000   0.0000000   0.0000000   0.0000000   0.0000000   0.0000000   0.0000000
 NMagM=    2.7928460   2.7928460   2.7928460   2.7928460   2.7928460   2.7928460   2.7928460   2.7928460   2.7928460   2.7928460
 AtZNuc=   1.0000000   1.0000000   1.0000000   1.0000000   1.0000000   1.0000000   1.0000000   1.0000000   1.0000000   1.0000000

  Atom       111         112         113         114         115         116         117         118         119         120
 IAtWgt=           1           1           1           1           1           1           1           1           1           1
 AtmWgt=   1.0078250   1.0078250   1.0078250   1.0078250   1.0078250   1.0078250   1.0078250   1.0078250   1.0078250   1.0078250
 NucSpn=           1           1           1           1           1           1           1           1           1           1
 AtZEff=  -0.0000000  -0.0000000  -0.0000000  -0.0000000  -0.0000000  -0.0000000  -0.0000000  -0.0000000  -0.0000000  -0.0000000
 NQMom=    0.0000000   0.0000000   0.0000000   0.0000000   0.0000000   0.0000000   0.0000000   0.0000000   0.0000000   0.0000000
 NMagM=    2.7928460   2.7928460   2.7928460   2.7928460   2.7928460   2.7928460   2.7928460   2.7928460   2.7928460   2.7928460
 AtZNuc=   1.0000000   1.0000000   1.0000000   1.0000000   1.0000000   1.0000000   1.0000000   1.0000000   1.0000000   1.0000000

  Atom       121         122         123         124
 IAtWgt=           1           1           1           1
 AtmWgt=   1.0078250   1.0078250   1.0078250   1.0078250
 NucSpn=           1           1           1           1
 AtZEff=  -0.0000000  -0.0000000  -0.0000000  -0.0000000
 NQMom=    0.0000000   0.0000000   0.0000000   0.0000000
 NMagM=    2.7928460   2.7928460   2.7928460   2.7928460
 AtZNuc=   1.0000000   1.0000000   1.0000000   1.0000000
 Leave Link  101 at Thu Nov  6 17:11:14 2025, MaxMem= 30870077440 cpu:               4.7 elap:               0.1
 (Enter /public/software/gauss/g16/l202.exe)
 Stoichiometry    C49H53BF2I2N4O13(1-,2)
 Framework group  C1[X(C49H53BF2I2N4O13)]
 Deg. of freedom   366
 Full point group                 C1      NOp   1
 Largest Abelian subgroup         C1      NOp   1
 Largest concise Abelian subgroup C1      NOp   1
                         Standard orientation:                         
 ---------------------------------------------------------------------
 Center     Atomic      Atomic             Coordinates (Angstroms)
 Number     Number       Type             X           Y           Z
 ---------------------------------------------------------------------
      1          5           0       -2.295369   -0.201495   -0.670908
      2          7           0       -3.004446   -1.544330   -1.020786
      3          6           0       -2.436836   -2.786858   -1.265081
      4          6           0       -3.510210   -3.698811   -1.398499
      5          6           0       -4.729159   -3.029987   -1.194596
      6          6           0       -4.379719   -1.684721   -0.921208
      7          6           0       -5.187119   -0.528842   -0.616420
      8          6           0       -6.295427   -0.670735    0.315798
      9          8           0       -6.677752   -1.779813    0.743772
     10          6           0       -6.968522    0.575750    0.914016
     11          6           0       -7.521164    0.343873    2.300643
     12          6           0       -6.781180   -0.113448    3.412905
     13          7           0       -5.344882   -0.396495    3.322232
     14          8           0       -4.684794    0.167628    2.446689
     15          8           0       -4.856056   -1.177361    4.143617
     16          6           0       -7.350311   -0.318364    4.665936
     17          6           0       -8.699833   -0.037766    4.825033
     18          6           0       -9.483553    0.416633    3.766140
     19          6           0       -8.885001    0.590504    2.524261
     20          7           0       -9.306902   -0.228919    6.140036
     21          8           0       -8.592650   -0.633938    7.060631
     22          8           0      -10.507360    0.024256    6.267528
     23          6           0       -4.653075    0.752654   -1.020611
     24          7           0       -3.280557    0.930823   -1.081997
     25          6           0       -3.005517    2.235970   -1.465956
     26          6           0       -4.250949    2.847293   -1.727642
     27          6           0       -5.289583    1.931300   -1.473673
     28          6           0       -6.737953    2.119851   -1.809322
     29         53           0       -4.591750    4.738373   -2.565584
     30          6           0       -1.650117    2.737273   -1.527480
     31          6           0       -1.263343    4.033458   -1.418986
     32          6           0        0.106989    4.534815   -1.505658
     33          6           0        0.353800    5.895949   -1.223019
     34          6           0        1.632597    6.432291   -1.279491
     35          6           0        2.723107    5.621459   -1.628749
     36          8           0        3.937343    6.257939   -1.681852
     37          6           0        5.132943    5.510797   -1.958024
     38          6           0        5.661444    4.773143   -0.733473
     39          8           0        5.861241    5.608711    0.405882
     40          6           0        6.890393    6.595101    0.305140
     41          6           0        8.291124    6.029853    0.079832
     42          8           0        8.631636    4.930345    0.928301
     43          6           0        8.615400    5.161336    2.338359
     44          6           0        9.723131    6.062457    2.858053
     45          8           0        9.401842    7.431768    2.627486
     46          6           0       10.416593    8.306147    3.101982
     47          6           0        2.506324    4.265577   -1.918354
     48          6           0        1.216740    3.742082   -1.858924
     49          6           0       -6.097196   -3.601878   -1.408672
     50         53           0       -3.405228   -5.700528   -2.014404
     51          6           0       -1.005272   -2.962261   -1.341791
     52          6           0       -0.317099   -4.112591   -1.123855
     53          6           0        1.129232   -4.283340   -1.234101
     54          6           0        2.009709   -3.284749   -1.710581
     55          6           0        3.375379   -3.507598   -1.786865
     56          6           0        3.922286   -4.742826   -1.395820
     57          8           0        5.281600   -4.854147   -1.542193
     58          6           0        5.952182   -6.056718   -1.131134
     59          6           0        6.212298   -6.097749    0.370129
     60          8           0        6.967677   -4.989808    0.850753
     61          6           0        8.345783   -5.008229    0.483987
     62          6           0        9.043824   -3.954056    1.341710
     63          8           0       10.398181   -3.748496    0.956136
     64          6           0       11.292552   -4.782008    1.367608
     65          6           0       12.708105   -4.268193    1.108759
     66          8           0       13.698323   -5.258916    1.358844
     67          6           0       14.010653   -5.424099    2.739128
     68          6           0        3.072731   -5.750343   -0.922614
     69          6           0        1.700518   -5.511188   -0.850877
     70          9           0       -1.104542   -0.086496   -1.410568
     71          9           0       -2.001296   -0.136599    0.699989
     72          1           0       -6.278020    1.420847    0.925697
     73          1           0       -7.809503    0.854487    0.274512
     74          1           0       -6.752008   -0.674220    5.492788
     75          1           0      -10.536127    0.623760    3.911444
     76          1           0       -9.492500    0.928143    1.691692
     77          1           0       -7.264482    2.749059   -1.081937
     78          1           0       -6.838530    2.608568   -2.784077
     79          1           0       -7.258348    1.161403   -1.867499
     80          1           0       -0.890576    1.972824   -1.636344
     81          1           0       -2.010390    4.797521   -1.225462
     82          1           0       -0.479628    6.538486   -0.951192
     83          1           0        1.808897    7.480775   -1.060026
     84          1           0        4.977930    4.801650   -2.778183
     85          1           0        5.847595    6.260896   -2.303897
     86          1           0        4.941831    4.018656   -0.404376
     87          1           0        6.582086    4.248375   -1.021460
     88          1           0        6.686127    7.319254   -0.495960
     89          1           0        6.844796    7.141394    1.250755
     90          1           0        8.389233    5.634261   -0.935411
     91          1           0        9.006037    6.855747    0.182085
     92          1           0        7.642109    5.543555    2.671785
     93          1           0        8.751364    4.171150    2.784496
     94          1           0        9.841319    5.884847    3.939125
     95          1           0       10.676020    5.802607    2.371395
     96          1           0       10.573032    8.188817    4.184223
     97          1           0       11.374026    8.128434    2.591479
     98          1           0       10.089240    9.328765    2.898619
     99          1           0        3.325595    3.612746   -2.194477
    100          1           0        1.078933    2.692800   -2.101109
    101          1           0       -6.432072   -4.205913   -0.557911
    102          1           0       -6.835350   -2.814350   -1.562374
    103          1           0       -6.100892   -4.252269   -2.289943
    104          1           0       -0.451543   -2.058357   -1.563446
    105          1           0       -0.853964   -5.004851   -0.816413
    106          1           0        1.621173   -2.324019   -2.034000
    107          1           0        4.044399   -2.737234   -2.157932
    108          1           0        5.392203   -6.946749   -1.437197
    109          1           0        6.892068   -6.049436   -1.687804
    110          1           0        5.268331   -6.072541    0.921732
    111          1           0        6.719598   -7.046194    0.603007
    112          1           0        8.768928   -6.007331    0.659084
    113          1           0        8.485689   -4.760188   -0.577317
    114          1           0        8.536337   -2.993437    1.206709
    115          1           0        8.979312   -4.230043    2.403813
    116          1           0       11.139416   -5.009195    2.431963
    117          1           0       11.132147   -5.706329    0.795945
    118          1           0       12.798847   -3.997032    0.051651
    119          1           0       12.896014   -3.366598    1.709404
    120          1           0       14.330387   -4.474363    3.190594
    121          1           0       13.164708   -5.818636    3.316349
    122          1           0       14.835497   -6.139100    2.795888
    123          1           0        3.457604   -6.713104   -0.609201
    124          1           0        1.051807   -6.300958   -0.480997
 ---------------------------------------------------------------------
 Rotational constants (GHZ):           0.0173090           0.0094700           0.0072774
 Leave Link  202 at Thu Nov  6 17:11:14 2025, MaxMem= 30870077440 cpu:               0.2 elap:               0.0
 (Enter /public/software/gauss/g16/l301.exe)
 Standard basis: def2TZVPP (5D, 7F)
 Ernie: Thresh=  0.10000D-02 Tol=  0.10000D-05 Strict=F.
 There are  3397 symmetry adapted cartesian basis functions of A   symmetry.
 There are  2981 symmetry adapted basis functions of A   symmetry.
  2981 basis functions,  4638 primitive gaussians,  3397 cartesian basis functions
   277 alpha electrons      276 beta electrons
       nuclear repulsion energy     11243.9721061667 Hartrees.
 IExCor= 4336 DFT=T Ex+Corr=M062X ExCW=0 ScaHFX=  0.540000
 ScaDFX=  1.000000  1.000000  1.000000  1.000000 ScalE2=  1.000000  1.000000
 IRadAn=      5 IRanWt=     -1 IRanGd=            0 ICorTp=0 IEmpDi=131
 NAtoms=  124 NActive=  124 NUniq=  124 SFac= 1.00D+00 NAtFMM=   60 NAOKFM=T Big=T
 Integral buffers will be    131072 words long.
 Raffenetti 2 integral format.
 Two-electron integral symmetry is turned on.
 R6Disp:  Grimme-D3 Dispersion energy=       -0.0106371020 Hartrees.
 Nuclear repulsion after empirical dispersion term =    11243.9614690647 Hartrees.
 ------------------------------------------------------------------------------
 Polarizable Continuum Model (PCM)
 =================================
 Model                : PCM.
 Atomic radii         : UFF (Universal Force Field).
 Polarization charges : Total charges.
 Charge compensation  : None.
 Solution method      : On-the-fly selection.
 Cavity type          : Scaled VdW (van der Waals Surface) (Alpha=1.100).
 Cavity algorithm     : GePol (No added spheres)
                        Default sphere list used, NSphG=  124.
                        Lebedev-Laikov grids with approx.  5.0 points / Ang**2.
                        Smoothing algorithm: York/Karplus (Gamma=1.0000).
                        Polarization charges: spherical gaussians, with
                                              point-specific exponents (IZeta= 3).
                        Self-potential: point-specific (ISelfS= 7).
                        Self-field    : sphere-specific E.n sum rule (ISelfD= 2).
 Solvent              : Water, Eps=  78.355300 Eps(inf)=   1.777849
 ------------------------------------------------------------------------------
 GePol: Number of generator spheres                  =     124
 GePol: Total number of spheres                      =     124
 GePol: Number of exposed spheres                    =     124 (100.00%)
 GePol: Number of points                             =    9003
 GePol: Average weight of points                     =       0.13
 GePol: Minimum weight of points                     =   0.10D-11
 GePol: Maximum weight of points                     =    0.20577
 GePol: Number of points with low weight             =     565
 GePol: Fraction of low-weight points (<1% of avg)   =       6.28%
 GePol: Cavity surface area                          =   1160.498 Ang**2
 GePol: Cavity volume                                =   1342.949 Ang**3
 Leave Link  301 at Thu Nov  6 17:11:14 2025, MaxMem= 30870077440 cpu:               5.1 elap:               0.1
 (Enter /public/software/gauss/g16/l302.exe)
 NPDir=0 NMtPBC=     1 NCelOv=     1 NCel=       1 NClECP=     1 NCelD=      1
         NCelK=      1 NCelE2=     1 NClLst=     1 CellRange=     0.0.
 One-electron integrals computed using PRISM.
 One-electron integral symmetry used in STVInt
   1 Symmetry operations used in ECPInt.
 ECPInt:  NShTT=  615495 NPrTT= 1743658 LenC2=  260501 LenP2D=  483199.
 LDataN:  DoStor=T MaxTD1= 7 Len=  274
 Number of processors reduced to  33 by ecpmxn.
 NBasis=  2981 RedAO= T EigKep=  5.12D-06  NBF=  2981
 NBsUse=  2981 1.00D-06 EigRej= -1.00D+00 NBFU=  2981
 Precomputing XC quadrature grid using
 IXCGrd= 4 IRadAn=           5 IRanWt=          -1 IRanGd=           0 AccXCQ= 0.00D+00.
 Defaulting to unpruned grid for atomic number  53.
 Defaulting to unpruned grid for atomic number  53.
 Generated NRdTot=       0 NPtTot=           0 NUsed=           0 NTot=          32
 NSgBfM=  2448  2448  2448  2448  2448 MxSgAt=   124 MxSgA2=   124.
 Leave Link  302 at Thu Nov  6 17:11:49 2025, MaxMem= 30870077440 cpu:            2185.4 elap:              34.7
 (Enter /public/software/gauss/g16/l303.exe)
 DipDrv:  MaxL=1.
 Leave Link  303 at Thu Nov  6 17:11:50 2025, MaxMem= 30870077440 cpu:              60.8 elap:               1.0
 (Enter /public/software/gauss/g16/l401.exe)
 ExpMin= 6.06D-02 ExpMax= 3.55D+04 ExpMxC= 1.21D+03 IAcc=3 IRadAn=         5 AccDes= 0.00D+00
 Harris functional with IExCor= 1009 and IRadAn=       5 diagonalized for initial guess.
 HarFok:  IExCor= 1009 AccDes= 0.00D+00 IRadAn=         5 IDoV= 1 UseB2=F ITyADJ=14
 ICtDFT=  3500011 ScaDFX=  1.000000  1.000000  1.000000  1.000000
 Defaulting to unpruned grid for atomic number  53.
 FoFCou: FMM=F IPFlag=           0 FMFlag=      100000 FMFlg1=        2001
         NFxFlg=           0 DoJE=T BraDBF=F KetDBF=T FulRan=T
         wScrn=  0.000000 ICntrl=       500 IOpCl=  0 I1Cent=   200000004 NGrid=           0
         NMat0=    1 NMatS0=      1 NMatT0=    0 NMatD0=    1 NMtDS0=    0 NMtDT0=    0
 Petite list used in FoFCou.
 Harris En= -3914.84942738107    
 JPrj=0 DoOrth=F DoCkMO=F.
 Initial guess <Sx>= 0.0000 <Sy>= 0.0000 <Sz>= 0.5000 <S**2>= 0.7500 S= 0.5000
 Leave Link  401 at Thu Nov  6 17:12:16 2025, MaxMem= 30870077440 cpu:            1671.3 elap:              26.2
 (Enter /public/software/gauss/g16/l502.exe)
 Integral symmetry usage will be decided dynamically.
 UHF open shell SCF:
 Using DIIS extrapolation, IDIIS=  1040.
 NGot= 30870077440 LenX= 30846752326 LenY= 30835209320
 Requested convergence on RMS density matrix=1.00D-08 within 128 cycles.
 Requested convergence on MAX density matrix=1.00D-06.
 Requested convergence on             energy=1.00D-06.
 No special actions if energy rises.
 Fock matrices will be formed incrementally for  20 cycles.

 Cycle   1  Pass 1  IDiag  1:
 FoFJK:  IHMeth= 1 ICntrl=       0 DoSepK=F KAlg= 0 I1Cent=           0 FoldK=F
 IRaf= 370000000 NMat=       1 IRICut=       1 DoRegI=T DoRafI=F ISym2E= 0 IDoP0=0 IntGTp=1.
 FoFCou: FMM=T IPFlag=           0 FMFlag=      100000 FMFlg1=        2001
         NFxFlg=           0 DoJE=F BraDBF=F KetDBF=F FulRan=T
         wScrn=  0.000000 ICntrl=         0 IOpCl=  1 I1Cent=           0 NGrid=           0
         NMat0=    1 NMatS0=      1 NMatT0=    0 NMatD0=    1 NMtDS0=    0 NMtDT0=    0
 Symmetry not used in FoFCou.
 FMM levels:  10  Number of levels for PrismC:   9
 Defaulting to unpruned grid for atomic number  53.
 Defaulting to unpruned grid for atomic number  53.
 Defaulting to unpruned grid for atomic number  53.
 Defaulting to unpruned grid for atomic number  53.
 Defaulting to unpruned grid for atomic number  53.
 Defaulting to unpruned grid for atomic number  53.
 Defaulting to unpruned grid for atomic number  53.
 Defaulting to unpruned grid for atomic number  53.
 Defaulting to unpruned grid for atomic number  53.
 Defaulting to unpruned grid for atomic number  53.
 Defaulting to unpruned grid for atomic number  53.
 Defaulting to unpruned grid for atomic number  53.
 Defaulting to unpruned grid for atomic number  53.
 Defaulting to unpruned grid for atomic number  53.
 Defaulting to unpruned grid for atomic number  53.
 Defaulting to unpruned grid for atomic number  53.
 Defaulting to unpruned grid for atomic number  53.
 Defaulting to unpruned grid for atomic number  53.
 Defaulting to unpruned grid for atomic number  53.
 Defaulting to unpruned grid for atomic number  53.
 Defaulting to unpruned grid for atomic number  53.
 Defaulting to unpruned grid for atomic number  53.
 Defaulting to unpruned grid for atomic number  53.
 Defaulting to unpruned grid for atomic number  53.
 Defaulting to unpruned grid for atomic number  53.
 Defaulting to unpruned grid for atomic number  53.
 Defaulting to unpruned grid for atomic number  53.
 Defaulting to unpruned grid for atomic number  53.
 Defaulting to unpruned grid for atomic number  53.
 Defaulting to unpruned grid for atomic number  53.
 Defaulting to unpruned grid for atomic number  53.
 Defaulting to unpruned grid for atomic number  53.
 Defaulting to unpruned grid for atomic number  53.
 Defaulting to unpruned grid for atomic number  53.
 Defaulting to unpruned grid for atomic number  53.
 Defaulting to unpruned grid for atomic number  53.
 Defaulting to unpruned grid for atomic number  53.
 Defaulting to unpruned grid for atomic number  53.
 Defaulting to unpruned grid for atomic number  53.
 Defaulting to unpruned grid for atomic number  53.
 Defaulting to unpruned grid for atomic number  53.
 Defaulting to unpruned grid for atomic number  53.
 Defaulting to unpruned grid for atomic number  53.
 Defaulting to unpruned grid for atomic number  53.
 Defaulting to unpruned grid for atomic number  53.
 Defaulting to unpruned grid for atomic number  53.
 Defaulting to unpruned grid for atomic number  53.
 Defaulting to unpruned grid for atomic number  53.
 Defaulting to unpruned grid for atomic number  53.
 Defaulting to unpruned grid for atomic number  53.
 Defaulting to unpruned grid for atomic number  53.
 Defaulting to unpruned grid for atomic number  53.
 Defaulting to unpruned grid for atomic number  53.
 Defaulting to unpruned grid for atomic number  53.
 Defaulting to unpruned grid for atomic number  53.
 Defaulting to unpruned grid for atomic number  53.
 Defaulting to unpruned grid for atomic number  53.
 Defaulting to unpruned grid for atomic number  53.
 Defaulting to unpruned grid for atomic number  53.
 Defaulting to unpruned grid for atomic number  53.
 Defaulting to unpruned grid for atomic number  53.
 Defaulting to unpruned grid for atomic number  53.
 Defaulting to unpruned grid for atomic number  53.
 Defaulting to unpruned grid for atomic number  53.
 Inv3:  Mode=1 IEnd=   243162027.
 Iteration    1 A*A^-1 deviation from unit magnitude is 1.77D-14 for    281.
 Iteration    1 A*A^-1 deviation from orthogonality  is 7.50D-15 for   7562   6054.
 Iteration    1 A^-1*A deviation from unit magnitude is 1.90D-14 for    281.
 Iteration    1 A^-1*A deviation from orthogonality  is 1.75D-14 for   7341   7320.
 E= -3914.05999167539    
 DIIS: error= 2.97D-02 at cycle   1 NSaved=   1.
 NSaved= 1 IEnMin= 1 EnMin= -3914.05999167539     IErMin= 1 ErrMin= 2.97D-02
 ErrMax= 2.97D-02  0.00D+00 EMaxC= 1.00D-01 BMatC= 9.54D+00 BMatP= 9.54D+00
 IDIUse=3 WtCom= 7.03D-01 WtEn= 2.97D-01
 Coeff-Com:  0.100D+01
 Coeff-En:   0.100D+01
 Coeff:      0.100D+01
 Gap=     0.111 Goal=   None    Shift=    0.000
 Gap=     0.173 Goal=   None    Shift=    0.000
 GapD=    0.111 DampG=1.000 DampE=0.500 DampFc=0.5000 IDamp=-1.
 Damping current iteration by 5.00D-01
 RMSDP=2.06D-03 MaxDP=1.08D+00              OVMax= 7.69D-01

 Cycle   2  Pass 1  IDiag  1:
 RMSU=  1.03D-03    CP:  1.01D+00
 E= -3914.89774026349     Delta-E=       -0.837748588106 Rises=F Damp=T
 DIIS: error= 5.10D-03 at cycle   2 NSaved=   2.
 NSaved= 2 IEnMin= 2 EnMin= -3914.89774026349     IErMin= 2 ErrMin= 5.10D-03
 ErrMax= 5.10D-03  0.00D+00 EMaxC= 1.00D-01 BMatC= 9.67D-01 BMatP= 9.54D+00
 IDIUse=3 WtCom= 9.49D-01 WtEn= 5.10D-02
 Coeff-Com: -0.450D-01 0.104D+01
 Coeff-En:   0.000D+00 0.100D+01
 Coeff:     -0.427D-01 0.104D+01
 Gap=     0.041 Goal=   None    Shift=    0.000
 Gap=     0.201 Goal=   None    Shift=    0.000
 RMSDP=8.01D-04 MaxDP=4.07D-01 DE=-8.38D-01 OVMax= 7.19D-01

 Cycle   3  Pass 1  IDiag  1:
 RMSU=  7.08D-04    CP:  9.92D-01  6.42D-01
 E= -3915.75021858768     Delta-E=       -0.852478324188 Rises=F Damp=F
 DIIS: error= 1.36D-02 at cycle   3 NSaved=   3.
 NSaved= 3 IEnMin= 3 EnMin= -3915.75021858768     IErMin= 2 ErrMin= 5.10D-03
 ErrMax= 1.36D-02  0.00D+00 EMaxC= 1.00D-01 BMatC= 5.77D-01 BMatP= 9.67D-01
 IDIUse=3 WtCom= 8.64D-01 WtEn= 1.36D-01
 Coeff-Com: -0.109D+00 0.483D+00 0.626D+00
 Coeff-En:   0.000D+00 0.000D+00 0.100D+01
 Coeff:     -0.942D-01 0.417D+00 0.677D+00
 Gap=     0.101 Goal=   None    Shift=    0.000
 Gap=     0.105 Goal=   None    Shift=    0.000
 RMSDP=2.41D-04 MaxDP=1.01D-01 DE=-8.52D-01 OVMax= 9.59D-02

 Cycle   4  Pass 1  IDiag  1:
 RMSU=  2.15D-04    CP:  9.91D-01  7.32D-01  9.19D-01
 E= -3915.84566031197     Delta-E=       -0.095441724290 Rises=F Damp=F
 DIIS: error= 4.69D-03 at cycle   4 NSaved=   4.
 NSaved= 4 IEnMin= 4 EnMin= -3915.84566031197     IErMin= 4 ErrMin= 4.69D-03
 ErrMax= 4.69D-03  0.00D+00 EMaxC= 1.00D-01 BMatC= 1.05D-01 BMatP= 5.77D-01
 IDIUse=3 WtCom= 9.53D-01 WtEn= 4.69D-02
 Coeff-Com: -0.312D-01 0.814D-01 0.335D+00 0.615D+00
 Coeff-En:   0.000D+00 0.000D+00 0.104D+00 0.896D+00
 Coeff:     -0.297D-01 0.776D-01 0.324D+00 0.628D+00
 Gap=     0.123 Goal=   None    Shift=    0.000
 Gap=     0.108 Goal=   None    Shift=    0.000
 RMSDP=9.28D-05 MaxDP=5.23D-02 DE=-9.54D-02 OVMax= 4.87D-02

 Cycle   5  Pass 1  IDiag  1:
 RMSU=  7.33D-05    CP:  9.90D-01  6.90D-01  9.55D-01  8.81D-01
 E= -3915.86594148287     Delta-E=       -0.020281170899 Rises=F Damp=F
 DIIS: error= 8.17D-04 at cycle   5 NSaved=   5.
 NSaved= 5 IEnMin= 5 EnMin= -3915.86594148287     IErMin= 5 ErrMin= 8.17D-04
 ErrMax= 8.17D-04  0.00D+00 EMaxC= 1.00D-01 BMatC= 4.42D-03 BMatP= 1.05D-01
 IDIUse=3 WtCom= 9.92D-01 WtEn= 8.17D-03
 Coeff-Com: -0.866D-02 0.145D-01 0.103D+00 0.262D+00 0.629D+00
 Coeff-En:   0.000D+00 0.000D+00 0.000D+00 0.000D+00 0.100D+01
 Coeff:     -0.859D-02 0.144D-01 0.103D+00 0.260D+00 0.632D+00
 Gap=     0.124 Goal=   None    Shift=    0.000
 Gap=     0.111 Goal=   None    Shift=    0.000
 RMSDP=3.00D-05 MaxDP=1.77D-02 DE=-2.03D-02 OVMax= 2.17D-02

 Cycle   6  Pass 1  IDiag  1:
 RMSU=  2.73D-05    CP:  9.90D-01  6.88D-01  9.64D-01  9.18D-01  1.09D+00
 E= -3915.86716356443     Delta-E=       -0.001222081559 Rises=F Damp=F
 DIIS: error= 2.03D-04 at cycle   6 NSaved=   6.
 NSaved= 6 IEnMin= 6 EnMin= -3915.86716356443     IErMin= 6 ErrMin= 2.03D-04
 ErrMax= 2.03D-04  0.00D+00 EMaxC= 1.00D-01 BMatC= 5.35D-04 BMatP= 4.42D-03
 IDIUse=3 WtCom= 9.98D-01 WtEn= 2.03D-03
 Coeff-Com:  0.628D-03-0.406D-02 0.149D-03 0.211D-01 0.219D+00 0.763D+00
 Coeff-En:   0.000D+00 0.000D+00 0.000D+00 0.000D+00 0.000D+00 0.100D+01
 Coeff:      0.627D-03-0.405D-02 0.149D-03 0.211D-01 0.218D+00 0.764D+00
 Gap=     0.126 Goal=   None    Shift=    0.000
 Gap=     0.114 Goal=   None    Shift=    0.000
 RMSDP=2.04D-05 MaxDP=7.38D-03 DE=-1.22D-03 OVMax= 1.74D-02

 Cycle   7  Pass 1  IDiag  1:
 RMSU=  1.11D-05    CP:  9.90D-01  6.82D-01  9.69D-01  9.34D-01  1.25D+00
                    CP:  1.34D+00
 E= -3915.86753175467     Delta-E=       -0.000368190236 Rises=F Damp=F
 DIIS: error= 1.25D-04 at cycle   7 NSaved=   7.
 NSaved= 7 IEnMin= 7 EnMin= -3915.86753175467     IErMin= 7 ErrMin= 1.25D-04
 ErrMax= 1.25D-04  0.00D+00 EMaxC= 1.00D-01 BMatC= 2.49D-04 BMatP= 5.35D-04
 IDIUse=3 WtCom= 9.99D-01 WtEn= 1.25D-03
 Coeff-Com:  0.247D-02-0.557D-02-0.238D-01-0.520D-01-0.434D-01 0.421D+00
 Coeff-Com:  0.701D+00
 Coeff-En:   0.000D+00 0.000D+00 0.000D+00 0.000D+00 0.000D+00 0.000D+00
 Coeff-En:   0.100D+01
 Coeff:      0.247D-02-0.556D-02-0.237D-01-0.519D-01-0.433D-01 0.420D+00
 Coeff:      0.702D+00
 Gap=     0.127 Goal=   None    Shift=    0.000
 Gap=     0.116 Goal=   None    Shift=    0.000
 RMSDP=1.39D-05 MaxDP=5.33D-03 DE=-3.68D-04 OVMax= 1.16D-02

 Cycle   8  Pass 1  IDiag  1:
 RMSU=  5.87D-06    CP:  9.90D-01  6.78D-01  9.73D-01  9.47D-01  1.35D+00
                    CP:  1.65D+00  1.28D+00
 E= -3915.86770362724     Delta-E=       -0.000171872571 Rises=F Damp=F
 DIIS: error= 5.46D-05 at cycle   8 NSaved=   8.
 NSaved= 8 IEnMin= 8 EnMin= -3915.86770362724     IErMin= 8 ErrMin= 5.46D-05
 ErrMax= 5.46D-05  0.00D+00 EMaxC= 1.00D-01 BMatC= 6.46D-05 BMatP= 2.49D-04
 IDIUse=1 WtCom= 1.00D+00 WtEn= 0.00D+00
 Coeff-Com:  0.779D-03-0.742D-03-0.931D-02-0.296D-01-0.911D-01-0.385D-01
 Coeff-Com:  0.328D+00 0.841D+00
 Coeff:      0.779D-03-0.742D-03-0.931D-02-0.296D-01-0.911D-01-0.385D-01
 Coeff:      0.328D+00 0.841D+00
 Gap=     0.128 Goal=   None    Shift=    0.000
 Gap=     0.118 Goal=   None    Shift=    0.000
 RMSDP=1.00D-05 MaxDP=3.70D-03 DE=-1.72D-04 OVMax= 8.78D-03

 Cycle   9  Pass 1  IDiag  1:
 RMSU=  3.00D-06    CP:  9.90D-01  6.76D-01  9.75D-01  9.48D-01  1.41D+00
                    CP:  1.87D+00  1.72D+00  1.38D+00
 E= -3915.86777177099     Delta-E=       -0.000068143749 Rises=F Damp=F
 DIIS: error= 2.86D-05 at cycle   9 NSaved=   9.
 NSaved= 9 IEnMin= 9 EnMin= -3915.86777177099     IErMin= 9 ErrMin= 2.86D-05
 ErrMax= 2.86D-05  0.00D+00 EMaxC= 1.00D-01 BMatC= 2.03D-05 BMatP= 6.46D-05
 IDIUse=1 WtCom= 1.00D+00 WtEn= 0.00D+00
 Coeff-Com: -0.546D-03 0.166D-02 0.504D-02 0.651D-02-0.195D-01-0.157D+00
 Coeff-Com: -0.118D+00 0.377D+00 0.905D+00
 Coeff:     -0.546D-03 0.166D-02 0.504D-02 0.651D-02-0.195D-01-0.157D+00
 Coeff:     -0.118D+00 0.377D+00 0.905D+00
 Gap=     0.128 Goal=   None    Shift=    0.000
 Gap=     0.119 Goal=   None    Shift=    0.000
 RMSDP=6.07D-06 MaxDP=2.36D-03 DE=-6.81D-05 OVMax= 5.87D-03

 Cycle  10  Pass 1  IDiag  1:
 RMSU=  1.92D-06    CP:  9.89D-01  6.74D-01  9.76D-01  9.45D-01  1.43D+00
                    CP:  1.98D+00  1.96D+00  1.84D+00  1.48D+00
 E= -3915.86779337451     Delta-E=       -0.000021603524 Rises=F Damp=F
 DIIS: error= 1.51D-05 at cycle  10 NSaved=  10.
 NSaved=10 IEnMin=10 EnMin= -3915.86779337451     IErMin=10 ErrMin= 1.51D-05
 ErrMax= 1.51D-05  0.00D+00 EMaxC= 1.00D-01 BMatC= 6.11D-06 BMatP= 2.03D-05
 IDIUse=1 WtCom= 1.00D+00 WtEn= 0.00D+00
 Coeff-Com: -0.423D-03 0.890D-03 0.473D-02 0.109D-01 0.164D-01-0.624D-01
 Coeff-Com: -0.148D+00-0.437D-01 0.458D+00 0.764D+00
 Coeff:     -0.423D-03 0.890D-03 0.473D-02 0.109D-01 0.164D-01-0.624D-01
 Coeff:     -0.148D+00-0.437D-01 0.458D+00 0.764D+00
 Gap=     0.128 Goal=   None    Shift=    0.000
 Gap=     0.119 Goal=   None    Shift=    0.000
 RMSDP=2.46D-06 MaxDP=1.28D-03 DE=-2.16D-05 OVMax= 2.04D-03

 Cycle  11  Pass 1  IDiag  1:
 RMSU=  1.06D-06    CP:  9.89D-01  6.74D-01  9.77D-01  9.45D-01  1.44D+00
                    CP:  2.01D+00  2.05D+00  1.99D+00  1.90D+00  1.18D+00
 E= -3915.86779780834     Delta-E=       -0.000004433834 Rises=F Damp=F
 DIIS: error= 1.08D-05 at cycle  11 NSaved=  11.
 NSaved=11 IEnMin=11 EnMin= -3915.86779780834     IErMin=11 ErrMin= 1.08D-05
 ErrMax= 1.08D-05  0.00D+00 EMaxC= 1.00D-01 BMatC= 1.49D-06 BMatP= 6.11D-06
 IDIUse=1 WtCom= 1.00D+00 WtEn= 0.00D+00
 Coeff-Com: -0.535D-04-0.478D-06 0.966D-03 0.330D-02 0.113D-01 0.945D-02
 Coeff-Com: -0.372D-01-0.114D+00-0.102D-01 0.364D+00 0.772D+00
 Coeff:     -0.535D-04-0.478D-06 0.966D-03 0.330D-02 0.113D-01 0.945D-02
 Coeff:     -0.372D-01-0.114D+00-0.102D-01 0.364D+00 0.772D+00
 Gap=     0.128 Goal=   None    Shift=    0.000
 Gap=     0.119 Goal=   None    Shift=    0.000
 RMSDP=1.17D-06 MaxDP=4.92D-04 DE=-4.43D-06 OVMax= 8.78D-04

 Cycle  12  Pass 1  IDiag  1:
 RMSU=  5.06D-07    CP:  9.89D-01  6.73D-01  9.77D-01  9.44D-01  1.44D+00
                    CP:  2.01D+00  2.07D+00  2.04D+00  2.07D+00  1.50D+00
                    CP:  1.32D+00
 E= -3915.86779882910     Delta-E=       -0.000001020759 Rises=F Damp=F
 DIIS: error= 3.72D-06 at cycle  12 NSaved=  12.
 NSaved=12 IEnMin=12 EnMin= -3915.86779882910     IErMin=12 ErrMin= 3.72D-06
 ErrMax= 3.72D-06  0.00D+00 EMaxC= 1.00D-01 BMatC= 3.66D-07 BMatP= 1.49D-06
 IDIUse=1 WtCom= 1.00D+00 WtEn= 0.00D+00
 Coeff-Com:  0.717D-04-0.186D-03-0.710D-03-0.135D-02 0.420D-03 0.188D-01
 Coeff-Com:  0.234D-01-0.386D-01-0.127D+00-0.403D-01 0.353D+00 0.812D+00
 Coeff:      0.717D-04-0.186D-03-0.710D-03-0.135D-02 0.420D-03 0.188D-01
 Coeff:      0.234D-01-0.386D-01-0.127D+00-0.403D-01 0.353D+00 0.812D+00
 Gap=     0.128 Goal=   None    Shift=    0.000
 Gap=     0.119 Goal=   None    Shift=    0.000
 RMSDP=6.47D-07 MaxDP=2.99D-04 DE=-1.02D-06 OVMax= 3.35D-04

 Cycle  13  Pass 1  IDiag  1:
 RMSU=  2.31D-07    CP:  9.89D-01  6.73D-01  9.77D-01  9.44D-01  1.44D+00
                    CP:  2.01D+00  2.08D+00  2.04D+00  2.17D+00  1.62D+00
                    CP:  1.70D+00  1.38D+00
 E= -3915.86779911224     Delta-E=       -0.000000283140 Rises=F Damp=F
 DIIS: error= 2.27D-06 at cycle  13 NSaved=  13.
 NSaved=13 IEnMin=13 EnMin= -3915.86779911224     IErMin=13 ErrMin= 2.27D-06
 ErrMax= 2.27D-06  0.00D+00 EMaxC= 1.00D-01 BMatC= 8.98D-08 BMatP= 3.66D-07
 IDIUse=1 WtCom= 1.00D+00 WtEn= 0.00D+00
 Coeff-Com:  0.441D-04-0.844D-04-0.488D-03-0.130D-02-0.221D-02 0.606D-02
 Coeff-Com:  0.195D-01 0.965D-02-0.505D-01-0.957D-01-0.250D-01 0.350D+00
 Coeff-Com:  0.790D+00
 Coeff:      0.441D-04-0.844D-04-0.488D-03-0.130D-02-0.221D-02 0.606D-02
 Coeff:      0.195D-01 0.965D-02-0.505D-01-0.957D-01-0.250D-01 0.350D+00
 Coeff:      0.790D+00
 Gap=     0.128 Goal=   None    Shift=    0.000
 Gap=     0.119 Goal=   None    Shift=    0.000
 RMSDP=2.90D-07 MaxDP=8.60D-05 DE=-2.83D-07 OVMax= 2.02D-04

 Cycle  14  Pass 1  IDiag  1:
 RMSU=  1.11D-07    CP:  9.89D-01  6.73D-01  9.77D-01  9.43D-01  1.44D+00
                    CP:  2.01D+00  2.08D+00  2.03D+00  2.18D+00  1.67D+00
                    CP:  1.81D+00  1.67D+00  1.30D+00
 E= -3915.86779918585     Delta-E=       -0.000000073609 Rises=F Damp=F
 DIIS: error= 1.80D-06 at cycle  14 NSaved=  14.
 NSaved=14 IEnMin=14 EnMin= -3915.86779918585     IErMin=14 ErrMin= 1.80D-06
 ErrMax= 1.80D-06  0.00D+00 EMaxC= 1.00D-01 BMatC= 2.21D-08 BMatP= 8.98D-08
 IDIUse=1 WtCom= 1.00D+00 WtEn= 0.00D+00
 Coeff-Com: -0.561D-05 0.209D-04 0.582D-04-0.161D-04-0.648D-03-0.334D-02
 Coeff-Com: -0.385D-03 0.125D-01 0.181D-01-0.215D-01-0.104D+00-0.941D-01
 Coeff-Com:  0.265D+00 0.928D+00
 Coeff:     -0.561D-05 0.209D-04 0.582D-04-0.161D-04-0.648D-03-0.334D-02
 Coeff:     -0.385D-03 0.125D-01 0.181D-01-0.215D-01-0.104D+00-0.941D-01
 Coeff:      0.265D+00 0.928D+00
 Gap=     0.128 Goal=   None    Shift=    0.000
 Gap=     0.119 Goal=   None    Shift=    0.000
 RMSDP=1.64D-07 MaxDP=4.97D-05 DE=-7.36D-08 OVMax= 1.71D-04

 Cycle  15  Pass 1  IDiag  1:
 RMSU=  6.16D-08    CP:  9.89D-01  6.73D-01  9.77D-01  9.43D-01  1.44D+00
                    CP:  2.01D+00  2.07D+00  2.03D+00  2.19D+00  1.69D+00
                    CP:  1.87D+00  1.82D+00  1.62D+00  1.57D+00
 E= -3915.86779921748     Delta-E=       -0.000000031630 Rises=F Damp=F
 DIIS: error= 1.66D-06 at cycle  15 NSaved=  15.
 NSaved=15 IEnMin=15 EnMin= -3915.86779921748     IErMin=15 ErrMin= 1.66D-06
 ErrMax= 1.66D-06  0.00D+00 EMaxC= 1.00D-01 BMatC= 8.90D-09 BMatP= 2.21D-08
 IDIUse=1 WtCom= 1.00D+00 WtEn= 0.00D+00
 Coeff-Com: -0.119D-04 0.272D-04 0.133D-03 0.277D-03 0.224D-03-0.294D-02
 Coeff-Com: -0.488D-02 0.337D-02 0.208D-01 0.121D-01-0.414D-01-0.122D+00
 Coeff-Com: -0.688D-01 0.408D+00 0.795D+00
 Coeff:     -0.119D-04 0.272D-04 0.133D-03 0.277D-03 0.224D-03-0.294D-02
 Coeff:     -0.488D-02 0.337D-02 0.208D-01 0.121D-01-0.414D-01-0.122D+00
 Coeff:     -0.688D-01 0.408D+00 0.795D+00
 Gap=     0.128 Goal=   None    Shift=    0.000
 Gap=     0.119 Goal=   None    Shift=    0.000
 RMSDP=7.78D-08 MaxDP=1.59D-05 DE=-3.16D-08 OVMax= 1.14D-04

 Cycle  16  Pass 1  IDiag  1:
 RMSU=  3.54D-08    CP:  9.89D-01  6.73D-01  9.77D-01  9.43D-01  1.44D+00
                    CP:  2.01D+00  2.07D+00  2.03D+00  2.19D+00  1.69D+00
                    CP:  1.88D+00  1.88D+00  1.74D+00  1.97D+00  1.52D+00
 E= -3915.86779922934     Delta-E=       -0.000000011858 Rises=F Damp=F
 DIIS: error= 1.36D-06 at cycle  16 NSaved=  16.
 NSaved=16 IEnMin=16 EnMin= -3915.86779922934     IErMin=16 ErrMin= 1.36D-06
 ErrMax= 1.36D-06  0.00D+00 EMaxC= 1.00D-01 BMatC= 4.33D-09 BMatP= 8.90D-09
 IDIUse=1 WtCom= 1.00D+00 WtEn= 0.00D+00
 Coeff-Com: -0.273D-05 0.488D-05 0.324D-04 0.114D-03 0.304D-03-0.792D-04
 Coeff-Com: -0.207D-02-0.301D-02 0.281D-02 0.132D-01 0.190D-01-0.205D-01
 Coeff-Com: -0.136D+00-0.171D+00 0.390D+00 0.908D+00
 Coeff:     -0.273D-05 0.488D-05 0.324D-04 0.114D-03 0.304D-03-0.792D-04
 Coeff:     -0.207D-02-0.301D-02 0.281D-02 0.132D-01 0.190D-01-0.205D-01
 Coeff:     -0.136D+00-0.171D+00 0.390D+00 0.908D+00
 Gap=     0.128 Goal=   None    Shift=    0.000
 Gap=     0.119 Goal=   None    Shift=    0.000
 RMSDP=6.66D-08 MaxDP=1.10D-05 DE=-1.19D-08 OVMax= 1.03D-04

 Cycle  17  Pass 1  IDiag  1:
 RMSU=  2.58D-08    CP:  9.89D-01  6.73D-01  9.77D-01  9.43D-01  1.44D+00
                    CP:  2.01D+00  2.08D+00  2.03D+00  2.19D+00  1.69D+00
                    CP:  1.88D+00  1.89D+00  1.81D+00  2.28D+00  2.15D+00
                    CP:  1.73D+00
 E= -3915.86779923823     Delta-E=       -0.000000008888 Rises=F Damp=F
 DIIS: error= 1.06D-06 at cycle  17 NSaved=  17.
 NSaved=17 IEnMin=17 EnMin= -3915.86779923823     IErMin=17 ErrMin= 1.06D-06
 ErrMax= 1.06D-06  0.00D+00 EMaxC= 1.00D-01 BMatC= 2.19D-09 BMatP= 4.33D-09
 IDIUse=1 WtCom= 1.00D+00 WtEn= 0.00D+00
 Coeff-Com:  0.351D-05-0.822D-05-0.381D-04-0.574D-04 0.146D-04 0.116D-02
 Coeff-Com:  0.112D-02-0.272D-02-0.744D-02 0.969D-03 0.255D-01 0.421D-01
 Coeff-Com: -0.270D-01-0.247D+00-0.170D+00 0.384D+00 0.999D+00
 Coeff:      0.351D-05-0.822D-05-0.381D-04-0.574D-04 0.146D-04 0.116D-02
 Coeff:      0.112D-02-0.272D-02-0.744D-02 0.969D-03 0.255D-01 0.421D-01
 Coeff:     -0.270D-01-0.247D+00-0.170D+00 0.384D+00 0.999D+00
 Gap=     0.128 Goal=   None    Shift=    0.000
 Gap=     0.119 Goal=   None    Shift=    0.000
 RMSDP=5.93D-08 MaxDP=1.04D-05 DE=-8.89D-09 OVMax= 8.36D-05

 Cycle  18  Pass 1  IDiag  1:
 RMSU=  1.79D-08    CP:  9.89D-01  6.73D-01  9.77D-01  9.43D-01  1.44D+00
                    CP:  2.01D+00  2.08D+00  2.03D+00  2.19D+00  1.69D+00
                    CP:  1.88D+00  1.89D+00  1.84D+00  2.47D+00  2.64D+00
                    CP:  2.64D+00  1.89D+00
 E= -3915.86779924367     Delta-E=       -0.000000005446 Rises=F Damp=F
 DIIS: error= 8.37D-07 at cycle  18 NSaved=  18.
 NSaved=18 IEnMin=18 EnMin= -3915.86779924367     IErMin=18 ErrMin= 8.37D-07
 ErrMax= 8.37D-07  0.00D+00 EMaxC= 1.00D-01 BMatC= 1.32D-09 BMatP= 2.19D-09
 IDIUse=1 WtCom= 1.00D+00 WtEn= 0.00D+00
 Coeff-Com:  0.349D-05-0.769D-05-0.402D-04-0.975D-04-0.195D-03 0.735D-03
 Coeff-Com:  0.199D-02 0.406D-03-0.613D-02-0.803D-02 0.230D-02 0.356D-01
 Coeff-Com:  0.796D-01-0.328D-01-0.366D+00-0.393D+00 0.591D+00 0.109D+01
 Coeff:      0.349D-05-0.769D-05-0.402D-04-0.975D-04-0.195D-03 0.735D-03
 Coeff:      0.199D-02 0.406D-03-0.613D-02-0.803D-02 0.230D-02 0.356D-01
 Coeff:      0.796D-01-0.328D-01-0.366D+00-0.393D+00 0.591D+00 0.109D+01
 Gap=     0.128 Goal=   None    Shift=    0.000
 Gap=     0.119 Goal=   None    Shift=    0.000
 RMSDP=6.41D-08 MaxDP=1.40D-05 DE=-5.45D-09 OVMax= 8.27D-05

 Cycle  19  Pass 1  IDiag  1:
 RMSU=  2.64D-08    CP:  9.89D-01  6.73D-01  9.77D-01  9.43D-01  1.44D+00
                    CP:  2.01D+00  2.08D+00  2.03D+00  2.19D+00  1.69D+00
                    CP:  1.88D+00  1.88D+00  1.87D+00  2.63D+00  3.00D+00
                    CP:  3.00D+00  3.00D+00  1.95D+00
 E= -3915.86779924911     Delta-E=       -0.000000005439 Rises=F Damp=F
 DIIS: error= 5.21D-07 at cycle  19 NSaved=  19.
 NSaved=19 IEnMin=19 EnMin= -3915.86779924911     IErMin=19 ErrMin= 5.21D-07
 ErrMax= 5.21D-07  0.00D+00 EMaxC= 1.00D-01 BMatC= 6.06D-10 BMatP= 1.32D-09
 IDIUse=1 WtCom= 1.00D+00 WtEn= 0.00D+00
 Coeff-Com: -0.101D-06 0.141D-06-0.500D-06-0.175D-04-0.941D-04-0.228D-03
 Coeff-Com:  0.377D-03 0.163D-02 0.807D-03-0.481D-02-0.119D-01-0.586D-02
 Coeff-Com:  0.571D-01 0.114D+00-0.912D-01-0.407D+00-0.256D+00 0.555D+00
 Coeff-Com:  0.105D+01
 Coeff:     -0.101D-06 0.141D-06-0.500D-06-0.175D-04-0.941D-04-0.228D-03
 Coeff:      0.377D-03 0.163D-02 0.807D-03-0.481D-02-0.119D-01-0.586D-02
 Coeff:      0.571D-01 0.114D+00-0.912D-01-0.407D+00-0.256D+00 0.555D+00
 Coeff:      0.105D+01
 Gap=     0.128 Goal=   None    Shift=    0.000
 Gap=     0.119 Goal=   None    Shift=    0.000
 RMSDP=4.96D-08 MaxDP=2.21D-05 DE=-5.44D-09 OVMax= 5.09D-05

 Cycle  20  Pass 1  IDiag  1:
 RMSU=  2.26D-08    CP:  9.89D-01  6.73D-01  9.77D-01  9.43D-01  1.44D+00
                    CP:  2.01D+00  2.08D+00  2.03D+00  2.19D+00  1.69D+00
                    CP:  1.89D+00  1.88D+00  1.90D+00  2.71D+00  3.00D+00
                    CP:  3.00D+00  3.00D+00  3.00D+00  2.34D+00
 E= -3915.86779925125     Delta-E=       -0.000000002141 Rises=F Damp=F
 DIIS: error= 2.82D-07 at cycle  20 NSaved=  20.
 NSaved=20 IEnMin=20 EnMin= -3915.86779925125     IErMin=20 ErrMin= 2.82D-07
 ErrMax= 2.82D-07  0.00D+00 EMaxC= 1.00D-01 BMatC= 2.44D-10 BMatP= 6.06D-10
 IDIUse=1 WtCom= 1.00D+00 WtEn= 0.00D+00
 Coeff-Com: -0.154D-05 0.329D-05 0.179D-04 0.329D-04 0.476D-04-0.476D-03
 Coeff-Com: -0.768D-03 0.696D-03 0.345D-02 0.143D-02-0.661D-02-0.197D-01
 Coeff-Com: -0.861D-02 0.731D-01 0.127D+00-0.160D-01-0.412D+00-0.264D+00
 Coeff-Com:  0.527D+00 0.995D+00
 Coeff:     -0.154D-05 0.329D-05 0.179D-04 0.329D-04 0.476D-04-0.476D-03
 Coeff:     -0.768D-03 0.696D-03 0.345D-02 0.143D-02-0.661D-02-0.197D-01
 Coeff:     -0.861D-02 0.731D-01 0.127D+00-0.160D-01-0.412D+00-0.264D+00
 Coeff:      0.527D+00 0.995D+00
 Gap=     0.128 Goal=   None    Shift=    0.000
 Gap=     0.119 Goal=   None    Shift=    0.000
 RMSDP=3.23D-08 MaxDP=1.98D-05 DE=-2.14D-09 OVMax= 3.40D-05

 Cycle  21  Pass 1  IDiag  1:
 Restarting incremental Fock formation.
 E= -3915.86779925193     Delta-E=       -0.000000000677 Rises=F Damp=F
 DIIS: error= 1.12D-07 at cycle  21 NSaved=  20.
 NSaved=20 IEnMin=20 EnMin= -3915.86779925193     IErMin=20 ErrMin= 1.12D-07
 ErrMax= 1.12D-07  0.00D+00 EMaxC= 1.00D-01 BMatC= 7.11D-11 BMatP= 2.44D-10
 IDIUse=1 WtCom= 1.00D+00 WtEn= 0.00D+00
 Coeff-Com:  0.111D-06 0.157D-05 0.409D-05 0.328D-04-0.294D-04-0.234D-03
 Coeff-Com: -0.332D-03 0.431D-03 0.156D-02 0.202D-02-0.245D-02-0.194D-01
 Coeff-Com: -0.162D-01 0.586D-01 0.118D+00-0.214D-01-0.242D+00-0.195D+00
 Coeff-Com:  0.267D+00 0.105D+01
 Coeff:      0.111D-06 0.157D-05 0.409D-05 0.328D-04-0.294D-04-0.234D-03
 Coeff:     -0.332D-03 0.431D-03 0.156D-02 0.202D-02-0.245D-02-0.194D-01
 Coeff:     -0.162D-01 0.586D-01 0.118D+00-0.214D-01-0.242D+00-0.195D+00
 Coeff:      0.267D+00 0.105D+01
 Gap=     0.128 Goal=   None    Shift=    0.000
 Gap=     0.119 Goal=   None    Shift=    0.000
 RMSDP=1.60D-08 MaxDP=1.02D-05 DE=-6.77D-10 OVMax= 1.53D-05

 Cycle  22  Pass 1  IDiag  1:
 RMSU=  1.60D-08    CP:  1.00D+00
 E= -3915.86779925224     Delta-E=       -0.000000000313 Rises=F Damp=F
 DIIS: error= 5.54D-08 at cycle  22 NSaved=  20.
 NSaved=20 IEnMin=20 EnMin= -3915.86779925224     IErMin=20 ErrMin= 5.54D-08
 ErrMax= 5.54D-08  0.00D+00 EMaxC= 1.00D-01 BMatC= 3.26D-11 BMatP= 7.11D-11
 IDIUse=1 WtCom= 1.00D+00 WtEn= 0.00D+00
 Coeff-Com: -0.282D-06 0.120D-05 0.136D-04 0.935D-04 0.499D-04-0.430D-03
 Coeff-Com: -0.683D-03 0.627D-03 0.301D-02 0.469D-02-0.758D-02-0.295D-01
 Coeff-Com: -0.119D-01 0.589D-01 0.128D+00-0.194D-01-0.271D+00-0.245D+00
 Coeff-Com:  0.489D+00 0.901D+00
 Coeff:     -0.282D-06 0.120D-05 0.136D-04 0.935D-04 0.499D-04-0.430D-03
 Coeff:     -0.683D-03 0.627D-03 0.301D-02 0.469D-02-0.758D-02-0.295D-01
 Coeff:     -0.119D-01 0.589D-01 0.128D+00-0.194D-01-0.271D+00-0.245D+00
 Coeff:      0.489D+00 0.901D+00
 Gap=     0.128 Goal=   None    Shift=    0.000
 Gap=     0.119 Goal=   None    Shift=    0.000
 RMSDP=9.34D-09 MaxDP=3.78D-06 DE=-3.13D-10 OVMax= 1.02D-05

 Cycle  23  Pass 1  IDiag  1:
 RMSU=  4.12D-09    CP:  1.00D+00  1.52D+00
 E= -3915.86779925217     Delta-E=        0.000000000071 Rises=F Damp=F
 DIIS: error= 2.97D-08 at cycle  23 NSaved=  20.
 NSaved=20 IEnMin=19 EnMin= -3915.86779925224     IErMin=20 ErrMin= 2.97D-08
 ErrMax= 2.97D-08  0.00D+00 EMaxC= 1.00D-01 BMatC= 1.05D-11 BMatP= 3.26D-11
 IDIUse=1 WtCom= 1.00D+00 WtEn= 0.00D+00
 Coeff-Com:  0.751D-06-0.795D-05 0.167D-04 0.929D-04 0.506D-04-0.237D-03
 Coeff-Com: -0.352D-03-0.341D-03 0.179D-02 0.515D-02 0.316D-02-0.246D-01
 Coeff-Com: -0.382D-01 0.262D-01 0.925D-01 0.408D-01-0.155D+00-0.313D+00
 Coeff-Com:  0.147D+00 0.121D+01
 Coeff:      0.751D-06-0.795D-05 0.167D-04 0.929D-04 0.506D-04-0.237D-03
 Coeff:     -0.352D-03-0.341D-03 0.179D-02 0.515D-02 0.316D-02-0.246D-01
 Coeff:     -0.382D-01 0.262D-01 0.925D-01 0.408D-01-0.155D+00-0.313D+00
 Coeff:      0.147D+00 0.121D+01
 Gap=     0.128 Goal=   None    Shift=    0.000
 Gap=     0.119 Goal=   None    Shift=    0.000
 RMSDP=6.67D-09 MaxDP=1.28D-06 DE= 7.09D-11 OVMax= 1.16D-05

 Cycle  24  Pass 1  IDiag  1:
 RMSU=  3.01D-09    CP:  1.00D+00  1.76D+00  2.12D+00
 E= -3915.86779925123     Delta-E=        0.000000000940 Rises=F Damp=F
 DIIS: error= 1.77D-08 at cycle  24 NSaved=  20.
 NSaved=20 IEnMin=18 EnMin= -3915.86779925224     IErMin=20 ErrMin= 1.77D-08
 ErrMax= 1.77D-08  0.00D+00 EMaxC= 1.00D-01 BMatC= 4.35D-12 BMatP= 1.05D-11
 IDIUse=1 WtCom= 1.00D+00 WtEn= 0.00D+00
 Coeff-Com: -0.797D-05-0.294D-04 0.168D-04 0.164D-03 0.112D-03-0.370D-03
 Coeff-Com: -0.114D-02-0.690D-03 0.419D-02 0.114D-01-0.674D-02-0.337D-01
 Coeff-Com: -0.302D-01 0.421D-01 0.106D+00 0.121D-01-0.279D+00-0.239D+00
 Coeff-Com:  0.460D+00 0.955D+00
 Coeff:     -0.797D-05-0.294D-04 0.168D-04 0.164D-03 0.112D-03-0.370D-03
 Coeff:     -0.114D-02-0.690D-03 0.419D-02 0.114D-01-0.674D-02-0.337D-01
 Coeff:     -0.302D-01 0.421D-01 0.106D+00 0.121D-01-0.279D+00-0.239D+00
 Coeff:      0.460D+00 0.955D+00
 Gap=     0.128 Goal=   None    Shift=    0.000
 Gap=     0.119 Goal=   None    Shift=    0.000
 RMSDP=3.75D-09 MaxDP=9.90D-07 DE= 9.40D-10 OVMax= 7.74D-06

 Error on total polarization charges =  0.03376
 SCF Done:  E(UM062X) =  -3915.86779925     A.U. after   24 cycles
            NFock= 24  Conv=0.37D-08     -V/T= 2.1093
 <Sx>= 0.0000 <Sy>= 0.0000 <Sz>= 0.5000 <S**2>= 0.7719 S= 0.5109
 <L.S>= 0.000000000000E+00
 KE= 3.529937774552D+03 PE=-3.155332555324D+04 EE= 1.286355851037D+04
 Annihilation of the first spin contaminant:
 S**2 before annihilation     0.7719,   after     0.7504
 Leave Link  502 at Thu Nov  6 18:29:40 2025, MaxMem= 30870077440 cpu:          292851.5 elap:            4643.9
 (Enter /public/software/gauss/g16/l601.exe)
 Copying SCF densities to generalized density rwf, IOpCl= 1 IROHF=0.
 Hyperfine terms turned off by default for NAtoms > 100.

 **********************************************************************

            Population analysis using the SCF density.

 **********************************************************************

 Orbital symmetries:
 Alpha Orbitals:
       Occupied  (A) (A) (A) (A) (A) (A) (A) (A) (A) (A) (A) (A)
                 (A) (A) (A) (A) (A) (A) (A) (A) (A) (A) (A) (A)
                 (A) (A) (A) (A) (A) (A) (A) (A) (A) (A) (A) (A)
                 (A) (A) (A) (A) (A) (A) (A) (A) (A) (A) (A) (A)
                 (A) (A) (A) (A) (A) (A) (A) (A) (A) (A) (A) (A)
                 (A) (A) (A) (A) (A) (A) (A) (A) (A) (A) (A) (A)
                 (A) (A) (A) (A) (A) (A) (A) (A) (A) (A) (A) (A)
                 (A) (A) (A) (A) (A) (A) (A) (A) (A) (A) (A) (A)
                 (A) (A) (A) (A) (A) (A) (A) (A) (A) (A) (A) (A)
                 (A) (A) (A) (A) (A) (A) (A) (A) (A) (A) (A) (A)
                 (A) (A) (A) (A) (A) (A) (A) (A) (A) (A) (A) (A)
                 (A) (A) (A) (A) (A) (A) (A) (A) (A) (A) (A) (A)
                 (A) (A) (A) (A) (A) (A) (A) (A) (A) (A) (A) (A)
                 (A) (A) (A) (A) (A) (A) (A) (A) (A) (A) (A) (A)
                 (A) (A) (A) (A) (A) (A) (A) (A) (A) (A) (A) (A)
                 (A) (A) (A) (A) (A) (A) (A) (A) (A) (A) (A) (A)
                 (A) (A) (A) (A) (A) (A) (A) (A) (A) (A) (A) (A)
                 (A) (A) (A) (A) (A) (A) (A) (A) (A) (A) (A) (A)
                 (A) (A) (A) (A) (A) (A) (A) (A) (A) (A) (A) (A)
                 (A) (A) (A) (A) (A) (A) (A) (A) (A) (A) (A) (A)
                 (A) (A) (A) (A) (A) (A) (A) (A) (A) (A) (A) (A)
                 (A) (A) (A) (A) (A) (A) (A) (A) (A) (A) (A) (A)
                 (A) (A) (A) (A) (A) (A) (A) (A) (A) (A) (A) (A)
                 (A)
       Virtual   (A) (A) (A) (A) (A) (A) (A) (A) (A) (A) (A) (A)
                 (A) (A) (A) (A) (A) (A) (A) (A) (A) (A) (A) (A)
                 (A) (A) (A) (A) (A) (A) (A) (A) (A) (A) (A) (A)
                 (A) (A) (A) (A) (A) (A) (A) (A) (A) (A) (A) (A)
                 (A) (A) (A) (A) (A) (A) (A) (A) (A) (A) (A) (A)
                 (A) (A) (A) (A) (A) (A) (A) (A) (A) (A) (A) (A)
                 (A) (A) (A) (A) (A) (A) (A) (A) (A) (A) (A) (A)
                 (A) (A) (A) (A) (A) (A) (A) (A) (A) (A) (A) (A)
                 (A) (A) (A) (A) (A) (A) (A) (A) (A) (A) (A) (A)
                 (A) (A) (A) (A) (A) (A) (A) (A) (A) (A) (A) (A)
                 (A) (A) (A) (A) (A) (A) (A) (A) (A) (A) (A) (A)
                 (A) (A) (A) (A) (A) (A) (A) (A) (A) (A) (A) (A)
                 (A) (A) (A) (A) (A) (A) (A) (A) (A) (A) (A) (A)
                 (A) (A) (A) (A) (A) (A) (A) (A) (A) (A) (A) (A)
                 (A) (A) (A) (A) (A) (A) (A) (A) (A) (A) (A) (A)
                 (A) (A) (A) (A) (A) (A) (A) (A) (A) (A) (A) (A)
                 (A) (A) (A) (A) (A) (A) (A) (A) (A) (A) (A) (A)
                 (A) (A) (A) (A) (A) (A) (A) (A) (A) (A) (A) (A)
                 (A) (A) (A) (A) (A) (A) (A) (A) (A) (A) (A) (A)
                 (A) (A) (A) (A) (A) (A) (A) (A) (A) (A) (A) (A)
                 (A) (A) (A) (A) (A) (A) (A) (A) (A) (A) (A) (A)
                 (A) (A) (A) (A) (A) (A) (A) (A) (A) (A) (A) (A)
                 (A) (A) (A) (A) (A) (A) (A) (A) (A) (A) (A) (A)
                 (A) (A) (A) (A) (A) (A) (A) (A) (A) (A) (A) (A)
                 (A) (A) (A) (A) (A) (A) (A) (A) (A) (A) (A) (A)
                 (A) (A) (A) (A) (A) (A) (A) (A) (A) (A) (A) (A)
                 (A) (A) (A) (A) (A) (A) (A) (A) (A) (A) (A) (A)
                 (A) (A) (A) (A) (A) (A) (A) (A) (A) (A) (A) (A)
                 (A) (A) (A) (A) (A) (A) (A) (A) (A) (A) (A) (A)
                 (A) (A) (A) (A) (A) (A) (A) (A) (A) (A) (A) (A)
                 (A) (A) (A) (A) (A) (A) (A) (A) (A) (A) (A) (A)
                 (A) (A) (A) (A) (A) (A) (A) (A) (A) (A) (A) (A)
                 (A) (A) (A) (A) (A) (A) (A) (A) (A) (A) (A) (A)
                 (A) (A) (A) (A) (A) (A) (A) (A) (A) (A) (A) (A)
                 (A) (A) (A) (A) (A) (A) (A) (A) (A) (A) (A) (A)
                 (A) (A) (A) (A) (A) (A) (A) (A) (A) (A) (A) (A)
                 (A) (A) (A) (A) (A) (A) (A) (A) (A) (A) (A) (A)
                 (A) (A) (A) (A) (A) (A) (A) (A) (A) (A) (A) (A)
                 (A) (A) (A) (A) (A) (A) (A) (A) (A) (A) (A) (A)
                 (A) (A) (A) (A) (A) (A) (A) (A) (A) (A) (A) (A)
                 (A) (A) (A) (A) (A) (A) (A) (A) (A) (A) (A) (A)
                 (A) (A) (A) (A) (A) (A) (A) (A) (A) (A) (A) (A)
                 (A) (A) (A) (A) (A) (A) (A) (A) (A) (A) (A) (A)
                 (A) (A) (A) (A) (A) (A) (A) (A) (A) (A) (A) (A)
                 (A) (A) (A) (A) (A) (A) (A) (A) (A) (A) (A) (A)
                 (A) (A) (A) (A) (A) (A) (A) (A) (A) (A) (A) (A)
                 (A) (A) (A) (A) (A) (A) (A) (A) (A) (A) (A) (A)
                 (A) (A) (A) (A) (A) (A) (A) (A) (A) (A) (A) (A)
                 (A) (A) (A) (A) (A) (A) (A) (A) (A) (A) (A) (A)
                 (A) (A) (A) (A) (A) (A) (A) (A) (A) (A) (A) (A)
                 (A) (A) (A) (A) (A) (A) (A) (A) (A) (A) (A) (A)
                 (A) (A) (A) (A) (A) (A) (A) (A) (A) (A) (A) (A)
                 (A) (A) (A) (A) (A) (A) (A) (A) (A) (A) (A) (A)
                 (A) (A) (A) (A) (A) (A) (A) (A) (A) (A) (A) (A)
                 (A) (A) (A) (A) (A) (A) (A) (A) (A) (A) (A) (A)
                 (A) (A) (A) (A) (A) (A) (A) (A) (A) (A) (A) (A)
                 (A) (A) (A) (A) (A) (A) (A) (A) (A) (A) (A) (A)
                 (A) (A) (A) (A) (A) (A) (A) (A) (A) (A) (A) (A)
                 (A) (A) (A) (A) (A) (A) (A) (A) (A) (A) (A) (A)
                 (A) (A) (A) (A) (A) (A) (A) (A) (A) (A) (A) (A)
                 (A) (A) (A) (A) (A) (A) (A) (A) (A) (A) (A) (A)
                 (A) (A) (A) (A) (A) (A) (A) (A) (A) (A) (A) (A)
                 (A) (A) (A) (A) (A) (A) (A) (A) (A) (A) (A) (A)
                 (A) (A) (A) (A) (A) (A) (A) (A) (A) (A) (A) (A)
                 (A) (A) (A) (A) (A) (A) (A) (A) (A) (A) (A) (A)
                 (A) (A) (A) (A) (A) (A) (A) (A) (A) (A) (A) (A)
                 (A) (A) (A) (A) (A) (A) (A) (A) (A) (A) (A) (A)
                 (A) (A) (A) (A) (A) (A) (A) (A) (A) (A) (A) (A)
                 (A) (A) (A) (A) (A) (A) (A) (A) (A) (A) (A) (A)
                 (A) (A) (A) (A) (A) (A) (A) (A) (A) (A) (A) (A)
                 (A) (A) (A) (A) (A) (A) (A) (A) (A) (A) (A) (A)
                 (A) (A) (A) (A) (A) (A) (A) (A) (A) (A) (A) (A)
                 (A) (A) (A) (A) (A) (A) (A) (A) (A) (A) (A) (A)
                 (A) (A) (A) (A) (A) (A) (A) (A) (A) (A) (A) (A)
                 (A) (A) (A) (A) (A) (A) (A) (A) (A) (A) (A) (A)
                 (A) (A) (A) (A) (A) (A) (A) (A) (A) (A) (A) (A)
                 (A) (A) (A) (A) (A) (A) (A) (A) (A) (A) (A) (A)
                 (A) (A) (A) (A) (A) (A) (A) (A) (A) (A) (A) (A)
                 (A) (A) (A) (A) (A) (A) (A) (A) (A) (A) (A) (A)
                 (A) (A) (A) (A) (A) (A) (A) (A) (A) (A) (A) (A)
                 (A) (A) (A) (A) (A) (A) (A) (A) (A) (A) (A) (A)
                 (A) (A) (A) (A) (A) (A) (A) (A) (A) (A) (A) (A)
                 (A) (A) (A) (A) (A) (A) (A) (A) (A) (A) (A) (A)
                 (A) (A) (A) (A) (A) (A) (A) (A) (A) (A) (A) (A)
                 (A) (A) (A) (A) (A) (A) (A) (A) (A) (A) (A) (A)
                 (A) (A) (A) (A) (A) (A) (A) (A) (A) (A) (A) (A)
                 (A) (A) (A) (A) (A) (A) (A) (A) (A) (A) (A) (A)
                 (A) (A) (A) (A) (A) (A) (A) (A) (A) (A) (A) (A)
                 (A) (A) (A) (A) (A) (A) (A) (A) (A) (A) (A) (A)
                 (A) (A) (A) (A) (A) (A) (A) (A) (A) (A) (A) (A)
                 (A) (A) (A) (A) (A) (A) (A) (A) (A) (A) (A) (A)
                 (A) (A) (A) (A) (A) (A) (A) (A) (A) (A) (A) (A)
                 (A) (A) (A) (A) (A) (A) (A) (A) (A) (A) (A) (A)
                 (A) (A) (A) (A) (A) (A) (A) (A) (A) (A) (A) (A)
                 (A) (A) (A) (A) (A) (A) (A) (A) (A) (A) (A) (A)
                 (A) (A) (A) (A) (A) (A) (A) (A) (A) (A) (A) (A)
                 (A) (A) (A) (A) (A) (A) (A) (A) (A) (A) (A) (A)
                 (A) (A) (A) (A) (A) (A) (A) (A) (A) (A) (A) (A)
                 (A) (A) (A) (A) (A) (A) (A) (A) (A) (A) (A) (A)
                 (A) (A) (A) (A) (A) (A) (A) (A) (A) (A) (A) (A)
                 (A) (A) (A) (A) (A) (A) (A) (A) (A) (A) (A) (A)
                 (A) (A) (A) (A) (A) (A) (A) (A) (A) (A) (A) (A)
                 (A) (A) (A) (A) (A) (A) (A) (A) (A) (A) (A) (A)
                 (A) (A) (A) (A) (A) (A) (A) (A) (A) (A) (A) (A)
                 (A) (A) (A) (A) (A) (A) (A) (A) (A) (A) (A) (A)
                 (A) (A) (A) (A) (A) (A) (A) (A) (A) (A) (A) (A)
                 (A) (A) (A) (A) (A) (A) (A) (A) (A) (A) (A) (A)
                 (A) (A) (A) (A) (A) (A) (A) (A) (A) (A) (A) (A)
                 (A) (A) (A) (A) (A) (A) (A) (A) (A) (A) (A) (A)
                 (A) (A) (A) (A) (A) (A) (A) (A) (A) (A) (A) (A)
                 (A) (A) (A) (A) (A) (A) (A) (A) (A) (A) (A) (A)
                 (A) (A) (A) (A) (A) (A) (A) (A) (A) (A) (A) (A)
                 (A) (A) (A) (A) (A) (A) (A) (A) (A) (A) (A) (A)
                 (A) (A) (A) (A) (A) (A) (A) (A) (A) (A) (A) (A)
                 (A) (A) (A) (A) (A) (A) (A) (A) (A) (A) (A) (A)
                 (A) (A) (A) (A) (A) (A) (A) (A) (A) (A) (A) (A)
                 (A) (A) (A) (A) (A) (A) (A) (A) (A) (A) (A) (A)
                 (A) (A) (A) (A) (A) (A) (A) (A) (A) (A) (A) (A)
                 (A) (A) (A) (A) (A) (A) (A) (A) (A) (A) (A) (A)
                 (A) (A) (A) (A) (A) (A) (A) (A) (A) (A) (A) (A)
                 (A) (A) (A) (A) (A) (A) (A) (A) (A) (A) (A) (A)
                 (A) (A) (A) (A) (A) (A) (A) (A) (A) (A) (A) (A)
                 (A) (A) (A) (A) (A) (A) (A) (A) (A) (A) (A) (A)
                 (A) (A) (A) (A) (A) (A) (A) (A) (A) (A) (A) (A)
                 (A) (A) (A) (A) (A) (A) (A) (A) (A) (A) (A) (A)
                 (A) (A) (A) (A) (A) (A) (A) (A) (A) (A) (A) (A)
                 (A) (A) (A) (A) (A) (A) (A) (A) (A) (A) (A) (A)
                 (A) (A) (A) (A) (A) (A) (A) (A) (A) (A) (A) (A)
                 (A) (A) (A) (A) (A) (A) (A) (A) (A) (A) (A) (A)
                 (A) (A) (A) (A) (A) (A) (A) (A) (A) (A) (A) (A)
                 (A) (A) (A) (A) (A) (A) (A) (A) (A) (A) (A) (A)
                 (A) (A) (A) (A) (A) (A) (A) (A) (A) (A) (A) (A)
                 (A) (A) (A) (A) (A) (A) (A) (A) (A) (A) (A) (A)
                 (A) (A) (A) (A) (A) (A) (A) (A) (A) (A) (A) (A)
                 (A) (A) (A) (A) (A) (A) (A) (A) (A) (A) (A) (A)
                 (A) (A) (A) (A) (A) (A) (A) (A) (A) (A) (A) (A)
                 (A) (A) (A) (A) (A) (A) (A) (A) (A) (A) (A) (A)
                 (A) (A) (A) (A) (A) (A) (A) (A) (A) (A) (A) (A)
                 (A) (A) (A) (A) (A) (A) (A) (A) (A) (A) (A) (A)
                 (A) (A) (A) (A) (A) (A) (A) (A) (A) (A) (A) (A)
                 (A) (A) (A) (A) (A) (A) (A) (A) (A) (A) (A) (A)
                 (A) (A) (A) (A) (A) (A) (A) (A) (A) (A) (A) (A)
                 (A) (A) (A) (A) (A) (A) (A) (A) (A) (A) (A) (A)
                 (A) (A) (A) (A) (A) (A) (A) (A) (A) (A) (A) (A)
                 (A) (A) (A) (A) (A) (A) (A) (A) (A) (A) (A) (A)
                 (A) (A) (A) (A) (A) (A) (A) (A) (A) (A) (A) (A)
                 (A) (A) (A) (A) (A) (A) (A) (A) (A) (A) (A) (A)
[...]
  Beta virt. eigenvalues --    5.12581   5.12763   5.12881   5.12974   5.13663
  Beta virt. eigenvalues --    5.13690   5.13998   5.14511   5.15128   5.15399
  Beta virt. eigenvalues --    5.15936   5.15979   5.16302   5.16861   5.16952
  Beta virt. eigenvalues --    5.17307   5.17649   5.17785   5.18019   5.18169
  Beta virt. eigenvalues --    5.19150   5.19264   5.19897   5.20572   5.20711
  Beta virt. eigenvalues --    5.20885   5.21571   5.21884   5.22528   5.23003
  Beta virt. eigenvalues --    5.23074   5.23370   5.24254   5.24898   5.24961
  Beta virt. eigenvalues --    5.25217   5.25591   5.26054   5.26145   5.26198
  Beta virt. eigenvalues --    5.26293   5.26544   5.26704   5.27076   5.27247
  Beta virt. eigenvalues --    5.27377   5.27797   5.28315   5.28867   5.28932
  Beta virt. eigenvalues --    5.29022   5.29190   5.29310   5.29603   5.29867
  Beta virt. eigenvalues --    5.30023   5.30091   5.30635   5.30989   5.31227
  Beta virt. eigenvalues --    5.31369   5.31443   5.31740   5.32503   5.32686
  Beta virt. eigenvalues --    5.32956   5.33751   5.34271   5.34487   5.34789
  Beta virt. eigenvalues --    5.35047   5.35408   5.35872   5.36130   5.36311
  Beta virt. eigenvalues --    5.36625   5.36965   5.37356   5.37699   5.37887
  Beta virt. eigenvalues --    5.38413   5.38532   5.38592   5.38844   5.38991
  Beta virt. eigenvalues --    5.39168   5.39494   5.39900   5.40015   5.40205
  Beta virt. eigenvalues --    5.40780   5.41072   5.41364   5.41561   5.41876
  Beta virt. eigenvalues --    5.42342   5.42776   5.43551   5.43613   5.43955
  Beta virt. eigenvalues --    5.44556   5.44624   5.45456   5.45641   5.45892
  Beta virt. eigenvalues --    5.46108   5.46230   5.46402   5.47009   5.47426
  Beta virt. eigenvalues --    5.48180   5.48701   5.49997   5.50641   5.51180
  Beta virt. eigenvalues --    5.51758   5.52108   5.52570   5.52698   5.52829
  Beta virt. eigenvalues --    5.53488   5.53932   5.54590   5.55217   5.55370
  Beta virt. eigenvalues --    5.55924   5.56295   5.56620   5.56800   5.57152
  Beta virt. eigenvalues --    5.57932   5.57975   5.58205   5.58952   5.59204
  Beta virt. eigenvalues --    5.59288   5.59590   5.59970   5.60251   5.60469
  Beta virt. eigenvalues --    5.61166   5.61224   5.61756   5.62193   5.62360
  Beta virt. eigenvalues --    5.62442   5.62958   5.63229   5.63631   5.63789
  Beta virt. eigenvalues --    5.64352   5.65326   5.65450   5.65773   5.66041
  Beta virt. eigenvalues --    5.66654   5.66708   5.67065   5.67322   5.67740
  Beta virt. eigenvalues --    5.67806   5.68605   5.69576   5.69678   5.69865
  Beta virt. eigenvalues --    5.70398   5.70958   5.71853   5.73064   5.74007
  Beta virt. eigenvalues --    5.75037   5.76447   5.77364   5.78241   5.80305
  Beta virt. eigenvalues --    5.80641   5.85086   5.85226   5.85268   5.85555
  Beta virt. eigenvalues --    5.86177   5.87382   5.89618   5.90258   5.90860
  Beta virt. eigenvalues --    5.91062   5.91654   5.92228   5.92557   5.92830
  Beta virt. eigenvalues --    5.93181   5.93695   5.93910   5.95409   5.96882
  Beta virt. eigenvalues --    5.97407   5.98933   5.99753   6.00782   6.02194
  Beta virt. eigenvalues --    6.03674   6.04554   6.05040   6.05507   6.05533
  Beta virt. eigenvalues --    6.06108   6.06752   6.08283   6.11575   6.11917
  Beta virt. eigenvalues --    6.12040   6.12355   6.13561   6.15746   6.19361
  Beta virt. eigenvalues --    6.20711   6.21900   6.23154   6.23580   6.25146
  Beta virt. eigenvalues --    6.25419   6.26561   6.26642   6.27165   6.28061
  Beta virt. eigenvalues --    6.28370   6.29220   6.29672   6.31200   6.33426
  Beta virt. eigenvalues --    6.33563   6.33610   6.34887   6.35563   6.36300
  Beta virt. eigenvalues --    6.36384   6.38946   6.39617   6.40247   6.41638
  Beta virt. eigenvalues --    6.42193   6.43841   6.45382   6.46089   6.48776
  Beta virt. eigenvalues --    6.51738   6.52897   6.55846   6.68020   6.70541
  Beta virt. eigenvalues --    6.71052   6.71422   6.72375   6.74006   6.74751
  Beta virt. eigenvalues --    6.75127   6.75466   6.75614   6.75785   6.76629
  Beta virt. eigenvalues --    6.78037   6.80659   6.82898   6.83128   6.83342
  Beta virt. eigenvalues --    6.84250   6.84384   6.85183   6.85360   6.86307
  Beta virt. eigenvalues --    6.86442   6.86494   6.87654   6.87835   6.89675
  Beta virt. eigenvalues --    6.90762   6.95150   6.95712   6.96212   6.97699
  Beta virt. eigenvalues --    6.98185   6.98643   6.98865   7.00272   7.00713
  Beta virt. eigenvalues --    7.00746   7.02052   7.02880   7.03404   7.05498
  Beta virt. eigenvalues --    7.06417   7.08261   7.09264   7.11061   7.11336
  Beta virt. eigenvalues --    7.15089   7.16786   7.20729   7.23585   7.24110
  Beta virt. eigenvalues --    7.25444   7.26996   7.28715   7.29431   7.29760
  Beta virt. eigenvalues --    7.30080   7.30384   7.30642   7.31590   7.32122
  Beta virt. eigenvalues --    7.32240   7.33438   7.33878   7.34185   7.35774
  Beta virt. eigenvalues --    7.35900   7.36195   7.36865   7.40861   7.41767
  Beta virt. eigenvalues --    7.43024   7.46217   7.47691   7.48598   7.49747
  Beta virt. eigenvalues --    7.50923   8.44655   8.49493   8.57452   8.60666
  Beta virt. eigenvalues --    8.85052   8.85117   8.92668   8.94662   8.97645
  Beta virt. eigenvalues --    8.98904  15.82843  22.73049  22.74606  22.82151
  Beta virt. eigenvalues --   22.86888  22.87295  23.00428  23.06649  23.10013
  Beta virt. eigenvalues --   23.10829  23.12156  23.12475  23.16935  23.17359
  Beta virt. eigenvalues --   23.18275  23.25524  23.25976  23.27487  23.28218
  Beta virt. eigenvalues --   23.29534  23.30112  23.32791  23.33084  23.33469
  Beta virt. eigenvalues --   23.33525  23.35679  23.36291  23.37544  23.37593
  Beta virt. eigenvalues --   23.37838  23.38620  23.38865  23.39929  23.41053
  Beta virt. eigenvalues --   23.43577  23.44728  23.45986  23.49611  23.52047
  Beta virt. eigenvalues --   23.54593  23.56269  23.58121  23.62720  23.65912
  Beta virt. eigenvalues --   23.69975  23.73085  23.82165  23.99307  24.08649
  Beta virt. eigenvalues --   24.08711  32.59272  32.63537  33.05395  33.22337
  Beta virt. eigenvalues --   34.49752  34.49842  34.60979  34.61609  34.89322
  Beta virt. eigenvalues --   34.89949  42.92633  42.92751  44.18565  44.21374
  Beta virt. eigenvalues --   44.25920  44.26908  44.28941  44.31471  44.33077
  Beta virt. eigenvalues --   44.41982  44.45804  44.52784  44.54885  44.62512
  Beta virt. eigenvalues --   44.63560  57.38359  57.58000 117.59923 117.59930
          Condensed to atoms (all electrons):
          Atomic-Atomic Spin Densities.
 Mulliken charges and spin densities:
               1          2
     1  B    0.376733  -0.002495
     2  N   -0.111604   0.013543
     3  C    0.041106   0.135201
     4  C   -0.026239  -0.035546
     5  C   -0.057590   0.124983
     6  C    0.161695  -0.024780
     7  C   -0.181748   0.362530
     8  C    0.187675   0.000290
     9  O   -0.426761   0.174909
    10  C   -0.389451   0.010816
    11  C    0.067919   0.000558
    12  C   -0.076631  -0.000139
    13  N    0.495199   0.003692
    14  O   -0.321489  -0.010021
    15  O   -0.355413   0.010212
    16  C    0.020222   0.001486
    17  C   -0.062604  -0.000569
    18  C   -0.082851   0.000493
    19  C   -0.072643  -0.000369
    20  N    0.499308   0.000038
    21  O   -0.362337  -0.000132
    22  O   -0.360744   0.000058
    23  C    0.147426  -0.052563
    24  N   -0.093832   0.013981
    25  C    0.012865   0.101393
    26  C    0.005811  -0.027285
    27  C   -0.069054   0.100963
    28  C   -0.471411  -0.005066
    29  I   -0.086460   0.001053
    30  C   -0.178045  -0.043999
    31  C   -0.111552   0.069469
    32  C    0.005688  -0.016624
    33  C   -0.131754   0.015743
    34  C   -0.193484  -0.009764
    35  C    0.222080   0.017784
    36  O   -0.297463   0.002658
    37  C   -0.146572   0.000007
    38  C   -0.132134  -0.000043
    39  O   -0.337949   0.000037
    40  C   -0.122281   0.000020
    41  C   -0.115237  -0.000008
    42  O   -0.343726   0.000001
    43  C   -0.123781  -0.000000
    44  C   -0.047760  -0.000000
    45  O   -0.337619   0.000000
    46  C   -0.204756   0.000000
    47  C   -0.171919  -0.009466
    48  C   -0.194187   0.019106
    49  C   -0.418510  -0.000909
    50  I   -0.087448   0.000437
    51  C   -0.174379  -0.059407
    52  C   -0.105037   0.094693
    53  C    0.002588  -0.023118
    54  C   -0.152227   0.022922
    55  C   -0.195214  -0.012409
    56  C    0.222411   0.024559
    57  O   -0.298168   0.003718
    58  C   -0.151238   0.000010
    59  C   -0.112544  -0.000127
    60  O   -0.340151   0.000051
    61  C   -0.054765   0.000009
    62  C   -0.100951   0.000003
    63  O   -0.347081  -0.000000
    64  C   -0.052100  -0.000000
    65  C   -0.080439  -0.000000
    66  O   -0.353826  -0.000000
    67  C   -0.197302   0.000000
    68  C   -0.176911  -0.013953
    69  C   -0.164619   0.025059
    70  F   -0.377434   0.000506
    71  F   -0.344258   0.000374
    72  H    0.229350  -0.002755
    73  H    0.172929  -0.004046
    74  H    0.211436  -0.000054
    75  H    0.199669  -0.000037
    76  H    0.153821  -0.000077
    77  H    0.159911   0.003822
    78  H    0.144708   0.003050
    79  H    0.139936  -0.003984
    80  H    0.148765   0.002280
    81  H    0.117984  -0.003889
    82  H    0.140615  -0.000444
    83  H    0.154742   0.000153
    84  H    0.159692   0.000111
    85  H    0.165638  -0.000003
    86  H    0.165136   0.000080
    87  H    0.142155  -0.000015
    88  H    0.139734   0.000001
    89  H    0.148026   0.000000
    90  H    0.149145   0.000004
    91  H    0.145669  -0.000000
    92  H    0.127134   0.000000
    93  H    0.141054  -0.000000
    94  H    0.120391   0.000000
    95  H    0.123990   0.000000
    96  H    0.121066  -0.000000
    97  H    0.122453  -0.000000
    98  H    0.134747  -0.000000
    99  H    0.146204   0.000060
   100  H    0.145682  -0.000696
   101  H    0.150768   0.004631
   102  H    0.125149  -0.002355
   103  H    0.125164   0.002331
   104  H    0.146766   0.003369
   105  H    0.118238  -0.005126
   106  H    0.148031  -0.000822
   107  H    0.154745   0.000150
   108  H    0.160222   0.000183
   109  H    0.169407   0.000003
   110  H    0.151248   0.000145
   111  H    0.138097  -0.000016
   112  H    0.129605   0.000006
   113  H    0.119033   0.000001
   114  H    0.131317  -0.000000
   115  H    0.123531   0.000000
   116  H    0.122535  -0.000000
   117  H    0.116921  -0.000000
   118  H    0.126605  -0.000000
   119  H    0.117357   0.000000
   120  H    0.119907  -0.000000
   121  H    0.121635   0.000000
   122  H    0.137583  -0.000000
   123  H    0.148839   0.000132
   124  H    0.140473  -0.000764
 Sum of Mulliken charges =  -1.00000   1.00000
 Mulliken charges and spin densities with hydrogens summed into heavy atoms:
               1          2
     1  B    0.376733  -0.002495
     2  N   -0.111604   0.013543
     3  C    0.041106   0.135201
     4  C   -0.026239  -0.035546
     5  C   -0.057590   0.124983
     6  C    0.161695  -0.024780
     7  C   -0.181748   0.362530
     8  C    0.187675   0.000290
     9  O   -0.426761   0.174909
    10  C    0.012828   0.004015
    11  C    0.067919   0.000558
    12  C   -0.076631  -0.000139
    13  N    0.495199   0.003692
    14  O   -0.321489  -0.010021
    15  O   -0.355413   0.010212
    16  C    0.231658   0.001431
    17  C   -0.062604  -0.000569
    18  C    0.116818   0.000455
    19  C    0.081178  -0.000446
    20  N    0.499308   0.000038
    21  O   -0.362337  -0.000132
    22  O   -0.360744   0.000058
    23  C    0.147426  -0.052563
    24  N   -0.093832   0.013981
    25  C    0.012865   0.101393
    26  C    0.005811  -0.027285
    27  C   -0.069054   0.100963
    28  C   -0.026856  -0.002178
    29  I   -0.086460   0.001053
    30  C   -0.029280  -0.041719
    31  C    0.006432   0.065580
    32  C    0.005688  -0.016624
    33  C    0.008861   0.015299
    34  C   -0.038742  -0.009611
    35  C    0.222080   0.017784
    36  O   -0.297463   0.002658
    37  C    0.178758   0.000114
    38  C    0.175156   0.000022
    39  O   -0.337949   0.000037
    40  C    0.165479   0.000021
    41  C    0.179576  -0.000004
    42  O   -0.343726   0.000001
    43  C    0.144408  -0.000000
    44  C    0.196621  -0.000000
    45  O   -0.337619   0.000000
    46  C    0.173510   0.000000
    47  C   -0.025715  -0.009406
    48  C   -0.048506   0.018410
    49  C   -0.017429   0.003699
    50  I   -0.087448   0.000437
    51  C   -0.027613  -0.056039
    52  C    0.013201   0.089566
    53  C    0.002588  -0.023118
    54  C   -0.004196   0.022100
    55  C   -0.040469  -0.012258
    56  C    0.222411   0.024559
    57  O   -0.298168   0.003718
    58  C    0.178390   0.000196
    59  C    0.176801   0.000002
    60  O   -0.340151   0.000051
    61  C    0.193873   0.000017
    62  C    0.153897   0.000003
    63  O   -0.347081  -0.000000
    64  C    0.187356  -0.000000
    65  C    0.163523  -0.000000
    66  O   -0.353826  -0.000000
    67  C    0.181823   0.000000
    68  C   -0.028072  -0.013821
    69  C   -0.024146   0.024295
    70  F   -0.377434   0.000506
    71  F   -0.344258   0.000374
 Electronic spatial extent (au):  <R**2>=         132305.5235
 Charge=             -1.0000 electrons
 Dipole moment (field-independent basis, Debye):
    X=             18.3496    Y=              2.9590    Z=             -2.2382  Tot=             18.7209
 Quadrupole moment (field-independent basis, Debye-Ang):
   XX=           -454.2529   YY=           -435.1502   ZZ=           -512.0513
   XY=            -33.0661   XZ=             73.6574   YZ=              5.0078
 Traceless Quadrupole moment (field-independent basis, Debye-Ang):
   XX=             12.8986   YY=             32.0013   ZZ=            -44.8998
   XY=            -33.0661   XZ=             73.6574   YZ=              5.0078
 Octapole moment (field-independent basis, Debye-Ang**2):
  XXX=            465.1805  YYY=           -214.4237  ZZZ=           -418.9881  XYY=            554.3357
  XXY=            569.6897  XXZ=            -81.6643  XZZ=            639.2782  YZZ=             71.9798
  YYZ=             92.2544  XYZ=           -139.0920
 Hexadecapole moment (field-independent basis, Debye-Ang**3):
 XXXX=        -112913.6090 YYYY=         -45807.8602 ZZZZ=         -18036.1122 XXXY=           2757.0255
 XXXZ=          11902.7716 YYYX=             36.8876 YYYZ=            236.4550 ZZZX=           5009.0682
 ZZZY=            371.5471 XXYY=         -22979.0966 XXZZ=         -23802.3033 YYZZ=         -10604.6746
 XXYZ=            100.1548 YYXZ=           1466.8945 ZZXY=           -212.6485
 N-N= 1.124396146906D+04 E-N=-3.155332555900D+04  KE= 3.529937774552D+03
 Leave Link  601 at Thu Nov  6 18:29:45 2025, MaxMem= 30870077440 cpu:             257.9 elap:               4.6
 (Enter /public/software/gauss/g16/l9999.exe)
 1\1\GINC-CU319\SP\UM062X\def2TZVPP\C49H53B1F2I2N4O13(1-,2)\BAIDING\06-
 Nov-2025\0\\#p M062X/DEF2TZVPP scrf=(solvent=water) em=GD3\\Energy cal
 culation for BE_I_reduced\\-1,2\B,0,2.295369,0.201495,-0.670908\N,0,3.
 004446,1.54433,-1.020786\C,0,2.436836,2.786858,-1.265081\C,0,3.51021,3
 .698811,-1.398499\C,0,4.729159,3.029987,-1.194596\C,0,4.379719,1.68472
 1,-0.921208\C,0,5.187119,0.528842,-0.61642\C,0,6.295427,0.670735,0.315
 798\O,0,6.677752,1.779813,0.743772\C,0,6.968522,-0.57575,0.914016\C,0,
 7.521164,-0.343873,2.300643\C,0,6.78118,0.113448,3.412905\N,0,5.344882
 ,0.396495,3.322232\O,0,4.684794,-0.167628,2.446689\O,0,4.856056,1.1773
 61,4.143617\C,0,7.350311,0.318364,4.665936\C,0,8.699833,0.037766,4.825
 033\C,0,9.483553,-0.416633,3.76614\C,0,8.885001,-0.590504,2.524261\N,0
 ,9.306902,0.228919,6.140036\O,0,8.59265,0.633938,7.060631\O,0,10.50736
 ,-0.024256,6.267528\C,0,4.653075,-0.752654,-1.020611\N,0,3.280557,-0.9
 30823,-1.081997\C,0,3.005517,-2.23597,-1.465956\C,0,4.250949,-2.847293
 ,-1.727642\C,0,5.289583,-1.9313,-1.473673\C,0,6.737953,-2.119851,-1.80
 9322\I,0,4.59175,-4.738373,-2.565584\C,0,1.650117,-2.737273,-1.52748\C
 ,0,1.263343,-4.033458,-1.418986\C,0,-0.106989,-4.534815,-1.505658\C,0,
 -0.3538,-5.895949,-1.223019\C,0,-1.632597,-6.432291,-1.279491\C,0,-2.7
 23107,-5.621459,-1.628749\O,0,-3.937343,-6.257939,-1.681852\C,0,-5.132
 943,-5.510797,-1.958024\C,0,-5.661444,-4.773143,-0.733473\O,0,-5.86124
 1,-5.608711,0.405882\C,0,-6.890393,-6.595101,0.30514\C,0,-8.291124,-6.
 029853,0.079832\O,0,-8.631636,-4.930345,0.928301\C,0,-8.6154,-5.161336
 ,2.338359\C,0,-9.723131,-6.062457,2.858053\O,0,-9.401842,-7.431768,2.6
 27486\C,0,-10.416593,-8.306147,3.101982\C,0,-2.506324,-4.265577,-1.918
 354\C,0,-1.21674,-3.742082,-1.858924\C,0,6.097196,3.601878,-1.408672\I
 ,0,3.405228,5.700528,-2.014404\C,0,1.005272,2.962261,-1.341791\C,0,0.3
 17099,4.112591,-1.123855\C,0,-1.129232,4.28334,-1.234101\C,0,-2.009709
 ,3.284749,-1.710581\C,0,-3.375379,3.507598,-1.786865\C,0,-3.922286,4.7
 42826,-1.39582\O,0,-5.2816,4.854147,-1.542193\C,0,-5.952182,6.056718,-
 1.131134\C,0,-6.212298,6.097749,0.370129\O,0,-6.967677,4.989808,0.8507
 53\C,0,-8.345783,5.008229,0.483987\C,0,-9.043824,3.954056,1.34171\O,0,
 -10.398181,3.748496,0.956136\C,0,-11.292552,4.782008,1.367608\C,0,-12.
 708105,4.268193,1.108759\O,0,-13.698323,5.258916,1.358844\C,0,-14.0106
 53,5.424099,2.739128\C,0,-3.072731,5.750343,-0.922614\C,0,-1.700518,5.
 511188,-0.850877\F,0,1.104542,0.086496,-1.410568\F,0,2.001296,0.136599
 ,0.699989\H,0,6.27802,-1.420847,0.925697\H,0,7.809503,-0.854487,0.2745
 12\H,0,6.752008,0.67422,5.492788\H,0,10.536127,-0.62376,3.911444\H,0,9
 .4925,-0.928143,1.691692\H,0,7.264482,-2.749059,-1.081937\H,0,6.83853,
 -2.608568,-2.784077\H,0,7.258348,-1.161403,-1.867499\H,0,0.890576,-1.9
 72824,-1.636344\H,0,2.01039,-4.797521,-1.225462\H,0,0.479628,-6.538486
 ,-0.951192\H,0,-1.808897,-7.480775,-1.060026\H,0,-4.97793,-4.80165,-2.
 778183\H,0,-5.847595,-6.260896,-2.303897\H,0,-4.941831,-4.018656,-0.40
 4376\H,0,-6.582086,-4.248375,-1.02146\H,0,-6.686127,-7.319254,-0.49596
 \H,0,-6.844796,-7.141394,1.250755\H,0,-8.389233,-5.634261,-0.935411\H,
 0,-9.006037,-6.855747,0.182085\H,0,-7.642109,-5.543555,2.671785\H,0,-8
 .751364,-4.17115,2.784496\H,0,-9.841319,-5.884847,3.939125\H,0,-10.676
 02,-5.802607,2.371395\H,0,-10.573032,-8.188817,4.184223\H,0,-11.374026
 ,-8.128434,2.591479\H,0,-10.08924,-9.328765,2.898619\H,0,-3.325595,-3.
 612746,-2.194477\H,0,-1.078933,-2.6928,-2.101109\H,0,6.432072,4.205913
 ,-0.557911\H,0,6.83535,2.81435,-1.562374\H,0,6.100892,4.252269,-2.2899
 43\H,0,0.451543,2.058357,-1.563446\H,0,0.853964,5.004851,-0.816413\H,0
 ,-1.621173,2.324019,-2.034\H,0,-4.044399,2.737234,-2.157932\H,0,-5.392
 203,6.946749,-1.437197\H,0,-6.892068,6.049436,-1.687804\H,0,-5.268331,
 6.072541,0.921732\H,0,-6.719598,7.046194,0.603007\H,0,-8.768928,6.0073
 31,0.659084\H,0,-8.485689,4.760188,-0.577317\H,0,-8.536337,2.993437,1.
 206709\H,0,-8.979312,4.230043,2.403813\H,0,-11.139416,5.009195,2.43196
 3\H,0,-11.132147,5.706329,0.795945\H,0,-12.798847,3.997032,0.051651\H,
 0,-12.896014,3.366598,1.709404\H,0,-14.330387,4.474363,3.190594\H,0,-1
 3.164708,5.818636,3.316349\H,0,-14.835497,6.1391,2.795888\H,0,-3.45760
 4,6.713104,-0.609201\H,0,-1.051807,6.300958,-0.480997\\Version=ES64L-G
 16RevA.03\State=2-A\HF=-3915.8677993\S2=0.771895\S2-1=0.\S2A=0.750399\
 RMSD=3.750e-09\Dipole=-7.2192936,-1.1641787,-0.8805812\Quadrupole=9.58
 97818,23.7921528,-33.3819346,-24.5838002,-54.7624762,-3.7231484\PG=C01
  [X(C49H53B1F2I2N4O13)]\\@


 THE REASON MAN'S BEST FRIEND IS A DOG IS BECAUSE
 HE WAGS HIS TAIL INSTEAD OF HIS TONGUE.
 Job cpu time:       3 days 10 hours 31 minutes 30.7 seconds.
 Elapsed time:       0 days  1 hours 18 minutes 31.7 seconds.
 File lengths (MBytes):  RWF=   9614 Int=      0 D2E=      0 Chk=    615 Scr=      1
 Normal termination of Gaussian 16 at Thu Nov  6 18:29:47 2025.
