 Entering Gaussian System, Link 0=g16
 Input=BE_I_sp.gjf
 Output=BE_I_sp.log
 Initial command:
 /public/software/gauss/g16/l1.exe "/public/home/baiding/1106_BE_sp/tmp_BE_I_sp_1571376/Gau-1388984.inp" -scrdir="/public/home/baiding/1106_BE_sp/tmp_BE_I_sp_1571376/"
 Entering Link 1 = /public/software/gauss/g16/l1.exe PID=   1388985.
  
 Copyright (c) 1988,1990,1992,1993,1995,1998,2003,2009,2016,
            Gaussian, Inc.  All Rights Reserved.
  
 This is part of the Gaussian(R) 16 program.  It is based on
 the Gaussian(R) 09 system (copyright 2009, Gaussian, Inc.),
 the Gaussian(R) 03 system (copyright 2003, Gaussian, Inc.),
 the Gaussian(R) 98 system (copyright 1998, Gaussian, Inc.),
 the Gaussian(R) 94 system (copyright 1995, Gaussian, Inc.),
 the Gaussian 92(TM) system (copyright 1992, Gaussian, Inc.),
 the Gaussian 90(TM) system (copyright 1990, Gaussian, Inc.),
 the Gaussian 88(TM) system (copyright 1988, Gaussian, Inc.),
 the Gaussian 86(TM) system (copyright 1986, Carnegie Mellon
 University), and the Gaussian 82(TM) system (copyright 1983,
 Carnegie Mellon University). Gaussian is a federally registered
 trademark of Gaussian, Inc.
  
 This software contains proprietary and confidential information,
 including trade secrets, belonging to Gaussian, Inc.
  
 This software is provided under written license and may be
 used, copied, transmitted, or stored only in accord with that
 written license.
  
 The following legend is applicable only to US Government
 contracts under FAR:
  
                    RESTRICTED RIGHTS LEGEND
  
 Use, reproduction and disclosure by the US Government is
 subject to restrictions as set forth in subparagraphs (a)
 and (c) of the Commercial Computer Software - Restricted
 Rights clause in FAR 52.227-19.
  
 Gaussian, Inc.
 340 Quinnipiac St., Bldg. 40, Wallingford CT 06492
  
  
 ---------------------------------------------------------------
 Warning -- This program may not be used in any manner that
 competes with the business of Gaussian, Inc. or will provide
 assistance to any competitor of Gaussian, Inc.  The licensee
 of this program is prohibited from giving any competitor of
 Gaussian, Inc. access to this program.  By using this program,
 the user acknowledges that Gaussian, Inc. is engaged in the
 business of creating and licensing software in the field of
 computational chemistry and represents and warrants to the
 licensee that it is not a competitor of Gaussian, Inc. and that
 it will not use this program in any manner prohibited above.
 ---------------------------------------------------------------
  

 Cite this work as:
 Gaussian 16, Revision A.03,
 M. J. Frisch, G. W. Trucks, H. B. Schlegel, G. E. Scuseria, 
 M. A. Robb, J. R. Cheeseman, G. Scalmani, V. Barone, 
 G. A. Petersson, H. Nakatsuji, X. Li, M. Caricato, A. V. Marenich, 
 J. Bloino, B. G. Janesko, R. Gomperts, B. Mennucci, H. P. Hratchian, 
 J. V. Ortiz, A. F. Izmaylov, J. L. Sonnenberg, D. Williams-Young, 
 F. Ding, F. Lipparini, F. Egidi, J. Goings, B. Peng, A. Petrone, 
 T. Henderson, D. Ranasinghe, V. G. Zakrzewski, J. Gao, N. Rega, 
 G. Zheng, W. Liang, M. Hada, M. Ehara, K. Toyota, R. Fukuda, 
 J. Hasegawa, M. Ishida, T. Nakajima, Y. Honda, O. Kitao, H. Nakai, 
 T. Vreven, K. Throssell, J. A. Montgomery, Jr., J. E. Peralta, 
 F. Ogliaro, M. J. Bearpark, J. J. Heyd, E. N. Brothers, K. N. Kudin, 
 V. N. Staroverov, T. A. Keith, R. Kobayashi, J. Normand, 
 K. Raghavachari, A. P. Rendell, J. C. Burant, S. S. Iyengar, 
 J. Tomasi, M. Cossi, J. M. Millam, M. Klene, C. Adamo, R. Cammi, 
 J. W. Ochterski, R. L. Martin, K. Morokuma, O. Farkas, 
 J. B. Foresman, and D. J. Fox, Gaussian, Inc., Wallingford CT, 2016.
 
 ******************************************
 Gaussian 16:  ES64L-G16RevA.03 25-Dec-2016
                 6-Nov-2025 
 ******************************************
 %nprocshared=64
 Will use up to   64 processors via shared memory.
 %mem=230GB
 %chk=BE_I_sp.chk
 ----------------------------------------------
 #p M062X/DEF2TZVPP scrf=(solvent=water) em=GD3
 ----------------------------------------------
 1/38=1,172=1/1;
 2/12=2,17=6,18=5,40=1/2;
 3/5=44,7=202,11=2,25=1,30=1,70=2201,72=1,74=-55,124=31/1,2,3;
 4//1;
 5/5=2,38=5,53=1/2;
 6/7=2,8=2,9=2,10=2,28=1/1;
 99/5=1,9=1/99;
 Leave Link    1 at Thu Nov  6 18:29:48 2025, MaxMem= 30870077440 cpu:              20.3 elap:               0.3
 (Enter /public/software/gauss/g16/l101.exe)
 ---------------------------
 Energy calculation for BE_I
 ---------------------------
 Symbolic Z-matrix:
 Charge =  0 Multiplicity = 1
 B                     1.90999   0.44581   0.08403 
 N                     2.65311  -0.89491  -0.16264 
 C                     2.08726  -2.13211  -0.05806 
 C                     3.13018  -3.09394  -0.23763 
 C                     4.33536  -2.429    -0.44233 
 C                     4.02257  -1.02751  -0.38412 
 C                     4.83088   0.11422  -0.52131 
 C                     6.32911  -0.08075  -0.67939 
 O                     6.82322  -0.35045  -1.75923 
 C                     7.15292   0.07094   0.60098 
 C                     8.43269  -0.72861   0.62079 
 C                     9.50404  -0.58207  -0.28211 
 N                     9.53746   0.4949   -1.27727 
 O                     9.06613   1.58839  -0.96389 
 O                     10.07349   0.26136  -2.36053 
 C                     10.61946  -1.41224  -0.27077 
 C                     10.68465  -2.40152   0.70049 
 C                     9.66665  -2.58401   1.63328 
 C                     8.55277  -1.75442   1.57158 
 N                     11.86041  -3.27032   0.73881 
 O                     12.75003  -3.08451  -0.09435 
 O                     11.90394  -4.14812   1.6034 
 C                     4.28356   1.40967  -0.45749 
 N                     2.94335   1.58399  -0.11866 
 C                     2.6446    2.9167   -0.10794 
 C                     3.83208   3.61922  -0.47245 
 C                     4.85591   2.70199  -0.69684 
 C                     6.24839   3.03855  -1.12327 
 I                     4.11431   5.69031  -0.52431 
 C                     1.33106   3.36069   0.29336 
 C                     0.74474   4.53999  -0.03359 
 C                    -0.57613   4.99456   0.38083 
 C                    -1.05078   6.23063  -0.11115 
 C                    -2.2961    6.72369   0.24586 
 C                    -3.11952   5.99332   1.11822 
 O                    -4.31514   6.58013   1.4237 
 C                    -5.25734   5.91045   2.28116 
 C                    -6.08865   4.87457   1.53568 
 O                    -6.81899   5.44344   0.44879 
 C                    -8.06068   6.05638   0.80673 
 C                    -9.19663   5.05239   0.97801 
 O                    -9.36881   4.15434  -0.12227 
 C                    -9.6887    4.72511  -1.39223 
 C                    -11.0704   5.35013  -1.49513 
 O                    -11.0733   6.65222  -0.9154 
 C                    -12.34512   7.27867  -1.01226 
 C                    -2.67246   4.75918   1.61914 
 C                    -1.42031   4.27726   1.25241 
 C                     5.6604   -3.06624  -0.7175 
 I                     2.89909  -5.16995  -0.36175 
 C                     0.665    -2.26405   0.14211 
 C                     0.0228   -3.32456   0.69568 
 C                    -1.41462  -3.45172   0.88983 
 C                    -2.35819  -2.49959   0.43845 
 C                    -3.71326  -2.68024   0.65252 
 C                    -4.18487  -3.82191   1.32835 
 O                    -5.53907  -3.87741   1.49907 
 C                    -6.14908  -5.0342    2.09878 
 C                    -6.30171  -6.18698   1.11356 
 O                    -7.01777  -5.8385   -0.06672 
 C                    -8.4194   -5.65222   0.1195 
 C                    -9.03622  -5.56095  -1.27528 
 O                    -10.41704  -5.21931  -1.24011 
 C                    -11.2825  -6.29197  -0.8687 
 C                    -12.70812  -5.83086  -1.16812 
 O                    -13.68378  -6.77635  -0.74519 
 C                    -13.85236  -7.86895  -1.64417 
 C                    -3.27058  -4.78247   1.78191 
 C                    -1.90934  -4.5871    1.55949 
 F                     1.39231   0.47512   1.38657 
 F                     0.86013   0.59445  -0.83397 
 H                     7.35341   1.14328   0.70971 
 H                     6.5335   -0.21971   1.45211 
 H                     11.41874  -1.27587  -0.98615 
 H                     9.74136  -3.36151   2.38275 
 H                     7.74468  -1.90332   2.27938 
 H                     6.71552   2.2345   -1.68978 
 H                     6.23966   3.92943  -1.75672 
 H                     6.8886    3.26258  -0.2616 
 H                     0.78303   2.64321   0.89442 
 H                     1.27456   5.22826  -0.68481 
 H                    -0.42345   6.80791  -0.78496 
 H                    -2.65194   7.67567  -0.13493 
 H                    -4.75278   5.45092   3.13744 
 H                    -5.89482   6.71294   2.66015 
 H                    -5.44316   4.10746   1.09821 
 H                    -6.75116   4.38002   2.25814 
 H                    -7.97461   6.63702   1.73525 
 H                    -8.28676   6.76372   0.00418 
 H                    -9.00027   4.4011    1.83557 
 H                    -10.1176   5.61063   1.18816 
 H                    -8.93236   5.45554  -1.70812 
 H                    -9.64756   3.88498  -2.09261 
 H                    -11.34507   5.41697  -2.5601 
 H                    -11.81215   4.70478  -0.99944 
 H                    -12.65773   7.39118  -2.06064 
 H                    -13.1187   6.70796  -0.47861 
 H                    -12.25739   8.26913  -0.55887 
 H                    -3.2874    4.17122   2.28917 
 H                    -1.10099   3.32251   1.6581 
 H                     6.04021  -2.79123  -1.70532 
 H                     6.4143   -2.77577   0.01982 
 H                     5.56981  -4.1528   -0.67986 
 H                     0.09039  -1.39645  -0.16224 
 H                     0.60576  -4.164     1.06168 
 H                    -2.02872  -1.61081  -0.09021 
 H                    -4.43503  -1.94842   0.30389 
 H                    -5.58951  -5.3653    2.97978 
 H                    -7.12445  -4.67928   2.43818 
 H                    -5.32078  -6.52964   0.77251 
 H                    -6.79171  -7.021     1.63813 
 H                    -8.84005  -6.4943    0.68702 
 H                    -8.63576  -4.72711   0.67137 
 H                    -8.53538  -4.76288  -1.8328 
 H                    -8.88293  -6.50549  -1.81638 
 H                    -11.02832  -7.19434  -1.44211 
 H                    -11.1932  -6.53153   0.19974 
 H                    -12.9077  -4.9076   -0.61406 
 H                    -12.81287  -5.61406  -2.24095 
 H                    -14.10585  -7.517    -2.65407 
 H                    -12.95783  -8.50151  -1.70815 
 H                    -14.6794  -8.47223  -1.26096 
 H                    -3.59994  -5.67379   2.30134 
 H                    -1.20729  -5.33635   1.91523 
 
 ITRead=  0  0  0  0  0  0  0  0  0  0  0  0  0  0  0  0  0  0  0  0
 ITRead=  0  0  0  0  0  0  0  0  0  0  0  0  0  0  0  0  0  0  0  0
 ITRead=  0  0  0  0  0  0  0  0  0  0  0  0  0  0  0  0  0  0  0  0
 ITRead=  0  0  0  0  0  0  0  0  0  0  0  0  0  0  0  0  0  0  0  0
 ITRead=  0  0  0  0  0  0  0  0  0  0  0  0  0  0  0  0  0  0  0  0
 ITRead=  0  0  0  0  0  0  0  0  0  0  0  0  0  0  0  0  0  0  0  0
 ITRead=  0  0  0  0
 MicOpt= -1 -1 -1 -1 -1 -1 -1 -1 -1 -1 -1 -1 -1 -1 -1 -1 -1 -1 -1 -1
 MicOpt= -1 -1 -1 -1 -1 -1 -1 -1 -1 -1 -1 -1 -1 -1 -1 -1 -1 -1 -1 -1
 MicOpt= -1 -1 -1 -1 -1 -1 -1 -1 -1 -1 -1 -1 -1 -1 -1 -1 -1 -1 -1 -1
 MicOpt= -1 -1 -1 -1 -1 -1 -1 -1 -1 -1 -1 -1 -1 -1 -1 -1 -1 -1 -1 -1
 MicOpt= -1 -1 -1 -1 -1 -1 -1 -1 -1 -1 -1 -1 -1 -1 -1 -1 -1 -1 -1 -1
 MicOpt= -1 -1 -1 -1 -1 -1 -1 -1 -1 -1 -1 -1 -1 -1 -1 -1 -1 -1 -1 -1
 MicOpt= -1 -1 -1 -1
 NAtoms=    124 NQM=      124 NQMF=       0 NMMI=      0 NMMIF=      0
                NMic=       0 NMicF=      0.
                    Isotopes and Nuclear Properties:
 (Nuclear quadrupole moments (NQMom) in fm**2, nuclear magnetic moments (NMagM)
  in nuclear magnetons)

  Atom         1           2           3           4           5           6           7           8           9          10
 IAtWgt=          11          14          12          12          12          12          12          12          16          12
 AtmWgt=  11.0093053  14.0030740  12.0000000  12.0000000  12.0000000  12.0000000  12.0000000  12.0000000  15.9949146  12.0000000
 NucSpn=           3           2           0           0           0           0           0           0           0           0
 AtZEff=  -0.0000000  -0.0000000  -0.0000000  -0.0000000  -0.0000000  -0.0000000  -0.0000000  -0.0000000  -0.0000000  -0.0000000
 NQMom=    4.0590000   2.0440000   0.0000000   0.0000000   0.0000000   0.0000000   0.0000000   0.0000000   0.0000000   0.0000000
 NMagM=    2.6886370   0.4037610   0.0000000   0.0000000   0.0000000   0.0000000   0.0000000   0.0000000   0.0000000   0.0000000
 AtZNuc=   5.0000000   7.0000000   6.0000000   6.0000000   6.0000000   6.0000000   6.0000000   6.0000000   8.0000000   6.0000000

  Atom        11          12          13          14          15          16          17          18          19          20
 IAtWgt=          12          12          14          16          16          12          12          12          12          14
 AtmWgt=  12.0000000  12.0000000  14.0030740  15.9949146  15.9949146  12.0000000  12.0000000  12.0000000  12.0000000  14.0030740
 NucSpn=           0           0           2           0           0           0           0           0           0           2
 AtZEff=  -0.0000000  -0.0000000  -0.0000000  -0.0000000  -0.0000000  -0.0000000  -0.0000000  -0.0000000  -0.0000000  -0.0000000
 NQMom=    0.0000000   0.0000000   2.0440000   0.0000000   0.0000000   0.0000000   0.0000000   0.0000000   0.0000000   2.0440000
 NMagM=    0.0000000   0.0000000   0.4037610   0.0000000   0.0000000   0.0000000   0.0000000   0.0000000   0.0000000   0.4037610
 AtZNuc=   6.0000000   6.0000000   7.0000000   8.0000000   8.0000000   6.0000000   6.0000000   6.0000000   6.0000000   7.0000000

  Atom        21          22          23          24          25          26          27          28          29          30
 IAtWgt=          16          16          12          14          12          12          12          12         127          12
 AtmWgt=  15.9949146  15.9949146  12.0000000  14.0030740  12.0000000  12.0000000  12.0000000  12.0000000 126.9004000  12.0000000
 NucSpn=           0           0           0           2           0           0           0           0           5           0
 AtZEff=  -0.0000000  -0.0000000  -0.0000000  -0.0000000  -0.0000000  -0.0000000  -0.0000000  -0.0000000  -0.0000000  -0.0000000
 NQMom=    0.0000000   0.0000000   0.0000000   2.0440000   0.0000000   0.0000000   0.0000000   0.0000000 -71.0000000   0.0000000
 NMagM=    0.0000000   0.0000000   0.0000000   0.4037610   0.0000000   0.0000000   0.0000000   0.0000000   2.8132800   0.0000000
 AtZNuc=   8.0000000   8.0000000   6.0000000   7.0000000   6.0000000   6.0000000   6.0000000   6.0000000  53.0000000   6.0000000

  Atom        31          32          33          34          35          36          37          38          39          40
 IAtWgt=          12          12          12          12          12          16          12          12          16          12
 AtmWgt=  12.0000000  12.0000000  12.0000000  12.0000000  12.0000000  15.9949146  12.0000000  12.0000000  15.9949146  12.0000000
 NucSpn=           0           0           0           0           0           0           0           0           0           0
 AtZEff=  -0.0000000  -0.0000000  -0.0000000  -0.0000000  -0.0000000  -0.0000000  -0.0000000  -0.0000000  -0.0000000  -0.0000000
 NQMom=    0.0000000   0.0000000   0.0000000   0.0000000   0.0000000   0.0000000   0.0000000   0.0000000   0.0000000   0.0000000
 NMagM=    0.0000000   0.0000000   0.0000000   0.0000000   0.0000000   0.0000000   0.0000000   0.0000000   0.0000000   0.0000000
 AtZNuc=   6.0000000   6.0000000   6.0000000   6.0000000   6.0000000   8.0000000   6.0000000   6.0000000   8.0000000   6.0000000

  Atom        41          42          43          44          45          46          47          48          49          50
 IAtWgt=          12          16          12          12          16          12          12          12          12         127
 AtmWgt=  12.0000000  15.9949146  12.0000000  12.0000000  15.9949146  12.0000000  12.0000000  12.0000000  12.0000000 126.9004000
 NucSpn=           0           0           0           0           0           0           0           0           0           5
 AtZEff=  -0.0000000  -0.0000000  -0.0000000  -0.0000000  -0.0000000  -0.0000000  -0.0000000  -0.0000000  -0.0000000  -0.0000000
 NQMom=    0.0000000   0.0000000   0.0000000   0.0000000   0.0000000   0.0000000   0.0000000   0.0000000   0.0000000 -71.0000000
 NMagM=    0.0000000   0.0000000   0.0000000   0.0000000   0.0000000   0.0000000   0.0000000   0.0000000   0.0000000   2.8132800
 AtZNuc=   6.0000000   8.0000000   6.0000000   6.0000000   8.0000000   6.0000000   6.0000000   6.0000000   6.0000000  53.0000000

  Atom        51          52          53          54          55          56          57          58          59          60
 IAtWgt=          12          12          12          12          12          12          16          12          12          16
 AtmWgt=  12.0000000  12.0000000  12.0000000  12.0000000  12.0000000  12.0000000  15.9949146  12.0000000  12.0000000  15.9949146
 NucSpn=           0           0           0           0           0           0           0           0           0           0
 AtZEff=  -0.0000000  -0.0000000  -0.0000000  -0.0000000  -0.0000000  -0.0000000  -0.0000000  -0.0000000  -0.0000000  -0.0000000
 NQMom=    0.0000000   0.0000000   0.0000000   0.0000000   0.0000000   0.0000000   0.0000000   0.0000000   0.0000000   0.0000000
 NMagM=    0.0000000   0.0000000   0.0000000   0.0000000   0.0000000   0.0000000   0.0000000   0.0000000   0.0000000   0.0000000
 AtZNuc=   6.0000000   6.0000000   6.0000000   6.0000000   6.0000000   6.0000000   8.0000000   6.0000000   6.0000000   8.0000000

  Atom        61          62          63          64          65          66          67          68          69          70
 IAtWgt=          12          12          16          12          12          16          12          12          12          19
 AtmWgt=  12.0000000  12.0000000  15.9949146  12.0000000  12.0000000  15.9949146  12.0000000  12.0000000  12.0000000  18.9984033
 NucSpn=           0           0           0           0           0           0           0           0           0           1
 AtZEff=  -0.0000000  -0.0000000  -0.0000000  -0.0000000  -0.0000000  -0.0000000  -0.0000000  -0.0000000  -0.0000000  -0.0000000
 NQMom=    0.0000000   0.0000000   0.0000000   0.0000000   0.0000000   0.0000000   0.0000000   0.0000000   0.0000000   0.0000000
 NMagM=    0.0000000   0.0000000   0.0000000   0.0000000   0.0000000   0.0000000   0.0000000   0.0000000   0.0000000   2.6288670
 AtZNuc=   6.0000000   6.0000000   8.0000000   6.0000000   6.0000000   8.0000000   6.0000000   6.0000000   6.0000000   9.0000000

  Atom        71          72          73          74          75          76          77          78          79          80
 IAtWgt=          19           1           1           1           1           1           1           1           1           1
 AtmWgt=  18.9984033   1.0078250   1.0078250   1.0078250   1.0078250   1.0078250   1.0078250   1.0078250   1.0078250   1.0078250
 NucSpn=           1           1           1           1           1           1           1           1           1           1
 AtZEff=  -0.0000000  -0.0000000  -0.0000000  -0.0000000  -0.0000000  -0.0000000  -0.0000000  -0.0000000  -0.0000000  -0.0000000
 NQMom=    0.0000000   0.0000000   0.0000000   0.0000000   0.0000000   0.0000000   0.0000000   0.0000000   0.0000000   0.0000000
 NMagM=    2.6288670   2.7928460   2.7928460   2.7928460   2.7928460   2.7928460   2.7928460   2.7928460   2.7928460   2.7928460
 AtZNuc=   9.0000000   1.0000000   1.0000000   1.0000000   1.0000000   1.0000000   1.0000000   1.0000000   1.0000000   1.0000000

  Atom        81          82          83          84          85          86          87          88          89          90
 IAtWgt=           1           1           1           1           1           1           1           1           1           1
 AtmWgt=   1.0078250   1.0078250   1.0078250   1.0078250   1.0078250   1.0078250   1.0078250   1.0078250   1.0078250   1.0078250
 NucSpn=           1           1           1           1           1           1           1           1           1           1
 AtZEff=  -0.0000000  -0.0000000  -0.0000000  -0.0000000  -0.0000000  -0.0000000  -0.0000000  -0.0000000  -0.0000000  -0.0000000
 NQMom=    0.0000000   0.0000000   0.0000000   0.0000000   0.0000000   0.0000000   0.0000000   0.0000000   0.0000000   0.0000000
 NMagM=    2.7928460   2.7928460   2.7928460   2.7928460   2.7928460   2.7928460   2.7928460   2.7928460   2.7928460   2.7928460
 AtZNuc=   1.0000000   1.0000000   1.0000000   1.0000000   1.0000000   1.0000000   1.0000000   1.0000000   1.0000000   1.0000000

  Atom        91          92          93          94          95          96          97          98          99         100
 IAtWgt=           1           1           1           1           1           1           1           1           1           1
 AtmWgt=   1.0078250   1.0078250   1.0078250   1.0078250   1.0078250   1.0078250   1.0078250   1.0078250   1.0078250   1.0078250
 NucSpn=           1           1           1           1           1           1           1           1           1           1
 AtZEff=  -0.0000000  -0.0000000  -0.0000000  -0.0000000  -0.0000000  -0.0000000  -0.0000000  -0.0000000  -0.0000000  -0.0000000
 NQMom=    0.0000000   0.0000000   0.0000000   0.0000000   0.0000000   0.0000000   0.0000000   0.0000000   0.0000000   0.0000000
 NMagM=    2.7928460   2.7928460   2.7928460   2.7928460   2.7928460   2.7928460   2.7928460   2.7928460   2.7928460   2.7928460
 AtZNuc=   1.0000000   1.0000000   1.0000000   1.0000000   1.0000000   1.0000000   1.0000000   1.0000000   1.0000000   1.0000000

  Atom       101         102         103         104         105         106         107         108         109         110
 IAtWgt=           1           1           1           1           1           1           1           1           1           1
 AtmWgt=   1.0078250   1.0078250   1.0078250   1.0078250   1.0078250   1.0078250   1.0078250   1.0078250   1.0078250   1.0078250
 NucSpn=           1           1           1           1           1           1           1           1           1           1
 AtZEff=  -0.0000000  -0.0000000  -0.0000000  -0.0000000  -0.0000000  -0.0000000  -0.0000000  -0.0000000  -0.0000000  -0.0000000
 NQMom=    0.0000000   0.0000000   0.0000000   0.0000000   0.0000000   0.0000000   0.0000000   0.0000000   0.0000000   0.0000000
 NMagM=    2.7928460   2.7928460   2.7928460   2.7928460   2.7928460   2.7928460   2.7928460   2.7928460   2.7928460   2.7928460
 AtZNuc=   1.0000000   1.0000000   1.0000000   1.0000000   1.0000000   1.0000000   1.0000000   1.0000000   1.0000000   1.0000000

  Atom       111         112         113         114         115         116         117         118         119         120
 IAtWgt=           1           1           1           1           1           1           1           1           1           1
 AtmWgt=   1.0078250   1.0078250   1.0078250   1.0078250   1.0078250   1.0078250   1.0078250   1.0078250   1.0078250   1.0078250
 NucSpn=           1           1           1           1           1           1           1           1           1           1
 AtZEff=  -0.0000000  -0.0000000  -0.0000000  -0.0000000  -0.0000000  -0.0000000  -0.0000000  -0.0000000  -0.0000000  -0.0000000
 NQMom=    0.0000000   0.0000000   0.0000000   0.0000000   0.0000000   0.0000000   0.0000000   0.0000000   0.0000000   0.0000000
 NMagM=    2.7928460   2.7928460   2.7928460   2.7928460   2.7928460   2.7928460   2.7928460   2.7928460   2.7928460   2.7928460
 AtZNuc=   1.0000000   1.0000000   1.0000000   1.0000000   1.0000000   1.0000000   1.0000000   1.0000000   1.0000000   1.0000000

  Atom       121         122         123         124
 IAtWgt=           1           1           1           1
 AtmWgt=   1.0078250   1.0078250   1.0078250   1.0078250
 NucSpn=           1           1           1           1
 AtZEff=  -0.0000000  -0.0000000  -0.0000000  -0.0000000
 NQMom=    0.0000000   0.0000000   0.0000000   0.0000000
 NMagM=    2.7928460   2.7928460   2.7928460   2.7928460
 AtZNuc=   1.0000000   1.0000000   1.0000000   1.0000000
 Leave Link  101 at Thu Nov  6 18:29:48 2025, MaxMem= 30870077440 cpu:               4.6 elap:               0.1
 (Enter /public/software/gauss/g16/l202.exe)
 Stoichiometry    C49H53BF2I2N4O13
 Framework group  C1[X(C49H53BF2I2N4O13)]
 Deg. of freedom   366
 Full point group                 C1      NOp   1
 Largest Abelian subgroup         C1      NOp   1
 Largest concise Abelian subgroup C1      NOp   1
                         Standard orientation:                         
 ---------------------------------------------------------------------
 Center     Atomic      Atomic             Coordinates (Angstroms)
 Number     Number       Type             X           Y           Z
 ---------------------------------------------------------------------
      1          5           0        1.909992    0.445812    0.084028
      2          7           0        2.653109   -0.894908   -0.162638
      3          6           0        2.087258   -2.132108   -0.058059
      4          6           0        3.130177   -3.093937   -0.237634
      5          6           0        4.335356   -2.429003   -0.442332
      6          6           0        4.022570   -1.027514   -0.384119
      7          6           0        4.830878    0.114220   -0.521312
      8          6           0        6.329110   -0.080748   -0.679385
      9          8           0        6.823216   -0.350445   -1.759230
     10          6           0        7.152921    0.070942    0.600975
     11          6           0        8.432686   -0.728607    0.620786
     12          6           0        9.504035   -0.582069   -0.282106
     13          7           0        9.537457    0.494900   -1.277273
     14          8           0        9.066126    1.588386   -0.963888
     15          8           0       10.073494    0.261358   -2.360528
     16          6           0       10.619463   -1.412244   -0.270766
     17          6           0       10.684647   -2.401515    0.700486
     18          6           0        9.666647   -2.584012    1.633283
     19          6           0        8.552773   -1.754424    1.571577
     20          7           0       11.860405   -3.270317    0.738811
     21          8           0       12.750032   -3.084506   -0.094349
     22          8           0       11.903938   -4.148123    1.603400
     23          6           0        4.283563    1.409669   -0.457485
     24          7           0        2.943346    1.583989   -0.118655
     25          6           0        2.644600    2.916695   -0.107944
     26          6           0        3.832076    3.619220   -0.472454
     27          6           0        4.855911    2.701990   -0.696838
     28          6           0        6.248389    3.038554   -1.123274
     29         53           0        4.114307    5.690306   -0.524308
     30          6           0        1.331059    3.360691    0.293355
     31          6           0        0.744735    4.539989   -0.033590
     32          6           0       -0.576126    4.994557    0.380834
     33          6           0       -1.050781    6.230627   -0.111152
     34          6           0       -2.296095    6.723685    0.245861
     35          6           0       -3.119516    5.993321    1.118222
     36          8           0       -4.315143    6.580128    1.423696
     37          6           0       -5.257337    5.910453    2.281159
     38          6           0       -6.088654    4.874572    1.535677
     39          8           0       -6.818993    5.443442    0.448790
     40          6           0       -8.060677    6.056376    0.806729
     41          6           0       -9.196633    5.052391    0.978005
     42          8           0       -9.368812    4.154343   -0.122274
     43          6           0       -9.688703    4.725105   -1.392232
     44          6           0      -11.070399    5.350132   -1.495133
     45          8           0      -11.073305    6.652220   -0.915401
     46          6           0      -12.345125    7.278671   -1.012260
     47          6           0       -2.672456    4.759181    1.619144
     48          6           0       -1.420310    4.277259    1.252409
     49          6           0        5.660403   -3.066244   -0.717502
     50         53           0        2.899088   -5.169947   -0.361754
     51          6           0        0.664995   -2.264049    0.142113
     52          6           0        0.022800   -3.324555    0.695683
     53          6           0       -1.414620   -3.451722    0.889832
     54          6           0       -2.358192   -2.499585    0.438445
     55          6           0       -3.713258   -2.680242    0.652520
     56          6           0       -4.184871   -3.821913    1.328348
     57          8           0       -5.539068   -3.877410    1.499066
     58          6           0       -6.149083   -5.034204    2.098778
     59          6           0       -6.301707   -6.186976    1.113559
     60          8           0       -7.017770   -5.838498   -0.066716
     61          6           0       -8.419401   -5.652216    0.119504
     62          6           0       -9.036223   -5.560954   -1.275281
     63          8           0      -10.417041   -5.219310   -1.240112
     64          6           0      -11.282500   -6.291971   -0.868704
     65          6           0      -12.708124   -5.830861   -1.168123
     66          8           0      -13.683782   -6.776349   -0.745192
     67          6           0      -13.852356   -7.868947   -1.644167
     68          6           0       -3.270580   -4.782470    1.781908
     69          6           0       -1.909344   -4.587096    1.559488
     70          9           0        1.392308    0.475119    1.386569
     71          9           0        0.860130    0.594445   -0.833974
     72          1           0        7.353414    1.143282    0.709705
     73          1           0        6.533498   -0.219712    1.452110
     74          1           0       11.418738   -1.275868   -0.986153
     75          1           0        9.741357   -3.361512    2.382752
     76          1           0        7.744684   -1.903320    2.279385
     77          1           0        6.715519    2.234504   -1.689778
     78          1           0        6.239657    3.929433   -1.756718
     79          1           0        6.888600    3.262579   -0.261595
     80          1           0        0.783025    2.643209    0.894415
     81          1           0        1.274559    5.228263   -0.684814
     82          1           0       -0.423446    6.807906   -0.784958
     83          1           0       -2.651938    7.675671   -0.134928
     84          1           0       -4.752776    5.450917    3.137440
     85          1           0       -5.894819    6.712937    2.660146
     86          1           0       -5.443159    4.107464    1.098213
     87          1           0       -6.751160    4.380015    2.258136
     88          1           0       -7.974610    6.637018    1.735252
     89          1           0       -8.286758    6.763718    0.004176
     90          1           0       -9.000271    4.401096    1.835565
     91          1           0      -10.117599    5.610625    1.188156
     92          1           0       -8.932358    5.455545   -1.708117
     93          1           0       -9.647558    3.884982   -2.092609
     94          1           0      -11.345070    5.416975   -2.560099
     95          1           0      -11.812150    4.704778   -0.999441
     96          1           0      -12.657725    7.391182   -2.060638
     97          1           0      -13.118697    6.707960   -0.478614
     98          1           0      -12.257389    8.269134   -0.558874
     99          1           0       -3.287400    4.171215    2.289173
    100          1           0       -1.100994    3.322505    1.658099
    101          1           0        6.040205   -2.791229   -1.705321
    102          1           0        6.414299   -2.775774    0.019824
    103          1           0        5.569813   -4.152801   -0.679860
    104          1           0        0.090386   -1.396445   -0.162241
    105          1           0        0.605760   -4.164001    1.061685
    106          1           0       -2.028716   -1.610809   -0.090209
    107          1           0       -4.435030   -1.948417    0.303889
    108          1           0       -5.589511   -5.365300    2.979778
    109          1           0       -7.124453   -4.679276    2.438183
    110          1           0       -5.320783   -6.529635    0.772512
    111          1           0       -6.791713   -7.020998    1.638128
    112          1           0       -8.840051   -6.494301    0.687017
    113          1           0       -8.635758   -4.727107    0.671373
    114          1           0       -8.535379   -4.762879   -1.832799
    115          1           0       -8.882933   -6.505491   -1.816378
    116          1           0      -11.028316   -7.194336   -1.442109
    117          1           0      -11.193196   -6.531530    0.199741
    118          1           0      -12.907698   -4.907604   -0.614055
    119          1           0      -12.812870   -5.614061   -2.240951
    120          1           0      -14.105852   -7.516998   -2.654072
    121          1           0      -12.957827   -8.501510   -1.708154
    122          1           0      -14.679402   -8.472234   -1.260955
    123          1           0       -3.599944   -5.673785    2.301342
    124          1           0       -1.207293   -5.336346    1.915234
 ---------------------------------------------------------------------
 Rotational constants (GHZ):           0.0196585           0.0088234           0.0062726
 Leave Link  202 at Thu Nov  6 18:29:48 2025, MaxMem= 30870077440 cpu:               0.2 elap:               0.0
 (Enter /public/software/gauss/g16/l301.exe)
 Standard basis: def2TZVPP (5D, 7F)
 Ernie: Thresh=  0.10000D-02 Tol=  0.10000D-05 Strict=F.
 There are  3397 symmetry adapted cartesian basis functions of A   symmetry.
 There are  2981 symmetry adapted basis functions of A   symmetry.
  2981 basis functions,  4638 primitive gaussians,  3397 cartesian basis functions
   276 alpha electrons      276 beta electrons
       nuclear repulsion energy     11098.7290815205 Hartrees.
 IExCor= 4336 DFT=T Ex+Corr=M062X ExCW=0 ScaHFX=  0.540000
 ScaDFX=  1.000000  1.000000  1.000000  1.000000 ScalE2=  1.000000  1.000000
 IRadAn=      5 IRanWt=     -1 IRanGd=            0 ICorTp=0 IEmpDi=131
 NAtoms=  124 NActive=  124 NUniq=  124 SFac= 1.00D+00 NAtFMM=   60 NAOKFM=T Big=T
 Integral buffers will be    131072 words long.
 Raffenetti 2 integral format.
 Two-electron integral symmetry is turned on.
 R6Disp:  Grimme-D3 Dispersion energy=       -0.0105780400 Hartrees.
 Nuclear repulsion after empirical dispersion term =    11098.7185034805 Hartrees.
 ------------------------------------------------------------------------------
 Polarizable Continuum Model (PCM)
 =================================
 Model                : PCM.
 Atomic radii         : UFF (Universal Force Field).
 Polarization charges : Total charges.
 Charge compensation  : None.
 Solution method      : On-the-fly selection.
 Cavity type          : Scaled VdW (van der Waals Surface) (Alpha=1.100).
 Cavity algorithm     : GePol (No added spheres)
                        Default sphere list used, NSphG=  124.
                        Lebedev-Laikov grids with approx.  5.0 points / Ang**2.
                        Smoothing algorithm: York/Karplus (Gamma=1.0000).
                        Polarization charges: spherical gaussians, with
                                              point-specific exponents (IZeta= 3).
                        Self-potential: point-specific (ISelfS= 7).
                        Self-field    : sphere-specific E.n sum rule (ISelfD= 2).
 Solvent              : Water, Eps=  78.355300 Eps(inf)=   1.777849
 ------------------------------------------------------------------------------
 GePol: Number of generator spheres                  =     124
 GePol: Total number of spheres                      =     124
 GePol: Number of exposed spheres                    =     124 (100.00%)
 GePol: Number of points                             =    8910
 GePol: Average weight of points                     =       0.13
 GePol: Minimum weight of points                     =   0.37D-10
 GePol: Maximum weight of points                     =    0.20577
 GePol: Number of points with low weight             =     583
 GePol: Fraction of low-weight points (<1% of avg)   =       6.54%
 GePol: Cavity surface area                          =   1157.416 Ang**2
 GePol: Cavity volume                                =   1345.857 Ang**3
 Leave Link  301 at Thu Nov  6 18:29:48 2025, MaxMem= 30870077440 cpu:               4.9 elap:               0.1
 (Enter /public/software/gauss/g16/l302.exe)
 NPDir=0 NMtPBC=     1 NCelOv=     1 NCel=       1 NClECP=     1 NCelD=      1
         NCelK=      1 NCelE2=     1 NClLst=     1 CellRange=     0.0.
 One-electron integrals computed using PRISM.
 One-electron integral symmetry used in STVInt
   1 Symmetry operations used in ECPInt.
 ECPInt:  NShTT=  615495 NPrTT= 1743658 LenC2=  256350 LenP2D=  477185.
 LDataN:  DoStor=T MaxTD1= 7 Len=  274
 Number of processors reduced to  33 by ecpmxn.
 NBasis=  2981 RedAO= T EigKep=  4.27D-06  NBF=  2981
 NBsUse=  2981 1.00D-06 EigRej= -1.00D+00 NBFU=  2981
 Precomputing XC quadrature grid using
 IXCGrd= 4 IRadAn=           5 IRanWt=          -1 IRanGd=           0 AccXCQ= 0.00D+00.
 Defaulting to unpruned grid for atomic number  53.
 Defaulting to unpruned grid for atomic number  53.
 Generated NRdTot=       0 NPtTot=           0 NUsed=           0 NTot=          32
 NSgBfM=  2566  2566  2566  2566  2566 MxSgAt=   124 MxSgA2=   124.
 Leave Link  302 at Thu Nov  6 18:30:22 2025, MaxMem= 30870077440 cpu:            2151.6 elap:              34.1
 (Enter /public/software/gauss/g16/l303.exe)
 DipDrv:  MaxL=1.
 Leave Link  303 at Thu Nov  6 18:30:24 2025, MaxMem= 30870077440 cpu:              60.4 elap:               1.0
 (Enter /public/software/gauss/g16/l401.exe)
 ExpMin= 6.06D-02 ExpMax= 3.55D+04 ExpMxC= 1.21D+03 IAcc=3 IRadAn=         5 AccDes= 0.00D+00
 Harris functional with IExCor= 1009 and IRadAn=       5 diagonalized for initial guess.
 HarFok:  IExCor= 1009 AccDes= 0.00D+00 IRadAn=         5 IDoV= 1 UseB2=F ITyADJ=14
 ICtDFT=  3500011 ScaDFX=  1.000000  1.000000  1.000000  1.000000
 Defaulting to unpruned grid for atomic number  53.
 FoFCou: FMM=F IPFlag=           0 FMFlag=      100000 FMFlg1=        2001
         NFxFlg=           0 DoJE=T BraDBF=F KetDBF=T FulRan=T
         wScrn=  0.000000 ICntrl=       500 IOpCl=  0 I1Cent=   200000004 NGrid=           0
         NMat0=    1 NMatS0=      1 NMatT0=    0 NMatD0=    1 NMtDS0=    0 NMtDT0=    0
 Petite list used in FoFCou.
 Harris En= -3914.62461986489    
 JPrj=0 DoOrth=F DoCkMO=F.
 Leave Link  401 at Thu Nov  6 18:30:49 2025, MaxMem= 30870077440 cpu:            1639.3 elap:              25.7
 (Enter /public/software/gauss/g16/l502.exe)
 Integral symmetry usage will be decided dynamically.
 Closed shell SCF:
 Using DIIS extrapolation, IDIIS=  1040.
 NGot= 30870077440 LenX= 30846752326 LenY= 30835209320
 Requested convergence on RMS density matrix=1.00D-08 within 128 cycles.
 Requested convergence on MAX density matrix=1.00D-06.
 Requested convergence on             energy=1.00D-06.
 No special actions if energy rises.
 Fock matrices will be formed incrementally for  20 cycles.

 Cycle   1  Pass 1  IDiag  1:
 FoFJK:  IHMeth= 1 ICntrl=       0 DoSepK=F KAlg= 0 I1Cent=           0 FoldK=F
 IRaf= 370000000 NMat=       1 IRICut=       1 DoRegI=T DoRafI=F ISym2E= 0 IDoP0=0 IntGTp=1.
 FoFCou: FMM=T IPFlag=           0 FMFlag=      100000 FMFlg1=        2001
         NFxFlg=           0 DoJE=F BraDBF=F KetDBF=F FulRan=T
         wScrn=  0.000000 ICntrl=         0 IOpCl=  0 I1Cent=           0 NGrid=           0
         NMat0=    1 NMatS0=      1 NMatT0=    0 NMatD0=    1 NMtDS0=    0 NMtDT0=    0
 Symmetry not used in FoFCou.
 FMM levels:  10  Number of levels for PrismC:   9
 Defaulting to unpruned grid for atomic number  53.
 Defaulting to unpruned grid for atomic number  53.
 Defaulting to unpruned grid for atomic number  53.
 Defaulting to unpruned grid for atomic number  53.
 Defaulting to unpruned grid for atomic number  53.
 Defaulting to unpruned grid for atomic number  53.
 Defaulting to unpruned grid for atomic number  53.
 Defaulting to unpruned grid for atomic number  53.
 Defaulting to unpruned grid for atomic number  53.
 Defaulting to unpruned grid for atomic number  53.
 Defaulting to unpruned grid for atomic number  53.
 Defaulting to unpruned grid for atomic number  53.
 Defaulting to unpruned grid for atomic number  53.
 Defaulting to unpruned grid for atomic number  53.
 Defaulting to unpruned grid for atomic number  53.
 Defaulting to unpruned grid for atomic number  53.
 Defaulting to unpruned grid for atomic number  53.
 Defaulting to unpruned grid for atomic number  53.
 Defaulting to unpruned grid for atomic number  53.
 Defaulting to unpruned grid for atomic number  53.
 Defaulting to unpruned grid for atomic number  53.
 Defaulting to unpruned grid for atomic number  53.
 Defaulting to unpruned grid for atomic number  53.
 Defaulting to unpruned grid for atomic number  53.
 Defaulting to unpruned grid for atomic number  53.
 Defaulting to unpruned grid for atomic number  53.
 Defaulting to unpruned grid for atomic number  53.
 Defaulting to unpruned grid for atomic number  53.
 Defaulting to unpruned grid for atomic number  53.
 Defaulting to unpruned grid for atomic number  53.
 Defaulting to unpruned grid for atomic number  53.
 Defaulting to unpruned grid for atomic number  53.
 Defaulting to unpruned grid for atomic number  53.
 Defaulting to unpruned grid for atomic number  53.
 Defaulting to unpruned grid for atomic number  53.
 Defaulting to unpruned grid for atomic number  53.
 Defaulting to unpruned grid for atomic number  53.
 Defaulting to unpruned grid for atomic number  53.
 Defaulting to unpruned grid for atomic number  53.
 Defaulting to unpruned grid for atomic number  53.
 Defaulting to unpruned grid for atomic number  53.
 Defaulting to unpruned grid for atomic number  53.
 Defaulting to unpruned grid for atomic number  53.
 Defaulting to unpruned grid for atomic number  53.
 Defaulting to unpruned grid for atomic number  53.
 Defaulting to unpruned grid for atomic number  53.
 Defaulting to unpruned grid for atomic number  53.
 Defaulting to unpruned grid for atomic number  53.
 Defaulting to unpruned grid for atomic number  53.
 Defaulting to unpruned grid for atomic number  53.
 Defaulting to unpruned grid for atomic number  53.
 Defaulting to unpruned grid for atomic number  53.
 Defaulting to unpruned grid for atomic number  53.
 Defaulting to unpruned grid for atomic number  53.
 Defaulting to unpruned grid for atomic number  53.
 Defaulting to unpruned grid for atomic number  53.
 Defaulting to unpruned grid for atomic number  53.
 Defaulting to unpruned grid for atomic number  53.
 Defaulting to unpruned grid for atomic number  53.
 Defaulting to unpruned grid for atomic number  53.
 Defaulting to unpruned grid for atomic number  53.
 Defaulting to unpruned grid for atomic number  53.
 Defaulting to unpruned grid for atomic number  53.
 Defaulting to unpruned grid for atomic number  53.
 Inv3:  Mode=1 IEnd=   238164300.
 Iteration    1 A*A^-1 deviation from unit magnitude is 8.10D-15 for   8904.
 Iteration    1 A*A^-1 deviation from orthogonality  is 3.72D-15 for   6644   2676.
 Iteration    1 A^-1*A deviation from unit magnitude is 8.10D-15 for   8904.
 Iteration    1 A^-1*A deviation from orthogonality  is 7.12D-13 for   5770   5746.
 E= -3914.06701993145    
 DIIS: error= 1.78D-02 at cycle   1 NSaved=   1.
 NSaved= 1 IEnMin= 1 EnMin= -3914.06701993145     IErMin= 1 ErrMin= 1.78D-02
 ErrMax= 1.78D-02  0.00D+00 EMaxC= 1.00D-01 BMatC= 2.28D+00 BMatP= 2.28D+00
 IDIUse=3 WtCom= 8.22D-01 WtEn= 1.78D-01
 Coeff-Com:  0.100D+01
 Coeff-En:   0.100D+01
 Coeff:      0.100D+01
 Gap=     0.247 Goal=   None    Shift=    0.000
 GapD=    0.247 DampG=1.000 DampE=0.500 DampFc=0.5000 IDamp=-1.
 Damping current iteration by 5.00D-01
 RMSDP=1.60D-03 MaxDP=5.94D-01              OVMax= 2.59D-01

 Cycle   2  Pass 1  IDiag  1:
 RMSU=  7.97D-04    CP:  1.02D+00
 E= -3914.86951430492     Delta-E=       -0.802494373467 Rises=F Damp=T
 DIIS: error= 6.10D-03 at cycle   2 NSaved=   2.
 NSaved= 2 IEnMin= 2 EnMin= -3914.86951430492     IErMin= 2 ErrMin= 6.10D-03
 ErrMax= 6.10D-03  0.00D+00 EMaxC= 1.00D-01 BMatC= 2.33D-01 BMatP= 2.28D+00
 IDIUse=3 WtCom= 9.39D-01 WtEn= 6.10D-02
 Coeff-Com: -0.609D-01 0.106D+01
 Coeff-En:   0.000D+00 0.100D+01
 Coeff:     -0.571D-01 0.106D+01
 Gap=     0.178 Goal=   None    Shift=    0.000
 RMSDP=5.40D-04 MaxDP=1.44D-01 DE=-8.02D-01 OVMax= 1.86D-01

 Cycle   3  Pass 1  IDiag  1:
 RMSU=  5.34D-04    CP:  9.98D-01  1.05D+00
 E= -3915.63226996348     Delta-E=       -0.762755658567 Rises=F Damp=F
 DIIS: error= 8.28D-03 at cycle   3 NSaved=   3.
 NSaved= 3 IEnMin= 3 EnMin= -3915.63226996348     IErMin= 2 ErrMin= 6.10D-03
 ErrMax= 8.28D-03  0.00D+00 EMaxC= 1.00D-01 BMatC= 1.28D-01 BMatP= 2.33D-01
 IDIUse=3 WtCom= 9.17D-01 WtEn= 8.28D-02
 Coeff-Com: -0.114D+00 0.478D+00 0.637D+00
 Coeff-En:   0.000D+00 0.000D+00 0.100D+01
 Coeff:     -0.105D+00 0.438D+00 0.667D+00
 Gap=     0.124 Goal=   None    Shift=    0.000
 RMSDP=1.81D-04 MaxDP=4.51D-02 DE=-7.63D-01 OVMax= 7.14D-02

 Cycle   4  Pass 1  IDiag  1:
 RMSU=  1.68D-04    CP:  1.00D+00  1.12D+00  9.29D-01
 E= -3915.70923642166     Delta-E=       -0.076966458177 Rises=F Damp=F
 DIIS: error= 2.77D-03 at cycle   4 NSaved=   4.
 NSaved= 4 IEnMin= 4 EnMin= -3915.70923642166     IErMin= 4 ErrMin= 2.77D-03
 ErrMax= 2.77D-03  0.00D+00 EMaxC= 1.00D-01 BMatC= 2.25D-02 BMatP= 1.28D-01
 IDIUse=3 WtCom= 9.72D-01 WtEn= 2.77D-02
 Coeff-Com: -0.361D-01 0.897D-01 0.339D+00 0.607D+00
 Coeff-En:   0.000D+00 0.000D+00 0.141D+00 0.859D+00
 Coeff:     -0.351D-01 0.872D-01 0.334D+00 0.614D+00
 Gap=     0.130 Goal=   None    Shift=    0.000
 RMSDP=7.05D-05 MaxDP=1.86D-02 DE=-7.70D-02 OVMax= 2.31D-02

 Cycle   5  Pass 1  IDiag  1:
 RMSU=  4.26D-05    CP:  9.99D-01  1.10D+00  9.57D-01  6.92D-01
 E= -3915.72630515258     Delta-E=       -0.017068730922 Rises=F Damp=F
 DIIS: error= 2.06D-04 at cycle   5 NSaved=   5.
 NSaved= 5 IEnMin= 5 EnMin= -3915.72630515258     IErMin= 5 ErrMin= 2.06D-04
 ErrMax= 2.06D-04  0.00D+00 EMaxC= 1.00D-01 BMatC= 8.86D-04 BMatP= 2.25D-02
 IDIUse=3 WtCom= 9.98D-01 WtEn= 2.06D-03
 Coeff-Com: -0.116D-01 0.219D-01 0.132D+00 0.290D+00 0.568D+00
 Coeff-En:   0.000D+00 0.000D+00 0.000D+00 0.000D+00 0.100D+01
 Coeff:     -0.116D-01 0.218D-01 0.132D+00 0.289D+00 0.569D+00
 Gap=     0.129 Goal=   None    Shift=    0.000
 RMSDP=2.03D-05 MaxDP=7.23D-03 DE=-1.71D-02 OVMax= 7.51D-03

 Cycle   6  Pass 1  IDiag  1:
 RMSU=  1.64D-05    CP:  9.99D-01  1.11D+00  9.57D-01  7.39D-01  9.17D-01
 E= -3915.72699430027     Delta-E=       -0.000689147686 Rises=F Damp=F
 DIIS: error= 1.22D-04 at cycle   6 NSaved=   6.
 NSaved= 6 IEnMin= 6 EnMin= -3915.72699430027     IErMin= 6 ErrMin= 1.22D-04
 ErrMax= 1.22D-04  0.00D+00 EMaxC= 1.00D-01 BMatC= 1.41D-04 BMatP= 8.86D-04
 IDIUse=3 WtCom= 9.99D-01 WtEn= 1.22D-03
 Coeff-Com: -0.989D-03-0.102D-02 0.238D-01 0.692D-01 0.305D+00 0.604D+00
 Coeff-En:   0.000D+00 0.000D+00 0.000D+00 0.000D+00 0.701D-01 0.930D+00
 Coeff:     -0.988D-03-0.102D-02 0.237D-01 0.691D-01 0.305D+00 0.604D+00
 Gap=     0.130 Goal=   None    Shift=    0.000
 RMSDP=6.85D-06 MaxDP=1.64D-03 DE=-6.89D-04 OVMax= 3.92D-03

 Cycle   7  Pass 1  IDiag  1:
 RMSU=  5.34D-06    CP:  9.99D-01  1.11D+00  9.61D-01  7.39D-01  9.99D-01
                    CP:  9.47D-01
 E= -3915.72712733003     Delta-E=       -0.000133029765 Rises=F Damp=F
 DIIS: error= 4.06D-05 at cycle   7 NSaved=   7.
 NSaved= 7 IEnMin= 7 EnMin= -3915.72712733003     IErMin= 7 ErrMin= 4.06D-05
 ErrMax= 4.06D-05  0.00D+00 EMaxC= 1.00D-01 BMatC= 1.23D-05 BMatP= 1.41D-04
 IDIUse=1 WtCom= 1.00D+00 WtEn= 0.00D+00
 Coeff-Com:  0.130D-02-0.364D-02-0.851D-02-0.123D-01 0.456D-01 0.250D+00
 Coeff-Com:  0.728D+00
 Coeff:      0.130D-02-0.364D-02-0.851D-02-0.123D-01 0.456D-01 0.250D+00
 Coeff:      0.728D+00
 Gap=     0.131 Goal=   None    Shift=    0.000
 RMSDP=3.34D-06 MaxDP=5.70D-04 DE=-1.33D-04 OVMax= 1.61D-03

 Cycle   8  Pass 1  IDiag  1:
 RMSU=  2.29D-06    CP:  9.99D-01  1.11D+00  9.62D-01  7.45D-01  1.03D+00
                    CP:  1.04D+00  1.03D+00
 E= -3915.72714223218     Delta-E=       -0.000014902143 Rises=F Damp=F
 DIIS: error= 1.75D-05 at cycle   8 NSaved=   8.
 NSaved= 8 IEnMin= 8 EnMin= -3915.72714223218     IErMin= 8 ErrMin= 1.75D-05
 ErrMax= 1.75D-05  0.00D+00 EMaxC= 1.00D-01 BMatC= 2.23D-06 BMatP= 1.23D-05
 IDIUse=1 WtCom= 1.00D+00 WtEn= 0.00D+00
 Coeff-Com:  0.775D-03-0.155D-02-0.763D-02-0.170D-01-0.297D-01 0.159D-01
 Coeff-Com:  0.334D+00 0.705D+00
 Coeff:      0.775D-03-0.155D-02-0.763D-02-0.170D-01-0.297D-01 0.159D-01
 Coeff:      0.334D+00 0.705D+00
 Gap=     0.131 Goal=   None    Shift=    0.000
 RMSDP=1.56D-06 MaxDP=3.32D-04 DE=-1.49D-05 OVMax= 8.35D-04

 Cycle   9  Pass 1  IDiag  1:
 RMSU=  9.91D-07    CP:  9.99D-01  1.11D+00  9.62D-01  7.46D-01  1.04D+00
                    CP:  1.08D+00  1.16D+00  1.11D+00
 E= -3915.72714525509     Delta-E=       -0.000003022908 Rises=F Damp=F
 DIIS: error= 1.13D-05 at cycle   9 NSaved=   9.
 NSaved= 9 IEnMin= 9 EnMin= -3915.72714525509     IErMin= 9 ErrMin= 1.13D-05
 ErrMax= 1.13D-05  0.00D+00 EMaxC= 1.00D-01 BMatC= 3.22D-07 BMatP= 2.23D-06
 IDIUse=1 WtCom= 1.00D+00 WtEn= 0.00D+00
 Coeff-Com:  0.204D-03-0.311D-03-0.240D-02-0.630D-02-0.188D-01-0.188D-01
 Coeff-Com:  0.682D-01 0.315D+00 0.663D+00
 Coeff:      0.204D-03-0.311D-03-0.240D-02-0.630D-02-0.188D-01-0.188D-01
 Coeff:      0.682D-01 0.315D+00 0.663D+00
 Gap=     0.131 Goal=   None    Shift=    0.000
 RMSDP=5.22D-07 MaxDP=1.31D-04 DE=-3.02D-06 OVMax= 3.86D-04

 Cycle  10  Pass 1  IDiag  1:
 RMSU=  3.66D-07    CP:  9.99D-01  1.11D+00  9.63D-01  7.47D-01  1.04D+00
                    CP:  1.09D+00  1.18D+00  1.24D+00  1.02D+00
 E= -3915.72714565516     Delta-E=       -0.000000400072 Rises=F Damp=F
 DIIS: error= 7.47D-06 at cycle  10 NSaved=  10.
 NSaved=10 IEnMin=10 EnMin= -3915.72714565516     IErMin=10 ErrMin= 7.47D-06
 ErrMax= 7.47D-06  0.00D+00 EMaxC= 1.00D-01 BMatC= 9.99D-08 BMatP= 3.22D-07
 IDIUse=1 WtCom= 1.00D+00 WtEn= 0.00D+00
 Coeff-Com: -0.749D-04 0.206D-03 0.558D-03 0.668D-03-0.348D-02-0.135D-01
 Coeff-Com: -0.456D-01-0.145D-02 0.386D+00 0.677D+00
 Coeff:     -0.749D-04 0.206D-03 0.558D-03 0.668D-03-0.348D-02-0.135D-01
 Coeff:     -0.456D-01-0.145D-02 0.386D+00 0.677D+00
 Gap=     0.131 Goal=   None    Shift=    0.000
 RMSDP=3.05D-07 MaxDP=4.76D-05 DE=-4.00D-07 OVMax= 2.17D-04

 Cycle  11  Pass 1  IDiag  1:
 RMSU=  1.65D-07    CP:  9.99D-01  1.11D+00  9.63D-01  7.47D-01  1.04D+00
                    CP:  1.09D+00  1.20D+00  1.30D+00  1.19D+00  9.66D-01
 E= -3915.72714577831     Delta-E=       -0.000000123149 Rises=F Damp=F
 DIIS: error= 2.14D-06 at cycle  11 NSaved=  11.
 NSaved=11 IEnMin=11 EnMin= -3915.72714577831     IErMin=11 ErrMin= 2.14D-06
 ErrMax= 2.14D-06  0.00D+00 EMaxC= 1.00D-01 BMatC= 1.18D-08 BMatP= 9.99D-08
 IDIUse=1 WtCom= 1.00D+00 WtEn= 0.00D+00
 Coeff-Com: -0.605D-04 0.134D-03 0.594D-03 0.124D-02 0.971D-03-0.291D-02
 Coeff-Com: -0.304D-01-0.489D-01 0.846D-01 0.324D+00 0.671D+00
 Coeff:     -0.605D-04 0.134D-03 0.594D-03 0.124D-02 0.971D-03-0.291D-02
 Coeff:     -0.304D-01-0.489D-01 0.846D-01 0.324D+00 0.671D+00
 Gap=     0.131 Goal=   None    Shift=    0.000
 RMSDP=1.13D-07 MaxDP=2.82D-05 DE=-1.23D-07 OVMax= 7.56D-05

 Cycle  12  Pass 1  IDiag  1:
 RMSU=  5.83D-08    CP:  9.99D-01  1.11D+00  9.63D-01  7.47D-01  1.04D+00
                    CP:  1.09D+00  1.20D+00  1.33D+00  1.23D+00  1.09D+00
                    CP:  1.02D+00
 E= -3915.72714579536     Delta-E=       -0.000000017057 Rises=F Damp=F
 DIIS: error= 5.12D-07 at cycle  12 NSaved=  12.
 NSaved=12 IEnMin=12 EnMin= -3915.72714579536     IErMin=12 ErrMin= 5.12D-07
 ErrMax= 5.12D-07  0.00D+00 EMaxC= 1.00D-01 BMatC= 1.51D-09 BMatP= 1.18D-08
 IDIUse=1 WtCom= 1.00D+00 WtEn= 0.00D+00
 Coeff-Com: -0.163D-04 0.305D-04 0.189D-03 0.483D-03 0.848D-03 0.703D-03
 Coeff-Com: -0.743D-02-0.227D-01-0.178D-01 0.437D-01 0.292D+00 0.710D+00
 Coeff:     -0.163D-04 0.305D-04 0.189D-03 0.483D-03 0.848D-03 0.703D-03
 Coeff:     -0.743D-02-0.227D-01-0.178D-01 0.437D-01 0.292D+00 0.710D+00
 Gap=     0.131 Goal=   None    Shift=    0.000
 RMSDP=3.80D-08 MaxDP=7.85D-06 DE=-1.71D-08 OVMax= 3.06D-05

 Cycle  13  Pass 1  IDiag  1:
 RMSU=  2.35D-08    CP:  9.99D-01  1.11D+00  9.63D-01  7.47D-01  1.04D+00
                    CP:  1.09D+00  1.20D+00  1.33D+00  1.25D+00  1.13D+00
                    CP:  1.11D+00  1.13D+00
 E= -3915.72714579777     Delta-E=       -0.000000002408 Rises=F Damp=F
 DIIS: error= 2.22D-07 at cycle  13 NSaved=  13.
 NSaved=13 IEnMin=13 EnMin= -3915.72714579777     IErMin=13 ErrMin= 2.22D-07
 ErrMax= 2.22D-07  0.00D+00 EMaxC= 1.00D-01 BMatC= 1.87D-10 BMatP= 1.51D-09
 IDIUse=1 WtCom= 1.00D+00 WtEn= 0.00D+00
 Coeff-Com:  0.227D-05-0.698D-05-0.135D-04 0.146D-04 0.152D-03 0.750D-03
 Coeff-Com:  0.141D-02-0.180D-02-0.181D-01-0.306D-01 0.151D-01 0.265D+00
 Coeff-Com:  0.768D+00
 Coeff:      0.227D-05-0.698D-05-0.135D-04 0.146D-04 0.152D-03 0.750D-03
 Coeff:      0.141D-02-0.180D-02-0.181D-01-0.306D-01 0.151D-01 0.265D+00
 Coeff:      0.768D+00
 Gap=     0.131 Goal=   None    Shift=    0.000
 RMSDP=1.67D-08 MaxDP=3.25D-06 DE=-2.41D-09 OVMax= 1.16D-05

 Cycle  14  Pass 1  IDiag  1:
 RMSU=  8.04D-09    CP:  9.99D-01  1.11D+00  9.63D-01  7.47D-01  1.04D+00
                    CP:  1.09D+00  1.20D+00  1.33D+00  1.26D+00  1.14D+00
                    CP:  1.15D+00  1.27D+00  1.10D+00
 E= -3915.72714579741     Delta-E=        0.000000000364 Rises=F Damp=F
 DIIS: error= 8.48D-08 at cycle  14 NSaved=  14.
 NSaved=14 IEnMin=13 EnMin= -3915.72714579777     IErMin=14 ErrMin= 8.48D-08
 ErrMax= 8.48D-08  0.00D+00 EMaxC= 1.00D-01 BMatC= 4.59D-11 BMatP= 1.87D-10
 IDIUse=1 WtCom= 1.00D+00 WtEn= 0.00D+00
 Coeff-Com:  0.340D-05-0.757D-05-0.360D-04-0.659D-04-0.698D-04 0.265D-03
 Coeff-Com:  0.185D-02 0.274D-02-0.513D-02-0.208D-01-0.382D-01 0.608D-02
 Coeff-Com:  0.363D+00 0.690D+00
 Coeff:      0.340D-05-0.757D-05-0.360D-04-0.659D-04-0.698D-04 0.265D-03
 Coeff:      0.185D-02 0.274D-02-0.513D-02-0.208D-01-0.382D-01 0.608D-02
 Coeff:      0.363D+00 0.690D+00
 Gap=     0.131 Goal=   None    Shift=    0.000
 RMSDP=6.09D-09 MaxDP=2.70D-06 DE= 3.64D-10 OVMax= 3.65D-06

 Cycle  15  Pass 1  IDiag  1:
 RMSU=  3.69D-09    CP:  9.99D-01  1.11D+00  9.63D-01  7.47D-01  1.04D+00
                    CP:  1.09D+00  1.20D+00  1.33D+00  1.26D+00  1.14D+00
                    CP:  1.16D+00  1.31D+00  1.23D+00  1.11D+00
 E= -3915.72714579769     Delta-E=       -0.000000000286 Rises=F Damp=F
 DIIS: error= 4.14D-08 at cycle  15 NSaved=  15.
 NSaved=15 IEnMin=13 EnMin= -3915.72714579777     IErMin=15 ErrMin= 4.14D-08
 ErrMax= 4.14D-08  0.00D+00 EMaxC= 1.00D-01 BMatC= 8.13D-12 BMatP= 4.59D-11
 IDIUse=1 WtCom= 1.00D+00 WtEn= 0.00D+00
 Coeff-Com:  0.809D-06-0.156D-05-0.119D-04-0.274D-04-0.596D-04-0.237D-04
 Coeff-Com:  0.492D-03 0.143D-02 0.141D-02-0.300D-02-0.198D-01-0.521D-01
 Coeff-Com:  0.140D-01 0.310D+00 0.748D+00
 Coeff:      0.809D-06-0.156D-05-0.119D-04-0.274D-04-0.596D-04-0.237D-04
 Coeff:      0.492D-03 0.143D-02 0.141D-02-0.300D-02-0.198D-01-0.521D-01
 Coeff:      0.140D-01 0.310D+00 0.748D+00
 Gap=     0.131 Goal=   None    Shift=    0.000
 RMSDP=3.22D-09 MaxDP=4.53D-07 DE=-2.86D-10 OVMax= 2.15D-06

 Error on total polarization charges =  0.03259
 SCF Done:  E(RM062X) =  -3915.72714580     A.U. after   15 cycles
            NFock= 15  Conv=0.32D-08     -V/T= 2.1093
 KE= 3.529795650731D+03 PE=-3.121414277399D+04 EE= 1.266990147398D+04
 Leave Link  502 at Thu Nov  6 19:02:34 2025, MaxMem= 30870077440 cpu:          119275.9 elap:            1904.6
 (Enter /public/software/gauss/g16/l601.exe)
 Copying SCF densities to generalized density rwf, IOpCl= 0 IROHF=0.
 Hyperfine terms turned off by default for NAtoms > 100.

 **********************************************************************

            Population analysis using the SCF density.

 **********************************************************************

 Orbital symmetries:
       Occupied  (A) (A) (A) (A) (A) (A) (A) (A) (A) (A) (A) (A)
                 (A) (A) (A) (A) (A) (A) (A) (A) (A) (A) (A) (A)
                 (A) (A) (A) (A) (A) (A) (A) (A) (A) (A) (A) (A)
                 (A) (A) (A) (A) (A) (A) (A) (A) (A) (A) (A) (A)
                 (A) (A) (A) (A) (A) (A) (A) (A) (A) (A) (A) (A)
                 (A) (A) (A) (A) (A) (A) (A) (A) (A) (A) (A) (A)
                 (A) (A) (A) (A) (A) (A) (A) (A) (A) (A) (A) (A)
                 (A) (A) (A) (A) (A) (A) (A) (A) (A) (A) (A) (A)
                 (A) (A) (A) (A) (A) (A) (A) (A) (A) (A) (A) (A)
                 (A) (A) (A) (A) (A) (A) (A) (A) (A) (A) (A) (A)
                 (A) (A) (A) (A) (A) (A) (A) (A) (A) (A) (A) (A)
                 (A) (A) (A) (A) (A) (A) (A) (A) (A) (A) (A) (A)
                 (A) (A) (A) (A) (A) (A) (A) (A) (A) (A) (A) (A)
                 (A) (A) (A) (A) (A) (A) (A) (A) (A) (A) (A) (A)
                 (A) (A) (A) (A) (A) (A) (A) (A) (A) (A) (A) (A)
                 (A) (A) (A) (A) (A) (A) (A) (A) (A) (A) (A) (A)
                 (A) (A) (A) (A) (A) (A) (A) (A) (A) (A) (A) (A)
                 (A) (A) (A) (A) (A) (A) (A) (A) (A) (A) (A) (A)
                 (A) (A) (A) (A) (A) (A) (A) (A) (A) (A) (A) (A)
                 (A) (A) (A) (A) (A) (A) (A) (A) (A) (A) (A) (A)
                 (A) (A) (A) (A) (A) (A) (A) (A) (A) (A) (A) (A)
                 (A) (A) (A) (A) (A) (A) (A) (A) (A) (A) (A) (A)
                 (A) (A) (A) (A) (A) (A) (A) (A) (A) (A) (A) (A)
       Virtual   (A) (A) (A) (A) (A) (A) (A) (A) (A) (A) (A) (A)
                 (A) (A) (A) (A) (A) (A) (A) (A) (A) (A) (A) (A)
                 (A) (A) (A) (A) (A) (A) (A) (A) (A) (A) (A) (A)
                 (A) (A) (A) (A) (A) (A) (A) (A) (A) (A) (A) (A)
                 (A) (A) (A) (A) (A) (A) (A) (A) (A) (A) (A) (A)
                 (A) (A) (A) (A) (A) (A) (A) (A) (A) (A) (A) (A)
                 (A) (A) (A) (A) (A) (A) (A) (A) (A) (A) (A) (A)
                 (A) (A) (A) (A) (A) (A) (A) (A) (A) (A) (A) (A)
                 (A) (A) (A) (A) (A) (A) (A) (A) (A) (A) (A) (A)
                 (A) (A) (A) (A) (A) (A) (A) (A) (A) (A) (A) (A)
                 (A) (A) (A) (A) (A) (A) (A) (A) (A) (A) (A) (A)
                 (A) (A) (A) (A) (A) (A) (A) (A) (A) (A) (A) (A)
                 (A) (A) (A) (A) (A) (A) (A) (A) (A) (A) (A) (A)
                 (A) (A) (A) (A) (A) (A) (A) (A) (A) (A) (A) (A)
                 (A) (A) (A) (A) (A) (A) (A) (A) (A) (A) (A) (A)
                 (A) (A) (A) (A) (A) (A) (A) (A) (A) (A) (A) (A)
                 (A) (A) (A) (A) (A) (A) (A) (A) (A) (A) (A) (A)
                 (A) (A) (A) (A) (A) (A) (A) (A) (A) (A) (A) (A)
                 (A) (A) (A) (A) (A) (A) (A) (A) (A) (A) (A) (A)
                 (A) (A) (A) (A) (A) (A) (A) (A) (A) (A) (A) (A)
                 (A) (A) (A) (A) (A) (A) (A) (A) (A) (A) (A) (A)
                 (A) (A) (A) (A) (A) (A) (A) (A) (A) (A) (A) (A)
                 (A) (A) (A) (A) (A) (A) (A) (A) (A) (A) (A) (A)
                 (A) (A) (A) (A) (A) (A) (A) (A) (A) (A) (A) (A)
                 (A) (A) (A) (A) (A) (A) (A) (A) (A) (A) (A) (A)
                 (A) (A) (A) (A) (A) (A) (A) (A) (A) (A) (A) (A)
                 (A) (A) (A) (A) (A) (A) (A) (A) (A) (A) (A) (A)
                 (A) (A) (A) (A) (A) (A) (A) (A) (A) (A) (A) (A)
                 (A) (A) (A) (A) (A) (A) (A) (A) (A) (A) (A) (A)
                 (A) (A) (A) (A) (A) (A) (A) (A) (A) (A) (A) (A)
                 (A) (A) (A) (A) (A) (A) (A) (A) (A) (A) (A) (A)
                 (A) (A) (A) (A) (A) (A) (A) (A) (A) (A) (A) (A)
                 (A) (A) (A) (A) (A) (A) (A) (A) (A) (A) (A) (A)
                 (A) (A) (A) (A) (A) (A) (A) (A) (A) (A) (A) (A)
                 (A) (A) (A) (A) (A) (A) (A) (A) (A) (A) (A) (A)
                 (A) (A) (A) (A) (A) (A) (A) (A) (A) (A) (A) (A)
                 (A) (A) (A) (A) (A) (A) (A) (A) (A) (A) (A) (A)
                 (A) (A) (A) (A) (A) (A) (A) (A) (A) (A) (A) (A)
                 (A) (A) (A) (A) (A) (A) (A) (A) (A) (A) (A) (A)
                 (A) (A) (A) (A) (A) (A) (A) (A) (A) (A) (A) (A)
                 (A) (A) (A) (A) (A) (A) (A) (A) (A) (A) (A) (A)
                 (A) (A) (A) (A) (A) (A) (A) (A) (A) (A) (A) (A)
                 (A) (A) (A) (A) (A) (A) (A) (A) (A) (A) (A) (A)
                 (A) (A) (A) (A) (A) (A) (A) (A) (A) (A) (A) (A)
                 (A) (A) (A) (A) (A) (A) (A) (A) (A) (A) (A) (A)
                 (A) (A) (A) (A) (A) (A) (A) (A) (A) (A) (A) (A)
                 (A) (A) (A) (A) (A) (A) (A) (A) (A) (A) (A) (A)
                 (A) (A) (A) (A) (A) (A) (A) (A) (A) (A) (A) (A)
                 (A) (A) (A) (A) (A) (A) (A) (A) (A) (A) (A) (A)
                 (A) (A) (A) (A) (A) (A) (A) (A) (A) (A) (A) (A)
                 (A) (A) (A) (A) (A) (A) (A) (A) (A) (A) (A) (A)
                 (A) (A) (A) (A) (A) (A) (A) (A) (A) (A) (A) (A)
                 (A) (A) (A) (A) (A) (A) (A) (A) (A) (A) (A) (A)
                 (A) (A) (A) (A) (A) (A) (A) (A) (A) (A) (A) (A)
                 (A) (A) (A) (A) (A) (A) (A) (A) (A) (A) (A) (A)
                 (A) (A) (A) (A) (A) (A) (A) (A) (A) (A) (A) (A)
                 (A) (A) (A) (A) (A) (A) (A) (A) (A) (A) (A) (A)
                 (A) (A) (A) (A) (A) (A) (A) (A) (A) (A) (A) (A)
                 (A) (A) (A) (A) (A) (A) (A) (A) (A) (A) (A) (A)
                 (A) (A) (A) (A) (A) (A) (A) (A) (A) (A) (A) (A)
                 (A) (A) (A) (A) (A) (A) (A) (A) (A) (A) (A) (A)
                 (A) (A) (A) (A) (A) (A) (A) (A) (A) (A) (A) (A)
                 (A) (A) (A) (A) (A) (A) (A) (A) (A) (A) (A) (A)
                 (A) (A) (A) (A) (A) (A) (A) (A) (A) (A) (A) (A)
                 (A) (A) (A) (A) (A) (A) (A) (A) (A) (A) (A) (A)
                 (A) (A) (A) (A) (A) (A) (A) (A) (A) (A) (A) (A)
                 (A) (A) (A) (A) (A) (A) (A) (A) (A) (A) (A) (A)
                 (A) (A) (A) (A) (A) (A) (A) (A) (A) (A) (A) (A)
                 (A) (A) (A) (A) (A) (A) (A) (A) (A) (A) (A) (A)
                 (A) (A) (A) (A) (A) (A) (A) (A) (A) (A) (A) (A)
                 (A) (A) (A) (A) (A) (A) (A) (A) (A) (A) (A) (A)
                 (A) (A) (A) (A) (A) (A) (A) (A) (A) (A) (A) (A)
                 (A) (A) (A) (A) (A) (A) (A) (A) (A) (A) (A) (A)
                 (A) (A) (A) (A) (A) (A) (A) (A) (A) (A) (A) (A)
                 (A) (A) (A) (A) (A) (A) (A) (A) (A) (A) (A) (A)
                 (A) (A) (A) (A) (A) (A) (A) (A) (A) (A) (A) (A)
                 (A) (A) (A) (A) (A) (A) (A) (A) (A) (A) (A) (A)
                 (A) (A) (A) (A) (A) (A) (A) (A) (A) (A) (A) (A)
                 (A) (A) (A) (A) (A) (A) (A) (A) (A) (A) (A) (A)
                 (A) (A) (A) (A) (A) (A) (A) (A) (A) (A) (A) (A)
                 (A) (A) (A) (A) (A) (A) (A) (A) (A) (A) (A) (A)
                 (A) (A) (A) (A) (A) (A) (A) (A) (A) (A) (A) (A)
                 (A) (A) (A) (A) (A) (A) (A) (A) (A) (A) (A) (A)
                 (A) (A) (A) (A) (A) (A) (A) (A) (A) (A) (A) (A)
                 (A) (A) (A) (A) (A) (A) (A) (A) (A) (A) (A) (A)
                 (A) (A) (A) (A) (A) (A) (A) (A) (A) (A) (A) (A)
                 (A) (A) (A) (A) (A) (A) (A) (A) (A) (A) (A) (A)
                 (A) (A) (A) (A) (A) (A) (A) (A) (A) (A) (A) (A)
                 (A) (A) (A) (A) (A) (A) (A) (A) (A) (A) (A) (A)
                 (A) (A) (A) (A) (A) (A) (A) (A) (A) (A) (A) (A)
                 (A) (A) (A) (A) (A) (A) (A) (A) (A) (A) (A) (A)
                 (A) (A) (A) (A) (A) (A) (A) (A) (A) (A) (A) (A)
                 (A) (A) (A) (A) (A) (A) (A) (A) (A) (A) (A) (A)
                 (A) (A) (A) (A) (A) (A) (A) (A) (A) (A) (A) (A)
                 (A) (A) (A) (A) (A) (A) (A) (A) (A) (A) (A) (A)
                 (A) (A) (A) (A) (A) (A) (A) (A) (A) (A) (A) (A)
                 (A) (A) (A) (A) (A) (A) (A) (A) (A) (A) (A) (A)
                 (A) (A) (A) (A) (A) (A) (A) (A) (A) (A) (A) (A)
                 (A) (A) (A) (A) (A) (A) (A) (A) (A) (A) (A) (A)
                 (A) (A) (A) (A) (A) (A) (A) (A) (A) (A) (A) (A)
                 (A) (A) (A) (A) (A) (A) (A) (A) (A) (A) (A) (A)
                 (A) (A) (A) (A) (A) (A) (A) (A) (A) (A) (A) (A)
                 (A) (A) (A) (A) (A) (A) (A) (A) (A) (A) (A) (A)
                 (A) (A) (A) (A) (A) (A) (A) (A) (A) (A) (A) (A)
                 (A) (A) (A) (A) (A) (A) (A) (A) (A) (A) (A) (A)
                 (A) (A) (A) (A) (A) (A) (A) (A) (A) (A) (A) (A)
                 (A) (A) (A) (A) (A) (A) (A) (A) (A) (A) (A) (A)
                 (A) (A) (A) (A) (A) (A) (A) (A) (A) (A) (A) (A)
                 (A) (A) (A) (A) (A) (A) (A) (A) (A) (A) (A) (A)
                 (A) (A) (A) (A) (A) (A) (A) (A) (A) (A) (A) (A)
                 (A) (A) (A) (A) (A) (A) (A) (A) (A) (A) (A) (A)
                 (A) (A) (A) (A) (A) (A) (A) (A) (A) (A) (A) (A)
                 (A) (A) (A) (A) (A) (A) (A) (A) (A) (A) (A) (A)
                 (A) (A) (A) (A) (A) (A) (A) (A) (A) (A) (A) (A)
                 (A) (A) (A) (A) (A) (A) (A) (A) (A) (A) (A) (A)
                 (A) (A) (A) (A) (A) (A) (A) (A) (A) (A) (A) (A)
                 (A) (A) (A) (A) (A) (A) (A) (A) (A) (A) (A) (A)
                 (A) (A) (A) (A) (A) (A) (A) (A) (A) (A) (A) (A)
                 (A) (A) (A) (A) (A) (A) (A) (A) (A) (A) (A) (A)
                 (A) (A) (A) (A) (A) (A) (A) (A) (A) (A) (A) (A)
                 (A) (A) (A) (A) (A) (A) (A) (A) (A) (A) (A) (A)
                 (A) (A) (A) (A) (A) (A) (A) (A) (A) (A) (A) (A)
                 (A) (A) (A) (A) (A) (A) (A) (A) (A) (A) (A) (A)
                 (A) (A) (A) (A) (A) (A) (A) (A) (A) (A) (A) (A)
                 (A) (A) (A) (A) (A) (A) (A) (A) (A) (A) (A) (A)
                 (A) (A) (A) (A) (A) (A) (A) (A) (A) (A) (A) (A)
                 (A) (A) (A) (A) (A) (A) (A) (A) (A) (A) (A) (A)
                 (A) (A) (A) (A) (A) (A) (A) (A) (A) (A) (A) (A)
                 (A) (A) (A) (A) (A) (A) (A) (A) (A) (A) (A) (A)
                 (A) (A) (A) (A) (A) (A) (A) (A) (A) (A) (A) (A)
                 (A) (A) (A) (A) (A) (A) (A) (A) (A) (A) (A) (A)
                 (A) (A) (A) (A) (A) (A) (A) (A) (A) (A) (A) (A)
                 (A) (A) (A) (A) (A) (A) (A) (A) (A) (A) (A) (A)
                 (A) (A) (A) (A) (A) (A) (A) (A) (A) (A) (A) (A)
                 (A) (A) (A) (A) (A) (A) (A) (A) (A) (A) (A) (A)
                 (A) (A) (A) (A) (A) (A) (A) (A) (A) (A) (A) (A)
                 (A) (A) (A) (A) (A) (A) (A) (A) (A) (A) (A) (A)
                 (A) (A) (A) (A) (A) (A) (A) (A) (A) (A) (A) (A)
                 (A) (A) (A) (A) (A) (A) (A) (A) (A) (A) (A) (A)
                 (A) (A) (A) (A) (A) (A) (A) (A) (A) (A) (A) (A)
                 (A) (A) (A) (A) (A) (A) (A) (A) (A) (A) (A) (A)
                 (A) (A) (A) (A) (A) (A) (A) (A) (A) (A) (A) (A)
                 (A) (A) (A) (A) (A) (A) (A) (A) (A) (A) (A) (A)
                 (A) (A) (A) (A) (A) (A) (A) (A) (A) (A) (A) (A)
                 (A) (A) (A) (A) (A) (A) (A) (A) (A) (A) (A) (A)
                 (A) (A) (A) (A) (A) (A) (A) (A) (A) (A) (A) (A)
                 (A) (A) (A) (A) (A) (A) (A) (A) (A) (A) (A) (A)
                 (A) (A) (A) (A) (A) (A) (A) (A) (A) (A) (A) (A)
                 (A) (A) (A) (A) (A) (A) (A) (A) (A) (A) (A) (A)
                 (A) (A) (A) (A) (A) (A) (A) (A) (A) (A) (A) (A)
                 (A) (A) (A) (A) (A) (A) (A) (A) (A) (A) (A) (A)
                 (A) (A) (A) (A) (A) (A) (A) (A) (A) (A) (A) (A)
                 (A) (A) (A) (A) (A) (A) (A) (A) (A) (A) (A) (A)
                 (A) (A) (A) (A) (A) (A) (A) (A) (A) (A) (A) (A)
                 (A) (A) (A) (A) (A) (A) (A) (A) (A) (A) (A) (A)
                 (A) (A) (A) (A) (A) (A) (A) (A) (A) (A) (A) (A)
                 (A) (A) (A) (A) (A) (A) (A) (A) (A) (A) (A) (A)
                 (A) (A) (A) (A) (A) (A) (A) (A) (A) (A) (A) (A)
                 (A) (A) (A) (A) (A) (A) (A) (A) (A) (A) (A) (A)
                 (A) (A) (A) (A) (A) (A) (A) (A) (A) (A) (A) (A)
                 (A) (A) (A) (A) (A) (A) (A) (A) (A) (A) (A) (A)
                 (A) (A) (A) (A) (A) (A) (A) (A) (A) (A) (A) (A)
                 (A) (A) (A) (A) (A) (A) (A) (A) (A) (A) (A) (A)
                 (A) (A) (A) (A) (A) (A) (A) (A) (A) (A) (A) (A)
                 (A) (A) (A) (A) (A) (A) (A) (A) (A) (A) (A) (A)
                 (A) (A) (A) (A) (A) (A) (A) (A) (A) (A) (A) (A)
                 (A) (A) (A) (A) (A) (A) (A) (A) (A) (A) (A) (A)
                 (A) (A) (A) (A) (A) (A) (A) (A) (A) (A) (A) (A)
                 (A) (A) (A) (A) (A) (A) (A) (A) (A) (A) (A) (A)
                 (A) (A) (A) (A) (A) (A) (A) (A) (A) (A) (A) (A)
                 (A) (A) (A) (A) (A) (A) (A) (A) (A) (A) (A) (A)
                 (A) (A) (A) (A) (A) (A) (A) (A) (A) (A) (A) (A)
                 (A) (A) (A) (A) (A) (A) (A) (A) (A) (A) (A) (A)
                 (A) (A) (A) (A) (A) (A) (A) (A) (A) (A) (A) (A)
                 (A) (A) (A) (A) (A) (A) (A) (A) (A) (A) (A) (A)
                 (A) (A) (A) (A) (A) (A) (A) (A) (A) (A) (A) (A)
                 (A) (A) (A) (A) (A) (A) (A) (A) (A) (A) (A) (A)
                 (A) (A) (A) (A) (A) (A) (A) (A) (A) (A) (A) (A)
                 (A) (A) (A) (A) (A) (A) (A) (A) (A) (A) (A) (A)
                 (A) (A) (A) (A) (A) (A) (A) (A) (A) (A) (A) (A)
                 (A) (A) (A) (A) (A) (A) (A) (A) (A) (A) (A) (A)
                 (A) (A) (A) (A) (A) (A) (A) (A) (A) (A) (A) (A)
                 (A) (A) (A) (A) (A) (A) (A) (A) (A) (A) (A) (A)
                 (A) (A) (A) (A) (A) (A) (A) (A) (A) (A) (A) (A)
                 (A) (A) (A) (A) (A) (A) (A) (A) (A) (A) (A) (A)
                 (A) (A) (A) (A) (A) (A) (A) (A) (A) (A) (A) (A)
                 (A) (A) (A) (A) (A) (A) (A) (A) (A) (A) (A) (A)
                 (A) (A) (A) (A) (A) (A) (A) (A) (A) (A) (A) (A)
                 (A) (A) (A) (A) (A) (A) (A) (A) (A) (A) (A) (A)
                 (A) (A) (A) (A) (A) (A) (A) (A) (A) (A) (A) (A)
                 (A) (A) (A) (A) (A) (A) (A) (A) (A) (A) (A) (A)
                 (A) (A) (A) (A) (A) (A) (A) (A) (A) (A) (A) (A)
                 (A) (A) (A) (A) (A) (A) (A) (A) (A) (A) (A) (A)
                 (A) (A) (A) (A) (A) (A) (A) (A) (A) (A) (A) (A)
                 (A) (A) (A) (A) (A) (A) (A) (A) (A) (A) (A) (A)
                 (A) (A) (A) (A) (A) (A) (A) (A) (A) (A) (A) (A)
                 (A) (A) (A) (A) (A) (A) (A) (A) (A) (A) (A) (A)
                 (A) (A) (A) (A) (A) (A) (A) (A) (A) (A) (A) (A)
                 (A) (A) (A) (A) (A) (A) (A) (A) (A) (A) (A) (A)
                 (A) (A) (A) (A) (A) (A) (A) (A) (A) (A) (A) (A)
                 (A) (A) (A) (A) (A) (A) (A) (A) (A) (A) (A) (A)
                 (A) (A) (A) (A) (A) (A) (A) (A) (A) (A) (A) (A)
                 (A) (A) (A) (A) (A) (A) (A) (A) (A) (A) (A) (A)
                 (A) (A) (A) (A) (A) (A) (A) (A) (A) (A) (A) (A)
                 (A) (A) (A) (A) (A) (A) (A) (A) (A) (A) (A) (A)
                 (A) (A) (A) (A) (A) (A) (A) (A) (A) (A) (A) (A)
                 (A) (A) (A) (A) (A) (A) (A) (A) (A) (A) (A) (A)
                 (A) (A) (A) (A) (A) (A) (A) (A) (A) (A) (A) (A)
                 (A) (A) (A) (A) (A) (A) (A) (A) (A) (A) (A) (A)
                 (A) (A) (A) (A) (A) (A) (A) (A) (A) (A) (A) (A)
                 (A) (A) (A) (A) (A) (A) (A) (A) (A) (A) (A) (A)
                 (A) (A) (A) (A) (A) (A) (A) (A) (A) (A) (A) (A)
                 (A) (A) (A) (A) (A) (A) (A) (A) (A) (A) (A) (A)
                 (A) (A) (A) (A) (A) (A) (A) (A) (A) (A) (A) (A)
                 (A) (A) (A) (A) (A) (A) (A) (A) (A) (A) (A) (A)
                 (A) (A) (A) (A) (A) (A) (A) (A) (A) (A) (A) (A)
                 (A) (A) (A) (A) (A) (A) (A) (A) (A) (A) (A) (A)
                 (A) (A) (A) (A) (A) (A) (A) (A) (A) (A) (A) (A)
                 (A) (A) (A) (A) (A) (A) (A) (A) (A) (A) (A) (A)
                 (A) (A) (A) (A) (A) (A) (A) (A) (A) (A) (A) (A)
                 (A) (A) (A) (A) (A) (A) (A) (A) (A) (A) (A) (A)
                 (A) (A) (A) (A) (A) (A) (A) (A) (A) (A) (A) (A)
                 (A) (A) (A) (A) (A) (A) (A) (A) (A) (A) (A) (A)
                 (A) (A) (A) (A) (A) (A) (A) (A) (A) (A) (A) (A)
                 (A) (A) (A) (A) (A) (A) (A) (A) (A) (A) (A) (A)
                 (A) (A) (A) (A) (A)
 The electronic state is 1-A.
 Alpha  occ. eigenvalues --  -25.21042 -25.21038 -19.69151 -19.69104 -19.68795
 Alpha  occ. eigenvalues --  -19.68788 -19.66903 -19.66765 -19.66749 -19.64135
 Alpha  occ. eigenvalues --  -19.63987 -19.63626 -19.63596 -19.63502 -19.63201
 Alpha  occ. eigenvalues --  -15.02510 -15.02335 -14.79791 -14.79606 -10.68517
 Alpha  occ. eigenvalues --  -10.64131 -10.63570 -10.62438 -10.62242 -10.62196
 Alpha  occ. eigenvalues --  -10.62144 -10.61960 -10.61830 -10.60931 -10.60841
 Alpha  occ. eigenvalues --  -10.60564 -10.60126 -10.60026 -10.60011 -10.59794
 Alpha  occ. eigenvalues --  -10.59757 -10.59475 -10.59297 -10.58968 -10.58923
 Alpha  occ. eigenvalues --  -10.58888 -10.58843 -10.58816 -10.58729 -10.58689
 Alpha  occ. eigenvalues --  -10.58630 -10.58629 -10.58601 -10.58544 -10.58285
 Alpha  occ. eigenvalues --  -10.57920 -10.57855 -10.57189 -10.57015 -10.56226
 Alpha  occ. eigenvalues --  -10.56159 -10.56152 -10.56119 -10.56095 -10.56066
 Alpha  occ. eigenvalues --  -10.56003 -10.55871 -10.55494 -10.55424 -10.55225
 Alpha  occ. eigenvalues --  -10.55019 -10.55016 -10.54900  -7.14077  -7.11737
 Alpha  occ. eigenvalues --   -7.11683  -5.11119  -5.11060  -5.10030  -5.10010
 Alpha  occ. eigenvalues --   -5.09983  -5.09954  -2.07968  -2.07910  -2.07499
 Alpha  occ. eigenvalues --   -2.07491  -2.07446  -2.07429  -2.06584  -2.06582
 Alpha  occ. eigenvalues --   -2.06533  -2.06531  -1.38279  -1.37920  -1.33018
 Alpha  occ. eigenvalues --   -1.29763  -1.21290  -1.19899  -1.19874  -1.19730
 Alpha  occ. eigenvalues --   -1.19499  -1.16932  -1.16634  -1.16162  -1.15822
 Alpha  occ. eigenvalues --   -1.15478  -1.14411  -1.12113  -1.10277  -1.03659
 Alpha  occ. eigenvalues --   -0.97733  -0.97632  -0.96528  -0.95549  -0.93404
 Alpha  occ. eigenvalues --   -0.93072  -0.92721  -0.91804  -0.91160  -0.88859
 Alpha  occ. eigenvalues --   -0.88520  -0.88041  -0.87127  -0.86661  -0.86110
 Alpha  occ. eigenvalues --   -0.85739  -0.85311  -0.84610  -0.83467  -0.83290
 Alpha  occ. eigenvalues --   -0.82948  -0.82046  -0.81794  -0.80458  -0.80179
 Alpha  occ. eigenvalues --   -0.79917  -0.78499  -0.77906  -0.77361  -0.76786
 Alpha  occ. eigenvalues --   -0.74511  -0.73891  -0.73334  -0.72444  -0.71460
 Alpha  occ. eigenvalues --   -0.71360  -0.71124  -0.70463  -0.69907  -0.69608
 Alpha  occ. eigenvalues --   -0.68703  -0.68367  -0.68143  -0.67435  -0.67061
 Alpha  occ. eigenvalues --   -0.66386  -0.66201  -0.65585  -0.65133  -0.64313
 Alpha  occ. eigenvalues --   -0.63559  -0.63454  -0.62482  -0.62328  -0.62226
 Alpha  occ. eigenvalues --   -0.61902  -0.61589  -0.60741  -0.60012  -0.59839
 Alpha  occ. eigenvalues --   -0.59513  -0.59303  -0.59015  -0.58919  -0.58841
 Alpha  occ. eigenvalues --   -0.58516  -0.58246  -0.57939  -0.57604  -0.57399
 Alpha  occ. eigenvalues --   -0.57145  -0.56994  -0.56554  -0.55955  -0.55932
 Alpha  occ. eigenvalues --   -0.55403  -0.55150  -0.55044  -0.54923  -0.54749
 Alpha  occ. eigenvalues --   -0.54600  -0.54046  -0.53878  -0.53405  -0.53324
 Alpha  occ. eigenvalues --   -0.53166  -0.52719  -0.52682  -0.52579  -0.52144
 Alpha  occ. eigenvalues --   -0.51977  -0.51819  -0.51424  -0.51258  -0.50832
 Alpha  occ. eigenvalues --   -0.50563  -0.50479  -0.50154  -0.50009  -0.49951
 Alpha  occ. eigenvalues --   -0.49770  -0.49240  -0.49048  -0.48841  -0.48602
 Alpha  occ. eigenvalues --   -0.48415  -0.47874  -0.47751  -0.47499  -0.47368
 Alpha  occ. eigenvalues --   -0.47126  -0.47066  -0.46810  -0.46409  -0.46264
 Alpha  occ. eigenvalues --   -0.46092  -0.45817  -0.45643  -0.45570  -0.45337
 Alpha  occ. eigenvalues --   -0.45195  -0.44645  -0.44385  -0.43881  -0.43731
 Alpha  occ. eigenvalues --   -0.43540  -0.43317  -0.43014  -0.42861  -0.42669
 Alpha  occ. eigenvalues --   -0.42568  -0.42282  -0.42170  -0.41882  -0.41756
 Alpha  occ. eigenvalues --   -0.41671  -0.41110  -0.40634  -0.40622  -0.40474
 Alpha  occ. eigenvalues --   -0.40449  -0.40303  -0.40278  -0.40060  -0.39697
 Alpha  occ. eigenvalues --   -0.39396  -0.39057  -0.38854  -0.38728  -0.37880
 Alpha  occ. eigenvalues --   -0.37260  -0.36890  -0.36638  -0.35920  -0.35253
 Alpha  occ. eigenvalues --   -0.35073  -0.34662  -0.34206  -0.34015  -0.33769
 Alpha  occ. eigenvalues --   -0.33734  -0.32949  -0.32796  -0.32483  -0.32461
 Alpha  occ. eigenvalues --   -0.32360  -0.30650  -0.30539  -0.29332  -0.27251
 Alpha  occ. eigenvalues --   -0.24002
 Alpha virt. eigenvalues --   -0.10915  -0.08655  -0.07094  -0.03723  -0.02808
 Alpha virt. eigenvalues --   -0.02009  -0.00756  -0.00215   0.00368   0.00656
 Alpha virt. eigenvalues --    0.00811   0.01892   0.04358   0.04849   0.05349
 Alpha virt. eigenvalues --    0.06132   0.06777   0.06998   0.07266   0.07325
 Alpha virt. eigenvalues --    0.07842   0.07914   0.08082   0.08183   0.08258
 Alpha virt. eigenvalues --    0.08445   0.08637   0.09027   0.09207   0.09520
 Alpha virt. eigenvalues --    0.09682   0.09823   0.09962   0.10124   0.10231
 Alpha virt. eigenvalues --    0.10452   0.10725   0.10933   0.11088   0.11182
 Alpha virt. eigenvalues --    0.11205   0.11301   0.11478   0.11910   0.12004
 Alpha virt. eigenvalues --    0.12233   0.12487   0.12584   0.12672   0.12814
 Alpha virt. eigenvalues --    0.12833   0.13096   0.13174   0.13401   0.13507
 Alpha virt. eigenvalues --    0.13764   0.13852   0.13933   0.13959   0.14207
 Alpha virt. eigenvalues --    0.14332   0.14434   0.14661   0.14701   0.14886
 Alpha virt. eigenvalues --    0.15006   0.15087   0.15183   0.15325   0.15449
 Alpha virt. eigenvalues --    0.15493   0.15980   0.16183   0.16184   0.16251
 Alpha virt. eigenvalues --    0.16498   0.16725   0.16882   0.16944   0.17064
 Alpha virt. eigenvalues --    0.17244   0.17384   0.17479   0.17600   0.17945
 Alpha virt. eigenvalues --    0.18165   0.18213   0.18383   0.18451   0.18495
 Alpha virt. eigenvalues --    0.18686   0.18896   0.19048   0.19243   0.19296
 Alpha virt. eigenvalues --    0.19397   0.19479   0.19678   0.20035   0.20199
 Alpha virt. eigenvalues --    0.20273   0.20681   0.20783   0.20882   0.21094
 Alpha virt. eigenvalues --    0.21109   0.21228   0.21489   0.21629   0.21783
 Alpha virt. eigenvalues --    0.21953   0.22149   0.22174   0.22531   0.22692
 Alpha virt. eigenvalues --    0.22770   0.22821   0.23092   0.23114   0.23135
[...]
 Alpha virt. eigenvalues --    4.75574   4.76088   4.76249   4.76416   4.76660
 Alpha virt. eigenvalues --    4.76790   4.77062   4.77281   4.77687   4.77959
 Alpha virt. eigenvalues --    4.78692   4.78914   4.79560   4.79710   4.79827
 Alpha virt. eigenvalues --    4.80105   4.80837   4.80890   4.81042   4.81519
 Alpha virt. eigenvalues --    4.81590   4.82260   4.82334   4.82579   4.82942
 Alpha virt. eigenvalues --    4.83241   4.83486   4.83761   4.84352   4.84589
 Alpha virt. eigenvalues --    4.85067   4.85238   4.85517   4.85699   4.86444
 Alpha virt. eigenvalues --    4.86475   4.86891   4.87079   4.87634   4.88013
 Alpha virt. eigenvalues --    4.88255   4.88345   4.88470   4.88715   4.89047
 Alpha virt. eigenvalues --    4.89135   4.89323   4.89940   4.90446   4.90709
 Alpha virt. eigenvalues --    4.91116   4.91654   4.91777   4.91852   4.92161
 Alpha virt. eigenvalues --    4.92190   4.92435   4.92699   4.92939   4.93693
 Alpha virt. eigenvalues --    4.93872   4.93940   4.94250   4.94528   4.94647
 Alpha virt. eigenvalues --    4.94818   4.95226   4.95354   4.95806   4.96484
 Alpha virt. eigenvalues --    4.96877   4.97091   4.97196   4.97576   4.97979
 Alpha virt. eigenvalues --    4.98494   4.98615   4.99158   4.99688   5.00253
 Alpha virt. eigenvalues --    5.00468   5.00784   5.00955   5.01076   5.01530
 Alpha virt. eigenvalues --    5.02342   5.02792   5.03418   5.03511   5.03664
 Alpha virt. eigenvalues --    5.04032   5.04533   5.05163   5.05820   5.05975
 Alpha virt. eigenvalues --    5.06194   5.06451   5.06699   5.06955   5.07949
 Alpha virt. eigenvalues --    5.08289   5.08934   5.08995   5.09212   5.09777
 Alpha virt. eigenvalues --    5.09942   5.10258   5.10696   5.10964   5.11159
 Alpha virt. eigenvalues --    5.11617   5.12177   5.12343   5.12604   5.12924
 Alpha virt. eigenvalues --    5.13042   5.13346   5.13540   5.13723   5.14285
 Alpha virt. eigenvalues --    5.14746   5.14888   5.15937   5.15982   5.16081
 Alpha virt. eigenvalues --    5.16494   5.16514   5.17107   5.17306   5.17674
 Alpha virt. eigenvalues --    5.18028   5.18126   5.18182   5.18625   5.18958
 Alpha virt. eigenvalues --    5.19730   5.20115   5.21013   5.21792   5.22233
 Alpha virt. eigenvalues --    5.22392   5.22590   5.23135   5.23163   5.23577
 Alpha virt. eigenvalues --    5.23898   5.24255   5.24434   5.24684   5.25079
 Alpha virt. eigenvalues --    5.25318   5.25551   5.26074   5.26572   5.26636
 Alpha virt. eigenvalues --    5.27076   5.27194   5.27440   5.27551   5.27759
 Alpha virt. eigenvalues --    5.28149   5.28443   5.28898   5.29101   5.29518
 Alpha virt. eigenvalues --    5.29585   5.29862   5.30091   5.30520   5.30810
 Alpha virt. eigenvalues --    5.31542   5.31686   5.31885   5.32023   5.32278
 Alpha virt. eigenvalues --    5.32619   5.32955   5.33345   5.33627   5.34045
 Alpha virt. eigenvalues --    5.34541   5.35001   5.35256   5.35503   5.36092
 Alpha virt. eigenvalues --    5.36274   5.36911   5.37206   5.37434   5.37654
 Alpha virt. eigenvalues --    5.38095   5.38190   5.38476   5.38822   5.39010
 Alpha virt. eigenvalues --    5.39329   5.39665   5.39701   5.40069   5.40196
 Alpha virt. eigenvalues --    5.40320   5.40741   5.41325   5.41878   5.42198
 Alpha virt. eigenvalues --    5.42681   5.43356   5.43653   5.43939   5.44445
 Alpha virt. eigenvalues --    5.44649   5.44807   5.45092   5.45337   5.45450
 Alpha virt. eigenvalues --    5.45774   5.46114   5.46280   5.46980   5.48405
 Alpha virt. eigenvalues --    5.49525   5.49750   5.50057   5.50180   5.51018
 Alpha virt. eigenvalues --    5.51600   5.51912   5.52354   5.52732   5.53075
 Alpha virt. eigenvalues --    5.53241   5.53715   5.54444   5.54748   5.55605
 Alpha virt. eigenvalues --    5.56171   5.56293   5.56548   5.56900   5.57410
 Alpha virt. eigenvalues --    5.57933   5.58140   5.58266   5.58905   5.58925
 Alpha virt. eigenvalues --    5.58955   5.59004   5.59531   5.60066   5.60331
 Alpha virt. eigenvalues --    5.60994   5.61086   5.61639   5.61990   5.62109
 Alpha virt. eigenvalues --    5.62411   5.62687   5.62923   5.63266   5.63783
 Alpha virt. eigenvalues --    5.64135   5.64633   5.64945   5.64977   5.65462
 Alpha virt. eigenvalues --    5.66552   5.66708   5.67173   5.67421   5.67578
 Alpha virt. eigenvalues --    5.67867   5.67976   5.68463   5.69256   5.69336
 Alpha virt. eigenvalues --    5.69912   5.70860   5.71045   5.72726   5.73932
 Alpha virt. eigenvalues --    5.74703   5.75842   5.77302   5.78521   5.81729
 Alpha virt. eigenvalues --    5.82958   5.84705   5.84913   5.84997   5.85263
 Alpha virt. eigenvalues --    5.86075   5.87423   5.88712   5.89398   5.90483
 Alpha virt. eigenvalues --    5.91491   5.91944   5.92088   5.92676   5.93025
 Alpha virt. eigenvalues --    5.93190   5.94216   5.95204   5.95545   5.96794
 Alpha virt. eigenvalues --    5.97226   5.97736   6.00637   6.01204   6.03544
 Alpha virt. eigenvalues --    6.04404   6.04708   6.05484   6.05537   6.06090
 Alpha virt. eigenvalues --    6.06319   6.08088   6.08526   6.09368   6.11638
 Alpha virt. eigenvalues --    6.12427   6.14038   6.15390   6.17548   6.19624
 Alpha virt. eigenvalues --    6.21500   6.21598   6.23087   6.23405   6.25152
 Alpha virt. eigenvalues --    6.25265   6.26283   6.26450   6.27066   6.27083
 Alpha virt. eigenvalues --    6.27848   6.28708   6.29581   6.29987   6.32285
 Alpha virt. eigenvalues --    6.32893   6.33578   6.34788   6.35302   6.35733
 Alpha virt. eigenvalues --    6.36510   6.38783   6.39321   6.39669   6.39735
 Alpha virt. eigenvalues --    6.40634   6.42903   6.45092   6.45590   6.45742
 Alpha virt. eigenvalues --    6.46639   6.48564   6.50435   6.65249   6.68506
 Alpha virt. eigenvalues --    6.70282   6.70470   6.72343   6.73481   6.73913
 Alpha virt. eigenvalues --    6.74923   6.75211   6.75642   6.75681   6.76630
 Alpha virt. eigenvalues --    6.77742   6.80425   6.82871   6.83170   6.83428
 Alpha virt. eigenvalues --    6.83680   6.84226   6.84492   6.85206   6.85580
 Alpha virt. eigenvalues --    6.86237   6.86413   6.86489   6.87470   6.89214
 Alpha virt. eigenvalues --    6.90026   6.93623   6.94470   6.95706   6.96774
 Alpha virt. eigenvalues --    6.98003   6.98124   6.98271   6.98528   6.98582
 Alpha virt. eigenvalues --    6.99641   7.00839   7.02962   7.03227   7.04281
 Alpha virt. eigenvalues --    7.04728   7.06500   7.07367   7.08024   7.10262
 Alpha virt. eigenvalues --    7.11302   7.16991   7.20509   7.21766   7.22244
 Alpha virt. eigenvalues --    7.23722   7.26505   7.26939   7.27369   7.28569
 Alpha virt. eigenvalues --    7.29543   7.30004   7.30377   7.31415   7.31881
 Alpha virt. eigenvalues --    7.32203   7.33444   7.33721   7.33949   7.34264
 Alpha virt. eigenvalues --    7.35532   7.36269   7.36365   7.38317   7.40733
 Alpha virt. eigenvalues --    7.41491   7.42020   7.45286   7.47680   7.47738
 Alpha virt. eigenvalues --    7.50146   8.45686   8.46446   8.56503   8.59596
 Alpha virt. eigenvalues --    8.82013   8.88119   8.91125   8.91536   8.91793
 Alpha virt. eigenvalues --    9.00148  15.85689  22.74477  22.75748  22.79675
 Alpha virt. eigenvalues --   22.87625  22.88492  23.02412  23.04386  23.10275
 Alpha virt. eigenvalues --   23.11143  23.12192  23.16161  23.16682  23.17710
 Alpha virt. eigenvalues --   23.18620  23.25135  23.26158  23.26996  23.27991
 Alpha virt. eigenvalues --   23.29219  23.29525  23.32120  23.32816  23.33106
 Alpha virt. eigenvalues --   23.33704  23.35086  23.35938  23.36164  23.37128
 Alpha virt. eigenvalues --   23.37729  23.39440  23.39560  23.40045  23.40654
 Alpha virt. eigenvalues --   23.44127  23.44594  23.46597  23.48922  23.49380
 Alpha virt. eigenvalues --   23.50941  23.53657  23.58023  23.62620  23.63972
 Alpha virt. eigenvalues --   23.71786  23.79513  23.88118  23.98786  24.08922
 Alpha virt. eigenvalues --   24.09016  32.58934  32.62791  33.09882  33.26402
 Alpha virt. eigenvalues --   34.48155  34.48522  34.61513  34.61674  34.89410
 Alpha virt. eigenvalues --   34.89766  42.92125  42.92279  44.17521  44.21090
 Alpha virt. eigenvalues --   44.23295  44.26360  44.26793  44.29725  44.31366
 Alpha virt. eigenvalues --   44.41999  44.46772  44.50279  44.52866  44.61961
 Alpha virt. eigenvalues --   44.62551  57.37472  57.56819 117.58928 117.59002
          Condensed to atoms (all electrons):
 Mulliken charges:
               1
     1  B    0.341094
     2  N   -0.074600
     3  C    0.088859
     4  C   -0.030696
     5  C    0.018535
     6  C    0.088213
     7  C    0.207578
     8  C   -0.128560
     9  O   -0.274376
    10  C   -0.454935
    11  C    0.122052
    12  C   -0.018121
    13  N    0.485618
    14  O   -0.333604
    15  O   -0.335767
    16  C    0.002333
    17  C   -0.050918
    18  C   -0.058443
    19  C   -0.106235
    20  N    0.499887
    21  O   -0.357455
    22  O   -0.355596
    23  C    0.097935
    24  N   -0.075091
    25  C    0.083248
    26  C   -0.043220
    27  C    0.084758
    28  C   -0.517845
    29  I   -0.034791
    30  C   -0.169003
    31  C   -0.053697
    32  C   -0.002923
    33  C   -0.124033
    34  C   -0.194274
    35  C    0.234549
    36  O   -0.291329
    37  C   -0.142139
    38  C   -0.105499
    39  O   -0.340682
    40  C   -0.097560
    41  C   -0.108773
    42  O   -0.345307
    43  C   -0.123215
    44  C   -0.051019
    45  O   -0.337487
    46  C   -0.204381
    47  C   -0.169060
    48  C   -0.182138
    49  C   -0.393409
    50  I   -0.038208
    51  C   -0.166411
    52  C   -0.053369
    53  C   -0.005905
    54  C   -0.142228
    55  C   -0.193341
    56  C    0.237426
    57  O   -0.290429
    58  C   -0.156378
    59  C   -0.114295
    60  O   -0.339115
    61  C   -0.052389
    62  C   -0.100637
    63  O   -0.347533
    64  C   -0.051400
    65  C   -0.080359
    66  O   -0.354150
    67  C   -0.197073
    68  C   -0.178081
    69  C   -0.153941
    70  F   -0.339598
    71  F   -0.342017
    72  H    0.264670
    73  H    0.198495
    74  H    0.209863
    75  H    0.203769
    76  H    0.174922
    77  H    0.173851
    78  H    0.157047
    79  H    0.183689
    80  H    0.119373
    81  H    0.127701
    82  H    0.144893
    83  H    0.158329
    84  H    0.158475
    85  H    0.161095
    86  H    0.153495
    87  H    0.137586
    88  H    0.134997
    89  H    0.139543
    90  H    0.143860
    91  H    0.138548
    92  H    0.126891
    93  H    0.139907
    94  H    0.120746
    95  H    0.125700
    96  H    0.121064
    97  H    0.122496
    98  H    0.134632
    99  H    0.148953
   100  H    0.150945
   101  H    0.183622
   102  H    0.143128
   103  H    0.131471
   104  H    0.124548
   105  H    0.129382
   106  H    0.153142
   107  H    0.159074
   108  H    0.163884
   109  H    0.171664
   110  H    0.152677
   111  H    0.140549
   112  H    0.129129
   113  H    0.118857
   114  H    0.131366
   115  H    0.123078
   116  H    0.121833
   117  H    0.117573
   118  H    0.127276
   119  H    0.116737
   120  H    0.120102
   121  H    0.121425
   122  H    0.137562
   123  H    0.152504
   124  H    0.144830
 Sum of Mulliken charges =  -0.00000
 Mulliken charges with hydrogens summed into heavy atoms:
               1
     1  B    0.341094
     2  N   -0.074600
     3  C    0.088859
     4  C   -0.030696
     5  C    0.018535
     6  C    0.088213
     7  C    0.207578
     8  C   -0.128560
     9  O   -0.274376
    10  C    0.008231
    11  C    0.122052
    12  C   -0.018121
    13  N    0.485618
    14  O   -0.333604
    15  O   -0.335767
    16  C    0.212195
    17  C   -0.050918
    18  C    0.145326
    19  C    0.068687
    20  N    0.499887
    21  O   -0.357455
    22  O   -0.355596
    23  C    0.097935
    24  N   -0.075091
    25  C    0.083248
    26  C   -0.043220
    27  C    0.084758
    28  C   -0.003257
    29  I   -0.034791
    30  C   -0.049630
    31  C    0.074004
    32  C   -0.002923
    33  C    0.020860
    34  C   -0.035945
    35  C    0.234549
    36  O   -0.291329
    37  C    0.177431
    38  C    0.185583
    39  O   -0.340682
    40  C    0.176980
    41  C    0.173636
    42  O   -0.345307
    43  C    0.143583
    44  C    0.195428
    45  O   -0.337487
    46  C    0.173811
    47  C   -0.020108
    48  C   -0.031193
    49  C    0.064812
    50  I   -0.038208
    51  C   -0.041862
    52  C    0.076014
    53  C   -0.005905
    54  C    0.010914
    55  C   -0.034268
    56  C    0.237426
    57  O   -0.290429
    58  C    0.179170
    59  C    0.178930
    60  O   -0.339115
    61  C    0.195597
    62  C    0.153806
    63  O   -0.347533
    64  C    0.188006
    65  C    0.163653
    66  O   -0.354150
    67  C    0.182016
    68  C   -0.025576
    69  C   -0.009111
    70  F   -0.339598
    71  F   -0.342017
 Electronic spatial extent (au):  <R**2>=         144897.9474
 Charge=             -0.0000 electrons
 Dipole moment (field-independent basis, Debye):
    X=             -8.4171    Y=             -3.9291    Z=              9.1366  Tot=             13.0293
 Quadrupole moment (field-independent basis, Debye-Ang):
   XX=           -459.5249   YY=           -386.7539   ZZ=           -447.6916
   XY=             16.1486   XZ=             30.3112   YZ=             -6.2777
 Traceless Quadrupole moment (field-independent basis, Debye-Ang):
   XX=            -28.2014   YY=             44.5696   ZZ=            -16.3681
   XY=             16.1486   XZ=             30.3112   YZ=             -6.2777
 Octapole moment (field-independent basis, Debye-Ang**2):
  XXX=          -1830.8635  YYY=           -273.0398  ZZZ=             -3.5167  XYY=           -703.4764
  XXY=            573.9911  XXZ=            219.4314  XZZ=           -172.5137  YZZ=             -2.9245
  YYZ=             33.7356  XYZ=            -53.7173
 Hexadecapole moment (field-independent basis, Debye-Ang**3):
 XXXX=        -150118.1731 YYYY=         -48745.2220 ZZZZ=          -3495.6657 XXXY=           1210.0185
 XXXZ=           5639.8864 YYYX=           3333.8006 YYYZ=           -187.6410 ZZZX=             92.5047
 ZZZY=            -22.8718 XXYY=         -26686.3632 XXZZ=         -22421.0963 YYZZ=          -8872.8829
 XXYZ=           1365.5334 YYXZ=            -46.4150 ZZXY=             32.0785
 N-N= 1.109871850348D+04 E-N=-3.121414276322D+04  KE= 3.529795650731D+03
 Leave Link  601 at Thu Nov  6 19:02:37 2025, MaxMem= 30870077440 cpu:             153.8 elap:               3.0
 (Enter /public/software/gauss/g16/l9999.exe)
 1\1\GINC-CU319\SP\RM062X\def2TZVPP\C49H53B1F2I2N4O13\BAIDING\06-Nov-20
 25\0\\#p M062X/DEF2TZVPP scrf=(solvent=water) em=GD3\\Energy calculati
 on for BE_I\\0,1\B,0,1.909992,0.445812,0.084028\N,0,2.653109,-0.894908
 ,-0.162638\C,0,2.087258,-2.132108,-0.058059\C,0,3.130177,-3.093937,-0.
 237634\C,0,4.335356,-2.429003,-0.442332\C,0,4.02257,-1.027514,-0.38411
 9\C,0,4.830878,0.11422,-0.521312\C,0,6.32911,-0.080748,-0.679385\O,0,6
 .823216,-0.350445,-1.75923\C,0,7.152921,0.070942,0.600975\C,0,8.432686
 ,-0.728607,0.620786\C,0,9.504035,-0.582069,-0.282106\N,0,9.537457,0.49
 49,-1.277273\O,0,9.066126,1.588386,-0.963888\O,0,10.073494,0.261358,-2
 .360528\C,0,10.619463,-1.412244,-0.270766\C,0,10.684647,-2.401515,0.70
 0486\C,0,9.666647,-2.584012,1.633283\C,0,8.552773,-1.754424,1.571577\N
 ,0,11.860405,-3.270317,0.738811\O,0,12.750032,-3.084506,-0.094349\O,0,
 11.903938,-4.148123,1.6034\C,0,4.283563,1.409669,-0.457485\N,0,2.94334
 6,1.583989,-0.118655\C,0,2.6446,2.916695,-0.107944\C,0,3.832076,3.6192
 2,-0.472454\C,0,4.855911,2.70199,-0.696838\C,0,6.248389,3.038554,-1.12
 3274\I,0,4.114307,5.690306,-0.524308\C,0,1.331059,3.360691,0.293355\C,
 0,0.744735,4.539989,-0.03359\C,0,-0.576126,4.994557,0.380834\C,0,-1.05
 0781,6.230627,-0.111152\C,0,-2.296095,6.723685,0.245861\C,0,-3.119516,
 5.993321,1.118222\O,0,-4.315143,6.580128,1.423696\C,0,-5.257337,5.9104
 53,2.281159\C,0,-6.088654,4.874572,1.535677\O,0,-6.818993,5.443442,0.4
 4879\C,0,-8.060677,6.056376,0.806729\C,0,-9.196633,5.052391,0.978005\O
 ,0,-9.368812,4.154343,-0.122274\C,0,-9.688703,4.725105,-1.392232\C,0,-
 11.070399,5.350132,-1.495133\O,0,-11.073305,6.65222,-0.915401\C,0,-12.
 345125,7.278671,-1.01226\C,0,-2.672456,4.759181,1.619144\C,0,-1.42031,
 4.277259,1.252409\C,0,5.660403,-3.066244,-0.717502\I,0,2.899088,-5.169
 947,-0.361754\C,0,0.664995,-2.264049,0.142113\C,0,0.0228,-3.324555,0.6
 95683\C,0,-1.41462,-3.451722,0.889832\C,0,-2.358192,-2.499585,0.438445
 \C,0,-3.713258,-2.680242,0.65252\C,0,-4.184871,-3.821913,1.328348\O,0,
 -5.539068,-3.87741,1.499066\C,0,-6.149083,-5.034204,2.098778\C,0,-6.30
 1707,-6.186976,1.113559\O,0,-7.01777,-5.838498,-0.066716\C,0,-8.419401
 ,-5.652216,0.119504\C,0,-9.036223,-5.560954,-1.275281\O,0,-10.417041,-
 5.21931,-1.240112\C,0,-11.2825,-6.291971,-0.868704\C,0,-12.708124,-5.8
 30861,-1.168123\O,0,-13.683782,-6.776349,-0.745192\C,0,-13.852356,-7.8
 68947,-1.644167\C,0,-3.27058,-4.78247,1.781908\C,0,-1.909344,-4.587096
 ,1.559488\F,0,1.392308,0.475119,1.386569\F,0,0.86013,0.594445,-0.83397
 4\H,0,7.353414,1.143282,0.709705\H,0,6.533498,-0.219712,1.45211\H,0,11
 .418738,-1.275868,-0.986153\H,0,9.741357,-3.361512,2.382752\H,0,7.7446
 84,-1.90332,2.279385\H,0,6.715519,2.234504,-1.689778\H,0,6.239657,3.92
 9433,-1.756718\H,0,6.8886,3.262579,-0.261595\H,0,0.783025,2.643209,0.8
 94415\H,0,1.274559,5.228263,-0.684814\H,0,-0.423446,6.807906,-0.784958
 \H,0,-2.651938,7.675671,-0.134928\H,0,-4.752776,5.450917,3.13744\H,0,-
 5.894819,6.712937,2.660146\H,0,-5.443159,4.107464,1.098213\H,0,-6.7511
 6,4.380015,2.258136\H,0,-7.97461,6.637018,1.735252\H,0,-8.286758,6.763
 718,0.004176\H,0,-9.000271,4.401096,1.835565\H,0,-10.117599,5.610625,1
 .188156\H,0,-8.932358,5.455545,-1.708117\H,0,-9.647558,3.884982,-2.092
 609\H,0,-11.34507,5.416975,-2.560099\H,0,-11.81215,4.704778,-0.999441\
 H,0,-12.657725,7.391182,-2.060638\H,0,-13.118697,6.70796,-0.478614\H,0
 ,-12.257389,8.269134,-0.558874\H,0,-3.2874,4.171215,2.289173\H,0,-1.10
 0994,3.322505,1.658099\H,0,6.040205,-2.791229,-1.705321\H,0,6.414299,-
 2.775774,0.019824\H,0,5.569813,-4.152801,-0.67986\H,0,0.090386,-1.3964
 45,-0.162241\H,0,0.60576,-4.164001,1.061685\H,0,-2.028716,-1.610809,-0
 .090209\H,0,-4.43503,-1.948417,0.303889\H,0,-5.589511,-5.3653,2.979778
 \H,0,-7.124453,-4.679276,2.438183\H,0,-5.320783,-6.529635,0.772512\H,0
 ,-6.791713,-7.020998,1.638128\H,0,-8.840051,-6.494301,0.687017\H,0,-8.
 635758,-4.727107,0.671373\H,0,-8.535379,-4.762879,-1.832799\H,0,-8.882
 933,-6.505491,-1.816378\H,0,-11.028316,-7.194336,-1.442109\H,0,-11.193
 196,-6.53153,0.199741\H,0,-12.907698,-4.907604,-0.614055\H,0,-12.81287
 ,-5.614061,-2.240951\H,0,-14.105852,-7.516998,-2.654072\H,0,-12.957827
 ,-8.50151,-1.708154\H,0,-14.679402,-8.472234,-1.260955\H,0,-3.599944,-
 5.673785,2.301342\H,0,-1.207293,-5.336346,1.915234\\Version=ES64L-G16R
 evA.03\State=1-A\HF=-3915.7271458\RMSD=3.216e-09\Dipole=-3.3115306,-1.
 5458269,3.5946329\Quadrupole=-20.9670717,33.1363876,-12.169316,12.0060
 918,22.5356004,-4.6673475\PG=C01 [X(C49H53B1F2I2N4O13)]\\@


 THE ENLIGHTENED ONE, BECAUSE HE SAW MANKIND DROWNING  
 IN THE GREAT SEA OF BIRTH, DEATH, AND SORROW, LONGED TO SAVE 
 THEM, FOR THIS HE WAS MOVED TO PITY.                         
 BECAUSE HE SAW MEN OF THE WORLD STRAYING IN FALSE PATHS, AND 
 NONE TO GUIDE THEM, FOR THIS HE WAS MOVED TO PITY.           
                     ..................                       
 BECAUSE HE SAW THE MEN OF THE WORLD PLOUGHING THEIR FIELDS,  
 SOWING THE SEED, TRAFFICKING, HUCKSTERING, BUYING, SELLING,  
 AND AT THE END WINNOWING NOTHING BUT BITTERNESS,             
 FOR THIS HE WAS MOVED TO PITY......                   
                   BUDAH'S PITY - UPSAKA SILA SUTRA           
 Job cpu time:       1 days 10 hours 15 minutes 55.7 seconds.
 Elapsed time:       0 days  0 hours 32 minutes 49.8 seconds.
 File lengths (MBytes):  RWF=   5992 Int=      0 D2E=      0 Chk=    514 Scr=      1
 Normal termination of Gaussian 16 at Thu Nov  6 19:02:39 2025.
