 Entering Gaussian System, Link 0=g16
 Input=BE_I_reduced_i_sp.gjf
 Output=BE_I_reduced_i_sp.log
 Initial command:
 /public/software/gauss/g16/l1.exe "/public/home/baiding/1113_modified_sp/tmp_BE_I_reduced_i_sp_1602077/Gau-279430.inp" -scrdir="/public/home/baiding/1113_modified_sp/tmp_BE_I_reduced_i_sp_1602077/"
 Entering Link 1 = /public/software/gauss/g16/l1.exe PID=    279431.
  
 Copyright (c) 1988,1990,1992,1993,1995,1998,2003,2009,2016,
            Gaussian, Inc.  All Rights Reserved.
  
 This is part of the Gaussian(R) 16 program.  It is based on
 the Gaussian(R) 09 system (copyright 2009, Gaussian, Inc.),
 the Gaussian(R) 03 system (copyright 2003, Gaussian, Inc.),
 the Gaussian(R) 98 system (copyright 1998, Gaussian, Inc.),
 the Gaussian(R) 94 system (copyright 1995, Gaussian, Inc.),
 the Gaussian 92(TM) system (copyright 1992, Gaussian, Inc.),
 the Gaussian 90(TM) system (copyright 1990, Gaussian, Inc.),
 the Gaussian 88(TM) system (copyright 1988, Gaussian, Inc.),
 the Gaussian 86(TM) system (copyright 1986, Carnegie Mellon
 University), and the Gaussian 82(TM) system (copyright 1983,
 Carnegie Mellon University). Gaussian is a federally registered
 trademark of Gaussian, Inc.
  
 This software contains proprietary and confidential information,
 including trade secrets, belonging to Gaussian, Inc.
  
 This software is provided under written license and may be
 used, copied, transmitted, or stored only in accord with that
 written license.
  
 The following legend is applicable only to US Government
 contracts under FAR:
  
                    RESTRICTED RIGHTS LEGEND
  
 Use, reproduction and disclosure by the US Government is
 subject to restrictions as set forth in subparagraphs (a)
 and (c) of the Commercial Computer Software - Restricted
 Rights clause in FAR 52.227-19.
  
 Gaussian, Inc.
 340 Quinnipiac St., Bldg. 40, Wallingford CT 06492
  
  
 ---------------------------------------------------------------
 Warning -- This program may not be used in any manner that
 competes with the business of Gaussian, Inc. or will provide
 assistance to any competitor of Gaussian, Inc.  The licensee
 of this program is prohibited from giving any competitor of
 Gaussian, Inc. access to this program.  By using this program,
 the user acknowledges that Gaussian, Inc. is engaged in the
 business of creating and licensing software in the field of
 computational chemistry and represents and warrants to the
 licensee that it is not a competitor of Gaussian, Inc. and that
 it will not use this program in any manner prohibited above.
 ---------------------------------------------------------------
  

 Cite this work as:
 Gaussian 16, Revision A.03,
 M. J. Frisch, G. W. Trucks, H. B. Schlegel, G. E. Scuseria, 
 M. A. Robb, J. R. Cheeseman, G. Scalmani, V. Barone, 
 G. A. Petersson, H. Nakatsuji, X. Li, M. Caricato, A. V. Marenich, 
 J. Bloino, B. G. Janesko, R. Gomperts, B. Mennucci, H. P. Hratchian, 
 J. V. Ortiz, A. F. Izmaylov, J. L. Sonnenberg, D. Williams-Young, 
 F. Ding, F. Lipparini, F. Egidi, J. Goings, B. Peng, A. Petrone, 
 T. Henderson, D. Ranasinghe, V. G. Zakrzewski, J. Gao, N. Rega, 
 G. Zheng, W. Liang, M. Hada, M. Ehara, K. Toyota, R. Fukuda, 
 J. Hasegawa, M. Ishida, T. Nakajima, Y. Honda, O. Kitao, H. Nakai, 
 T. Vreven, K. Throssell, J. A. Montgomery, Jr., J. E. Peralta, 
 F. Ogliaro, M. J. Bearpark, J. J. Heyd, E. N. Brothers, K. N. Kudin, 
 V. N. Staroverov, T. A. Keith, R. Kobayashi, J. Normand, 
 K. Raghavachari, A. P. Rendell, J. C. Burant, S. S. Iyengar, 
 J. Tomasi, M. Cossi, J. M. Millam, M. Klene, C. Adamo, R. Cammi, 
 J. W. Ochterski, R. L. Martin, K. Morokuma, O. Farkas, 
 J. B. Foresman, and D. J. Fox, Gaussian, Inc., Wallingford CT, 2016.
 
 ******************************************
 Gaussian 16:  ES64L-G16RevA.03 25-Dec-2016
                14-Nov-2025 
 ******************************************
 %nprocshared=64
 Will use up to   64 processors via shared memory.
 %mem=230GB
 %chk=BE_I_reduced_i_sp.chk
 ----------------------------------------------
 #p M062X/DEF2TZVPP scrf=(solvent=water) em=GD3
 ----------------------------------------------
 1/38=1,172=1/1;
 2/12=2,17=6,18=5,40=1/2;
 3/5=44,7=202,11=2,25=1,30=1,70=2201,72=1,74=-55,124=31/1,2,3;
 4//1;
 5/5=2,38=5,53=1/2;
 6/7=2,8=2,9=2,10=2,28=1/1;
 99/5=1,9=1/99;
 Leave Link    1 at Fri Nov 14 03:58:30 2025, MaxMem= 30870077440 cpu:              12.3 elap:               0.2
 (Enter /public/software/gauss/g16/l101.exe)
 -------------------------------------
 Energy calculation for BE_I_reduced_i
 -------------------------------------
 Symbolic Z-matrix:
 Charge = -1 Multiplicity = 2
 B                    -2.40104  -0.363     0.69646 
 N                    -3.35188  -1.59175   0.69367 
 C                    -2.98635  -2.90344   0.42639 
 C                    -4.17623  -3.66577   0.45643 
 C                    -5.27274  -2.82522   0.71166 
 C                    -4.73036  -1.51413   0.81014 
 C                    -5.34312  -0.23631   1.04111 
 C                    -6.6463    0.04482   0.4576 
 O                    -7.38063  -0.75853  -0.12182 
 C                    -8.23649   1.73205  -0.09247 
 C                    -8.16753   1.85838  -1.59796 
 C                    -6.94941   2.04843  -2.26465 
 C                    -6.91545   2.20745  -3.64581 
 C                    -8.11834   2.18172  -4.35316 
 C                    -9.34744   1.99826  -3.71527 
 C                    -9.36092   1.83465  -2.33597 
 N                    -8.09185   2.34906  -5.79901 
 O                    -6.99929   2.50657  -6.35604 
 O                    -9.16355   2.3283   -6.41558 
 C                    -4.52287   0.81647   1.59345 
 N                    -3.15328   0.82017   1.36169 
 C                    -2.59144   1.90793   2.01365 
 C                    -3.63727   2.53927   2.71743 
 C                    -4.85264   1.8795    2.46758 
 C                    -6.17138   2.17774   3.11354 
 C                    -1.23346   2.38463   1.92397 
 C                    -0.30463   2.11536   0.97134 
 C                     1.04988   2.65978   0.91605 
 C                     1.6266    3.45469   1.93408 
 C                     2.91173   3.95911   1.81349 
 C                     3.68027   3.68656   0.66798 
 O                     4.93546   4.23388   0.64866 
 C                     5.74697   4.0418   -0.5185 
 C                     7.06047   4.77063  -0.29294 
 O                     6.92116   6.17314  -0.09548 
 C                     6.62418   6.90931  -1.28294 
 C                     6.71967   8.38911  -0.96022 
 O                     8.05386   8.77747  -0.61914 
 C                     8.70362   9.62993  -1.56092 
 C                     9.05391   8.95694  -2.88617 
 O                     9.79932   7.7493   -2.75811 
 C                     11.12951   7.93513  -2.28661 
 C                     3.14027   2.89249  -0.35051 
 C                     1.84461   2.39273  -0.2145 
 C                    -6.67141  -3.27854   1.00411 
 C                    -1.60737  -3.25869   0.18797 
 C                    -1.15282  -4.33109  -0.51054 
 C                     0.24716  -4.68615  -0.72844 
 C                     0.55014  -5.77768  -1.56368 
 C                     1.86205  -6.17424  -1.8241 
 C                     2.92073  -5.47015  -1.23855 
 O                     4.2457   -5.76292  -1.42032 
 C                     4.58791  -6.89451  -2.2339 
 C                     6.09431  -7.00335  -2.27364 
 O                     6.56575  -7.34597  -0.97185 
 C                     7.9726   -7.57234  -0.90517 
 C                     8.76785  -6.2666   -0.81124 
 O                     10.16525  -6.54592  -0.68294 
 C                     10.61871  -6.69727   0.66301 
 C                     11.05625  -5.3532    1.23691 
 O                     11.5064  -5.57624   2.56666 
 C                     11.94183  -4.37883   3.19518 
 C                     2.64517  -4.37796  -0.39676 
 C                     1.33667  -3.99694  -0.1465 
 F                    -1.25678  -0.65901   1.45791 
 F                    -2.01015  -0.05247  -0.62286 
 H                    -9.01417   1.01983   0.19275 
 H                    -8.48193   2.70456   0.3456 
 H                    -6.02318   2.06743  -1.70143 
 H                    -5.97844   2.35182  -4.16859 
 H                    -10.26368   1.97808  -4.29144 
 H                    -10.30715   1.68275  -1.8253 
 H                    -6.82736   1.30517   3.10175 
 H                    -6.01962   2.47391   4.15666 
 H                    -6.70478   2.99693   2.61746 
 H                    -0.98361   3.10075   2.70303 
 H                    -0.56927   1.4653    0.14372 
 H                     1.06408   3.67744   2.83555 
 H                     3.34634   4.56909   2.59956 
 H                     5.95462   2.97494  -0.67064 
 H                     5.22194   4.41901  -1.40372 
 H                     7.53649   4.38497   0.61416 
 H                     7.72209   4.5582   -1.14541 
 H                     7.33341   6.63963  -2.07734 
 H                     5.60761   6.69231  -1.6418 
 H                     6.34305   8.96828  -1.81153 
 H                     6.07907   8.60825  -0.09657 
 H                     8.08514   10.51263  -1.78318 
 H                     9.60867   9.98125  -1.05636 
 H                     8.14166   8.68111  -3.42413 
 H                     9.60105   9.68691  -3.50385 
 H                     11.63835   6.97223  -2.38052 
 H                     11.66633   8.68182  -2.88903 
 H                     11.16113   8.2449   -1.23419 
 H                     3.71121   2.65813  -1.24091 
 H                     1.43469   1.77885  -1.01246 
 H                    -7.21266  -2.53919   1.59445 
 H                    -7.25271  -3.45865   0.09286 
 H                    -6.64929  -4.2176    1.56659 
 H                    -0.88867  -2.55685   0.59485 
 H                    -1.86596  -4.99852  -0.98475 
 H                    -0.26476  -6.33016  -2.02428 
 H                     2.04434  -7.02042  -2.47538 
 H                     4.14956  -7.80644  -1.81097 
 H                     4.20883  -6.75952  -3.25393 
 H                     6.36768  -7.78396  -2.99855 
 H                     6.52402  -6.05386  -2.61928 
 H                     8.14383  -8.17106  -0.00461 
 H                     8.31464  -8.15593  -1.7715 
 H                     8.65059  -5.674    -1.72366 
 H                     8.39996  -5.66687   0.03053 
 H                     9.84408  -7.14224   1.29979 
 H                     11.4711  -7.38422   0.64037 
 H                     11.86141  -4.92791   0.61814 
 H                     10.21657  -4.64087   1.22818 
 H                     12.26686  -4.63934   4.20571 
 H                     12.78424  -3.92322   2.65486 
 H                     11.13015  -3.63981   3.25996 
 H                     3.47635  -3.84544   0.05522 
 H                     1.15785  -3.15531   0.51537 
 O                    -6.98503   1.37353   0.50736 
 I                    -4.33731  -5.75406   0.35442 
 I                    -3.43765   4.24756   3.91583 
 
 ITRead=  0  0  0  0  0  0  0  0  0  0  0  0  0  0  0  0  0  0  0  0
 ITRead=  0  0  0  0  0  0  0  0  0  0  0  0  0  0  0  0  0  0  0  0
 ITRead=  0  0  0  0  0  0  0  0  0  0  0  0  0  0  0  0  0  0  0  0
 ITRead=  0  0  0  0  0  0  0  0  0  0  0  0  0  0  0  0  0  0  0  0
 ITRead=  0  0  0  0  0  0  0  0  0  0  0  0  0  0  0  0  0  0  0  0
 ITRead=  0  0  0  0  0  0  0  0  0  0  0  0  0  0  0  0  0  0  0  0
 ITRead=  0  0  0
 MicOpt= -1 -1 -1 -1 -1 -1 -1 -1 -1 -1 -1 -1 -1 -1 -1 -1 -1 -1 -1 -1
 MicOpt= -1 -1 -1 -1 -1 -1 -1 -1 -1 -1 -1 -1 -1 -1 -1 -1 -1 -1 -1 -1
 MicOpt= -1 -1 -1 -1 -1 -1 -1 -1 -1 -1 -1 -1 -1 -1 -1 -1 -1 -1 -1 -1
 MicOpt= -1 -1 -1 -1 -1 -1 -1 -1 -1 -1 -1 -1 -1 -1 -1 -1 -1 -1 -1 -1
 MicOpt= -1 -1 -1 -1 -1 -1 -1 -1 -1 -1 -1 -1 -1 -1 -1 -1 -1 -1 -1 -1
 MicOpt= -1 -1 -1 -1 -1 -1 -1 -1 -1 -1 -1 -1 -1 -1 -1 -1 -1 -1 -1 -1
 MicOpt= -1 -1 -1
 NAtoms=    123 NQM=      123 NQMF=       0 NMMI=      0 NMMIF=      0
                NMic=       0 NMicF=      0.
                    Isotopes and Nuclear Properties:
 (Nuclear quadrupole moments (NQMom) in fm**2, nuclear magnetic moments (NMagM)
  in nuclear magnetons)

  Atom         1           2           3           4           5           6           7           8           9          10
 IAtWgt=          11          14          12          12          12          12          12          12          16          12
 AtmWgt=  11.0093053  14.0030740  12.0000000  12.0000000  12.0000000  12.0000000  12.0000000  12.0000000  15.9949146  12.0000000
 NucSpn=           3           2           0           0           0           0           0           0           0           0
 AtZEff=  -0.0000000  -0.0000000  -0.0000000  -0.0000000  -0.0000000  -0.0000000  -0.0000000  -0.0000000  -0.0000000  -0.0000000
 NQMom=    4.0590000   2.0440000   0.0000000   0.0000000   0.0000000   0.0000000   0.0000000   0.0000000   0.0000000   0.0000000
 NMagM=    2.6886370   0.4037610   0.0000000   0.0000000   0.0000000   0.0000000   0.0000000   0.0000000   0.0000000   0.0000000
 AtZNuc=   5.0000000   7.0000000   6.0000000   6.0000000   6.0000000   6.0000000   6.0000000   6.0000000   8.0000000   6.0000000

  Atom        11          12          13          14          15          16          17          18          19          20
 IAtWgt=          12          12          12          12          12          12          14          16          16          12
 AtmWgt=  12.0000000  12.0000000  12.0000000  12.0000000  12.0000000  12.0000000  14.0030740  15.9949146  15.9949146  12.0000000
 NucSpn=           0           0           0           0           0           0           2           0           0           0
 AtZEff=  -0.0000000  -0.0000000  -0.0000000  -0.0000000  -0.0000000  -0.0000000  -0.0000000  -0.0000000  -0.0000000  -0.0000000
 NQMom=    0.0000000   0.0000000   0.0000000   0.0000000   0.0000000   0.0000000   2.0440000   0.0000000   0.0000000   0.0000000
 NMagM=    0.0000000   0.0000000   0.0000000   0.0000000   0.0000000   0.0000000   0.4037610   0.0000000   0.0000000   0.0000000
 AtZNuc=   6.0000000   6.0000000   6.0000000   6.0000000   6.0000000   6.0000000   7.0000000   8.0000000   8.0000000   6.0000000

  Atom        21          22          23          24          25          26          27          28          29          30
 IAtWgt=          14          12          12          12          12          12          12          12          12          12
 AtmWgt=  14.0030740  12.0000000  12.0000000  12.0000000  12.0000000  12.0000000  12.0000000  12.0000000  12.0000000  12.0000000
 NucSpn=           2           0           0           0           0           0           0           0           0           0
 AtZEff=  -0.0000000  -0.0000000  -0.0000000  -0.0000000  -0.0000000  -0.0000000  -0.0000000  -0.0000000  -0.0000000  -0.0000000
 NQMom=    2.0440000   0.0000000   0.0000000   0.0000000   0.0000000   0.0000000   0.0000000   0.0000000   0.0000000   0.0000000
 NMagM=    0.4037610   0.0000000   0.0000000   0.0000000   0.0000000   0.0000000   0.0000000   0.0000000   0.0000000   0.0000000
 AtZNuc=   7.0000000   6.0000000   6.0000000   6.0000000   6.0000000   6.0000000   6.0000000   6.0000000   6.0000000   6.0000000

  Atom        31          32          33          34          35          36          37          38          39          40
 IAtWgt=          12          16          12          12          16          12          12          16          12          12
 AtmWgt=  12.0000000  15.9949146  12.0000000  12.0000000  15.9949146  12.0000000  12.0000000  15.9949146  12.0000000  12.0000000
 NucSpn=           0           0           0           0           0           0           0           0           0           0
 AtZEff=  -0.0000000  -0.0000000  -0.0000000  -0.0000000  -0.0000000  -0.0000000  -0.0000000  -0.0000000  -0.0000000  -0.0000000
 NQMom=    0.0000000   0.0000000   0.0000000   0.0000000   0.0000000   0.0000000   0.0000000   0.0000000   0.0000000   0.0000000
 NMagM=    0.0000000   0.0000000   0.0000000   0.0000000   0.0000000   0.0000000   0.0000000   0.0000000   0.0000000   0.0000000
 AtZNuc=   6.0000000   8.0000000   6.0000000   6.0000000   8.0000000   6.0000000   6.0000000   8.0000000   6.0000000   6.0000000

  Atom        41          42          43          44          45          46          47          48          49          50
 IAtWgt=          16          12          12          12          12          12          12          12          12          12
 AtmWgt=  15.9949146  12.0000000  12.0000000  12.0000000  12.0000000  12.0000000  12.0000000  12.0000000  12.0000000  12.0000000
 NucSpn=           0           0           0           0           0           0           0           0           0           0
 AtZEff=  -0.0000000  -0.0000000  -0.0000000  -0.0000000  -0.0000000  -0.0000000  -0.0000000  -0.0000000  -0.0000000  -0.0000000
 NQMom=    0.0000000   0.0000000   0.0000000   0.0000000   0.0000000   0.0000000   0.0000000   0.0000000   0.0000000   0.0000000
 NMagM=    0.0000000   0.0000000   0.0000000   0.0000000   0.0000000   0.0000000   0.0000000   0.0000000   0.0000000   0.0000000
 AtZNuc=   8.0000000   6.0000000   6.0000000   6.0000000   6.0000000   6.0000000   6.0000000   6.0000000   6.0000000   6.0000000

  Atom        51          52          53          54          55          56          57          58          59          60
 IAtWgt=          12          16          12          12          16          12          12          16          12          12
 AtmWgt=  12.0000000  15.9949146  12.0000000  12.0000000  15.9949146  12.0000000  12.0000000  15.9949146  12.0000000  12.0000000
 NucSpn=           0           0           0           0           0           0           0           0           0           0
 AtZEff=  -0.0000000  -0.0000000  -0.0000000  -0.0000000  -0.0000000  -0.0000000  -0.0000000  -0.0000000  -0.0000000  -0.0000000
 NQMom=    0.0000000   0.0000000   0.0000000   0.0000000   0.0000000   0.0000000   0.0000000   0.0000000   0.0000000   0.0000000
 NMagM=    0.0000000   0.0000000   0.0000000   0.0000000   0.0000000   0.0000000   0.0000000   0.0000000   0.0000000   0.0000000
 AtZNuc=   6.0000000   8.0000000   6.0000000   6.0000000   8.0000000   6.0000000   6.0000000   8.0000000   6.0000000   6.0000000

  Atom        61          62          63          64          65          66          67          68          69          70
 IAtWgt=          16          12          12          12          19          19           1           1           1           1
 AtmWgt=  15.9949146  12.0000000  12.0000000  12.0000000  18.9984033  18.9984033   1.0078250   1.0078250   1.0078250   1.0078250
 NucSpn=           0           0           0           0           1           1           1           1           1           1
 AtZEff=  -0.0000000  -0.0000000  -0.0000000  -0.0000000  -0.0000000  -0.0000000  -0.0000000  -0.0000000  -0.0000000  -0.0000000
 NQMom=    0.0000000   0.0000000   0.0000000   0.0000000   0.0000000   0.0000000   0.0000000   0.0000000   0.0000000   0.0000000
 NMagM=    0.0000000   0.0000000   0.0000000   0.0000000   2.6288670   2.6288670   2.7928460   2.7928460   2.7928460   2.7928460
 AtZNuc=   8.0000000   6.0000000   6.0000000   6.0000000   9.0000000   9.0000000   1.0000000   1.0000000   1.0000000   1.0000000

  Atom        71          72          73          74          75          76          77          78          79          80
 IAtWgt=           1           1           1           1           1           1           1           1           1           1
 AtmWgt=   1.0078250   1.0078250   1.0078250   1.0078250   1.0078250   1.0078250   1.0078250   1.0078250   1.0078250   1.0078250
 NucSpn=           1           1           1           1           1           1           1           1           1           1
 AtZEff=  -0.0000000  -0.0000000  -0.0000000  -0.0000000  -0.0000000  -0.0000000  -0.0000000  -0.0000000  -0.0000000  -0.0000000
 NQMom=    0.0000000   0.0000000   0.0000000   0.0000000   0.0000000   0.0000000   0.0000000   0.0000000   0.0000000   0.0000000
 NMagM=    2.7928460   2.7928460   2.7928460   2.7928460   2.7928460   2.7928460   2.7928460   2.7928460   2.7928460   2.7928460
 AtZNuc=   1.0000000   1.0000000   1.0000000   1.0000000   1.0000000   1.0000000   1.0000000   1.0000000   1.0000000   1.0000000

  Atom        81          82          83          84          85          86          87          88          89          90
 IAtWgt=           1           1           1           1           1           1           1           1           1           1
 AtmWgt=   1.0078250   1.0078250   1.0078250   1.0078250   1.0078250   1.0078250   1.0078250   1.0078250   1.0078250   1.0078250
 NucSpn=           1           1           1           1           1           1           1           1           1           1
 AtZEff=  -0.0000000  -0.0000000  -0.0000000  -0.0000000  -0.0000000  -0.0000000  -0.0000000  -0.0000000  -0.0000000  -0.0000000
 NQMom=    0.0000000   0.0000000   0.0000000   0.0000000   0.0000000   0.0000000   0.0000000   0.0000000   0.0000000   0.0000000
 NMagM=    2.7928460   2.7928460   2.7928460   2.7928460   2.7928460   2.7928460   2.7928460   2.7928460   2.7928460   2.7928460
 AtZNuc=   1.0000000   1.0000000   1.0000000   1.0000000   1.0000000   1.0000000   1.0000000   1.0000000   1.0000000   1.0000000

  Atom        91          92          93          94          95          96          97          98          99         100
 IAtWgt=           1           1           1           1           1           1           1           1           1           1
 AtmWgt=   1.0078250   1.0078250   1.0078250   1.0078250   1.0078250   1.0078250   1.0078250   1.0078250   1.0078250   1.0078250
 NucSpn=           1           1           1           1           1           1           1           1           1           1
 AtZEff=  -0.0000000  -0.0000000  -0.0000000  -0.0000000  -0.0000000  -0.0000000  -0.0000000  -0.0000000  -0.0000000  -0.0000000
 NQMom=    0.0000000   0.0000000   0.0000000   0.0000000   0.0000000   0.0000000   0.0000000   0.0000000   0.0000000   0.0000000
 NMagM=    2.7928460   2.7928460   2.7928460   2.7928460   2.7928460   2.7928460   2.7928460   2.7928460   2.7928460   2.7928460
 AtZNuc=   1.0000000   1.0000000   1.0000000   1.0000000   1.0000000   1.0000000   1.0000000   1.0000000   1.0000000   1.0000000

  Atom       101         102         103         104         105         106         107         108         109         110
 IAtWgt=           1           1           1           1           1           1           1           1           1           1
 AtmWgt=   1.0078250   1.0078250   1.0078250   1.0078250   1.0078250   1.0078250   1.0078250   1.0078250   1.0078250   1.0078250
 NucSpn=           1           1           1           1           1           1           1           1           1           1
 AtZEff=  -0.0000000  -0.0000000  -0.0000000  -0.0000000  -0.0000000  -0.0000000  -0.0000000  -0.0000000  -0.0000000  -0.0000000
 NQMom=    0.0000000   0.0000000   0.0000000   0.0000000   0.0000000   0.0000000   0.0000000   0.0000000   0.0000000   0.0000000
 NMagM=    2.7928460   2.7928460   2.7928460   2.7928460   2.7928460   2.7928460   2.7928460   2.7928460   2.7928460   2.7928460
 AtZNuc=   1.0000000   1.0000000   1.0000000   1.0000000   1.0000000   1.0000000   1.0000000   1.0000000   1.0000000   1.0000000

  Atom       111         112         113         114         115         116         117         118         119         120
 IAtWgt=           1           1           1           1           1           1           1           1           1           1
 AtmWgt=   1.0078250   1.0078250   1.0078250   1.0078250   1.0078250   1.0078250   1.0078250   1.0078250   1.0078250   1.0078250
 NucSpn=           1           1           1           1           1           1           1           1           1           1
 AtZEff=  -0.0000000  -0.0000000  -0.0000000  -0.0000000  -0.0000000  -0.0000000  -0.0000000  -0.0000000  -0.0000000  -0.0000000
 NQMom=    0.0000000   0.0000000   0.0000000   0.0000000   0.0000000   0.0000000   0.0000000   0.0000000   0.0000000   0.0000000
 NMagM=    2.7928460   2.7928460   2.7928460   2.7928460   2.7928460   2.7928460   2.7928460   2.7928460   2.7928460   2.7928460
 AtZNuc=   1.0000000   1.0000000   1.0000000   1.0000000   1.0000000   1.0000000   1.0000000   1.0000000   1.0000000   1.0000000

  Atom       121         122         123
 IAtWgt=          16         127         127
 AtmWgt=  15.9949146 126.9004000 126.9004000
 NucSpn=           0           5           5
 AtZEff=  -0.0000000  -0.0000000  -0.0000000
 NQMom=    0.0000000 -71.0000000 -71.0000000
 NMagM=    0.0000000   2.8132800   2.8132800
 AtZNuc=   8.0000000  53.0000000  53.0000000
 Leave Link  101 at Fri Nov 14 03:58:30 2025, MaxMem= 30870077440 cpu:               4.7 elap:               0.1
 (Enter /public/software/gauss/g16/l202.exe)
 Stoichiometry    C49H54BF2I2N3O12(1-,2)
 Framework group  C1[X(C49H54BF2I2N3O12)]
 Deg. of freedom   363
 Full point group                 C1      NOp   1
 Largest Abelian subgroup         C1      NOp   1
 Largest concise Abelian subgroup C1      NOp   1
                         Standard orientation:                         
 ---------------------------------------------------------------------
 Center     Atomic      Atomic             Coordinates (Angstroms)
 Number     Number       Type             X           Y           Z
 ---------------------------------------------------------------------
      1          5           0        2.401037   -0.362995   -0.696457
      2          7           0        3.351880   -1.591747   -0.693666
      3          6           0        2.986351   -2.903438   -0.426391
      4          6           0        4.176232   -3.665774   -0.456429
      5          6           0        5.272743   -2.825218   -0.711662
      6          6           0        4.730361   -1.514127   -0.810137
      7          6           0        5.343120   -0.236307   -1.041110
      8          6           0        6.646298    0.044822   -0.457602
      9          8           0        7.380632   -0.758529    0.121818
     10          6           0        8.236494    1.732053    0.092468
     11          6           0        8.167531    1.858378    1.597960
     12          6           0        6.949407    2.048429    2.264646
     13          6           0        6.915449    2.207455    3.645814
     14          6           0        8.118345    2.181722    4.353164
     15          6           0        9.347442    1.998258    3.715273
     16          6           0        9.360918    1.834653    2.335972
     17          7           0        8.091854    2.349056    5.799008
     18          8           0        6.999285    2.506567    6.356040
     19          8           0        9.163546    2.328303    6.415579
     20          6           0        4.522870    0.816471   -1.593445
     21          7           0        3.153281    0.820172   -1.361687
     22          6           0        2.591436    1.907926   -2.013649
     23          6           0        3.637268    2.539265   -2.717432
     24          6           0        4.852635    1.879503   -2.467582
     25          6           0        6.171383    2.177739   -3.113538
     26          6           0        1.233460    2.384631   -1.923971
     27          6           0        0.304632    2.115360   -0.971341
     28          6           0       -1.049883    2.659784   -0.916049
     29          6           0       -1.626601    3.454690   -1.934083
     30          6           0       -2.911727    3.959107   -1.813485
     31          6           0       -3.680273    3.686563   -0.667976
     32          8           0       -4.935460    4.233879   -0.648659
     33          6           0       -5.746972    4.041803    0.518503
     34          6           0       -7.060474    4.770626    0.292942
     35          8           0       -6.921155    6.173137    0.095476
     36          6           0       -6.624180    6.909312    1.282942
     37          6           0       -6.719673    8.389110    0.960224
     38          8           0       -8.053864    8.777471    0.619140
     39          6           0       -8.703623    9.629925    1.560917
     40          6           0       -9.053910    8.956942    2.886171
     41          8           0       -9.799323    7.749299    2.758113
     42          6           0      -11.129509    7.935132    2.286608
     43          6           0       -3.140272    2.892487    0.350508
     44          6           0       -1.844607    2.392725    0.214500
     45          6           0        6.671405   -3.278538   -1.004110
     46          6           0        1.607374   -3.258692   -0.187967
     47          6           0        1.152825   -4.331089    0.510541
     48          6           0       -0.247164   -4.686154    0.728441
     49          6           0       -0.550142   -5.777680    1.563684
     50          6           0       -1.862046   -6.174243    1.824102
     51          6           0       -2.920731   -5.470151    1.238548
     52          8           0       -4.245699   -5.762918    1.420318
     53          6           0       -4.587907   -6.894510    2.233897
     54          6           0       -6.094307   -7.003350    2.273641
     55          8           0       -6.565748   -7.345965    0.971853
     56          6           0       -7.972603   -7.572338    0.905172
     57          6           0       -8.767854   -6.266597    0.811238
     58          8           0      -10.165246   -6.545922    0.682940
     59          6           0      -10.618711   -6.697265   -0.663012
     60          6           0      -11.056246   -5.353205   -1.236910
     61          8           0      -11.506404   -5.576235   -2.566657
     62          6           0      -11.941831   -4.378826   -3.195183
     63          6           0       -2.645166   -4.377962    0.396762
     64          6           0       -1.336670   -3.996937    0.146498
     65          9           0        1.256780   -0.659006   -1.457913
     66          9           0        2.010154   -0.052471    0.622855
     67          1           0        9.014174    1.019834   -0.192754
     68          1           0        8.481934    2.704562   -0.345602
     69          1           0        6.023176    2.067434    1.701429
     70          1           0        5.978438    2.351819    4.168586
     71          1           0       10.263681    1.978079    4.291437
     72          1           0       10.307148    1.682750    1.825302
     73          1           0        6.827359    1.305165   -3.101752
     74          1           0        6.019623    2.473913   -4.156661
     75          1           0        6.704784    2.996925   -2.617457
     76          1           0        0.983610    3.100751   -2.703027
     77          1           0        0.569271    1.465298   -0.143722
     78          1           0       -1.064075    3.677438   -2.835549
     79          1           0       -3.346344    4.569092   -2.599555
     80          1           0       -5.954618    2.974935    0.670640
     81          1           0       -5.221941    4.419009    1.403723
     82          1           0       -7.536494    4.384972   -0.614157
     83          1           0       -7.722089    4.558203    1.145408
     84          1           0       -7.333414    6.639629    2.077339
     85          1           0       -5.607612    6.692310    1.641803
     86          1           0       -6.343046    8.968276    1.811531
     87          1           0       -6.079066    8.608253    0.096567
     88          1           0       -8.085142   10.512632    1.783183
     89          1           0       -9.608675    9.981252    1.056361
     90          1           0       -8.141659    8.681111    3.424131
     91          1           0       -9.601049    9.686913    3.503846
     92          1           0      -11.638348    6.972228    2.380516
     93          1           0      -11.666327    8.681819    2.889026
     94          1           0      -11.161133    8.244900    1.234188
     95          1           0       -3.711212    2.658125    1.240913
     96          1           0       -1.434688    1.778854    1.012465
     97          1           0        7.212658   -2.539193   -1.594449
     98          1           0        7.252712   -3.458647   -0.092862
     99          1           0        6.649292   -4.217600   -1.566590
    100          1           0        0.888669   -2.556848   -0.594846
    101          1           0        1.865963   -4.998516    0.984748
    102          1           0        0.264757   -6.330158    2.024276
    103          1           0       -2.044340   -7.020416    2.475384
    104          1           0       -4.149559   -7.806444    1.810968
    105          1           0       -4.208827   -6.759519    3.253925
    106          1           0       -6.367677   -7.783956    2.998547
    107          1           0       -6.524023   -6.053862    2.619279
    108          1           0       -8.143831   -8.171059    0.004614
    109          1           0       -8.314636   -8.155928    1.771501
    110          1           0       -8.650594   -5.673999    1.723656
    111          1           0       -8.399960   -5.666874   -0.030533
    112          1           0       -9.844077   -7.142240   -1.299790
    113          1           0      -11.471097   -7.384224   -0.640373
    114          1           0      -11.861412   -4.927907   -0.618142
    115          1           0      -10.216568   -4.640870   -1.228179
    116          1           0      -12.266860   -4.639343   -4.205712
    117          1           0      -12.784236   -3.923217   -2.654860
    118          1           0      -11.130147   -3.639808   -3.259961
    119          1           0       -3.476347   -3.845441   -0.055216
    120          1           0       -1.157847   -3.155312   -0.515366
    121          8           0        6.985030    1.373527   -0.507364
    122         53           0        4.337310   -5.754064   -0.354416
    123         53           0        3.437651    4.247555   -3.915832
 ---------------------------------------------------------------------
 Rotational constants (GHZ):           0.0153662           0.0102774           0.0072627
 Leave Link  202 at Fri Nov 14 03:58:30 2025, MaxMem= 30870077440 cpu:               0.2 elap:               0.0
 (Enter /public/software/gauss/g16/l301.exe)
 Standard basis: def2TZVPP (5D, 7F)
 Ernie: Thresh=  0.10000D-02 Tol=  0.10000D-05 Strict=F.
 There are  3340 symmetry adapted cartesian basis functions of A   symmetry.
 There are  2933 symmetry adapted basis functions of A   symmetry.
  2933 basis functions,  4553 primitive gaussians,  3340 cartesian basis functions
   270 alpha electrons      269 beta electrons
       nuclear repulsion energy     10579.6694317078 Hartrees.
 IExCor= 4336 DFT=T Ex+Corr=M062X ExCW=0 ScaHFX=  0.540000
 ScaDFX=  1.000000  1.000000  1.000000  1.000000 ScalE2=  1.000000  1.000000
 IRadAn=      5 IRanWt=     -1 IRanGd=            0 ICorTp=0 IEmpDi=131
 NAtoms=  123 NActive=  123 NUniq=  123 SFac= 1.00D+00 NAtFMM=   60 NAOKFM=T Big=T
 Integral buffers will be    131072 words long.
 Raffenetti 2 integral format.
 Two-electron integral symmetry is turned on.
 R6Disp:  Grimme-D3 Dispersion energy=       -0.0101672449 Hartrees.
 Nuclear repulsion after empirical dispersion term =    10579.6592644630 Hartrees.
 ------------------------------------------------------------------------------
 Polarizable Continuum Model (PCM)
 =================================
 Model                : PCM.
 Atomic radii         : UFF (Universal Force Field).
 Polarization charges : Total charges.
 Charge compensation  : None.
 Solution method      : On-the-fly selection.
 Cavity type          : Scaled VdW (van der Waals Surface) (Alpha=1.100).
 Cavity algorithm     : GePol (No added spheres)
                        Default sphere list used, NSphG=  123.
                        Lebedev-Laikov grids with approx.  5.0 points / Ang**2.
                        Smoothing algorithm: York/Karplus (Gamma=1.0000).
                        Polarization charges: spherical gaussians, with
                                              point-specific exponents (IZeta= 3).
                        Self-potential: point-specific (ISelfS= 7).
                        Self-field    : sphere-specific E.n sum rule (ISelfD= 2).
 Solvent              : Water, Eps=  78.355300 Eps(inf)=   1.777849
 ------------------------------------------------------------------------------
 GePol: Number of generator spheres                  =     123
 GePol: Total number of spheres                      =     123
 GePol: Number of exposed spheres                    =     123 (100.00%)
 GePol: Number of points                             =    9014
 GePol: Average weight of points                     =       0.13
 GePol: Minimum weight of points                     =   0.13D-11
 GePol: Maximum weight of points                     =    0.20577
 GePol: Number of points with low weight             =     572
 GePol: Fraction of low-weight points (<1% of avg)   =       6.35%
 GePol: Cavity surface area                          =   1172.771 Ang**2
 GePol: Cavity volume                                =   1331.295 Ang**3
 Leave Link  301 at Fri Nov 14 03:58:30 2025, MaxMem= 30870077440 cpu:               7.0 elap:               0.1
 (Enter /public/software/gauss/g16/l302.exe)
 NPDir=0 NMtPBC=     1 NCelOv=     1 NCel=       1 NClECP=     1 NCelD=      1
         NCelK=      1 NCelE2=     1 NClLst=     1 CellRange=     0.0.
 One-electron integrals computed using PRISM.
 One-electron integral symmetry used in STVInt
   1 Symmetry operations used in ECPInt.
 ECPInt:  NShTT=  597871 NPrTT= 1684401 LenC2=  248001 LenP2D=  460231.
 LDataN:  DoStor=T MaxTD1= 7 Len=  274
 Number of processors reduced to  34 by ecpmxn.
 NBasis=  2933 RedAO= T EigKep=  5.83D-06  NBF=  2933
 NBsUse=  2933 1.00D-06 EigRej= -1.00D+00 NBFU=  2933
 Precomputing XC quadrature grid using
 IXCGrd= 4 IRadAn=           5 IRanWt=          -1 IRanGd=           0 AccXCQ= 0.00D+00.
 Defaulting to unpruned grid for atomic number  53.
 Defaulting to unpruned grid for atomic number  53.
 Generated NRdTot=       0 NPtTot=           0 NUsed=           0 NTot=          32
 NSgBfM=  2443  2414  2414  2422  2443 MxSgAt=   123 MxSgA2=   123.
 Leave Link  302 at Fri Nov 14 03:59:03 2025, MaxMem= 30870077440 cpu:            2085.2 elap:              33.1
 (Enter /public/software/gauss/g16/l303.exe)
 DipDrv:  MaxL=1.
 Leave Link  303 at Fri Nov 14 03:59:04 2025, MaxMem= 30870077440 cpu:              58.2 elap:               1.0
 (Enter /public/software/gauss/g16/l401.exe)
 ExpMin= 6.06D-02 ExpMax= 3.55D+04 ExpMxC= 1.21D+03 IAcc=3 IRadAn=         5 AccDes= 0.00D+00
 Harris functional with IExCor= 1009 and IRadAn=       5 diagonalized for initial guess.
 HarFok:  IExCor= 1009 AccDes= 0.00D+00 IRadAn=         5 IDoV= 1 UseB2=F ITyADJ=14
 ICtDFT=  3500011 ScaDFX=  1.000000  1.000000  1.000000  1.000000
 Defaulting to unpruned grid for atomic number  53.
 FoFCou: FMM=F IPFlag=           0 FMFlag=      100000 FMFlg1=        2001
         NFxFlg=           0 DoJE=T BraDBF=F KetDBF=T FulRan=T
         wScrn=  0.000000 ICntrl=       500 IOpCl=  0 I1Cent=   200000004 NGrid=           0
         NMat0=    1 NMatS0=      1 NMatT0=    0 NMatD0=    1 NMtDS0=    0 NMtDT0=    0
 Petite list used in FoFCou.
 Harris En= -3785.63529439359    
 JPrj=0 DoOrth=F DoCkMO=F.
 Initial guess <Sx>= 0.0000 <Sy>= 0.0000 <Sz>= 0.5000 <S**2>= 0.7500 S= 0.5000
 Leave Link  401 at Fri Nov 14 03:59:29 2025, MaxMem= 30870077440 cpu:            1607.7 elap:              25.2
 (Enter /public/software/gauss/g16/l502.exe)
 Integral symmetry usage will be decided dynamically.
 UHF open shell SCF:
 Using DIIS extrapolation, IDIIS=  1040.
 NGot= 30870077440 LenX= 30847524429 LenY= 30836365489
 Requested convergence on RMS density matrix=1.00D-08 within 128 cycles.
 Requested convergence on MAX density matrix=1.00D-06.
 Requested convergence on             energy=1.00D-06.
 No special actions if energy rises.
 Fock matrices will be formed incrementally for  20 cycles.

 Cycle   1  Pass 1  IDiag  1:
 FoFJK:  IHMeth= 1 ICntrl=       0 DoSepK=F KAlg= 0 I1Cent=           0 FoldK=F
 IRaf= 370000000 NMat=       1 IRICut=       1 DoRegI=T DoRafI=F ISym2E= 0 IDoP0=0 IntGTp=1.
 FoFCou: FMM=T IPFlag=           0 FMFlag=      100000 FMFlg1=        2001
         NFxFlg=           0 DoJE=F BraDBF=F KetDBF=F FulRan=T
         wScrn=  0.000000 ICntrl=         0 IOpCl=  1 I1Cent=           0 NGrid=           0
         NMat0=    1 NMatS0=      1 NMatT0=    0 NMatD0=    1 NMtDS0=    0 NMtDT0=    0
 Symmetry not used in FoFCou.
 FMM levels:  10  Number of levels for PrismC:   9
 Defaulting to unpruned grid for atomic number  53.
 Defaulting to unpruned grid for atomic number  53.
 Defaulting to unpruned grid for atomic number  53.
 Defaulting to unpruned grid for atomic number  53.
 Defaulting to unpruned grid for atomic number  53.
 Defaulting to unpruned grid for atomic number  53.
 Defaulting to unpruned grid for atomic number  53.
 Defaulting to unpruned grid for atomic number  53.
 Defaulting to unpruned grid for atomic number  53.
 Defaulting to unpruned grid for atomic number  53.
 Defaulting to unpruned grid for atomic number  53.
 Defaulting to unpruned grid for atomic number  53.
 Defaulting to unpruned grid for atomic number  53.
 Defaulting to unpruned grid for atomic number  53.
 Defaulting to unpruned grid for atomic number  53.
 Defaulting to unpruned grid for atomic number  53.
 Defaulting to unpruned grid for atomic number  53.
 Defaulting to unpruned grid for atomic number  53.
 Defaulting to unpruned grid for atomic number  53.
 Defaulting to unpruned grid for atomic number  53.
 Defaulting to unpruned grid for atomic number  53.
 Defaulting to unpruned grid for atomic number  53.
 Defaulting to unpruned grid for atomic number  53.
 Defaulting to unpruned grid for atomic number  53.
 Defaulting to unpruned grid for atomic number  53.
 Defaulting to unpruned grid for atomic number  53.
 Defaulting to unpruned grid for atomic number  53.
 Defaulting to unpruned grid for atomic number  53.
 Defaulting to unpruned grid for atomic number  53.
 Defaulting to unpruned grid for atomic number  53.
 Defaulting to unpruned grid for atomic number  53.
 Defaulting to unpruned grid for atomic number  53.
 Defaulting to unpruned grid for atomic number  53.
 Defaulting to unpruned grid for atomic number  53.
 Defaulting to unpruned grid for atomic number  53.
 Defaulting to unpruned grid for atomic number  53.
 Defaulting to unpruned grid for atomic number  53.
 Defaulting to unpruned grid for atomic number  53.
 Defaulting to unpruned grid for atomic number  53.
 Defaulting to unpruned grid for atomic number  53.
 Defaulting to unpruned grid for atomic number  53.
 Defaulting to unpruned grid for atomic number  53.
 Defaulting to unpruned grid for atomic number  53.
 Defaulting to unpruned grid for atomic number  53.
 Defaulting to unpruned grid for atomic number  53.
 Defaulting to unpruned grid for atomic number  53.
 Defaulting to unpruned grid for atomic number  53.
 Defaulting to unpruned grid for atomic number  53.
 Defaulting to unpruned grid for atomic number  53.
 Defaulting to unpruned grid for atomic number  53.
 Defaulting to unpruned grid for atomic number  53.
 Defaulting to unpruned grid for atomic number  53.
 Defaulting to unpruned grid for atomic number  53.
 Defaulting to unpruned grid for atomic number  53.
 Defaulting to unpruned grid for atomic number  53.
 Defaulting to unpruned grid for atomic number  53.
 Defaulting to unpruned grid for atomic number  53.
 Defaulting to unpruned grid for atomic number  53.
 Defaulting to unpruned grid for atomic number  53.
 Defaulting to unpruned grid for atomic number  53.
 Defaulting to unpruned grid for atomic number  53.
 Defaulting to unpruned grid for atomic number  53.
 Defaulting to unpruned grid for atomic number  53.
 Defaulting to unpruned grid for atomic number  53.
 Inv3:  Mode=1 IEnd=   243756588.
 Iteration    1 A*A^-1 deviation from unit magnitude is 2.09D-14 for   1252.
 Iteration    1 A*A^-1 deviation from orthogonality  is 7.91D-15 for   7711    831.
 Iteration    1 A^-1*A deviation from unit magnitude is 2.04D-14 for   1252.
 Iteration    1 A^-1*A deviation from orthogonality  is 8.89D-13 for   8006   7986.
 E= -3784.92766702522    
 DIIS: error= 2.23D-02 at cycle   1 NSaved=   1.
 NSaved= 1 IEnMin= 1 EnMin= -3784.92766702522     IErMin= 1 ErrMin= 2.23D-02
 ErrMax= 2.23D-02  0.00D+00 EMaxC= 1.00D-01 BMatC= 8.78D+00 BMatP= 8.78D+00
 IDIUse=3 WtCom= 7.77D-01 WtEn= 2.23D-01
 Coeff-Com:  0.100D+01
 Coeff-En:   0.100D+01
 Coeff:      0.100D+01
 Gap=     0.106 Goal=   None    Shift=    0.000
 Gap=     0.207 Goal=   None    Shift=    0.000
 GapD=    0.106 DampG=1.000 DampE=0.500 DampFc=0.5000 IDamp=-1.
 Damping current iteration by 5.00D-01
 RMSDP=1.28D-03 MaxDP=2.67D-01              OVMax= 2.60D-01

 Cycle   2  Pass 1  IDiag  1:
 RMSU=  6.40D-04    CP:  9.99D-01
 E= -3785.76050782118     Delta-E=       -0.832840795962 Rises=F Damp=T
 DIIS: error= 6.33D-03 at cycle   2 NSaved=   2.
 NSaved= 2 IEnMin= 2 EnMin= -3785.76050782118     IErMin= 2 ErrMin= 6.33D-03
 ErrMax= 6.33D-03  0.00D+00 EMaxC= 1.00D-01 BMatC= 8.53D-01 BMatP= 8.78D+00
 IDIUse=3 WtCom= 9.37D-01 WtEn= 6.33D-02
 Coeff-Com: -0.986D-01 0.110D+01
 Coeff-En:   0.000D+00 0.100D+01
 Coeff:     -0.924D-01 0.109D+01
 Gap=     0.148 Goal=   None    Shift=    0.000
 Gap=     0.171 Goal=   None    Shift=    0.000
 RMSDP=4.64D-04 MaxDP=6.87D-02 DE=-8.33D-01 OVMax= 2.20D-01

 Cycle   3  Pass 1  IDiag  1:
 RMSU=  4.45D-04    CP:  9.85D-01  1.19D+00
 E= -3786.52357619042     Delta-E=       -0.763068369237 Rises=F Damp=F
 DIIS: error= 1.03D-02 at cycle   3 NSaved=   3.
 NSaved= 3 IEnMin= 3 EnMin= -3786.52357619042     IErMin= 2 ErrMin= 6.33D-03
 ErrMax= 1.03D-02  0.00D+00 EMaxC= 1.00D-01 BMatC= 4.36D-01 BMatP= 8.53D-01
 IDIUse=3 WtCom= 8.97D-01 WtEn= 1.03D-01
 Coeff-Com: -0.120D+00 0.485D+00 0.635D+00
 Coeff-En:   0.000D+00 0.000D+00 0.100D+01
 Coeff:     -0.107D+00 0.435D+00 0.673D+00
 Gap=     0.127 Goal=   None    Shift=    0.000
 Gap=     0.109 Goal=   None    Shift=    0.000
 RMSDP=1.56D-04 MaxDP=5.77D-02 DE=-7.63D-01 OVMax= 9.39D-02

 Cycle   4  Pass 1  IDiag  1:
 RMSU=  1.54D-04    CP:  9.84D-01  1.22D+00  9.50D-01
 E= -3786.58626161638     Delta-E=       -0.062685425961 Rises=F Damp=F
 DIIS: error= 4.53D-03 at cycle   4 NSaved=   4.
 NSaved= 4 IEnMin= 4 EnMin= -3786.58626161638     IErMin= 4 ErrMin= 4.53D-03
 ErrMax= 4.53D-03  0.00D+00 EMaxC= 1.00D-01 BMatC= 1.02D-01 BMatP= 4.36D-01
 IDIUse=3 WtCom= 9.55D-01 WtEn= 4.53D-02
 Coeff-Com: -0.368D-01 0.907D-01 0.362D+00 0.584D+00
 Coeff-En:   0.000D+00 0.000D+00 0.187D+00 0.813D+00
 Coeff:     -0.352D-01 0.866D-01 0.354D+00 0.594D+00
 Gap=     0.128 Goal=   None    Shift=    0.000
 Gap=     0.116 Goal=   None    Shift=    0.000
 RMSDP=6.51D-05 MaxDP=2.12D-02 DE=-6.27D-02 OVMax= 3.37D-02

 Cycle   5  Pass 1  IDiag  1:
 RMSU=  4.55D-05    CP:  9.84D-01  1.22D+00  9.73D-01  7.04D-01
 E= -3786.60578207734     Delta-E=       -0.019520460959 Rises=F Damp=F
 DIIS: error= 5.34D-04 at cycle   5 NSaved=   5.
 NSaved= 5 IEnMin= 5 EnMin= -3786.60578207734     IErMin= 5 ErrMin= 5.34D-04
 ErrMax= 5.34D-04  0.00D+00 EMaxC= 1.00D-01 BMatC= 2.90D-03 BMatP= 1.02D-01
 IDIUse=3 WtCom= 9.95D-01 WtEn= 5.34D-03
 Coeff-Com: -0.943D-02 0.164D-01 0.120D+00 0.252D+00 0.621D+00
 Coeff-En:   0.000D+00 0.000D+00 0.000D+00 0.000D+00 0.100D+01
 Coeff:     -0.938D-02 0.164D-01 0.119D+00 0.251D+00 0.623D+00
 Gap=     0.132 Goal=   None    Shift=    0.000
 Gap=     0.118 Goal=   None    Shift=    0.000
 RMSDP=2.01D-05 MaxDP=8.60D-03 DE=-1.95D-02 OVMax= 1.04D-02

 Cycle   6  Pass 1  IDiag  1:
 RMSU=  1.70D-05    CP:  9.84D-01  1.23D+00  9.76D-01  7.68D-01  1.03D+00
 E= -3786.60650508782     Delta-E=       -0.000723010487 Rises=F Damp=F
 DIIS: error= 1.41D-04 at cycle   6 NSaved=   6.
 NSaved= 6 IEnMin= 6 EnMin= -3786.60650508782     IErMin= 6 ErrMin= 1.41D-04
 ErrMax= 1.41D-04  0.00D+00 EMaxC= 1.00D-01 BMatC= 4.56D-04 BMatP= 2.90D-03
 IDIUse=3 WtCom= 9.99D-01 WtEn= 1.41D-03
 Coeff-Com:  0.527D-03-0.422D-02 0.873D-02 0.392D-01 0.284D+00 0.672D+00
 Coeff-En:   0.000D+00 0.000D+00 0.000D+00 0.000D+00 0.000D+00 0.100D+01
 Coeff:      0.526D-03-0.421D-02 0.872D-02 0.392D-01 0.284D+00 0.672D+00
 Gap=     0.132 Goal=   None    Shift=    0.000
 Gap=     0.120 Goal=   None    Shift=    0.000
 RMSDP=9.41D-06 MaxDP=2.49D-03 DE=-7.23D-04 OVMax= 1.14D-02

 Cycle   7  Pass 1  IDiag  1:
 RMSU=  6.38D-06    CP:  9.84D-01  1.22D+00  9.80D-01  7.78D-01  1.16D+00
                    CP:  1.15D+00
 E= -3786.60670766021     Delta-E=       -0.000202572381 Rises=F Damp=F
 DIIS: error= 7.47D-05 at cycle   7 NSaved=   7.
 NSaved= 7 IEnMin= 7 EnMin= -3786.60670766021     IErMin= 7 ErrMin= 7.47D-05
 ErrMax= 7.47D-05  0.00D+00 EMaxC= 1.00D-01 BMatC= 8.93D-05 BMatP= 4.56D-04
 IDIUse=1 WtCom= 1.00D+00 WtEn= 0.00D+00
 Coeff-Com:  0.227D-02-0.517D-02-0.219D-01-0.381D-01-0.272D-01 0.249D+00
 Coeff-Com:  0.841D+00
 Coeff:      0.227D-02-0.517D-02-0.219D-01-0.381D-01-0.272D-01 0.249D+00
 Coeff:      0.841D+00
 Gap=     0.133 Goal=   None    Shift=    0.000
 Gap=     0.121 Goal=   None    Shift=    0.000
 RMSDP=8.58D-06 MaxDP=4.16D-03 DE=-2.03D-04 OVMax= 8.27D-03

 Cycle   8  Pass 1  IDiag  1:
 RMSU=  3.55D-06    CP:  9.84D-01  1.23D+00  9.82D-01  8.00D-01  1.25D+00
                    CP:  1.45D+00  1.44D+00
 E= -3786.60678702004     Delta-E=       -0.000079359832 Rises=F Damp=F
 DIIS: error= 5.17D-05 at cycle   8 NSaved=   8.
 NSaved= 8 IEnMin= 8 EnMin= -3786.60678702004     IErMin= 8 ErrMin= 5.17D-05
 ErrMax= 5.17D-05  0.00D+00 EMaxC= 1.00D-01 BMatC= 2.87D-05 BMatP= 8.93D-05
 IDIUse=1 WtCom= 1.00D+00 WtEn= 0.00D+00
 Coeff-Com:  0.817D-03-0.101D-02-0.112D-01-0.263D-01-0.925D-01-0.761D-01
 Coeff-Com:  0.378D+00 0.828D+00
 Coeff:      0.817D-03-0.101D-02-0.112D-01-0.263D-01-0.925D-01-0.761D-01
 Coeff:      0.378D+00 0.828D+00
 Gap=     0.133 Goal=   None    Shift=    0.000
 Gap=     0.122 Goal=   None    Shift=    0.000
 RMSDP=4.78D-06 MaxDP=1.77D-03 DE=-7.94D-05 OVMax= 5.97D-03

 Cycle   9  Pass 1  IDiag  1:
 RMSU=  1.61D-06    CP:  9.84D-01  1.23D+00  9.83D-01  8.06D-01  1.29D+00
                    CP:  1.60D+00  1.83D+00  1.39D+00
 E= -3786.60681558567     Delta-E=       -0.000028565637 Rises=F Damp=F
 DIIS: error= 1.77D-05 at cycle   9 NSaved=   9.
 NSaved= 9 IEnMin= 9 EnMin= -3786.60681558567     IErMin= 9 ErrMin= 1.77D-05
 ErrMax= 1.77D-05  0.00D+00 EMaxC= 1.00D-01 BMatC= 6.39D-06 BMatP= 2.87D-05
 IDIUse=1 WtCom= 1.00D+00 WtEn= 0.00D+00
 Coeff-Com: -0.452D-03 0.125D-02 0.352D-02 0.429D-02-0.201D-01-0.930D-01
 Coeff-Com: -0.155D+00 0.251D+00 0.101D+01
 Coeff:     -0.452D-03 0.125D-02 0.352D-02 0.429D-02-0.201D-01-0.930D-01
 Coeff:     -0.155D+00 0.251D+00 0.101D+01
 Gap=     0.134 Goal=   None    Shift=    0.000
 Gap=     0.123 Goal=   None    Shift=    0.000
 RMSDP=3.04D-06 MaxDP=1.44D-03 DE=-2.86D-05 OVMax= 3.47D-03

 Cycle  10  Pass 1  IDiag  1:
 RMSU=  8.37D-07    CP:  9.84D-01  1.23D+00  9.83D-01  8.11D-01  1.31D+00
                    CP:  1.69D+00  2.08D+00  1.80D+00  1.45D+00
 E= -3786.60682312785     Delta-E=       -0.000007542176 Rises=F Damp=F
 DIIS: error= 9.53D-06 at cycle  10 NSaved=  10.
 NSaved=10 IEnMin=10 EnMin= -3786.60682312785     IErMin=10 ErrMin= 9.53D-06
 ErrMax= 9.53D-06  0.00D+00 EMaxC= 1.00D-01 BMatC= 1.65D-06 BMatP= 6.39D-06
 IDIUse=1 WtCom= 1.00D+00 WtEn= 0.00D+00
 Coeff-Com: -0.361D-03 0.756D-03 0.400D-02 0.780D-02 0.107D-01-0.212D-01
 Coeff-Com: -0.147D+00-0.631D-01 0.456D+00 0.752D+00
 Coeff:     -0.361D-03 0.756D-03 0.400D-02 0.780D-02 0.107D-01-0.212D-01
 Coeff:     -0.147D+00-0.631D-01 0.456D+00 0.752D+00
 Gap=     0.134 Goal=   None    Shift=    0.000
 Gap=     0.123 Goal=   None    Shift=    0.000
 RMSDP=8.85D-07 MaxDP=2.83D-04 DE=-7.54D-06 OVMax= 9.46D-04

 Cycle  11  Pass 1  IDiag  1:
 RMSU=  3.78D-07    CP:  9.84D-01  1.23D+00  9.84D-01  8.11D-01  1.31D+00
                    CP:  1.71D+00  2.14D+00  1.93D+00  1.68D+00  1.33D+00
 E= -3786.60682417173     Delta-E=       -0.000001043883 Rises=F Damp=F
 DIIS: error= 2.35D-06 at cycle  11 NSaved=  11.
 NSaved=11 IEnMin=11 EnMin= -3786.60682417173     IErMin=11 ErrMin= 2.35D-06
 ErrMax= 2.35D-06  0.00D+00 EMaxC= 1.00D-01 BMatC= 2.10D-07 BMatP= 1.65D-06
 IDIUse=1 WtCom= 1.00D+00 WtEn= 0.00D+00
 Coeff-Com: -0.385D-05-0.420D-04 0.393D-03 0.126D-02 0.594D-02 0.113D-01
 Coeff-Com: -0.113D-01-0.607D-01-0.665D-01 0.189D+00 0.930D+00
 Coeff:     -0.385D-05-0.420D-04 0.393D-03 0.126D-02 0.594D-02 0.113D-01
 Coeff:     -0.113D-01-0.607D-01-0.665D-01 0.189D+00 0.930D+00
 Gap=     0.134 Goal=   None    Shift=    0.000
 Gap=     0.123 Goal=   None    Shift=    0.000
 RMSDP=4.15D-07 MaxDP=8.31D-05 DE=-1.04D-06 OVMax= 3.01D-04

 Cycle  12  Pass 1  IDiag  1:
 RMSU=  1.93D-07    CP:  9.84D-01  1.23D+00  9.84D-01  8.11D-01  1.31D+00
                    CP:  1.71D+00  2.15D+00  1.97D+00  1.79D+00  1.60D+00
                    CP:  1.38D+00
 E= -3786.60682436397     Delta-E=       -0.000000192233 Rises=F Damp=F
 DIIS: error= 1.17D-06 at cycle  12 NSaved=  12.
 NSaved=12 IEnMin=12 EnMin= -3786.60682436397     IErMin=12 ErrMin= 1.17D-06
 ErrMax= 1.17D-06  0.00D+00 EMaxC= 1.00D-01 BMatC= 5.42D-08 BMatP= 2.10D-07
 IDIUse=1 WtCom= 1.00D+00 WtEn= 0.00D+00
 Coeff-Com:  0.658D-04-0.154D-03-0.629D-03-0.110D-02-0.236D-03 0.737D-02
 Coeff-Com:  0.237D-01-0.602D-02-0.106D+00-0.832D-01 0.321D+00 0.845D+00
 Coeff:      0.658D-04-0.154D-03-0.629D-03-0.110D-02-0.236D-03 0.737D-02
 Coeff:      0.237D-01-0.602D-02-0.106D+00-0.832D-01 0.321D+00 0.845D+00
 Gap=     0.134 Goal=   None    Shift=    0.000
 Gap=     0.123 Goal=   None    Shift=    0.000
 RMSDP=1.97D-07 MaxDP=6.54D-05 DE=-1.92D-07 OVMax= 1.57D-04

 Cycle  13  Pass 1  IDiag  1:
 RMSU=  9.01D-08    CP:  9.84D-01  1.23D+00  9.84D-01  8.10D-01  1.31D+00
                    CP:  1.70D+00  2.15D+00  1.97D+00  1.82D+00  1.71D+00
                    CP:  1.66D+00  1.39D+00
 E= -3786.60682440881     Delta-E=       -0.000000044842 Rises=F Damp=F
 DIIS: error= 5.64D-07 at cycle  13 NSaved=  13.
 NSaved=13 IEnMin=13 EnMin= -3786.60682440881     IErMin=13 ErrMin= 5.64D-07
 ErrMax= 5.64D-07  0.00D+00 EMaxC= 1.00D-01 BMatC= 1.65D-08 BMatP= 5.42D-08
 IDIUse=1 WtCom= 1.00D+00 WtEn= 0.00D+00
 Coeff-Com:  0.279D-04-0.543D-04-0.349D-03-0.751D-03-0.135D-02 0.698D-03
 Coeff-Com:  0.128D-01 0.111D-01-0.292D-01-0.839D-01-0.722D-01 0.373D+00
 Coeff-Com:  0.790D+00
 Coeff:      0.279D-04-0.543D-04-0.349D-03-0.751D-03-0.135D-02 0.698D-03
 Coeff:      0.128D-01 0.111D-01-0.292D-01-0.839D-01-0.722D-01 0.373D+00
 Coeff:      0.790D+00
 Gap=     0.134 Goal=   None    Shift=    0.000
 Gap=     0.123 Goal=   None    Shift=    0.000
 RMSDP=1.15D-07 MaxDP=4.61D-05 DE=-4.48D-08 OVMax= 1.24D-04

 Cycle  14  Pass 1  IDiag  1:
 RMSU=  4.55D-08    CP:  9.84D-01  1.23D+00  9.84D-01  8.10D-01  1.31D+00
                    CP:  1.70D+00  2.15D+00  1.97D+00  1.83D+00  1.76D+00
                    CP:  1.78D+00  1.71D+00  1.38D+00
 E= -3786.60682442346     Delta-E=       -0.000000014648 Rises=F Damp=F
 DIIS: error= 4.35D-07 at cycle  14 NSaved=  14.
 NSaved=14 IEnMin=14 EnMin= -3786.60682442346     IErMin=14 ErrMin= 4.35D-07
 ErrMax= 4.35D-07  0.00D+00 EMaxC= 1.00D-01 BMatC= 4.34D-09 BMatP= 1.65D-08
 IDIUse=1 WtCom= 1.00D+00 WtEn= 0.00D+00
 Coeff-Com: -0.470D-05 0.145D-04 0.116D-04-0.490D-04-0.514D-03-0.150D-02
 Coeff-Com: -0.550D-03 0.570D-02 0.151D-01-0.155D-01-0.110D+00-0.505D-01
 Coeff-Com:  0.334D+00 0.824D+00
 Coeff:     -0.470D-05 0.145D-04 0.116D-04-0.490D-04-0.514D-03-0.150D-02
 Coeff:     -0.550D-03 0.570D-02 0.151D-01-0.155D-01-0.110D+00-0.505D-01
 Coeff:      0.334D+00 0.824D+00
 Gap=     0.134 Goal=   None    Shift=    0.000
 Gap=     0.123 Goal=   None    Shift=    0.000
 RMSDP=6.28D-08 MaxDP=1.77D-05 DE=-1.46D-08 OVMax= 9.71D-05

 Cycle  15  Pass 1  IDiag  1:
 RMSU=  2.38D-08    CP:  9.84D-01  1.23D+00  9.84D-01  8.10D-01  1.31D+00
                    CP:  1.70D+00  2.14D+00  1.97D+00  1.84D+00  1.77D+00
                    CP:  1.84D+00  1.89D+00  1.75D+00  1.44D+00
 E= -3786.60682442851     Delta-E=       -0.000000005050 Rises=F Damp=F
 DIIS: error= 3.40D-07 at cycle  15 NSaved=  15.
 NSaved=15 IEnMin=15 EnMin= -3786.60682442851     IErMin=15 ErrMin= 3.40D-07
 ErrMax= 3.40D-07  0.00D+00 EMaxC= 1.00D-01 BMatC= 1.38D-09 BMatP= 4.34D-09
 IDIUse=1 WtCom= 1.00D+00 WtEn= 0.00D+00
 Coeff-Com: -0.928D-05 0.204D-04 0.102D-03 0.182D-03 0.146D-03-0.786D-03
 Coeff-Com: -0.388D-02-0.108D-02 0.148D-01 0.170D-01-0.267D-01-0.125D+00
 Coeff-Com: -0.839D-01 0.362D+00 0.847D+00
 Coeff:     -0.928D-05 0.204D-04 0.102D-03 0.182D-03 0.146D-03-0.786D-03
 Coeff:     -0.388D-02-0.108D-02 0.148D-01 0.170D-01-0.267D-01-0.125D+00
 Coeff:     -0.839D-01 0.362D+00 0.847D+00
 Gap=     0.134 Goal=   None    Shift=    0.000
 Gap=     0.123 Goal=   None    Shift=    0.000
 RMSDP=4.11D-08 MaxDP=9.51D-06 DE=-5.05D-09 OVMax= 7.90D-05

 Cycle  16  Pass 1  IDiag  1:
 RMSU=  1.36D-08    CP:  9.84D-01  1.23D+00  9.84D-01  8.10D-01  1.31D+00
                    CP:  1.70D+00  2.14D+00  1.97D+00  1.84D+00  1.77D+00
                    CP:  1.85D+00  1.99D+00  1.98D+00  1.92D+00  1.53D+00
 E= -3786.60682443035     Delta-E=       -0.000000001843 Rises=F Damp=F
 DIIS: error= 2.50D-07 at cycle  16 NSaved=  16.
 NSaved=16 IEnMin=16 EnMin= -3786.60682443035     IErMin=16 ErrMin= 2.50D-07
 ErrMax= 2.50D-07  0.00D+00 EMaxC= 1.00D-01 BMatC= 4.97D-10 BMatP= 1.38D-09
 IDIUse=1 WtCom= 1.00D+00 WtEn= 0.00D+00
 Coeff-Com: -0.239D-05 0.441D-05 0.409D-04 0.904D-04 0.193D-03 0.689D-04
 Coeff-Com: -0.155D-02-0.206D-02 0.261D-02 0.119D-01 0.170D-01-0.413D-01
 Coeff-Com: -0.127D+00-0.605D-01 0.382D+00 0.818D+00
 Coeff:     -0.239D-05 0.441D-05 0.409D-04 0.904D-04 0.193D-03 0.689D-04
 Coeff:     -0.155D-02-0.206D-02 0.261D-02 0.119D-01 0.170D-01-0.413D-01
 Coeff:     -0.127D+00-0.605D-01 0.382D+00 0.818D+00
 Gap=     0.134 Goal=   None    Shift=    0.000
 Gap=     0.123 Goal=   None    Shift=    0.000
 RMSDP=2.51D-08 MaxDP=5.59D-06 DE=-1.84D-09 OVMax= 5.55D-05

 Cycle  17  Pass 1  IDiag  1:
 RMSU=  8.17D-09    CP:  9.84D-01  1.23D+00  9.84D-01  8.10D-01  1.31D+00
                    CP:  1.70D+00  2.15D+00  1.97D+00  1.84D+00  1.77D+00
                    CP:  1.86D+00  2.03D+00  2.10D+00  2.19D+00  2.08D+00
                    CP:  1.55D+00
 E= -3786.60682443191     Delta-E=       -0.000000001563 Rises=F Damp=F
 DIIS: error= 1.71D-07 at cycle  17 NSaved=  17.
 NSaved=17 IEnMin=17 EnMin= -3786.60682443191     IErMin=17 ErrMin= 1.71D-07
 ErrMax= 1.71D-07  0.00D+00 EMaxC= 1.00D-01 BMatC= 2.28D-10 BMatP= 4.97D-10
 IDIUse=1 WtCom= 1.00D+00 WtEn= 0.00D+00
 Coeff-Com:  0.258D-05-0.602D-05-0.199D-04-0.268D-04 0.299D-04 0.340D-03
 Coeff-Com:  0.816D-03-0.594D-03-0.475D-02-0.870D-03 0.188D-01 0.309D-01
 Coeff-Com: -0.259D-01-0.186D+00-0.165D+00 0.420D+00 0.912D+00
 Coeff:      0.258D-05-0.602D-05-0.199D-04-0.268D-04 0.299D-04 0.340D-03
 Coeff:      0.816D-03-0.594D-03-0.475D-02-0.870D-03 0.188D-01 0.309D-01
 Coeff:     -0.259D-01-0.186D+00-0.165D+00 0.420D+00 0.912D+00
 Gap=     0.134 Goal=   None    Shift=    0.000
 Gap=     0.123 Goal=   None    Shift=    0.000
 RMSDP=2.19D-08 MaxDP=4.84D-06 DE=-1.56D-09 OVMax= 5.11D-05

 Cycle  18  Pass 1  IDiag  1:
 RMSU=  5.10D-09    CP:  9.84D-01  1.23D+00  9.84D-01  8.10D-01  1.31D+00
                    CP:  1.70D+00  2.15D+00  1.97D+00  1.84D+00  1.77D+00
                    CP:  1.87D+00  2.05D+00  2.18D+00  2.41D+00  2.56D+00
                    CP:  2.33D+00  1.67D+00
 E= -3786.60682443238     Delta-E=       -0.000000000469 Rises=F Damp=F
 DIIS: error= 9.69D-08 at cycle  18 NSaved=  18.
 NSaved=18 IEnMin=18 EnMin= -3786.60682443238     IErMin=18 ErrMin= 9.69D-08
 ErrMax= 9.69D-08  0.00D+00 EMaxC= 1.00D-01 BMatC= 9.46D-11 BMatP= 2.28D-10
 IDIUse=1 WtCom= 1.00D+00 WtEn= 0.00D+00
 Coeff-Com:  0.234D-05-0.498D-05-0.285D-04-0.526D-04-0.714D-04 0.148D-03
 Coeff-Com:  0.113D-02 0.631D-03-0.376D-02-0.598D-02 0.179D-02 0.343D-01
 Coeff-Com:  0.487D-01-0.699D-01-0.256D+00-0.164D+00 0.450D+00 0.963D+00
 Coeff:      0.234D-05-0.498D-05-0.285D-04-0.526D-04-0.714D-04 0.148D-03
 Coeff:      0.113D-02 0.631D-03-0.376D-02-0.598D-02 0.179D-02 0.343D-01
 Coeff:      0.487D-01-0.699D-01-0.256D+00-0.164D+00 0.450D+00 0.963D+00
 Gap=     0.134 Goal=   None    Shift=    0.000
 Gap=     0.123 Goal=   None    Shift=    0.000
 RMSDP=1.75D-08 MaxDP=3.82D-06 DE=-4.69D-10 OVMax= 4.17D-05

 Cycle  19  Pass 1  IDiag  1:
 RMSU=  3.19D-09    CP:  9.84D-01  1.23D+00  9.84D-01  8.10D-01  1.31D+00
                    CP:  1.70D+00  2.15D+00  1.97D+00  1.84D+00  1.77D+00
                    CP:  1.87D+00  2.07D+00  2.24D+00  2.56D+00  2.94D+00
                    CP:  2.93D+00  2.51D+00  1.64D+00
 E= -3786.60682443228     Delta-E=        0.000000000098 Rises=F Damp=F
 DIIS: error= 3.85D-08 at cycle  19 NSaved=  19.
 NSaved=19 IEnMin=18 EnMin= -3786.60682443238     IErMin=19 ErrMin= 3.85D-08
 ErrMax= 3.85D-08  0.00D+00 EMaxC= 1.00D-01 BMatC= 3.50D-11 BMatP= 9.46D-11
 IDIUse=1 WtCom= 1.00D+00 WtEn= 0.00D+00
 Coeff-Com: -0.316D-06 0.806D-06-0.248D-05-0.786D-05-0.437D-04-0.875D-04
 Coeff-Com:  0.545D-04 0.584D-03 0.707D-03-0.193D-02-0.800D-02-0.195D-02
 Coeff-Com:  0.332D-01 0.571D-01-0.120D-01-0.270D+00-0.272D+00 0.414D+00
 Coeff-Com:  0.106D+01
 Coeff:     -0.316D-06 0.806D-06-0.248D-05-0.786D-05-0.437D-04-0.875D-04
 Coeff:      0.545D-04 0.584D-03 0.707D-03-0.193D-02-0.800D-02-0.195D-02
 Coeff:      0.332D-01 0.571D-01-0.120D-01-0.270D+00-0.272D+00 0.414D+00
 Coeff:      0.106D+01
 Gap=     0.134 Goal=   None    Shift=    0.000
 Gap=     0.123 Goal=   None    Shift=    0.000
 RMSDP=1.29D-08 MaxDP=2.74D-06 DE= 9.82D-11 OVMax= 2.98D-05

 Cycle  20  Pass 1  IDiag  1:
 RMSU=  7.21D-09    CP:  9.84D-01  1.23D+00  9.84D-01  8.10D-01  1.31D+00
                    CP:  1.70D+00  2.15D+00  1.97D+00  1.84D+00  1.77D+00
                    CP:  1.87D+00  2.09D+00  2.27D+00  2.65D+00  3.00D+00
                    CP:  3.00D+00  3.00D+00  2.47D+00  1.72D+00
 E= -3786.60682443231     Delta-E=       -0.000000000025 Rises=F Damp=F
 DIIS: error= 1.84D-08 at cycle  20 NSaved=  20.
 NSaved=20 IEnMin=18 EnMin= -3786.60682443238     IErMin=20 ErrMin= 1.84D-08
 ErrMax= 1.84D-08  0.00D+00 EMaxC= 1.00D-01 BMatC= 9.82D-12 BMatP= 3.50D-11
 IDIUse=1 WtCom= 1.00D+00 WtEn= 0.00D+00
 Coeff-Com: -0.922D-06 0.205D-05 0.759D-05 0.124D-04-0.266D-05-0.864D-04
 Coeff-Com: -0.341D-03 0.116D-03 0.150D-02 0.907D-03-0.435D-02-0.116D-01
 Coeff-Com:  0.129D-02 0.454D-01 0.744D-01-0.796D-01-0.267D+00-0.863D-01
 Coeff-Com:  0.474D+00 0.851D+00
 Coeff:     -0.922D-06 0.205D-05 0.759D-05 0.124D-04-0.266D-05-0.864D-04
 Coeff:     -0.341D-03 0.116D-03 0.150D-02 0.907D-03-0.435D-02-0.116D-01
 Coeff:      0.129D-02 0.454D-01 0.744D-01-0.796D-01-0.267D+00-0.863D-01
 Coeff:      0.474D+00 0.851D+00
 Gap=     0.134 Goal=   None    Shift=    0.000
 Gap=     0.123 Goal=   None    Shift=    0.000
 RMSDP=5.75D-09 MaxDP=1.20D-06 DE=-2.55D-11 OVMax= 1.28D-05

 Cycle  21  Pass 1  IDiag  1:
 Restarting incremental Fock formation.
 E= -3786.60682443209     Delta-E=        0.000000000213 Rises=F Damp=F
 DIIS: error= 1.32D-08 at cycle  21 NSaved=  20.
 NSaved=20 IEnMin=17 EnMin= -3786.60682443238     IErMin=20 ErrMin= 1.32D-08
 ErrMax= 1.32D-08  0.00D+00 EMaxC= 1.00D-01 BMatC= 2.36D-12 BMatP= 9.82D-12
 IDIUse=1 WtCom= 1.00D+00 WtEn= 0.00D+00
 Coeff-Com:  0.514D-08 0.118D-05 0.250D-05 0.587D-05 0.108D-04-0.833D-04
 Coeff-Com: -0.951D-04 0.157D-03 0.604D-03 0.815D-03-0.259D-02-0.752D-02
 Coeff-Com: -0.657D-03 0.287D-01 0.428D-01-0.201D-01-0.133D+00-0.124D+00
 Coeff-Com:  0.298D+00 0.917D+00
 Coeff:      0.514D-08 0.118D-05 0.250D-05 0.587D-05 0.108D-04-0.833D-04
 Coeff:     -0.951D-04 0.157D-03 0.604D-03 0.815D-03-0.259D-02-0.752D-02
 Coeff:     -0.657D-03 0.287D-01 0.428D-01-0.201D-01-0.133D+00-0.124D+00
 Coeff:      0.298D+00 0.917D+00
 Gap=     0.134 Goal=   None    Shift=    0.000
 Gap=     0.123 Goal=   None    Shift=    0.000
 RMSDP=2.89D-09 MaxDP=4.59D-07 DE= 2.13D-10 OVMax= 3.96D-06

 Error on total polarization charges =  0.03459
 SCF Done:  E(UM062X) =  -3786.60682443     A.U. after   21 cycles
            NFock= 21  Conv=0.29D-08     -V/T= 2.1133
 <Sx>= 0.0000 <Sy>= 0.0000 <Sz>= 0.5000 <S**2>= 0.7736 S= 0.5118
 <L.S>= 0.000000000000E+00
 KE= 3.401289083415D+03 PE=-2.991950047184D+04 EE= 1.215194529953D+04
 Annihilation of the first spin contaminant:
 S**2 before annihilation     0.7736,   after     0.7505
 Leave Link  502 at Fri Nov 14 05:02:29 2025, MaxMem= 30870077440 cpu:          238663.6 elap:            3780.0
 (Enter /public/software/gauss/g16/l601.exe)
 Copying SCF densities to generalized density rwf, IOpCl= 1 IROHF=0.
 Hyperfine terms turned off by default for NAtoms > 100.

 **********************************************************************

            Population analysis using the SCF density.

 **********************************************************************

 Orbital symmetries:
 Alpha Orbitals:
       Occupied  (A) (A) (A) (A) (A) (A) (A) (A) (A) (A) (A) (A)
                 (A) (A) (A) (A) (A) (A) (A) (A) (A) (A) (A) (A)
                 (A) (A) (A) (A) (A) (A) (A) (A) (A) (A) (A) (A)
                 (A) (A) (A) (A) (A) (A) (A) (A) (A) (A) (A) (A)
                 (A) (A) (A) (A) (A) (A) (A) (A) (A) (A) (A) (A)
                 (A) (A) (A) (A) (A) (A) (A) (A) (A) (A) (A) (A)
                 (A) (A) (A) (A) (A) (A) (A) (A) (A) (A) (A) (A)
                 (A) (A) (A) (A) (A) (A) (A) (A) (A) (A) (A) (A)
                 (A) (A) (A) (A) (A) (A) (A) (A) (A) (A) (A) (A)
                 (A) (A) (A) (A) (A) (A) (A) (A) (A) (A) (A) (A)
                 (A) (A) (A) (A) (A) (A) (A) (A) (A) (A) (A) (A)
                 (A) (A) (A) (A) (A) (A) (A) (A) (A) (A) (A) (A)
                 (A) (A) (A) (A) (A) (A) (A) (A) (A) (A) (A) (A)
                 (A) (A) (A) (A) (A) (A) (A) (A) (A) (A) (A) (A)
                 (A) (A) (A) (A) (A) (A) (A) (A) (A) (A) (A) (A)
                 (A) (A) (A) (A) (A) (A) (A) (A) (A) (A) (A) (A)
                 (A) (A) (A) (A) (A) (A) (A) (A) (A) (A) (A) (A)
                 (A) (A) (A) (A) (A) (A) (A) (A) (A) (A) (A) (A)
                 (A) (A) (A) (A) (A) (A) (A) (A) (A) (A) (A) (A)
                 (A) (A) (A) (A) (A) (A) (A) (A) (A) (A) (A) (A)
                 (A) (A) (A) (A) (A) (A) (A) (A) (A) (A) (A) (A)
                 (A) (A) (A) (A) (A) (A) (A) (A) (A) (A) (A) (A)
                 (A) (A) (A) (A) (A) (A)
       Virtual   (A) (A) (A) (A) (A) (A) (A) (A) (A) (A) (A) (A)
                 (A) (A) (A) (A) (A) (A) (A) (A) (A) (A) (A) (A)
                 (A) (A) (A) (A) (A) (A) (A) (A) (A) (A) (A) (A)
                 (A) (A) (A) (A) (A) (A) (A) (A) (A) (A) (A) (A)
                 (A) (A) (A) (A) (A) (A) (A) (A) (A) (A) (A) (A)
                 (A) (A) (A) (A) (A) (A) (A) (A) (A) (A) (A) (A)
                 (A) (A) (A) (A) (A) (A) (A) (A) (A) (A) (A) (A)
                 (A) (A) (A) (A) (A) (A) (A) (A) (A) (A) (A) (A)
                 (A) (A) (A) (A) (A) (A) (A) (A) (A) (A) (A) (A)
                 (A) (A) (A) (A) (A) (A) (A) (A) (A) (A) (A) (A)
                 (A) (A) (A) (A) (A) (A) (A) (A) (A) (A) (A) (A)
                 (A) (A) (A) (A) (A) (A) (A) (A) (A) (A) (A) (A)
                 (A) (A) (A) (A) (A) (A) (A) (A) (A) (A) (A) (A)
                 (A) (A) (A) (A) (A) (A) (A) (A) (A) (A) (A) (A)
                 (A) (A) (A) (A) (A) (A) (A) (A) (A) (A) (A) (A)
                 (A) (A) (A) (A) (A) (A) (A) (A) (A) (A) (A) (A)
                 (A) (A) (A) (A) (A) (A) (A) (A) (A) (A) (A) (A)
                 (A) (A) (A) (A) (A) (A) (A) (A) (A) (A) (A) (A)
                 (A) (A) (A) (A) (A) (A) (A) (A) (A) (A) (A) (A)
                 (A) (A) (A) (A) (A) (A) (A) (A) (A) (A) (A) (A)
                 (A) (A) (A) (A) (A) (A) (A) (A) (A) (A) (A) (A)
                 (A) (A) (A) (A) (A) (A) (A) (A) (A) (A) (A) (A)
                 (A) (A) (A) (A) (A) (A) (A) (A) (A) (A) (A) (A)
                 (A) (A) (A) (A) (A) (A) (A) (A) (A) (A) (A) (A)
                 (A) (A) (A) (A) (A) (A) (A) (A) (A) (A) (A) (A)
                 (A) (A) (A) (A) (A) (A) (A) (A) (A) (A) (A) (A)
                 (A) (A) (A) (A) (A) (A) (A) (A) (A) (A) (A) (A)
                 (A) (A) (A) (A) (A) (A) (A) (A) (A) (A) (A) (A)
                 (A) (A) (A) (A) (A) (A) (A) (A) (A) (A) (A) (A)
                 (A) (A) (A) (A) (A) (A) (A) (A) (A) (A) (A) (A)
                 (A) (A) (A) (A) (A) (A) (A) (A) (A) (A) (A) (A)
                 (A) (A) (A) (A) (A) (A) (A) (A) (A) (A) (A) (A)
                 (A) (A) (A) (A) (A) (A) (A) (A) (A) (A) (A) (A)
                 (A) (A) (A) (A) (A) (A) (A) (A) (A) (A) (A) (A)
                 (A) (A) (A) (A) (A) (A) (A) (A) (A) (A) (A) (A)
                 (A) (A) (A) (A) (A) (A) (A) (A) (A) (A) (A) (A)
                 (A) (A) (A) (A) (A) (A) (A) (A) (A) (A) (A) (A)
                 (A) (A) (A) (A) (A) (A) (A) (A) (A) (A) (A) (A)
                 (A) (A) (A) (A) (A) (A) (A) (A) (A) (A) (A) (A)
                 (A) (A) (A) (A) (A) (A) (A) (A) (A) (A) (A) (A)
                 (A) (A) (A) (A) (A) (A) (A) (A) (A) (A) (A) (A)
                 (A) (A) (A) (A) (A) (A) (A) (A) (A) (A) (A) (A)
                 (A) (A) (A) (A) (A) (A) (A) (A) (A) (A) (A) (A)
                 (A) (A) (A) (A) (A) (A) (A) (A) (A) (A) (A) (A)
                 (A) (A) (A) (A) (A) (A) (A) (A) (A) (A) (A) (A)
                 (A) (A) (A) (A) (A) (A) (A) (A) (A) (A) (A) (A)
                 (A) (A) (A) (A) (A) (A) (A) (A) (A) (A) (A) (A)
                 (A) (A) (A) (A) (A) (A) (A) (A) (A) (A) (A) (A)
                 (A) (A) (A) (A) (A) (A) (A) (A) (A) (A) (A) (A)
                 (A) (A) (A) (A) (A) (A) (A) (A) (A) (A) (A) (A)
                 (A) (A) (A) (A) (A) (A) (A) (A) (A) (A) (A) (A)
                 (A) (A) (A) (A) (A) (A) (A) (A) (A) (A) (A) (A)
                 (A) (A) (A) (A) (A) (A) (A) (A) (A) (A) (A) (A)
                 (A) (A) (A) (A) (A) (A) (A) (A) (A) (A) (A) (A)
                 (A) (A) (A) (A) (A) (A) (A) (A) (A) (A) (A) (A)
                 (A) (A) (A) (A) (A) (A) (A) (A) (A) (A) (A) (A)
                 (A) (A) (A) (A) (A) (A) (A) (A) (A) (A) (A) (A)
                 (A) (A) (A) (A) (A) (A) (A) (A) (A) (A) (A) (A)
                 (A) (A) (A) (A) (A) (A) (A) (A) (A) (A) (A) (A)
                 (A) (A) (A) (A) (A) (A) (A) (A) (A) (A) (A) (A)
                 (A) (A) (A) (A) (A) (A) (A) (A) (A) (A) (A) (A)
                 (A) (A) (A) (A) (A) (A) (A) (A) (A) (A) (A) (A)
                 (A) (A) (A) (A) (A) (A) (A) (A) (A) (A) (A) (A)
                 (A) (A) (A) (A) (A) (A) (A) (A) (A) (A) (A) (A)
                 (A) (A) (A) (A) (A) (A) (A) (A) (A) (A) (A) (A)
                 (A) (A) (A) (A) (A) (A) (A) (A) (A) (A) (A) (A)
                 (A) (A) (A) (A) (A) (A) (A) (A) (A) (A) (A) (A)
                 (A) (A) (A) (A) (A) (A) (A) (A) (A) (A) (A) (A)
                 (A) (A) (A) (A) (A) (A) (A) (A) (A) (A) (A) (A)
                 (A) (A) (A) (A) (A) (A) (A) (A) (A) (A) (A) (A)
                 (A) (A) (A) (A) (A) (A) (A) (A) (A) (A) (A) (A)
                 (A) (A) (A) (A) (A) (A) (A) (A) (A) (A) (A) (A)
                 (A) (A) (A) (A) (A) (A) (A) (A) (A) (A) (A) (A)
                 (A) (A) (A) (A) (A) (A) (A) (A) (A) (A) (A) (A)
                 (A) (A) (A) (A) (A) (A) (A) (A) (A) (A) (A) (A)
                 (A) (A) (A) (A) (A) (A) (A) (A) (A) (A) (A) (A)
                 (A) (A) (A) (A) (A) (A) (A) (A) (A) (A) (A) (A)
                 (A) (A) (A) (A) (A) (A) (A) (A) (A) (A) (A) (A)
                 (A) (A) (A) (A) (A) (A) (A) (A) (A) (A) (A) (A)
                 (A) (A) (A) (A) (A) (A) (A) (A) (A) (A) (A) (A)
                 (A) (A) (A) (A) (A) (A) (A) (A) (A) (A) (A) (A)
                 (A) (A) (A) (A) (A) (A) (A) (A) (A) (A) (A) (A)
                 (A) (A) (A) (A) (A) (A) (A) (A) (A) (A) (A) (A)
                 (A) (A) (A) (A) (A) (A) (A) (A) (A) (A) (A) (A)
                 (A) (A) (A) (A) (A) (A) (A) (A) (A) (A) (A) (A)
                 (A) (A) (A) (A) (A) (A) (A) (A) (A) (A) (A) (A)
                 (A) (A) (A) (A) (A) (A) (A) (A) (A) (A) (A) (A)
                 (A) (A) (A) (A) (A) (A) (A) (A) (A) (A) (A) (A)
                 (A) (A) (A) (A) (A) (A) (A) (A) (A) (A) (A) (A)
                 (A) (A) (A) (A) (A) (A) (A) (A) (A) (A) (A) (A)
                 (A) (A) (A) (A) (A) (A) (A) (A) (A) (A) (A) (A)
                 (A) (A) (A) (A) (A) (A) (A) (A) (A) (A) (A) (A)
                 (A) (A) (A) (A) (A) (A) (A) (A) (A) (A) (A) (A)
                 (A) (A) (A) (A) (A) (A) (A) (A) (A) (A) (A) (A)
                 (A) (A) (A) (A) (A) (A) (A) (A) (A) (A) (A) (A)
                 (A) (A) (A) (A) (A) (A) (A) (A) (A) (A) (A) (A)
                 (A) (A) (A) (A) (A) (A) (A) (A) (A) (A) (A) (A)
                 (A) (A) (A) (A) (A) (A) (A) (A) (A) (A) (A) (A)
                 (A) (A) (A) (A) (A) (A) (A) (A) (A) (A) (A) (A)
                 (A) (A) (A) (A) (A) (A) (A) (A) (A) (A) (A) (A)
                 (A) (A) (A) (A) (A) (A) (A) (A) (A) (A) (A) (A)
                 (A) (A) (A) (A) (A) (A) (A) (A) (A) (A) (A) (A)
                 (A) (A) (A) (A) (A) (A) (A) (A) (A) (A) (A) (A)
                 (A) (A) (A) (A) (A) (A) (A) (A) (A) (A) (A) (A)
                 (A) (A) (A) (A) (A) (A) (A) (A) (A) (A) (A) (A)
                 (A) (A) (A) (A) (A) (A) (A) (A) (A) (A) (A) (A)
                 (A) (A) (A) (A) (A) (A) (A) (A) (A) (A) (A) (A)
                 (A) (A) (A) (A) (A) (A) (A) (A) (A) (A) (A) (A)
                 (A) (A) (A) (A) (A) (A) (A) (A) (A) (A) (A) (A)
                 (A) (A) (A) (A) (A) (A) (A) (A) (A) (A) (A) (A)
                 (A) (A) (A) (A) (A) (A) (A) (A) (A) (A) (A) (A)
                 (A) (A) (A) (A) (A) (A) (A) (A) (A) (A) (A) (A)
                 (A) (A) (A) (A) (A) (A) (A) (A) (A) (A) (A) (A)
                 (A) (A) (A) (A) (A) (A) (A) (A) (A) (A) (A) (A)
                 (A) (A) (A) (A) (A) (A) (A) (A) (A) (A) (A) (A)
                 (A) (A) (A) (A) (A) (A) (A) (A) (A) (A) (A) (A)
                 (A) (A) (A) (A) (A) (A) (A) (A) (A) (A) (A) (A)
                 (A) (A) (A) (A) (A) (A) (A) (A) (A) (A) (A) (A)
                 (A) (A) (A) (A) (A) (A) (A) (A) (A) (A) (A) (A)
                 (A) (A) (A) (A) (A) (A) (A) (A) (A) (A) (A) (A)
                 (A) (A) (A) (A) (A) (A) (A) (A) (A) (A) (A) (A)
                 (A) (A) (A) (A) (A) (A) (A) (A) (A) (A) (A) (A)
                 (A) (A) (A) (A) (A) (A) (A) (A) (A) (A) (A) (A)
                 (A) (A) (A) (A) (A) (A) (A) (A) (A) (A) (A) (A)
                 (A) (A) (A) (A) (A) (A) (A) (A) (A) (A) (A) (A)
                 (A) (A) (A) (A) (A) (A) (A) (A) (A) (A) (A) (A)
                 (A) (A) (A) (A) (A) (A) (A) (A) (A) (A) (A) (A)
                 (A) (A) (A) (A) (A) (A) (A) (A) (A) (A) (A) (A)
                 (A) (A) (A) (A) (A) (A) (A) (A) (A) (A) (A) (A)
                 (A) (A) (A) (A) (A) (A) (A) (A) (A) (A) (A) (A)
                 (A) (A) (A) (A) (A) (A) (A) (A) (A) (A) (A) (A)
                 (A) (A) (A) (A) (A) (A) (A) (A) (A) (A) (A) (A)
                 (A) (A) (A) (A) (A) (A) (A) (A) (A) (A) (A) (A)
                 (A) (A) (A) (A) (A) (A) (A) (A) (A) (A) (A) (A)
                 (A) (A) (A) (A) (A) (A) (A) (A) (A) (A) (A) (A)
                 (A) (A) (A) (A) (A) (A) (A) (A) (A) (A) (A) (A)
                 (A) (A) (A) (A) (A) (A) (A) (A) (A) (A) (A) (A)
                 (A) (A) (A) (A) (A) (A) (A) (A) (A) (A) (A) (A)
                 (A) (A) (A) (A) (A) (A) (A) (A) (A) (A) (A) (A)
                 (A) (A) (A) (A) (A) (A) (A) (A) (A) (A) (A) (A)
                 (A) (A) (A) (A) (A) (A) (A) (A) (A) (A) (A) (A)
                 (A) (A) (A) (A) (A) (A) (A) (A) (A) (A) (A) (A)
                 (A) (A) (A) (A) (A) (A) (A) (A) (A) (A) (A) (A)
                 (A) (A) (A) (A) (A) (A) (A) (A) (A) (A) (A) (A)
                 (A) (A) (A) (A) (A) (A) (A) (A) (A) (A) (A) (A)
                 (A) (A) (A) (A) (A) (A) (A) (A) (A) (A) (A) (A)
                 (A) (A) (A) (A) (A) (A) (A) (A) (A) (A) (A) (A)
                 (A) (A) (A) (A) (A) (A) (A) (A) (A) (A) (A) (A)
                 (A) (A) (A) (A) (A) (A) (A) (A) (A) (A) (A) (A)
                 (A) (A) (A) (A) (A) (A) (A) (A) (A) (A) (A) (A)
                 (A) (A) (A) (A) (A) (A) (A) (A) (A) (A) (A) (A)
                 (A) (A) (A) (A) (A) (A) (A) (A) (A) (A) (A) (A)
                 (A) (A) (A) (A) (A) (A) (A) (A) (A) (A) (A) (A)
                 (A) (A) (A) (A) (A) (A) (A) (A) (A) (A) (A) (A)
                 (A) (A) (A) (A) (A) (A) (A) (A) (A) (A) (A) (A)
                 (A) (A) (A) (A) (A) (A) (A) (A) (A) (A) (A) (A)
                 (A) (A) (A) (A) (A) (A) (A) (A) (A) (A) (A) (A)
                 (A) (A) (A) (A) (A) (A) (A) (A) (A) (A) (A) (A)
                 (A) (A) (A) (A) (A) (A) (A) (A) (A) (A) (A) (A)
                 (A) (A) (A) (A) (A) (A) (A) (A) (A) (A) (A) (A)
                 (A) (A) (A) (A) (A) (A) (A) (A) (A) (A) (A) (A)
                 (A) (A) (A) (A) (A) (A) (A) (A) (A) (A) (A) (A)
                 (A) (A) (A) (A) (A) (A) (A) (A) (A) (A) (A) (A)
                 (A) (A) (A) (A) (A) (A) (A) (A) (A) (A) (A) (A)
                 (A) (A) (A) (A) (A) (A) (A) (A) (A) (A) (A) (A)
                 (A) (A) (A) (A) (A) (A) (A) (A) (A) (A) (A) (A)
                 (A) (A) (A) (A) (A) (A) (A) (A) (A) (A) (A) (A)
                 (A) (A) (A) (A) (A) (A) (A) (A) (A) (A) (A) (A)
                 (A) (A) (A) (A) (A) (A) (A) (A) (A) (A) (A) (A)
                 (A) (A) (A) (A) (A) (A) (A) (A) (A) (A) (A) (A)
                 (A) (A) (A) (A) (A) (A) (A) (A) (A) (A) (A) (A)
                 (A) (A) (A) (A) (A) (A) (A) (A) (A) (A) (A) (A)
                 (A) (A) (A) (A) (A) (A) (A) (A) (A) (A) (A) (A)
                 (A) (A) (A) (A) (A) (A) (A) (A) (A) (A) (A) (A)
                 (A) (A) (A) (A) (A) (A) (A) (A) (A) (A) (A) (A)
                 (A) (A) (A) (A) (A) (A) (A) (A) (A) (A) (A) (A)
                 (A) (A) (A) (A) (A) (A) (A) (A) (A) (A) (A) (A)
                 (A) (A) (A) (A) (A) (A) (A) (A) (A) (A) (A) (A)
                 (A) (A) (A) (A) (A) (A) (A) (A) (A) (A) (A) (A)
                 (A) (A) (A) (A) (A) (A) (A) (A) (A) (A) (A) (A)
                 (A) (A) (A) (A) (A) (A) (A) (A) (A) (A) (A) (A)
                 (A) (A) (A) (A) (A) (A) (A) (A) (A) (A) (A) (A)
                 (A) (A) (A) (A) (A) (A) (A) (A) (A) (A) (A) (A)
                 (A) (A) (A) (A) (A) (A) (A) (A) (A) (A) (A) (A)
                 (A) (A) (A) (A) (A) (A) (A) (A) (A) (A) (A) (A)
                 (A) (A) (A) (A) (A) (A) (A) (A) (A) (A) (A) (A)
                 (A) (A) (A) (A) (A) (A) (A) (A) (A) (A) (A) (A)
                 (A) (A) (A) (A) (A) (A) (A) (A) (A) (A) (A) (A)
                 (A) (A) (A) (A) (A) (A) (A) (A) (A) (A) (A) (A)
                 (A) (A) (A) (A) (A) (A) (A) (A) (A) (A) (A) (A)
                 (A) (A) (A) (A) (A) (A) (A) (A) (A) (A) (A) (A)
                 (A) (A) (A) (A) (A) (A) (A) (A) (A) (A) (A) (A)
                 (A) (A) (A) (A) (A) (A) (A) (A) (A) (A) (A) (A)
                 (A) (A) (A) (A) (A) (A) (A) (A) (A) (A) (A) (A)
                 (A) (A) (A) (A) (A) (A) (A) (A) (A) (A) (A) (A)
                 (A) (A) (A) (A) (A) (A) (A) (A) (A) (A) (A) (A)
                 (A) (A) (A) (A) (A) (A) (A) (A) (A) (A) (A) (A)
                 (A) (A) (A) (A) (A) (A) (A) (A) (A) (A) (A) (A)
                 (A) (A) (A) (A) (A) (A) (A) (A) (A) (A) (A) (A)
                 (A) (A) (A) (A) (A) (A) (A) (A) (A) (A) (A) (A)
[...]
  Beta virt. eigenvalues --    5.01764   5.01813   5.01971   5.02290   5.02672
  Beta virt. eigenvalues --    5.03383   5.04012   5.04131   5.04367   5.04570
  Beta virt. eigenvalues --    5.04816   5.05308   5.05503   5.05975   5.06369
  Beta virt. eigenvalues --    5.06838   5.07159   5.07502   5.07577   5.08269
  Beta virt. eigenvalues --    5.08394   5.08476   5.08791   5.09188   5.09937
  Beta virt. eigenvalues --    5.10136   5.10240   5.10992   5.11183   5.11347
  Beta virt. eigenvalues --    5.12247   5.12496   5.12816   5.13507   5.13580
  Beta virt. eigenvalues --    5.13663   5.14459   5.14541   5.14935   5.15583
  Beta virt. eigenvalues --    5.16203   5.16481   5.16534   5.17004   5.17631
  Beta virt. eigenvalues --    5.17778   5.18016   5.18938   5.19110   5.19736
  Beta virt. eigenvalues --    5.20023   5.20647   5.21058   5.21607   5.22055
  Beta virt. eigenvalues --    5.22823   5.23010   5.23180   5.23648   5.24187
  Beta virt. eigenvalues --    5.24249   5.24731   5.24892   5.25403   5.25782
  Beta virt. eigenvalues --    5.26383   5.26654   5.27042   5.27506   5.27655
  Beta virt. eigenvalues --    5.28183   5.28335   5.28406   5.28674   5.28868
  Beta virt. eigenvalues --    5.28940   5.29200   5.29295   5.29394   5.29750
  Beta virt. eigenvalues --    5.30062   5.30196   5.30612   5.30840   5.30895
  Beta virt. eigenvalues --    5.31145   5.31761   5.32010   5.32293   5.32519
  Beta virt. eigenvalues --    5.33088   5.33383   5.33781   5.33845   5.34058
  Beta virt. eigenvalues --    5.34282   5.34726   5.34895   5.35400   5.36274
  Beta virt. eigenvalues --    5.36343   5.37010   5.37401   5.37711   5.37916
  Beta virt. eigenvalues --    5.38150   5.38388   5.38678   5.38712   5.39396
  Beta virt. eigenvalues --    5.39848   5.39917   5.40052   5.40495   5.40870
  Beta virt. eigenvalues --    5.41231   5.41462   5.42265   5.42745   5.42950
  Beta virt. eigenvalues --    5.43240   5.43601   5.43651   5.43796   5.44462
  Beta virt. eigenvalues --    5.44627   5.45384   5.45462   5.46018   5.46826
  Beta virt. eigenvalues --    5.46910   5.47537   5.47742   5.48319   5.48674
  Beta virt. eigenvalues --    5.49148   5.49752   5.50197   5.50502   5.51293
  Beta virt. eigenvalues --    5.51579   5.52215   5.53198   5.53508   5.53674
  Beta virt. eigenvalues --    5.53932   5.54336   5.55267   5.55639   5.55670
  Beta virt. eigenvalues --    5.55991   5.56438   5.57105   5.57368   5.57419
  Beta virt. eigenvalues --    5.58171   5.58881   5.58886   5.59249   5.59319
  Beta virt. eigenvalues --    5.59846   5.60096   5.60190   5.60350   5.60678
  Beta virt. eigenvalues --    5.60867   5.61067   5.61513   5.61604   5.61979
  Beta virt. eigenvalues --    5.62592   5.62777   5.63155   5.63813   5.63848
  Beta virt. eigenvalues --    5.64452   5.64934   5.65234   5.65388   5.65629
  Beta virt. eigenvalues --    5.65769   5.65875   5.66214   5.67022   5.67561
  Beta virt. eigenvalues --    5.67754   5.67978   5.68582   5.69943   5.70042
  Beta virt. eigenvalues --    5.70874   5.71888   5.75597   5.75948   5.77103
  Beta virt. eigenvalues --    5.77161   5.79666   5.81048   5.81921   5.82993
  Beta virt. eigenvalues --    5.85260   5.85421   5.86465   5.88123   5.88458
  Beta virt. eigenvalues --    5.88735   5.88776   5.89854   5.90261   5.91250
  Beta virt. eigenvalues --    5.91923   5.92837   5.92981   5.93467   5.95281
  Beta virt. eigenvalues --    5.96863   5.96991   5.99003   5.99526   6.00425
  Beta virt. eigenvalues --    6.01111   6.02219   6.02567   6.03050   6.04106
  Beta virt. eigenvalues --    6.04421   6.05027   6.05475   6.06676   6.06762
  Beta virt. eigenvalues --    6.09033   6.09702   6.10734   6.10912   6.12566
  Beta virt. eigenvalues --    6.13421   6.15109   6.17473   6.20409   6.20754
  Beta virt. eigenvalues --    6.20831   6.22141   6.22623   6.22955   6.24883
  Beta virt. eigenvalues --    6.25450   6.26154   6.26480   6.28405   6.28453
  Beta virt. eigenvalues --    6.28585   6.30369   6.31589   6.33094   6.34644
  Beta virt. eigenvalues --    6.35100   6.35920   6.38502   6.38634   6.39274
  Beta virt. eigenvalues --    6.39706   6.40645   6.41653   6.41958   6.43181
  Beta virt. eigenvalues --    6.44168   6.47969   6.62205   6.72756   6.72762
  Beta virt. eigenvalues --    6.72936   6.73461   6.74769   6.75855   6.76005
  Beta virt. eigenvalues --    6.76666   6.76889   6.77590   6.78079   6.78196
  Beta virt. eigenvalues --    6.80874   6.80949   6.81050   6.81285   6.83398
  Beta virt. eigenvalues --    6.84250   6.84539   6.84613   6.84790   6.85023
  Beta virt. eigenvalues --    6.85200   6.86741   6.87626   6.93527   6.94144
  Beta virt. eigenvalues --    6.94914   6.95232   6.95831   6.96502   6.97730
  Beta virt. eigenvalues --    6.98394   6.98503   7.00196   7.00717   7.01048
  Beta virt. eigenvalues --    7.01411   7.01529   7.05286   7.07346   7.08744
  Beta virt. eigenvalues --    7.08966   7.10781   7.11542   7.17768   7.20810
  Beta virt. eigenvalues --    7.22385   7.24118   7.24420   7.26657   7.26785
  Beta virt. eigenvalues --    7.28612   7.28758   7.30068   7.30336   7.30461
  Beta virt. eigenvalues --    7.32976   7.33286   7.33457   7.33946   7.34429
  Beta virt. eigenvalues --    7.34564   7.34950   7.38057   7.38270   7.38576
  Beta virt. eigenvalues --    7.38808   7.40137   7.45351   7.46868   7.47398
  Beta virt. eigenvalues --    7.48839   7.52222   8.47840   8.49013   8.57098
  Beta virt. eigenvalues --    8.61731   8.84072   8.87061   8.92517   8.93841
  Beta virt. eigenvalues --    8.95578   9.00452  15.84005  22.72388  22.74607
  Beta virt. eigenvalues --   22.80531  22.87347  22.88171  23.00681  23.05448
  Beta virt. eigenvalues --   23.10452  23.12624  23.13143  23.14720  23.18547
  Beta virt. eigenvalues --   23.18977  23.23746  23.25645  23.26653  23.28378
  Beta virt. eigenvalues --   23.28600  23.29340  23.31620  23.31961  23.32998
  Beta virt. eigenvalues --   23.34222  23.35230  23.35934  23.36758  23.37401
  Beta virt. eigenvalues --   23.38325  23.38696  23.39477  23.39973  23.41242
  Beta virt. eigenvalues --   23.43268  23.45350  23.46136  23.47730  23.50647
  Beta virt. eigenvalues --   23.51281  23.52355  23.55508  23.59083  23.61946
  Beta virt. eigenvalues --   23.64897  23.68831  23.72687  23.81544  24.06387
  Beta virt. eigenvalues --   24.09121  24.09458  32.58167  33.07036  33.23127
  Beta virt. eigenvalues --   34.48982  34.49632  34.60864  34.61145  34.89051
  Beta virt. eigenvalues --   34.89548  42.92460  42.92619  44.20693  44.23904
  Beta virt. eigenvalues --   44.26093  44.29921  44.34663  44.38354  44.43914
  Beta virt. eigenvalues --   44.48449  44.49345  44.59844  44.62062  44.64038
  Beta virt. eigenvalues --   57.43982  57.56477 117.59870 117.59896
          Condensed to atoms (all electrons):
          Atomic-Atomic Spin Densities.
 Mulliken charges and spin densities:
               1          2
     1  B    0.360483  -0.000324
     2  N   -0.099474   0.013654
     3  C    0.027979   0.158250
     4  C   -0.020954  -0.045497
     5  C   -0.049328   0.153969
     6  C    0.134032  -0.032115
     7  C   -0.207992   0.375409
     8  C    0.392039  -0.022227
     9  O   -0.445953   0.102004
    10  C   -0.098433  -0.001991
    11  C    0.024564   0.000377
    12  C   -0.148423   0.001983
    13  C   -0.096809  -0.000401
    14  C   -0.027737   0.000140
    15  C   -0.102235  -0.000177
    16  C   -0.144181   0.000204
    17  N    0.489021  -0.000003
    18  O   -0.373692  -0.000007
    19  O   -0.374605  -0.000001
    20  C    0.104264  -0.041801
    21  N   -0.128435   0.012655
    22  C    0.053523   0.115966
    23  C   -0.049588  -0.036262
    24  C    0.004307   0.114859
    25  C   -0.434653  -0.002450
    26  C   -0.132884  -0.056923
    27  C   -0.125850   0.080758
    28  C    0.011816  -0.020218
    29  C   -0.158574   0.019788
    30  C   -0.198752  -0.010615
    31  C    0.214515   0.020699
    32  O   -0.288540   0.003055
    33  C   -0.101203  -0.000212
    34  C   -0.144489  -0.000064
    35  O   -0.326513   0.000003
    36  C   -0.041491   0.000064
    37  C   -0.134526  -0.000009
    38  O   -0.335061   0.000000
    39  C   -0.099554   0.000000
    40  C   -0.104659  -0.000000
    41  O   -0.346417  -0.000000
    42  C   -0.209302  -0.000000
    43  C   -0.174288  -0.011920
    44  C   -0.162113   0.021802
    45  C   -0.410203  -0.002792
    46  C   -0.167227  -0.069888
    47  C   -0.101619   0.108512
    48  C    0.001639  -0.026628
    49  C   -0.160920   0.028982
    50  C   -0.174644  -0.015368
    51  C    0.213191   0.027248
    52  O   -0.288030   0.004110
    53  C   -0.100539  -0.000289
    54  C   -0.090708  -0.000114
    55  O   -0.339974   0.000019
    56  C   -0.093279   0.000002
    57  C   -0.065478   0.000000
    58  O   -0.363385  -0.000000
    59  C   -0.077424   0.000000
    60  C   -0.038149   0.000000
    61  O   -0.352722   0.000000
    62  C   -0.204065   0.000000
    63  C   -0.197799  -0.014104
    64  C   -0.150209   0.026167
    65  F   -0.357108   0.000440
    66  F   -0.349302   0.000424
    67  H    0.159254  -0.000005
    68  H    0.168724   0.000155
    69  H    0.167795  -0.000397
    70  H    0.192756  -0.000023
    71  H    0.191656  -0.000002
    72  H    0.158845   0.000085
    73  H    0.131625  -0.001996
    74  H    0.129497   0.002366
    75  H    0.146529   0.004467
    76  H    0.102916   0.004029
    77  H    0.107445  -0.005001
    78  H    0.149669  -0.000660
    79  H    0.154766   0.000122
    80  H    0.163337   0.000223
    81  H    0.150012   0.000268
    82  H    0.133207  -0.000007
    83  H    0.131744  -0.000018
    84  H    0.126548  -0.000006
    85  H    0.121143  -0.000040
    86  H    0.131284   0.000000
    87  H    0.132450   0.000001
    88  H    0.130793   0.000000
    89  H    0.139302  -0.000000
    90  H    0.137707   0.000000
    91  H    0.140470   0.000000
    92  H    0.137476  -0.000000
    93  H    0.122969   0.000000
    94  H    0.125746   0.000000
    95  H    0.151569   0.000140
    96  H    0.139330  -0.000640
    97  H    0.127586  -0.001263
    98  H    0.150400   0.005885
    99  H    0.122658   0.002816
   100  H    0.131195   0.004411
   101  H    0.117670  -0.005802
   102  H    0.139881  -0.000892
   103  H    0.153366   0.000174
   104  H    0.149051   0.000325
   105  H    0.145138   0.000327
   106  H    0.125779  -0.000018
   107  H    0.127939  -0.000004
   108  H    0.126310  -0.000000
   109  H    0.120513   0.000001
   110  H    0.135275   0.000000
   111  H    0.126464   0.000000
   112  H    0.119147  -0.000000
   113  H    0.133856   0.000000
   114  H    0.112788  -0.000000
   115  H    0.110609  -0.000000
   116  H    0.136452   0.000000
   117  H    0.120577  -0.000000
   118  H    0.120260  -0.000000
   119  H    0.155913   0.000170
   120  H    0.148131  -0.001031
   121  O   -0.311259   0.011304
   122  I   -0.086610  -0.000069
   123  I   -0.097537   0.001462
 Sum of Mulliken charges =  -1.00000   1.00000
 Mulliken charges and spin densities with hydrogens summed into heavy atoms:
               1          2
     1  B    0.360483  -0.000324
     2  N   -0.099474   0.013654
     3  C    0.027979   0.158250
     4  C   -0.020954  -0.045497
     5  C   -0.049328   0.153969
     6  C    0.134032  -0.032115
     7  C   -0.207992   0.375409
     8  C    0.392039  -0.022227
     9  O   -0.445953   0.102004
    10  C    0.229545  -0.001841
    11  C    0.024564   0.000377
    12  C    0.019372   0.001586
    13  C    0.095947  -0.000425
    14  C   -0.027737   0.000140
    15  C    0.089420  -0.000179
    16  C    0.014665   0.000290
    17  N    0.489021  -0.000003
    18  O   -0.373692  -0.000007
    19  O   -0.374605  -0.000001
    20  C    0.104264  -0.041801
    21  N   -0.128435   0.012655
    22  C    0.053523   0.115966
    23  C   -0.049588  -0.036262
    24  C    0.004307   0.114859
    25  C   -0.027002   0.002387
    26  C   -0.029968  -0.052894
    27  C   -0.018405   0.075758
    28  C    0.011816  -0.020218
    29  C   -0.008904   0.019128
    30  C   -0.043987  -0.010493
    31  C    0.214515   0.020699
    32  O   -0.288540   0.003055
    33  C    0.212147   0.000279
    34  C    0.120461  -0.000088
    35  O   -0.326513   0.000003
    36  C    0.206200   0.000017
    37  C    0.129209  -0.000008
    38  O   -0.335061   0.000000
    39  C    0.170541   0.000000
    40  C    0.173518  -0.000000
    41  O   -0.346417  -0.000000
    42  C    0.176888  -0.000000
    43  C   -0.022720  -0.011780
    44  C   -0.022784   0.021162
    45  C   -0.009558   0.004645
    46  C   -0.036032  -0.065477
    47  C    0.016051   0.102711
    48  C    0.001639  -0.026628
    49  C   -0.021038   0.028090
    50  C   -0.021278  -0.015194
    51  C    0.213191   0.027248
    52  O   -0.288030   0.004110
    53  C    0.193649   0.000362
    54  C    0.163011  -0.000136
    55  O   -0.339974   0.000019
    56  C    0.153544   0.000002
    57  C    0.196261   0.000001
    58  O   -0.363385  -0.000000
    59  C    0.175579   0.000000
    60  C    0.185248  -0.000000
    61  O   -0.352722   0.000000
    62  C    0.173224   0.000000
    63  C   -0.041885  -0.013934
    64  C   -0.002078   0.025136
    65  F   -0.357108   0.000440
    66  F   -0.349302   0.000424
   121  O   -0.311259   0.011304
   122  I   -0.086610  -0.000069
   123  I   -0.097537   0.001462
 Electronic spatial extent (au):  <R**2>=         132398.6667
 Charge=             -1.0000 electrons
 Dipole moment (field-independent basis, Debye):
    X=            -17.2634    Y=              3.3341    Z=              2.9180  Tot=             17.8229
 Quadrupole moment (field-independent basis, Debye-Ang):
   XX=           -482.7284   YY=           -442.8283   ZZ=           -503.5274
   XY=            -13.2371   XZ=            -82.9037   YZ=             -7.3271
 Traceless Quadrupole moment (field-independent basis, Debye-Ang):
   XX=             -6.3671   YY=             33.5331   ZZ=            -27.1660
   XY=            -13.2371   XZ=            -82.9037   YZ=             -7.3271
 Octapole moment (field-independent basis, Debye-Ang**2):
  XXX=           -244.0852  YYY=            315.7374  ZZZ=           -530.4032  XYY=           -261.2653
  XXY=            482.1841  XXZ=           -295.0950  XZZ=           -501.4714  YZZ=           -159.7139
  YYZ=            402.0646  XYZ=           -256.4018
 Hexadecapole moment (field-independent basis, Debye-Ang**3):
 XXXX=         -99815.0179 YYYY=         -54118.3066 ZZZZ=         -16766.0905 XXXY=          -5050.3461
 XXXZ=          -5145.9580 YYYX=          -5006.7724 YYYZ=            321.6656 ZZZX=          -3954.2931
 ZZZY=          -1804.8862 XXYY=         -26407.8669 XXZZ=         -23102.9508 YYZZ=         -11803.8404
 XXYZ=            236.7428 YYXZ=          -3630.9580 ZZXY=          -1512.1048
 N-N= 1.057965926446D+04 E-N=-2.991950046928D+04  KE= 3.401289083415D+03
 Leave Link  601 at Fri Nov 14 05:02:33 2025, MaxMem= 30870077440 cpu:             187.5 elap:               3.4
 (Enter /public/software/gauss/g16/l9999.exe)
 1\1\GINC-CU137\SP\UM062X\def2TZVPP\C49H54B1F2I2N3O12(1-,2)\BAIDING\14-
 Nov-2025\0\\#p M062X/DEF2TZVPP scrf=(solvent=water) em=GD3\\Energy cal
 culation for BE_I_reduced_i\\-1,2\B,0,-2.401037,-0.362995,0.696457\N,0
 ,-3.35188,-1.591747,0.693666\C,0,-2.986351,-2.903438,0.426391\C,0,-4.1
 76232,-3.665774,0.456429\C,0,-5.272743,-2.825218,0.711662\C,0,-4.73036
 1,-1.514127,0.810137\C,0,-5.34312,-0.236307,1.04111\C,0,-6.646298,0.04
 4822,0.457602\O,0,-7.380632,-0.758529,-0.121818\C,0,-8.236494,1.732053
 ,-0.092468\C,0,-8.167531,1.858378,-1.59796\C,0,-6.949407,2.048429,-2.2
 64646\C,0,-6.915449,2.207455,-3.645814\C,0,-8.118345,2.181722,-4.35316
 4\C,0,-9.347442,1.998258,-3.715273\C,0,-9.360918,1.834653,-2.335972\N,
 0,-8.091854,2.349056,-5.799008\O,0,-6.999285,2.506567,-6.35604\O,0,-9.
 163546,2.328303,-6.415579\C,0,-4.52287,0.816471,1.593445\N,0,-3.153281
 ,0.820172,1.361687\C,0,-2.591436,1.907926,2.013649\C,0,-3.637268,2.539
 265,2.717432\C,0,-4.852635,1.879503,2.467582\C,0,-6.171383,2.177739,3.
 113538\C,0,-1.23346,2.384631,1.923971\C,0,-0.304632,2.11536,0.971341\C
 ,0,1.049883,2.659784,0.916049\C,0,1.626601,3.45469,1.934083\C,0,2.9117
 27,3.959107,1.813485\C,0,3.680273,3.686563,0.667976\O,0,4.93546,4.2338
 79,0.648659\C,0,5.746972,4.041803,-0.518503\C,0,7.060474,4.770626,-0.2
 92942\O,0,6.921155,6.173137,-0.095476\C,0,6.62418,6.909312,-1.282942\C
 ,0,6.719673,8.38911,-0.960224\O,0,8.053864,8.777471,-0.61914\C,0,8.703
 623,9.629925,-1.560917\C,0,9.05391,8.956942,-2.886171\O,0,9.799323,7.7
 49299,-2.758113\C,0,11.129509,7.935132,-2.286608\C,0,3.140272,2.892487
 ,-0.350508\C,0,1.844607,2.392725,-0.2145\C,0,-6.671405,-3.278538,1.004
 11\C,0,-1.607374,-3.258692,0.187967\C,0,-1.152825,-4.331089,-0.510541\
 C,0,0.247164,-4.686154,-0.728441\C,0,0.550142,-5.77768,-1.563684\C,0,1
 .862046,-6.174243,-1.824102\C,0,2.920731,-5.470151,-1.238548\O,0,4.245
 699,-5.762918,-1.420318\C,0,4.587907,-6.89451,-2.233897\C,0,6.094307,-
 7.00335,-2.273641\O,0,6.565748,-7.345965,-0.971853\C,0,7.972603,-7.572
 338,-0.905172\C,0,8.767854,-6.266597,-0.811238\O,0,10.165246,-6.545922
 ,-0.68294\C,0,10.618711,-6.697265,0.663012\C,0,11.056246,-5.353205,1.2
 3691\O,0,11.506404,-5.576235,2.566657\C,0,11.941831,-4.378826,3.195183
 \C,0,2.645166,-4.377962,-0.396762\C,0,1.33667,-3.996937,-0.146498\F,0,
 -1.25678,-0.659006,1.457913\F,0,-2.010154,-0.052471,-0.622855\H,0,-9.0
 14174,1.019834,0.192754\H,0,-8.481934,2.704562,0.345602\H,0,-6.023176,
 2.067434,-1.701429\H,0,-5.978438,2.351819,-4.168586\H,0,-10.263681,1.9
 78079,-4.291437\H,0,-10.307148,1.68275,-1.825302\H,0,-6.827359,1.30516
 5,3.101752\H,0,-6.019623,2.473913,4.156661\H,0,-6.704784,2.996925,2.61
 7457\H,0,-0.98361,3.100751,2.703027\H,0,-0.569271,1.465298,0.143722\H,
 0,1.064075,3.677438,2.835549\H,0,3.346344,4.569092,2.599555\H,0,5.9546
 18,2.974935,-0.67064\H,0,5.221941,4.419009,-1.403723\H,0,7.536494,4.38
 4972,0.614157\H,0,7.722089,4.558203,-1.145408\H,0,7.333414,6.639629,-2
 .077339\H,0,5.607612,6.69231,-1.641803\H,0,6.343046,8.968276,-1.811531
 \H,0,6.079066,8.608253,-0.096567\H,0,8.085142,10.512632,-1.783183\H,0,
 9.608675,9.981252,-1.056361\H,0,8.141659,8.681111,-3.424131\H,0,9.6010
 49,9.686913,-3.503846\H,0,11.638348,6.972228,-2.380516\H,0,11.666327,8
 .681819,-2.889026\H,0,11.161133,8.2449,-1.234188\H,0,3.711212,2.658125
 ,-1.240913\H,0,1.434688,1.778854,-1.012465\H,0,-7.212658,-2.539193,1.5
 94449\H,0,-7.252712,-3.458647,0.092862\H,0,-6.649292,-4.2176,1.56659\H
 ,0,-0.888669,-2.556848,0.594846\H,0,-1.865963,-4.998516,-0.984748\H,0,
 -0.264757,-6.330158,-2.024276\H,0,2.04434,-7.020416,-2.475384\H,0,4.14
 9559,-7.806444,-1.810968\H,0,4.208827,-6.759519,-3.253925\H,0,6.367677
 ,-7.783956,-2.998547\H,0,6.524023,-6.053862,-2.619279\H,0,8.143831,-8.
 171059,-0.004614\H,0,8.314636,-8.155928,-1.771501\H,0,8.650594,-5.6739
 99,-1.723656\H,0,8.39996,-5.666874,0.030533\H,0,9.844077,-7.14224,1.29
 979\H,0,11.471097,-7.384224,0.640373\H,0,11.861412,-4.927907,0.618142\
 H,0,10.216568,-4.64087,1.228179\H,0,12.26686,-4.639343,4.205712\H,0,12
 .784236,-3.923217,2.65486\H,0,11.130147,-3.639808,3.259961\H,0,3.47634
 7,-3.845441,0.055216\H,0,1.157847,-3.155312,0.515366\O,0,-6.98503,1.37
 3527,0.507364\I,0,-4.33731,-5.754064,0.354416\I,0,-3.437651,4.247555,3
 .915832\\Version=ES64L-G16RevA.03\State=2-A\HF=-3786.6068244\S2=0.7736
 41\S2-1=0.\S2A=0.750465\RMSD=2.887e-09\Dipole=6.7919613,1.3117423,-1.1
 480166\Quadrupole=-4.7337509,24.9310411,-20.1972902,9.8414325,-61.6368
 761,5.4475367\PG=C01 [X(C49H54B1F2I2N3O12)]\\@


 NEVER LOSE YOUR IGNORANCE, IT CAN'T BE REPLACED.
   -- ANDY CAPP
 Job cpu time:       2 days 19 hours 24 minutes 35.8 seconds.
 Elapsed time:       0 days  1 hours  4 minutes  4.0 seconds.
 File lengths (MBytes):  RWF=   9354 Int=      0 D2E=      0 Chk=    596 Scr=      1
 Normal termination of Gaussian 16 at Fri Nov 14 05:02:35 2025.
