 Entering Gaussian System, Link 0=g16
 Input=BE_N3_sp.gjf
 Output=BE_N3_sp.log
 Initial command:
 /public/software/gauss/g16/l1.exe "/public/home/baiding/1105_BE_sp/tmp_BE_N3_sp_1568733/Gau-1942892.inp" -scrdir="/public/home/baiding/1105_BE_sp/tmp_BE_N3_sp_1568733/"
 Entering Link 1 = /public/software/gauss/g16/l1.exe PID=   1942893.
  
 Copyright (c) 1988,1990,1992,1993,1995,1998,2003,2009,2016,
            Gaussian, Inc.  All Rights Reserved.
  
 This is part of the Gaussian(R) 16 program.  It is based on
 the Gaussian(R) 09 system (copyright 2009, Gaussian, Inc.),
 the Gaussian(R) 03 system (copyright 2003, Gaussian, Inc.),
 the Gaussian(R) 98 system (copyright 1998, Gaussian, Inc.),
 the Gaussian(R) 94 system (copyright 1995, Gaussian, Inc.),
 the Gaussian 92(TM) system (copyright 1992, Gaussian, Inc.),
 the Gaussian 90(TM) system (copyright 1990, Gaussian, Inc.),
 the Gaussian 88(TM) system (copyright 1988, Gaussian, Inc.),
 the Gaussian 86(TM) system (copyright 1986, Carnegie Mellon
 University), and the Gaussian 82(TM) system (copyright 1983,
 Carnegie Mellon University). Gaussian is a federally registered
 trademark of Gaussian, Inc.
  
 This software contains proprietary and confidential information,
 including trade secrets, belonging to Gaussian, Inc.
  
 This software is provided under written license and may be
 used, copied, transmitted, or stored only in accord with that
 written license.
  
 The following legend is applicable only to US Government
 contracts under FAR:
  
                    RESTRICTED RIGHTS LEGEND
  
 Use, reproduction and disclosure by the US Government is
 subject to restrictions as set forth in subparagraphs (a)
 and (c) of the Commercial Computer Software - Restricted
 Rights clause in FAR 52.227-19.
  
 Gaussian, Inc.
 340 Quinnipiac St., Bldg. 40, Wallingford CT 06492
  
  
 ---------------------------------------------------------------
 Warning -- This program may not be used in any manner that
 competes with the business of Gaussian, Inc. or will provide
 assistance to any competitor of Gaussian, Inc.  The licensee
 of this program is prohibited from giving any competitor of
 Gaussian, Inc. access to this program.  By using this program,
 the user acknowledges that Gaussian, Inc. is engaged in the
 business of creating and licensing software in the field of
 computational chemistry and represents and warrants to the
 licensee that it is not a competitor of Gaussian, Inc. and that
 it will not use this program in any manner prohibited above.
 ---------------------------------------------------------------
  

 Cite this work as:
 Gaussian 16, Revision A.03,
 M. J. Frisch, G. W. Trucks, H. B. Schlegel, G. E. Scuseria, 
 M. A. Robb, J. R. Cheeseman, G. Scalmani, V. Barone, 
 G. A. Petersson, H. Nakatsuji, X. Li, M. Caricato, A. V. Marenich, 
 J. Bloino, B. G. Janesko, R. Gomperts, B. Mennucci, H. P. Hratchian, 
 J. V. Ortiz, A. F. Izmaylov, J. L. Sonnenberg, D. Williams-Young, 
 F. Ding, F. Lipparini, F. Egidi, J. Goings, B. Peng, A. Petrone, 
 T. Henderson, D. Ranasinghe, V. G. Zakrzewski, J. Gao, N. Rega, 
 G. Zheng, W. Liang, M. Hada, M. Ehara, K. Toyota, R. Fukuda, 
 J. Hasegawa, M. Ishida, T. Nakajima, Y. Honda, O. Kitao, H. Nakai, 
 T. Vreven, K. Throssell, J. A. Montgomery, Jr., J. E. Peralta, 
 F. Ogliaro, M. J. Bearpark, J. J. Heyd, E. N. Brothers, K. N. Kudin, 
 V. N. Staroverov, T. A. Keith, R. Kobayashi, J. Normand, 
 K. Raghavachari, A. P. Rendell, J. C. Burant, S. S. Iyengar, 
 J. Tomasi, M. Cossi, J. M. Millam, M. Klene, C. Adamo, R. Cammi, 
 J. W. Ochterski, R. L. Martin, K. Morokuma, O. Farkas, 
 J. B. Foresman, and D. J. Fox, Gaussian, Inc., Wallingford CT, 2016.
 
 ******************************************
 Gaussian 16:  ES64L-G16RevA.03 25-Dec-2016
                 6-Nov-2025 
 ******************************************
 %nprocshared=64
 Will use up to   64 processors via shared memory.
 %mem=230GB
 %chk=BE_N3_sp.chk
 ----------------------------------------------
 #p M062X/DEF2TZVPP scrf=(solvent=water) em=GD3
 ----------------------------------------------
 1/38=1,172=1/1;
 2/12=2,17=6,18=5,40=1/2;
 3/5=44,7=202,11=2,25=1,30=1,70=2201,72=1,74=-55,124=31/1,2,3;
 4//1;
 5/5=2,38=5,53=1/2;
 6/7=2,8=2,9=2,10=2,28=1/1;
 99/5=1,9=1/99;
 Leave Link    1 at Thu Nov  6 02:27:40 2025, MaxMem= 30870077440 cpu:              13.4 elap:               0.2
 (Enter /public/software/gauss/g16/l101.exe)
 ----------------------------
 Energy calculation for BE_N3
 ----------------------------
 Symbolic Z-matrix:
 Charge =  0 Multiplicity = 1
 B                    -3.07969  -0.13754   0.33375 
 N                    -4.04817   1.0153    0.71095 
 C                    -3.72394   2.26848   1.16281 
 C                    -4.92249   2.93478   1.52302 
 C                    -5.99844   2.1038    1.27236 
 C                    -5.43959   0.88403   0.76334 
 C                    -6.05507  -0.32517   0.40915 
 C                    -7.57076  -0.38335   0.35245 
 O                    -8.21408  -0.77411   1.31261 
 C                    -8.18952   0.05723  -0.96571 
 C                    -9.69488   0.14159  -0.97205 
 C                    -10.48429  -1.01413  -0.88216 
 C                    -11.87442  -0.94185  -0.89111 
 C                    -12.50033   0.30758  -0.99194 
 C                    -11.73011   1.47049  -1.08367 
 C                    -10.34004   1.38073  -1.07167 
 N                    -13.91262   0.48957  -1.01273 
 N                    -14.63876  -0.50753  -0.93718 
 N                    -15.42219  -1.3349   -0.87542 
 C                    -5.31177  -1.46776   0.08768 
 N                    -3.912    -1.42277   0.07542 
 C                    -3.45155  -2.65769  -0.30105 
 C                    -4.57169  -3.50206  -0.51576 
 C                    -5.73165  -2.79389  -0.2712 
 C                    -7.11438  -3.36721  -0.3446 
 C                    -2.10614  -3.13254  -0.50192 
 C                    -0.91423  -2.55439  -0.19848 
 C                     0.40122  -3.11828  -0.46606 
 C                     0.61928  -4.35033  -1.12699 
 C                     1.8988   -4.82584  -1.35151 
 C                     3.01839  -4.08688  -0.92551 
 O                     4.23309  -4.64422  -1.20073 
 C                     5.42164  -3.94915  -0.78819 
 C                     6.61287  -4.78341  -1.22335 
 O                     6.65973  -6.07639  -0.6285 
 C                     7.10422  -6.08221   0.72976 
 C                     7.27595  -7.52535   1.16665 
 O                     8.30332  -8.19576   0.42942 
 C                     9.49961  -8.4728    1.15827 
 C                     10.32691  -7.24873   1.5106 
 O                     10.69    -6.56814   0.31446 
 C                     11.48488  -5.41845   0.57415 
 C                     2.83266  -2.86325  -0.26975 
 C                     1.53783  -2.39826  -0.05045 
 C                    -7.43039   2.44464   1.55302 
 C                    -2.4346    2.89843   1.29484 
 C                    -1.23458   2.53614   0.77174 
 C                     0.02918   3.23423   0.96755 
 C                     0.19567   4.34192   1.82277 
 C                     1.42686   4.9708    1.97539 
 C                     2.54218   4.49806   1.26549 
 O                     3.79429   5.03693   1.34711 
 C                     4.00486   6.16633   2.21268 
 C                     5.46601   6.57229   2.15361 
 O                     5.84085   7.27716   0.9752 
 C                     6.095     6.46489  -0.17323 
 C                     6.86969   7.29361  -1.18152 
 O                     8.15751   7.69132  -0.69788 
 C                     9.19319   6.73065  -0.90574 
 C                     9.87227   6.95471  -2.25303 
 O                     10.90299   5.98401  -2.38608 
 C                     11.61324   6.11771  -3.6102 
 C                     2.40317   3.39447   0.40926 
 C                     1.1695    2.77834   0.26869 
 F                    -2.35666   0.18109  -0.82901 
 F                    -2.18684  -0.34232   1.39821 
 H                    -4.96649   3.93976   1.92139 
 H                    -7.73485   1.01653  -1.23726 
 H                    -7.8235   -0.65501  -1.71862 
 H                    -10.00756  -1.98699  -0.80875 
 H                    -12.46331  -1.85151  -0.82318 
 H                    -12.22391   2.43292  -1.16579 
 H                    -9.74869   2.28857  -1.14822 
 H                    -4.50386  -4.54258  -0.8044 
 H                    -7.7267   -2.88299  -1.11277 
 H                    -7.05515  -4.42946  -0.59362 
 H                    -7.64585  -3.27075   0.60635 
 H                    -2.09978  -4.12148  -0.95361 
 H                    -0.90235  -1.59786   0.3087 
 H                    -0.22226  -4.9422   -1.47208 
 H                     2.06166  -5.77094  -1.85967 
 H                     5.47471  -2.96666  -1.27295 
 H                     5.4069   -3.79957   0.29707 
 H                     6.56243  -4.94896  -2.30402 
 H                     7.52968  -4.21762  -1.00422 
 H                     8.05208  -5.5333    0.81338 
 H                     6.37003  -5.60035   1.39147 
 H                     7.47825  -7.55456   2.24389 
 H                     6.33862  -8.06586   0.98629 
 H                     9.27156  -9.01676   2.08623 
 H                     10.08612  -9.13326   0.51172 
 H                     9.77104  -6.57335   2.17803 
 H                     11.22403  -7.58324   2.05551 
 H                     11.71208  -4.95428  -0.38872 
 H                     10.95099  -4.69239   1.20367 
 H                     12.42729  -5.68473   1.07398 
 H                     3.67684  -2.27406   0.06625 
 H                     1.40076  -1.4475    0.45753 
 H                    -8.04891   2.43827   0.64953 
 H                    -7.88354   1.74509   2.26187 
 H                    -7.48912   3.44697   1.98414 
 H                    -2.493     3.81538   1.87652 
 H                    -1.18148   1.67027   0.12234 
 H                    -0.64764   4.72235   2.39021 
 H                     1.51057   5.8176    2.64521 
 H                     3.36671   7.00189   1.90223 
 H                     3.75168   5.89264   3.24436 
 H                     5.64543   7.26069   2.98589 
 H                     6.10353   5.68855   2.29741 
 H                     6.6655    5.5709    0.11606 
 H                     5.15891   6.12793  -0.63814 
 H                     6.95208   6.73194  -2.12043 
 H                     6.32268   8.21908  -1.38984 
 H                     9.92215   6.86301  -0.09965 
 H                     8.80861   5.70498  -0.84491 
 H                     9.14369   6.85807  -3.07282 
 H                     10.28824   7.9729   -2.29475 
 H                     12.09946   7.1006   -3.68824 
 H                     12.37972   5.33904  -3.62972 
 H                     10.94938   5.98825  -4.47689 
 H                     3.27302   3.03669  -0.13213 
 H                     1.07455   1.92415  -0.39604 
 
 ITRead=  0  0  0  0  0  0  0  0  0  0  0  0  0  0  0  0  0  0  0  0
 ITRead=  0  0  0  0  0  0  0  0  0  0  0  0  0  0  0  0  0  0  0  0
 ITRead=  0  0  0  0  0  0  0  0  0  0  0  0  0  0  0  0  0  0  0  0
 ITRead=  0  0  0  0  0  0  0  0  0  0  0  0  0  0  0  0  0  0  0  0
 ITRead=  0  0  0  0  0  0  0  0  0  0  0  0  0  0  0  0  0  0  0  0
 ITRead=  0  0  0  0  0  0  0  0  0  0  0  0  0  0  0  0  0  0  0  0
 ITRead=  0  0
 MicOpt= -1 -1 -1 -1 -1 -1 -1 -1 -1 -1 -1 -1 -1 -1 -1 -1 -1 -1 -1 -1
 MicOpt= -1 -1 -1 -1 -1 -1 -1 -1 -1 -1 -1 -1 -1 -1 -1 -1 -1 -1 -1 -1
 MicOpt= -1 -1 -1 -1 -1 -1 -1 -1 -1 -1 -1 -1 -1 -1 -1 -1 -1 -1 -1 -1
 MicOpt= -1 -1 -1 -1 -1 -1 -1 -1 -1 -1 -1 -1 -1 -1 -1 -1 -1 -1 -1 -1
 MicOpt= -1 -1 -1 -1 -1 -1 -1 -1 -1 -1 -1 -1 -1 -1 -1 -1 -1 -1 -1 -1
 MicOpt= -1 -1 -1 -1 -1 -1 -1 -1 -1 -1 -1 -1 -1 -1 -1 -1 -1 -1 -1 -1
 MicOpt= -1 -1
 NAtoms=    122 NQM=      122 NQMF=       0 NMMI=      0 NMMIF=      0
                NMic=       0 NMicF=      0.
                    Isotopes and Nuclear Properties:
 (Nuclear quadrupole moments (NQMom) in fm**2, nuclear magnetic moments (NMagM)
  in nuclear magnetons)

  Atom         1           2           3           4           5           6           7           8           9          10
 IAtWgt=          11          14          12          12          12          12          12          12          16          12
 AtmWgt=  11.0093053  14.0030740  12.0000000  12.0000000  12.0000000  12.0000000  12.0000000  12.0000000  15.9949146  12.0000000
 NucSpn=           3           2           0           0           0           0           0           0           0           0
 AtZEff=  -0.0000000  -0.0000000  -0.0000000  -0.0000000  -0.0000000  -0.0000000  -0.0000000  -0.0000000  -0.0000000  -0.0000000
 NQMom=    4.0590000   2.0440000   0.0000000   0.0000000   0.0000000   0.0000000   0.0000000   0.0000000   0.0000000   0.0000000
 NMagM=    2.6886370   0.4037610   0.0000000   0.0000000   0.0000000   0.0000000   0.0000000   0.0000000   0.0000000   0.0000000
 AtZNuc=   5.0000000   7.0000000   6.0000000   6.0000000   6.0000000   6.0000000   6.0000000   6.0000000   8.0000000   6.0000000

  Atom        11          12          13          14          15          16          17          18          19          20
 IAtWgt=          12          12          12          12          12          12          14          14          14          12
 AtmWgt=  12.0000000  12.0000000  12.0000000  12.0000000  12.0000000  12.0000000  14.0030740  14.0030740  14.0030740  12.0000000
 NucSpn=           0           0           0           0           0           0           2           2           2           0
 AtZEff=  -0.0000000  -0.0000000  -0.0000000  -0.0000000  -0.0000000  -0.0000000  -0.0000000  -0.0000000  -0.0000000  -0.0000000
 NQMom=    0.0000000   0.0000000   0.0000000   0.0000000   0.0000000   0.0000000   2.0440000   2.0440000   2.0440000   0.0000000
 NMagM=    0.0000000   0.0000000   0.0000000   0.0000000   0.0000000   0.0000000   0.4037610   0.4037610   0.4037610   0.0000000
 AtZNuc=   6.0000000   6.0000000   6.0000000   6.0000000   6.0000000   6.0000000   7.0000000   7.0000000   7.0000000   6.0000000

  Atom        21          22          23          24          25          26          27          28          29          30
 IAtWgt=          14          12          12          12          12          12          12          12          12          12
 AtmWgt=  14.0030740  12.0000000  12.0000000  12.0000000  12.0000000  12.0000000  12.0000000  12.0000000  12.0000000  12.0000000
 NucSpn=           2           0           0           0           0           0           0           0           0           0
 AtZEff=  -0.0000000  -0.0000000  -0.0000000  -0.0000000  -0.0000000  -0.0000000  -0.0000000  -0.0000000  -0.0000000  -0.0000000
 NQMom=    2.0440000   0.0000000   0.0000000   0.0000000   0.0000000   0.0000000   0.0000000   0.0000000   0.0000000   0.0000000
 NMagM=    0.4037610   0.0000000   0.0000000   0.0000000   0.0000000   0.0000000   0.0000000   0.0000000   0.0000000   0.0000000
 AtZNuc=   7.0000000   6.0000000   6.0000000   6.0000000   6.0000000   6.0000000   6.0000000   6.0000000   6.0000000   6.0000000

  Atom        31          32          33          34          35          36          37          38          39          40
 IAtWgt=          12          16          12          12          16          12          12          16          12          12
 AtmWgt=  12.0000000  15.9949146  12.0000000  12.0000000  15.9949146  12.0000000  12.0000000  15.9949146  12.0000000  12.0000000
 NucSpn=           0           0           0           0           0           0           0           0           0           0
 AtZEff=  -0.0000000  -0.0000000  -0.0000000  -0.0000000  -0.0000000  -0.0000000  -0.0000000  -0.0000000  -0.0000000  -0.0000000
 NQMom=    0.0000000   0.0000000   0.0000000   0.0000000   0.0000000   0.0000000   0.0000000   0.0000000   0.0000000   0.0000000
 NMagM=    0.0000000   0.0000000   0.0000000   0.0000000   0.0000000   0.0000000   0.0000000   0.0000000   0.0000000   0.0000000
 AtZNuc=   6.0000000   8.0000000   6.0000000   6.0000000   8.0000000   6.0000000   6.0000000   8.0000000   6.0000000   6.0000000

  Atom        41          42          43          44          45          46          47          48          49          50
 IAtWgt=          16          12          12          12          12          12          12          12          12          12
 AtmWgt=  15.9949146  12.0000000  12.0000000  12.0000000  12.0000000  12.0000000  12.0000000  12.0000000  12.0000000  12.0000000
 NucSpn=           0           0           0           0           0           0           0           0           0           0
 AtZEff=  -0.0000000  -0.0000000  -0.0000000  -0.0000000  -0.0000000  -0.0000000  -0.0000000  -0.0000000  -0.0000000  -0.0000000
 NQMom=    0.0000000   0.0000000   0.0000000   0.0000000   0.0000000   0.0000000   0.0000000   0.0000000   0.0000000   0.0000000
 NMagM=    0.0000000   0.0000000   0.0000000   0.0000000   0.0000000   0.0000000   0.0000000   0.0000000   0.0000000   0.0000000
 AtZNuc=   8.0000000   6.0000000   6.0000000   6.0000000   6.0000000   6.0000000   6.0000000   6.0000000   6.0000000   6.0000000

  Atom        51          52          53          54          55          56          57          58          59          60
 IAtWgt=          12          16          12          12          16          12          12          16          12          12
 AtmWgt=  12.0000000  15.9949146  12.0000000  12.0000000  15.9949146  12.0000000  12.0000000  15.9949146  12.0000000  12.0000000
 NucSpn=           0           0           0           0           0           0           0           0           0           0
 AtZEff=  -0.0000000  -0.0000000  -0.0000000  -0.0000000  -0.0000000  -0.0000000  -0.0000000  -0.0000000  -0.0000000  -0.0000000
 NQMom=    0.0000000   0.0000000   0.0000000   0.0000000   0.0000000   0.0000000   0.0000000   0.0000000   0.0000000   0.0000000
 NMagM=    0.0000000   0.0000000   0.0000000   0.0000000   0.0000000   0.0000000   0.0000000   0.0000000   0.0000000   0.0000000
 AtZNuc=   6.0000000   8.0000000   6.0000000   6.0000000   8.0000000   6.0000000   6.0000000   8.0000000   6.0000000   6.0000000

  Atom        61          62          63          64          65          66          67          68          69          70
 IAtWgt=          16          12          12          12          19          19           1           1           1           1
 AtmWgt=  15.9949146  12.0000000  12.0000000  12.0000000  18.9984033  18.9984033   1.0078250   1.0078250   1.0078250   1.0078250
 NucSpn=           0           0           0           0           1           1           1           1           1           1
 AtZEff=  -0.0000000  -0.0000000  -0.0000000  -0.0000000  -0.0000000  -0.0000000  -0.0000000  -0.0000000  -0.0000000  -0.0000000
 NQMom=    0.0000000   0.0000000   0.0000000   0.0000000   0.0000000   0.0000000   0.0000000   0.0000000   0.0000000   0.0000000
 NMagM=    0.0000000   0.0000000   0.0000000   0.0000000   2.6288670   2.6288670   2.7928460   2.7928460   2.7928460   2.7928460
 AtZNuc=   8.0000000   6.0000000   6.0000000   6.0000000   9.0000000   9.0000000   1.0000000   1.0000000   1.0000000   1.0000000

  Atom        71          72          73          74          75          76          77          78          79          80
 IAtWgt=           1           1           1           1           1           1           1           1           1           1
 AtmWgt=   1.0078250   1.0078250   1.0078250   1.0078250   1.0078250   1.0078250   1.0078250   1.0078250   1.0078250   1.0078250
 NucSpn=           1           1           1           1           1           1           1           1           1           1
 AtZEff=  -0.0000000  -0.0000000  -0.0000000  -0.0000000  -0.0000000  -0.0000000  -0.0000000  -0.0000000  -0.0000000  -0.0000000
 NQMom=    0.0000000   0.0000000   0.0000000   0.0000000   0.0000000   0.0000000   0.0000000   0.0000000   0.0000000   0.0000000
 NMagM=    2.7928460   2.7928460   2.7928460   2.7928460   2.7928460   2.7928460   2.7928460   2.7928460   2.7928460   2.7928460
 AtZNuc=   1.0000000   1.0000000   1.0000000   1.0000000   1.0000000   1.0000000   1.0000000   1.0000000   1.0000000   1.0000000

  Atom        81          82          83          84          85          86          87          88          89          90
 IAtWgt=           1           1           1           1           1           1           1           1           1           1
 AtmWgt=   1.0078250   1.0078250   1.0078250   1.0078250   1.0078250   1.0078250   1.0078250   1.0078250   1.0078250   1.0078250
 NucSpn=           1           1           1           1           1           1           1           1           1           1
 AtZEff=  -0.0000000  -0.0000000  -0.0000000  -0.0000000  -0.0000000  -0.0000000  -0.0000000  -0.0000000  -0.0000000  -0.0000000
 NQMom=    0.0000000   0.0000000   0.0000000   0.0000000   0.0000000   0.0000000   0.0000000   0.0000000   0.0000000   0.0000000
 NMagM=    2.7928460   2.7928460   2.7928460   2.7928460   2.7928460   2.7928460   2.7928460   2.7928460   2.7928460   2.7928460
 AtZNuc=   1.0000000   1.0000000   1.0000000   1.0000000   1.0000000   1.0000000   1.0000000   1.0000000   1.0000000   1.0000000

  Atom        91          92          93          94          95          96          97          98          99         100
 IAtWgt=           1           1           1           1           1           1           1           1           1           1
 AtmWgt=   1.0078250   1.0078250   1.0078250   1.0078250   1.0078250   1.0078250   1.0078250   1.0078250   1.0078250   1.0078250
 NucSpn=           1           1           1           1           1           1           1           1           1           1
 AtZEff=  -0.0000000  -0.0000000  -0.0000000  -0.0000000  -0.0000000  -0.0000000  -0.0000000  -0.0000000  -0.0000000  -0.0000000
 NQMom=    0.0000000   0.0000000   0.0000000   0.0000000   0.0000000   0.0000000   0.0000000   0.0000000   0.0000000   0.0000000
 NMagM=    2.7928460   2.7928460   2.7928460   2.7928460   2.7928460   2.7928460   2.7928460   2.7928460   2.7928460   2.7928460
 AtZNuc=   1.0000000   1.0000000   1.0000000   1.0000000   1.0000000   1.0000000   1.0000000   1.0000000   1.0000000   1.0000000

  Atom       101         102         103         104         105         106         107         108         109         110
 IAtWgt=           1           1           1           1           1           1           1           1           1           1
 AtmWgt=   1.0078250   1.0078250   1.0078250   1.0078250   1.0078250   1.0078250   1.0078250   1.0078250   1.0078250   1.0078250
 NucSpn=           1           1           1           1           1           1           1           1           1           1
 AtZEff=  -0.0000000  -0.0000000  -0.0000000  -0.0000000  -0.0000000  -0.0000000  -0.0000000  -0.0000000  -0.0000000  -0.0000000
 NQMom=    0.0000000   0.0000000   0.0000000   0.0000000   0.0000000   0.0000000   0.0000000   0.0000000   0.0000000   0.0000000
 NMagM=    2.7928460   2.7928460   2.7928460   2.7928460   2.7928460   2.7928460   2.7928460   2.7928460   2.7928460   2.7928460
 AtZNuc=   1.0000000   1.0000000   1.0000000   1.0000000   1.0000000   1.0000000   1.0000000   1.0000000   1.0000000   1.0000000

  Atom       111         112         113         114         115         116         117         118         119         120
 IAtWgt=           1           1           1           1           1           1           1           1           1           1
 AtmWgt=   1.0078250   1.0078250   1.0078250   1.0078250   1.0078250   1.0078250   1.0078250   1.0078250   1.0078250   1.0078250
 NucSpn=           1           1           1           1           1           1           1           1           1           1
 AtZEff=  -0.0000000  -0.0000000  -0.0000000  -0.0000000  -0.0000000  -0.0000000  -0.0000000  -0.0000000  -0.0000000  -0.0000000
 NQMom=    0.0000000   0.0000000   0.0000000   0.0000000   0.0000000   0.0000000   0.0000000   0.0000000   0.0000000   0.0000000
 NMagM=    2.7928460   2.7928460   2.7928460   2.7928460   2.7928460   2.7928460   2.7928460   2.7928460   2.7928460   2.7928460
 AtZNuc=   1.0000000   1.0000000   1.0000000   1.0000000   1.0000000   1.0000000   1.0000000   1.0000000   1.0000000   1.0000000

  Atom       121         122
 IAtWgt=           1           1
 AtmWgt=   1.0078250   1.0078250
 NucSpn=           1           1
 AtZEff=  -0.0000000  -0.0000000
 NQMom=    0.0000000   0.0000000
 NMagM=    2.7928460   2.7928460
 AtZNuc=   1.0000000   1.0000000
 Leave Link  101 at Thu Nov  6 02:27:40 2025, MaxMem= 30870077440 cpu:               5.4 elap:               0.1
 (Enter /public/software/gauss/g16/l202.exe)
 Stoichiometry    C49H56BF2N5O9
 Framework group  C1[X(C49H56BF2N5O9)]
 Deg. of freedom   360
 Full point group                 C1      NOp   1
 Largest Abelian subgroup         C1      NOp   1
 Largest concise Abelian subgroup C1      NOp   1
                         Standard orientation:                         
 ---------------------------------------------------------------------
 Center     Atomic      Atomic             Coordinates (Angstroms)
 Number     Number       Type             X           Y           Z
 ---------------------------------------------------------------------
      1          5           0        3.079694   -0.137537   -0.333745
      2          7           0        4.048170    1.015298   -0.710950
      3          6           0        3.723939    2.268475   -1.162813
      4          6           0        4.922494    2.934780   -1.523015
      5          6           0        5.998442    2.103802   -1.272357
      6          6           0        5.439590    0.884028   -0.763342
      7          6           0        6.055067   -0.325169   -0.409148
      8          6           0        7.570756   -0.383351   -0.352452
      9          8           0        8.214079   -0.774105   -1.312612
     10          6           0        8.189515    0.057232    0.965707
     11          6           0        9.694878    0.141593    0.972052
     12          6           0       10.484295   -1.014134    0.882160
     13          6           0       11.874423   -0.941847    0.891113
     14          6           0       12.500326    0.307583    0.991940
     15          6           0       11.730110    1.470490    1.083669
     16          6           0       10.340037    1.380733    1.071674
     17          7           0       13.912617    0.489573    1.012730
     18          7           0       14.638759   -0.507532    0.937176
     19          7           0       15.422186   -1.334904    0.875417
     20          6           0        5.311768   -1.467756   -0.087677
     21          7           0        3.911995   -1.422769   -0.075415
     22          6           0        3.451551   -2.657692    0.301054
     23          6           0        4.571694   -3.502056    0.515757
     24          6           0        5.731650   -2.793894    0.271195
     25          6           0        7.114380   -3.367206    0.344598
     26          6           0        2.106138   -3.132543    0.501919
     27          6           0        0.914234   -2.554392    0.198479
     28          6           0       -0.401217   -3.118275    0.466061
     29          6           0       -0.619279   -4.350328    1.126988
     30          6           0       -1.898804   -4.825836    1.351509
     31          6           0       -3.018395   -4.086877    0.925508
     32          8           0       -4.233088   -4.644219    1.200729
     33          6           0       -5.421645   -3.949154    0.788187
     34          6           0       -6.612867   -4.783408    1.223352
     35          8           0       -6.659733   -6.076385    0.628503
     36          6           0       -7.104222   -6.082213   -0.729755
     37          6           0       -7.275955   -7.525348   -1.166645
     38          8           0       -8.303322   -8.195759   -0.429421
     39          6           0       -9.499605   -8.472801   -1.158269
     40          6           0      -10.326911   -7.248725   -1.510596
     41          8           0      -10.690002   -6.568142   -0.314457
     42          6           0      -11.484881   -5.418450   -0.574146
     43          6           0       -2.832657   -2.863248    0.269748
     44          6           0       -1.537829   -2.398261    0.050446
     45          6           0        7.430388    2.444642   -1.553018
     46          6           0        2.434601    2.898429   -1.294842
     47          6           0        1.234575    2.536135   -0.771744
     48          6           0       -0.029180    3.234230   -0.967545
     49          6           0       -0.195670    4.341922   -1.822774
     50          6           0       -1.426859    4.970800   -1.975393
     51          6           0       -2.542179    4.498059   -1.265488
     52          8           0       -3.794285    5.036931   -1.347113
     53          6           0       -4.004855    6.166326   -2.212681
     54          6           0       -5.466006    6.572293   -2.153613
     55          8           0       -5.840854    7.277156   -0.975195
     56          6           0       -6.095004    6.464894    0.173234
     57          6           0       -6.869694    7.293612    1.181515
     58          8           0       -8.157512    7.691318    0.697877
     59          6           0       -9.193186    6.730651    0.905744
     60          6           0       -9.872273    6.954711    2.253033
     61          8           0      -10.902994    5.984007    2.386078
     62          6           0      -11.613240    6.117710    3.610198
     63          6           0       -2.403170    3.394469   -0.409259
     64          6           0       -1.169501    2.778342   -0.268689
     65          9           0        2.356664    0.181092    0.829011
     66          9           0        2.186838   -0.342317   -1.398209
     67          1           0        4.966485    3.939759   -1.921390
     68          1           0        7.734850    1.016526    1.237263
     69          1           0        7.823500   -0.655010    1.718624
     70          1           0       10.007562   -1.986986    0.808752
     71          1           0       12.463310   -1.851510    0.823182
     72          1           0       12.223907    2.432920    1.165792
     73          1           0        9.748692    2.288571    1.148222
     74          1           0        4.503859   -4.542582    0.804402
     75          1           0        7.726695   -2.882990    1.112770
     76          1           0        7.055149   -4.429464    0.593619
     77          1           0        7.645854   -3.270753   -0.606351
     78          1           0        2.099779   -4.121478    0.953612
     79          1           0        0.902354   -1.597863   -0.308698
     80          1           0        0.222256   -4.942204    1.472078
     81          1           0       -2.061657   -5.770937    1.859666
     82          1           0       -5.474705   -2.966664    1.272946
     83          1           0       -5.406898   -3.799569   -0.297068
     84          1           0       -6.562426   -4.948956    2.304018
     85          1           0       -7.529676   -4.217622    1.004224
     86          1           0       -8.052081   -5.533302   -0.813382
     87          1           0       -6.370025   -5.600353   -1.391471
     88          1           0       -7.478252   -7.554556   -2.243893
     89          1           0       -6.338617   -8.065857   -0.986290
     90          1           0       -9.271563   -9.016758   -2.086228
     91          1           0      -10.086120   -9.133264   -0.511723
     92          1           0       -9.771041   -6.573346   -2.178030
     93          1           0      -11.224026   -7.583240   -2.055506
     94          1           0      -11.712075   -4.954282    0.388721
     95          1           0      -10.950991   -4.692386   -1.203666
     96          1           0      -12.427292   -5.684726   -1.073975
     97          1           0       -3.676836   -2.274059   -0.066245
     98          1           0       -1.400761   -1.447502   -0.457533
     99          1           0        8.048912    2.438268   -0.649528
    100          1           0        7.883541    1.745089   -2.261866
    101          1           0        7.489116    3.446965   -1.984143
    102          1           0        2.492999    3.815377   -1.876524
    103          1           0        1.181483    1.670266   -0.122343
    104          1           0        0.647637    4.722352   -2.390214
    105          1           0       -1.510569    5.817604   -2.645211
    106          1           0       -3.366712    7.001890   -1.902230
    107          1           0       -3.751677    5.892635   -3.244362
    108          1           0       -5.645428    7.260686   -2.985892
    109          1           0       -6.103528    5.688553   -2.297411
    110          1           0       -6.665496    5.570902   -0.116055
    111          1           0       -5.158911    6.127931    0.638139
    112          1           0       -6.952083    6.731939    2.120434
    113          1           0       -6.322679    8.219078    1.389838
    114          1           0       -9.922150    6.863009    0.099645
    115          1           0       -8.808607    5.704977    0.844911
    116          1           0       -9.143688    6.858074    3.072820
    117          1           0      -10.288239    7.972898    2.294747
    118          1           0      -12.099462    7.100601    3.688243
    119          1           0      -12.379720    5.339042    3.629716
    120          1           0      -10.949376    5.988246    4.476888
    121          1           0       -3.273023    3.036686    0.132132
    122          1           0       -1.074547    1.924151    0.396042
 ---------------------------------------------------------------------
 Rotational constants (GHZ):           0.0267385           0.0101640           0.0076606
 Leave Link  202 at Thu Nov  6 02:27:40 2025, MaxMem= 30870077440 cpu:               0.2 elap:               0.0
 (Enter /public/software/gauss/g16/l301.exe)
 Standard basis: def2TZVPP (5D, 7F)
 Ernie: Thresh=  0.10000D-02 Tol=  0.10000D-05 Strict=F.
 There are  3216 symmetry adapted cartesian basis functions of A   symmetry.
 There are  2830 symmetry adapted basis functions of A   symmetry.
  2830 basis functions,  4318 primitive gaussians,  3216 cartesian basis functions
   240 alpha electrons      240 beta electrons
       nuclear repulsion energy      8652.3833461243 Hartrees.
 IExCor= 4336 DFT=T Ex+Corr=M062X ExCW=0 ScaHFX=  0.540000
 ScaDFX=  1.000000  1.000000  1.000000  1.000000 ScalE2=  1.000000  1.000000
 IRadAn=      5 IRanWt=     -1 IRanGd=            0 ICorTp=0 IEmpDi=131
 NAtoms=  122 NActive=  122 NUniq=  122 SFac= 1.00D+00 NAtFMM=   60 NAOKFM=T Big=T
 Integral buffers will be    131072 words long.
 Raffenetti 2 integral format.
 Two-electron integral symmetry is turned on.
 R6Disp:  Grimme-D3 Dispersion energy=       -0.0098109345 Hartrees.
 Nuclear repulsion after empirical dispersion term =     8652.3735351898 Hartrees.
 ------------------------------------------------------------------------------
 Polarizable Continuum Model (PCM)
 =================================
 Model                : PCM.
 Atomic radii         : UFF (Universal Force Field).
 Polarization charges : Total charges.
 Charge compensation  : None.
 Solution method      : On-the-fly selection.
 Cavity type          : Scaled VdW (van der Waals Surface) (Alpha=1.100).
 Cavity algorithm     : GePol (No added spheres)
                        Default sphere list used, NSphG=  122.
                        Lebedev-Laikov grids with approx.  5.0 points / Ang**2.
                        Smoothing algorithm: York/Karplus (Gamma=1.0000).
                        Polarization charges: spherical gaussians, with
                                              point-specific exponents (IZeta= 3).
                        Self-potential: point-specific (ISelfS= 7).
                        Self-field    : sphere-specific E.n sum rule (ISelfD= 2).
 Solvent              : Water, Eps=  78.355300 Eps(inf)=   1.777849
 ------------------------------------------------------------------------------
 GePol: Number of generator spheres                  =     122
 GePol: Total number of spheres                      =     122
 GePol: Number of exposed spheres                    =     122 (100.00%)
 GePol: Number of points                             =    8593
 GePol: Average weight of points                     =       0.13
 GePol: Minimum weight of points                     =   0.30D-11
 GePol: Maximum weight of points                     =    0.20577
 GePol: Number of points with low weight             =     585
 GePol: Fraction of low-weight points (<1% of avg)   =       6.81%
 GePol: Cavity surface area                          =   1092.705 Ang**2
 GePol: Cavity volume                                =   1240.440 Ang**3
 Leave Link  301 at Thu Nov  6 02:27:40 2025, MaxMem= 30870077440 cpu:               4.7 elap:               0.1
 (Enter /public/software/gauss/g16/l302.exe)
 NPDir=0 NMtPBC=     1 NCelOv=     1 NCel=       1 NClECP=     1 NCelD=      1
         NCelK=      1 NCelE2=     1 NClLst=     1 CellRange=     0.0.
 One-electron integrals computed using PRISM.
 One-electron integral symmetry used in STVInt
   1 Symmetry operations used in ECPInt.
 ECPInt:  NShTT=  564453 NPrTT= 1565416 LenC2=  236084 LenP2D=  435692.
 LDataN:  DoStor=T MaxTD1= 6 Len=  172
 Number of processors reduced to  59 by ecpmxn.
 NBasis=  2830 RedAO= T EigKep=  4.25D-06  NBF=  2830
 NBsUse=  2830 1.00D-06 EigRej= -1.00D+00 NBFU=  2830
 Precomputing XC quadrature grid using
 IXCGrd= 4 IRadAn=           5 IRanWt=          -1 IRanGd=           0 AccXCQ= 0.00D+00.
 Generated NRdTot=       0 NPtTot=           0 NUsed=           0 NTot=          32
 NSgBfM=  2411  2411  2411  2411  2411 MxSgAt=   122 MxSgA2=   122.
 Leave Link  302 at Thu Nov  6 02:28:09 2025, MaxMem= 30870077440 cpu:            1792.2 elap:              28.1
 (Enter /public/software/gauss/g16/l303.exe)
 DipDrv:  MaxL=1.
 Leave Link  303 at Thu Nov  6 02:28:10 2025, MaxMem= 30870077440 cpu:              55.0 elap:               0.9
 (Enter /public/software/gauss/g16/l401.exe)
 ExpMin= 6.06D-02 ExpMax= 3.55D+04 ExpMxC= 1.21D+03 IAcc=3 IRadAn=         5 AccDes= 0.00D+00
 Harris functional with IExCor= 1009 and IRadAn=       5 diagonalized for initial guess.
 HarFok:  IExCor= 1009 AccDes= 0.00D+00 IRadAn=         5 IDoV= 1 UseB2=F ITyADJ=14
 ICtDFT=  3500011 ScaDFX=  1.000000  1.000000  1.000000  1.000000
 FoFCou: FMM=F IPFlag=           0 FMFlag=      100000 FMFlg1=        2001
         NFxFlg=           0 DoJE=T BraDBF=F KetDBF=T FulRan=T
         wScrn=  0.000000 ICntrl=       500 IOpCl=  0 I1Cent=   200000004 NGrid=           0
         NMat0=    1 NMatS0=      1 NMatT0=    0 NMatD0=    1 NMtDS0=    0 NMtDT0=    0
 Petite list used in FoFCou.
 Harris En= -3074.64442175798    
 JPrj=0 DoOrth=F DoCkMO=F.
 Leave Link  401 at Thu Nov  6 02:28:32 2025, MaxMem= 30870077440 cpu:            1433.0 elap:              22.5
 (Enter /public/software/gauss/g16/l502.exe)
 Integral symmetry usage will be decided dynamically.
 Closed shell SCF:
 Using DIIS extrapolation, IDIIS=  1040.
 NGot= 30870077440 LenX= 30849159162 LenY= 30838813290
 Requested convergence on RMS density matrix=1.00D-08 within 128 cycles.
 Requested convergence on MAX density matrix=1.00D-06.
 Requested convergence on             energy=1.00D-06.
 No special actions if energy rises.
 Fock matrices will be formed incrementally for  20 cycles.

 Cycle   1  Pass 1  IDiag  1:
 FoFJK:  IHMeth= 1 ICntrl=       0 DoSepK=F KAlg= 0 I1Cent=           0 FoldK=F
 IRaf= 380000000 NMat=       1 IRICut=       1 DoRegI=T DoRafI=F ISym2E= 0 IDoP0=0 IntGTp=1.
 FoFCou: FMM=T IPFlag=           0 FMFlag=      100000 FMFlg1=        2001
         NFxFlg=           0 DoJE=F BraDBF=F KetDBF=F FulRan=T
         wScrn=  0.000000 ICntrl=         0 IOpCl=  0 I1Cent=           0 NGrid=           0
         NMat0=    1 NMatS0=      1 NMatT0=    0 NMatD0=    1 NMtDS0=    0 NMtDT0=    0
 Symmetry not used in FoFCou.
 FMM levels:  10  Number of levels for PrismC:   9
 Inv3:  Mode=1 IEnd=   221518947.
 Iteration    1 A*A^-1 deviation from unit magnitude is 2.86D-14 for   5365.
 Iteration    1 A*A^-1 deviation from orthogonality  is 7.54D-15 for   4278    665.
 Iteration    1 A^-1*A deviation from unit magnitude is 2.86D-14 for   5365.
 Iteration    1 A^-1*A deviation from orthogonality  is 2.22D-14 for   6148   6127.
 E= -3074.82168607473    
 DIIS: error= 1.58D-02 at cycle   1 NSaved=   1.
 NSaved= 1 IEnMin= 1 EnMin= -3074.82168607473     IErMin= 1 ErrMin= 1.58D-02
 ErrMax= 1.58D-02  0.00D+00 EMaxC= 1.00D-01 BMatC= 1.86D+00 BMatP= 1.86D+00
 IDIUse=3 WtCom= 8.42D-01 WtEn= 1.58D-01
 Coeff-Com:  0.100D+01
 Coeff-En:   0.100D+01
 Coeff:      0.100D+01
 Gap=     0.123 Goal=   None    Shift=    0.000
 GapD=    0.123 DampG=1.000 DampE=0.500 DampFc=0.5000 IDamp=-1.
 Damping current iteration by 5.00D-01
 RMSDP=1.53D-03 MaxDP=6.75D-01              OVMax= 2.07D-01

 Cycle   2  Pass 1  IDiag  1:
 RMSU=  7.63D-04    CP:  1.01D+00
 E= -3075.54674161540     Delta-E=       -0.725055540675 Rises=F Damp=T
 DIIS: error= 5.81D-03 at cycle   2 NSaved=   2.
 NSaved= 2 IEnMin= 2 EnMin= -3075.54674161540     IErMin= 2 ErrMin= 5.81D-03
 ErrMax= 5.81D-03  0.00D+00 EMaxC= 1.00D-01 BMatC= 1.95D-01 BMatP= 1.86D+00
 IDIUse=3 WtCom= 9.42D-01 WtEn= 5.81D-02
 Coeff-Com: -0.162D+00 0.116D+01
 Coeff-En:   0.000D+00 0.100D+01
 Coeff:     -0.153D+00 0.115D+01
 Gap=     0.140 Goal=   None    Shift=    0.000
 RMSDP=4.72D-04 MaxDP=1.03D-01 DE=-7.25D-01 OVMax= 1.52D-01

 Cycle   3  Pass 1  IDiag  1:
 RMSU=  4.69D-04    CP:  9.97D-01  9.88D-01
 E= -3076.16627033410     Delta-E=       -0.619528718702 Rises=F Damp=F
 DIIS: error= 4.52D-03 at cycle   3 NSaved=   3.
 NSaved= 3 IEnMin= 3 EnMin= -3076.16627033410     IErMin= 3 ErrMin= 4.52D-03
 ErrMax= 4.52D-03  0.00D+00 EMaxC= 1.00D-01 BMatC= 9.57D-02 BMatP= 1.95D-01
 IDIUse=3 WtCom= 9.55D-01 WtEn= 4.52D-02
 Coeff-Com: -0.146D+00 0.526D+00 0.621D+00
 Coeff-En:   0.000D+00 0.000D+00 0.100D+01
 Coeff:     -0.140D+00 0.502D+00 0.638D+00
 Gap=     0.127 Goal=   None    Shift=    0.000
 RMSDP=1.78D-04 MaxDP=5.84D-02 DE=-6.20D-01 OVMax= 5.96D-02

 Cycle   4  Pass 1  IDiag  1:
 RMSU=  1.45D-04    CP:  1.00D+00  1.09D+00  8.60D-01
 E= -3076.22571903404     Delta-E=       -0.059448699936 Rises=F Damp=F
 DIIS: error= 2.15D-03 at cycle   4 NSaved=   4.
 NSaved= 4 IEnMin= 4 EnMin= -3076.22571903404     IErMin= 4 ErrMin= 2.15D-03
 ErrMax= 2.15D-03  0.00D+00 EMaxC= 1.00D-01 BMatC= 2.26D-02 BMatP= 9.57D-02
 IDIUse=3 WtCom= 9.79D-01 WtEn= 2.15D-02
 Coeff-Com: -0.548D-01 0.139D+00 0.366D+00 0.550D+00
 Coeff-En:   0.000D+00 0.000D+00 0.193D+00 0.807D+00
 Coeff:     -0.537D-01 0.136D+00 0.363D+00 0.555D+00
 Gap=     0.129 Goal=   None    Shift=    0.000
 RMSDP=7.40D-05 MaxDP=2.20D-02 DE=-5.94D-02 OVMax= 2.33D-02

 Cycle   5  Pass 1  IDiag  1:
 RMSU=  3.95D-05    CP:  9.98D-01  1.06D+00  9.13D-01  6.38D-01
 E= -3076.24350449268     Delta-E=       -0.017785458640 Rises=F Damp=F
 DIIS: error= 8.92D-04 at cycle   5 NSaved=   5.
 NSaved= 5 IEnMin= 5 EnMin= -3076.24350449268     IErMin= 5 ErrMin= 8.92D-04
 ErrMax= 8.92D-04  0.00D+00 EMaxC= 1.00D-01 BMatC= 1.31D-03 BMatP= 2.26D-02
 IDIUse=3 WtCom= 9.91D-01 WtEn= 8.92D-03
 Coeff-Com: -0.193D-01 0.407D-01 0.153D+00 0.292D+00 0.534D+00
 Coeff-En:   0.000D+00 0.000D+00 0.000D+00 0.000D+00 0.100D+01
 Coeff:     -0.192D-01 0.403D-01 0.151D+00 0.290D+00 0.538D+00
 Gap=     0.130 Goal=   None    Shift=    0.000
 RMSDP=1.68D-05 MaxDP=5.37D-03 DE=-1.78D-02 OVMax= 1.08D-02

 Cycle   6  Pass 1  IDiag  1:
 RMSU=  1.41D-05    CP:  9.99D-01  1.07D+00  9.08D-01  6.54D-01  8.20D-01
 E= -3076.24451261700     Delta-E=       -0.001008124320 Rises=F Damp=F
 DIIS: error= 3.34D-04 at cycle   6 NSaved=   6.
 NSaved= 6 IEnMin= 6 EnMin= -3076.24451261700     IErMin= 6 ErrMin= 3.34D-04
 ErrMax= 3.34D-04  0.00D+00 EMaxC= 1.00D-01 BMatC= 1.61D-04 BMatP= 1.31D-03
 IDIUse=3 WtCom= 9.97D-01 WtEn= 3.34D-03
 Coeff-Com: -0.384D-02 0.561D-02 0.394D-01 0.911D-01 0.297D+00 0.571D+00
 Coeff-En:   0.000D+00 0.000D+00 0.000D+00 0.000D+00 0.386D-01 0.961D+00
 Coeff:     -0.383D-02 0.559D-02 0.392D-01 0.908D-01 0.296D+00 0.572D+00
 Gap=     0.130 Goal=   None    Shift=    0.000
 RMSDP=7.13D-06 MaxDP=2.25D-03 DE=-1.01D-03 OVMax= 3.56D-03

 Cycle   7  Pass 1  IDiag  1:
 RMSU=  6.70D-06    CP:  9.99D-01  1.07D+00  9.08D-01  6.56D-01  8.63D-01
                    CP:  9.42D-01
 E= -3076.24464811050     Delta-E=       -0.000135493499 Rises=F Damp=F
 DIIS: error= 6.92D-05 at cycle   7 NSaved=   7.
 NSaved= 7 IEnMin= 7 EnMin= -3076.24464811050     IErMin= 7 ErrMin= 6.92D-05
 ErrMax= 6.92D-05  0.00D+00 EMaxC= 1.00D-01 BMatC= 2.03D-05 BMatP= 1.61D-04
 IDIUse=1 WtCom= 1.00D+00 WtEn= 0.00D+00
 Coeff-Com:  0.883D-03-0.305D-02-0.229D-02 0.351D-02 0.778D-01 0.300D+00
 Coeff-Com:  0.623D+00
 Coeff:      0.883D-03-0.305D-02-0.229D-02 0.351D-02 0.778D-01 0.300D+00
 Coeff:      0.623D+00
 Gap=     0.130 Goal=   None    Shift=    0.000
 RMSDP=3.81D-06 MaxDP=1.45D-03 DE=-1.35D-04 OVMax= 1.84D-03

 Cycle   8  Pass 1  IDiag  1:
 RMSU=  2.23D-06    CP:  9.99D-01  1.07D+00  9.11D-01  6.54D-01  9.05D-01
                    CP:  1.02D+00  9.30D-01
 E= -3076.24466891732     Delta-E=       -0.000020806821 Rises=F Damp=F
 DIIS: error= 2.74D-05 at cycle   8 NSaved=   8.
 NSaved= 8 IEnMin= 8 EnMin= -3076.24466891732     IErMin= 8 ErrMin= 2.74D-05
 ErrMax= 2.74D-05  0.00D+00 EMaxC= 1.00D-01 BMatC= 2.86D-06 BMatP= 2.03D-05
 IDIUse=1 WtCom= 1.00D+00 WtEn= 0.00D+00
 Coeff-Com:  0.122D-02-0.264D-02-0.909D-02-0.172D-01-0.212D-01 0.334D-01
 Coeff-Com:  0.296D+00 0.720D+00
 Coeff:      0.122D-02-0.264D-02-0.909D-02-0.172D-01-0.212D-01 0.334D-01
 Coeff:      0.296D+00 0.720D+00
 Gap=     0.131 Goal=   None    Shift=    0.000
 RMSDP=1.87D-06 MaxDP=4.17D-04 DE=-2.08D-05 OVMax= 9.43D-04

 Cycle   9  Pass 1  IDiag  1:
 RMSU=  1.12D-06    CP:  9.99D-01  1.07D+00  9.11D-01  6.55D-01  9.25D-01
                    CP:  1.06D+00  1.03D+00  1.31D+00
 E= -3076.24467308440     Delta-E=       -0.000004167083 Rises=F Damp=F
 DIIS: error= 8.40D-06 at cycle   9 NSaved=   9.
 NSaved= 9 IEnMin= 9 EnMin= -3076.24467308440     IErMin= 9 ErrMin= 8.40D-06
 ErrMax= 8.40D-06  0.00D+00 EMaxC= 1.00D-01 BMatC= 4.38D-07 BMatP= 2.86D-06
 IDIUse=1 WtCom= 1.00D+00 WtEn= 0.00D+00
 Coeff-Com:  0.408D-03-0.750D-03-0.354D-02-0.806D-02-0.203D-01-0.270D-01
 Coeff-Com:  0.370D-01 0.319D+00 0.703D+00
 Coeff:      0.408D-03-0.750D-03-0.354D-02-0.806D-02-0.203D-01-0.270D-01
 Coeff:      0.370D-01 0.319D+00 0.703D+00
 Gap=     0.131 Goal=   None    Shift=    0.000
 RMSDP=6.93D-07 MaxDP=1.92D-04 DE=-4.17D-06 OVMax= 5.36D-04

 Cycle  10  Pass 1  IDiag  1:
 RMSU=  3.61D-07    CP:  9.99D-01  1.07D+00  9.12D-01  6.54D-01  9.31D-01
                    CP:  1.08D+00  1.07D+00  1.45D+00  1.11D+00
 E= -3076.24467384208     Delta-E=       -0.000000757676 Rises=F Damp=F
 DIIS: error= 3.58D-06 at cycle  10 NSaved=  10.
 NSaved=10 IEnMin=10 EnMin= -3076.24467384208     IErMin=10 ErrMin= 3.58D-06
 ErrMax= 3.58D-06  0.00D+00 EMaxC= 1.00D-01 BMatC= 5.79D-08 BMatP= 4.38D-07
 IDIUse=1 WtCom= 1.00D+00 WtEn= 0.00D+00
 Coeff-Com: -0.845D-04 0.223D-03 0.468D-03 0.346D-03-0.355D-02-0.142D-01
 Coeff-Com: -0.399D-01-0.277D-01 0.250D+00 0.834D+00
 Coeff:     -0.845D-04 0.223D-03 0.468D-03 0.346D-03-0.355D-02-0.142D-01
 Coeff:     -0.399D-01-0.277D-01 0.250D+00 0.834D+00
 Gap=     0.131 Goal=   None    Shift=    0.000
 RMSDP=3.85D-07 MaxDP=9.69D-05 DE=-7.58D-07 OVMax= 2.87D-04

 Cycle  11  Pass 1  IDiag  1:
 RMSU=  1.53D-07    CP:  9.99D-01  1.07D+00  9.12D-01  6.54D-01  9.33D-01
                    CP:  1.08D+00  1.08D+00  1.54D+00  1.29D+00  1.20D+00
 E= -3076.24467397639     Delta-E=       -0.000000134311 Rises=F Damp=F
 DIIS: error= 1.35D-06 at cycle  11 NSaved=  11.
 NSaved=11 IEnMin=11 EnMin= -3076.24467397639     IErMin=11 ErrMin= 1.35D-06
 ErrMax= 1.35D-06  0.00D+00 EMaxC= 1.00D-01 BMatC= 1.12D-08 BMatP= 5.79D-08
 IDIUse=1 WtCom= 1.00D+00 WtEn= 0.00D+00
 Coeff-Com: -0.936D-04 0.203D-03 0.728D-03 0.140D-02 0.139D-02-0.124D-02
 Coeff-Com: -0.206D-01-0.608D-01 0.526D-02 0.353D+00 0.721D+00
 Coeff:     -0.936D-04 0.203D-03 0.728D-03 0.140D-02 0.139D-02-0.124D-02
 Coeff:     -0.206D-01-0.608D-01 0.526D-02 0.353D+00 0.721D+00
 Gap=     0.131 Goal=   None    Shift=    0.000
 RMSDP=1.46D-07 MaxDP=5.05D-05 DE=-1.34D-07 OVMax= 7.22D-05

 Cycle  12  Pass 1  IDiag  1:
 RMSU=  6.18D-08    CP:  9.99D-01  1.07D+00  9.12D-01  6.54D-01  9.34D-01
                    CP:  1.08D+00  1.08D+00  1.57D+00  1.34D+00  1.31D+00
                    CP:  1.12D+00
 E= -3076.24467399464     Delta-E=       -0.000000018255 Rises=F Damp=F
 DIIS: error= 6.15D-07 at cycle  12 NSaved=  12.
 NSaved=12 IEnMin=12 EnMin= -3076.24467399464     IErMin=12 ErrMin= 6.15D-07
 ErrMax= 6.15D-07  0.00D+00 EMaxC= 1.00D-01 BMatC= 1.67D-09 BMatP= 1.12D-08
 IDIUse=1 WtCom= 1.00D+00 WtEn= 0.00D+00
 Coeff-Com: -0.249D-04 0.485D-04 0.226D-03 0.542D-03 0.927D-03 0.156D-02
 Coeff-Com: -0.262D-02-0.225D-01-0.357D-01 0.163D-01 0.290D+00 0.752D+00
 Coeff:     -0.249D-04 0.485D-04 0.226D-03 0.542D-03 0.927D-03 0.156D-02
 Coeff:     -0.262D-02-0.225D-01-0.357D-01 0.163D-01 0.290D+00 0.752D+00
 Gap=     0.131 Goal=   None    Shift=    0.000
 RMSDP=3.79D-08 MaxDP=6.98D-06 DE=-1.83D-08 OVMax= 3.42D-05

 Cycle  13  Pass 1  IDiag  1:
 RMSU=  2.22D-08    CP:  9.99D-01  1.07D+00  9.12D-01  6.54D-01  9.34D-01
                    CP:  1.08D+00  1.08D+00  1.57D+00  1.36D+00  1.36D+00
                    CP:  1.19D+00  1.14D+00
 E= -3076.24467399812     Delta-E=       -0.000000003472 Rises=F Damp=F
 DIIS: error= 1.91D-07 at cycle  13 NSaved=  13.
 NSaved=13 IEnMin=13 EnMin= -3076.24467399812     IErMin=13 ErrMin= 1.91D-07
 ErrMax= 1.91D-07  0.00D+00 EMaxC= 1.00D-01 BMatC= 2.42D-10 BMatP= 1.67D-09
 IDIUse=1 WtCom= 1.00D+00 WtEn= 0.00D+00
 Coeff-Com:  0.557D-05-0.138D-04-0.309D-04-0.848D-05 0.756D-04 0.801D-03
 Coeff-Com:  0.238D-02 0.117D-02-0.127D-01-0.482D-01-0.124D-01 0.271D+00
 Coeff-Com:  0.798D+00
 Coeff:      0.557D-05-0.138D-04-0.309D-04-0.848D-05 0.756D-04 0.801D-03
 Coeff:      0.238D-02 0.117D-02-0.127D-01-0.482D-01-0.124D-01 0.271D+00
 Coeff:      0.798D+00
 Gap=     0.131 Goal=   None    Shift=    0.000
 RMSDP=1.50D-08 MaxDP=2.54D-06 DE=-3.47D-09 OVMax= 9.06D-06

 Cycle  14  Pass 1  IDiag  1:
 RMSU=  8.37D-09    CP:  9.99D-01  1.07D+00  9.12D-01  6.54D-01  9.34D-01
                    CP:  1.08D+00  1.08D+00  1.57D+00  1.36D+00  1.36D+00
                    CP:  1.23D+00  1.26D+00  1.17D+00
 E= -3076.24467399808     Delta-E=        0.000000000035 Rises=F Damp=F
 DIIS: error= 1.21D-07 at cycle  14 NSaved=  14.
 NSaved=14 IEnMin=13 EnMin= -3076.24467399812     IErMin=14 ErrMin= 1.21D-07
 ErrMax= 1.21D-07  0.00D+00 EMaxC= 1.00D-01 BMatC= 3.39D-11 BMatP= 2.42D-10
 IDIUse=1 WtCom= 1.00D+00 WtEn= 0.00D+00
 Coeff-Com:  0.518D-05-0.112D-04-0.412D-04-0.703D-04-0.105D-03 0.837D-04
 Coeff-Com:  0.123D-02 0.329D-02 0.386D-03-0.191D-01-0.445D-01 0.230D-02
 Coeff-Com:  0.303D+00 0.753D+00
 Coeff:      0.518D-05-0.112D-04-0.412D-04-0.703D-04-0.105D-03 0.837D-04
 Coeff:      0.123D-02 0.329D-02 0.386D-03-0.191D-01-0.445D-01 0.230D-02
 Coeff:      0.303D+00 0.753D+00
 Gap=     0.131 Goal=   None    Shift=    0.000
 RMSDP=5.24D-09 MaxDP=2.01D-06 DE= 3.46D-11 OVMax= 3.66D-06

 Cycle  15  Pass 1  IDiag  1:
 RMSU=  3.13D-09    CP:  9.99D-01  1.07D+00  9.12D-01  6.54D-01  9.34D-01
                    CP:  1.08D+00  1.08D+00  1.57D+00  1.36D+00  1.36D+00
                    CP:  1.24D+00  1.29D+00  1.28D+00  1.13D+00
 E= -3076.24467399781     Delta-E=        0.000000000275 Rises=F Damp=F
 DIIS: error= 3.49D-08 at cycle  15 NSaved=  15.
 NSaved=15 IEnMin=13 EnMin= -3076.24467399812     IErMin=15 ErrMin= 3.49D-08
 ErrMax= 3.49D-08  0.00D+00 EMaxC= 1.00D-01 BMatC= 6.76D-12 BMatP= 3.39D-11
 IDIUse=1 WtCom= 1.00D+00 WtEn= 0.00D+00
 Coeff-Com:  0.122D-05-0.247D-05-0.126D-04-0.264D-04-0.559D-04-0.776D-04
 Coeff-Com:  0.192D-03 0.124D-02 0.203D-02-0.131D-02-0.184D-01-0.393D-01
 Coeff-Com:  0.582D-02 0.325D+00 0.725D+00
 Coeff:      0.122D-05-0.247D-05-0.126D-04-0.264D-04-0.559D-04-0.776D-04
 Coeff:      0.192D-03 0.124D-02 0.203D-02-0.131D-02-0.184D-01-0.393D-01
 Coeff:      0.582D-02 0.325D+00 0.725D+00
 Gap=     0.131 Goal=   None    Shift=    0.000
 RMSDP=2.09D-09 MaxDP=5.38D-07 DE= 2.75D-10 OVMax= 1.52D-06

 Error on total polarization charges =  0.03137
 SCF Done:  E(RM062X) =  -3076.24467400     A.U. after   15 cycles
            NFock= 15  Conv=0.21D-08     -V/T= 2.0054
 KE= 3.059662513966D+03 PE=-2.448410288464D+04 EE= 9.695822161486D+03
 Leave Link  502 at Thu Nov  6 02:57:02 2025, MaxMem= 30870077440 cpu:          106975.2 elap:            1709.4
 (Enter /public/software/gauss/g16/l601.exe)
 Copying SCF densities to generalized density rwf, IOpCl= 0 IROHF=0.
 Hyperfine terms turned off by default for NAtoms > 100.

 **********************************************************************

            Population analysis using the SCF density.

 **********************************************************************

 Orbital symmetries:
       Occupied  (A) (A) (A) (A) (A) (A) (A) (A) (A) (A) (A) (A)
                 (A) (A) (A) (A) (A) (A) (A) (A) (A) (A) (A) (A)
                 (A) (A) (A) (A) (A) (A) (A) (A) (A) (A) (A) (A)
                 (A) (A) (A) (A) (A) (A) (A) (A) (A) (A) (A) (A)
                 (A) (A) (A) (A) (A) (A) (A) (A) (A) (A) (A) (A)
                 (A) (A) (A) (A) (A) (A) (A) (A) (A) (A) (A) (A)
                 (A) (A) (A) (A) (A) (A) (A) (A) (A) (A) (A) (A)
                 (A) (A) (A) (A) (A) (A) (A) (A) (A) (A) (A) (A)
                 (A) (A) (A) (A) (A) (A) (A) (A) (A) (A) (A) (A)
                 (A) (A) (A) (A) (A) (A) (A) (A) (A) (A) (A) (A)
                 (A) (A) (A) (A) (A) (A) (A) (A) (A) (A) (A) (A)
                 (A) (A) (A) (A) (A) (A) (A) (A) (A) (A) (A) (A)
                 (A) (A) (A) (A) (A) (A) (A) (A) (A) (A) (A) (A)
                 (A) (A) (A) (A) (A) (A) (A) (A) (A) (A) (A) (A)
                 (A) (A) (A) (A) (A) (A) (A) (A) (A) (A) (A) (A)
                 (A) (A) (A) (A) (A) (A) (A) (A) (A) (A) (A) (A)
                 (A) (A) (A) (A) (A) (A) (A) (A) (A) (A) (A) (A)
                 (A) (A) (A) (A) (A) (A) (A) (A) (A) (A) (A) (A)
                 (A) (A) (A) (A) (A) (A) (A) (A) (A) (A) (A) (A)
                 (A) (A) (A) (A) (A) (A) (A) (A) (A) (A) (A) (A)
       Virtual   (A) (A) (A) (A) (A) (A) (A) (A) (A) (A) (A) (A)
                 (A) (A) (A) (A) (A) (A) (A) (A) (A) (A) (A) (A)
                 (A) (A) (A) (A) (A) (A) (A) (A) (A) (A) (A) (A)
                 (A) (A) (A) (A) (A) (A) (A) (A) (A) (A) (A) (A)
                 (A) (A) (A) (A) (A) (A) (A) (A) (A) (A) (A) (A)
                 (A) (A) (A) (A) (A) (A) (A) (A) (A) (A) (A) (A)
                 (A) (A) (A) (A) (A) (A) (A) (A) (A) (A) (A) (A)
                 (A) (A) (A) (A) (A) (A) (A) (A) (A) (A) (A) (A)
                 (A) (A) (A) (A) (A) (A) (A) (A) (A) (A) (A) (A)
                 (A) (A) (A) (A) (A) (A) (A) (A) (A) (A) (A) (A)
                 (A) (A) (A) (A) (A) (A) (A) (A) (A) (A) (A) (A)
                 (A) (A) (A) (A) (A) (A) (A) (A) (A) (A) (A) (A)
                 (A) (A) (A) (A) (A) (A) (A) (A) (A) (A) (A) (A)
                 (A) (A) (A) (A) (A) (A) (A) (A) (A) (A) (A) (A)
                 (A) (A) (A) (A) (A) (A) (A) (A) (A) (A) (A) (A)
                 (A) (A) (A) (A) (A) (A) (A) (A) (A) (A) (A) (A)
                 (A) (A) (A) (A) (A) (A) (A) (A) (A) (A) (A) (A)
                 (A) (A) (A) (A) (A) (A) (A) (A) (A) (A) (A) (A)
                 (A) (A) (A) (A) (A) (A) (A) (A) (A) (A) (A) (A)
                 (A) (A) (A) (A) (A) (A) (A) (A) (A) (A) (A) (A)
                 (A) (A) (A) (A) (A) (A) (A) (A) (A) (A) (A) (A)
                 (A) (A) (A) (A) (A) (A) (A) (A) (A) (A) (A) (A)
                 (A) (A) (A) (A) (A) (A) (A) (A) (A) (A) (A) (A)
                 (A) (A) (A) (A) (A) (A) (A) (A) (A) (A) (A) (A)
                 (A) (A) (A) (A) (A) (A) (A) (A) (A) (A) (A) (A)
                 (A) (A) (A) (A) (A) (A) (A) (A) (A) (A) (A) (A)
                 (A) (A) (A) (A) (A) (A) (A) (A) (A) (A) (A) (A)
                 (A) (A) (A) (A) (A) (A) (A) (A) (A) (A) (A) (A)
                 (A) (A) (A) (A) (A) (A) (A) (A) (A) (A) (A) (A)
                 (A) (A) (A) (A) (A) (A) (A) (A) (A) (A) (A) (A)
                 (A) (A) (A) (A) (A) (A) (A) (A) (A) (A) (A) (A)
                 (A) (A) (A) (A) (A) (A) (A) (A) (A) (A) (A) (A)
                 (A) (A) (A) (A) (A) (A) (A) (A) (A) (A) (A) (A)
                 (A) (A) (A) (A) (A) (A) (A) (A) (A) (A) (A) (A)
                 (A) (A) (A) (A) (A) (A) (A) (A) (A) (A) (A) (A)
                 (A) (A) (A) (A) (A) (A) (A) (A) (A) (A) (A) (A)
                 (A) (A) (A) (A) (A) (A) (A) (A) (A) (A) (A) (A)
                 (A) (A) (A) (A) (A) (A) (A) (A) (A) (A) (A) (A)
                 (A) (A) (A) (A) (A) (A) (A) (A) (A) (A) (A) (A)
                 (A) (A) (A) (A) (A) (A) (A) (A) (A) (A) (A) (A)
                 (A) (A) (A) (A) (A) (A) (A) (A) (A) (A) (A) (A)
                 (A) (A) (A) (A) (A) (A) (A) (A) (A) (A) (A) (A)
                 (A) (A) (A) (A) (A) (A) (A) (A) (A) (A) (A) (A)
                 (A) (A) (A) (A) (A) (A) (A) (A) (A) (A) (A) (A)
                 (A) (A) (A) (A) (A) (A) (A) (A) (A) (A) (A) (A)
                 (A) (A) (A) (A) (A) (A) (A) (A) (A) (A) (A) (A)
                 (A) (A) (A) (A) (A) (A) (A) (A) (A) (A) (A) (A)
                 (A) (A) (A) (A) (A) (A) (A) (A) (A) (A) (A) (A)
                 (A) (A) (A) (A) (A) (A) (A) (A) (A) (A) (A) (A)
                 (A) (A) (A) (A) (A) (A) (A) (A) (A) (A) (A) (A)
                 (A) (A) (A) (A) (A) (A) (A) (A) (A) (A) (A) (A)
                 (A) (A) (A) (A) (A) (A) (A) (A) (A) (A) (A) (A)
                 (A) (A) (A) (A) (A) (A) (A) (A) (A) (A) (A) (A)
                 (A) (A) (A) (A) (A) (A) (A) (A) (A) (A) (A) (A)
                 (A) (A) (A) (A) (A) (A) (A) (A) (A) (A) (A) (A)
                 (A) (A) (A) (A) (A) (A) (A) (A) (A) (A) (A) (A)
                 (A) (A) (A) (A) (A) (A) (A) (A) (A) (A) (A) (A)
                 (A) (A) (A) (A) (A) (A) (A) (A) (A) (A) (A) (A)
                 (A) (A) (A) (A) (A) (A) (A) (A) (A) (A) (A) (A)
                 (A) (A) (A) (A) (A) (A) (A) (A) (A) (A) (A) (A)
                 (A) (A) (A) (A) (A) (A) (A) (A) (A) (A) (A) (A)
                 (A) (A) (A) (A) (A) (A) (A) (A) (A) (A) (A) (A)
                 (A) (A) (A) (A) (A) (A) (A) (A) (A) (A) (A) (A)
                 (A) (A) (A) (A) (A) (A) (A) (A) (A) (A) (A) (A)
                 (A) (A) (A) (A) (A) (A) (A) (A) (A) (A) (A) (A)
                 (A) (A) (A) (A) (A) (A) (A) (A) (A) (A) (A) (A)
                 (A) (A) (A) (A) (A) (A) (A) (A) (A) (A) (A) (A)
                 (A) (A) (A) (A) (A) (A) (A) (A) (A) (A) (A) (A)
                 (A) (A) (A) (A) (A) (A) (A) (A) (A) (A) (A) (A)
                 (A) (A) (A) (A) (A) (A) (A) (A) (A) (A) (A) (A)
                 (A) (A) (A) (A) (A) (A) (A) (A) (A) (A) (A) (A)
                 (A) (A) (A) (A) (A) (A) (A) (A) (A) (A) (A) (A)
                 (A) (A) (A) (A) (A) (A) (A) (A) (A) (A) (A) (A)
                 (A) (A) (A) (A) (A) (A) (A) (A) (A) (A) (A) (A)
                 (A) (A) (A) (A) (A) (A) (A) (A) (A) (A) (A) (A)
                 (A) (A) (A) (A) (A) (A) (A) (A) (A) (A) (A) (A)
                 (A) (A) (A) (A) (A) (A) (A) (A) (A) (A) (A) (A)
                 (A) (A) (A) (A) (A) (A) (A) (A) (A) (A) (A) (A)
                 (A) (A) (A) (A) (A) (A) (A) (A) (A) (A) (A) (A)
                 (A) (A) (A) (A) (A) (A) (A) (A) (A) (A) (A) (A)
                 (A) (A) (A) (A) (A) (A) (A) (A) (A) (A) (A) (A)
                 (A) (A) (A) (A) (A) (A) (A) (A) (A) (A) (A) (A)
                 (A) (A) (A) (A) (A) (A) (A) (A) (A) (A) (A) (A)
                 (A) (A) (A) (A) (A) (A) (A) (A) (A) (A) (A) (A)
                 (A) (A) (A) (A) (A) (A) (A) (A) (A) (A) (A) (A)
                 (A) (A) (A) (A) (A) (A) (A) (A) (A) (A) (A) (A)
                 (A) (A) (A) (A) (A) (A) (A) (A) (A) (A) (A) (A)
                 (A) (A) (A) (A) (A) (A) (A) (A) (A) (A) (A) (A)
                 (A) (A) (A) (A) (A) (A) (A) (A) (A) (A) (A) (A)
                 (A) (A) (A) (A) (A) (A) (A) (A) (A) (A) (A) (A)
                 (A) (A) (A) (A) (A) (A) (A) (A) (A) (A) (A) (A)
                 (A) (A) (A) (A) (A) (A) (A) (A) (A) (A) (A) (A)
                 (A) (A) (A) (A) (A) (A) (A) (A) (A) (A) (A) (A)
                 (A) (A) (A) (A) (A) (A) (A) (A) (A) (A) (A) (A)
                 (A) (A) (A) (A) (A) (A) (A) (A) (A) (A) (A) (A)
                 (A) (A) (A) (A) (A) (A) (A) (A) (A) (A) (A) (A)
                 (A) (A) (A) (A) (A) (A) (A) (A) (A) (A) (A) (A)
                 (A) (A) (A) (A) (A) (A) (A) (A) (A) (A) (A) (A)
                 (A) (A) (A) (A) (A) (A) (A) (A) (A) (A) (A) (A)
                 (A) (A) (A) (A) (A) (A) (A) (A) (A) (A) (A) (A)
                 (A) (A) (A) (A) (A) (A) (A) (A) (A) (A) (A) (A)
                 (A) (A) (A) (A) (A) (A) (A) (A) (A) (A) (A) (A)
                 (A) (A) (A) (A) (A) (A) (A) (A) (A) (A) (A) (A)
                 (A) (A) (A) (A) (A) (A) (A) (A) (A) (A) (A) (A)
                 (A) (A) (A) (A) (A) (A) (A) (A) (A) (A) (A) (A)
                 (A) (A) (A) (A) (A) (A) (A) (A) (A) (A) (A) (A)
                 (A) (A) (A) (A) (A) (A) (A) (A) (A) (A) (A) (A)
                 (A) (A) (A) (A) (A) (A) (A) (A) (A) (A) (A) (A)
                 (A) (A) (A) (A) (A) (A) (A) (A) (A) (A) (A) (A)
                 (A) (A) (A) (A) (A) (A) (A) (A) (A) (A) (A) (A)
                 (A) (A) (A) (A) (A) (A) (A) (A) (A) (A) (A) (A)
                 (A) (A) (A) (A) (A) (A) (A) (A) (A) (A) (A) (A)
                 (A) (A) (A) (A) (A) (A) (A) (A) (A) (A) (A) (A)
                 (A) (A) (A) (A) (A) (A) (A) (A) (A) (A) (A) (A)
                 (A) (A) (A) (A) (A) (A) (A) (A) (A) (A) (A) (A)
                 (A) (A) (A) (A) (A) (A) (A) (A) (A) (A) (A) (A)
                 (A) (A) (A) (A) (A) (A) (A) (A) (A) (A) (A) (A)
                 (A) (A) (A) (A) (A) (A) (A) (A) (A) (A) (A) (A)
                 (A) (A) (A) (A) (A) (A) (A) (A) (A) (A) (A) (A)
                 (A) (A) (A) (A) (A) (A) (A) (A) (A) (A) (A) (A)
                 (A) (A) (A) (A) (A) (A) (A) (A) (A) (A) (A) (A)
                 (A) (A) (A) (A) (A) (A) (A) (A) (A) (A) (A) (A)
                 (A) (A) (A) (A) (A) (A) (A) (A) (A) (A) (A) (A)
                 (A) (A) (A) (A) (A) (A) (A) (A) (A) (A) (A) (A)
                 (A) (A) (A) (A) (A) (A) (A) (A) (A) (A) (A) (A)
                 (A) (A) (A) (A) (A) (A) (A) (A) (A) (A) (A) (A)
                 (A) (A) (A) (A) (A) (A) (A) (A) (A) (A) (A) (A)
                 (A) (A) (A) (A) (A) (A) (A) (A) (A) (A) (A) (A)
                 (A) (A) (A) (A) (A) (A) (A) (A) (A) (A) (A) (A)
                 (A) (A) (A) (A) (A) (A) (A) (A) (A) (A) (A) (A)
                 (A) (A) (A) (A) (A) (A) (A) (A) (A) (A) (A) (A)
                 (A) (A) (A) (A) (A) (A) (A) (A) (A) (A) (A) (A)
                 (A) (A) (A) (A) (A) (A) (A) (A) (A) (A) (A) (A)
                 (A) (A) (A) (A) (A) (A) (A) (A) (A) (A) (A) (A)
                 (A) (A) (A) (A) (A) (A) (A) (A) (A) (A) (A) (A)
                 (A) (A) (A) (A) (A) (A) (A) (A) (A) (A) (A) (A)
                 (A) (A) (A) (A) (A) (A) (A) (A) (A) (A) (A) (A)
                 (A) (A) (A) (A) (A) (A) (A) (A) (A) (A) (A) (A)
                 (A) (A) (A) (A) (A) (A) (A) (A) (A) (A) (A) (A)
                 (A) (A) (A) (A) (A) (A) (A) (A) (A) (A) (A) (A)
                 (A) (A) (A) (A) (A) (A) (A) (A) (A) (A) (A) (A)
                 (A) (A) (A) (A) (A) (A) (A) (A) (A) (A) (A) (A)
                 (A) (A) (A) (A) (A) (A) (A) (A) (A) (A) (A) (A)
                 (A) (A) (A) (A) (A) (A) (A) (A) (A) (A) (A) (A)
                 (A) (A) (A) (A) (A) (A) (A) (A) (A) (A) (A) (A)
                 (A) (A) (A) (A) (A) (A) (A) (A) (A) (A) (A) (A)
                 (A) (A) (A) (A) (A) (A) (A) (A) (A) (A) (A) (A)
                 (A) (A) (A) (A) (A) (A) (A) (A) (A) (A) (A) (A)
                 (A) (A) (A) (A) (A) (A) (A) (A) (A) (A) (A) (A)
                 (A) (A) (A) (A) (A) (A) (A) (A) (A) (A) (A) (A)
                 (A) (A) (A) (A) (A) (A) (A) (A) (A) (A) (A) (A)
                 (A) (A) (A) (A) (A) (A) (A) (A) (A) (A) (A) (A)
                 (A) (A) (A) (A) (A) (A) (A) (A) (A) (A) (A) (A)
                 (A) (A) (A) (A) (A) (A) (A) (A) (A) (A) (A) (A)
                 (A) (A) (A) (A) (A) (A) (A) (A) (A) (A) (A) (A)
                 (A) (A) (A) (A) (A) (A) (A) (A) (A) (A) (A) (A)
                 (A) (A) (A) (A) (A) (A) (A) (A) (A) (A) (A) (A)
                 (A) (A) (A) (A) (A) (A) (A) (A) (A) (A) (A) (A)
                 (A) (A) (A) (A) (A) (A) (A) (A) (A) (A) (A) (A)
                 (A) (A) (A) (A) (A) (A) (A) (A) (A) (A) (A) (A)
                 (A) (A) (A) (A) (A) (A) (A) (A) (A) (A) (A) (A)
                 (A) (A) (A) (A) (A) (A) (A) (A) (A) (A) (A) (A)
                 (A) (A) (A) (A) (A) (A) (A) (A) (A) (A) (A) (A)
                 (A) (A) (A) (A) (A) (A) (A) (A) (A) (A) (A) (A)
                 (A) (A) (A) (A) (A) (A) (A) (A) (A) (A) (A) (A)
                 (A) (A) (A) (A) (A) (A) (A) (A) (A) (A) (A) (A)
                 (A) (A) (A) (A) (A) (A) (A) (A) (A) (A) (A) (A)
                 (A) (A) (A) (A) (A) (A) (A) (A) (A) (A) (A) (A)
                 (A) (A) (A) (A) (A) (A) (A) (A) (A) (A) (A) (A)
                 (A) (A) (A) (A) (A) (A) (A) (A) (A) (A) (A) (A)
                 (A) (A) (A) (A) (A) (A) (A) (A) (A) (A) (A) (A)
                 (A) (A) (A) (A) (A) (A) (A) (A) (A) (A) (A) (A)
                 (A) (A) (A) (A) (A) (A) (A) (A) (A) (A) (A) (A)
                 (A) (A) (A) (A) (A) (A) (A) (A) (A) (A) (A) (A)
                 (A) (A) (A) (A) (A) (A) (A) (A) (A) (A) (A) (A)
                 (A) (A) (A) (A) (A) (A) (A) (A) (A) (A) (A) (A)
                 (A) (A) (A) (A) (A) (A) (A) (A) (A) (A) (A) (A)
                 (A) (A) (A) (A) (A) (A) (A) (A) (A) (A) (A) (A)
                 (A) (A) (A) (A) (A) (A) (A) (A) (A) (A) (A) (A)
                 (A) (A) (A) (A) (A) (A) (A) (A) (A) (A) (A) (A)
                 (A) (A) (A) (A) (A) (A) (A) (A) (A) (A) (A) (A)
                 (A) (A) (A) (A) (A) (A) (A) (A) (A) (A) (A) (A)
                 (A) (A) (A) (A) (A) (A) (A) (A) (A) (A) (A) (A)
                 (A) (A) (A) (A) (A) (A) (A) (A) (A) (A) (A) (A)
                 (A) (A) (A) (A) (A) (A) (A) (A) (A) (A) (A) (A)
                 (A) (A) (A) (A) (A) (A) (A) (A) (A) (A) (A) (A)
                 (A) (A) (A) (A) (A) (A) (A) (A) (A) (A) (A) (A)
                 (A) (A) (A) (A) (A) (A) (A) (A) (A) (A) (A) (A)
                 (A) (A) (A) (A) (A) (A) (A) (A) (A) (A) (A) (A)
                 (A) (A) (A) (A) (A) (A) (A) (A) (A) (A) (A) (A)
                 (A) (A) (A) (A) (A) (A) (A) (A) (A) (A) (A) (A)
                 (A) (A) (A) (A) (A) (A) (A) (A) (A) (A) (A) (A)
                 (A) (A) (A) (A) (A) (A) (A) (A) (A) (A) (A) (A)
                 (A) (A) (A) (A) (A) (A) (A) (A) (A) (A) (A) (A)
                 (A) (A) (A) (A) (A) (A) (A) (A) (A) (A) (A) (A)
                 (A) (A) (A) (A) (A) (A) (A) (A) (A) (A) (A) (A)
                 (A) (A) (A) (A) (A) (A) (A) (A) (A) (A) (A) (A)
                 (A) (A) (A) (A) (A) (A) (A) (A) (A) (A) (A) (A)
                 (A) (A) (A) (A) (A) (A) (A) (A) (A) (A) (A) (A)
                 (A) (A) (A) (A) (A) (A) (A) (A) (A) (A) (A) (A)
                 (A) (A) (A) (A) (A) (A) (A) (A) (A) (A) (A) (A)
                 (A) (A) (A) (A) (A) (A) (A) (A) (A) (A) (A) (A)
                 (A) (A) (A) (A) (A) (A) (A) (A) (A) (A) (A) (A)
                 (A) (A) (A) (A) (A) (A) (A) (A) (A) (A) (A) (A)
                 (A) (A) (A) (A) (A) (A) (A) (A) (A) (A) (A) (A)
                 (A) (A) (A) (A) (A) (A) (A) (A) (A) (A) (A) (A)
                 (A) (A) (A) (A) (A) (A) (A) (A) (A) (A) (A) (A)
                 (A) (A) (A) (A) (A) (A) (A) (A) (A) (A) (A) (A)
                 (A) (A) (A) (A) (A) (A) (A) (A) (A) (A) (A) (A)
                 (A) (A) (A) (A) (A) (A) (A) (A) (A) (A) (A) (A)
                 (A) (A) (A) (A) (A) (A) (A) (A) (A) (A) (A) (A)
                 (A) (A) (A) (A) (A) (A) (A) (A) (A) (A) (A) (A)
                 (A) (A) (A) (A) (A) (A) (A) (A) (A) (A) (A) (A)
                 (A) (A) (A) (A) (A) (A) (A) (A) (A) (A) (A) (A)
                 (A) (A) (A) (A) (A) (A) (A) (A) (A) (A) (A) (A)
                 (A) (A) (A) (A) (A) (A) (A) (A) (A) (A)
 The electronic state is 1-A.
 Alpha  occ. eigenvalues --  -25.20671 -25.20654 -19.66848 -19.66834 -19.65405
 Alpha  occ. eigenvalues --  -19.63666 -19.63629 -19.63604 -19.63513 -19.63492
 Alpha  occ. eigenvalues --  -19.63207 -14.95095 -14.85160 -14.81832 -14.78933
 Alpha  occ. eigenvalues --  -14.78868 -10.66931 -10.61964 -10.61936 -10.60913
 Alpha  occ. eigenvalues --  -10.60880 -10.60743 -10.60410 -10.60003 -10.59947
 Alpha  occ. eigenvalues --  -10.59904 -10.59763 -10.59301 -10.59283 -10.58780
 Alpha  occ. eigenvalues --  -10.58768 -10.58765 -10.58668 -10.58664 -10.58608
 Alpha  occ. eigenvalues --  -10.58544 -10.58449 -10.57895 -10.57854 -10.57471
 Alpha  occ. eigenvalues --  -10.57363 -10.57069 -10.56674 -10.56341 -10.56256
 Alpha  occ. eigenvalues --  -10.56010 -10.55993 -10.55971 -10.55911 -10.55879
 Alpha  occ. eigenvalues --  -10.55867 -10.55856 -10.55806 -10.55796 -10.55747
 Alpha  occ. eigenvalues --  -10.55716 -10.55653 -10.55342 -10.55208 -10.55117
 Alpha  occ. eigenvalues --  -10.54977 -10.54685 -10.54634 -10.54607 -10.54536
 Alpha  occ. eigenvalues --   -7.13586  -1.32628  -1.29430  -1.27958  -1.19933
 Alpha  occ. eigenvalues --   -1.19900  -1.19740  -1.16789  -1.16726  -1.15980
 Alpha  occ. eigenvalues --   -1.15901  -1.14892  -1.14537  -1.10828  -1.10738
 Alpha  occ. eigenvalues --   -1.08869  -0.98070  -0.97495  -0.97458  -0.94594
 Alpha  occ. eigenvalues --   -0.91956  -0.91745  -0.91004  -0.90670  -0.90161
 Alpha  occ. eigenvalues --   -0.88760  -0.88469  -0.86871  -0.86561  -0.86015
 Alpha  occ. eigenvalues --   -0.85827  -0.85634  -0.85026  -0.84700  -0.83402
 Alpha  occ. eigenvalues --   -0.82881  -0.82331  -0.81121  -0.80896  -0.78781
 Alpha  occ. eigenvalues --   -0.76927  -0.76650  -0.76318  -0.74384  -0.73938
 Alpha  occ. eigenvalues --   -0.73353  -0.72607  -0.71723  -0.71483  -0.71286
 Alpha  occ. eigenvalues --   -0.70340  -0.70279  -0.69412  -0.68909  -0.67896
 Alpha  occ. eigenvalues --   -0.67464  -0.67189  -0.66844  -0.65126  -0.64984
 Alpha  occ. eigenvalues --   -0.64167  -0.63162  -0.63015  -0.62506  -0.62454
 Alpha  occ. eigenvalues --   -0.61869  -0.61304  -0.61299  -0.59907  -0.59587
 Alpha  occ. eigenvalues --   -0.59484  -0.58947  -0.58671  -0.58548  -0.58182
 Alpha  occ. eigenvalues --   -0.57664  -0.57330  -0.57167  -0.57122  -0.56995
 Alpha  occ. eigenvalues --   -0.56502  -0.56270  -0.56167  -0.55844  -0.55435
 Alpha  occ. eigenvalues --   -0.55074  -0.54958  -0.54448  -0.54074  -0.53971
 Alpha  occ. eigenvalues --   -0.53799  -0.53583  -0.53451  -0.53094  -0.52983
 Alpha  occ. eigenvalues --   -0.52876  -0.52571  -0.52474  -0.52345  -0.52251
 Alpha  occ. eigenvalues --   -0.52068  -0.51938  -0.51743  -0.51375  -0.51232
 Alpha  occ. eigenvalues --   -0.50701  -0.50501  -0.50194  -0.49938  -0.49705
 Alpha  occ. eigenvalues --   -0.49681  -0.49520  -0.48888  -0.48544  -0.48428
 Alpha  occ. eigenvalues --   -0.48342  -0.47640  -0.47179  -0.47092  -0.47029
 Alpha  occ. eigenvalues --   -0.46984  -0.46694  -0.46546  -0.46338  -0.46134
 Alpha  occ. eigenvalues --   -0.46094  -0.45960  -0.45760  -0.45497  -0.45270
 Alpha  occ. eigenvalues --   -0.44731  -0.44406  -0.44285  -0.44001  -0.43840
 Alpha  occ. eigenvalues --   -0.43398  -0.43328  -0.42892  -0.42586  -0.42473
 Alpha  occ. eigenvalues --   -0.42375  -0.42325  -0.41945  -0.41805  -0.41499
 Alpha  occ. eigenvalues --   -0.41162  -0.40822  -0.40340  -0.40329  -0.40262
 Alpha  occ. eigenvalues --   -0.39764  -0.39260  -0.39109  -0.38519  -0.38499
 Alpha  occ. eigenvalues --   -0.38458  -0.38099  -0.36628  -0.35829  -0.34333
 Alpha  occ. eigenvalues --   -0.34234  -0.34113  -0.34085  -0.33830  -0.33362
 Alpha  occ. eigenvalues --   -0.33328  -0.32608  -0.32427  -0.32353  -0.32332
 Alpha  occ. eigenvalues --   -0.31702  -0.29709  -0.28354  -0.27040  -0.23306
 Alpha virt. eigenvalues --   -0.10234  -0.03200  -0.01438  -0.01236  -0.00768
 Alpha virt. eigenvalues --   -0.00090   0.00402   0.00778   0.00987   0.04796
 Alpha virt. eigenvalues --    0.05537   0.05838   0.06287   0.06723   0.06798
 Alpha virt. eigenvalues --    0.07113   0.07711   0.07920   0.08010   0.08164
 Alpha virt. eigenvalues --    0.08185   0.08382   0.08445   0.08722   0.08934
 Alpha virt. eigenvalues --    0.09568   0.09679   0.09753   0.09953   0.10067
 Alpha virt. eigenvalues --    0.10268   0.10321   0.10547   0.10920   0.11004
 Alpha virt. eigenvalues --    0.11101   0.11298   0.11465   0.11576   0.11648
 Alpha virt. eigenvalues --    0.11702   0.11843   0.12074   0.12253   0.12377
 Alpha virt. eigenvalues --    0.12478   0.12662   0.12941   0.12972   0.13271
 Alpha virt. eigenvalues --    0.13386   0.13498   0.13572   0.13693   0.13884
 Alpha virt. eigenvalues --    0.14025   0.14156   0.14513   0.14582   0.14790
 Alpha virt. eigenvalues --    0.15026   0.15083   0.15202   0.15381   0.15447
 Alpha virt. eigenvalues --    0.15602   0.15643   0.15849   0.15970   0.16098
 Alpha virt. eigenvalues --    0.16246   0.16320   0.16469   0.16790   0.16916
 Alpha virt. eigenvalues --    0.17024   0.17626   0.17678   0.17897   0.18068
 Alpha virt. eigenvalues --    0.18235   0.18455   0.18528   0.18697   0.18836
 Alpha virt. eigenvalues --    0.19111   0.19217   0.19300   0.19474   0.19515
 Alpha virt. eigenvalues --    0.19665   0.19847   0.20129   0.20252   0.20536
 Alpha virt. eigenvalues --    0.20842   0.21078   0.21270   0.21352   0.21654
 Alpha virt. eigenvalues --    0.21843   0.21892   0.22085   0.22194   0.22407
 Alpha virt. eigenvalues --    0.22502   0.22629   0.22909   0.22999   0.23064
 Alpha virt. eigenvalues --    0.23408   0.23510   0.23649   0.23742   0.23878
 Alpha virt. eigenvalues --    0.23978   0.24109   0.24221   0.24325   0.24535
 Alpha virt. eigenvalues --    0.24715   0.24786   0.24855   0.25123   0.25299
 Alpha virt. eigenvalues --    0.25654   0.25935   0.25965   0.26178   0.26322
 Alpha virt. eigenvalues --    0.26436   0.26780   0.26907   0.26993   0.27163
 Alpha virt. eigenvalues --    0.27359   0.27543   0.27653   0.27839   0.28047
 Alpha virt. eigenvalues --    0.28173   0.28228   0.28396   0.28658   0.28725
 Alpha virt. eigenvalues --    0.28942   0.29133   0.29323   0.29642   0.29888
 Alpha virt. eigenvalues --    0.29932   0.30021   0.30278   0.30488   0.30770
 Alpha virt. eigenvalues --    0.30909   0.31022   0.31263   0.31356   0.31422
 Alpha virt. eigenvalues --    0.31656   0.31751   0.32008   0.32063   0.32199
 Alpha virt. eigenvalues --    0.32411   0.32509   0.32790   0.32901   0.33004
 Alpha virt. eigenvalues --    0.33293   0.33429   0.33637   0.33725   0.34019
 Alpha virt. eigenvalues --    0.34096   0.34229   0.34280   0.34415   0.34745
 Alpha virt. eigenvalues --    0.34782   0.34850   0.35064   0.35130   0.35309
 Alpha virt. eigenvalues --    0.35445   0.35609   0.35750   0.35787   0.36077
 Alpha virt. eigenvalues --    0.36171   0.36356   0.36609   0.36645   0.36957
 Alpha virt. eigenvalues --    0.37052   0.37072   0.37253   0.37569   0.37633
 Alpha virt. eigenvalues --    0.37773   0.37841   0.38011   0.38215   0.38313
 Alpha virt. eigenvalues --    0.38368   0.38504   0.38536   0.38763   0.38892
 Alpha virt. eigenvalues --    0.38906   0.39108   0.39256   0.39336   0.39649
 Alpha virt. eigenvalues --    0.39725   0.39873   0.39904   0.40094   0.40115
 Alpha virt. eigenvalues --    0.40265   0.40332   0.40503   0.40576   0.40739
 Alpha virt. eigenvalues --    0.40931   0.41275   0.41367   0.41433   0.41602
 Alpha virt. eigenvalues --    0.41860   0.41982   0.42150   0.42324   0.42405
 Alpha virt. eigenvalues --    0.42479   0.42655   0.42732   0.42851   0.42896
 Alpha virt. eigenvalues --    0.43202   0.43372   0.43458   0.43634   0.43790
 Alpha virt. eigenvalues --    0.43902   0.44058   0.44152   0.44291   0.44482
 Alpha virt. eigenvalues --    0.44617   0.44726   0.44928   0.45065   0.45207
 Alpha virt. eigenvalues --    0.45289   0.45409   0.45521   0.45630   0.45682
 Alpha virt. eigenvalues --    0.45875   0.45966   0.46060   0.46163   0.46366
 Alpha virt. eigenvalues --    0.46536   0.46608   0.46885   0.46963   0.47022
 Alpha virt. eigenvalues --    0.47139   0.47253   0.47434   0.47508   0.47672
 Alpha virt. eigenvalues --    0.47773   0.47876   0.48151   0.48307   0.48448
 Alpha virt. eigenvalues --    0.48702   0.48768   0.48964   0.49068   0.49268
 Alpha virt. eigenvalues --    0.49358   0.49660   0.49740   0.49860   0.50223
 Alpha virt. eigenvalues --    0.50325   0.50382   0.50564   0.50600   0.50723
 Alpha virt. eigenvalues --    0.50799   0.50945   0.50984   0.51099   0.51220
 Alpha virt. eigenvalues --    0.51608   0.51729   0.51910   0.52022   0.52081
 Alpha virt. eigenvalues --    0.52139   0.52363   0.52493   0.52662   0.52936
 Alpha virt. eigenvalues --    0.53254   0.53451   0.53508   0.53690   0.53716
 Alpha virt. eigenvalues --    0.53891   0.53994   0.54489   0.54564   0.54664
 Alpha virt. eigenvalues --    0.54809   0.54935   0.55090   0.55241   0.55586
 Alpha virt. eigenvalues --    0.55729   0.55754   0.55933   0.56074   0.56154
 Alpha virt. eigenvalues --    0.56405   0.56545   0.56803   0.56945   0.57041
 Alpha virt. eigenvalues --    0.57255   0.57487   0.57607   0.57791   0.57818
 Alpha virt. eigenvalues --    0.58010   0.58228   0.58319   0.58550   0.58798
 Alpha virt. eigenvalues --    0.58907   0.59160   0.59360   0.59636   0.59665
 Alpha virt. eigenvalues --    0.60024   0.60266   0.60307   0.60706   0.60767
 Alpha virt. eigenvalues --    0.61131   0.61456   0.61769   0.61893   0.62198
 Alpha virt. eigenvalues --    0.62397   0.62587   0.62897   0.63017   0.63130
 Alpha virt. eigenvalues --    0.63202   0.63399   0.63586   0.63770   0.64267
 Alpha virt. eigenvalues --    0.64394   0.64569   0.64837   0.65107   0.65162
 Alpha virt. eigenvalues --    0.65370   0.65573   0.65662   0.65855   0.66053
 Alpha virt. eigenvalues --    0.66274   0.66578   0.66702   0.66900   0.67052
 Alpha virt. eigenvalues --    0.67195   0.67248   0.67687   0.67749   0.68009
 Alpha virt. eigenvalues --    0.68285   0.68428   0.68559   0.68775   0.68900
 Alpha virt. eigenvalues --    0.68984   0.69218   0.69359   0.69632   0.69694
 Alpha virt. eigenvalues --    0.69789   0.70062   0.70230   0.70438   0.70545
 Alpha virt. eigenvalues --    0.70635   0.70909   0.71066   0.71218   0.71373
 Alpha virt. eigenvalues --    0.71713   0.71947   0.72039   0.72142   0.72513
 Alpha virt. eigenvalues --    0.72549   0.72724   0.73163   0.73338   0.73589
 Alpha virt. eigenvalues --    0.73633   0.73859   0.74177   0.74222   0.74408
 Alpha virt. eigenvalues --    0.74687   0.74989   0.75179   0.75505   0.75748
 Alpha virt. eigenvalues --    0.75806   0.76101   0.76141   0.76317   0.76471
 Alpha virt. eigenvalues --    0.77002   0.77037   0.77115   0.77498   0.77510
 Alpha virt. eigenvalues --    0.77997   0.78300   0.78376   0.78584   0.78786
 Alpha virt. eigenvalues --    0.78944   0.79213   0.79315   0.79432   0.79521
 Alpha virt. eigenvalues --    0.79764   0.79785   0.80070   0.80243   0.80330
[...]
 Alpha virt. eigenvalues --    4.46655   4.47052   4.47398   4.47494   4.47631
 Alpha virt. eigenvalues --    4.48121   4.48331   4.48875   4.48965   4.49251
 Alpha virt. eigenvalues --    4.49303   4.49532   4.50125   4.50235   4.50628
 Alpha virt. eigenvalues --    4.50739   4.50974   4.51216   4.51558   4.51959
 Alpha virt. eigenvalues --    4.52052   4.52314   4.52622   4.52953   4.53330
 Alpha virt. eigenvalues --    4.53949   4.54607   4.55338   4.55370   4.55511
 Alpha virt. eigenvalues --    4.55788   4.56212   4.56557   4.56710   4.56882
 Alpha virt. eigenvalues --    4.57695   4.58151   4.58411   4.58822   4.59018
 Alpha virt. eigenvalues --    4.59416   4.59999   4.60739   4.60822   4.61061
 Alpha virt. eigenvalues --    4.61305   4.61550   4.61876   4.61959   4.62513
 Alpha virt. eigenvalues --    4.62666   4.63766   4.64124   4.64500   4.64895
 Alpha virt. eigenvalues --    4.65090   4.65499   4.65663   4.65950   4.66366
 Alpha virt. eigenvalues --    4.66571   4.67064   4.67439   4.67573   4.67776
 Alpha virt. eigenvalues --    4.67927   4.68214   4.68569   4.69157   4.69302
 Alpha virt. eigenvalues --    4.69650   4.69830   4.70026   4.70426   4.70482
 Alpha virt. eigenvalues --    4.70595   4.70796   4.71056   4.71492   4.71591
 Alpha virt. eigenvalues --    4.71900   4.71957   4.72573   4.72652   4.73182
 Alpha virt. eigenvalues --    4.73518   4.73642   4.74489   4.74938   4.75504
 Alpha virt. eigenvalues --    4.75634   4.75886   4.76201   4.76277   4.76436
 Alpha virt. eigenvalues --    4.76966   4.77220   4.77377   4.77698   4.77893
 Alpha virt. eigenvalues --    4.77996   4.78266   4.78867   4.79085   4.79334
 Alpha virt. eigenvalues --    4.79590   4.79706   4.79731   4.80403   4.80779
 Alpha virt. eigenvalues --    4.81183   4.81653   4.81771   4.81843   4.82246
 Alpha virt. eigenvalues --    4.82571   4.82792   4.83072   4.83743   4.84057
 Alpha virt. eigenvalues --    4.84938   4.85117   4.85537   4.86078   4.86665
 Alpha virt. eigenvalues --    4.86924   4.87486   4.88089   4.88366   4.88428
 Alpha virt. eigenvalues --    4.88962   4.89804   4.89968   4.90255   4.90363
 Alpha virt. eigenvalues --    4.90719   4.91133   4.91313   4.91731   4.91930
 Alpha virt. eigenvalues --    4.92129   4.92742   4.93243   4.93278   4.93410
 Alpha virt. eigenvalues --    4.93815   4.93999   4.94049   4.94214   4.94419
 Alpha virt. eigenvalues --    4.94478   4.94688   4.95334   4.95462   4.95639
 Alpha virt. eigenvalues --    4.96003   4.96261   4.96526   4.96702   4.97043
 Alpha virt. eigenvalues --    4.97201   4.97736   4.97991   4.98150   4.98643
 Alpha virt. eigenvalues --    4.98952   4.99408   4.99711   5.00229   5.00621
 Alpha virt. eigenvalues --    5.00895   5.01295   5.01916   5.02212   5.02644
 Alpha virt. eigenvalues --    5.02657   5.03274   5.03466   5.03609   5.03951
 Alpha virt. eigenvalues --    5.04025   5.04978   5.05371   5.05442   5.05807
 Alpha virt. eigenvalues --    5.06092   5.06563   5.06642   5.06713   5.07421
 Alpha virt. eigenvalues --    5.07610   5.07994   5.08156   5.08643   5.08837
 Alpha virt. eigenvalues --    5.09064   5.09256   5.09580   5.09663   5.10951
 Alpha virt. eigenvalues --    5.11029   5.11981   5.12836   5.13051   5.13267
 Alpha virt. eigenvalues --    5.13683   5.13837   5.14177   5.14997   5.15289
 Alpha virt. eigenvalues --    5.15479   5.15847   5.16774   5.17043   5.17255
 Alpha virt. eigenvalues --    5.17457   5.17492   5.17734   5.18237   5.18382
 Alpha virt. eigenvalues --    5.18629   5.18961   5.19567   5.19935   5.20685
 Alpha virt. eigenvalues --    5.21550   5.22340   5.22359   5.22683   5.22811
 Alpha virt. eigenvalues --    5.23318   5.23497   5.24136   5.24588   5.24708
 Alpha virt. eigenvalues --    5.24955   5.25058   5.25306   5.25331   5.26784
 Alpha virt. eigenvalues --    5.27502   5.27789   5.28119   5.28209   5.28434
 Alpha virt. eigenvalues --    5.28584   5.28671   5.28725   5.29081   5.29253
 Alpha virt. eigenvalues --    5.29359   5.30032   5.30536   5.30949   5.31299
 Alpha virt. eigenvalues --    5.31544   5.31832   5.32176   5.32206   5.32537
 Alpha virt. eigenvalues --    5.32936   5.33573   5.33812   5.33848   5.34543
 Alpha virt. eigenvalues --    5.34584   5.34961   5.35146   5.35394   5.36158
 Alpha virt. eigenvalues --    5.36326   5.36671   5.36981   5.37051   5.37501
 Alpha virt. eigenvalues --    5.37920   5.38373   5.38537   5.38655   5.39052
 Alpha virt. eigenvalues --    5.39204   5.39254   5.40413   5.40568   5.41022
 Alpha virt. eigenvalues --    5.41577   5.41751   5.41948   5.42251   5.42485
 Alpha virt. eigenvalues --    5.42999   5.43222   5.43458   5.43645   5.44080
 Alpha virt. eigenvalues --    5.44179   5.45312   5.45409   5.45774   5.46261
 Alpha virt. eigenvalues --    5.47393   5.48573   5.48838   5.49016   5.49622
 Alpha virt. eigenvalues --    5.50464   5.50523   5.50948   5.52029   5.52716
 Alpha virt. eigenvalues --    5.53251   5.53473   5.54248   5.54805   5.54978
 Alpha virt. eigenvalues --    5.55336   5.55341   5.55770   5.56255   5.56641
 Alpha virt. eigenvalues --    5.56900   5.57196   5.57322   5.57552   5.57681
 Alpha virt. eigenvalues --    5.57898   5.58641   5.59396   5.59594   5.59946
 Alpha virt. eigenvalues --    5.60097   5.60427   5.60481   5.60771   5.61133
 Alpha virt. eigenvalues --    5.61498   5.62223   5.62342   5.62459   5.63079
 Alpha virt. eigenvalues --    5.63164   5.63663   5.64155   5.64404   5.64625
 Alpha virt. eigenvalues --    5.64917   5.65427   5.65858   5.66064   5.66388
 Alpha virt. eigenvalues --    5.66699   5.66924   5.67503   5.67894   5.69245
 Alpha virt. eigenvalues --    5.69414   5.69636   5.69774   5.70010   5.70568
 Alpha virt. eigenvalues --    5.71121   5.72718   5.74409   5.75261   5.76188
 Alpha virt. eigenvalues --    5.77694   5.78924   5.80796   5.83554   5.83798
 Alpha virt. eigenvalues --    5.84179   5.84985   5.87184   5.87506   5.88704
 Alpha virt. eigenvalues --    5.89888   5.90409   5.90758   5.91403   5.91936
 Alpha virt. eigenvalues --    5.92263   5.92359   5.94618   5.97054   6.00006
 Alpha virt. eigenvalues --    6.00134   6.00664   6.00758   6.01952   6.02257
 Alpha virt. eigenvalues --    6.02422   6.02658   6.03783   6.03880   6.04569
 Alpha virt. eigenvalues --    6.05221   6.05326   6.05630   6.06136   6.08966
 Alpha virt. eigenvalues --    6.09357   6.09588   6.10273   6.11829   6.12094
 Alpha virt. eigenvalues --    6.19313   6.19677   6.20671   6.21862   6.22009
 Alpha virt. eigenvalues --    6.23209   6.24740   6.25300   6.26167   6.27190
 Alpha virt. eigenvalues --    6.27761   6.27932   6.29424   6.32422   6.33687
 Alpha virt. eigenvalues --    6.34330   6.37243   6.37877   6.41470   6.42256
 Alpha virt. eigenvalues --    6.44232   6.45058   6.46155   6.47941   6.51415
 Alpha virt. eigenvalues --    6.59009   6.61792   6.72307   6.72835   6.73254
 Alpha virt. eigenvalues --    6.74605   6.75598   6.75816   6.76250   6.76451
 Alpha virt. eigenvalues --    6.76629   6.77147   6.78769   6.81129   6.82064
 Alpha virt. eigenvalues --    6.84317   6.84547   6.84621   6.84872   6.84965
 Alpha virt. eigenvalues --    6.86125   6.86376   6.88310   6.93380   6.93726
 Alpha virt. eigenvalues --    6.94617   6.95443   6.95764   6.96152   6.98726
 Alpha virt. eigenvalues --    6.99001   6.99762   7.00834   7.01149   7.02622
 Alpha virt. eigenvalues --    7.02887   7.05034   7.07397   7.08645   7.10029
 Alpha virt. eigenvalues --    7.11323   7.17485   7.21920   7.24693   7.25501
 Alpha virt. eigenvalues --    7.26380   7.27218   7.28723   7.29314   7.29504
 Alpha virt. eigenvalues --    7.30530   7.33235   7.33388   7.33441   7.33571
 Alpha virt. eigenvalues --    7.34300   7.35292   7.35480   7.38385   7.38889
 Alpha virt. eigenvalues --    7.38902   7.39757   7.47217   7.48364   8.46280
 Alpha virt. eigenvalues --    8.51637   8.56751   8.62768   8.82364   8.87903
 Alpha virt. eigenvalues --    8.90822   8.94001   8.95610   9.01410  15.86481
 Alpha virt. eigenvalues --   22.79590  22.87585  22.89455  22.92638  22.95175
 Alpha virt. eigenvalues --   23.08968  23.10709  23.13547  23.14955  23.17740
 Alpha virt. eigenvalues --   23.19032  23.23975  23.27304  23.27954  23.29438
 Alpha virt. eigenvalues --   23.29943  23.30487  23.31111  23.32473  23.33475
 Alpha virt. eigenvalues --   23.34226  23.34288  23.34974  23.35792  23.36182
 Alpha virt. eigenvalues --   23.36439  23.36861  23.40175  23.41087  23.41481
 Alpha virt. eigenvalues --   23.43993  23.45487  23.46131  23.47326  23.51133
 Alpha virt. eigenvalues --   23.51232  23.51511  23.54941  23.55718  23.61620
 Alpha virt. eigenvalues --   23.61950  23.62526  23.70581  23.75739  23.85924
 Alpha virt. eigenvalues --   23.93789  24.06369  24.09819  24.10554  31.89911
 Alpha virt. eigenvalues --   32.56378  33.17902  33.24754  33.38595  44.28604
 Alpha virt. eigenvalues --   44.30299  44.38692  44.41427  44.42964  44.46350
 Alpha virt. eigenvalues --   44.46806  44.63885  44.66166  57.41850  57.62336
          Condensed to atoms (all electrons):
 Mulliken charges:
               1
     1  B    0.344144
     2  N   -0.102494
     3  C   -0.029060
     4  C   -0.076315
     5  C   -0.028924
     6  C    0.080903
     7  C    0.178397
     8  C   -0.063365
     9  O   -0.287424
    10  C   -0.494166
    11  C    0.141177
    12  C   -0.195004
    13  C   -0.167915
    14  C    0.172635
    15  C   -0.171788
    16  C   -0.113363
    17  N   -0.384035
    18  N    0.425870
    19  N   -0.183467
    20  C    0.110153
    21  N   -0.098890
    22  C   -0.038457
    23  C   -0.063943
    24  C   -0.015904
    25  C   -0.435451
    26  C   -0.072909
    27  C   -0.070081
    28  C    0.008360
    29  C   -0.159282
    30  C   -0.194309
    31  C    0.227631
    32  O   -0.280911
    33  C   -0.099603
    34  C   -0.144528
    35  O   -0.327235
    36  C   -0.038766
    37  C   -0.123967
    38  O   -0.337770
    39  C   -0.089555
    40  C   -0.104836
    41  O   -0.338060
    42  C   -0.198968
    43  C   -0.169258
    44  C   -0.150310
    45  C   -0.416405
    46  C   -0.082761
    47  C   -0.083670
    48  C    0.025434
    49  C   -0.192200
    50  C   -0.160232
    51  C    0.232868
    52  O   -0.293804
    53  C   -0.085363
    54  C   -0.138244
    55  O   -0.337618
    56  C   -0.041439
    57  C   -0.112027
    58  O   -0.352343
    59  C   -0.066796
    60  C   -0.037447
    61  O   -0.353359
    62  C   -0.204577
    63  C   -0.195007
    64  C   -0.128825
    65  F   -0.338793
    66  F   -0.340912
    67  H    0.164366
    68  H    0.204930
    69  H    0.236117
    70  H    0.154010
    71  H    0.146779
    72  H    0.161739
    73  H    0.154065
    74  H    0.162893
    75  H    0.148917
    76  H    0.135284
    77  H    0.179985
    78  H    0.098867
    79  H    0.117759
    80  H    0.156284
    81  H    0.158487
    82  H    0.166924
    83  H    0.150790
    84  H    0.134266
    85  H    0.131056
    86  H    0.121565
    87  H    0.125133
    88  H    0.131090
    89  H    0.132734
    90  H    0.119630
    91  H    0.125597
    92  H    0.133344
    93  H    0.142775
    94  H    0.138172
    95  H    0.114098
    96  H    0.124284
    97  H    0.153474
    98  H    0.140513
    99  H    0.142922
   100  H    0.174778
   101  H    0.134676
   102  H    0.101610
   103  H    0.122715
   104  H    0.152105
   105  H    0.153104
   106  H    0.150446
   107  H    0.151824
   108  H    0.134694
   109  H    0.136152
   110  H    0.117657
   111  H    0.126273
   112  H    0.127349
   113  H    0.130423
   114  H    0.130809
   115  H    0.113507
   116  H    0.107832
   117  H    0.111969
   118  H    0.120776
   119  H    0.136410
   120  H    0.120115
   121  H    0.158603
   122  H    0.141884
 Sum of Mulliken charges =  -0.00000
 Mulliken charges with hydrogens summed into heavy atoms:
               1
     1  B    0.344144
     2  N   -0.102494
     3  C   -0.029060
     4  C    0.088050
     5  C   -0.028924
     6  C    0.080903
     7  C    0.178397
     8  C   -0.063365
     9  O   -0.287424
    10  C   -0.053119
    11  C    0.141177
    12  C   -0.040994
    13  C   -0.021136
    14  C    0.172635
    15  C   -0.010049
    16  C    0.040702
    17  N   -0.384035
    18  N    0.425870
    19  N   -0.183467
    20  C    0.110153
    21  N   -0.098890
    22  C   -0.038457
    23  C    0.098950
    24  C   -0.015904
    25  C    0.028736
    26  C    0.025958
    27  C    0.047678
    28  C    0.008360
    29  C   -0.002998
    30  C   -0.035821
    31  C    0.227631
    32  O   -0.280911
    33  C    0.218111
    34  C    0.120794
    35  O   -0.327235
    36  C    0.207931
    37  C    0.139857
    38  O   -0.337770
    39  C    0.155672
    40  C    0.171283
    41  O   -0.338060
    42  C    0.177586
    43  C   -0.015784
    44  C   -0.009797
    45  C    0.035971
    46  C    0.018849
    47  C    0.039044
    48  C    0.025434
    49  C   -0.040095
    50  C   -0.007128
    51  C    0.232868
    52  O   -0.293804
    53  C    0.216907
    54  C    0.132602
    55  O   -0.337618
    56  C    0.202491
    57  C    0.145745
    58  O   -0.352343
    59  C    0.177520
    60  C    0.182354
    61  O   -0.353359
    62  C    0.172724
    63  C   -0.036403
    64  C    0.013060
    65  F   -0.338793
    66  F   -0.340912
 Electronic spatial extent (au):  <R**2>=         129854.7097
 Charge=             -0.0000 electrons
 Dipole moment (field-independent basis, Debye):
    X=             -3.5884    Y=              3.0596    Z=             -1.4530  Tot=              4.9344
 Quadrupole moment (field-independent basis, Debye-Ang):
   XX=           -356.2602   YY=           -393.5985   ZZ=           -373.8528
   XY=              5.8250   XZ=             40.0619   YZ=             19.1319
 Traceless Quadrupole moment (field-independent basis, Debye-Ang):
   XX=             18.3103   YY=            -19.0280   ZZ=              0.7177
   XY=              5.8250   XZ=             40.0619   YZ=             19.1319
 Octapole moment (field-independent basis, Debye-Ang**2):
  XXX=          -1375.6000  YYY=             26.8688  ZZZ=              3.9194  XYY=            355.2639
  XXY=            -96.3691  XXZ=            -24.8789  XZZ=           -316.0715  YZZ=            101.4692
  YYZ=           -220.8312  XYZ=           -461.1911
 Hexadecapole moment (field-independent basis, Debye-Ang**3):
 XXXX=        -129725.0276 YYYY=         -48391.0982 ZZZZ=          -3791.2825 XXXY=           2863.4615
 XXXZ=           1448.4047 YYYX=            414.7325 YYYZ=           1779.6967 ZZZX=           -392.1210
 ZZZY=            139.2157 XXYY=         -28432.8775 XXZZ=         -20022.1103 YYZZ=          -6970.3020
 XXYZ=           3654.5325 YYXZ=           1306.1706 ZZXY=           -425.4936
 N-N= 8.652373535190D+03 E-N=-2.448410288833D+04  KE= 3.059662513966D+03
 Leave Link  601 at Thu Nov  6 02:57:04 2025, MaxMem= 30870077440 cpu:             132.6 elap:               2.6
 (Enter /public/software/gauss/g16/l9999.exe)
 1\1\GINC-CU161\SP\RM062X\def2TZVPP\C49H56B1F2N5O9\BAIDING\06-Nov-2025\
 0\\#p M062X/DEF2TZVPP scrf=(solvent=water) em=GD3\\Energy calculation 
 for BE_N3\\0,1\B,0,-3.079694,-0.137537,0.333745\N,0,-4.04817,1.015298,
 0.71095\C,0,-3.723939,2.268475,1.162813\C,0,-4.922494,2.93478,1.523015
 \C,0,-5.998442,2.103802,1.272357\C,0,-5.43959,0.884028,0.763342\C,0,-6
 .055067,-0.325169,0.409148\C,0,-7.570756,-0.383351,0.352452\O,0,-8.214
 079,-0.774105,1.312612\C,0,-8.189515,0.057232,-0.965707\C,0,-9.694878,
 0.141593,-0.972052\C,0,-10.484295,-1.014134,-0.88216\C,0,-11.874423,-0
 .941847,-0.891113\C,0,-12.500326,0.307583,-0.99194\C,0,-11.73011,1.470
 49,-1.083669\C,0,-10.340037,1.380733,-1.071674\N,0,-13.912617,0.489573
 ,-1.01273\N,0,-14.638759,-0.507532,-0.937176\N,0,-15.422186,-1.334904,
 -0.875417\C,0,-5.311768,-1.467756,0.087677\N,0,-3.911995,-1.422769,0.0
 75415\C,0,-3.451551,-2.657692,-0.301054\C,0,-4.571694,-3.502056,-0.515
 757\C,0,-5.73165,-2.793894,-0.271195\C,0,-7.11438,-3.367206,-0.344598\
 C,0,-2.106138,-3.132543,-0.501919\C,0,-0.914234,-2.554392,-0.198479\C,
 0,0.401217,-3.118275,-0.466061\C,0,0.619279,-4.350328,-1.126988\C,0,1.
 898804,-4.825836,-1.351509\C,0,3.018395,-4.086877,-0.925508\O,0,4.2330
 88,-4.644219,-1.200729\C,0,5.421645,-3.949154,-0.788187\C,0,6.612867,-
 4.783408,-1.223352\O,0,6.659733,-6.076385,-0.628503\C,0,7.104222,-6.08
 2213,0.729755\C,0,7.275955,-7.525348,1.166645\O,0,8.303322,-8.195759,0
 .429421\C,0,9.499605,-8.472801,1.158269\C,0,10.326911,-7.248725,1.5105
 96\O,0,10.690002,-6.568142,0.314457\C,0,11.484881,-5.41845,0.574146\C,
 0,2.832657,-2.863248,-0.269748\C,0,1.537829,-2.398261,-0.050446\C,0,-7
 .430388,2.444642,1.553018\C,0,-2.434601,2.898429,1.294842\C,0,-1.23457
 5,2.536135,0.771744\C,0,0.02918,3.23423,0.967545\C,0,0.19567,4.341922,
 1.822774\C,0,1.426859,4.9708,1.975393\C,0,2.542179,4.498059,1.265488\O
 ,0,3.794285,5.036931,1.347113\C,0,4.004855,6.166326,2.212681\C,0,5.466
 006,6.572293,2.153613\O,0,5.840854,7.277156,0.975195\C,0,6.095004,6.46
 4894,-0.173234\C,0,6.869694,7.293612,-1.181515\O,0,8.157512,7.691318,-
 0.697877\C,0,9.193186,6.730651,-0.905744\C,0,9.872273,6.954711,-2.2530
 33\O,0,10.902994,5.984007,-2.386078\C,0,11.61324,6.11771,-3.610198\C,0
 ,2.40317,3.394469,0.409259\C,0,1.169501,2.778342,0.268689\F,0,-2.35666
 4,0.181092,-0.829011\F,0,-2.186838,-0.342317,1.398209\H,0,-4.966485,3.
 939759,1.92139\H,0,-7.73485,1.016526,-1.237263\H,0,-7.8235,-0.65501,-1
 .718624\H,0,-10.007562,-1.986986,-0.808752\H,0,-12.46331,-1.85151,-0.8
 23182\H,0,-12.223907,2.43292,-1.165792\H,0,-9.748692,2.288571,-1.14822
 2\H,0,-4.503859,-4.542582,-0.804402\H,0,-7.726695,-2.88299,-1.11277\H,
 0,-7.055149,-4.429464,-0.593619\H,0,-7.645854,-3.270753,0.606351\H,0,-
 2.099779,-4.121478,-0.953612\H,0,-0.902354,-1.597863,0.308698\H,0,-0.2
 22256,-4.942204,-1.472078\H,0,2.061657,-5.770937,-1.859666\H,0,5.47470
 5,-2.966664,-1.272946\H,0,5.406898,-3.799569,0.297068\H,0,6.562426,-4.
 948956,-2.304018\H,0,7.529676,-4.217622,-1.004224\H,0,8.052081,-5.5333
 02,0.813382\H,0,6.370025,-5.600353,1.391471\H,0,7.478252,-7.554556,2.2
 43893\H,0,6.338617,-8.065857,0.98629\H,0,9.271563,-9.016758,2.086228\H
 ,0,10.08612,-9.133264,0.511723\H,0,9.771041,-6.573346,2.17803\H,0,11.2
 24026,-7.58324,2.055506\H,0,11.712075,-4.954282,-0.388721\H,0,10.95099
 1,-4.692386,1.203666\H,0,12.427292,-5.684726,1.073975\H,0,3.676836,-2.
 274059,0.066245\H,0,1.400761,-1.447502,0.457533\H,0,-8.048912,2.438268
 ,0.649528\H,0,-7.883541,1.745089,2.261866\H,0,-7.489116,3.446965,1.984
 143\H,0,-2.492999,3.815377,1.876524\H,0,-1.181483,1.670266,0.122343\H,
 0,-0.647637,4.722352,2.390214\H,0,1.510569,5.817604,2.645211\H,0,3.366
 712,7.00189,1.90223\H,0,3.751677,5.892635,3.244362\H,0,5.645428,7.2606
 86,2.985892\H,0,6.103528,5.688553,2.297411\H,0,6.665496,5.570902,0.116
 055\H,0,5.158911,6.127931,-0.638139\H,0,6.952083,6.731939,-2.120434\H,
 0,6.322679,8.219078,-1.389838\H,0,9.92215,6.863009,-0.099645\H,0,8.808
 607,5.704977,-0.844911\H,0,9.143688,6.858074,-3.07282\H,0,10.288239,7.
 972898,-2.294747\H,0,12.099462,7.100601,-3.688243\H,0,12.37972,5.33904
 2,-3.629716\H,0,10.949376,5.988246,-4.476888\H,0,3.273023,3.036686,-0.
 132132\H,0,1.074547,1.924151,-0.396042\\Version=ES64L-G16RevA.03\State
 =1-A\HF=-3076.244674\RMSD=2.087e-09\Dipole=1.4117747,1.2037308,0.57164
 56\Quadrupole=13.61324,-14.1468243,0.5335843,-4.3307156,29.7850641,-14
 .2240963\PG=C01 [X(C49H56B1F2N5O9)]\\@


 IT CANNOT BE MY BEAUTY, FOR I HAVE NONE; AND IT CANNOT BE MY WIT,
 FOR HE HAS NOT ENOUGH TO KNOW THAT I HAVE ANY.
 -- CATHARINE SEDLEY, PUZZLED ABOUT WHY SHE WAS MISTRESS TO JAMES II
 Job cpu time:       1 days  6 hours 40 minutes 50.0 seconds.
 Elapsed time:       0 days  0 hours 29 minutes 24.7 seconds.
 File lengths (MBytes):  RWF=   5348 Int=      0 D2E=      0 Chk=    463 Scr=      1
 Normal termination of Gaussian 16 at Thu Nov  6 02:57:06 2025.
