 Entering Gaussian System, Link 0=g16
 Input=BE_N3_reduced_sp.gjf
 Output=BE_N3_reduced_sp.log
 Initial command:
 /public/software/gauss/g16/l1.exe "/public/home/baiding/1105_BE_sp/tmp_BE_N3_reduced_sp_1568733/Gau-1939814.inp" -scrdir="/public/home/baiding/1105_BE_sp/tmp_BE_N3_reduced_sp_1568733/"
 Entering Link 1 = /public/software/gauss/g16/l1.exe PID=   1939815.
  
 Copyright (c) 1988,1990,1992,1993,1995,1998,2003,2009,2016,
            Gaussian, Inc.  All Rights Reserved.
  
 This is part of the Gaussian(R) 16 program.  It is based on
 the Gaussian(R) 09 system (copyright 2009, Gaussian, Inc.),
 the Gaussian(R) 03 system (copyright 2003, Gaussian, Inc.),
 the Gaussian(R) 98 system (copyright 1998, Gaussian, Inc.),
 the Gaussian(R) 94 system (copyright 1995, Gaussian, Inc.),
 the Gaussian 92(TM) system (copyright 1992, Gaussian, Inc.),
 the Gaussian 90(TM) system (copyright 1990, Gaussian, Inc.),
 the Gaussian 88(TM) system (copyright 1988, Gaussian, Inc.),
 the Gaussian 86(TM) system (copyright 1986, Carnegie Mellon
 University), and the Gaussian 82(TM) system (copyright 1983,
 Carnegie Mellon University). Gaussian is a federally registered
 trademark of Gaussian, Inc.
  
 This software contains proprietary and confidential information,
 including trade secrets, belonging to Gaussian, Inc.
  
 This software is provided under written license and may be
 used, copied, transmitted, or stored only in accord with that
 written license.
  
 The following legend is applicable only to US Government
 contracts under FAR:
  
                    RESTRICTED RIGHTS LEGEND
  
 Use, reproduction and disclosure by the US Government is
 subject to restrictions as set forth in subparagraphs (a)
 and (c) of the Commercial Computer Software - Restricted
 Rights clause in FAR 52.227-19.
  
 Gaussian, Inc.
 340 Quinnipiac St., Bldg. 40, Wallingford CT 06492
  
  
 ---------------------------------------------------------------
 Warning -- This program may not be used in any manner that
 competes with the business of Gaussian, Inc. or will provide
 assistance to any competitor of Gaussian, Inc.  The licensee
 of this program is prohibited from giving any competitor of
 Gaussian, Inc. access to this program.  By using this program,
 the user acknowledges that Gaussian, Inc. is engaged in the
 business of creating and licensing software in the field of
 computational chemistry and represents and warrants to the
 licensee that it is not a competitor of Gaussian, Inc. and that
 it will not use this program in any manner prohibited above.
 ---------------------------------------------------------------
  

 Cite this work as:
 Gaussian 16, Revision A.03,
 M. J. Frisch, G. W. Trucks, H. B. Schlegel, G. E. Scuseria, 
 M. A. Robb, J. R. Cheeseman, G. Scalmani, V. Barone, 
 G. A. Petersson, H. Nakatsuji, X. Li, M. Caricato, A. V. Marenich, 
 J. Bloino, B. G. Janesko, R. Gomperts, B. Mennucci, H. P. Hratchian, 
 J. V. Ortiz, A. F. Izmaylov, J. L. Sonnenberg, D. Williams-Young, 
 F. Ding, F. Lipparini, F. Egidi, J. Goings, B. Peng, A. Petrone, 
 T. Henderson, D. Ranasinghe, V. G. Zakrzewski, J. Gao, N. Rega, 
 G. Zheng, W. Liang, M. Hada, M. Ehara, K. Toyota, R. Fukuda, 
 J. Hasegawa, M. Ishida, T. Nakajima, Y. Honda, O. Kitao, H. Nakai, 
 T. Vreven, K. Throssell, J. A. Montgomery, Jr., J. E. Peralta, 
 F. Ogliaro, M. J. Bearpark, J. J. Heyd, E. N. Brothers, K. N. Kudin, 
 V. N. Staroverov, T. A. Keith, R. Kobayashi, J. Normand, 
 K. Raghavachari, A. P. Rendell, J. C. Burant, S. S. Iyengar, 
 J. Tomasi, M. Cossi, J. M. Millam, M. Klene, C. Adamo, R. Cammi, 
 J. W. Ochterski, R. L. Martin, K. Morokuma, O. Farkas, 
 J. B. Foresman, and D. J. Fox, Gaussian, Inc., Wallingford CT, 2016.
 
 ******************************************
 Gaussian 16:  ES64L-G16RevA.03 25-Dec-2016
                 6-Nov-2025 
 ******************************************
 %nprocshared=64
 Will use up to   64 processors via shared memory.
 %mem=230GB
 %chk=BE_N3_reduced_sp.chk
 ----------------------------------------------
 #p M062X/DEF2TZVPP scrf=(solvent=water) em=GD3
 ----------------------------------------------
 1/38=1,172=1/1;
 2/12=2,17=6,18=5,40=1/2;
 3/5=44,7=202,11=2,25=1,30=1,70=2201,72=1,74=-55,124=31/1,2,3;
 4//1;
 5/5=2,38=5,53=1/2;
 6/7=2,8=2,9=2,10=2,28=1/1;
 99/5=1,9=1/99;
 Leave Link    1 at Thu Nov  6 01:20:12 2025, MaxMem= 30870077440 cpu:              18.8 elap:               0.3
 (Enter /public/software/gauss/g16/l101.exe)
 ------------------------------------
 Energy calculation for BE_N3_reduced
 ------------------------------------
 Symbolic Z-matrix:
 Charge = -1 Multiplicity = 2
 B                    -3.51909  -0.61777   0.88734 
 N                    -4.52561   0.50058   1.23599 
 C                    -4.24298   1.86121   1.27015 
 C                    -5.46968   2.54775   1.31281 
 C                    -6.51976   1.63578   1.3044 
 C                    -5.91429   0.33638   1.26766 
 C                    -6.47724  -0.96859   1.17345 
 C                    -7.94265  -1.15355   1.21114 
 O                    -8.65864  -0.63836   2.08095 
 C                    -8.61648  -1.91973   0.06066 
 C                    -9.27519  -0.9314   -0.88295 
 C                    -10.55677  -0.42937  -0.61332 
 C                    -11.15888   0.50434  -1.45328 
 C                    -10.47256   0.95597  -2.58747 
 C                    -9.19328   0.46781  -2.87216 
 C                    -8.60476  -0.46563  -2.02242 
 N                    -11.00061   1.90547  -3.50894 
 N                    -12.12589   2.37019  -3.29845 
 N                    -13.14627   2.87656  -3.22654 
 C                    -5.62612  -2.10973   1.0401 
 N                    -4.26667  -1.96147   0.76716 
 C                    -3.68546  -3.22465   0.75514 
 C                    -4.68826  -4.15993   1.05317 
 C                    -5.90012  -3.4928    1.24579 
 C                    -7.17131  -4.16217   1.68425 
 C                    -2.32621  -3.60934   0.47269 
 C                    -1.2851   -2.88762  -0.02005 
 C                     0.06144  -3.39306  -0.2767 
 C                     0.49094  -4.70638   0.02716 
 C                     1.78268  -5.12655  -0.24821 
 C                     2.70702  -4.24859  -0.8392 
 O                     3.95685  -4.76398  -1.07161 
 C                     4.94972  -3.90538  -1.6498 
 C                     6.22595  -4.71272  -1.80607 
 O                     6.75922  -5.20622  -0.58151 
 C                     7.36654  -4.20892   0.24241 
 C                     8.13891  -4.91115   1.3443 
 O                     9.22753  -5.68579   0.83132 
 C                     10.52933  -5.15524   1.08193 
 C                     10.85269  -3.87832   0.32564 
 O                     10.73304  -4.11679  -1.07245 
 C                     11.04018  -2.95987  -1.83969 
 C                     2.31413  -2.94148  -1.14674 
 C                     1.01003  -2.53408  -0.86373 
 C                    -7.9625    2.04968   1.29164 
 C                    -2.98405   2.55551   1.26392 
 C                    -1.70319   2.10478   1.36592 
 C                    -0.5017    2.93394   1.32878 
 C                    -0.49825   4.32607   1.10675 
 C                     0.68188   5.06641   1.07854 
 C                     1.91291   4.42354   1.27095 
 O                     3.13102   5.05468   1.25803 
 C                     3.16631   6.46677   1.00039 
 C                     4.60978   6.93606   0.98648 
 O                     5.33019   6.59475  -0.19402 
 C                     5.86577   5.27     -0.22277 
 C                     6.86031   5.18045  -1.36551 
 O                     7.97975   6.0581   -1.1993 
 C                     9.04145   5.52378  -0.40806 
 C                     10.03784   4.76844  -1.28185 
 O                     11.07404   4.28233  -0.43744 
 C                     12.06598   3.56706  -1.16219 
 C                     1.93965   3.0391    1.49351 
 C                     0.75556   2.31631   1.52003 
 F                    -2.8685   -0.28609  -0.32513 
 F                    -2.54028  -0.73589   1.90224 
 H                    -5.56685   3.62583   1.35085 
 H                    -7.88739  -2.51835  -0.48582 
 H                    -9.37495  -2.58247   0.48703 
 H                    -11.09338  -0.77474   0.26512 
 H                    -12.1549   0.87283  -1.22737 
 H                    -8.67177   0.82116  -3.75554 
 H                    -7.6112   -0.84019  -2.25108 
 H                    -4.52898  -5.2289    1.12498 
 H                    -7.81656  -4.45214   0.84688 
 H                    -6.93221  -5.07828   2.23344 
 H                    -7.76714  -3.52829   2.34811 
 H                    -2.16734  -4.66891   0.66754 
 H                    -1.43971  -1.8459   -0.27641 
 H                    -0.1936   -5.40955   0.49108 
 H                     2.10137  -6.13662  -0.00948 
 H                     4.62705  -3.55758  -2.63934 
 H                     5.10322  -3.02789  -1.01115 
 H                     6.02322  -5.59473  -2.42144 
 H                     6.96477  -4.08932  -2.3303 
 H                     8.03509  -3.58132  -0.36215 
 H                     6.60885  -3.55819   0.70242 
 H                     8.48903  -4.16854   2.07104 
 H                     7.46542  -5.60105   1.86741 
 H                     10.67185  -4.96727   2.15591 
 H                     11.22581  -5.94332   0.77861 
 H                     10.18548  -3.05786   0.62951 
 H                     11.88068  -3.57635   0.58202 
 H                     10.91567  -3.22404  -2.89271 
 H                     10.36695  -2.12499  -1.59863 
 H                     12.07586  -2.63011  -1.67385 
 H                     3.005    -2.24158  -1.60085 
 H                     0.7167   -1.51637  -1.10791 
 H                    -8.51829   1.59803   0.46393 
 H                    -8.48875   1.77583   2.21047 
 H                    -8.02193   3.13628   1.17739 
 H                    -3.13589   3.63077   1.18357 
 H                    -1.52393   1.04618   1.50688 
 H                    -1.43336   4.85287   0.94414 
 H                     0.63245   6.13416   0.90264 
 H                     2.69188   6.68759   0.0367 
 H                     2.62281   7.00217   1.78949 
 H                     4.59713   8.03022   1.02676 
 H                     5.13172   6.56739   1.88078 
 H                     6.35186   5.04037   0.73644 
 H                     5.07724   4.52352  -0.38427 
 H                     7.18419   4.13813  -1.4772 
 H                     6.3722    5.48337  -2.29772 
 H                     9.5418    6.37042   0.07312 
 H                     8.66178   4.86541   0.38308 
 H                     9.5408    3.93424  -1.80067 
 H                     10.44565   5.44342  -2.04968 
 H                     12.55193   4.20385  -1.91516 
 H                     12.81669   3.23025  -0.44308 
 H                     11.63913   2.69083  -1.67075 
 H                     2.89669   2.54836   1.64135 
 H                     0.79443   1.24382   1.69155 
 
 ITRead=  0  0  0  0  0  0  0  0  0  0  0  0  0  0  0  0  0  0  0  0
 ITRead=  0  0  0  0  0  0  0  0  0  0  0  0  0  0  0  0  0  0  0  0
 ITRead=  0  0  0  0  0  0  0  0  0  0  0  0  0  0  0  0  0  0  0  0
 ITRead=  0  0  0  0  0  0  0  0  0  0  0  0  0  0  0  0  0  0  0  0
 ITRead=  0  0  0  0  0  0  0  0  0  0  0  0  0  0  0  0  0  0  0  0
 ITRead=  0  0  0  0  0  0  0  0  0  0  0  0  0  0  0  0  0  0  0  0
 ITRead=  0  0
 MicOpt= -1 -1 -1 -1 -1 -1 -1 -1 -1 -1 -1 -1 -1 -1 -1 -1 -1 -1 -1 -1
 MicOpt= -1 -1 -1 -1 -1 -1 -1 -1 -1 -1 -1 -1 -1 -1 -1 -1 -1 -1 -1 -1
 MicOpt= -1 -1 -1 -1 -1 -1 -1 -1 -1 -1 -1 -1 -1 -1 -1 -1 -1 -1 -1 -1
 MicOpt= -1 -1 -1 -1 -1 -1 -1 -1 -1 -1 -1 -1 -1 -1 -1 -1 -1 -1 -1 -1
 MicOpt= -1 -1 -1 -1 -1 -1 -1 -1 -1 -1 -1 -1 -1 -1 -1 -1 -1 -1 -1 -1
 MicOpt= -1 -1 -1 -1 -1 -1 -1 -1 -1 -1 -1 -1 -1 -1 -1 -1 -1 -1 -1 -1
 MicOpt= -1 -1
 NAtoms=    122 NQM=      122 NQMF=       0 NMMI=      0 NMMIF=      0
                NMic=       0 NMicF=      0.
                    Isotopes and Nuclear Properties:
 (Nuclear quadrupole moments (NQMom) in fm**2, nuclear magnetic moments (NMagM)
  in nuclear magnetons)

  Atom         1           2           3           4           5           6           7           8           9          10
 IAtWgt=          11          14          12          12          12          12          12          12          16          12
 AtmWgt=  11.0093053  14.0030740  12.0000000  12.0000000  12.0000000  12.0000000  12.0000000  12.0000000  15.9949146  12.0000000
 NucSpn=           3           2           0           0           0           0           0           0           0           0
 AtZEff=  -0.0000000  -0.0000000  -0.0000000  -0.0000000  -0.0000000  -0.0000000  -0.0000000  -0.0000000  -0.0000000  -0.0000000
 NQMom=    4.0590000   2.0440000   0.0000000   0.0000000   0.0000000   0.0000000   0.0000000   0.0000000   0.0000000   0.0000000
 NMagM=    2.6886370   0.4037610   0.0000000   0.0000000   0.0000000   0.0000000   0.0000000   0.0000000   0.0000000   0.0000000
 AtZNuc=   5.0000000   7.0000000   6.0000000   6.0000000   6.0000000   6.0000000   6.0000000   6.0000000   8.0000000   6.0000000

  Atom        11          12          13          14          15          16          17          18          19          20
 IAtWgt=          12          12          12          12          12          12          14          14          14          12
 AtmWgt=  12.0000000  12.0000000  12.0000000  12.0000000  12.0000000  12.0000000  14.0030740  14.0030740  14.0030740  12.0000000
 NucSpn=           0           0           0           0           0           0           2           2           2           0
 AtZEff=  -0.0000000  -0.0000000  -0.0000000  -0.0000000  -0.0000000  -0.0000000  -0.0000000  -0.0000000  -0.0000000  -0.0000000
 NQMom=    0.0000000   0.0000000   0.0000000   0.0000000   0.0000000   0.0000000   2.0440000   2.0440000   2.0440000   0.0000000
 NMagM=    0.0000000   0.0000000   0.0000000   0.0000000   0.0000000   0.0000000   0.4037610   0.4037610   0.4037610   0.0000000
 AtZNuc=   6.0000000   6.0000000   6.0000000   6.0000000   6.0000000   6.0000000   7.0000000   7.0000000   7.0000000   6.0000000

  Atom        21          22          23          24          25          26          27          28          29          30
 IAtWgt=          14          12          12          12          12          12          12          12          12          12
 AtmWgt=  14.0030740  12.0000000  12.0000000  12.0000000  12.0000000  12.0000000  12.0000000  12.0000000  12.0000000  12.0000000
 NucSpn=           2           0           0           0           0           0           0           0           0           0
 AtZEff=  -0.0000000  -0.0000000  -0.0000000  -0.0000000  -0.0000000  -0.0000000  -0.0000000  -0.0000000  -0.0000000  -0.0000000
 NQMom=    2.0440000   0.0000000   0.0000000   0.0000000   0.0000000   0.0000000   0.0000000   0.0000000   0.0000000   0.0000000
 NMagM=    0.4037610   0.0000000   0.0000000   0.0000000   0.0000000   0.0000000   0.0000000   0.0000000   0.0000000   0.0000000
 AtZNuc=   7.0000000   6.0000000   6.0000000   6.0000000   6.0000000   6.0000000   6.0000000   6.0000000   6.0000000   6.0000000

  Atom        31          32          33          34          35          36          37          38          39          40
 IAtWgt=          12          16          12          12          16          12          12          16          12          12
 AtmWgt=  12.0000000  15.9949146  12.0000000  12.0000000  15.9949146  12.0000000  12.0000000  15.9949146  12.0000000  12.0000000
 NucSpn=           0           0           0           0           0           0           0           0           0           0
 AtZEff=  -0.0000000  -0.0000000  -0.0000000  -0.0000000  -0.0000000  -0.0000000  -0.0000000  -0.0000000  -0.0000000  -0.0000000
 NQMom=    0.0000000   0.0000000   0.0000000   0.0000000   0.0000000   0.0000000   0.0000000   0.0000000   0.0000000   0.0000000
 NMagM=    0.0000000   0.0000000   0.0000000   0.0000000   0.0000000   0.0000000   0.0000000   0.0000000   0.0000000   0.0000000
 AtZNuc=   6.0000000   8.0000000   6.0000000   6.0000000   8.0000000   6.0000000   6.0000000   8.0000000   6.0000000   6.0000000

  Atom        41          42          43          44          45          46          47          48          49          50
 IAtWgt=          16          12          12          12          12          12          12          12          12          12
 AtmWgt=  15.9949146  12.0000000  12.0000000  12.0000000  12.0000000  12.0000000  12.0000000  12.0000000  12.0000000  12.0000000
 NucSpn=           0           0           0           0           0           0           0           0           0           0
 AtZEff=  -0.0000000  -0.0000000  -0.0000000  -0.0000000  -0.0000000  -0.0000000  -0.0000000  -0.0000000  -0.0000000  -0.0000000
 NQMom=    0.0000000   0.0000000   0.0000000   0.0000000   0.0000000   0.0000000   0.0000000   0.0000000   0.0000000   0.0000000
 NMagM=    0.0000000   0.0000000   0.0000000   0.0000000   0.0000000   0.0000000   0.0000000   0.0000000   0.0000000   0.0000000
 AtZNuc=   8.0000000   6.0000000   6.0000000   6.0000000   6.0000000   6.0000000   6.0000000   6.0000000   6.0000000   6.0000000

  Atom        51          52          53          54          55          56          57          58          59          60
 IAtWgt=          12          16          12          12          16          12          12          16          12          12
 AtmWgt=  12.0000000  15.9949146  12.0000000  12.0000000  15.9949146  12.0000000  12.0000000  15.9949146  12.0000000  12.0000000
 NucSpn=           0           0           0           0           0           0           0           0           0           0
 AtZEff=  -0.0000000  -0.0000000  -0.0000000  -0.0000000  -0.0000000  -0.0000000  -0.0000000  -0.0000000  -0.0000000  -0.0000000
 NQMom=    0.0000000   0.0000000   0.0000000   0.0000000   0.0000000   0.0000000   0.0000000   0.0000000   0.0000000   0.0000000
 NMagM=    0.0000000   0.0000000   0.0000000   0.0000000   0.0000000   0.0000000   0.0000000   0.0000000   0.0000000   0.0000000
 AtZNuc=   6.0000000   8.0000000   6.0000000   6.0000000   8.0000000   6.0000000   6.0000000   8.0000000   6.0000000   6.0000000

  Atom        61          62          63          64          65          66          67          68          69          70
 IAtWgt=          16          12          12          12          19          19           1           1           1           1
 AtmWgt=  15.9949146  12.0000000  12.0000000  12.0000000  18.9984033  18.9984033   1.0078250   1.0078250   1.0078250   1.0078250
 NucSpn=           0           0           0           0           1           1           1           1           1           1
 AtZEff=  -0.0000000  -0.0000000  -0.0000000  -0.0000000  -0.0000000  -0.0000000  -0.0000000  -0.0000000  -0.0000000  -0.0000000
 NQMom=    0.0000000   0.0000000   0.0000000   0.0000000   0.0000000   0.0000000   0.0000000   0.0000000   0.0000000   0.0000000
 NMagM=    0.0000000   0.0000000   0.0000000   0.0000000   2.6288670   2.6288670   2.7928460   2.7928460   2.7928460   2.7928460
 AtZNuc=   8.0000000   6.0000000   6.0000000   6.0000000   9.0000000   9.0000000   1.0000000   1.0000000   1.0000000   1.0000000

  Atom        71          72          73          74          75          76          77          78          79          80
 IAtWgt=           1           1           1           1           1           1           1           1           1           1
 AtmWgt=   1.0078250   1.0078250   1.0078250   1.0078250   1.0078250   1.0078250   1.0078250   1.0078250   1.0078250   1.0078250
 NucSpn=           1           1           1           1           1           1           1           1           1           1
 AtZEff=  -0.0000000  -0.0000000  -0.0000000  -0.0000000  -0.0000000  -0.0000000  -0.0000000  -0.0000000  -0.0000000  -0.0000000
 NQMom=    0.0000000   0.0000000   0.0000000   0.0000000   0.0000000   0.0000000   0.0000000   0.0000000   0.0000000   0.0000000
 NMagM=    2.7928460   2.7928460   2.7928460   2.7928460   2.7928460   2.7928460   2.7928460   2.7928460   2.7928460   2.7928460
 AtZNuc=   1.0000000   1.0000000   1.0000000   1.0000000   1.0000000   1.0000000   1.0000000   1.0000000   1.0000000   1.0000000

  Atom        81          82          83          84          85          86          87          88          89          90
 IAtWgt=           1           1           1           1           1           1           1           1           1           1
 AtmWgt=   1.0078250   1.0078250   1.0078250   1.0078250   1.0078250   1.0078250   1.0078250   1.0078250   1.0078250   1.0078250
 NucSpn=           1           1           1           1           1           1           1           1           1           1
 AtZEff=  -0.0000000  -0.0000000  -0.0000000  -0.0000000  -0.0000000  -0.0000000  -0.0000000  -0.0000000  -0.0000000  -0.0000000
 NQMom=    0.0000000   0.0000000   0.0000000   0.0000000   0.0000000   0.0000000   0.0000000   0.0000000   0.0000000   0.0000000
 NMagM=    2.7928460   2.7928460   2.7928460   2.7928460   2.7928460   2.7928460   2.7928460   2.7928460   2.7928460   2.7928460
 AtZNuc=   1.0000000   1.0000000   1.0000000   1.0000000   1.0000000   1.0000000   1.0000000   1.0000000   1.0000000   1.0000000

  Atom        91          92          93          94          95          96          97          98          99         100
 IAtWgt=           1           1           1           1           1           1           1           1           1           1
 AtmWgt=   1.0078250   1.0078250   1.0078250   1.0078250   1.0078250   1.0078250   1.0078250   1.0078250   1.0078250   1.0078250
 NucSpn=           1           1           1           1           1           1           1           1           1           1
 AtZEff=  -0.0000000  -0.0000000  -0.0000000  -0.0000000  -0.0000000  -0.0000000  -0.0000000  -0.0000000  -0.0000000  -0.0000000
 NQMom=    0.0000000   0.0000000   0.0000000   0.0000000   0.0000000   0.0000000   0.0000000   0.0000000   0.0000000   0.0000000
 NMagM=    2.7928460   2.7928460   2.7928460   2.7928460   2.7928460   2.7928460   2.7928460   2.7928460   2.7928460   2.7928460
 AtZNuc=   1.0000000   1.0000000   1.0000000   1.0000000   1.0000000   1.0000000   1.0000000   1.0000000   1.0000000   1.0000000

  Atom       101         102         103         104         105         106         107         108         109         110
 IAtWgt=           1           1           1           1           1           1           1           1           1           1
 AtmWgt=   1.0078250   1.0078250   1.0078250   1.0078250   1.0078250   1.0078250   1.0078250   1.0078250   1.0078250   1.0078250
 NucSpn=           1           1           1           1           1           1           1           1           1           1
 AtZEff=  -0.0000000  -0.0000000  -0.0000000  -0.0000000  -0.0000000  -0.0000000  -0.0000000  -0.0000000  -0.0000000  -0.0000000
 NQMom=    0.0000000   0.0000000   0.0000000   0.0000000   0.0000000   0.0000000   0.0000000   0.0000000   0.0000000   0.0000000
 NMagM=    2.7928460   2.7928460   2.7928460   2.7928460   2.7928460   2.7928460   2.7928460   2.7928460   2.7928460   2.7928460
 AtZNuc=   1.0000000   1.0000000   1.0000000   1.0000000   1.0000000   1.0000000   1.0000000   1.0000000   1.0000000   1.0000000

  Atom       111         112         113         114         115         116         117         118         119         120
 IAtWgt=           1           1           1           1           1           1           1           1           1           1
 AtmWgt=   1.0078250   1.0078250   1.0078250   1.0078250   1.0078250   1.0078250   1.0078250   1.0078250   1.0078250   1.0078250
 NucSpn=           1           1           1           1           1           1           1           1           1           1
 AtZEff=  -0.0000000  -0.0000000  -0.0000000  -0.0000000  -0.0000000  -0.0000000  -0.0000000  -0.0000000  -0.0000000  -0.0000000
 NQMom=    0.0000000   0.0000000   0.0000000   0.0000000   0.0000000   0.0000000   0.0000000   0.0000000   0.0000000   0.0000000
 NMagM=    2.7928460   2.7928460   2.7928460   2.7928460   2.7928460   2.7928460   2.7928460   2.7928460   2.7928460   2.7928460
 AtZNuc=   1.0000000   1.0000000   1.0000000   1.0000000   1.0000000   1.0000000   1.0000000   1.0000000   1.0000000   1.0000000

  Atom       121         122
 IAtWgt=           1           1
 AtmWgt=   1.0078250   1.0078250
 NucSpn=           1           1
 AtZEff=  -0.0000000  -0.0000000
 NQMom=    0.0000000   0.0000000
 NMagM=    2.7928460   2.7928460
 AtZNuc=   1.0000000   1.0000000
 Leave Link  101 at Thu Nov  6 01:20:12 2025, MaxMem= 30870077440 cpu:               4.6 elap:               0.1
 (Enter /public/software/gauss/g16/l202.exe)
 Stoichiometry    C49H56BF2N5O9(1-,2)
 Framework group  C1[X(C49H56BF2N5O9)]
 Deg. of freedom   360
 Full point group                 C1      NOp   1
 Largest Abelian subgroup         C1      NOp   1
 Largest concise Abelian subgroup C1      NOp   1
                         Standard orientation:                         
 ---------------------------------------------------------------------
 Center     Atomic      Atomic             Coordinates (Angstroms)
 Number     Number       Type             X           Y           Z
 ---------------------------------------------------------------------
      1          5           0        3.519093   -0.617768   -0.887342
      2          7           0        4.525608    0.500579   -1.235994
      3          6           0        4.242982    1.861209   -1.270145
      4          6           0        5.469679    2.547750   -1.312812
      5          6           0        6.519762    1.635783   -1.304399
      6          6           0        5.914290    0.336377   -1.267660
      7          6           0        6.477241   -0.968590   -1.173451
      8          6           0        7.942647   -1.153547   -1.211141
      9          8           0        8.658636   -0.638363   -2.080948
     10          6           0        8.616481   -1.919732   -0.060655
     11          6           0        9.275186   -0.931404    0.882947
     12          6           0       10.556774   -0.429365    0.613316
     13          6           0       11.158883    0.504343    1.453281
     14          6           0       10.472561    0.955974    2.587470
     15          6           0        9.193280    0.467813    2.872163
     16          6           0        8.604756   -0.465627    2.022422
     17          7           0       11.000610    1.905472    3.508942
     18          7           0       12.125889    2.370186    3.298450
     19          7           0       13.146267    2.876562    3.226536
     20          6           0        5.626115   -2.109730   -1.040098
     21          7           0        4.266674   -1.961469   -0.767164
     22          6           0        3.685456   -3.224652   -0.755142
     23          6           0        4.688261   -4.159931   -1.053175
     24          6           0        5.900124   -3.492796   -1.245790
     25          6           0        7.171306   -4.162169   -1.684247
     26          6           0        2.326208   -3.609344   -0.472685
     27          6           0        1.285098   -2.887623    0.020053
     28          6           0       -0.061436   -3.393065    0.276701
     29          6           0       -0.490935   -4.706377   -0.027162
     30          6           0       -1.782682   -5.126551    0.248206
     31          6           0       -2.707018   -4.248595    0.839195
     32          8           0       -3.956852   -4.763976    1.071612
     33          6           0       -4.949721   -3.905383    1.649796
     34          6           0       -6.225949   -4.712723    1.806067
     35          8           0       -6.759223   -5.206220    0.581514
     36          6           0       -7.366536   -4.208923   -0.242412
     37          6           0       -8.138910   -4.911147   -1.344303
     38          8           0       -9.227533   -5.685790   -0.831316
     39          6           0      -10.529326   -5.155241   -1.081928
     40          6           0      -10.852694   -3.878316   -0.325640
     41          8           0      -10.733039   -4.116793    1.072452
     42          6           0      -11.040185   -2.959866    1.839688
     43          6           0       -2.314133   -2.941480    1.146736
     44          6           0       -1.010031   -2.534078    0.863730
     45          6           0        7.962500    2.049675   -1.291641
     46          6           0        2.984048    2.555508   -1.263915
     47          6           0        1.703185    2.104775   -1.365917
     48          6           0        0.501697    2.933941   -1.328775
     49          6           0        0.498248    4.326067   -1.106753
     50          6           0       -0.681884    5.066408   -1.078543
     51          6           0       -1.912911    4.423538   -1.270947
     52          8           0       -3.131016    5.054677   -1.258026
     53          6           0       -3.166311    6.466774   -1.000385
     54          6           0       -4.609782    6.936055   -0.986478
     55          8           0       -5.330195    6.594749    0.194021
     56          6           0       -5.865770    5.269998    0.222769
     57          6           0       -6.860309    5.180447    1.365512
     58          8           0       -7.979747    6.058100    1.199300
     59          6           0       -9.041454    5.523778    0.408064
     60          6           0      -10.037842    4.768439    1.281850
     61          8           0      -11.074037    4.282325    0.437442
     62          6           0      -12.065978    3.567060    1.162190
     63          6           0       -1.939650    3.039104   -1.493512
     64          6           0       -0.755564    2.316314   -1.520030
     65          9           0        2.868497   -0.286088    0.325133
     66          9           0        2.540281   -0.735893   -1.902239
     67          1           0        5.566848    3.625828   -1.350850
     68          1           0        7.887388   -2.518349    0.485821
     69          1           0        9.374954   -2.582470   -0.487025
     70          1           0       11.093377   -0.774741   -0.265122
     71          1           0       12.154896    0.872831    1.227370
     72          1           0        8.671773    0.821159    3.755542
     73          1           0        7.611203   -0.840190    2.251083
     74          1           0        4.528979   -5.228899   -1.124983
     75          1           0        7.816555   -4.452145   -0.846878
     76          1           0        6.932206   -5.078283   -2.233443
     77          1           0        7.767137   -3.528293   -2.348110
     78          1           0        2.167343   -4.668910   -0.667542
     79          1           0        1.439706   -1.845904    0.276407
     80          1           0        0.193597   -5.409547   -0.491081
     81          1           0       -2.101366   -6.136624    0.009484
     82          1           0       -4.627053   -3.557581    2.639344
     83          1           0       -5.103222   -3.027893    1.011152
     84          1           0       -6.023216   -5.594732    2.421436
     85          1           0       -6.964767   -4.089316    2.330303
     86          1           0       -8.035094   -3.581321    0.362148
     87          1           0       -6.608852   -3.558194   -0.702416
     88          1           0       -8.489033   -4.168535   -2.071041
     89          1           0       -7.465415   -5.601049   -1.867411
     90          1           0      -10.671846   -4.967270   -2.155905
     91          1           0      -11.225813   -5.943315   -0.778609
     92          1           0      -10.185478   -3.057864   -0.629508
     93          1           0      -11.880677   -3.576346   -0.582019
     94          1           0      -10.915674   -3.224038    2.892712
     95          1           0      -10.366954   -2.124985    1.598631
     96          1           0      -12.075857   -2.630114    1.673854
     97          1           0       -3.005001   -2.241578    1.600852
     98          1           0       -0.716704   -1.516368    1.107914
     99          1           0        8.518287    1.598027   -0.463933
    100          1           0        8.488747    1.775830   -2.210468
    101          1           0        8.021930    3.136278   -1.177391
    102          1           0        3.135891    3.630768   -1.183573
    103          1           0        1.523928    1.046179   -1.506883
    104          1           0        1.433361    4.852866   -0.944138
    105          1           0       -0.632452    6.134162   -0.902640
    106          1           0       -2.691875    6.687593   -0.036700
    107          1           0       -2.622813    7.002171   -1.789492
    108          1           0       -4.597126    8.030215   -1.026765
    109          1           0       -5.131717    6.567391   -1.880775
    110          1           0       -6.351861    5.040365   -0.736436
    111          1           0       -5.077238    4.523520    0.384273
    112          1           0       -7.184192    4.138132    1.477199
    113          1           0       -6.372201    5.483372    2.297720
    114          1           0       -9.541798    6.370418   -0.073118
    115          1           0       -8.661781    4.865406   -0.383077
    116          1           0       -9.540796    3.934243    1.800669
    117          1           0      -10.445648    5.443420    2.049682
    118          1           0      -12.551928    4.203846    1.915161
    119          1           0      -12.816687    3.230251    0.443075
    120          1           0      -11.639131    2.690827    1.670745
    121          1           0       -2.896690    2.548359   -1.641347
    122          1           0       -0.794431    1.243819   -1.691549
 ---------------------------------------------------------------------
 Rotational constants (GHZ):           0.0351047           0.0107973           0.0087780
 Leave Link  202 at Thu Nov  6 01:20:12 2025, MaxMem= 30870077440 cpu:               5.0 elap:               0.1
 (Enter /public/software/gauss/g16/l301.exe)
 Standard basis: def2TZVPP (5D, 7F)
 Ernie: Thresh=  0.10000D-02 Tol=  0.10000D-05 Strict=F.
 There are  3216 symmetry adapted cartesian basis functions of A   symmetry.
 There are  2830 symmetry adapted basis functions of A   symmetry.
  2830 basis functions,  4318 primitive gaussians,  3216 cartesian basis functions
   241 alpha electrons      240 beta electrons
       nuclear repulsion energy      8876.0902634509 Hartrees.
 IExCor= 4336 DFT=T Ex+Corr=M062X ExCW=0 ScaHFX=  0.540000
 ScaDFX=  1.000000  1.000000  1.000000  1.000000 ScalE2=  1.000000  1.000000
 IRadAn=      5 IRanWt=     -1 IRanGd=            0 ICorTp=0 IEmpDi=131
 NAtoms=  122 NActive=  122 NUniq=  122 SFac= 1.00D+00 NAtFMM=   60 NAOKFM=T Big=T
 Integral buffers will be    131072 words long.
 Raffenetti 2 integral format.
 Two-electron integral symmetry is turned on.
 R6Disp:  Grimme-D3 Dispersion energy=       -0.0102628856 Hartrees.
 Nuclear repulsion after empirical dispersion term =     8876.0800005653 Hartrees.
 ------------------------------------------------------------------------------
 Polarizable Continuum Model (PCM)
 =================================
 Model                : PCM.
 Atomic radii         : UFF (Universal Force Field).
 Polarization charges : Total charges.
 Charge compensation  : None.
 Solution method      : On-the-fly selection.
 Cavity type          : Scaled VdW (van der Waals Surface) (Alpha=1.100).
 Cavity algorithm     : GePol (No added spheres)
                        Default sphere list used, NSphG=  122.
                        Lebedev-Laikov grids with approx.  5.0 points / Ang**2.
                        Smoothing algorithm: York/Karplus (Gamma=1.0000).
                        Polarization charges: spherical gaussians, with
                                              point-specific exponents (IZeta= 3).
                        Self-potential: point-specific (ISelfS= 7).
                        Self-field    : sphere-specific E.n sum rule (ISelfD= 2).
 Solvent              : Water, Eps=  78.355300 Eps(inf)=   1.777849
 ------------------------------------------------------------------------------
 GePol: Number of generator spheres                  =     122
 GePol: Total number of spheres                      =     122
 GePol: Number of exposed spheres                    =     122 (100.00%)
 GePol: Number of points                             =    8592
 GePol: Average weight of points                     =       0.13
 GePol: Minimum weight of points                     =   0.29D-11
 GePol: Maximum weight of points                     =    0.20577
 GePol: Number of points with low weight             =     610
 GePol: Fraction of low-weight points (<1% of avg)   =       7.10%
 GePol: Cavity surface area                          =   1097.290 Ang**2
 GePol: Cavity volume                                =   1242.993 Ang**3
 Leave Link  301 at Thu Nov  6 01:20:12 2025, MaxMem= 30870077440 cpu:               6.8 elap:               0.1
 (Enter /public/software/gauss/g16/l302.exe)
 NPDir=0 NMtPBC=     1 NCelOv=     1 NCel=       1 NClECP=     1 NCelD=      1
         NCelK=      1 NCelE2=     1 NClLst=     1 CellRange=     0.0.
 One-electron integrals computed using PRISM.
 One-electron integral symmetry used in STVInt
   1 Symmetry operations used in ECPInt.
 ECPInt:  NShTT=  564453 NPrTT= 1565416 LenC2=  251551 LenP2D=  461442.
 LDataN:  DoStor=T MaxTD1= 6 Len=  172
 Number of processors reduced to  58 by ecpmxn.
 NBasis=  2830 RedAO= T EigKep=  5.85D-06  NBF=  2830
 NBsUse=  2830 1.00D-06 EigRej= -1.00D+00 NBFU=  2830
 Precomputing XC quadrature grid using
 IXCGrd= 4 IRadAn=           5 IRanWt=          -1 IRanGd=           0 AccXCQ= 0.00D+00.
 Generated NRdTot=       0 NPtTot=           0 NUsed=           0 NTot=          32
 NSgBfM=  2426  2426  2426  2426  2426 MxSgAt=   122 MxSgA2=   122.
 Leave Link  302 at Thu Nov  6 01:20:40 2025, MaxMem= 30870077440 cpu:            1801.0 elap:              28.3
 (Enter /public/software/gauss/g16/l303.exe)
 DipDrv:  MaxL=1.
 Leave Link  303 at Thu Nov  6 01:20:41 2025, MaxMem= 30870077440 cpu:              55.5 elap:               1.0
 (Enter /public/software/gauss/g16/l401.exe)
 ExpMin= 6.06D-02 ExpMax= 3.55D+04 ExpMxC= 1.21D+03 IAcc=3 IRadAn=         5 AccDes= 0.00D+00
 Harris functional with IExCor= 1009 and IRadAn=       5 diagonalized for initial guess.
 HarFok:  IExCor= 1009 AccDes= 0.00D+00 IRadAn=         5 IDoV= 1 UseB2=F ITyADJ=14
 ICtDFT=  3500011 ScaDFX=  1.000000  1.000000  1.000000  1.000000
 FoFCou: FMM=F IPFlag=           0 FMFlag=      100000 FMFlg1=        2001
         NFxFlg=           0 DoJE=T BraDBF=F KetDBF=T FulRan=T
         wScrn=  0.000000 ICntrl=       500 IOpCl=  0 I1Cent=   200000004 NGrid=           0
         NMat0=    1 NMatS0=      1 NMatT0=    0 NMatD0=    1 NMtDS0=    0 NMtDT0=    0
 Petite list used in FoFCou.
 Harris En= -3074.86945789265    
 JPrj=0 DoOrth=F DoCkMO=F.
 Initial guess <Sx>= 0.0000 <Sy>= 0.0000 <Sz>= 0.5000 <S**2>= 0.7500 S= 0.5000
 Leave Link  401 at Thu Nov  6 01:21:05 2025, MaxMem= 30870077440 cpu:            1519.4 elap:              23.9
 (Enter /public/software/gauss/g16/l502.exe)
 Integral symmetry usage will be decided dynamically.
 UHF open shell SCF:
 Using DIIS extrapolation, IDIIS=  1040.
 NGot= 30870077440 LenX= 30849159162 LenY= 30838813290
 Requested convergence on RMS density matrix=1.00D-08 within 128 cycles.
 Requested convergence on MAX density matrix=1.00D-06.
 Requested convergence on             energy=1.00D-06.
 No special actions if energy rises.
 Fock matrices will be formed incrementally for  20 cycles.

 Cycle   1  Pass 1  IDiag  1:
 FoFJK:  IHMeth= 1 ICntrl=       0 DoSepK=F KAlg= 0 I1Cent=           0 FoldK=F
 IRaf= 400000000 NMat=       1 IRICut=       1 DoRegI=T DoRafI=F ISym2E= 0 IDoP0=0 IntGTp=1.
 FoFCou: FMM=T IPFlag=           0 FMFlag=      100000 FMFlg1=        2001
         NFxFlg=           0 DoJE=F BraDBF=F KetDBF=F FulRan=T
         wScrn=  0.000000 ICntrl=         0 IOpCl=  1 I1Cent=           0 NGrid=           0
         NMat0=    1 NMatS0=      1 NMatT0=    0 NMatD0=    1 NMtDS0=    0 NMtDT0=    0
 Symmetry not used in FoFCou.
 FMM levels:  10  Number of levels for PrismC:   9
 Inv3:  Mode=1 IEnd=   221467392.
 Iteration    1 A*A^-1 deviation from unit magnitude is 2.36D-14 for   1190.
 Iteration    1 A*A^-1 deviation from orthogonality  is 8.00D-15 for   5826    375.
 Iteration    1 A^-1*A deviation from unit magnitude is 2.30D-14 for   1190.
 Iteration    1 A^-1*A deviation from orthogonality  is 5.46D-14 for   7471   7444.
 E= -3074.88697475980    
 DIIS: error= 1.50D-02 at cycle   1 NSaved=   1.
 NSaved= 1 IEnMin= 1 EnMin= -3074.88697475980     IErMin= 1 ErrMin= 1.50D-02
 ErrMax= 1.50D-02  0.00D+00 EMaxC= 1.00D-01 BMatC= 7.66D+00 BMatP= 7.66D+00
 IDIUse=3 WtCom= 8.50D-01 WtEn= 1.50D-01
 Coeff-Com:  0.100D+01
 Coeff-En:   0.100D+01
 Coeff:      0.100D+01
 Gap=     0.165 Goal=   None    Shift=    0.000
 Gap=     0.248 Goal=   None    Shift=    0.000
 GapD=    0.165 DampG=1.000 DampE=0.500 DampFc=0.5000 IDamp=-1.
 Damping current iteration by 5.00D-01
 RMSDP=1.81D-03 MaxDP=7.48D-01              OVMax= 1.92D-01

 Cycle   2  Pass 1  IDiag  1:
 RMSU=  9.05D-04    CP:  1.02D+00
 E= -3075.65564827917     Delta-E=       -0.768673519367 Rises=F Damp=T
 DIIS: error= 4.54D-03 at cycle   2 NSaved=   2.
 NSaved= 2 IEnMin= 2 EnMin= -3075.65564827917     IErMin= 2 ErrMin= 4.54D-03
 ErrMax= 4.54D-03  0.00D+00 EMaxC= 1.00D-01 BMatC= 7.74D-01 BMatP= 7.66D+00
 IDIUse=3 WtCom= 9.55D-01 WtEn= 4.54D-02
 Coeff-Com: -0.170D+00 0.117D+01
 Coeff-En:   0.000D+00 0.100D+01
 Coeff:     -0.162D+00 0.116D+01
 Gap=     0.184 Goal=   None    Shift=    0.000
 Gap=     0.220 Goal=   None    Shift=    0.000
 RMSDP=5.26D-04 MaxDP=1.48D-01 DE=-7.69D-01 OVMax= 1.18D-01

 Cycle   3  Pass 1  IDiag  1:
 RMSU=  5.23D-04    CP:  1.00D+00  9.52D-01
 E= -3076.31509327604     Delta-E=       -0.659444996878 Rises=F Damp=F
 DIIS: error= 3.83D-03 at cycle   3 NSaved=   3.
 NSaved= 3 IEnMin= 3 EnMin= -3076.31509327604     IErMin= 3 ErrMin= 3.83D-03
 ErrMax= 3.83D-03  0.00D+00 EMaxC= 1.00D-01 BMatC= 3.36D-01 BMatP= 7.74D-01
 IDIUse=3 WtCom= 9.62D-01 WtEn= 3.83D-02
 Coeff-Com: -0.142D+00 0.507D+00 0.635D+00
 Coeff-En:   0.000D+00 0.000D+00 0.100D+01
 Coeff:     -0.136D+00 0.488D+00 0.649D+00
 Gap=     0.160 Goal=   None    Shift=    0.000
 Gap=     0.128 Goal=   None    Shift=    0.000
 RMSDP=2.04D-04 MaxDP=1.11D-01 DE=-6.59D-01 OVMax= 5.81D-02

 Cycle   4  Pass 1  IDiag  1:
 RMSU=  1.62D-04    CP:  1.01D+00  1.07D+00  8.75D-01
 E= -3076.36520025907     Delta-E=       -0.050106983024 Rises=F Damp=F
 DIIS: error= 2.25D-03 at cycle   4 NSaved=   4.
 NSaved= 4 IEnMin= 4 EnMin= -3076.36520025907     IErMin= 4 ErrMin= 2.25D-03
 ErrMax= 2.25D-03  0.00D+00 EMaxC= 1.00D-01 BMatC= 8.41D-02 BMatP= 3.36D-01
 IDIUse=3 WtCom= 9.77D-01 WtEn= 2.25D-02
 Coeff-Com: -0.526D-01 0.132D+00 0.371D+00 0.549D+00
 Coeff-En:   0.000D+00 0.000D+00 0.199D+00 0.801D+00
 Coeff:     -0.514D-01 0.129D+00 0.368D+00 0.554D+00
 Gap=     0.157 Goal=   None    Shift=    0.000
 Gap=     0.130 Goal=   None    Shift=    0.000
 RMSDP=8.58D-05 MaxDP=2.69D-02 DE=-5.01D-02 OVMax= 2.46D-02

 Cycle   5  Pass 1  IDiag  1:
 RMSU=  4.79D-05    CP:  1.00D+00  1.03D+00  9.35D-01  6.66D-01
 E= -3076.38142130491     Delta-E=       -0.016221045844 Rises=F Damp=F
 DIIS: error= 9.71D-04 at cycle   5 NSaved=   5.
 NSaved= 5 IEnMin= 5 EnMin= -3076.38142130491     IErMin= 5 ErrMin= 9.71D-04
 ErrMax= 9.71D-04  0.00D+00 EMaxC= 1.00D-01 BMatC= 5.74D-03 BMatP= 8.41D-02
 IDIUse=3 WtCom= 9.90D-01 WtEn= 9.71D-03
 Coeff-Com: -0.193D-01 0.407D-01 0.161D+00 0.302D+00 0.516D+00
 Coeff-En:   0.000D+00 0.000D+00 0.000D+00 0.000D+00 0.100D+01
 Coeff:     -0.192D-01 0.403D-01 0.159D+00 0.299D+00 0.521D+00
 Gap=     0.158 Goal=   None    Shift=    0.000
 Gap=     0.131 Goal=   None    Shift=    0.000
 RMSDP=2.06D-05 MaxDP=1.19D-02 DE=-1.62D-02 OVMax= 1.15D-02

 Cycle   6  Pass 1  IDiag  1:
 RMSU=  1.82D-05    CP:  1.00D+00  1.04D+00  9.37D-01  6.91D-01  9.50D-01
 E= -3076.38258511270     Delta-E=       -0.001163807789 Rises=F Damp=F
 DIIS: error= 3.06D-04 at cycle   6 NSaved=   6.
 NSaved= 6 IEnMin= 6 EnMin= -3076.38258511270     IErMin= 6 ErrMin= 3.06D-04
 ErrMax= 3.06D-04  0.00D+00 EMaxC= 1.00D-01 BMatC= 6.91D-04 BMatP= 5.74D-03
 IDIUse=3 WtCom= 9.97D-01 WtEn= 3.06D-03
 Coeff-Com: -0.290D-02 0.343D-02 0.344D-01 0.837D-01 0.281D+00 0.600D+00
 Coeff-En:   0.000D+00 0.000D+00 0.000D+00 0.000D+00 0.000D+00 0.100D+01
 Coeff:     -0.290D-02 0.342D-02 0.343D-01 0.835D-01 0.280D+00 0.602D+00
 Gap=     0.159 Goal=   None    Shift=    0.000
 Gap=     0.133 Goal=   None    Shift=    0.000
 RMSDP=1.10D-05 MaxDP=7.45D-03 DE=-1.16D-03 OVMax= 4.86D-03

 Cycle   7  Pass 1  IDiag  1:
 RMSU=  8.86D-06    CP:  1.00D+00  1.04D+00  9.39D-01  7.11D-01  1.04D+00
                    CP:  1.12D+00
 E= -3076.38278298644     Delta-E=       -0.000197873735 Rises=F Damp=F
 DIIS: error= 7.05D-05 at cycle   7 NSaved=   7.
 NSaved= 7 IEnMin= 7 EnMin= -3076.38278298644     IErMin= 7 ErrMin= 7.05D-05
 ErrMax= 7.05D-05  0.00D+00 EMaxC= 1.00D-01 BMatC= 1.11D-04 BMatP= 6.91D-04
 IDIUse=1 WtCom= 1.00D+00 WtEn= 0.00D+00
 Coeff-Com:  0.220D-02-0.578D-02-0.133D-01-0.163D-01 0.357D-01 0.280D+00
 Coeff-Com:  0.718D+00
 Coeff:      0.220D-02-0.578D-02-0.133D-01-0.163D-01 0.357D-01 0.280D+00
 Coeff:      0.718D+00
 Gap=     0.160 Goal=   None    Shift=    0.000
 Gap=     0.134 Goal=   None    Shift=    0.000
 RMSDP=8.33D-06 MaxDP=2.86D-03 DE=-1.98D-04 OVMax= 4.37D-03

 Cycle   8  Pass 1  IDiag  1:
 RMSU=  4.50D-06    CP:  1.00D+00  1.04D+00  9.44D-01  7.15D-01  1.14D+00
                    CP:  1.28D+00  1.17D+00
 E= -3076.38284434403     Delta-E=       -0.000061357599 Rises=F Damp=F
 DIIS: error= 3.31D-05 at cycle   8 NSaved=   8.
 NSaved= 8 IEnMin= 8 EnMin= -3076.38284434403     IErMin= 8 ErrMin= 3.31D-05
 ErrMax= 3.31D-05  0.00D+00 EMaxC= 1.00D-01 BMatC= 3.20D-05 BMatP= 1.11D-04
 IDIUse=1 WtCom= 1.00D+00 WtEn= 0.00D+00
 Coeff-Com:  0.198D-02-0.384D-02-0.174D-01-0.358D-01-0.761D-01-0.626D-01
 Coeff-Com:  0.335D+00 0.859D+00
 Coeff:      0.198D-02-0.384D-02-0.174D-01-0.358D-01-0.761D-01-0.626D-01
 Coeff:      0.335D+00 0.859D+00
 Gap=     0.161 Goal=   None    Shift=    0.000
 Gap=     0.135 Goal=   None    Shift=    0.000
 RMSDP=6.45D-06 MaxDP=3.53D-03 DE=-6.14D-05 OVMax= 3.97D-03

 Cycle   9  Pass 1  IDiag  1:
 RMSU=  2.10D-06    CP:  1.00D+00  1.04D+00  9.46D-01  7.26D-01  1.19D+00
                    CP:  1.44D+00  1.54D+00  1.58D+00
 E= -3076.38287351508     Delta-E=       -0.000029171049 Rises=F Damp=F
 DIIS: error= 2.24D-05 at cycle   9 NSaved=   9.
 NSaved= 9 IEnMin= 9 EnMin= -3076.38287351508     IErMin= 9 ErrMin= 2.24D-05
 ErrMax= 2.24D-05  0.00D+00 EMaxC= 1.00D-01 BMatC= 8.10D-06 BMatP= 3.20D-05
 IDIUse=1 WtCom= 1.00D+00 WtEn= 0.00D+00
 Coeff-Com:  0.159D-03 0.609D-04-0.282D-02-0.941D-02-0.402D-01-0.100D+00
 Coeff-Com: -0.716D-01 0.335D+00 0.889D+00
 Coeff:      0.159D-03 0.609D-04-0.282D-02-0.941D-02-0.402D-01-0.100D+00
 Coeff:     -0.716D-01 0.335D+00 0.889D+00
 Gap=     0.161 Goal=   None    Shift=    0.000
 Gap=     0.135 Goal=   None    Shift=    0.000
 RMSDP=3.59D-06 MaxDP=1.48D-03 DE=-2.92D-05 OVMax= 2.44D-03

 Cycle  10  Pass 1  IDiag  1:
 RMSU=  1.26D-06    CP:  1.00D+00  1.04D+00  9.47D-01  7.28D-01  1.21D+00
                    CP:  1.49D+00  1.71D+00  2.07D+00  1.51D+00
 E= -3076.38288214191     Delta-E=       -0.000008626821 Rises=F Damp=F
 DIIS: error= 1.12D-05 at cycle  10 NSaved=  10.
 NSaved=10 IEnMin=10 EnMin= -3076.38288214191     IErMin=10 ErrMin= 1.12D-05
 ErrMax= 1.12D-05  0.00D+00 EMaxC= 1.00D-01 BMatC= 2.36D-06 BMatP= 8.10D-06
 IDIUse=1 WtCom= 1.00D+00 WtEn= 0.00D+00
 Coeff-Com: -0.567D-03 0.126D-02 0.434D-02 0.720D-02 0.624D-02-0.209D-01
 Coeff-Com: -0.132D+00-0.131D+00 0.399D+00 0.866D+00
 Coeff:     -0.567D-03 0.126D-02 0.434D-02 0.720D-02 0.624D-02-0.209D-01
 Coeff:     -0.132D+00-0.131D+00 0.399D+00 0.866D+00
 Gap=     0.161 Goal=   None    Shift=    0.000
 Gap=     0.135 Goal=   None    Shift=    0.000
 RMSDP=2.23D-06 MaxDP=1.29D-03 DE=-8.63D-06 OVMax= 1.39D-03

 Cycle  11  Pass 1  IDiag  1:
 RMSU=  6.90D-07    CP:  1.00D+00  1.04D+00  9.47D-01  7.29D-01  1.21D+00
                    CP:  1.51D+00  1.79D+00  2.39D+00  2.02D+00  1.53D+00
 E= -3076.38288446929     Delta-E=       -0.000002327381 Rises=F Damp=F
 DIIS: error= 4.76D-06 at cycle  11 NSaved=  11.
 NSaved=11 IEnMin=11 EnMin= -3076.38288446929     IErMin=11 ErrMin= 4.76D-06
 ErrMax= 4.76D-06  0.00D+00 EMaxC= 1.00D-01 BMatC= 3.95D-07 BMatP= 2.36D-06
 IDIUse=1 WtCom= 1.00D+00 WtEn= 0.00D+00
 Coeff-Com: -0.221D-03 0.435D-03 0.203D-02 0.428D-02 0.937D-02 0.110D-01
 Coeff-Com: -0.337D-01-0.107D+00-0.117D-01 0.281D+00 0.844D+00
 Coeff:     -0.221D-03 0.435D-03 0.203D-02 0.428D-02 0.937D-02 0.110D-01
 Coeff:     -0.337D-01-0.107D+00-0.117D-01 0.281D+00 0.844D+00
 Gap=     0.161 Goal=   None    Shift=    0.000
 Gap=     0.135 Goal=   None    Shift=    0.000
 RMSDP=1.14D-06 MaxDP=1.04D-03 DE=-2.33D-06 OVMax= 5.65D-04

 Cycle  12  Pass 1  IDiag  1:
 RMSU=  3.22D-07    CP:  1.00D+00  1.04D+00  9.47D-01  7.29D-01  1.21D+00
                    CP:  1.50D+00  1.80D+00  2.52D+00  2.23D+00  1.98D+00
                    CP:  1.50D+00
 E= -3076.38288497307     Delta-E=       -0.000000503784 Rises=F Damp=F
 DIIS: error= 3.38D-06 at cycle  12 NSaved=  12.
 NSaved=12 IEnMin=12 EnMin= -3076.38288497307     IErMin=12 ErrMin= 3.38D-06
 ErrMax= 3.38D-06  0.00D+00 EMaxC= 1.00D-01 BMatC= 1.45D-07 BMatP= 3.95D-07
 IDIUse=1 WtCom= 1.00D+00 WtEn= 0.00D+00
 Coeff-Com:  0.613D-04-0.157D-03-0.352D-03-0.300D-03 0.164D-02 0.814D-02
 Coeff-Com:  0.167D-01-0.469D-02-0.963D-01-0.119D+00 0.346D+00 0.848D+00
 Coeff:      0.613D-04-0.157D-03-0.352D-03-0.300D-03 0.164D-02 0.814D-02
 Coeff:      0.167D-01-0.469D-02-0.963D-01-0.119D+00 0.346D+00 0.848D+00
 Gap=     0.161 Goal=   None    Shift=    0.000
 Gap=     0.135 Goal=   None    Shift=    0.000
 RMSDP=7.18D-07 MaxDP=7.04D-04 DE=-5.04D-07 OVMax= 4.01D-04

 Cycle  13  Pass 1  IDiag  1:
 RMSU=  1.48D-07    CP:  1.00D+00  1.04D+00  9.47D-01  7.28D-01  1.21D+00
                    CP:  1.50D+00  1.80D+00  2.59D+00  2.37D+00  2.27D+00
                    CP:  1.97D+00  1.57D+00
 E= -3076.38288518344     Delta-E=       -0.000000210375 Rises=F Damp=F
 DIIS: error= 2.12D-06 at cycle  13 NSaved=  13.
 NSaved=13 IEnMin=13 EnMin= -3076.38288518344     IErMin=13 ErrMin= 2.12D-06
 ErrMax= 2.12D-06  0.00D+00 EMaxC= 1.00D-01 BMatC= 4.25D-08 BMatP= 1.45D-07
 IDIUse=1 WtCom= 1.00D+00 WtEn= 0.00D+00
 Coeff-Com:  0.929D-04-0.194D-03-0.791D-03-0.156D-02-0.234D-02-0.856D-03
 Coeff-Com:  0.156D-01 0.356D-01-0.286D-01-0.139D+00-0.159D+00 0.256D+00
 Coeff-Com:  0.102D+01
 Coeff:      0.929D-04-0.194D-03-0.791D-03-0.156D-02-0.234D-02-0.856D-03
 Coeff:      0.156D-01 0.356D-01-0.286D-01-0.139D+00-0.159D+00 0.256D+00
 Coeff:      0.102D+01
 Gap=     0.161 Goal=   None    Shift=    0.000
 Gap=     0.135 Goal=   None    Shift=    0.000
 RMSDP=5.66D-07 MaxDP=5.69D-04 DE=-2.10D-07 OVMax= 3.47D-04

 Cycle  14  Pass 1  IDiag  1:
 RMSU=  8.24D-08    CP:  1.00D+00  1.04D+00  9.46D-01  7.27D-01  1.21D+00
                    CP:  1.49D+00  1.80D+00  2.63D+00  2.47D+00  2.50D+00
                    CP:  2.36D+00  2.12D+00  1.76D+00
 E= -3076.38288527937     Delta-E=       -0.000000095923 Rises=F Damp=F
 DIIS: error= 1.41D-06 at cycle  14 NSaved=  14.
 NSaved=14 IEnMin=14 EnMin= -3076.38288527937     IErMin=14 ErrMin= 1.41D-06
 ErrMax= 1.41D-06  0.00D+00 EMaxC= 1.00D-01 BMatC= 1.30D-08 BMatP= 4.25D-08
 IDIUse=1 WtCom= 1.00D+00 WtEn= 0.00D+00
 Coeff-Com:  0.337D-05 0.104D-05-0.846D-04-0.328D-03-0.102D-02-0.281D-02
 Coeff-Com: -0.182D-02 0.111D-01 0.224D-01 0.261D-02-0.153D+00-0.209D+00
 Coeff-Com:  0.279D+00 0.105D+01
 Coeff:      0.337D-05 0.104D-05-0.846D-04-0.328D-03-0.102D-02-0.281D-02
 Coeff:     -0.182D-02 0.111D-01 0.224D-01 0.261D-02-0.153D+00-0.209D+00
 Coeff:      0.279D+00 0.105D+01
 Gap=     0.161 Goal=   None    Shift=    0.000
 Gap=     0.135 Goal=   None    Shift=    0.000
 RMSDP=3.07D-07 MaxDP=2.72D-04 DE=-9.59D-08 OVMax= 2.02D-04

 Cycle  15  Pass 1  IDiag  1:
 RMSU=  4.63D-08    CP:  1.00D+00  1.04D+00  9.46D-01  7.27D-01  1.21D+00
                    CP:  1.49D+00  1.80D+00  2.65D+00  2.52D+00  2.61D+00
                    CP:  2.55D+00  2.45D+00  2.39D+00  1.68D+00
 E= -3076.38288530915     Delta-E=       -0.000000029786 Rises=F Damp=F
 DIIS: error= 7.21D-07 at cycle  15 NSaved=  15.
 NSaved=15 IEnMin=15 EnMin= -3076.38288530915     IErMin=15 ErrMin= 7.21D-07
 ErrMax= 7.21D-07  0.00D+00 EMaxC= 1.00D-01 BMatC= 3.86D-09 BMatP= 1.30D-08
 IDIUse=1 WtCom= 1.00D+00 WtEn= 0.00D+00
 Coeff-Com: -0.255D-04 0.561D-04 0.202D-03 0.328D-03 0.293D-03-0.703D-03
 Coeff-Com: -0.531D-02-0.680D-02 0.151D-01 0.421D-01-0.383D-02-0.140D+00
 Coeff-Com: -0.199D+00 0.383D+00 0.915D+00
 Coeff:     -0.255D-04 0.561D-04 0.202D-03 0.328D-03 0.293D-03-0.703D-03
 Coeff:     -0.531D-02-0.680D-02 0.151D-01 0.421D-01-0.383D-02-0.140D+00
 Coeff:     -0.199D+00 0.383D+00 0.915D+00
 Gap=     0.161 Goal=   None    Shift=    0.000
 Gap=     0.135 Goal=   None    Shift=    0.000
 RMSDP=1.03D-07 MaxDP=4.87D-05 DE=-2.98D-08 OVMax= 8.59D-05

 Cycle  16  Pass 1  IDiag  1:
 RMSU=  2.54D-08    CP:  1.00D+00  1.04D+00  9.46D-01  7.27D-01  1.21D+00
                    CP:  1.49D+00  1.80D+00  2.66D+00  2.54D+00  2.64D+00
                    CP:  2.60D+00  2.54D+00  2.66D+00  2.16D+00  1.64D+00
 E= -3076.38288531601     Delta-E=       -0.000000006852 Rises=F Damp=F
 DIIS: error= 3.63D-07 at cycle  16 NSaved=  16.
 NSaved=16 IEnMin=16 EnMin= -3076.38288531601     IErMin=16 ErrMin= 3.63D-07
 ErrMax= 3.63D-07  0.00D+00 EMaxC= 1.00D-01 BMatC= 1.10D-09 BMatP= 3.86D-09
 IDIUse=1 WtCom= 1.00D+00 WtEn= 0.00D+00
 Coeff-Com: -0.906D-05 0.183D-04 0.932D-04 0.197D-03 0.330D-03 0.469D-03
 Coeff-Com: -0.148D-02-0.544D-02-0.594D-04 0.157D-01 0.389D-01 0.103D-02
 Coeff-Com: -0.153D+00-0.133D+00 0.335D+00 0.900D+00
 Coeff:     -0.906D-05 0.183D-04 0.932D-04 0.197D-03 0.330D-03 0.469D-03
 Coeff:     -0.148D-02-0.544D-02-0.594D-04 0.157D-01 0.389D-01 0.103D-02
 Coeff:     -0.153D+00-0.133D+00 0.335D+00 0.900D+00
 Gap=     0.161 Goal=   None    Shift=    0.000
 Gap=     0.135 Goal=   None    Shift=    0.000
 RMSDP=5.05D-08 MaxDP=2.60D-05 DE=-6.85D-09 OVMax= 4.83D-05

 Cycle  17  Pass 1  IDiag  1:
 RMSU=  1.56D-08    CP:  1.00D+00  1.04D+00  9.46D-01  7.27D-01  1.21D+00
                    CP:  1.49D+00  1.81D+00  2.66D+00  2.54D+00  2.65D+00
                    CP:  2.61D+00  2.54D+00  2.77D+00  2.41D+00  2.13D+00
                    CP:  1.75D+00
 E= -3076.38288531730     Delta-E=       -0.000000001293 Rises=F Damp=F
 DIIS: error= 2.42D-07 at cycle  17 NSaved=  17.
 NSaved=17 IEnMin=17 EnMin= -3076.38288531730     IErMin=17 ErrMin= 2.42D-07
 ErrMax= 2.42D-07  0.00D+00 EMaxC= 1.00D-01 BMatC= 3.30D-10 BMatP= 1.10D-09
 IDIUse=1 WtCom= 1.00D+00 WtEn= 0.00D+00
 Coeff-Com:  0.403D-05-0.929D-05-0.240D-04-0.227D-04 0.195D-04 0.360D-03
 Coeff-Com:  0.994D-03 0.189D-03-0.430D-02-0.728D-02 0.136D-01 0.421D-01
 Coeff-Com:  0.972D-02-0.146D+00-0.171D+00 0.314D+00 0.948D+00
 Coeff:      0.403D-05-0.929D-05-0.240D-04-0.227D-04 0.195D-04 0.360D-03
 Coeff:      0.994D-03 0.189D-03-0.430D-02-0.728D-02 0.136D-01 0.421D-01
 Coeff:      0.972D-02-0.146D+00-0.171D+00 0.314D+00 0.948D+00
 Gap=     0.161 Goal=   None    Shift=    0.000
 Gap=     0.135 Goal=   None    Shift=    0.000
 RMSDP=3.53D-08 MaxDP=3.36D-05 DE=-1.29D-09 OVMax= 2.68D-05

 Cycle  18  Pass 1  IDiag  1:
 RMSU=  6.92D-09    CP:  1.00D+00  1.04D+00  9.46D-01  7.27D-01  1.21D+00
                    CP:  1.49D+00  1.81D+00  2.66D+00  2.54D+00  2.64D+00
                    CP:  2.61D+00  2.52D+00  2.79D+00  2.50D+00  2.45D+00
                    CP:  2.40D+00  1.56D+00
 E= -3076.38288531811     Delta-E=       -0.000000000815 Rises=F Damp=F
 DIIS: error= 1.21D-07 at cycle  18 NSaved=  18.
 NSaved=18 IEnMin=18 EnMin= -3076.38288531811     IErMin=18 ErrMin= 1.21D-07
 ErrMax= 1.21D-07  0.00D+00 EMaxC= 1.00D-01 BMatC= 9.46D-11 BMatP= 3.30D-10
 IDIUse=1 WtCom= 1.00D+00 WtEn= 0.00D+00
 Coeff-Com:  0.394D-05-0.836D-05-0.358D-04-0.630D-04-0.877D-04-0.496D-05
 Coeff-Com:  0.787D-03 0.161D-02-0.143D-02-0.732D-02-0.592D-02 0.159D-01
 Coeff-Com:  0.469D-01-0.172D-01-0.163D+00-0.135D+00 0.346D+00 0.919D+00
 Coeff:      0.394D-05-0.836D-05-0.358D-04-0.630D-04-0.877D-04-0.496D-05
 Coeff:      0.787D-03 0.161D-02-0.143D-02-0.732D-02-0.592D-02 0.159D-01
 Coeff:      0.469D-01-0.172D-01-0.163D+00-0.135D+00 0.346D+00 0.919D+00
 Gap=     0.161 Goal=   None    Shift=    0.000
 Gap=     0.135 Goal=   None    Shift=    0.000
 RMSDP=2.42D-08 MaxDP=2.13D-05 DE=-8.15D-10 OVMax= 1.66D-05

 Cycle  19  Pass 1  IDiag  1:
 RMSU=  3.68D-09    CP:  1.00D+00  1.04D+00  9.46D-01  7.27D-01  1.21D+00
                    CP:  1.49D+00  1.81D+00  2.66D+00  2.54D+00  2.64D+00
                    CP:  2.60D+00  2.51D+00  2.80D+00  2.55D+00  2.62D+00
                    CP:  2.80D+00  2.07D+00  1.67D+00
 E= -3076.38288531803     Delta-E=        0.000000000080 Rises=F Damp=F
 DIIS: error= 5.16D-08 at cycle  19 NSaved=  19.
 NSaved=19 IEnMin=18 EnMin= -3076.38288531811     IErMin=19 ErrMin= 5.16D-08
 ErrMax= 5.16D-08  0.00D+00 EMaxC= 1.00D-01 BMatC= 2.54D-11 BMatP= 9.46D-11
 IDIUse=1 WtCom= 1.00D+00 WtEn= 0.00D+00
 Coeff-Com: -0.394D-06 0.917D-06-0.161D-05-0.626D-05-0.222D-04-0.106D-03
 Coeff-Com: -0.942D-04 0.308D-03 0.103D-02 0.218D-03-0.534D-02-0.902D-02
 Coeff-Com:  0.789D-02 0.385D-01 0.157D-01-0.128D+00-0.202D+00 0.239D+00
 Coeff-Com:  0.104D+01
 Coeff:     -0.394D-06 0.917D-06-0.161D-05-0.626D-05-0.222D-04-0.106D-03
 Coeff:     -0.942D-04 0.308D-03 0.103D-02 0.218D-03-0.534D-02-0.902D-02
 Coeff:      0.789D-02 0.385D-01 0.157D-01-0.128D+00-0.202D+00 0.239D+00
 Coeff:      0.104D+01
 Gap=     0.161 Goal=   None    Shift=    0.000
 Gap=     0.135 Goal=   None    Shift=    0.000
 RMSDP=1.25D-08 MaxDP=8.88D-06 DE= 8.00D-11 OVMax= 1.10D-05

 Cycle  20  Pass 1  IDiag  1:
 RMSU=  2.28D-09    CP:  1.00D+00  1.04D+00  9.46D-01  7.27D-01  1.21D+00
                    CP:  1.49D+00  1.81D+00  2.66D+00  2.54D+00  2.63D+00
                    CP:  2.60D+00  2.50D+00  2.80D+00  2.57D+00  2.70D+00
                    CP:  3.00D+00  2.36D+00  2.26D+00  1.60D+00
 E= -3076.38288531847     Delta-E=       -0.000000000437 Rises=F Damp=F
 DIIS: error= 2.09D-08 at cycle  20 NSaved=  20.
 NSaved=20 IEnMin=20 EnMin= -3076.38288531847     IErMin=20 ErrMin= 2.09D-08
 ErrMax= 2.09D-08  0.00D+00 EMaxC= 1.00D-01 BMatC= 7.98D-12 BMatP= 2.54D-11
 IDIUse=1 WtCom= 1.00D+00 WtEn= 0.00D+00
 Coeff-Com: -0.105D-05 0.227D-05 0.703D-05 0.112D-04 0.108D-04-0.439D-04
 Coeff-Com: -0.214D-03-0.253D-03 0.759D-03 0.169D-02-0.568D-03-0.716D-02
 Coeff-Com: -0.749D-02 0.182D-01 0.461D-01-0.220D-01-0.165D+00-0.131D+00
 Coeff-Com:  0.409D+00 0.859D+00
 Coeff:     -0.105D-05 0.227D-05 0.703D-05 0.112D-04 0.108D-04-0.439D-04
 Coeff:     -0.214D-03-0.253D-03 0.759D-03 0.169D-02-0.568D-03-0.716D-02
 Coeff:     -0.749D-02 0.182D-01 0.461D-01-0.220D-01-0.165D+00-0.131D+00
 Coeff:      0.409D+00 0.859D+00
 Gap=     0.161 Goal=   None    Shift=    0.000
 Gap=     0.135 Goal=   None    Shift=    0.000
 RMSDP=5.68D-09 MaxDP=2.93D-06 DE=-4.37D-10 OVMax= 5.81D-06

 Cycle  21  Pass 1  IDiag  1:
 Restarting incremental Fock formation.
 E= -3076.38288531812     Delta-E=        0.000000000347 Rises=F Damp=F
 DIIS: error= 9.89D-09 at cycle  21 NSaved=  20.
 NSaved=20 IEnMin=19 EnMin= -3076.38288531847     IErMin=20 ErrMin= 9.89D-09
 ErrMax= 9.89D-09  0.00D+00 EMaxC= 1.00D-01 BMatC= 2.38D-12 BMatP= 7.98D-12
 IDIUse=1 WtCom= 1.00D+00 WtEn= 0.00D+00
 Coeff-Com:  0.156D-07 0.118D-05 0.262D-05 0.699D-05 0.189D-04-0.602D-05
 Coeff-Com: -0.132D-03-0.143D-03 0.275D-03 0.143D-02 0.887D-03-0.425D-02
 Coeff-Com: -0.744D-02 0.767D-02 0.333D-01 0.224D-01-0.109D+00-0.223D+00
 Coeff-Com:  0.250D+00 0.103D+01
 Coeff:      0.156D-07 0.118D-05 0.262D-05 0.699D-05 0.189D-04-0.602D-05
 Coeff:     -0.132D-03-0.143D-03 0.275D-03 0.143D-02 0.887D-03-0.425D-02
 Coeff:     -0.744D-02 0.767D-02 0.333D-01 0.224D-01-0.109D+00-0.223D+00
 Coeff:      0.250D+00 0.103D+01
 Gap=     0.161 Goal=   None    Shift=    0.000
 Gap=     0.135 Goal=   None    Shift=    0.000
 RMSDP=6.43D-09 MaxDP=2.05D-06 DE= 3.47D-10 OVMax= 3.84D-06

 Cycle  22  Pass 1  IDiag  1:
 RMSU=  6.43D-09    CP:  1.00D+00
 E= -3076.38288531850     Delta-E=       -0.000000000375 Rises=F Damp=F
 DIIS: error= 6.50D-09 at cycle  22 NSaved=  20.
 NSaved=20 IEnMin=20 EnMin= -3076.38288531850     IErMin=20 ErrMin= 6.50D-09
 ErrMax= 6.50D-09  0.00D+00 EMaxC= 1.00D-01 BMatC= 8.33D-13 BMatP= 2.38D-12
 IDIUse=1 WtCom= 1.00D+00 WtEn= 0.00D+00
 Coeff-Com:  0.955D-06 0.193D-05 0.599D-05 0.186D-04 0.107D-04-0.497D-04
 Coeff-Com: -0.185D-03-0.255D-04 0.805D-03 0.162D-02-0.925D-03-0.667D-02
 Coeff-Com: -0.599D-02 0.198D-01 0.465D-01-0.146D-01-0.195D+00-0.127D+00
 Coeff-Com:  0.390D+00 0.891D+00
 Coeff:      0.955D-06 0.193D-05 0.599D-05 0.186D-04 0.107D-04-0.497D-04
 Coeff:     -0.185D-03-0.255D-04 0.805D-03 0.162D-02-0.925D-03-0.667D-02
 Coeff:     -0.599D-02 0.198D-01 0.465D-01-0.146D-01-0.195D+00-0.127D+00
 Coeff:      0.390D+00 0.891D+00
 Gap=     0.161 Goal=   None    Shift=    0.000
 Gap=     0.135 Goal=   None    Shift=    0.000
 RMSDP=2.30D-09 MaxDP=1.02D-06 DE=-3.75D-10 OVMax= 2.18D-06

 Cycle  23  Pass 1  IDiag  1:
 RMSU=  9.36D-10    CP:  1.00D+00  1.33D+00
 E= -3076.38288531821     Delta-E=        0.000000000286 Rises=F Damp=F
 DIIS: error= 4.67D-09 at cycle  23 NSaved=  20.
 NSaved=20 IEnMin=19 EnMin= -3076.38288531850     IErMin=20 ErrMin= 4.67D-09
 ErrMax= 4.67D-09  0.00D+00 EMaxC= 1.00D-01 BMatC= 2.62D-13 BMatP= 8.33D-13
 IDIUse=1 WtCom= 1.00D+00 WtEn= 0.00D+00
 Coeff-Com: -0.271D-06-0.218D-06 0.498D-07 0.120D-05 0.293D-04-0.163D-04
 Coeff-Com: -0.778D-04-0.247D-03 0.189D-03 0.114D-02 0.787D-03-0.495D-02
 Coeff-Com: -0.511D-02 0.682D-02 0.355D-01 0.218D-01-0.136D+00-0.264D+00
 Coeff-Com:  0.252D+00 0.109D+01
 Coeff:     -0.271D-06-0.218D-06 0.498D-07 0.120D-05 0.293D-04-0.163D-04
 Coeff:     -0.778D-04-0.247D-03 0.189D-03 0.114D-02 0.787D-03-0.495D-02
 Coeff:     -0.511D-02 0.682D-02 0.355D-01 0.218D-01-0.136D+00-0.264D+00
 Coeff:      0.252D+00 0.109D+01
 Gap=     0.161 Goal=   None    Shift=    0.000
 Gap=     0.135 Goal=   None    Shift=    0.000
 RMSDP=1.69D-09 MaxDP=6.49D-07 DE= 2.86D-10 OVMax= 1.49D-06

 Error on total polarization charges =  0.03104
 SCF Done:  E(UM062X) =  -3076.38288532     A.U. after   23 cycles
            NFock= 23  Conv=0.17D-08     -V/T= 2.0054
 <Sx>= 0.0000 <Sy>= 0.0000 <Sz>= 0.5000 <S**2>= 0.7874 S= 0.5185
 <L.S>= 0.000000000000E+00
 KE= 3.059781892304D+03 PE=-2.497204356892D+04 EE= 9.959798790729D+03
 Annihilation of the first spin contaminant:
 S**2 before annihilation     0.7874,   after     0.7511
 Leave Link  502 at Thu Nov  6 02:27:33 2025, MaxMem= 30870077440 cpu:          252065.3 elap:            3987.5
 (Enter /public/software/gauss/g16/l601.exe)
 Copying SCF densities to generalized density rwf, IOpCl= 1 IROHF=0.
 Hyperfine terms turned off by default for NAtoms > 100.

 **********************************************************************

            Population analysis using the SCF density.

 **********************************************************************

 Orbital symmetries:
 Alpha Orbitals:
       Occupied  (A) (A) (A) (A) (A) (A) (A) (A) (A) (A) (A) (A)
                 (A) (A) (A) (A) (A) (A) (A) (A) (A) (A) (A) (A)
                 (A) (A) (A) (A) (A) (A) (A) (A) (A) (A) (A) (A)
                 (A) (A) (A) (A) (A) (A) (A) (A) (A) (A) (A) (A)
                 (A) (A) (A) (A) (A) (A) (A) (A) (A) (A) (A) (A)
                 (A) (A) (A) (A) (A) (A) (A) (A) (A) (A) (A) (A)
                 (A) (A) (A) (A) (A) (A) (A) (A) (A) (A) (A) (A)
                 (A) (A) (A) (A) (A) (A) (A) (A) (A) (A) (A) (A)
                 (A) (A) (A) (A) (A) (A) (A) (A) (A) (A) (A) (A)
                 (A) (A) (A) (A) (A) (A) (A) (A) (A) (A) (A) (A)
                 (A) (A) (A) (A) (A) (A) (A) (A) (A) (A) (A) (A)
                 (A) (A) (A) (A) (A) (A) (A) (A) (A) (A) (A) (A)
                 (A) (A) (A) (A) (A) (A) (A) (A) (A) (A) (A) (A)
                 (A) (A) (A) (A) (A) (A) (A) (A) (A) (A) (A) (A)
                 (A) (A) (A) (A) (A) (A) (A) (A) (A) (A) (A) (A)
                 (A) (A) (A) (A) (A) (A) (A) (A) (A) (A) (A) (A)
                 (A) (A) (A) (A) (A) (A) (A) (A) (A) (A) (A) (A)
                 (A) (A) (A) (A) (A) (A) (A) (A) (A) (A) (A) (A)
                 (A) (A) (A) (A) (A) (A) (A) (A) (A) (A) (A) (A)
                 (A) (A) (A) (A) (A) (A) (A) (A) (A) (A) (A) (A)
                 (A)
       Virtual   (A) (A) (A) (A) (A) (A) (A) (A) (A) (A) (A) (A)
                 (A) (A) (A) (A) (A) (A) (A) (A) (A) (A) (A) (A)
                 (A) (A) (A) (A) (A) (A) (A) (A) (A) (A) (A) (A)
                 (A) (A) (A) (A) (A) (A) (A) (A) (A) (A) (A) (A)
                 (A) (A) (A) (A) (A) (A) (A) (A) (A) (A) (A) (A)
                 (A) (A) (A) (A) (A) (A) (A) (A) (A) (A) (A) (A)
                 (A) (A) (A) (A) (A) (A) (A) (A) (A) (A) (A) (A)
                 (A) (A) (A) (A) (A) (A) (A) (A) (A) (A) (A) (A)
                 (A) (A) (A) (A) (A) (A) (A) (A) (A) (A) (A) (A)
                 (A) (A) (A) (A) (A) (A) (A) (A) (A) (A) (A) (A)
                 (A) (A) (A) (A) (A) (A) (A) (A) (A) (A) (A) (A)
                 (A) (A) (A) (A) (A) (A) (A) (A) (A) (A) (A) (A)
                 (A) (A) (A) (A) (A) (A) (A) (A) (A) (A) (A) (A)
                 (A) (A) (A) (A) (A) (A) (A) (A) (A) (A) (A) (A)
                 (A) (A) (A) (A) (A) (A) (A) (A) (A) (A) (A) (A)
                 (A) (A) (A) (A) (A) (A) (A) (A) (A) (A) (A) (A)
                 (A) (A) (A) (A) (A) (A) (A) (A) (A) (A) (A) (A)
                 (A) (A) (A) (A) (A) (A) (A) (A) (A) (A) (A) (A)
                 (A) (A) (A) (A) (A) (A) (A) (A) (A) (A) (A) (A)
                 (A) (A) (A) (A) (A) (A) (A) (A) (A) (A) (A) (A)
                 (A) (A) (A) (A) (A) (A) (A) (A) (A) (A) (A) (A)
                 (A) (A) (A) (A) (A) (A) (A) (A) (A) (A) (A) (A)
                 (A) (A) (A) (A) (A) (A) (A) (A) (A) (A) (A) (A)
                 (A) (A) (A) (A) (A) (A) (A) (A) (A) (A) (A) (A)
                 (A) (A) (A) (A) (A) (A) (A) (A) (A) (A) (A) (A)
                 (A) (A) (A) (A) (A) (A) (A) (A) (A) (A) (A) (A)
                 (A) (A) (A) (A) (A) (A) (A) (A) (A) (A) (A) (A)
                 (A) (A) (A) (A) (A) (A) (A) (A) (A) (A) (A) (A)
                 (A) (A) (A) (A) (A) (A) (A) (A) (A) (A) (A) (A)
                 (A) (A) (A) (A) (A) (A) (A) (A) (A) (A) (A) (A)
                 (A) (A) (A) (A) (A) (A) (A) (A) (A) (A) (A) (A)
                 (A) (A) (A) (A) (A) (A) (A) (A) (A) (A) (A) (A)
                 (A) (A) (A) (A) (A) (A) (A) (A) (A) (A) (A) (A)
                 (A) (A) (A) (A) (A) (A) (A) (A) (A) (A) (A) (A)
                 (A) (A) (A) (A) (A) (A) (A) (A) (A) (A) (A) (A)
                 (A) (A) (A) (A) (A) (A) (A) (A) (A) (A) (A) (A)
                 (A) (A) (A) (A) (A) (A) (A) (A) (A) (A) (A) (A)
                 (A) (A) (A) (A) (A) (A) (A) (A) (A) (A) (A) (A)
                 (A) (A) (A) (A) (A) (A) (A) (A) (A) (A) (A) (A)
                 (A) (A) (A) (A) (A) (A) (A) (A) (A) (A) (A) (A)
                 (A) (A) (A) (A) (A) (A) (A) (A) (A) (A) (A) (A)
                 (A) (A) (A) (A) (A) (A) (A) (A) (A) (A) (A) (A)
                 (A) (A) (A) (A) (A) (A) (A) (A) (A) (A) (A) (A)
                 (A) (A) (A) (A) (A) (A) (A) (A) (A) (A) (A) (A)
                 (A) (A) (A) (A) (A) (A) (A) (A) (A) (A) (A) (A)
                 (A) (A) (A) (A) (A) (A) (A) (A) (A) (A) (A) (A)
                 (A) (A) (A) (A) (A) (A) (A) (A) (A) (A) (A) (A)
                 (A) (A) (A) (A) (A) (A) (A) (A) (A) (A) (A) (A)
                 (A) (A) (A) (A) (A) (A) (A) (A) (A) (A) (A) (A)
                 (A) (A) (A) (A) (A) (A) (A) (A) (A) (A) (A) (A)
                 (A) (A) (A) (A) (A) (A) (A) (A) (A) (A) (A) (A)
                 (A) (A) (A) (A) (A) (A) (A) (A) (A) (A) (A) (A)
                 (A) (A) (A) (A) (A) (A) (A) (A) (A) (A) (A) (A)
                 (A) (A) (A) (A) (A) (A) (A) (A) (A) (A) (A) (A)
                 (A) (A) (A) (A) (A) (A) (A) (A) (A) (A) (A) (A)
                 (A) (A) (A) (A) (A) (A) (A) (A) (A) (A) (A) (A)
                 (A) (A) (A) (A) (A) (A) (A) (A) (A) (A) (A) (A)
                 (A) (A) (A) (A) (A) (A) (A) (A) (A) (A) (A) (A)
                 (A) (A) (A) (A) (A) (A) (A) (A) (A) (A) (A) (A)
                 (A) (A) (A) (A) (A) (A) (A) (A) (A) (A) (A) (A)
                 (A) (A) (A) (A) (A) (A) (A) (A) (A) (A) (A) (A)
                 (A) (A) (A) (A) (A) (A) (A) (A) (A) (A) (A) (A)
                 (A) (A) (A) (A) (A) (A) (A) (A) (A) (A) (A) (A)
                 (A) (A) (A) (A) (A) (A) (A) (A) (A) (A) (A) (A)
                 (A) (A) (A) (A) (A) (A) (A) (A) (A) (A) (A) (A)
                 (A) (A) (A) (A) (A) (A) (A) (A) (A) (A) (A) (A)
                 (A) (A) (A) (A) (A) (A) (A) (A) (A) (A) (A) (A)
                 (A) (A) (A) (A) (A) (A) (A) (A) (A) (A) (A) (A)
                 (A) (A) (A) (A) (A) (A) (A) (A) (A) (A) (A) (A)
                 (A) (A) (A) (A) (A) (A) (A) (A) (A) (A) (A) (A)
                 (A) (A) (A) (A) (A) (A) (A) (A) (A) (A) (A) (A)
                 (A) (A) (A) (A) (A) (A) (A) (A) (A) (A) (A) (A)
                 (A) (A) (A) (A) (A) (A) (A) (A) (A) (A) (A) (A)
                 (A) (A) (A) (A) (A) (A) (A) (A) (A) (A) (A) (A)
                 (A) (A) (A) (A) (A) (A) (A) (A) (A) (A) (A) (A)
                 (A) (A) (A) (A) (A) (A) (A) (A) (A) (A) (A) (A)
                 (A) (A) (A) (A) (A) (A) (A) (A) (A) (A) (A) (A)
                 (A) (A) (A) (A) (A) (A) (A) (A) (A) (A) (A) (A)
                 (A) (A) (A) (A) (A) (A) (A) (A) (A) (A) (A) (A)
                 (A) (A) (A) (A) (A) (A) (A) (A) (A) (A) (A) (A)
                 (A) (A) (A) (A) (A) (A) (A) (A) (A) (A) (A) (A)
                 (A) (A) (A) (A) (A) (A) (A) (A) (A) (A) (A) (A)
                 (A) (A) (A) (A) (A) (A) (A) (A) (A) (A) (A) (A)
                 (A) (A) (A) (A) (A) (A) (A) (A) (A) (A) (A) (A)
                 (A) (A) (A) (A) (A) (A) (A) (A) (A) (A) (A) (A)
                 (A) (A) (A) (A) (A) (A) (A) (A) (A) (A) (A) (A)
                 (A) (A) (A) (A) (A) (A) (A) (A) (A) (A) (A) (A)
                 (A) (A) (A) (A) (A) (A) (A) (A) (A) (A) (A) (A)
                 (A) (A) (A) (A) (A) (A) (A) (A) (A) (A) (A) (A)
                 (A) (A) (A) (A) (A) (A) (A) (A) (A) (A) (A) (A)
                 (A) (A) (A) (A) (A) (A) (A) (A) (A) (A) (A) (A)
                 (A) (A) (A) (A) (A) (A) (A) (A) (A) (A) (A) (A)
                 (A) (A) (A) (A) (A) (A) (A) (A) (A) (A) (A) (A)
                 (A) (A) (A) (A) (A) (A) (A) (A) (A) (A) (A) (A)
                 (A) (A) (A) (A) (A) (A) (A) (A) (A) (A) (A) (A)
                 (A) (A) (A) (A) (A) (A) (A) (A) (A) (A) (A) (A)
                 (A) (A) (A) (A) (A) (A) (A) (A) (A) (A) (A) (A)
                 (A) (A) (A) (A) (A) (A) (A) (A) (A) (A) (A) (A)
                 (A) (A) (A) (A) (A) (A) (A) (A) (A) (A) (A) (A)
                 (A) (A) (A) (A) (A) (A) (A) (A) (A) (A) (A) (A)
                 (A) (A) (A) (A) (A) (A) (A) (A) (A) (A) (A) (A)
                 (A) (A) (A) (A) (A) (A) (A) (A) (A) (A) (A) (A)
                 (A) (A) (A) (A) (A) (A) (A) (A) (A) (A) (A) (A)
                 (A) (A) (A) (A) (A) (A) (A) (A) (A) (A) (A) (A)
                 (A) (A) (A) (A) (A) (A) (A) (A) (A) (A) (A) (A)
                 (A) (A) (A) (A) (A) (A) (A) (A) (A) (A) (A) (A)
                 (A) (A) (A) (A) (A) (A) (A) (A) (A) (A) (A) (A)
                 (A) (A) (A) (A) (A) (A) (A) (A) (A) (A) (A) (A)
                 (A) (A) (A) (A) (A) (A) (A) (A) (A) (A) (A) (A)
                 (A) (A) (A) (A) (A) (A) (A) (A) (A) (A) (A) (A)
                 (A) (A) (A) (A) (A) (A) (A) (A) (A) (A) (A) (A)
                 (A) (A) (A) (A) (A) (A) (A) (A) (A) (A) (A) (A)
                 (A) (A) (A) (A) (A) (A) (A) (A) (A) (A) (A) (A)
                 (A) (A) (A) (A) (A) (A) (A) (A) (A) (A) (A) (A)
                 (A) (A) (A) (A) (A) (A) (A) (A) (A) (A) (A) (A)
                 (A) (A) (A) (A) (A) (A) (A) (A) (A) (A) (A) (A)
                 (A) (A) (A) (A) (A) (A) (A) (A) (A) (A) (A) (A)
                 (A) (A) (A) (A) (A) (A) (A) (A) (A) (A) (A) (A)
                 (A) (A) (A) (A) (A) (A) (A) (A) (A) (A) (A) (A)
                 (A) (A) (A) (A) (A) (A) (A) (A) (A) (A) (A) (A)
                 (A) (A) (A) (A) (A) (A) (A) (A) (A) (A) (A) (A)
                 (A) (A) (A) (A) (A) (A) (A) (A) (A) (A) (A) (A)
                 (A) (A) (A) (A) (A) (A) (A) (A) (A) (A) (A) (A)
                 (A) (A) (A) (A) (A) (A) (A) (A) (A) (A) (A) (A)
                 (A) (A) (A) (A) (A) (A) (A) (A) (A) (A) (A) (A)
                 (A) (A) (A) (A) (A) (A) (A) (A) (A) (A) (A) (A)
                 (A) (A) (A) (A) (A) (A) (A) (A) (A) (A) (A) (A)
                 (A) (A) (A) (A) (A) (A) (A) (A) (A) (A) (A) (A)
                 (A) (A) (A) (A) (A) (A) (A) (A) (A) (A) (A) (A)
                 (A) (A) (A) (A) (A) (A) (A) (A) (A) (A) (A) (A)
                 (A) (A) (A) (A) (A) (A) (A) (A) (A) (A) (A) (A)
                 (A) (A) (A) (A) (A) (A) (A) (A) (A) (A) (A) (A)
                 (A) (A) (A) (A) (A) (A) (A) (A) (A) (A) (A) (A)
                 (A) (A) (A) (A) (A) (A) (A) (A) (A) (A) (A) (A)
                 (A) (A) (A) (A) (A) (A) (A) (A) (A) (A) (A) (A)
                 (A) (A) (A) (A) (A) (A) (A) (A) (A) (A) (A) (A)
                 (A) (A) (A) (A) (A) (A) (A) (A) (A) (A) (A) (A)
                 (A) (A) (A) (A) (A) (A) (A) (A) (A) (A) (A) (A)
                 (A) (A) (A) (A) (A) (A) (A) (A) (A) (A) (A) (A)
                 (A) (A) (A) (A) (A) (A) (A) (A) (A) (A) (A) (A)
                 (A) (A) (A) (A) (A) (A) (A) (A) (A) (A) (A) (A)
                 (A) (A) (A) (A) (A) (A) (A) (A) (A) (A) (A) (A)
                 (A) (A) (A) (A) (A) (A) (A) (A) (A) (A) (A) (A)
                 (A) (A) (A) (A) (A) (A) (A) (A) (A) (A) (A) (A)
                 (A) (A) (A) (A) (A) (A) (A) (A) (A) (A) (A) (A)
                 (A) (A) (A) (A) (A) (A) (A) (A) (A) (A) (A) (A)
                 (A) (A) (A) (A) (A) (A) (A) (A) (A) (A) (A) (A)
                 (A) (A) (A) (A) (A) (A) (A) (A) (A) (A) (A) (A)
                 (A) (A) (A) (A) (A) (A) (A) (A) (A) (A) (A) (A)
                 (A) (A) (A) (A) (A) (A) (A) (A) (A) (A) (A) (A)
                 (A) (A) (A) (A) (A) (A) (A) (A) (A) (A) (A) (A)
                 (A) (A) (A) (A) (A) (A) (A) (A) (A) (A) (A) (A)
                 (A) (A) (A) (A) (A) (A) (A) (A) (A) (A) (A) (A)
                 (A) (A) (A) (A) (A) (A) (A) (A) (A) (A) (A) (A)
                 (A) (A) (A) (A) (A) (A) (A) (A) (A) (A) (A) (A)
                 (A) (A) (A) (A) (A) (A) (A) (A) (A) (A) (A) (A)
                 (A) (A) (A) (A) (A) (A) (A) (A) (A) (A) (A) (A)
                 (A) (A) (A) (A) (A) (A) (A) (A) (A) (A) (A) (A)
                 (A) (A) (A) (A) (A) (A) (A) (A) (A) (A) (A) (A)
                 (A) (A) (A) (A) (A) (A) (A) (A) (A) (A) (A) (A)
                 (A) (A) (A) (A) (A) (A) (A) (A) (A) (A) (A) (A)
                 (A) (A) (A) (A) (A) (A) (A) (A) (A) (A) (A) (A)
                 (A) (A) (A) (A) (A) (A) (A) (A) (A) (A) (A) (A)
                 (A) (A) (A) (A) (A) (A) (A) (A) (A) (A) (A) (A)
                 (A) (A) (A) (A) (A) (A) (A) (A) (A) (A) (A) (A)
                 (A) (A) (A) (A) (A) (A) (A) (A) (A) (A) (A) (A)
                 (A) (A) (A) (A) (A) (A) (A) (A) (A) (A) (A) (A)
                 (A) (A) (A) (A) (A) (A) (A) (A) (A) (A) (A) (A)
                 (A) (A) (A) (A) (A) (A) (A) (A) (A) (A) (A) (A)
                 (A) (A) (A) (A) (A) (A) (A) (A) (A) (A) (A) (A)
                 (A) (A) (A) (A) (A) (A) (A) (A) (A) (A) (A) (A)
                 (A) (A) (A) (A) (A) (A) (A) (A) (A) (A) (A) (A)
                 (A) (A) (A) (A) (A) (A) (A) (A) (A) (A) (A) (A)
                 (A) (A) (A) (A) (A) (A) (A) (A) (A) (A) (A) (A)
                 (A) (A) (A) (A) (A) (A) (A) (A) (A) (A) (A) (A)
                 (A) (A) (A) (A) (A) (A) (A) (A) (A) (A) (A) (A)
                 (A) (A) (A) (A) (A) (A) (A) (A) (A) (A) (A) (A)
                 (A) (A) (A) (A) (A) (A) (A) (A) (A) (A) (A) (A)
                 (A) (A) (A) (A) (A) (A) (A) (A) (A) (A) (A) (A)
                 (A) (A) (A) (A) (A) (A) (A) (A) (A) (A) (A) (A)
                 (A) (A) (A) (A) (A) (A) (A) (A) (A) (A) (A) (A)
                 (A) (A) (A) (A) (A) (A) (A) (A) (A) (A) (A) (A)
                 (A) (A) (A) (A) (A) (A) (A) (A) (A) (A) (A) (A)
                 (A) (A) (A) (A) (A) (A) (A) (A) (A) (A) (A) (A)
                 (A) (A) (A) (A) (A) (A) (A) (A) (A) (A) (A) (A)
                 (A) (A) (A) (A) (A) (A) (A) (A) (A) (A) (A) (A)
                 (A) (A) (A) (A) (A) (A) (A) (A) (A) (A) (A) (A)
                 (A) (A) (A) (A) (A) (A) (A) (A) (A) (A) (A) (A)
                 (A) (A) (A) (A) (A) (A) (A) (A) (A) (A) (A) (A)
                 (A) (A) (A) (A) (A) (A) (A) (A) (A) (A) (A) (A)
                 (A) (A) (A) (A) (A) (A) (A) (A) (A) (A) (A) (A)
                 (A) (A) (A) (A) (A) (A) (A) (A) (A) (A) (A) (A)
                 (A) (A) (A) (A) (A) (A) (A) (A) (A) (A) (A) (A)
                 (A) (A) (A) (A) (A) (A) (A) (A) (A) (A) (A) (A)
                 (A) (A) (A) (A) (A) (A) (A) (A) (A) (A) (A) (A)
                 (A) (A) (A) (A) (A) (A) (A) (A) (A) (A) (A) (A)
                 (A) (A) (A) (A) (A) (A) (A) (A) (A) (A) (A) (A)
                 (A) (A) (A) (A) (A) (A) (A) (A) (A) (A) (A) (A)
                 (A) (A) (A) (A) (A) (A) (A) (A) (A) (A) (A) (A)
                 (A) (A) (A) (A) (A) (A) (A) (A) (A) (A) (A) (A)
                 (A) (A) (A) (A) (A) (A) (A) (A) (A) (A) (A) (A)
                 (A) (A) (A) (A) (A) (A) (A) (A) (A) (A) (A) (A)
                 (A) (A) (A) (A) (A) (A) (A) (A) (A) (A) (A) (A)
                 (A) (A) (A) (A) (A) (A) (A) (A) (A) (A) (A) (A)
                 (A) (A) (A) (A) (A) (A) (A) (A) (A) (A) (A) (A)
                 (A) (A) (A) (A) (A) (A) (A) (A) (A) (A) (A) (A)
                 (A) (A) (A) (A) (A) (A) (A) (A) (A) (A) (A) (A)
                 (A) (A) (A) (A) (A) (A) (A) (A) (A) (A) (A) (A)
                 (A) (A) (A) (A) (A) (A) (A) (A) (A) (A) (A) (A)
                 (A) (A) (A) (A) (A) (A) (A) (A) (A) (A) (A) (A)
                 (A) (A) (A) (A) (A) (A) (A) (A) (A) (A) (A) (A)
                 (A) (A) (A) (A) (A) (A) (A) (A) (A) (A) (A) (A)
                 (A) (A) (A) (A) (A) (A) (A) (A) (A) (A) (A) (A)
                 (A) (A) (A) (A) (A) (A) (A) (A) (A) (A) (A) (A)
                 (A) (A) (A) (A) (A) (A) (A) (A) (A) (A) (A) (A)
                 (A) (A) (A) (A) (A) (A) (A) (A) (A)
 Beta  Orbitals:
       Occupied  (A) (A) (A) (A) (A) (A) (A) (A) (A) (A) (A) (A)
                 (A) (A) (A) (A) (A) (A) (A) (A) (A) (A) (A) (A)
                 (A) (A) (A) (A) (A) (A) (A) (A) (A) (A) (A) (A)
                 (A) (A) (A) (A) (A) (A) (A) (A) (A) (A) (A) (A)
                 (A) (A) (A) (A) (A) (A) (A) (A) (A) (A) (A) (A)
                 (A) (A) (A) (A) (A) (A) (A) (A) (A) (A) (A) (A)
                 (A) (A) (A) (A) (A) (A) (A) (A) (A) (A) (A) (A)
                 (A) (A) (A) (A) (A) (A) (A) (A) (A) (A) (A) (A)
                 (A) (A) (A) (A) (A) (A) (A) (A) (A) (A) (A) (A)
                 (A) (A) (A) (A) (A) (A) (A) (A) (A) (A) (A) (A)
                 (A) (A) (A) (A) (A) (A) (A) (A) (A) (A) (A) (A)
[...]
  Beta virt. eigenvalues --    4.96639   4.96890   4.97122   4.97552   4.97892
  Beta virt. eigenvalues --    4.98220   4.98349   4.98537   4.98797   4.99022
  Beta virt. eigenvalues --    4.99465   5.00031   5.00456   5.00864   5.00979
  Beta virt. eigenvalues --    5.01437   5.01488   5.02063   5.02325   5.02483
  Beta virt. eigenvalues --    5.03292   5.03417   5.03856   5.04417   5.04723
  Beta virt. eigenvalues --    5.04757   5.05435   5.05540   5.06198   5.06327
  Beta virt. eigenvalues --    5.06685   5.06775   5.06994   5.07502   5.07969
  Beta virt. eigenvalues --    5.08028   5.08457   5.08968   5.09187   5.09302
  Beta virt. eigenvalues --    5.09758   5.10183   5.10556   5.11153   5.11524
  Beta virt. eigenvalues --    5.11706   5.12321   5.12703   5.13370   5.13793
  Beta virt. eigenvalues --    5.14353   5.15047   5.15092   5.15341   5.15595
  Beta virt. eigenvalues --    5.16169   5.17027   5.17137   5.17264   5.17398
  Beta virt. eigenvalues --    5.17620   5.18127   5.18321   5.18651   5.18850
  Beta virt. eigenvalues --    5.19234   5.20320   5.20842   5.21457   5.22387
  Beta virt. eigenvalues --    5.22634   5.22717   5.23048   5.23522   5.24013
  Beta virt. eigenvalues --    5.24297   5.24549   5.24867   5.25186   5.25466
  Beta virt. eigenvalues --    5.25636   5.25644   5.26210   5.26745   5.27964
  Beta virt. eigenvalues --    5.28097   5.28479   5.28592   5.28684   5.28757
  Beta virt. eigenvalues --    5.28869   5.29084   5.29148   5.29409   5.30606
  Beta virt. eigenvalues --    5.30687   5.31102   5.31333   5.31694   5.32026
  Beta virt. eigenvalues --    5.32231   5.32466   5.32553   5.32957   5.33365
  Beta virt. eigenvalues --    5.33555   5.33798   5.34195   5.34444   5.34748
  Beta virt. eigenvalues --    5.35050   5.35320   5.36179   5.36317   5.36419
  Beta virt. eigenvalues --    5.36686   5.36893   5.37104   5.38397   5.38522
  Beta virt. eigenvalues --    5.38545   5.38901   5.39107   5.39276   5.39747
  Beta virt. eigenvalues --    5.39960   5.40424   5.40462   5.40954   5.41582
  Beta virt. eigenvalues --    5.41739   5.42210   5.42508   5.42820   5.43100
  Beta virt. eigenvalues --    5.43886   5.44064   5.44250   5.44474   5.44893
  Beta virt. eigenvalues --    5.45364   5.45549   5.45716   5.45932   5.46858
  Beta virt. eigenvalues --    5.48277   5.48677   5.49102   5.49897   5.50214
  Beta virt. eigenvalues --    5.50708   5.51027   5.51078   5.52226   5.52798
  Beta virt. eigenvalues --    5.54002   5.54487   5.55184   5.55468   5.55514
  Beta virt. eigenvalues --    5.55995   5.56314   5.56363   5.56646   5.57334
  Beta virt. eigenvalues --    5.57590   5.57692   5.57738   5.58258   5.58592
  Beta virt. eigenvalues --    5.58892   5.59548   5.59806   5.59929   5.60164
  Beta virt. eigenvalues --    5.60464   5.60795   5.61550   5.61671   5.61797
  Beta virt. eigenvalues --    5.62395   5.62796   5.63249   5.63449   5.63541
  Beta virt. eigenvalues --    5.63877   5.64094   5.64208   5.64663   5.65135
  Beta virt. eigenvalues --    5.65257   5.65475   5.66051   5.66174   5.66615
  Beta virt. eigenvalues --    5.67626   5.67986   5.68364   5.69181   5.69682
  Beta virt. eigenvalues --    5.69787   5.69872   5.70386   5.71168   5.71943
  Beta virt. eigenvalues --    5.73174   5.73653   5.74706   5.76547   5.76930
  Beta virt. eigenvalues --    5.78526   5.80188   5.81998   5.83952   5.84504
  Beta virt. eigenvalues --    5.84919   5.85640   5.87485   5.88350   5.88697
  Beta virt. eigenvalues --    5.90684   5.90764   5.91188   5.91395   5.91816
  Beta virt. eigenvalues --    5.92898   5.93399   5.94675   5.96613   6.00001
  Beta virt. eigenvalues --    6.00150   6.00641   6.01078   6.02134   6.02425
  Beta virt. eigenvalues --    6.02524   6.02897   6.03894   6.04091   6.04798
  Beta virt. eigenvalues --    6.05288   6.05423   6.05666   6.06592   6.09142
  Beta virt. eigenvalues --    6.09364   6.09592   6.11004   6.11067   6.11957
  Beta virt. eigenvalues --    6.14402   6.20030   6.20639   6.21895   6.21912
  Beta virt. eigenvalues --    6.23331   6.24771   6.25210   6.26231   6.27297
  Beta virt. eigenvalues --    6.27815   6.29460   6.30537   6.33204   6.33793
  Beta virt. eigenvalues --    6.34526   6.37341   6.38254   6.41249   6.42054
  Beta virt. eigenvalues --    6.44263   6.44930   6.48110   6.50179   6.53505
  Beta virt. eigenvalues --    6.59196   6.66458   6.72898   6.72956   6.73712
  Beta virt. eigenvalues --    6.75076   6.75761   6.75901   6.76351   6.76541
  Beta virt. eigenvalues --    6.76616   6.77213   6.78338   6.81232   6.82124
  Beta virt. eigenvalues --    6.84361   6.84696   6.84746   6.85096   6.85264
  Beta virt. eigenvalues --    6.86320   6.86641   6.91179   6.93849   6.94099
  Beta virt. eigenvalues --    6.95754   6.96102   6.96175   6.97276   7.00066
  Beta virt. eigenvalues --    7.00601   7.01110   7.01229   7.02850   7.03058
  Beta virt. eigenvalues --    7.05840   7.07054   7.07173   7.08485   7.09553
  Beta virt. eigenvalues --    7.12543   7.19000   7.23672   7.25413   7.25475
  Beta virt. eigenvalues --    7.26614   7.28739   7.28829   7.29381   7.29728
  Beta virt. eigenvalues --    7.30480   7.33432   7.33627   7.33951   7.34785
  Beta virt. eigenvalues --    7.35044   7.35511   7.35851   7.38580   7.38813
  Beta virt. eigenvalues --    7.39349   7.39907   7.47554   7.48621   8.48278
  Beta virt. eigenvalues --    8.53183   8.58327   8.64150   8.82942   8.88170
  Beta virt. eigenvalues --    8.92745   8.95420   8.96719   9.02469  15.85586
  Beta virt. eigenvalues --   22.86608  22.87630  22.89191  22.92254  22.96817
  Beta virt. eigenvalues --   23.09406  23.12423  23.13366  23.14902  23.18106
  Beta virt. eigenvalues --   23.19214  23.20170  23.28279  23.28853  23.30330
  Beta virt. eigenvalues --   23.30891  23.30999  23.31645  23.32626  23.33445
  Beta virt. eigenvalues --   23.34207  23.35285  23.36120  23.36724  23.36999
  Beta virt. eigenvalues --   23.37435  23.38596  23.40189  23.40874  23.43053
  Beta virt. eigenvalues --   23.43959  23.45244  23.46115  23.46744  23.51780
  Beta virt. eigenvalues --   23.52052  23.54705  23.55563  23.56257  23.61570
  Beta virt. eigenvalues --   23.62016  23.62626  23.69131  23.75349  23.85251
  Beta virt. eigenvalues --   23.92359  24.06732  24.09781  24.10409  31.89897
  Beta virt. eigenvalues --   32.56449  33.17237  33.24172  33.38634  44.24341
  Beta virt. eigenvalues --   44.30235  44.38575  44.41379  44.43073  44.46710
  Beta virt. eigenvalues --   44.46810  44.63969  44.65487  57.45975  57.60253
          Condensed to atoms (all electrons):
          Atomic-Atomic Spin Densities.
 Mulliken charges and spin densities:
               1          2
     1  B    0.380041   0.001960
     2  N   -0.146309   0.017629
     3  C   -0.070205   0.208176
     4  C   -0.106154  -0.085179
     5  C   -0.030045   0.180269
     6  C    0.096618  -0.099427
     7  C   -0.022144   0.375627
     8  C    0.067673  -0.008236
     9  O   -0.390626   0.089123
    10  C   -0.339426   0.015614
    11  C    0.035026  -0.006257
    12  C   -0.192586  -0.004132
    13  C   -0.150952   0.001981
    14  C    0.167456  -0.001635
    15  C   -0.166690  -0.000182
    16  C   -0.134777  -0.000772
    17  N   -0.384448   0.000163
    18  N    0.425739  -0.000014
    19  N   -0.188225  -0.000359
    20  C    0.118422  -0.101164
    21  N   -0.159808   0.017413
    22  C   -0.065444   0.146970
    23  C   -0.116094  -0.062569
    24  C   -0.087027   0.156715
    25  C   -0.439577  -0.009729
    26  C   -0.093729  -0.078403
    27  C   -0.131808   0.110888
    28  C    0.024271  -0.026731
    29  C   -0.167299   0.028224
    30  C   -0.198310  -0.014912
    31  C    0.210478   0.028657
    32  O   -0.289746   0.003861
    33  C   -0.098624  -0.000276
    34  C   -0.143571  -0.000091
    35  O   -0.325902   0.000003
    36  C   -0.043179   0.000085
    37  C   -0.125697  -0.000012
    38  O   -0.337190   0.000000
    39  C   -0.089776   0.000000
    40  C   -0.107300  -0.000001
    41  O   -0.338081  -0.000000
    42  C   -0.199724   0.000000
    43  C   -0.171535  -0.016824
    44  C   -0.170043   0.030779
    45  C   -0.393907  -0.010424
    46  C   -0.079395  -0.115094
    47  C   -0.130485   0.160128
    48  C    0.025417  -0.036245
    49  C   -0.210045   0.047541
    50  C   -0.164245  -0.022363
    51  C    0.218904   0.041581
    52  O   -0.303310   0.005579
    53  C   -0.080420  -0.000430
    54  C   -0.136454  -0.000228
    55  O   -0.338782   0.000013
    56  C   -0.044051   0.000057
    57  C   -0.111095   0.000019
    58  O   -0.352517   0.000001
    59  C   -0.066746  -0.000002
    60  C   -0.037649   0.000000
    61  O   -0.353440   0.000000
    62  C   -0.203662  -0.000000
    63  C   -0.196037  -0.023686
    64  C   -0.132876   0.037381
    65  F   -0.361998   0.000644
    66  F   -0.363426   0.000715
    67  H    0.145207   0.000313
    68  H    0.164505  -0.006384
    69  H    0.177195   0.003517
    70  H    0.146187   0.000185
    71  H    0.146184  -0.000029
    72  H    0.160431  -0.000080
    73  H    0.150579  -0.000353
    74  H    0.149044   0.000359
    75  H    0.138917   0.006663
    76  H    0.131814   0.003259
    77  H    0.155101   0.001297
    78  H    0.085604   0.004229
    79  H    0.118836  -0.006853
    80  H    0.150804  -0.000951
    81  H    0.153468   0.000179
    82  H    0.163728   0.000298
    83  H    0.148977   0.000357
    84  H    0.133290  -0.000009
    85  H    0.126827  -0.000024
    86  H    0.124968  -0.000011
    87  H    0.124389  -0.000052
    88  H    0.131779   0.000000
    89  H    0.132671   0.000001
    90  H    0.120004   0.000000
    91  H    0.125593  -0.000000
    92  H    0.134624   0.000000
    93  H    0.142805   0.000000
    94  H    0.138581  -0.000000
    95  H    0.114005  -0.000000
    96  H    0.125247  -0.000000
    97  H    0.149966   0.000203
    98  H    0.133508  -0.000962
    99  H    0.105676   0.009559
   100  H    0.151798   0.007268
   101  H    0.115023   0.000145
   102  H    0.084956   0.005725
   103  H    0.120157  -0.008977
   104  H    0.148235  -0.001724
   105  H    0.148635   0.000168
   106  H    0.144231   0.000475
   107  H    0.148302   0.000475
   108  H    0.133470  -0.000031
   109  H    0.135384  -0.000007
   110  H    0.117254   0.000001
   111  H    0.128603  -0.000006
   112  H    0.126202  -0.000000
   113  H    0.130850   0.000000
   114  H    0.130735  -0.000000
   115  H    0.113379   0.000001
   116  H    0.107861   0.000000
   117  H    0.112124   0.000000
   118  H    0.120849   0.000000
   119  H    0.136462   0.000000
   120  H    0.119082  -0.000000
   121  H    0.154083   0.000373
   122  H    0.134351  -0.001019
 Sum of Mulliken charges =  -1.00000   1.00000
 Mulliken charges and spin densities with hydrogens summed into heavy atoms:
               1          2
     1  B    0.380041   0.001960
     2  N   -0.146309   0.017629
     3  C   -0.070205   0.208176
     4  C    0.039053  -0.084866
     5  C   -0.030045   0.180269
     6  C    0.096618  -0.099427
     7  C   -0.022144   0.375627
     8  C    0.067673  -0.008236
     9  O   -0.390626   0.089123
    10  C    0.002273   0.012747
    11  C    0.035026  -0.006257
    12  C   -0.046398  -0.003947
    13  C   -0.004768   0.001952
    14  C    0.167456  -0.001635
    15  C   -0.006259  -0.000262
    16  C    0.015802  -0.001126
    17  N   -0.384448   0.000163
    18  N    0.425739  -0.000014
    19  N   -0.188225  -0.000359
    20  C    0.118422  -0.101164
    21  N   -0.159808   0.017413
    22  C   -0.065444   0.146970
    23  C    0.032950  -0.062211
    24  C   -0.087027   0.156715
    25  C   -0.013745   0.001490
    26  C   -0.008125  -0.074174
    27  C   -0.012972   0.104035
    28  C    0.024271  -0.026731
    29  C   -0.016495   0.027273
    30  C   -0.044842  -0.014733
    31  C    0.210478   0.028657
    32  O   -0.289746   0.003861
    33  C    0.214082   0.000379
    34  C    0.116546  -0.000124
    35  O   -0.325902   0.000003
    36  C    0.206179   0.000022
    37  C    0.138753  -0.000010
    38  O   -0.337190   0.000000
    39  C    0.155822   0.000000
    40  C    0.170129  -0.000000
    41  O   -0.338081  -0.000000
    42  C    0.178109   0.000000
    43  C   -0.021569  -0.016620
    44  C   -0.036534   0.029817
    45  C   -0.021409   0.006548
    46  C    0.005561  -0.109368
    47  C   -0.010328   0.151151
    48  C    0.025417  -0.036245
    49  C   -0.061810   0.045816
    50  C   -0.015610  -0.022194
    51  C    0.218904   0.041581
    52  O   -0.303310   0.005579
    53  C    0.212112   0.000520
    54  C    0.132400  -0.000265
    55  O   -0.338782   0.000013
    56  C    0.201806   0.000052
    57  C    0.145958   0.000019
    58  O   -0.352517   0.000001
    59  C    0.177368  -0.000001
    60  C    0.182336   0.000000
    61  O   -0.353440   0.000000
    62  C    0.172731  -0.000000
    63  C   -0.041954  -0.023313
    64  C    0.001475   0.036361
    65  F   -0.361998   0.000644
    66  F   -0.363426   0.000715
 Electronic spatial extent (au):  <R**2>=         114871.8464
 Charge=             -1.0000 electrons
 Dipole moment (field-independent basis, Debye):
    X=            -22.4763    Y=              5.1457    Z=              4.9226  Tot=             23.5774
 Quadrupole moment (field-independent basis, Debye-Ang):
   XX=           -479.5711   YY=           -449.1498   ZZ=           -410.6717
   XY=            -26.5799   XZ=             20.4417   YZ=             -3.1678
 Traceless Quadrupole moment (field-independent basis, Debye-Ang):
   XX=            -33.1069   YY=             -2.6856   ZZ=             35.7925
   XY=            -26.5799   XZ=             20.4417   YZ=             -3.1678
 Octapole moment (field-independent basis, Debye-Ang**2):
  XXX=          -1936.8415  YYY=            300.1744  ZZZ=             78.5473  XYY=            499.5446
  XXY=            -94.0711  XXZ=             69.5398  XZZ=           -362.3085  YZZ=            -26.2575
  YYZ=           -166.2042  XYZ=            -77.2344
 Hexadecapole moment (field-independent basis, Debye-Ang**3):
 XXXX=        -117083.9013 YYYY=         -34450.5328 ZZZZ=          -5305.1664 XXXY=          -2642.3701
 XXXZ=          -1225.3761 YYYX=          -1398.0276 YYYZ=           -483.6008 ZZZX=           -121.5200
 ZZZY=              7.2485 XXYY=         -29865.8459 XXZZ=         -21059.8116 YYZZ=          -6297.3099
 XXYZ=            389.6605 YYXZ=            515.8802 ZZXY=            103.7369
 N-N= 8.876080000565D+03 E-N=-2.497204356835D+04  KE= 3.059781892305D+03
 Leave Link  601 at Thu Nov  6 02:27:37 2025, MaxMem= 30870077440 cpu:             238.6 elap:               4.4
 (Enter /public/software/gauss/g16/l9999.exe)
 1\1\GINC-CU161\SP\UM062X\def2TZVPP\C49H56B1F2N5O9(1-,2)\BAIDING\06-Nov
 -2025\0\\#p M062X/DEF2TZVPP scrf=(solvent=water) em=GD3\\Energy calcul
 ation for BE_N3_reduced\\-1,2\B,0,-3.519093,-0.617768,0.887342\N,0,-4.
 525608,0.500579,1.235994\C,0,-4.242982,1.861209,1.270145\C,0,-5.469679
 ,2.54775,1.312812\C,0,-6.519762,1.635783,1.304399\C,0,-5.91429,0.33637
 7,1.26766\C,0,-6.477241,-0.96859,1.173451\C,0,-7.942647,-1.153547,1.21
 1141\O,0,-8.658636,-0.638363,2.080948\C,0,-8.616481,-1.919732,0.060655
 \C,0,-9.275186,-0.931404,-0.882947\C,0,-10.556774,-0.429365,-0.613316\
 C,0,-11.158883,0.504343,-1.453281\C,0,-10.472561,0.955974,-2.58747\C,0
 ,-9.19328,0.467813,-2.872163\C,0,-8.604756,-0.465627,-2.022422\N,0,-11
 .00061,1.905472,-3.508942\N,0,-12.125889,2.370186,-3.29845\N,0,-13.146
 267,2.876562,-3.226536\C,0,-5.626115,-2.10973,1.040098\N,0,-4.266674,-
 1.961469,0.767164\C,0,-3.685456,-3.224652,0.755142\C,0,-4.688261,-4.15
 9931,1.053175\C,0,-5.900124,-3.492796,1.24579\C,0,-7.171306,-4.162169,
 1.684247\C,0,-2.326208,-3.609344,0.472685\C,0,-1.285098,-2.887623,-0.0
 20053\C,0,0.061436,-3.393065,-0.276701\C,0,0.490935,-4.706377,0.027162
 \C,0,1.782682,-5.126551,-0.248206\C,0,2.707018,-4.248595,-0.839195\O,0
 ,3.956852,-4.763976,-1.071612\C,0,4.949721,-3.905383,-1.649796\C,0,6.2
 25949,-4.712723,-1.806067\O,0,6.759223,-5.20622,-0.581514\C,0,7.366536
 ,-4.208923,0.242412\C,0,8.13891,-4.911147,1.344303\O,0,9.227533,-5.685
 79,0.831316\C,0,10.529326,-5.155241,1.081928\C,0,10.852694,-3.878316,0
 .32564\O,0,10.733039,-4.116793,-1.072452\C,0,11.040185,-2.959866,-1.83
 9688\C,0,2.314133,-2.94148,-1.146736\C,0,1.010031,-2.534078,-0.86373\C
 ,0,-7.9625,2.049675,1.291641\C,0,-2.984048,2.555508,1.263915\C,0,-1.70
 3185,2.104775,1.365917\C,0,-0.501697,2.933941,1.328775\C,0,-0.498248,4
 .326067,1.106753\C,0,0.681884,5.066408,1.078543\C,0,1.912911,4.423538,
 1.270947\O,0,3.131016,5.054677,1.258026\C,0,3.166311,6.466774,1.000385
 \C,0,4.609782,6.936055,0.986478\O,0,5.330195,6.594749,-0.194021\C,0,5.
 86577,5.269998,-0.222769\C,0,6.860309,5.180447,-1.365512\O,0,7.979747,
 6.0581,-1.1993\C,0,9.041454,5.523778,-0.408064\C,0,10.037842,4.768439,
 -1.28185\O,0,11.074037,4.282325,-0.437442\C,0,12.065978,3.56706,-1.162
 19\C,0,1.93965,3.039104,1.493512\C,0,0.755564,2.316314,1.52003\F,0,-2.
 868497,-0.286088,-0.325133\F,0,-2.540281,-0.735893,1.902239\H,0,-5.566
 848,3.625828,1.35085\H,0,-7.887388,-2.518349,-0.485821\H,0,-9.374954,-
 2.58247,0.487025\H,0,-11.093377,-0.774741,0.265122\H,0,-12.154896,0.87
 2831,-1.22737\H,0,-8.671773,0.821159,-3.755542\H,0,-7.611203,-0.84019,
 -2.251083\H,0,-4.528979,-5.228899,1.124983\H,0,-7.816555,-4.452145,0.8
 46878\H,0,-6.932206,-5.078283,2.233443\H,0,-7.767137,-3.528293,2.34811
 \H,0,-2.167343,-4.66891,0.667542\H,0,-1.439706,-1.845904,-0.276407\H,0
 ,-0.193597,-5.409547,0.491081\H,0,2.101366,-6.136624,-0.009484\H,0,4.6
 27053,-3.557581,-2.639344\H,0,5.103222,-3.027893,-1.011152\H,0,6.02321
 6,-5.594732,-2.421436\H,0,6.964767,-4.089316,-2.330303\H,0,8.035094,-3
 .581321,-0.362148\H,0,6.608852,-3.558194,0.702416\H,0,8.489033,-4.1685
 35,2.071041\H,0,7.465415,-5.601049,1.867411\H,0,10.671846,-4.96727,2.1
 55905\H,0,11.225813,-5.943315,0.778609\H,0,10.185478,-3.057864,0.62950
 8\H,0,11.880677,-3.576346,0.582019\H,0,10.915674,-3.224038,-2.892712\H
 ,0,10.366954,-2.124985,-1.598631\H,0,12.075857,-2.630114,-1.673854\H,0
 ,3.005001,-2.241578,-1.600852\H,0,0.716704,-1.516368,-1.107914\H,0,-8.
 518287,1.598027,0.463933\H,0,-8.488747,1.77583,2.210468\H,0,-8.02193,3
 .136278,1.177391\H,0,-3.135891,3.630768,1.183573\H,0,-1.523928,1.04617
 9,1.506883\H,0,-1.433361,4.852866,0.944138\H,0,0.632452,6.134162,0.902
 64\H,0,2.691875,6.687593,0.0367\H,0,2.622813,7.002171,1.789492\H,0,4.5
 97126,8.030215,1.026765\H,0,5.131717,6.567391,1.880775\H,0,6.351861,5.
 040365,0.736436\H,0,5.077238,4.52352,-0.384273\H,0,7.184192,4.138132,-
 1.477199\H,0,6.372201,5.483372,-2.29772\H,0,9.541798,6.370418,0.073118
 \H,0,8.661781,4.865406,0.383077\H,0,9.540796,3.934243,-1.800669\H,0,10
 .445648,5.44342,-2.049682\H,0,12.551928,4.203846,-1.915161\H,0,12.8166
 87,3.230251,-0.443075\H,0,11.639131,2.690827,-1.670745\H,0,2.89669,2.5
 48359,1.641347\H,0,0.794431,1.243819,1.691549\\Version=ES64L-G16RevA.0
 3\State=2-A\HF=-3076.3828853\S2=0.787395\S2-1=0.\S2A=0.751128\RMSD=1.6
 86e-09\Dipole=8.8428663,2.0244727,-1.9367017\Quadrupole=-24.6141586,-1
 .9966855,26.6108441,19.7615256,15.1978706,2.3551551\PG=C01 [X(C49H56B1
 F2N5O9)]\\@


      HUMANKIND PERIODICALLY GOES THROUGH A SPEEDUP OF ITS AFFAIRS, 
      THEREBY EXPERIENCING THE RACE BETWEEN THE RENEWABLE VITALITY
      OF THE LIVING, AND THE BECKONING VITIATION OF DECADENCE.
      IN THIS PERIODIC RACE, ANY PAUSE BECOMES A LUXURY.
      ONLY THEN CAN ONE REFLECT THAT ALL IS PERMITTED;
      ALL IS POSSIBLE.

                              -- THE APOCRYPHA OF MUAD'DIB
                                 CHILDREN OF DUNE, BY FRANK HERBERT
 Job cpu time:       2 days 23 hours  2 minutes 29.7 seconds.
 Elapsed time:       0 days  1 hours  7 minutes 26.3 seconds.
 File lengths (MBytes):  RWF=   8587 Int=      0 D2E=      0 Chk=    555 Scr=      1
 Normal termination of Gaussian 16 at Thu Nov  6 02:27:40 2025.
