 Entering Gaussian System, Link 0=g16
 Input=BE_OMe_sp.gjf
 Output=BE_OMe_sp.log
 Initial command:
 /public/software/gauss/g16/l1.exe "/public/home/baiding/1105_BE_sp/tmp_BE_OMe_sp_1568733/Gau-1944453.inp" -scrdir="/public/home/baiding/1105_BE_sp/tmp_BE_OMe_sp_1568733/"
 Entering Link 1 = /public/software/gauss/g16/l1.exe PID=   1944454.
  
 Copyright (c) 1988,1990,1992,1993,1995,1998,2003,2009,2016,
            Gaussian, Inc.  All Rights Reserved.
  
 This is part of the Gaussian(R) 16 program.  It is based on
 the Gaussian(R) 09 system (copyright 2009, Gaussian, Inc.),
 the Gaussian(R) 03 system (copyright 2003, Gaussian, Inc.),
 the Gaussian(R) 98 system (copyright 1998, Gaussian, Inc.),
 the Gaussian(R) 94 system (copyright 1995, Gaussian, Inc.),
 the Gaussian 92(TM) system (copyright 1992, Gaussian, Inc.),
 the Gaussian 90(TM) system (copyright 1990, Gaussian, Inc.),
 the Gaussian 88(TM) system (copyright 1988, Gaussian, Inc.),
 the Gaussian 86(TM) system (copyright 1986, Carnegie Mellon
 University), and the Gaussian 82(TM) system (copyright 1983,
 Carnegie Mellon University). Gaussian is a federally registered
 trademark of Gaussian, Inc.
  
 This software contains proprietary and confidential information,
 including trade secrets, belonging to Gaussian, Inc.
  
 This software is provided under written license and may be
 used, copied, transmitted, or stored only in accord with that
 written license.
  
 The following legend is applicable only to US Government
 contracts under FAR:
  
                    RESTRICTED RIGHTS LEGEND
  
 Use, reproduction and disclosure by the US Government is
 subject to restrictions as set forth in subparagraphs (a)
 and (c) of the Commercial Computer Software - Restricted
 Rights clause in FAR 52.227-19.
  
 Gaussian, Inc.
 340 Quinnipiac St., Bldg. 40, Wallingford CT 06492
  
  
 ---------------------------------------------------------------
 Warning -- This program may not be used in any manner that
 competes with the business of Gaussian, Inc. or will provide
 assistance to any competitor of Gaussian, Inc.  The licensee
 of this program is prohibited from giving any competitor of
 Gaussian, Inc. access to this program.  By using this program,
 the user acknowledges that Gaussian, Inc. is engaged in the
 business of creating and licensing software in the field of
 computational chemistry and represents and warrants to the
 licensee that it is not a competitor of Gaussian, Inc. and that
 it will not use this program in any manner prohibited above.
 ---------------------------------------------------------------
  

 Cite this work as:
 Gaussian 16, Revision A.03,
 M. J. Frisch, G. W. Trucks, H. B. Schlegel, G. E. Scuseria, 
 M. A. Robb, J. R. Cheeseman, G. Scalmani, V. Barone, 
 G. A. Petersson, H. Nakatsuji, X. Li, M. Caricato, A. V. Marenich, 
 J. Bloino, B. G. Janesko, R. Gomperts, B. Mennucci, H. P. Hratchian, 
 J. V. Ortiz, A. F. Izmaylov, J. L. Sonnenberg, D. Williams-Young, 
 F. Ding, F. Lipparini, F. Egidi, J. Goings, B. Peng, A. Petrone, 
 T. Henderson, D. Ranasinghe, V. G. Zakrzewski, J. Gao, N. Rega, 
 G. Zheng, W. Liang, M. Hada, M. Ehara, K. Toyota, R. Fukuda, 
 J. Hasegawa, M. Ishida, T. Nakajima, Y. Honda, O. Kitao, H. Nakai, 
 T. Vreven, K. Throssell, J. A. Montgomery, Jr., J. E. Peralta, 
 F. Ogliaro, M. J. Bearpark, J. J. Heyd, E. N. Brothers, K. N. Kudin, 
 V. N. Staroverov, T. A. Keith, R. Kobayashi, J. Normand, 
 K. Raghavachari, A. P. Rendell, J. C. Burant, S. S. Iyengar, 
 J. Tomasi, M. Cossi, J. M. Millam, M. Klene, C. Adamo, R. Cammi, 
 J. W. Ochterski, R. L. Martin, K. Morokuma, O. Farkas, 
 J. B. Foresman, and D. J. Fox, Gaussian, Inc., Wallingford CT, 2016.
 
 ******************************************
 Gaussian 16:  ES64L-G16RevA.03 25-Dec-2016
                 6-Nov-2025 
 ******************************************
 %nprocshared=64
 Will use up to   64 processors via shared memory.
 %mem=230GB
 %chk=BE_OMe_sp.chk
 ----------------------------------------------
 #p M062X/DEF2TZVPP scrf=(solvent=water) em=GD3
 ----------------------------------------------
 1/38=1,172=1/1;
 2/12=2,17=6,18=5,40=1/2;
 3/5=44,7=202,11=2,25=1,30=1,70=2201,72=1,74=-55,124=31/1,2,3;
 4//1;
 5/5=2,38=5,53=1/2;
 6/7=2,8=2,9=2,10=2,28=1/1;
 99/5=1,9=1/99;
 Leave Link    1 at Thu Nov  6 02:57:06 2025, MaxMem= 30870077440 cpu:              17.8 elap:               0.3
 (Enter /public/software/gauss/g16/l101.exe)
 -----------------------------
 Energy calculation for BE_OMe
 -----------------------------
 Symbolic Z-matrix:
 Charge =  0 Multiplicity = 1
 B                    -1.11091   0.09001  -0.17249 
 N                    -0.09806   1.24463  -0.3803 
 C                    -0.37239   2.57725  -0.54588 
 C                     0.84278   3.25079  -0.81544 
 C                     1.88501   2.3411   -0.7817 
 C                     1.28623   1.06486  -0.51536 
 C                     1.84905  -0.22379  -0.45656 
 C                     3.35444  -0.39157  -0.55953 
 O                     3.87182  -0.6518   -1.63208 
 C                     4.12819  -0.23961   0.74479 
 C                     5.62493  -0.35679   0.58732 
 C                     6.54488   0.69811   0.74142 
 N                     6.12956   2.0367    1.17673 
 O                     6.69774   3.00411   0.66875 
 O                     5.24854   2.13301   2.03409 
 C                     7.90838   0.55672   0.50144 
 C                     8.37453  -0.69384   0.12599 
 C                     7.51702  -1.78103  -0.0299 
 C                     6.15919  -1.59358   0.19072 
 N                     9.80785  -0.86766  -0.10851 
 O                     10.20879  -1.98238  -0.45056 
 O                     10.54729   0.10732   0.04484 
 C                     1.05171  -1.37012  -0.35494 
 N                    -0.33608  -1.24647  -0.29371 
 C                    -0.88464  -2.49343  -0.22185 
 C                     0.16973  -3.4459   -0.23956 
 C                     1.37376  -2.77442  -0.3232 
 C                     2.7139   -3.43946  -0.3913 
 C                    -2.30361  -2.71946  -0.16594 
 C                    -2.85611  -3.94386   0.03929 
 C                    -4.27335  -4.26434   0.09791 
 C                    -5.30008  -3.313    -0.07023 
 C                    -6.64252  -3.6694   -0.00668 
 C                    -6.9966   -5.00745   0.23026 
 O                    -8.28143  -5.46198   0.30947 
 C                    -9.34668  -4.5198    0.13527 
 C                    -5.99209  -5.97336   0.40184 
 C                    -4.65856  -5.60305   0.33576 
 C                     3.3257    2.70448  -0.97768 
 C                    -1.63334   3.27185  -0.46682 
 C                    -2.81206   2.85868   0.0662 
 C                    -4.04855   3.6282    0.11355 
 C                    -5.15553   3.08478   0.80334 
 C                    -6.36193   3.76145   0.89076 
 C                    -6.50581   5.01789   0.28189 
 O                    -7.7296    5.61071   0.41708 
 C                    -7.93105   6.89357  -0.18686 
 C                    -5.42458   5.58055  -0.41449 
 C                    -4.22017   4.88877  -0.49298 
 F                    -1.7005    0.16688   1.10385 
 F                    -2.11776   0.14472  -1.14585 
 H                     0.92589   4.31403  -0.99789 
 H                     3.81749   0.69398   1.21344 
 H                     3.76397  -1.03472   1.40898 
 H                     8.58207   1.39365   0.62261 
 H                     7.90531  -2.74844  -0.32092 
 H                     5.48645  -2.43189   0.05692 
 H                     0.04499  -4.51948  -0.22014 
 H                     3.35539  -3.15192   0.44835 
 H                     2.587    -4.52401  -0.35349 
 H                     3.24741  -3.19235  -1.31349 
 H                    -2.9373   -1.85201  -0.30828 
 H                    -2.19322  -4.79498   0.18338 
 H                    -5.05206  -2.27282  -0.25546 
 H                    -7.40226  -2.90945  -0.14165 
 H                    -9.31453  -3.73862   0.90192 
 H                    -9.31209  -4.06189  -0.85876 
 H                    -10.26813  -5.09347   0.23933 
 H                    -6.27985  -7.00373   0.58404 
 H                    -3.88874  -6.35815   0.46906 
 H                     3.82836   2.83974  -0.01416 
 H                     3.88471   1.961    -1.54888 
 H                     3.39279   3.65592  -1.51177 
 H                    -1.5639    4.28364  -0.85913 
 H                    -2.86518   1.88414   0.53728 
 H                    -5.05576   2.11247   1.27785 
 H                    -7.20625   3.33596   1.4236 
 H                    -7.25119   7.64169   0.23418 
 H                    -7.79837   6.84621  -1.27282 
 H                    -8.96101   7.16958   0.04149 
 H                    -5.51621   6.54609  -0.89663 
 H                    -3.40363   5.34238  -1.04575 
 
 ITRead=  0  0  0  0  0  0  0  0  0  0  0  0  0  0  0  0  0  0  0  0
 ITRead=  0  0  0  0  0  0  0  0  0  0  0  0  0  0  0  0  0  0  0  0
 ITRead=  0  0  0  0  0  0  0  0  0  0  0  0  0  0  0  0  0  0  0  0
 ITRead=  0  0  0  0  0  0  0  0  0  0  0  0  0  0  0  0  0  0  0  0
 ITRead=  0  0
 MicOpt= -1 -1 -1 -1 -1 -1 -1 -1 -1 -1 -1 -1 -1 -1 -1 -1 -1 -1 -1 -1
 MicOpt= -1 -1 -1 -1 -1 -1 -1 -1 -1 -1 -1 -1 -1 -1 -1 -1 -1 -1 -1 -1
 MicOpt= -1 -1 -1 -1 -1 -1 -1 -1 -1 -1 -1 -1 -1 -1 -1 -1 -1 -1 -1 -1
 MicOpt= -1 -1 -1 -1 -1 -1 -1 -1 -1 -1 -1 -1 -1 -1 -1 -1 -1 -1 -1 -1
 MicOpt= -1 -1
 NAtoms=     82 NQM=       82 NQMF=       0 NMMI=      0 NMMIF=      0
                NMic=       0 NMicF=      0.
                    Isotopes and Nuclear Properties:
 (Nuclear quadrupole moments (NQMom) in fm**2, nuclear magnetic moments (NMagM)
  in nuclear magnetons)

  Atom         1           2           3           4           5           6           7           8           9          10
 IAtWgt=          11          14          12          12          12          12          12          12          16          12
 AtmWgt=  11.0093053  14.0030740  12.0000000  12.0000000  12.0000000  12.0000000  12.0000000  12.0000000  15.9949146  12.0000000
 NucSpn=           3           2           0           0           0           0           0           0           0           0
 AtZEff=  -0.0000000  -0.0000000  -0.0000000  -0.0000000  -0.0000000  -0.0000000  -0.0000000  -0.0000000  -0.0000000  -0.0000000
 NQMom=    4.0590000   2.0440000   0.0000000   0.0000000   0.0000000   0.0000000   0.0000000   0.0000000   0.0000000   0.0000000
 NMagM=    2.6886370   0.4037610   0.0000000   0.0000000   0.0000000   0.0000000   0.0000000   0.0000000   0.0000000   0.0000000
 AtZNuc=   5.0000000   7.0000000   6.0000000   6.0000000   6.0000000   6.0000000   6.0000000   6.0000000   8.0000000   6.0000000

  Atom        11          12          13          14          15          16          17          18          19          20
 IAtWgt=          12          12          14          16          16          12          12          12          12          14
 AtmWgt=  12.0000000  12.0000000  14.0030740  15.9949146  15.9949146  12.0000000  12.0000000  12.0000000  12.0000000  14.0030740
 NucSpn=           0           0           2           0           0           0           0           0           0           2
 AtZEff=  -0.0000000  -0.0000000  -0.0000000  -0.0000000  -0.0000000  -0.0000000  -0.0000000  -0.0000000  -0.0000000  -0.0000000
 NQMom=    0.0000000   0.0000000   2.0440000   0.0000000   0.0000000   0.0000000   0.0000000   0.0000000   0.0000000   2.0440000
 NMagM=    0.0000000   0.0000000   0.4037610   0.0000000   0.0000000   0.0000000   0.0000000   0.0000000   0.0000000   0.4037610
 AtZNuc=   6.0000000   6.0000000   7.0000000   8.0000000   8.0000000   6.0000000   6.0000000   6.0000000   6.0000000   7.0000000

  Atom        21          22          23          24          25          26          27          28          29          30
 IAtWgt=          16          16          12          14          12          12          12          12          12          12
 AtmWgt=  15.9949146  15.9949146  12.0000000  14.0030740  12.0000000  12.0000000  12.0000000  12.0000000  12.0000000  12.0000000
 NucSpn=           0           0           0           2           0           0           0           0           0           0
 AtZEff=  -0.0000000  -0.0000000  -0.0000000  -0.0000000  -0.0000000  -0.0000000  -0.0000000  -0.0000000  -0.0000000  -0.0000000
 NQMom=    0.0000000   0.0000000   0.0000000   2.0440000   0.0000000   0.0000000   0.0000000   0.0000000   0.0000000   0.0000000
 NMagM=    0.0000000   0.0000000   0.0000000   0.4037610   0.0000000   0.0000000   0.0000000   0.0000000   0.0000000   0.0000000
 AtZNuc=   8.0000000   8.0000000   6.0000000   7.0000000   6.0000000   6.0000000   6.0000000   6.0000000   6.0000000   6.0000000

  Atom        31          32          33          34          35          36          37          38          39          40
 IAtWgt=          12          12          12          12          16          12          12          12          12          12
 AtmWgt=  12.0000000  12.0000000  12.0000000  12.0000000  15.9949146  12.0000000  12.0000000  12.0000000  12.0000000  12.0000000
 NucSpn=           0           0           0           0           0           0           0           0           0           0
 AtZEff=  -0.0000000  -0.0000000  -0.0000000  -0.0000000  -0.0000000  -0.0000000  -0.0000000  -0.0000000  -0.0000000  -0.0000000
 NQMom=    0.0000000   0.0000000   0.0000000   0.0000000   0.0000000   0.0000000   0.0000000   0.0000000   0.0000000   0.0000000
 NMagM=    0.0000000   0.0000000   0.0000000   0.0000000   0.0000000   0.0000000   0.0000000   0.0000000   0.0000000   0.0000000
 AtZNuc=   6.0000000   6.0000000   6.0000000   6.0000000   8.0000000   6.0000000   6.0000000   6.0000000   6.0000000   6.0000000

  Atom        41          42          43          44          45          46          47          48          49          50
 IAtWgt=          12          12          12          12          12          16          12          12          12          19
 AtmWgt=  12.0000000  12.0000000  12.0000000  12.0000000  12.0000000  15.9949146  12.0000000  12.0000000  12.0000000  18.9984033
 NucSpn=           0           0           0           0           0           0           0           0           0           1
 AtZEff=  -0.0000000  -0.0000000  -0.0000000  -0.0000000  -0.0000000  -0.0000000  -0.0000000  -0.0000000  -0.0000000  -0.0000000
 NQMom=    0.0000000   0.0000000   0.0000000   0.0000000   0.0000000   0.0000000   0.0000000   0.0000000   0.0000000   0.0000000
 NMagM=    0.0000000   0.0000000   0.0000000   0.0000000   0.0000000   0.0000000   0.0000000   0.0000000   0.0000000   2.6288670
 AtZNuc=   6.0000000   6.0000000   6.0000000   6.0000000   6.0000000   8.0000000   6.0000000   6.0000000   6.0000000   9.0000000

  Atom        51          52          53          54          55          56          57          58          59          60
 IAtWgt=          19           1           1           1           1           1           1           1           1           1
 AtmWgt=  18.9984033   1.0078250   1.0078250   1.0078250   1.0078250   1.0078250   1.0078250   1.0078250   1.0078250   1.0078250
 NucSpn=           1           1           1           1           1           1           1           1           1           1
 AtZEff=  -0.0000000  -0.0000000  -0.0000000  -0.0000000  -0.0000000  -0.0000000  -0.0000000  -0.0000000  -0.0000000  -0.0000000
 NQMom=    0.0000000   0.0000000   0.0000000   0.0000000   0.0000000   0.0000000   0.0000000   0.0000000   0.0000000   0.0000000
 NMagM=    2.6288670   2.7928460   2.7928460   2.7928460   2.7928460   2.7928460   2.7928460   2.7928460   2.7928460   2.7928460
 AtZNuc=   9.0000000   1.0000000   1.0000000   1.0000000   1.0000000   1.0000000   1.0000000   1.0000000   1.0000000   1.0000000

  Atom        61          62          63          64          65          66          67          68          69          70
 IAtWgt=           1           1           1           1           1           1           1           1           1           1
 AtmWgt=   1.0078250   1.0078250   1.0078250   1.0078250   1.0078250   1.0078250   1.0078250   1.0078250   1.0078250   1.0078250
 NucSpn=           1           1           1           1           1           1           1           1           1           1
 AtZEff=  -0.0000000  -0.0000000  -0.0000000  -0.0000000  -0.0000000  -0.0000000  -0.0000000  -0.0000000  -0.0000000  -0.0000000
 NQMom=    0.0000000   0.0000000   0.0000000   0.0000000   0.0000000   0.0000000   0.0000000   0.0000000   0.0000000   0.0000000
 NMagM=    2.7928460   2.7928460   2.7928460   2.7928460   2.7928460   2.7928460   2.7928460   2.7928460   2.7928460   2.7928460
 AtZNuc=   1.0000000   1.0000000   1.0000000   1.0000000   1.0000000   1.0000000   1.0000000   1.0000000   1.0000000   1.0000000

  Atom        71          72          73          74          75          76          77          78          79          80
 IAtWgt=           1           1           1           1           1           1           1           1           1           1
 AtmWgt=   1.0078250   1.0078250   1.0078250   1.0078250   1.0078250   1.0078250   1.0078250   1.0078250   1.0078250   1.0078250
 NucSpn=           1           1           1           1           1           1           1           1           1           1
 AtZEff=  -0.0000000  -0.0000000  -0.0000000  -0.0000000  -0.0000000  -0.0000000  -0.0000000  -0.0000000  -0.0000000  -0.0000000
 NQMom=    0.0000000   0.0000000   0.0000000   0.0000000   0.0000000   0.0000000   0.0000000   0.0000000   0.0000000   0.0000000
 NMagM=    2.7928460   2.7928460   2.7928460   2.7928460   2.7928460   2.7928460   2.7928460   2.7928460   2.7928460   2.7928460
 AtZNuc=   1.0000000   1.0000000   1.0000000   1.0000000   1.0000000   1.0000000   1.0000000   1.0000000   1.0000000   1.0000000

  Atom        81          82
 IAtWgt=           1           1
 AtmWgt=   1.0078250   1.0078250
 NucSpn=           1           1
 AtZEff=  -0.0000000  -0.0000000
 NQMom=    0.0000000   0.0000000
 NMagM=    2.7928460   2.7928460
 AtZNuc=   1.0000000   1.0000000
 Leave Link  101 at Thu Nov  6 02:57:06 2025, MaxMem= 30870077440 cpu:               4.9 elap:               0.1
 (Enter /public/software/gauss/g16/l202.exe)
 Stoichiometry    C37H31BF2N4O7
 Framework group  C1[X(C37H31BF2N4O7)]
 Deg. of freedom   240
 Full point group                 C1      NOp   1
 Largest Abelian subgroup         C1      NOp   1
 Largest concise Abelian subgroup C1      NOp   1
                         Standard orientation:                         
 ---------------------------------------------------------------------
 Center     Atomic      Atomic             Coordinates (Angstroms)
 Number     Number       Type             X           Y           Z
 ---------------------------------------------------------------------
      1          5           0       -1.110911    0.090013   -0.172491
      2          7           0       -0.098055    1.244625   -0.380304
      3          6           0       -0.372386    2.577246   -0.545880
      4          6           0        0.842775    3.250787   -0.815444
      5          6           0        1.885014    2.341097   -0.781696
      6          6           0        1.286233    1.064864   -0.515360
      7          6           0        1.849045   -0.223789   -0.456564
      8          6           0        3.354439   -0.391566   -0.559525
      9          8           0        3.871816   -0.651797   -1.632077
     10          6           0        4.128188   -0.239612    0.744789
     11          6           0        5.624927   -0.356794    0.587320
     12          6           0        6.544878    0.698108    0.741421
     13          7           0        6.129559    2.036701    1.176727
     14          8           0        6.697743    3.004113    0.668748
     15          8           0        5.248540    2.133009    2.034088
     16          6           0        7.908377    0.556721    0.501444
     17          6           0        8.374534   -0.693838    0.125987
     18          6           0        7.517015   -1.781028   -0.029899
     19          6           0        6.159190   -1.593582    0.190715
     20          7           0        9.807849   -0.867660   -0.108513
     21          8           0       10.208791   -1.982376   -0.450559
     22          8           0       10.547291    0.107323    0.044838
     23          6           0        1.051709   -1.370115   -0.354941
     24          7           0       -0.336081   -1.246472   -0.293709
     25          6           0       -0.884641   -2.493429   -0.221849
     26          6           0        0.169734   -3.445898   -0.239562
     27          6           0        1.373764   -2.774421   -0.323197
     28          6           0        2.713895   -3.439462   -0.391298
     29          6           0       -2.303608   -2.719457   -0.165936
     30          6           0       -2.856108   -3.943863    0.039294
     31          6           0       -4.273346   -4.264344    0.097906
     32          6           0       -5.300084   -3.313000   -0.070228
     33          6           0       -6.642519   -3.669400   -0.006682
     34          6           0       -6.996603   -5.007452    0.230263
     35          8           0       -8.281432   -5.461978    0.309471
     36          6           0       -9.346681   -4.519799    0.135266
     37          6           0       -5.992087   -5.973362    0.401840
     38          6           0       -4.658563   -5.603054    0.335763
     39          6           0        3.325698    2.704480   -0.977677
     40          6           0       -1.633338    3.271850   -0.466816
     41          6           0       -2.812063    2.858683    0.066196
     42          6           0       -4.048546    3.628200    0.113549
     43          6           0       -5.155530    3.084776    0.803339
     44          6           0       -6.361934    3.761454    0.890763
     45          6           0       -6.505809    5.017894    0.281887
     46          8           0       -7.729603    5.610708    0.417081
     47          6           0       -7.931046    6.893574   -0.186861
     48          6           0       -5.424580    5.580549   -0.414494
     49          6           0       -4.220166    4.888766   -0.492983
     50          9           0       -1.700504    0.166877    1.103851
     51          9           0       -2.117758    0.144716   -1.145849
     52          1           0        0.925892    4.314033   -0.997894
     53          1           0        3.817494    0.693980    1.213444
     54          1           0        3.763972   -1.034720    1.408980
     55          1           0        8.582074    1.393653    0.622610
     56          1           0        7.905310   -2.748442   -0.320920
     57          1           0        5.486453   -2.431893    0.056915
     58          1           0        0.044991   -4.519480   -0.220136
     59          1           0        3.355389   -3.151923    0.448347
     60          1           0        2.586995   -4.524010   -0.353491
     61          1           0        3.247405   -3.192349   -1.313489
     62          1           0       -2.937304   -1.852010   -0.308283
     63          1           0       -2.193217   -4.794979    0.183384
     64          1           0       -5.052055   -2.272824   -0.255457
     65          1           0       -7.402258   -2.909448   -0.141647
     66          1           0       -9.314533   -3.738619    0.901916
     67          1           0       -9.312091   -4.061894   -0.858756
     68          1           0      -10.268129   -5.093475    0.239333
     69          1           0       -6.279848   -7.003727    0.584044
     70          1           0       -3.888740   -6.358151    0.469055
     71          1           0        3.828364    2.839736   -0.014159
     72          1           0        3.884710    1.961001   -1.548876
     73          1           0        3.392790    3.655921   -1.511772
     74          1           0       -1.563900    4.283643   -0.859127
     75          1           0       -2.865176    1.884136    0.537276
     76          1           0       -5.055762    2.112471    1.277850
     77          1           0       -7.206245    3.335959    1.423597
     78          1           0       -7.251194    7.641687    0.234180
     79          1           0       -7.798367    6.846214   -1.272823
     80          1           0       -8.961008    7.169575    0.041488
     81          1           0       -5.516209    6.546092   -0.896632
     82          1           0       -3.403627    5.342379   -1.045746
 ---------------------------------------------------------------------
 Rotational constants (GHZ):           0.0669474           0.0239143           0.0180159
 Leave Link  202 at Thu Nov  6 02:57:06 2025, MaxMem= 30870077440 cpu:               0.2 elap:               0.0
 (Enter /public/software/gauss/g16/l301.exe)
 Standard basis: def2TZVPP (5D, 7F)
 Ernie: Thresh=  0.10000D-02 Tol=  0.10000D-05 Strict=F.
 There are  2301 symmetry adapted cartesian basis functions of A   symmetry.
 There are  2015 symmetry adapted basis functions of A   symmetry.
  2015 basis functions,  3128 primitive gaussians,  2301 cartesian basis functions
   180 alpha electrons      180 beta electrons
       nuclear repulsion energy      6077.2452008441 Hartrees.
 IExCor= 4336 DFT=T Ex+Corr=M062X ExCW=0 ScaHFX=  0.540000
 ScaDFX=  1.000000  1.000000  1.000000  1.000000 ScalE2=  1.000000  1.000000
 IRadAn=      5 IRanWt=     -1 IRanGd=            0 ICorTp=0 IEmpDi=131
 NAtoms=   82 NActive=   82 NUniq=   82 SFac= 1.00D+00 NAtFMM=   60 NAOKFM=T Big=T
 Integral buffers will be    131072 words long.
 Raffenetti 2 integral format.
 Two-electron integral symmetry is turned on.
 R6Disp:  Grimme-D3 Dispersion energy=       -0.0071137202 Hartrees.
 Nuclear repulsion after empirical dispersion term =     6077.2380871239 Hartrees.
 ------------------------------------------------------------------------------
 Polarizable Continuum Model (PCM)
 =================================
 Model                : PCM.
 Atomic radii         : UFF (Universal Force Field).
 Polarization charges : Total charges.
 Charge compensation  : None.
 Solution method      : On-the-fly selection.
 Cavity type          : Scaled VdW (van der Waals Surface) (Alpha=1.100).
 Cavity algorithm     : GePol (No added spheres)
                        Default sphere list used, NSphG=   82.
                        Lebedev-Laikov grids with approx.  5.0 points / Ang**2.
                        Smoothing algorithm: York/Karplus (Gamma=1.0000).
                        Polarization charges: spherical gaussians, with
                                              point-specific exponents (IZeta= 3).
                        Self-potential: point-specific (ISelfS= 7).
                        Self-field    : sphere-specific E.n sum rule (ISelfD= 2).
 Solvent              : Water, Eps=  78.355300 Eps(inf)=   1.777849
 ------------------------------------------------------------------------------
 GePol: Number of generator spheres                  =      82
 GePol: Total number of spheres                      =      82
 GePol: Number of exposed spheres                    =      82 (100.00%)
 GePol: Number of points                             =    5920
 GePol: Average weight of points                     =       0.13
 GePol: Minimum weight of points                     =   0.21D-11
 GePol: Maximum weight of points                     =    0.20577
 GePol: Number of points with low weight             =     377
 GePol: Fraction of low-weight points (<1% of avg)   =       6.37%
 GePol: Cavity surface area                          =    749.740 Ang**2
 GePol: Cavity volume                                =    879.982 Ang**3
 Leave Link  301 at Thu Nov  6 02:57:06 2025, MaxMem= 30870077440 cpu:               3.7 elap:               0.1
 (Enter /public/software/gauss/g16/l302.exe)
 NPDir=0 NMtPBC=     1 NCelOv=     1 NCel=       1 NClECP=     1 NCelD=      1
         NCelK=      1 NCelE2=     1 NClLst=     1 CellRange=     0.0.
 One-electron integrals computed using PRISM.
 One-electron integral symmetry used in STVInt
   1 Symmetry operations used in ECPInt.
 ECPInt:  NShTT=  279378 NPrTT=  805761 LenC2=  162026 LenP2D=  310584.
 LDataN:  DoStor=T MaxTD1= 6 Len=  172
 NBasis=  2015 RedAO= T EigKep=  4.15D-06  NBF=  2015
 NBsUse=  2015 1.00D-06 EigRej= -1.00D+00 NBFU=  2015
 Precomputing XC quadrature grid using
 IXCGrd= 4 IRadAn=           5 IRanWt=          -1 IRanGd=           0 AccXCQ= 0.00D+00.
 Generated NRdTot=       0 NPtTot=           0 NUsed=           0 NTot=          32
 NSgBfM=  1884  1884  1884  1884  1884 MxSgAt=    82 MxSgA2=    82.
 Leave Link  302 at Thu Nov  6 02:57:18 2025, MaxMem= 30870077440 cpu:             721.2 elap:              11.3
 (Enter /public/software/gauss/g16/l303.exe)
 DipDrv:  MaxL=1.
 Leave Link  303 at Thu Nov  6 02:57:18 2025, MaxMem= 30870077440 cpu:              32.2 elap:               0.6
 (Enter /public/software/gauss/g16/l401.exe)
 ExpMin= 6.06D-02 ExpMax= 3.55D+04 ExpMxC= 1.21D+03 IAcc=3 IRadAn=         5 AccDes= 0.00D+00
 Harris functional with IExCor= 1009 and IRadAn=       5 diagonalized for initial guess.
 HarFok:  IExCor= 1009 AccDes= 0.00D+00 IRadAn=         5 IDoV= 1 UseB2=F ITyADJ=14
 ICtDFT=  3500011 ScaDFX=  1.000000  1.000000  1.000000  1.000000
 FoFCou: FMM=F IPFlag=           0 FMFlag=      100000 FMFlg1=        2001
         NFxFlg=           0 DoJE=T BraDBF=F KetDBF=T FulRan=T
         wScrn=  0.000000 ICntrl=       500 IOpCl=  0 I1Cent=   200000004 NGrid=           0
         NMat0=    1 NMatS0=      1 NMatT0=    0 NMatD0=    1 NMtDS0=    0 NMtDT0=    0
 Petite list used in FoFCou.
 Harris En= -2397.48484637575    
 JPrj=0 DoOrth=F DoCkMO=F.
 Leave Link  401 at Thu Nov  6 02:57:30 2025, MaxMem= 30870077440 cpu:             758.1 elap:              11.9
 (Enter /public/software/gauss/g16/l502.exe)
 Integral symmetry usage will be decided dynamically.
 Closed shell SCF:
 Using DIIS extrapolation, IDIIS=  1040.
 NGot= 30870077440 LenX= 30859321692 LenY= 30854024790
 Requested convergence on RMS density matrix=1.00D-08 within 128 cycles.
 Requested convergence on MAX density matrix=1.00D-06.
 Requested convergence on             energy=1.00D-06.
 No special actions if energy rises.
 Fock matrices will be formed incrementally for  20 cycles.

 Cycle   1  Pass 1  IDiag  1:
 FoFJK:  IHMeth= 1 ICntrl=       0 DoSepK=F KAlg= 0 I1Cent=           0 FoldK=F
 IRaf= 540000000 NMat=       1 IRICut=       1 DoRegI=T DoRafI=F ISym2E= 0 IDoP0=0 IntGTp=1.
 FoFCou: FMM=T IPFlag=           0 FMFlag=      100000 FMFlg1=        2001
         NFxFlg=           0 DoJE=F BraDBF=F KetDBF=F FulRan=T
         wScrn=  0.000000 ICntrl=         0 IOpCl=  0 I1Cent=           0 NGrid=           0
         NMat0=    1 NMatS0=      1 NMatT0=    0 NMatD0=    1 NMtDS0=    0 NMtDT0=    0
 Symmetry not used in FoFCou.
 FMM levels:  10  Number of levels for PrismC:   9
 Inv3:  Mode=1 IEnd=   105139200.
 Iteration    1 A*A^-1 deviation from unit magnitude is 3.04D-14 for   1818.
 Iteration    1 A*A^-1 deviation from orthogonality  is 7.77D-15 for   5047   3336.
 Iteration    1 A^-1*A deviation from unit magnitude is 3.04D-14 for   1818.
 Iteration    1 A^-1*A deviation from orthogonality  is 8.93D-14 for   5901   5894.
 E= -2397.46888621609    
 DIIS: error= 2.32D-02 at cycle   1 NSaved=   1.
 NSaved= 1 IEnMin= 1 EnMin= -2397.46888621609     IErMin= 1 ErrMin= 2.32D-02
 ErrMax= 2.32D-02  0.00D+00 EMaxC= 1.00D-01 BMatC= 1.68D+00 BMatP= 1.68D+00
 IDIUse=3 WtCom= 7.68D-01 WtEn= 2.32D-01
 Coeff-Com:  0.100D+01
 Coeff-En:   0.100D+01
 Coeff:      0.100D+01
 Gap=     0.118 Goal=   None    Shift=    0.000
 GapD=    0.118 DampG=1.000 DampE=0.500 DampFc=0.5000 IDamp=-1.
 Damping current iteration by 5.00D-01
 RMSDP=1.89D-03 MaxDP=4.88D-01              OVMax= 2.60D-01

 Cycle   2  Pass 1  IDiag  1:
 RMSU=  9.43D-04    CP:  1.02D+00
 E= -2398.04036473848     Delta-E=       -0.571478522392 Rises=F Damp=T
 DIIS: error= 4.87D-03 at cycle   2 NSaved=   2.
 NSaved= 2 IEnMin= 2 EnMin= -2398.04036473848     IErMin= 2 ErrMin= 4.87D-03
 ErrMax= 4.87D-03  0.00D+00 EMaxC= 1.00D-01 BMatC= 1.77D-01 BMatP= 1.68D+00
 IDIUse=3 WtCom= 9.51D-01 WtEn= 4.87D-02
 Coeff-Com: -0.214D-01 0.102D+01
 Coeff-En:   0.000D+00 0.100D+01
 Coeff:     -0.203D-01 0.102D+01
 Gap=     0.160 Goal=   None    Shift=    0.000
 RMSDP=5.85D-04 MaxDP=7.70D-02 DE=-5.71D-01 OVMax= 1.90D-01

 Cycle   3  Pass 1  IDiag  1:
 RMSU=  5.62D-04    CP:  9.98D-01  1.16D+00
 E= -2398.61245858320     Delta-E=       -0.572093844719 Rises=F Damp=F
 DIIS: error= 7.41D-03 at cycle   3 NSaved=   3.
 NSaved= 3 IEnMin= 3 EnMin= -2398.61245858320     IErMin= 2 ErrMin= 4.87D-03
 ErrMax= 7.41D-03  0.00D+00 EMaxC= 1.00D-01 BMatC= 1.03D-01 BMatP= 1.77D-01
 IDIUse=3 WtCom= 9.26D-01 WtEn= 7.41D-02
 Coeff-Com: -0.104D+00 0.470D+00 0.634D+00
 Coeff-En:   0.000D+00 0.000D+00 0.100D+01
 Coeff:     -0.966D-01 0.435D+00 0.662D+00
 Gap=     0.127 Goal=   None    Shift=    0.000
 RMSDP=2.17D-04 MaxDP=4.59D-02 DE=-5.72D-01 OVMax= 5.72D-02

 Cycle   4  Pass 1  IDiag  1:
 RMSU=  2.05D-04    CP:  1.00D+00  1.20D+00  8.96D-01
 E= -2398.67920488239     Delta-E=       -0.066746299190 Rises=F Damp=F
 DIIS: error= 1.67D-03 at cycle   4 NSaved=   4.
 NSaved= 4 IEnMin= 4 EnMin= -2398.67920488239     IErMin= 4 ErrMin= 1.67D-03
 ErrMax= 1.67D-03  0.00D+00 EMaxC= 1.00D-01 BMatC= 1.40D-02 BMatP= 1.03D-01
 IDIUse=3 WtCom= 9.83D-01 WtEn= 1.67D-02
 Coeff-Com: -0.331D-01 0.904D-01 0.318D+00 0.624D+00
 Coeff-En:   0.000D+00 0.000D+00 0.894D-01 0.911D+00
 Coeff:     -0.325D-01 0.889D-01 0.314D+00 0.629D+00
 Gap=     0.130 Goal=   None    Shift=    0.000
 RMSDP=8.05D-05 MaxDP=1.89D-02 DE=-6.67D-02 OVMax= 1.78D-02

 Cycle   5  Pass 1  IDiag  1:
 RMSU=  4.49D-05    CP:  9.99D-01  1.18D+00  9.50D-01  7.29D-01
 E= -2398.68974535286     Delta-E=       -0.010540470472 Rises=F Damp=F
 DIIS: error= 3.46D-04 at cycle   5 NSaved=   5.
 NSaved= 5 IEnMin= 5 EnMin= -2398.68974535286     IErMin= 5 ErrMin= 3.46D-04
 ErrMax= 3.46D-04  0.00D+00 EMaxC= 1.00D-01 BMatC= 8.10D-04 BMatP= 1.40D-02
 IDIUse=3 WtCom= 9.97D-01 WtEn= 3.46D-03
 Coeff-Com: -0.111D-01 0.219D-01 0.129D+00 0.315D+00 0.545D+00
 Coeff-En:   0.000D+00 0.000D+00 0.000D+00 0.000D+00 0.100D+01
 Coeff:     -0.111D-01 0.218D-01 0.128D+00 0.314D+00 0.547D+00
 Gap=     0.130 Goal=   None    Shift=    0.000
 RMSDP=2.76D-05 MaxDP=6.91D-03 DE=-1.05D-02 OVMax= 5.07D-03

 Cycle   6  Pass 1  IDiag  1:
 RMSU=  1.97D-05    CP:  9.99D-01  1.19D+00  9.38D-01  7.52D-01  8.24D-01
 E= -2398.69035955789     Delta-E=       -0.000614205026 Rises=F Damp=F
 DIIS: error= 1.61D-04 at cycle   6 NSaved=   6.
 NSaved= 6 IEnMin= 6 EnMin= -2398.69035955789     IErMin= 6 ErrMin= 1.61D-04
 ErrMax= 1.61D-04  0.00D+00 EMaxC= 1.00D-01 BMatC= 8.42D-05 BMatP= 8.10D-04
 IDIUse=3 WtCom= 9.98D-01 WtEn= 1.61D-03
 Coeff-Com: -0.168D-02 0.883D-03 0.288D-01 0.840D-01 0.276D+00 0.612D+00
 Coeff-En:   0.000D+00 0.000D+00 0.000D+00 0.000D+00 0.000D+00 0.100D+01
 Coeff:     -0.168D-02 0.882D-03 0.288D-01 0.839D-01 0.275D+00 0.613D+00
 Gap=     0.130 Goal=   None    Shift=    0.000
 RMSDP=7.31D-06 MaxDP=1.12D-03 DE=-6.14D-04 OVMax= 3.16D-03

 Cycle   7  Pass 1  IDiag  1:
 RMSU=  5.90D-06    CP:  9.99D-01  1.19D+00  9.42D-01  7.46D-01  8.94D-01
                    CP:  9.77D-01
 E= -2398.69043280351     Delta-E=       -0.000073245623 Rises=F Damp=F
 DIIS: error= 2.80D-05 at cycle   7 NSaved=   7.
 NSaved= 7 IEnMin= 7 EnMin= -2398.69043280351     IErMin= 7 ErrMin= 2.80D-05
 ErrMax= 2.80D-05  0.00D+00 EMaxC= 1.00D-01 BMatC= 8.53D-06 BMatP= 8.42D-05
 IDIUse=1 WtCom= 1.00D+00 WtEn= 0.00D+00
 Coeff-Com:  0.110D-02-0.317D-02-0.817D-02-0.156D-01 0.320D-01 0.258D+00
 Coeff-Com:  0.736D+00
 Coeff:      0.110D-02-0.317D-02-0.817D-02-0.156D-01 0.320D-01 0.258D+00
 Coeff:      0.736D+00
 Gap=     0.131 Goal=   None    Shift=    0.000
 RMSDP=4.06D-06 MaxDP=6.42D-04 DE=-7.32D-05 OVMax= 1.39D-03

 Cycle   8  Pass 1  IDiag  1:
 RMSU=  3.16D-06    CP:  9.99D-01  1.19D+00  9.43D-01  7.51D-01  9.23D-01
                    CP:  1.07D+00  1.00D+00
 E= -2398.69044329015     Delta-E=       -0.000010486636 Rises=F Damp=F
 DIIS: error= 1.62D-05 at cycle   8 NSaved=   8.
 NSaved= 8 IEnMin= 8 EnMin= -2398.69044329015     IErMin= 8 ErrMin= 1.62D-05
 ErrMax= 1.62D-05  0.00D+00 EMaxC= 1.00D-01 BMatC= 1.37D-06 BMatP= 8.53D-06
 IDIUse=1 WtCom= 1.00D+00 WtEn= 0.00D+00
 Coeff-Com:  0.715D-03-0.154D-02-0.740D-02-0.188D-01-0.244D-01 0.236D-01
 Coeff-Com:  0.322D+00 0.706D+00
 Coeff:      0.715D-03-0.154D-02-0.740D-02-0.188D-01-0.244D-01 0.236D-01
 Coeff:      0.322D+00 0.706D+00
 Gap=     0.131 Goal=   None    Shift=    0.000
 RMSDP=1.90D-06 MaxDP=3.19D-04 DE=-1.05D-05 OVMax= 7.33D-04

 Cycle   9  Pass 1  IDiag  1:
 RMSU=  1.26D-06    CP:  9.99D-01  1.19D+00  9.44D-01  7.51D-01  9.39D-01
                    CP:  1.11D+00  1.11D+00  1.17D+00
 E= -2398.69044506399     Delta-E=       -0.000001773840 Rises=F Damp=F
 DIIS: error= 1.03D-05 at cycle   9 NSaved=   9.
 NSaved= 9 IEnMin= 9 EnMin= -2398.69044506399     IErMin= 9 ErrMin= 1.03D-05
 ErrMax= 1.03D-05  0.00D+00 EMaxC= 1.00D-01 BMatC= 3.82D-07 BMatP= 1.37D-06
 IDIUse=1 WtCom= 1.00D+00 WtEn= 0.00D+00
 Coeff-Com:  0.244D-03-0.420D-03-0.286D-02-0.827D-02-0.178D-01-0.230D-01
 Coeff-Com:  0.728D-01 0.395D+00 0.585D+00
 Coeff:      0.244D-03-0.420D-03-0.286D-02-0.827D-02-0.178D-01-0.230D-01
 Coeff:      0.728D-01 0.395D+00 0.585D+00
 Gap=     0.131 Goal=   None    Shift=    0.000
 RMSDP=6.71D-07 MaxDP=1.29D-04 DE=-1.77D-06 OVMax= 3.83D-04

 Cycle  10  Pass 1  IDiag  1:
 RMSU=  4.69D-07    CP:  9.99D-01  1.19D+00  9.44D-01  7.51D-01  9.42D-01
                    CP:  1.12D+00  1.14D+00  1.28D+00  9.07D-01
 E= -2398.69044549620     Delta-E=       -0.000000432208 Rises=F Damp=F
 DIIS: error= 3.37D-06 at cycle  10 NSaved=  10.
 NSaved=10 IEnMin=10 EnMin= -2398.69044549620     IErMin=10 ErrMin= 3.37D-06
 ErrMax= 3.37D-06  0.00D+00 EMaxC= 1.00D-01 BMatC= 5.12D-08 BMatP= 3.82D-07
 IDIUse=1 WtCom= 1.00D+00 WtEn= 0.00D+00
 Coeff-Com: -0.524D-04 0.163D-03 0.419D-03 0.520D-03-0.255D-02-0.145D-01
 Coeff-Com: -0.407D-01 0.126D-01 0.275D+00 0.769D+00
 Coeff:     -0.524D-04 0.163D-03 0.419D-03 0.520D-03-0.255D-02-0.145D-01
 Coeff:     -0.407D-01 0.126D-01 0.275D+00 0.769D+00
 Gap=     0.131 Goal=   None    Shift=    0.000
 RMSDP=3.76D-07 MaxDP=4.66D-05 DE=-4.32D-07 OVMax= 2.23D-04

 Cycle  11  Pass 1  IDiag  1:
 RMSU=  2.01D-07    CP:  9.99D-01  1.19D+00  9.44D-01  7.51D-01  9.43D-01
                    CP:  1.12D+00  1.15D+00  1.35D+00  1.03D+00  1.09D+00
 E= -2398.69044558428     Delta-E=       -0.000000088081 Rises=F Damp=F
 DIIS: error= 9.09D-07 at cycle  11 NSaved=  11.
 NSaved=11 IEnMin=11 EnMin= -2398.69044558428     IErMin=11 ErrMin= 9.09D-07
 ErrMax= 9.09D-07  0.00D+00 EMaxC= 1.00D-01 BMatC= 6.31D-09 BMatP= 5.12D-08
 IDIUse=1 WtCom= 1.00D+00 WtEn= 0.00D+00
 Coeff-Com: -0.543D-04 0.122D-03 0.552D-03 0.139D-02 0.137D-02-0.230D-02
 Coeff-Com: -0.274D-01-0.541D-01 0.274D-01 0.305D+00 0.748D+00
 Coeff:     -0.543D-04 0.122D-03 0.552D-03 0.139D-02 0.137D-02-0.230D-02
 Coeff:     -0.274D-01-0.541D-01 0.274D-01 0.305D+00 0.748D+00
 Gap=     0.131 Goal=   None    Shift=    0.000
 RMSDP=1.85D-07 MaxDP=4.07D-05 DE=-8.81D-08 OVMax= 7.78D-05

 Cycle  12  Pass 1  IDiag  1:
 RMSU=  7.52D-08    CP:  9.99D-01  1.19D+00  9.44D-01  7.51D-01  9.44D-01
                    CP:  1.12D+00  1.16D+00  1.39D+00  1.09D+00  1.23D+00
                    CP:  1.07D+00
 E= -2398.69044559552     Delta-E=       -0.000000011245 Rises=F Damp=F
 DIIS: error= 3.26D-07 at cycle  12 NSaved=  12.
 NSaved=12 IEnMin=12 EnMin= -2398.69044559552     IErMin=12 ErrMin= 3.26D-07
 ErrMax= 3.26D-07  0.00D+00 EMaxC= 1.00D-01 BMatC= 9.72D-10 BMatP= 6.31D-09
 IDIUse=1 WtCom= 1.00D+00 WtEn= 0.00D+00
 Coeff-Com: -0.145D-04 0.269D-04 0.158D-03 0.510D-03 0.854D-03 0.121D-02
 Coeff-Com: -0.573D-02-0.243D-01-0.251D-01 0.186D-01 0.300D+00 0.734D+00
 Coeff:     -0.145D-04 0.269D-04 0.158D-03 0.510D-03 0.854D-03 0.121D-02
 Coeff:     -0.573D-02-0.243D-01-0.251D-01 0.186D-01 0.300D+00 0.734D+00
 Gap=     0.131 Goal=   None    Shift=    0.000
 RMSDP=4.58D-08 MaxDP=6.23D-06 DE=-1.12D-08 OVMax= 2.95D-05

 Cycle  13  Pass 1  IDiag  1:
 RMSU=  2.93D-08    CP:  9.99D-01  1.19D+00  9.44D-01  7.51D-01  9.44D-01
                    CP:  1.12D+00  1.16D+00  1.39D+00  1.10D+00  1.27D+00
                    CP:  1.18D+00  1.10D+00
 E= -2398.69044559749     Delta-E=       -0.000000001968 Rises=F Damp=F
 DIIS: error= 1.46D-07 at cycle  13 NSaved=  13.
 NSaved=13 IEnMin=13 EnMin= -2398.69044559749     IErMin=13 ErrMin= 1.46D-07
 ErrMax= 1.46D-07  0.00D+00 EMaxC= 1.00D-01 BMatC= 1.92D-10 BMatP= 9.72D-10
 IDIUse=1 WtCom= 1.00D+00 WtEn= 0.00D+00
 Coeff-Com:  0.264D-05-0.819D-05-0.271D-04-0.848D-05 0.108D-03 0.960D-03
 Coeff-Com:  0.216D-02-0.114D-02-0.136D-01-0.445D-01-0.106D-01 0.303D+00
 Coeff-Com:  0.764D+00
 Coeff:      0.264D-05-0.819D-05-0.271D-04-0.848D-05 0.108D-03 0.960D-03
 Coeff:      0.216D-02-0.114D-02-0.136D-01-0.445D-01-0.106D-01 0.303D+00
 Coeff:      0.764D+00
 Gap=     0.131 Goal=   None    Shift=    0.000
 RMSDP=2.32D-08 MaxDP=4.21D-06 DE=-1.97D-09 OVMax= 1.04D-05

 Cycle  14  Pass 1  IDiag  1:
 RMSU=  1.18D-08    CP:  9.99D-01  1.19D+00  9.44D-01  7.51D-01  9.44D-01
                    CP:  1.12D+00  1.16D+00  1.39D+00  1.10D+00  1.29D+00
                    CP:  1.22D+00  1.24D+00  1.16D+00
 E= -2398.69044559833     Delta-E=       -0.000000000844 Rises=F Damp=F
 DIIS: error= 1.03D-07 at cycle  14 NSaved=  14.
 NSaved=14 IEnMin=14 EnMin= -2398.69044559833     IErMin=14 ErrMin= 1.03D-07
 ErrMax= 1.03D-07  0.00D+00 EMaxC= 1.00D-01 BMatC= 3.50D-11 BMatP= 1.92D-10
 IDIUse=1 WtCom= 1.00D+00 WtEn= 0.00D+00
 Coeff-Com:  0.333D-05-0.750D-05-0.382D-04-0.849D-04-0.105D-03 0.233D-03
 Coeff-Com:  0.185D-02 0.353D-02-0.886D-03-0.216D-01-0.578D-01 0.126D-02
 Coeff-Com:  0.315D+00 0.759D+00
 Coeff:      0.333D-05-0.750D-05-0.382D-04-0.849D-04-0.105D-03 0.233D-03
 Coeff:      0.185D-02 0.353D-02-0.886D-03-0.216D-01-0.578D-01 0.126D-02
 Coeff:      0.315D+00 0.759D+00
 Gap=     0.131 Goal=   None    Shift=    0.000
 RMSDP=1.01D-08 MaxDP=1.53D-06 DE=-8.44D-10 OVMax= 6.70D-06

 Cycle  15  Pass 1  IDiag  1:
 RMSU=  6.07D-09    CP:  9.99D-01  1.19D+00  9.44D-01  7.51D-01  9.44D-01
                    CP:  1.12D+00  1.16D+00  1.39D+00  1.10D+00  1.29D+00
                    CP:  1.23D+00  1.29D+00  1.33D+00  1.26D+00
 E= -2398.69044559813     Delta-E=        0.000000000202 Rises=F Damp=F
 DIIS: error= 7.95D-08 at cycle  15 NSaved=  15.
 NSaved=15 IEnMin=14 EnMin= -2398.69044559833     IErMin=15 ErrMin= 7.95D-08
 ErrMax= 7.95D-08  0.00D+00 EMaxC= 1.00D-01 BMatC= 9.75D-12 BMatP= 3.50D-11
 IDIUse=1 WtCom= 1.00D+00 WtEn= 0.00D+00
 Coeff-Com:  0.960D-06-0.177D-05-0.124D-04-0.366D-04-0.745D-04-0.739D-04
 Coeff-Com:  0.428D-03 0.184D-02 0.243D-02-0.124D-02-0.253D-01-0.605D-01
 Coeff-Com: -0.112D-01 0.370D+00 0.724D+00
 Coeff:      0.960D-06-0.177D-05-0.124D-04-0.366D-04-0.745D-04-0.739D-04
 Coeff:      0.428D-03 0.184D-02 0.243D-02-0.124D-02-0.253D-01-0.605D-01
 Coeff:     -0.112D-01 0.370D+00 0.724D+00
 Gap=     0.131 Goal=   None    Shift=    0.000
 RMSDP=5.72D-09 MaxDP=1.15D-06 DE= 2.02D-10 OVMax= 4.15D-06

 Cycle  16  Pass 1  IDiag  1:
 RMSU=  3.20D-09    CP:  9.99D-01  1.19D+00  9.44D-01  7.51D-01  9.44D-01
                    CP:  1.12D+00  1.16D+00  1.39D+00  1.10D+00  1.29D+00
                    CP:  1.24D+00  1.32D+00  1.41D+00  1.51D+00  1.17D+00
 E= -2398.69044559785     Delta-E=        0.000000000282 Rises=F Damp=F
 DIIS: error= 4.63D-08 at cycle  16 NSaved=  16.
 NSaved=16 IEnMin=14 EnMin= -2398.69044559833     IErMin=16 ErrMin= 4.63D-08
 ErrMax= 4.63D-08  0.00D+00 EMaxC= 1.00D-01 BMatC= 2.69D-12 BMatP= 9.75D-12
 IDIUse=1 WtCom= 1.00D+00 WtEn= 0.00D+00
 Coeff-Com: -0.389D-06 0.107D-05 0.383D-05 0.310D-05-0.149D-04-0.112D-03
 Coeff-Com: -0.288D-03 0.298D-04 0.163D-02 0.555D-02 0.274D-02-0.340D-01
 Coeff-Com: -0.983D-01-0.140D-01 0.388D+00 0.749D+00
 Coeff:     -0.389D-06 0.107D-05 0.383D-05 0.310D-05-0.149D-04-0.112D-03
 Coeff:     -0.288D-03 0.298D-04 0.163D-02 0.555D-02 0.274D-02-0.340D-01
 Coeff:     -0.983D-01-0.140D-01 0.388D+00 0.749D+00
 Gap=     0.131 Goal=   None    Shift=    0.000
 RMSDP=3.45D-09 MaxDP=6.04D-07 DE= 2.82D-10 OVMax= 2.76D-06

 Error on total polarization charges =  0.02430
 SCF Done:  E(RM062X) =  -2398.69044560     A.U. after   16 cycles
            NFock= 16  Conv=0.34D-08     -V/T= 2.0053
 KE= 2.386043887221D+03 PE=-1.775328384450D+04 EE= 6.891311424555D+03
 Leave Link  502 at Thu Nov  6 03:16:32 2025, MaxMem= 30870077440 cpu:           71837.2 elap:            1141.6
 (Enter /public/software/gauss/g16/l601.exe)
 Copying SCF densities to generalized density rwf, IOpCl= 0 IROHF=0.

 **********************************************************************

            Population analysis using the SCF density.

 **********************************************************************

 Orbital symmetries:
       Occupied  (A) (A) (A) (A) (A) (A) (A) (A) (A) (A) (A) (A)
                 (A) (A) (A) (A) (A) (A) (A) (A) (A) (A) (A) (A)
                 (A) (A) (A) (A) (A) (A) (A) (A) (A) (A) (A) (A)
                 (A) (A) (A) (A) (A) (A) (A) (A) (A) (A) (A) (A)
                 (A) (A) (A) (A) (A) (A) (A) (A) (A) (A) (A) (A)
                 (A) (A) (A) (A) (A) (A) (A) (A) (A) (A) (A) (A)
                 (A) (A) (A) (A) (A) (A) (A) (A) (A) (A) (A) (A)
                 (A) (A) (A) (A) (A) (A) (A) (A) (A) (A) (A) (A)
                 (A) (A) (A) (A) (A) (A) (A) (A) (A) (A) (A) (A)
                 (A) (A) (A) (A) (A) (A) (A) (A) (A) (A) (A) (A)
                 (A) (A) (A) (A) (A) (A) (A) (A) (A) (A) (A) (A)
                 (A) (A) (A) (A) (A) (A) (A) (A) (A) (A) (A) (A)
                 (A) (A) (A) (A) (A) (A) (A) (A) (A) (A) (A) (A)
                 (A) (A) (A) (A) (A) (A) (A) (A) (A) (A) (A) (A)
                 (A) (A) (A) (A) (A) (A) (A) (A) (A) (A) (A) (A)
       Virtual   (A) (A) (A) (A) (A) (A) (A) (A) (A) (A) (A) (A)
                 (A) (A) (A) (A) (A) (A) (A) (A) (A) (A) (A) (A)
                 (A) (A) (A) (A) (A) (A) (A) (A) (A) (A) (A) (A)
                 (A) (A) (A) (A) (A) (A) (A) (A) (A) (A) (A) (A)
                 (A) (A) (A) (A) (A) (A) (A) (A) (A) (A) (A) (A)
                 (A) (A) (A) (A) (A) (A) (A) (A) (A) (A) (A) (A)
                 (A) (A) (A) (A) (A) (A) (A) (A) (A) (A) (A) (A)
                 (A) (A) (A) (A) (A) (A) (A) (A) (A) (A) (A) (A)
                 (A) (A) (A) (A) (A) (A) (A) (A) (A) (A) (A) (A)
                 (A) (A) (A) (A) (A) (A) (A) (A) (A) (A) (A) (A)
                 (A) (A) (A) (A) (A) (A) (A) (A) (A) (A) (A) (A)
                 (A) (A) (A) (A) (A) (A) (A) (A) (A) (A) (A) (A)
                 (A) (A) (A) (A) (A) (A) (A) (A) (A) (A) (A) (A)
                 (A) (A) (A) (A) (A) (A) (A) (A) (A) (A) (A) (A)
                 (A) (A) (A) (A) (A) (A) (A) (A) (A) (A) (A) (A)
                 (A) (A) (A) (A) (A) (A) (A) (A) (A) (A) (A) (A)
                 (A) (A) (A) (A) (A) (A) (A) (A) (A) (A) (A) (A)
                 (A) (A) (A) (A) (A) (A) (A) (A) (A) (A) (A) (A)
                 (A) (A) (A) (A) (A) (A) (A) (A) (A) (A) (A) (A)
                 (A) (A) (A) (A) (A) (A) (A) (A) (A) (A) (A) (A)
                 (A) (A) (A) (A) (A) (A) (A) (A) (A) (A) (A) (A)
                 (A) (A) (A) (A) (A) (A) (A) (A) (A) (A) (A) (A)
                 (A) (A) (A) (A) (A) (A) (A) (A) (A) (A) (A) (A)
                 (A) (A) (A) (A) (A) (A) (A) (A) (A) (A) (A) (A)
                 (A) (A) (A) (A) (A) (A) (A) (A) (A) (A) (A) (A)
                 (A) (A) (A) (A) (A) (A) (A) (A) (A) (A) (A) (A)
                 (A) (A) (A) (A) (A) (A) (A) (A) (A) (A) (A) (A)
                 (A) (A) (A) (A) (A) (A) (A) (A) (A) (A) (A) (A)
                 (A) (A) (A) (A) (A) (A) (A) (A) (A) (A) (A) (A)
                 (A) (A) (A) (A) (A) (A) (A) (A) (A) (A) (A) (A)
                 (A) (A) (A) (A) (A) (A) (A) (A) (A) (A) (A) (A)
                 (A) (A) (A) (A) (A) (A) (A) (A) (A) (A) (A) (A)
                 (A) (A) (A) (A) (A) (A) (A) (A) (A) (A) (A) (A)
                 (A) (A) (A) (A) (A) (A) (A) (A) (A) (A) (A) (A)
                 (A) (A) (A) (A) (A) (A) (A) (A) (A) (A) (A) (A)
                 (A) (A) (A) (A) (A) (A) (A) (A) (A) (A) (A) (A)
                 (A) (A) (A) (A) (A) (A) (A) (A) (A) (A) (A) (A)
                 (A) (A) (A) (A) (A) (A) (A) (A) (A) (A) (A) (A)
                 (A) (A) (A) (A) (A) (A) (A) (A) (A) (A) (A) (A)
                 (A) (A) (A) (A) (A) (A) (A) (A) (A) (A) (A) (A)
                 (A) (A) (A) (A) (A) (A) (A) (A) (A) (A) (A) (A)
                 (A) (A) (A) (A) (A) (A) (A) (A) (A) (A) (A) (A)
                 (A) (A) (A) (A) (A) (A) (A) (A) (A) (A) (A) (A)
                 (A) (A) (A) (A) (A) (A) (A) (A) (A) (A) (A) (A)
                 (A) (A) (A) (A) (A) (A) (A) (A) (A) (A) (A) (A)
                 (A) (A) (A) (A) (A) (A) (A) (A) (A) (A) (A) (A)
                 (A) (A) (A) (A) (A) (A) (A) (A) (A) (A) (A) (A)
                 (A) (A) (A) (A) (A) (A) (A) (A) (A) (A) (A) (A)
                 (A) (A) (A) (A) (A) (A) (A) (A) (A) (A) (A) (A)
                 (A) (A) (A) (A) (A) (A) (A) (A) (A) (A) (A) (A)
                 (A) (A) (A) (A) (A) (A) (A) (A) (A) (A) (A) (A)
                 (A) (A) (A) (A) (A) (A) (A) (A) (A) (A) (A) (A)
                 (A) (A) (A) (A) (A) (A) (A) (A) (A) (A) (A) (A)
                 (A) (A) (A) (A) (A) (A) (A) (A) (A) (A) (A) (A)
                 (A) (A) (A) (A) (A) (A) (A) (A) (A) (A) (A) (A)
                 (A) (A) (A) (A) (A) (A) (A) (A) (A) (A) (A) (A)
                 (A) (A) (A) (A) (A) (A) (A) (A) (A) (A) (A) (A)
                 (A) (A) (A) (A) (A) (A) (A) (A) (A) (A) (A) (A)
                 (A) (A) (A) (A) (A) (A) (A) (A) (A) (A) (A) (A)
                 (A) (A) (A) (A) (A) (A) (A) (A) (A) (A) (A) (A)
                 (A) (A) (A) (A) (A) (A) (A) (A) (A) (A) (A) (A)
                 (A) (A) (A) (A) (A) (A) (A) (A) (A) (A) (A) (A)
                 (A) (A) (A) (A) (A) (A) (A) (A) (A) (A) (A) (A)
                 (A) (A) (A) (A) (A) (A) (A) (A) (A) (A) (A) (A)
                 (A) (A) (A) (A) (A) (A) (A) (A) (A) (A) (A) (A)
                 (A) (A) (A) (A) (A) (A) (A) (A) (A) (A) (A) (A)
                 (A) (A) (A) (A) (A) (A) (A) (A) (A) (A) (A) (A)
                 (A) (A) (A) (A) (A) (A) (A) (A) (A) (A) (A) (A)
                 (A) (A) (A) (A) (A) (A) (A) (A) (A) (A) (A) (A)
                 (A) (A) (A) (A) (A) (A) (A) (A) (A) (A) (A) (A)
                 (A) (A) (A) (A) (A) (A) (A) (A) (A) (A) (A) (A)
                 (A) (A) (A) (A) (A) (A) (A) (A) (A) (A) (A) (A)
                 (A) (A) (A) (A) (A) (A) (A) (A) (A) (A) (A) (A)
                 (A) (A) (A) (A) (A) (A) (A) (A) (A) (A) (A) (A)
                 (A) (A) (A) (A) (A) (A) (A) (A) (A) (A) (A) (A)
                 (A) (A) (A) (A) (A) (A) (A) (A) (A) (A) (A) (A)
                 (A) (A) (A) (A) (A) (A) (A) (A) (A) (A) (A) (A)
                 (A) (A) (A) (A) (A) (A) (A) (A) (A) (A) (A) (A)
                 (A) (A) (A) (A) (A) (A) (A) (A) (A) (A) (A) (A)
                 (A) (A) (A) (A) (A) (A) (A) (A) (A) (A) (A) (A)
                 (A) (A) (A) (A) (A) (A) (A) (A) (A) (A) (A) (A)
                 (A) (A) (A) (A) (A) (A) (A) (A) (A) (A) (A) (A)
                 (A) (A) (A) (A) (A) (A) (A) (A) (A) (A) (A) (A)
                 (A) (A) (A) (A) (A) (A) (A) (A) (A) (A) (A) (A)
                 (A) (A) (A) (A) (A) (A) (A) (A) (A) (A) (A) (A)
                 (A) (A) (A) (A) (A) (A) (A) (A) (A) (A) (A) (A)
                 (A) (A) (A) (A) (A) (A) (A) (A) (A) (A) (A) (A)
                 (A) (A) (A) (A) (A) (A) (A) (A) (A) (A) (A) (A)
                 (A) (A) (A) (A) (A) (A) (A) (A) (A) (A) (A) (A)
                 (A) (A) (A) (A) (A) (A) (A) (A) (A) (A) (A) (A)
                 (A) (A) (A) (A) (A) (A) (A) (A) (A) (A) (A) (A)
                 (A) (A) (A) (A) (A) (A) (A) (A) (A) (A) (A) (A)
                 (A) (A) (A) (A) (A) (A) (A) (A) (A) (A) (A) (A)
                 (A) (A) (A) (A) (A) (A) (A) (A) (A) (A) (A) (A)
                 (A) (A) (A) (A) (A) (A) (A) (A) (A) (A) (A) (A)
                 (A) (A) (A) (A) (A) (A) (A) (A) (A) (A) (A) (A)
                 (A) (A) (A) (A) (A) (A) (A) (A) (A) (A) (A) (A)
                 (A) (A) (A) (A) (A) (A) (A) (A) (A) (A) (A) (A)
                 (A) (A) (A) (A) (A) (A) (A) (A) (A) (A) (A) (A)
                 (A) (A) (A) (A) (A) (A) (A) (A) (A) (A) (A) (A)
                 (A) (A) (A) (A) (A) (A) (A) (A) (A) (A) (A) (A)
                 (A) (A) (A) (A) (A) (A) (A) (A) (A) (A) (A) (A)
                 (A) (A) (A) (A) (A) (A) (A) (A) (A) (A) (A) (A)
                 (A) (A) (A) (A) (A) (A) (A) (A) (A) (A) (A) (A)
                 (A) (A) (A) (A) (A) (A) (A) (A) (A) (A) (A) (A)
                 (A) (A) (A) (A) (A) (A) (A) (A) (A) (A) (A) (A)
                 (A) (A) (A) (A) (A) (A) (A) (A) (A) (A) (A) (A)
                 (A) (A) (A) (A) (A) (A) (A) (A) (A) (A) (A) (A)
                 (A) (A) (A) (A) (A) (A) (A) (A) (A) (A) (A) (A)
                 (A) (A) (A) (A) (A) (A) (A) (A) (A) (A) (A) (A)
                 (A) (A) (A) (A) (A) (A) (A) (A) (A) (A) (A) (A)
                 (A) (A) (A) (A) (A) (A) (A) (A) (A) (A) (A) (A)
                 (A) (A) (A) (A) (A) (A) (A) (A) (A) (A) (A) (A)
                 (A) (A) (A) (A) (A) (A) (A) (A) (A) (A) (A) (A)
                 (A) (A) (A) (A) (A) (A) (A) (A) (A) (A) (A) (A)
                 (A) (A) (A) (A) (A) (A) (A) (A) (A) (A) (A) (A)
                 (A) (A) (A) (A) (A) (A) (A) (A) (A) (A) (A) (A)
                 (A) (A) (A) (A) (A) (A) (A) (A) (A) (A) (A) (A)
                 (A) (A) (A) (A) (A) (A) (A) (A) (A) (A) (A) (A)
                 (A) (A) (A) (A) (A) (A) (A) (A) (A) (A) (A) (A)
                 (A) (A) (A) (A) (A) (A) (A) (A) (A) (A) (A) (A)
                 (A) (A) (A) (A) (A) (A) (A) (A) (A) (A) (A) (A)
                 (A) (A) (A) (A) (A) (A) (A) (A) (A) (A) (A) (A)
                 (A) (A) (A) (A) (A) (A) (A) (A) (A) (A) (A) (A)
                 (A) (A) (A) (A) (A) (A) (A) (A) (A) (A) (A) (A)
                 (A) (A) (A) (A) (A) (A) (A) (A) (A) (A) (A) (A)
                 (A) (A) (A) (A) (A) (A) (A) (A) (A) (A) (A) (A)
                 (A) (A) (A) (A) (A) (A) (A) (A) (A) (A) (A) (A)
                 (A) (A) (A) (A) (A) (A) (A) (A) (A) (A) (A) (A)
                 (A) (A) (A) (A) (A) (A) (A) (A) (A) (A) (A) (A)
                 (A) (A) (A) (A) (A) (A) (A) (A) (A) (A) (A) (A)
                 (A) (A) (A) (A) (A) (A) (A) (A) (A) (A) (A) (A)
                 (A) (A) (A) (A) (A) (A) (A) (A) (A) (A) (A) (A)
                 (A) (A) (A) (A) (A) (A) (A) (A) (A) (A) (A) (A)
                 (A) (A) (A) (A) (A) (A) (A) (A) (A) (A) (A) (A)
                 (A) (A) (A) (A) (A) (A) (A) (A) (A) (A) (A) (A)
                 (A) (A) (A) (A) (A) (A) (A) (A) (A) (A) (A) (A)
                 (A) (A) (A) (A) (A) (A) (A) (A) (A) (A) (A) (A)
                 (A) (A) (A) (A) (A) (A) (A) (A) (A) (A) (A) (A)
                 (A) (A) (A) (A) (A) (A) (A) (A) (A) (A) (A) (A)
                 (A) (A) (A) (A) (A) (A) (A) (A) (A) (A) (A) (A)
                 (A) (A) (A) (A) (A) (A) (A) (A) (A) (A) (A) (A)
                 (A) (A) (A) (A) (A) (A) (A) (A) (A) (A) (A) (A)
                 (A) (A) (A) (A) (A) (A) (A) (A) (A) (A) (A) (A)
                 (A) (A) (A) (A) (A) (A) (A) (A) (A) (A) (A) (A)
                 (A) (A) (A) (A) (A) (A) (A) (A) (A) (A) (A) (A)
                 (A) (A) (A) (A) (A) (A) (A) (A) (A) (A) (A) (A)
                 (A) (A) (A) (A) (A) (A) (A) (A) (A) (A) (A) (A)
                 (A) (A) (A) (A) (A) (A) (A) (A) (A) (A) (A) (A)
                 (A) (A) (A) (A) (A) (A) (A) (A) (A) (A) (A) (A)
                 (A) (A) (A) (A) (A) (A) (A) (A) (A) (A) (A) (A)
                 (A) (A) (A) (A) (A) (A) (A) (A) (A) (A) (A) (A)
                 (A) (A) (A) (A) (A) (A) (A) (A) (A) (A) (A)
 The electronic state is 1-A.
 Alpha  occ. eigenvalues --  -25.20638 -25.20620 -19.69535 -19.69532 -19.68801
 Alpha  occ. eigenvalues --  -19.68779 -19.66839 -19.66700 -19.66233 -15.02839
 Alpha  occ. eigenvalues --  -15.02338 -14.78951 -14.78865 -10.67993 -10.64319
 Alpha  occ. eigenvalues --  -10.63582 -10.62001 -10.61966 -10.61786 -10.61131
 Alpha  occ. eigenvalues --  -10.60828 -10.60645 -10.60616 -10.60053 -10.60000
 Alpha  occ. eigenvalues --  -10.59753 -10.59199 -10.59138 -10.58866 -10.58688
 Alpha  occ. eigenvalues --  -10.57842 -10.57424 -10.57098 -10.56208 -10.56161
 Alpha  occ. eigenvalues --  -10.56047 -10.55910 -10.55908 -10.55886 -10.55815
 Alpha  occ. eigenvalues --  -10.55699 -10.55647 -10.55390 -10.55253 -10.55043
 Alpha  occ. eigenvalues --  -10.54956 -10.54948 -10.54892 -10.54819 -10.54461
 Alpha  occ. eigenvalues --   -7.13504  -1.38634  -1.37901  -1.32583  -1.29338
 Alpha  occ. eigenvalues --   -1.20713  -1.20198  -1.19679  -1.19524  -1.19467
 Alpha  occ. eigenvalues --   -1.11045  -1.09057  -1.03717  -0.97613  -0.97356
 Alpha  occ. eigenvalues --   -0.96549  -0.94858  -0.93206  -0.92052  -0.91849
 Alpha  occ. eigenvalues --   -0.90821  -0.90546  -0.88252  -0.86620  -0.85999
 Alpha  occ. eigenvalues --   -0.85813  -0.85422  -0.83600  -0.82396  -0.82133
 Alpha  occ. eigenvalues --   -0.80666  -0.80227  -0.79564  -0.78170  -0.75741
 Alpha  occ. eigenvalues --   -0.73532  -0.72857  -0.71936  -0.70806  -0.70514
 Alpha  occ. eigenvalues --   -0.70128  -0.69784  -0.68313  -0.67654  -0.66830
 Alpha  occ. eigenvalues --   -0.66346  -0.65478  -0.64310  -0.64165  -0.63742
 Alpha  occ. eigenvalues --   -0.63566  -0.63060  -0.62441  -0.62414  -0.62132
 Alpha  occ. eigenvalues --   -0.61706  -0.61410  -0.60304  -0.59499  -0.58779
 Alpha  occ. eigenvalues --   -0.58523  -0.58259  -0.57232  -0.57082  -0.56367
 Alpha  occ. eigenvalues --   -0.55697  -0.55378  -0.55281  -0.55009  -0.54511
 Alpha  occ. eigenvalues --   -0.54062  -0.53723  -0.53387  -0.52849  -0.52538
 Alpha  occ. eigenvalues --   -0.52437  -0.52306  -0.52147  -0.51223  -0.50467
 Alpha  occ. eigenvalues --   -0.50383  -0.50154  -0.50084  -0.49506  -0.49211
 Alpha  occ. eigenvalues --   -0.48794  -0.48647  -0.48424  -0.47938  -0.47744
 Alpha  occ. eigenvalues --   -0.47425  -0.47304  -0.47028  -0.46808  -0.46548
 Alpha  occ. eigenvalues --   -0.46377  -0.46212  -0.45737  -0.45129  -0.44824
 Alpha  occ. eigenvalues --   -0.44343  -0.44164  -0.43672  -0.43243  -0.42467
 Alpha  occ. eigenvalues --   -0.42327  -0.42299  -0.42188  -0.41990  -0.41747
 Alpha  occ. eigenvalues --   -0.41314  -0.40905  -0.40816  -0.40598  -0.40442
 Alpha  occ. eigenvalues --   -0.39796  -0.39630  -0.39363  -0.37161  -0.36686
 Alpha  occ. eigenvalues --   -0.35713  -0.35369  -0.33953  -0.32701  -0.32448
 Alpha  occ. eigenvalues --   -0.32276  -0.31739  -0.29696  -0.27110  -0.23325
 Alpha virt. eigenvalues --   -0.10236  -0.08693  -0.07435  -0.03379  -0.02113
 Alpha virt. eigenvalues --   -0.01269  -0.01010   0.00918   0.01061   0.01686
 Alpha virt. eigenvalues --    0.04957   0.05457   0.05811   0.06531   0.07087
 Alpha virt. eigenvalues --    0.07532   0.08024   0.08189   0.08281   0.08704
 Alpha virt. eigenvalues --    0.08810   0.09225   0.09923   0.10243   0.10404
 Alpha virt. eigenvalues --    0.10606   0.10783   0.11043   0.11230   0.11381
 Alpha virt. eigenvalues --    0.11607   0.12271   0.12608   0.13035   0.13089
 Alpha virt. eigenvalues --    0.13595   0.13635   0.13863   0.14014   0.14454
 Alpha virt. eigenvalues --    0.14780   0.15027   0.15157   0.15274   0.15521
 Alpha virt. eigenvalues --    0.15584   0.15605   0.15732   0.15993   0.16165
 Alpha virt. eigenvalues --    0.16427   0.16673   0.17078   0.17347   0.17874
 Alpha virt. eigenvalues --    0.18176   0.18602   0.18925   0.19014   0.19199
 Alpha virt. eigenvalues --    0.19371   0.19608   0.19987   0.20193   0.20286
 Alpha virt. eigenvalues --    0.20641   0.20856   0.21147   0.21305   0.21797
 Alpha virt. eigenvalues --    0.22016   0.22253   0.22351   0.22509   0.22587
 Alpha virt. eigenvalues --    0.22788   0.23150   0.23280   0.23571   0.23786
 Alpha virt. eigenvalues --    0.23901   0.24273   0.24305   0.24448   0.24877
 Alpha virt. eigenvalues --    0.25060   0.25223   0.25616   0.25797   0.25956
 Alpha virt. eigenvalues --    0.26282   0.26427   0.26585   0.26824   0.26849
 Alpha virt. eigenvalues --    0.27254   0.27308   0.27398   0.27772   0.27820
 Alpha virt. eigenvalues --    0.28052   0.28226   0.28397   0.28843   0.29190
 Alpha virt. eigenvalues --    0.29469   0.29649   0.29802   0.29863   0.29949
 Alpha virt. eigenvalues --    0.30391   0.30649   0.31123   0.31309   0.31478
 Alpha virt. eigenvalues --    0.31724   0.31812   0.32128   0.32560   0.32605
 Alpha virt. eigenvalues --    0.32832   0.32985   0.33408   0.33601   0.33869
 Alpha virt. eigenvalues --    0.34084   0.34259   0.34630   0.34812   0.34898
 Alpha virt. eigenvalues --    0.35294   0.35675   0.35812   0.36114   0.36130
 Alpha virt. eigenvalues --    0.36240   0.36530   0.36678   0.36800   0.36998
 Alpha virt. eigenvalues --    0.37379   0.37561   0.37656   0.37925   0.38136
 Alpha virt. eigenvalues --    0.38316   0.38350   0.38571   0.38604   0.38921
 Alpha virt. eigenvalues --    0.39139   0.39279   0.39497   0.39649   0.39763
 Alpha virt. eigenvalues --    0.40020   0.40277   0.40438   0.40671   0.40751
 Alpha virt. eigenvalues --    0.41077   0.41309   0.41653   0.41868   0.41962
 Alpha virt. eigenvalues --    0.42111   0.42239   0.42388   0.42620   0.42724
 Alpha virt. eigenvalues --    0.42881   0.42960   0.43106   0.43255   0.43525
 Alpha virt. eigenvalues --    0.43737   0.44094   0.44321   0.44590   0.44803
 Alpha virt. eigenvalues --    0.44876   0.45090   0.45355   0.45607   0.45809
 Alpha virt. eigenvalues --    0.46040   0.46317   0.46577   0.46851   0.47144
 Alpha virt. eigenvalues --    0.47211   0.47452   0.47639   0.47676   0.47995
 Alpha virt. eigenvalues --    0.48178   0.48306   0.48561   0.48807   0.49059
 Alpha virt. eigenvalues --    0.49494   0.49697   0.49846   0.50039   0.50295
 Alpha virt. eigenvalues --    0.50376   0.50535   0.50797   0.51003   0.51171
 Alpha virt. eigenvalues --    0.51290   0.51519   0.51797   0.52048   0.52169
 Alpha virt. eigenvalues --    0.52400   0.52657   0.52678   0.52916   0.53325
 Alpha virt. eigenvalues --    0.53527   0.53769   0.53832   0.54043   0.54434
 Alpha virt. eigenvalues --    0.54612   0.54919   0.55191   0.55298   0.55609
 Alpha virt. eigenvalues --    0.55856   0.56526   0.56711   0.56955   0.57116
 Alpha virt. eigenvalues --    0.57169   0.57645   0.57789   0.57954   0.58404
 Alpha virt. eigenvalues --    0.58560   0.58897   0.59463   0.59703   0.59777
 Alpha virt. eigenvalues --    0.60112   0.60330   0.60490   0.61019   0.61404
 Alpha virt. eigenvalues --    0.61558   0.61764   0.62050   0.62290   0.62711
 Alpha virt. eigenvalues --    0.62748   0.63081   0.63162   0.63248   0.63588
 Alpha virt. eigenvalues --    0.63906   0.64097   0.64161   0.64376   0.64776
 Alpha virt. eigenvalues --    0.64895   0.65073   0.65298   0.65611   0.65864
 Alpha virt. eigenvalues --    0.65981   0.66235   0.66418   0.66593   0.66804
 Alpha virt. eigenvalues --    0.67019   0.67300   0.67373   0.67531   0.67872
 Alpha virt. eigenvalues --    0.67938   0.68366   0.68480   0.68783   0.69176
 Alpha virt. eigenvalues --    0.69421   0.69673   0.69932   0.70019   0.70205
 Alpha virt. eigenvalues --    0.70865   0.71008   0.71160   0.71261   0.71454
 Alpha virt. eigenvalues --    0.71630   0.72009   0.72178   0.72391   0.72545
 Alpha virt. eigenvalues --    0.72712   0.73042   0.73210   0.73451   0.73612
 Alpha virt. eigenvalues --    0.73914   0.74102   0.74266   0.74532   0.74965
 Alpha virt. eigenvalues --    0.75187   0.75420   0.75498   0.75677   0.76208
 Alpha virt. eigenvalues --    0.76567   0.76837   0.77086   0.77232   0.77672
 Alpha virt. eigenvalues --    0.77700   0.78105   0.78327   0.78503   0.78852
 Alpha virt. eigenvalues --    0.79595   0.79843   0.80185   0.80556   0.80671
 Alpha virt. eigenvalues --    0.80842   0.81144   0.81493   0.81620   0.81710
 Alpha virt. eigenvalues --    0.81884   0.81997   0.82093   0.82327   0.82849
 Alpha virt. eigenvalues --    0.83093   0.83463   0.83717   0.83811   0.84075
 Alpha virt. eigenvalues --    0.84173   0.84905   0.85031   0.85213   0.85800
 Alpha virt. eigenvalues --    0.86041   0.86098   0.86750   0.86862   0.87148
 Alpha virt. eigenvalues --    0.87306   0.87721   0.88140   0.88323   0.88609
 Alpha virt. eigenvalues --    0.88731   0.88851   0.89248   0.89715   0.89824
 Alpha virt. eigenvalues --    0.90136   0.90599   0.90913   0.91245   0.91477
 Alpha virt. eigenvalues --    0.91704   0.91880   0.92030   0.92613   0.93054
 Alpha virt. eigenvalues --    0.93398   0.93671   0.94572   0.94736   0.95159
 Alpha virt. eigenvalues --    0.95242   0.95716   0.95780   0.96177   0.96510
 Alpha virt. eigenvalues --    0.96790   0.96884   0.97096   0.97385   0.97507
 Alpha virt. eigenvalues --    0.97753   0.98038   0.98388   0.98895   0.98975
 Alpha virt. eigenvalues --    0.99274   0.99588   0.99816   1.00053   1.00175
 Alpha virt. eigenvalues --    1.00420   1.00599   1.00906   1.01097   1.01363
 Alpha virt. eigenvalues --    1.01528   1.01862   1.01935   1.02202   1.02654
 Alpha virt. eigenvalues --    1.03379   1.03485   1.03582   1.03972   1.04106
 Alpha virt. eigenvalues --    1.04365   1.04566   1.04782   1.05017   1.05138
 Alpha virt. eigenvalues --    1.05377   1.05625   1.06085   1.06510   1.06642
 Alpha virt. eigenvalues --    1.06998   1.07302   1.07445   1.07614   1.07797
 Alpha virt. eigenvalues --    1.07974   1.08223   1.08684   1.09143   1.09274
 Alpha virt. eigenvalues --    1.09563   1.09753   1.10010   1.10404   1.10912
 Alpha virt. eigenvalues --    1.11312   1.11469   1.11677   1.11790   1.12190
 Alpha virt. eigenvalues --    1.12419   1.12496   1.12688   1.13447   1.13658
 Alpha virt. eigenvalues --    1.13818   1.14334   1.14730   1.15019   1.15701
 Alpha virt. eigenvalues --    1.16056   1.16410   1.16729   1.16816   1.17298
 Alpha virt. eigenvalues --    1.17853   1.17993   1.18208   1.18510   1.18752
 Alpha virt. eigenvalues --    1.19051   1.19413   1.19551   1.19930   1.20588
 Alpha virt. eigenvalues --    1.20769   1.20953   1.21300   1.21769   1.21923
 Alpha virt. eigenvalues --    1.22485   1.22882   1.23381   1.23493   1.23553
 Alpha virt. eigenvalues --    1.23829   1.24001   1.24637   1.24831   1.24949
 Alpha virt. eigenvalues --    1.25133   1.25286   1.25670   1.26146   1.26388
 Alpha virt. eigenvalues --    1.26783   1.26900   1.27097   1.27347   1.27718
 Alpha virt. eigenvalues --    1.27924   1.28414   1.28890   1.29204   1.29690
 Alpha virt. eigenvalues --    1.29863   1.30374   1.31041   1.31384   1.31491
 Alpha virt. eigenvalues --    1.31915   1.32183   1.32384   1.32475   1.32916
 Alpha virt. eigenvalues --    1.33054   1.33370   1.33825   1.34040   1.34430
 Alpha virt. eigenvalues --    1.34573   1.35106   1.35403   1.35688   1.35798
 Alpha virt. eigenvalues --    1.35989   1.36411   1.37105   1.37205   1.37442
 Alpha virt. eigenvalues --    1.37806   1.38259   1.38481   1.38858   1.39247
 Alpha virt. eigenvalues --    1.39514   1.39566   1.40079   1.40146   1.40678
 Alpha virt. eigenvalues --    1.40941   1.41110   1.41204   1.41533   1.41775
 Alpha virt. eigenvalues --    1.42263   1.42759   1.42925   1.43369   1.43447
 Alpha virt. eigenvalues --    1.43951   1.43966   1.44291   1.44488   1.45002
 Alpha virt. eigenvalues --    1.45202   1.45536   1.45660   1.45718   1.45921
 Alpha virt. eigenvalues --    1.46211   1.46250   1.46565   1.47257   1.47362
 Alpha virt. eigenvalues --    1.47627   1.48137   1.48531   1.48684   1.48916
 Alpha virt. eigenvalues --    1.49089   1.49199   1.49459   1.49733   1.49833
 Alpha virt. eigenvalues --    1.50374   1.50809   1.51006   1.51314   1.51715
 Alpha virt. eigenvalues --    1.51886   1.52347   1.52698   1.52941   1.53261
 Alpha virt. eigenvalues --    1.53666   1.53811   1.54135   1.54632   1.54712
 Alpha virt. eigenvalues --    1.54843   1.54992   1.55268   1.55693   1.55928
 Alpha virt. eigenvalues --    1.56317   1.56584   1.56757   1.56846   1.57055
 Alpha virt. eigenvalues --    1.57338   1.57543   1.57829   1.58147   1.58301
 Alpha virt. eigenvalues --    1.58561   1.59203   1.59607   1.59696   1.59722
 Alpha virt. eigenvalues --    1.59845   1.60424   1.60863   1.61153   1.61310
 Alpha virt. eigenvalues --    1.61643   1.61795   1.62104   1.62730   1.63169
 Alpha virt. eigenvalues --    1.63506   1.63942   1.64361   1.64576   1.64893
 Alpha virt. eigenvalues --    1.65672   1.66072   1.66466   1.66775   1.66836
 Alpha virt. eigenvalues --    1.67214   1.67425   1.67768   1.68203   1.68618
 Alpha virt. eigenvalues --    1.69255   1.69370   1.69487   1.69682   1.69808
 Alpha virt. eigenvalues --    1.69998   1.70318   1.70852   1.71121   1.71242
 Alpha virt. eigenvalues --    1.71641   1.71720   1.72208   1.72439   1.72979
 Alpha virt. eigenvalues --    1.73181   1.73353   1.73725   1.74611   1.75209
 Alpha virt. eigenvalues --    1.75451   1.75817   1.76729   1.77182   1.77394
 Alpha virt. eigenvalues --    1.77798   1.78351   1.78482   1.78764   1.79038
 Alpha virt. eigenvalues --    1.79458   1.79658   1.79798   1.80387   1.80897
 Alpha virt. eigenvalues --    1.81171   1.81708   1.81950   1.82120   1.82639
 Alpha virt. eigenvalues --    1.83115   1.84006   1.84407   1.85295   1.85622
 Alpha virt. eigenvalues --    1.85942   1.86696   1.87447   1.87586   1.87745
 Alpha virt. eigenvalues --    1.88431   1.88730   1.89236   1.89818   1.90227
 Alpha virt. eigenvalues --    1.90559   1.90815   1.90902   1.91198   1.91989
 Alpha virt. eigenvalues --    1.92432   1.93009   1.93183   1.93280   1.93841
 Alpha virt. eigenvalues --    1.94632   1.94873   1.95242   1.96026   1.96741
 Alpha virt. eigenvalues --    1.96857   1.97512   1.97666   1.97771   1.97929
 Alpha virt. eigenvalues --    1.98044   1.98425   1.98768   1.99088   1.99254
 Alpha virt. eigenvalues --    1.99518   1.99901   2.00226   2.01421   2.01672
 Alpha virt. eigenvalues --    2.02083   2.02221   2.02920   2.03553   2.04131
 Alpha virt. eigenvalues --    2.04298   2.04646   2.04996   2.05630   2.06142
 Alpha virt. eigenvalues --    2.06445   2.06919   2.07177   2.07804   2.08155
 Alpha virt. eigenvalues --    2.08723   2.09239   2.09589   2.09855   2.10524
 Alpha virt. eigenvalues --    2.10930   2.11467   2.11643   2.11931   2.12192
 Alpha virt. eigenvalues --    2.12353   2.12668   2.12882   2.13569   2.14128
 Alpha virt. eigenvalues --    2.14669   2.14964   2.15156   2.15593   2.15888
 Alpha virt. eigenvalues --    2.16660   2.16873   2.17537   2.17943   2.17988
 Alpha virt. eigenvalues --    2.18218   2.18532   2.18780   2.20027   2.20437
 Alpha virt. eigenvalues --    2.20655   2.21519   2.21899   2.22525   2.23132
 Alpha virt. eigenvalues --    2.23726   2.24135   2.24879   2.25220   2.25421
 Alpha virt. eigenvalues --    2.25586   2.26434   2.26645   2.26892   2.27597
 Alpha virt. eigenvalues --    2.27854   2.28554   2.28861   2.29724   2.30155
 Alpha virt. eigenvalues --    2.30555   2.30792   2.31038   2.31816   2.32239
 Alpha virt. eigenvalues --    2.33141   2.33653   2.34058   2.34502   2.35451
 Alpha virt. eigenvalues --    2.35513   2.35845   2.35938   2.36394   2.36936
 Alpha virt. eigenvalues --    2.37577   2.37709   2.37942   2.38620   2.39137
 Alpha virt. eigenvalues --    2.39394   2.39404   2.39704   2.40892   2.41577
 Alpha virt. eigenvalues --    2.42182   2.42790   2.43367   2.44006   2.44464
 Alpha virt. eigenvalues --    2.44895   2.45129   2.45698   2.46473   2.46785
 Alpha virt. eigenvalues --    2.48105   2.48369   2.48670   2.49554   2.50221
 Alpha virt. eigenvalues --    2.50504   2.51128   2.52162   2.52332   2.52764
 Alpha virt. eigenvalues --    2.53195   2.53870   2.54401   2.55170   2.55315
 Alpha virt. eigenvalues --    2.55620   2.55769   2.57144   2.57697   2.57724
 Alpha virt. eigenvalues --    2.58149   2.58211   2.58645   2.58952   2.59958
 Alpha virt. eigenvalues --    2.60204   2.60703   2.61193   2.61385   2.62545
 Alpha virt. eigenvalues --    2.62737   2.62899   2.63214   2.63626   2.63858
 Alpha virt. eigenvalues --    2.64677   2.65098   2.65523   2.65819   2.66326
 Alpha virt. eigenvalues --    2.66493   2.67099   2.67401   2.68543   2.68887
 Alpha virt. eigenvalues --    2.69575   2.69810   2.70215   2.70335   2.70360
 Alpha virt. eigenvalues --    2.70832   2.71152   2.71825   2.72021   2.72178
 Alpha virt. eigenvalues --    2.72292   2.72660   2.72942   2.73268   2.73560
 Alpha virt. eigenvalues --    2.74228   2.74364   2.74530   2.74888   2.74907
 Alpha virt. eigenvalues --    2.75330   2.75647   2.76025   2.76350   2.76429
 Alpha virt. eigenvalues --    2.76659   2.76774   2.77064   2.77444   2.77787
 Alpha virt. eigenvalues --    2.78068   2.78145   2.78457   2.78811   2.79203
 Alpha virt. eigenvalues --    2.79308   2.79571   2.79622   2.79785   2.80119
 Alpha virt. eigenvalues --    2.80477   2.80850   2.81098   2.81294   2.81599
 Alpha virt. eigenvalues --    2.81762   2.81984   2.82381   2.82494   2.83079
 Alpha virt. eigenvalues --    2.83344   2.83447   2.83588   2.84161   2.84638
 Alpha virt. eigenvalues --    2.84733   2.85435   2.85866   2.86028   2.86264
 Alpha virt. eigenvalues --    2.86445   2.87068   2.87183   2.87285   2.87383
 Alpha virt. eigenvalues --    2.87488   2.87847   2.88196   2.88852   2.88870
 Alpha virt. eigenvalues --    2.89102   2.89318   2.89431   2.89624   2.90109
 Alpha virt. eigenvalues --    2.90240   2.90389   2.90485   2.90977   2.91138
 Alpha virt. eigenvalues --    2.91425   2.91645   2.91797   2.92117   2.92320
 Alpha virt. eigenvalues --    2.92710   2.93001   2.93242   2.93425   2.93710
 Alpha virt. eigenvalues --    2.93952   2.94308   2.94423   2.94994   2.95121
 Alpha virt. eigenvalues --    2.95505   2.95824   2.95912   2.96069   2.96215
 Alpha virt. eigenvalues --    2.96661   2.96806   2.97575   2.97729   2.97893
 Alpha virt. eigenvalues --    2.98354   2.98504   2.98590   2.98824   2.99091
 Alpha virt. eigenvalues --    2.99202   2.99951   3.00077   3.00368   3.00712
 Alpha virt. eigenvalues --    3.00838   3.01033   3.01288   3.01405   3.01759
 Alpha virt. eigenvalues --    3.02291   3.02479   3.02866   3.03252   3.03311
 Alpha virt. eigenvalues --    3.03530   3.03743   3.03770   3.03998   3.04168
 Alpha virt. eigenvalues --    3.04652   3.04723   3.05088   3.05155   3.05449
 Alpha virt. eigenvalues --    3.06175   3.06387   3.06674   3.06992   3.07196
 Alpha virt. eigenvalues --    3.07256   3.07362   3.08082   3.08381   3.08535
 Alpha virt. eigenvalues --    3.08768   3.08993   3.09149   3.09264   3.09445
 Alpha virt. eigenvalues --    3.09889   3.10229   3.10501   3.10695   3.11063
 Alpha virt. eigenvalues --    3.11371   3.11544   3.12006   3.12131   3.12211
 Alpha virt. eigenvalues --    3.12599   3.12801   3.13136   3.13348   3.13820
 Alpha virt. eigenvalues --    3.13976   3.14246   3.14544   3.14974   3.15026
 Alpha virt. eigenvalues --    3.15504   3.15774   3.15853   3.15951   3.16197
 Alpha virt. eigenvalues --    3.16574   3.16761   3.16866   3.16955   3.17417
 Alpha virt. eigenvalues --    3.17637   3.17792   3.18132   3.18621   3.18683
 Alpha virt. eigenvalues --    3.18774   3.19157   3.19264   3.19425   3.20273
 Alpha virt. eigenvalues --    3.20646   3.20834   3.21094   3.21294   3.21818
 Alpha virt. eigenvalues --    3.21898   3.21991   3.22196   3.22642   3.22847
 Alpha virt. eigenvalues --    3.23256   3.23792   3.23972   3.24240   3.24579
 Alpha virt. eigenvalues --    3.24702   3.25023   3.25142   3.25479   3.25717
 Alpha virt. eigenvalues --    3.26200   3.26674   3.26823   3.27008   3.27062
 Alpha virt. eigenvalues --    3.27280   3.27718   3.27791   3.27940   3.28574
 Alpha virt. eigenvalues --    3.28628   3.28829   3.28957   3.29369   3.29747
 Alpha virt. eigenvalues --    3.29925   3.30303   3.30530   3.30710   3.30844
 Alpha virt. eigenvalues --    3.31249   3.31487   3.32098   3.32264   3.32283
 Alpha virt. eigenvalues --    3.32685   3.32806   3.33088   3.33267   3.33741
 Alpha virt. eigenvalues --    3.34206   3.34440   3.34693   3.34750   3.35373
 Alpha virt. eigenvalues --    3.35673   3.35753   3.36437   3.36525   3.36661
 Alpha virt. eigenvalues --    3.36904   3.37003   3.37053   3.37914   3.38142
 Alpha virt. eigenvalues --    3.38420   3.38762   3.39013   3.39228   3.39448
 Alpha virt. eigenvalues --    3.39747   3.40382   3.40508   3.40788   3.41222
 Alpha virt. eigenvalues --    3.41286   3.41563   3.42264   3.42550   3.42967
 Alpha virt. eigenvalues --    3.43508   3.44192   3.44461   3.44879   3.45039
 Alpha virt. eigenvalues --    3.45452   3.45627   3.45686   3.45839   3.46031
 Alpha virt. eigenvalues --    3.46244   3.46370   3.46615   3.47013   3.47275
 Alpha virt. eigenvalues --    3.47483   3.47599   3.47896   3.48134   3.48285
 Alpha virt. eigenvalues --    3.48597   3.48940   3.49094   3.49619   3.49859
 Alpha virt. eigenvalues --    3.50382   3.50819   3.50912   3.51499   3.51730
 Alpha virt. eigenvalues --    3.52074   3.52325   3.52631   3.52708   3.52954
 Alpha virt. eigenvalues --    3.53382   3.53549   3.54093   3.54242   3.54455
 Alpha virt. eigenvalues --    3.54923   3.55573   3.55886   3.55937   3.56213
 Alpha virt. eigenvalues --    3.56540   3.56978   3.57258   3.57591   3.58111
 Alpha virt. eigenvalues --    3.58280   3.58566   3.59007   3.59551   3.59927
 Alpha virt. eigenvalues --    3.60215   3.60447   3.60777   3.60910   3.61241
 Alpha virt. eigenvalues --    3.61708   3.61922   3.62334   3.62803   3.63218
 Alpha virt. eigenvalues --    3.63249   3.63770   3.64271   3.64700   3.64905
 Alpha virt. eigenvalues --    3.65134   3.65621   3.66148   3.66245   3.66496
 Alpha virt. eigenvalues --    3.66681   3.67117   3.67480   3.68215   3.68459
 Alpha virt. eigenvalues --    3.68677   3.69021   3.69568   3.70149   3.70385
 Alpha virt. eigenvalues --    3.70715   3.71085   3.71422   3.71695   3.71714
 Alpha virt. eigenvalues --    3.72217   3.72911   3.73027   3.73216   3.73512
 Alpha virt. eigenvalues --    3.74044   3.74236   3.74488   3.74885   3.75216
 Alpha virt. eigenvalues --    3.75714   3.75856   3.76615   3.76865   3.77237
 Alpha virt. eigenvalues --    3.77283   3.77406   3.77449   3.77686   3.78154
 Alpha virt. eigenvalues --    3.78684   3.79483   3.79613   3.79939   3.80439
 Alpha virt. eigenvalues --    3.80627   3.81031   3.81547   3.81823   3.82137
 Alpha virt. eigenvalues --    3.82181   3.83286   3.83571   3.83836   3.84040
 Alpha virt. eigenvalues --    3.84504   3.84565   3.84982   3.85191   3.85368
 Alpha virt. eigenvalues --    3.85952   3.85996   3.86751   3.86946   3.87444
 Alpha virt. eigenvalues --    3.87553   3.87789   3.88391   3.88455   3.88913
 Alpha virt. eigenvalues --    3.89134   3.89646   3.89892   3.90300   3.90591
 Alpha virt. eigenvalues --    3.90617   3.90719   3.91135   3.91358   3.91939
 Alpha virt. eigenvalues --    3.92256   3.92686   3.92845   3.93160   3.93456
 Alpha virt. eigenvalues --    3.94127   3.94592   3.94895   3.95010   3.95372
 Alpha virt. eigenvalues --    3.95684   3.95784   3.95850   3.96203   3.96417
 Alpha virt. eigenvalues --    3.96820   3.97299   3.97447   3.97918   3.98158
 Alpha virt. eigenvalues --    3.98809   3.98984   3.99091   3.99547   3.99687
 Alpha virt. eigenvalues --    4.00303   4.01072   4.01240   4.01578   4.01887
 Alpha virt. eigenvalues --    4.02291   4.02340   4.02677   4.02863   4.03426
 Alpha virt. eigenvalues --    4.03806   4.04135   4.04387   4.04527   4.05008
 Alpha virt. eigenvalues --    4.05486   4.05646   4.05942   4.06125   4.06644
 Alpha virt. eigenvalues --    4.06880   4.07183   4.07300   4.07851   4.07995
 Alpha virt. eigenvalues --    4.08188   4.08363   4.08617   4.08918   4.09099
 Alpha virt. eigenvalues --    4.09637   4.09694   4.09965   4.10239   4.10641
 Alpha virt. eigenvalues --    4.10674   4.11399   4.11951   4.12564   4.12791
 Alpha virt. eigenvalues --    4.12915   4.13658   4.13797   4.14180   4.14565
 Alpha virt. eigenvalues --    4.14898   4.15210   4.15405   4.15936   4.16143
 Alpha virt. eigenvalues --    4.16398   4.16751   4.17303   4.17338   4.17436
 Alpha virt. eigenvalues --    4.17693   4.17887   4.18297   4.18823   4.19013
 Alpha virt. eigenvalues --    4.19189   4.19308   4.19488   4.19779   4.20337
 Alpha virt. eigenvalues --    4.20504   4.20981   4.21306   4.21805   4.22064
 Alpha virt. eigenvalues --    4.22396   4.22749   4.23312   4.23395   4.23954
 Alpha virt. eigenvalues --    4.24156   4.24663   4.25004   4.25197   4.26246
 Alpha virt. eigenvalues --    4.26702   4.26938   4.27237   4.27497   4.27846
 Alpha virt. eigenvalues --    4.28602   4.28958   4.29295   4.29713   4.30154
 Alpha virt. eigenvalues --    4.30492   4.31344   4.31404   4.31495   4.31796
 Alpha virt. eigenvalues --    4.32431   4.32813   4.32933   4.33658   4.33700
 Alpha virt. eigenvalues --    4.34015   4.34630   4.34984   4.35264   4.35921
 Alpha virt. eigenvalues --    4.36519   4.36791   4.37250   4.37750   4.38532
 Alpha virt. eigenvalues --    4.39371   4.40241   4.40738   4.41210   4.41530
 Alpha virt. eigenvalues --    4.42073   4.42435   4.42492   4.43118   4.43824
 Alpha virt. eigenvalues --    4.44567   4.45284   4.45621   4.45882   4.46146
 Alpha virt. eigenvalues --    4.47034   4.47610   4.48034   4.48587   4.48843
 Alpha virt. eigenvalues --    4.48934   4.48966   4.49280   4.49774   4.50074
 Alpha virt. eigenvalues --    4.50211   4.50589   4.51228   4.51699   4.52587
 Alpha virt. eigenvalues --    4.53014   4.53863   4.54768   4.55135   4.56048
 Alpha virt. eigenvalues --    4.56550   4.57073   4.57441   4.57697   4.58333
 Alpha virt. eigenvalues --    4.58607   4.59428   4.60411   4.61442   4.61648
 Alpha virt. eigenvalues --    4.62348   4.63311   4.63692   4.64072   4.64510
 Alpha virt. eigenvalues --    4.64847   4.65443   4.65543   4.66457   4.66942
 Alpha virt. eigenvalues --    4.67131   4.67259   4.67931   4.68236   4.68428
 Alpha virt. eigenvalues --    4.69042   4.69632   4.70076   4.70268   4.70477
 Alpha virt. eigenvalues --    4.70729   4.71317   4.71540   4.72445   4.72925
 Alpha virt. eigenvalues --    4.73128   4.73404   4.74087   4.74482   4.75302
 Alpha virt. eigenvalues --    4.75522   4.75754   4.76361   4.76725   4.77473
 Alpha virt. eigenvalues --    4.77924   4.79124   4.80154   4.80363   4.81055
 Alpha virt. eigenvalues --    4.81495   4.82943   4.83857   4.84354   4.84820
 Alpha virt. eigenvalues --    4.85968   4.86446   4.86772   4.86889   4.87018
 Alpha virt. eigenvalues --    4.87763   4.88465   4.89393   4.89713   4.90149
 Alpha virt. eigenvalues --    4.90504   4.90893   4.91743   4.92027   4.92363
 Alpha virt. eigenvalues --    4.92897   4.92984   4.93173   4.93352   4.93604
 Alpha virt. eigenvalues --    4.93897   4.94218   4.94721   4.95402   4.95625
 Alpha virt. eigenvalues --    4.95719   4.95971   4.96194   4.97129   4.97385
 Alpha virt. eigenvalues --    4.98074   4.98461   4.98918   4.99211   4.99686
 Alpha virt. eigenvalues --    5.00261   5.01357   5.01835   5.02248   5.03301
 Alpha virt. eigenvalues --    5.03795   5.04308   5.04992   5.05251   5.05812
 Alpha virt. eigenvalues --    5.06123   5.06613   5.06923   5.07761   5.08201
 Alpha virt. eigenvalues --    5.08556   5.08883   5.08964   5.09988   5.10440
 Alpha virt. eigenvalues --    5.10802   5.11160   5.11637   5.12198   5.12685
 Alpha virt. eigenvalues --    5.12764   5.13259   5.13367   5.14228   5.14712
 Alpha virt. eigenvalues --    5.14853   5.15574   5.15758   5.16121   5.16562
 Alpha virt. eigenvalues --    5.16912   5.17494   5.17763   5.18363   5.18648
 Alpha virt. eigenvalues --    5.18949   5.19557   5.19871   5.19976   5.20672
 Alpha virt. eigenvalues --    5.21182   5.21223   5.21252   5.21368   5.22505
 Alpha virt. eigenvalues --    5.22889   5.23217   5.24063   5.24787   5.25089
 Alpha virt. eigenvalues --    5.25571   5.25920   5.27274   5.27637   5.27950
 Alpha virt. eigenvalues --    5.28308   5.28816   5.29085   5.29343   5.30161
 Alpha virt. eigenvalues --    5.30592   5.30667   5.31120   5.31307   5.31752
 Alpha virt. eigenvalues --    5.32842   5.33073   5.33368   5.34881   5.35919
 Alpha virt. eigenvalues --    5.36399   5.36827   5.37443   5.37656   5.37934
 Alpha virt. eigenvalues --    5.38240   5.38624   5.39173   5.39921   5.40474
 Alpha virt. eigenvalues --    5.40862   5.40945   5.41070   5.42377   5.42773
 Alpha virt. eigenvalues --    5.43560   5.43773   5.45401   5.46333   5.46965
 Alpha virt. eigenvalues --    5.48134   5.49002   5.49162   5.49198   5.50463
 Alpha virt. eigenvalues --    5.50909   5.51947   5.52496   5.53148   5.53264
 Alpha virt. eigenvalues --    5.53894   5.54660   5.55671   5.55786   5.56727
 Alpha virt. eigenvalues --    5.57536   5.58037   5.59035   5.59110   5.59243
 Alpha virt. eigenvalues --    5.59889   5.59941   5.60424   5.60610   5.61964
 Alpha virt. eigenvalues --    5.62177   5.63432   5.64387   5.64696   5.65148
 Alpha virt. eigenvalues --    5.65514   5.65836   5.66753   5.66938   5.67945
 Alpha virt. eigenvalues --    5.68292   5.68775   5.69671   5.71836   5.73523
 Alpha virt. eigenvalues --    5.74085   5.75800   5.76428   5.78128   5.78702
 Alpha virt. eigenvalues --    5.81739   5.82702   5.83076   5.84026   5.84117
 Alpha virt. eigenvalues --    5.85104   5.86295   5.90742   5.91540   5.91995
 Alpha virt. eigenvalues --    5.93968   5.95740   5.98322   6.00185   6.01913
 Alpha virt. eigenvalues --    6.01943   6.02787   6.04039   6.05741   6.06630
 Alpha virt. eigenvalues --    6.12033   6.17972   6.18580   6.19298   6.21619
 Alpha virt. eigenvalues --    6.25183   6.25476   6.27659   6.27980   6.28363
 Alpha virt. eigenvalues --    6.28929   6.31365   6.31690   6.35710   6.36344
 Alpha virt. eigenvalues --    6.38528   6.39359   6.41519   6.41668   6.41853
 Alpha virt. eigenvalues --    6.43136   6.43569   6.44615   6.45846   6.48926
 Alpha virt. eigenvalues --    6.50239   6.62158   6.67073   6.69314   6.69439
 Alpha virt. eigenvalues --    6.75033   6.75128   6.75139   6.80394   6.82825
 Alpha virt. eigenvalues --    6.83257   6.83745   6.83764   6.85991   6.87026
 Alpha virt. eigenvalues --    6.87446   6.87772   6.90873   6.90979   6.94095
 Alpha virt. eigenvalues --    6.95250   6.97217   6.98789   6.99551   7.00225
 Alpha virt. eigenvalues --    7.01722   7.04986   7.05988   7.08006   7.09124
 Alpha virt. eigenvalues --    7.11353   7.17481   7.20406   7.20711   7.22127
 Alpha virt. eigenvalues --    7.24266   7.25430   7.27009   7.27105   7.27139
 Alpha virt. eigenvalues --    7.33442   7.33518   7.34515   7.37641   7.42952
 Alpha virt. eigenvalues --    7.44662   7.44678   7.45593   7.50081   8.46124
 Alpha virt. eigenvalues --    8.48078   8.56390   8.61235   8.82056   8.87744
 Alpha virt. eigenvalues --    8.90555   8.92449   8.93756   9.00709  15.87080
 Alpha virt. eigenvalues --   22.77528  22.86471  22.88224  22.92379  22.98993
 Alpha virt. eigenvalues --   23.09790  23.10642  23.12348  23.13543  23.17269
 Alpha virt. eigenvalues --   23.17455  23.19560  23.23169  23.25250  23.28151
 Alpha virt. eigenvalues --   23.29181  23.30192  23.32333  23.32854  23.33369
 Alpha virt. eigenvalues --   23.35426  23.36366  23.40895  23.46452  23.52881
 Alpha virt. eigenvalues --   23.53864  23.54438  23.60792  23.64534  23.64857
 Alpha virt. eigenvalues --   23.69591  23.75676  23.85896  23.94075  23.99689
 Alpha virt. eigenvalues --   24.09737  24.10282  32.58848  32.63905  33.15571
 Alpha virt. eigenvalues --   33.27500  44.13609  44.20065  44.21169  44.25382
 Alpha virt. eigenvalues --   44.29502  44.48753  44.48884  57.37377  57.57783
          Condensed to atoms (all electrons):
 Mulliken charges:
               1
     1  B    0.342769
     2  N   -0.107115
     3  C   -0.029964
     4  C   -0.086086
     5  C    0.014805
     6  C    0.079852
     7  C    0.183583
     8  C   -0.078447
     9  O   -0.273407
    10  C   -0.556790
    11  C    0.176029
    12  C    0.067534
    13  N    0.442017
    14  O   -0.324961
    15  O   -0.333654
    16  C    0.005857
    17  C   -0.045619
    18  C   -0.098270
    19  C   -0.135598
    20  N    0.499356
    21  O   -0.355229
    22  O   -0.357463
    23  C    0.088609
    24  N   -0.082859
    25  C    0.027005
    26  C   -0.078452
    27  C    0.018001
    28  C   -0.469309
    29  C   -0.137286
    30  C   -0.039812
    31  C   -0.016928
    32  C   -0.175537
    33  C   -0.164796
    34  C    0.231573
    35  O   -0.298366
    36  C   -0.248740
    37  C   -0.189503
    38  C   -0.124684
    39  C   -0.471591
    40  C   -0.083209
    41  C   -0.079021
    42  C    0.011168
    43  C   -0.123033
    44  C   -0.188294
    45  C    0.227897
    46  O   -0.300641
    47  C   -0.248099
    48  C   -0.167646
    49  C   -0.185480
    50  F   -0.343267
    51  F   -0.345241
    52  H    0.164564
    53  H    0.236950
    54  H    0.259866
    55  H    0.207451
    56  H    0.201694
    57  H    0.164764
    58  H    0.166861
    59  H    0.154060
    60  H    0.136865
    61  H    0.186375
    62  H    0.128899
    63  H    0.115362
    64  H    0.148516
    65  H    0.153088
    66  H    0.148949
    67  H    0.149752
    68  H    0.150126
    69  H    0.158605
    70  H    0.144923
    71  H    0.150260
    72  H    0.178587
    73  H    0.147876
    74  H    0.101954
    75  H    0.120783
    76  H    0.142726
    77  H    0.157201
    78  H    0.148808
    79  H    0.148066
    80  H    0.149571
    81  H    0.151940
    82  H    0.152902
 Sum of Mulliken charges =  -0.00000
 Mulliken charges with hydrogens summed into heavy atoms:
               1
     1  B    0.342769
     2  N   -0.107115
     3  C   -0.029964
     4  C    0.078479
     5  C    0.014805
     6  C    0.079852
     7  C    0.183583
     8  C   -0.078447
     9  O   -0.273407
    10  C   -0.059973
    11  C    0.176029
    12  C    0.067534
    13  N    0.442017
    14  O   -0.324961
    15  O   -0.333654
    16  C    0.213308
    17  C   -0.045619
    18  C    0.103424
    19  C    0.029165
    20  N    0.499356
    21  O   -0.355229
    22  O   -0.357463
    23  C    0.088609
    24  N   -0.082859
    25  C    0.027005
    26  C    0.088409
    27  C    0.018001
    28  C    0.007991
    29  C   -0.008387
    30  C    0.075549
    31  C   -0.016928
    32  C   -0.027022
    33  C   -0.011708
    34  C    0.231573
    35  O   -0.298366
    36  C    0.200087
    37  C   -0.030898
    38  C    0.020239
    39  C    0.005131
    40  C    0.018745
    41  C    0.041762
    42  C    0.011168
    43  C    0.019693
    44  C   -0.031093
    45  C    0.227897
    46  O   -0.300641
    47  C    0.198346
    48  C   -0.015706
    49  C   -0.032578
    50  F   -0.343267
    51  F   -0.345241
 Electronic spatial extent (au):  <R**2>=          54128.2292
 Charge=             -0.0000 electrons
 Dipole moment (field-independent basis, Debye):
    X=             -5.7030    Y=             -2.5376    Z=              0.5743  Tot=              6.2684
 Quadrupole moment (field-independent basis, Debye-Ang):
   XX=           -302.8008   YY=           -236.4677   ZZ=           -310.2221
   XY=            -32.7701   XZ=             14.8315   YZ=            -18.8073
 Traceless Quadrupole moment (field-independent basis, Debye-Ang):
   XX=            -19.6373   YY=             46.6958   ZZ=            -27.0585
   XY=            -32.7701   XZ=             14.8315   YZ=            -18.8073
 Octapole moment (field-independent basis, Debye-Ang**2):
  XXX=          -1517.0275  YYY=            198.6027  ZZZ=              9.9769  XYY=           -245.7397
  XXY=             38.2827  XXZ=             45.3383  XZZ=             28.3534  YZZ=             15.1307
  YYZ=            -79.6688  XYZ=              7.4806
 Hexadecapole moment (field-independent basis, Debye-Ang**3):
 XXXX=         -58193.6771 YYYY=         -16207.0029 ZZZZ=          -1106.1317 XXXY=            149.1529
 XXXZ=           1068.3874 YYYX=          -2411.6136 YYYZ=           -547.6828 ZZZX=             21.2665
 ZZZY=              7.6277 XXYY=         -10328.3536 XXZZ=          -8989.1550 YYZZ=          -3532.5339
 XXYZ=           -480.5929 YYXZ=            260.3901 ZZXY=            -64.1951
 N-N= 6.077238087124D+03 E-N=-1.775328383768D+04  KE= 2.386043887221D+03
 No NMR shielding tensors so no spin-rotation constants.
 Leave Link  601 at Thu Nov  6 03:16:35 2025, MaxMem= 30870077440 cpu:             154.9 elap:               2.9
 (Enter /public/software/gauss/g16/l9999.exe)
 1\1\GINC-CU161\SP\RM062X\def2TZVPP\C37H31B1F2N4O7\BAIDING\06-Nov-2025\
 0\\#p M062X/DEF2TZVPP scrf=(solvent=water) em=GD3\\Energy calculation 
 for BE_OMe\\0,1\B,0,-1.110911,0.090013,-0.172491\N,0,-0.098055,1.24462
 5,-0.380304\C,0,-0.372386,2.577246,-0.54588\C,0,0.842775,3.250787,-0.8
 15444\C,0,1.885014,2.341097,-0.781696\C,0,1.286233,1.064864,-0.51536\C
 ,0,1.849045,-0.223789,-0.456564\C,0,3.354439,-0.391566,-0.559525\O,0,3
 .871816,-0.651797,-1.632077\C,0,4.128188,-0.239612,0.744789\C,0,5.6249
 27,-0.356794,0.58732\C,0,6.544878,0.698108,0.741421\N,0,6.129559,2.036
 701,1.176727\O,0,6.697743,3.004113,0.668748\O,0,5.24854,2.133009,2.034
 088\C,0,7.908377,0.556721,0.501444\C,0,8.374534,-0.693838,0.125987\C,0
 ,7.517015,-1.781028,-0.029899\C,0,6.15919,-1.593582,0.190715\N,0,9.807
 849,-0.86766,-0.108513\O,0,10.208791,-1.982376,-0.450559\O,0,10.547291
 ,0.107323,0.044838\C,0,1.051709,-1.370115,-0.354941\N,0,-0.336081,-1.2
 46472,-0.293709\C,0,-0.884641,-2.493429,-0.221849\C,0,0.169734,-3.4458
 98,-0.239562\C,0,1.373764,-2.774421,-0.323197\C,0,2.713895,-3.439462,-
 0.391298\C,0,-2.303608,-2.719457,-0.165936\C,0,-2.856108,-3.943863,0.0
 39294\C,0,-4.273346,-4.264344,0.097906\C,0,-5.300084,-3.313,-0.070228\
 C,0,-6.642519,-3.6694,-0.006682\C,0,-6.996603,-5.007452,0.230263\O,0,-
 8.281432,-5.461978,0.309471\C,0,-9.346681,-4.519799,0.135266\C,0,-5.99
 2087,-5.973362,0.40184\C,0,-4.658563,-5.603054,0.335763\C,0,3.325698,2
 .70448,-0.977677\C,0,-1.633338,3.27185,-0.466816\C,0,-2.812063,2.85868
 3,0.066196\C,0,-4.048546,3.6282,0.113549\C,0,-5.15553,3.084776,0.80333
 9\C,0,-6.361934,3.761454,0.890763\C,0,-6.505809,5.017894,0.281887\O,0,
 -7.729603,5.610708,0.417081\C,0,-7.931046,6.893574,-0.186861\C,0,-5.42
 458,5.580549,-0.414494\C,0,-4.220166,4.888766,-0.492983\F,0,-1.700504,
 0.166877,1.103851\F,0,-2.117758,0.144716,-1.145849\H,0,0.925892,4.3140
 33,-0.997894\H,0,3.817494,0.69398,1.213444\H,0,3.763972,-1.03472,1.408
 98\H,0,8.582074,1.393653,0.62261\H,0,7.90531,-2.748442,-0.32092\H,0,5.
 486453,-2.431893,0.056915\H,0,0.044991,-4.51948,-0.220136\H,0,3.355389
 ,-3.151923,0.448347\H,0,2.586995,-4.52401,-0.353491\H,0,3.247405,-3.19
 2349,-1.313489\H,0,-2.937304,-1.85201,-0.308283\H,0,-2.193217,-4.79497
 9,0.183384\H,0,-5.052055,-2.272824,-0.255457\H,0,-7.402258,-2.909448,-
 0.141647\H,0,-9.314533,-3.738619,0.901916\H,0,-9.312091,-4.061894,-0.8
 58756\H,0,-10.268129,-5.093475,0.239333\H,0,-6.279848,-7.003727,0.5840
 44\H,0,-3.88874,-6.358151,0.469055\H,0,3.828364,2.839736,-0.014159\H,0
 ,3.88471,1.961001,-1.548876\H,0,3.39279,3.655921,-1.511772\H,0,-1.5639
 ,4.283643,-0.859127\H,0,-2.865176,1.884136,0.537276\H,0,-5.055762,2.11
 2471,1.27785\H,0,-7.206245,3.335959,1.423597\H,0,-7.251194,7.641687,0.
 23418\H,0,-7.798367,6.846214,-1.272823\H,0,-8.961008,7.169575,0.041488
 \H,0,-5.516209,6.546092,-0.896632\H,0,-3.403627,5.342379,-1.045746\\Ve
 rsion=ES64L-G16RevA.03\State=1-A\HF=-2398.6904456\RMSD=3.446e-09\Dipol
 e=-2.2437202,-0.9983638,0.2259486\Quadrupole=-14.599832,34.7171904,-20
 .1173584,-24.3637562,11.0268416,-13.9827293\PG=C01 [X(C37H31B1F2N4O7)]
 \\@


 POCKETA-POCKETA
 BARON VON RICHTOFEN
 SLAUGHTERED THE ALLIES WITH
 HARDLY A CARE.
 KILLED EIGHTY-ONE WITH HIS
 BLOOD-COLORED TRIPLANE, THEN
 UN-AEROBATICALLY
 PLUNGED FROM THE AIR.
   -- TONY HOFFMAN
 Job cpu time:       0 days 20 hours 26 minutes  6.2 seconds.
 Elapsed time:       0 days  0 hours 19 minutes 29.4 seconds.
 File lengths (MBytes):  RWF=   2675 Int=      0 D2E=      0 Chk=    236 Scr=      1
 Normal termination of Gaussian 16 at Thu Nov  6 03:16:36 2025.
