 Entering Gaussian System, Link 0=g16
 Input=BE_OMe_reduced_sp.gjf
 Output=BE_OMe_reduced_sp.log
 Initial command:
 /public/software/gauss/g16/l1.exe "/public/home/baiding/1106_BE_sp/tmp_BE_OMe_reduced_sp_1571376/Gau-1390578.inp" -scrdir="/public/home/baiding/1106_BE_sp/tmp_BE_OMe_reduced_sp_1571376/"
 Entering Link 1 = /public/software/gauss/g16/l1.exe PID=   1390579.
  
 Copyright (c) 1988,1990,1992,1993,1995,1998,2003,2009,2016,
            Gaussian, Inc.  All Rights Reserved.
  
 This is part of the Gaussian(R) 16 program.  It is based on
 the Gaussian(R) 09 system (copyright 2009, Gaussian, Inc.),
 the Gaussian(R) 03 system (copyright 2003, Gaussian, Inc.),
 the Gaussian(R) 98 system (copyright 1998, Gaussian, Inc.),
 the Gaussian(R) 94 system (copyright 1995, Gaussian, Inc.),
 the Gaussian 92(TM) system (copyright 1992, Gaussian, Inc.),
 the Gaussian 90(TM) system (copyright 1990, Gaussian, Inc.),
 the Gaussian 88(TM) system (copyright 1988, Gaussian, Inc.),
 the Gaussian 86(TM) system (copyright 1986, Carnegie Mellon
 University), and the Gaussian 82(TM) system (copyright 1983,
 Carnegie Mellon University). Gaussian is a federally registered
 trademark of Gaussian, Inc.
  
 This software contains proprietary and confidential information,
 including trade secrets, belonging to Gaussian, Inc.
  
 This software is provided under written license and may be
 used, copied, transmitted, or stored only in accord with that
 written license.
  
 The following legend is applicable only to US Government
 contracts under FAR:
  
                    RESTRICTED RIGHTS LEGEND
  
 Use, reproduction and disclosure by the US Government is
 subject to restrictions as set forth in subparagraphs (a)
 and (c) of the Commercial Computer Software - Restricted
 Rights clause in FAR 52.227-19.
  
 Gaussian, Inc.
 340 Quinnipiac St., Bldg. 40, Wallingford CT 06492
  
  
 ---------------------------------------------------------------
 Warning -- This program may not be used in any manner that
 competes with the business of Gaussian, Inc. or will provide
 assistance to any competitor of Gaussian, Inc.  The licensee
 of this program is prohibited from giving any competitor of
 Gaussian, Inc. access to this program.  By using this program,
 the user acknowledges that Gaussian, Inc. is engaged in the
 business of creating and licensing software in the field of
 computational chemistry and represents and warrants to the
 licensee that it is not a competitor of Gaussian, Inc. and that
 it will not use this program in any manner prohibited above.
 ---------------------------------------------------------------
  

 Cite this work as:
 Gaussian 16, Revision A.03,
 M. J. Frisch, G. W. Trucks, H. B. Schlegel, G. E. Scuseria, 
 M. A. Robb, J. R. Cheeseman, G. Scalmani, V. Barone, 
 G. A. Petersson, H. Nakatsuji, X. Li, M. Caricato, A. V. Marenich, 
 J. Bloino, B. G. Janesko, R. Gomperts, B. Mennucci, H. P. Hratchian, 
 J. V. Ortiz, A. F. Izmaylov, J. L. Sonnenberg, D. Williams-Young, 
 F. Ding, F. Lipparini, F. Egidi, J. Goings, B. Peng, A. Petrone, 
 T. Henderson, D. Ranasinghe, V. G. Zakrzewski, J. Gao, N. Rega, 
 G. Zheng, W. Liang, M. Hada, M. Ehara, K. Toyota, R. Fukuda, 
 J. Hasegawa, M. Ishida, T. Nakajima, Y. Honda, O. Kitao, H. Nakai, 
 T. Vreven, K. Throssell, J. A. Montgomery, Jr., J. E. Peralta, 
 F. Ogliaro, M. J. Bearpark, J. J. Heyd, E. N. Brothers, K. N. Kudin, 
 V. N. Staroverov, T. A. Keith, R. Kobayashi, J. Normand, 
 K. Raghavachari, A. P. Rendell, J. C. Burant, S. S. Iyengar, 
 J. Tomasi, M. Cossi, J. M. Millam, M. Klene, C. Adamo, R. Cammi, 
 J. W. Ochterski, R. L. Martin, K. Morokuma, O. Farkas, 
 J. B. Foresman, and D. J. Fox, Gaussian, Inc., Wallingford CT, 2016.
 
 ******************************************
 Gaussian 16:  ES64L-G16RevA.03 25-Dec-2016
                 6-Nov-2025 
 ******************************************
 %nprocshared=64
 Will use up to   64 processors via shared memory.
 %mem=230GB
 %chk=BE_OMe_reduced_sp.chk
 ----------------------------------------------
 #p M062X/DEF2TZVPP scrf=(solvent=water) em=GD3
 ----------------------------------------------
 1/38=1,172=1/1;
 2/12=2,17=6,18=5,40=1/2;
 3/5=44,7=202,11=2,25=1,30=1,70=2201,72=1,74=-55,124=31/1,2,3;
 4//1;
 5/5=2,38=5,53=1/2;
 6/7=2,8=2,9=2,10=2,28=1/1;
 99/5=1,9=1/99;
 Leave Link    1 at Thu Nov  6 19:02:39 2025, MaxMem= 30870077440 cpu:              17.8 elap:               0.3
 (Enter /public/software/gauss/g16/l101.exe)
 -------------------------------------
 Energy calculation for BE_OMe_reduced
 -------------------------------------
 Symbolic Z-matrix:
 Charge = -1 Multiplicity = 2
 B                    -1.11286   0.09547  -0.21103 
 N                    -0.11225   1.25521  -0.44842 
 C                    -0.39548   2.58554  -0.61533 
 C                     0.81201   3.26322  -0.9103 
 C                     1.85842   2.35803  -0.89045 
 C                     1.27022   1.08123  -0.60557 
 C                     1.84489  -0.20153  -0.54122 
 C                     3.35585  -0.34542  -0.6203 
 O                     3.89912  -0.52596  -1.69808 
 C                     4.09633  -0.26208   0.70757 
 C                     5.59765  -0.36938   0.60215 
 C                     6.52328   0.69212   0.76547 
 N                     6.11451   2.02066   1.21054 
 O                     6.75192   3.00176   0.80577 
 O                     5.1525    2.12674   1.98553 
 C                     7.89037   0.55156   0.56174 
 C                     8.41109  -0.69913   0.19858 
 C                     7.52311  -1.78918   0.02874 
 C                     6.16495  -1.60123   0.22182 
 N                     9.78499  -0.85344   0.01974 
 O                     10.24822  -2.00628  -0.33292 
 O                     10.57548   0.15322   0.19856 
 C                     1.05482  -1.35211  -0.4274 
 N                    -0.33326  -1.23681  -0.3485 
 C                    -0.87349  -2.48767  -0.27685 
 C                     0.18532  -3.43358  -0.31895 
 C                     1.38462  -2.75397  -0.41438 
 C                     2.72735  -3.40889  -0.51804 
 C                    -2.29057  -2.7227   -0.1975 
 C                    -2.83258  -3.95036   0.01405 
 C                    -4.2473   -4.2788    0.09671 
 C                    -5.28205  -3.33308  -0.05164 
 C                    -6.62138  -3.69689   0.03513 
 C                    -6.96406  -5.03707   0.27603 
 O                    -8.24513  -5.49905   0.37729 
 C                    -9.31841  -4.56306   0.22075 
 C                    -5.95138  -5.99753   0.42823 
 C                    -4.62113  -5.61977   0.33912 
 C                     3.29324   2.71252  -1.13585 
 C                    -1.65805   3.27465  -0.51318 
 C                    -2.82191   2.85949   0.04972 
 C                    -4.06068   3.62405   0.12127 
 C                    -5.14502   3.08615   0.85017 
 C                    -6.35111   3.75972   0.96369 
 C                    -6.5177    5.00711   0.34227 
 O                    -7.73953   5.59764   0.50507 
 C                    -7.96209   6.87268  -0.10776 
 C                    -5.45974   5.56365  -0.3934 
 C                    -4.25527   4.87517  -0.49763 
 F                    -1.67186   0.1739    1.07896 
 F                    -2.14335   0.14176  -1.16014 
 H                     0.88729   4.32572  -1.10037 
 H                     3.76847   0.65279   1.20319 
 H                     3.69552  -1.07872   1.32403 
 H                     8.55387   1.39072   0.71059 
 H                     7.91612  -2.7576   -0.25011 
 H                     5.49947  -2.44527   0.07325 
 H                     0.06679  -4.50804  -0.3099 
 H                     3.36449  -3.17034   0.33993 
 H                     2.60524  -4.49433  -0.54666 
 H                     3.26372  -3.10356  -1.42079 
 H                    -2.93147  -1.85835  -0.32601 
 H                    -2.16285  -4.79838   0.14437 
 H                    -5.04319  -2.29125  -0.2396 
 H                    -7.38727  -2.94064  -0.08516 
 H                    -9.27861  -3.78192   0.98711 
 H                    -9.30256  -4.10442  -0.77344 
 H                    -10.23481  -5.142     0.33939 
 H                    -6.23008  -7.02979   0.61387 
 H                    -3.84502  -6.37088   0.45771 
 H                     3.88424   2.64325  -0.21724 
 H                     3.763     2.06863  -1.88329 
 H                     3.35883   3.74459  -1.48909 
 H                    -1.60253   4.28429  -0.91317 
 H                    -2.85897   1.88823   0.52918 
 H                    -5.02756   2.12094   1.33508 
 H                    -7.17766   3.33868   1.52706 
 H                    -7.27187   7.6273    0.28382 
 H                    -7.86204   6.81279  -1.19661 
 H                    -8.98543   7.14928   0.14809 
 H                    -5.5697    6.52177  -0.8864 
 H                    -3.45734   5.32353  -1.08107 
 
 ITRead=  0  0  0  0  0  0  0  0  0  0  0  0  0  0  0  0  0  0  0  0
 ITRead=  0  0  0  0  0  0  0  0  0  0  0  0  0  0  0  0  0  0  0  0
 ITRead=  0  0  0  0  0  0  0  0  0  0  0  0  0  0  0  0  0  0  0  0
 ITRead=  0  0  0  0  0  0  0  0  0  0  0  0  0  0  0  0  0  0  0  0
 ITRead=  0  0
 MicOpt= -1 -1 -1 -1 -1 -1 -1 -1 -1 -1 -1 -1 -1 -1 -1 -1 -1 -1 -1 -1
 MicOpt= -1 -1 -1 -1 -1 -1 -1 -1 -1 -1 -1 -1 -1 -1 -1 -1 -1 -1 -1 -1
 MicOpt= -1 -1 -1 -1 -1 -1 -1 -1 -1 -1 -1 -1 -1 -1 -1 -1 -1 -1 -1 -1
 MicOpt= -1 -1 -1 -1 -1 -1 -1 -1 -1 -1 -1 -1 -1 -1 -1 -1 -1 -1 -1 -1
 MicOpt= -1 -1
 NAtoms=     82 NQM=       82 NQMF=       0 NMMI=      0 NMMIF=      0
                NMic=       0 NMicF=      0.
                    Isotopes and Nuclear Properties:
 (Nuclear quadrupole moments (NQMom) in fm**2, nuclear magnetic moments (NMagM)
  in nuclear magnetons)

  Atom         1           2           3           4           5           6           7           8           9          10
 IAtWgt=          11          14          12          12          12          12          12          12          16          12
 AtmWgt=  11.0093053  14.0030740  12.0000000  12.0000000  12.0000000  12.0000000  12.0000000  12.0000000  15.9949146  12.0000000
 NucSpn=           3           2           0           0           0           0           0           0           0           0
 AtZEff=  -0.0000000  -0.0000000  -0.0000000  -0.0000000  -0.0000000  -0.0000000  -0.0000000  -0.0000000  -0.0000000  -0.0000000
 NQMom=    4.0590000   2.0440000   0.0000000   0.0000000   0.0000000   0.0000000   0.0000000   0.0000000   0.0000000   0.0000000
 NMagM=    2.6886370   0.4037610   0.0000000   0.0000000   0.0000000   0.0000000   0.0000000   0.0000000   0.0000000   0.0000000
 AtZNuc=   5.0000000   7.0000000   6.0000000   6.0000000   6.0000000   6.0000000   6.0000000   6.0000000   8.0000000   6.0000000

  Atom        11          12          13          14          15          16          17          18          19          20
 IAtWgt=          12          12          14          16          16          12          12          12          12          14
 AtmWgt=  12.0000000  12.0000000  14.0030740  15.9949146  15.9949146  12.0000000  12.0000000  12.0000000  12.0000000  14.0030740
 NucSpn=           0           0           2           0           0           0           0           0           0           2
 AtZEff=  -0.0000000  -0.0000000  -0.0000000  -0.0000000  -0.0000000  -0.0000000  -0.0000000  -0.0000000  -0.0000000  -0.0000000
 NQMom=    0.0000000   0.0000000   2.0440000   0.0000000   0.0000000   0.0000000   0.0000000   0.0000000   0.0000000   2.0440000
 NMagM=    0.0000000   0.0000000   0.4037610   0.0000000   0.0000000   0.0000000   0.0000000   0.0000000   0.0000000   0.4037610
 AtZNuc=   6.0000000   6.0000000   7.0000000   8.0000000   8.0000000   6.0000000   6.0000000   6.0000000   6.0000000   7.0000000

  Atom        21          22          23          24          25          26          27          28          29          30
 IAtWgt=          16          16          12          14          12          12          12          12          12          12
 AtmWgt=  15.9949146  15.9949146  12.0000000  14.0030740  12.0000000  12.0000000  12.0000000  12.0000000  12.0000000  12.0000000
 NucSpn=           0           0           0           2           0           0           0           0           0           0
 AtZEff=  -0.0000000  -0.0000000  -0.0000000  -0.0000000  -0.0000000  -0.0000000  -0.0000000  -0.0000000  -0.0000000  -0.0000000
 NQMom=    0.0000000   0.0000000   0.0000000   2.0440000   0.0000000   0.0000000   0.0000000   0.0000000   0.0000000   0.0000000
 NMagM=    0.0000000   0.0000000   0.0000000   0.4037610   0.0000000   0.0000000   0.0000000   0.0000000   0.0000000   0.0000000
 AtZNuc=   8.0000000   8.0000000   6.0000000   7.0000000   6.0000000   6.0000000   6.0000000   6.0000000   6.0000000   6.0000000

  Atom        31          32          33          34          35          36          37          38          39          40
 IAtWgt=          12          12          12          12          16          12          12          12          12          12
 AtmWgt=  12.0000000  12.0000000  12.0000000  12.0000000  15.9949146  12.0000000  12.0000000  12.0000000  12.0000000  12.0000000
 NucSpn=           0           0           0           0           0           0           0           0           0           0
 AtZEff=  -0.0000000  -0.0000000  -0.0000000  -0.0000000  -0.0000000  -0.0000000  -0.0000000  -0.0000000  -0.0000000  -0.0000000
 NQMom=    0.0000000   0.0000000   0.0000000   0.0000000   0.0000000   0.0000000   0.0000000   0.0000000   0.0000000   0.0000000
 NMagM=    0.0000000   0.0000000   0.0000000   0.0000000   0.0000000   0.0000000   0.0000000   0.0000000   0.0000000   0.0000000
 AtZNuc=   6.0000000   6.0000000   6.0000000   6.0000000   8.0000000   6.0000000   6.0000000   6.0000000   6.0000000   6.0000000

  Atom        41          42          43          44          45          46          47          48          49          50
 IAtWgt=          12          12          12          12          12          16          12          12          12          19
 AtmWgt=  12.0000000  12.0000000  12.0000000  12.0000000  12.0000000  15.9949146  12.0000000  12.0000000  12.0000000  18.9984033
 NucSpn=           0           0           0           0           0           0           0           0           0           1
 AtZEff=  -0.0000000  -0.0000000  -0.0000000  -0.0000000  -0.0000000  -0.0000000  -0.0000000  -0.0000000  -0.0000000  -0.0000000
 NQMom=    0.0000000   0.0000000   0.0000000   0.0000000   0.0000000   0.0000000   0.0000000   0.0000000   0.0000000   0.0000000
 NMagM=    0.0000000   0.0000000   0.0000000   0.0000000   0.0000000   0.0000000   0.0000000   0.0000000   0.0000000   2.6288670
 AtZNuc=   6.0000000   6.0000000   6.0000000   6.0000000   6.0000000   8.0000000   6.0000000   6.0000000   6.0000000   9.0000000

  Atom        51          52          53          54          55          56          57          58          59          60
 IAtWgt=          19           1           1           1           1           1           1           1           1           1
 AtmWgt=  18.9984033   1.0078250   1.0078250   1.0078250   1.0078250   1.0078250   1.0078250   1.0078250   1.0078250   1.0078250
 NucSpn=           1           1           1           1           1           1           1           1           1           1
 AtZEff=  -0.0000000  -0.0000000  -0.0000000  -0.0000000  -0.0000000  -0.0000000  -0.0000000  -0.0000000  -0.0000000  -0.0000000
 NQMom=    0.0000000   0.0000000   0.0000000   0.0000000   0.0000000   0.0000000   0.0000000   0.0000000   0.0000000   0.0000000
 NMagM=    2.6288670   2.7928460   2.7928460   2.7928460   2.7928460   2.7928460   2.7928460   2.7928460   2.7928460   2.7928460
 AtZNuc=   9.0000000   1.0000000   1.0000000   1.0000000   1.0000000   1.0000000   1.0000000   1.0000000   1.0000000   1.0000000

  Atom        61          62          63          64          65          66          67          68          69          70
 IAtWgt=           1           1           1           1           1           1           1           1           1           1
 AtmWgt=   1.0078250   1.0078250   1.0078250   1.0078250   1.0078250   1.0078250   1.0078250   1.0078250   1.0078250   1.0078250
 NucSpn=           1           1           1           1           1           1           1           1           1           1
 AtZEff=  -0.0000000  -0.0000000  -0.0000000  -0.0000000  -0.0000000  -0.0000000  -0.0000000  -0.0000000  -0.0000000  -0.0000000
 NQMom=    0.0000000   0.0000000   0.0000000   0.0000000   0.0000000   0.0000000   0.0000000   0.0000000   0.0000000   0.0000000
 NMagM=    2.7928460   2.7928460   2.7928460   2.7928460   2.7928460   2.7928460   2.7928460   2.7928460   2.7928460   2.7928460
 AtZNuc=   1.0000000   1.0000000   1.0000000   1.0000000   1.0000000   1.0000000   1.0000000   1.0000000   1.0000000   1.0000000

  Atom        71          72          73          74          75          76          77          78          79          80
 IAtWgt=           1           1           1           1           1           1           1           1           1           1
 AtmWgt=   1.0078250   1.0078250   1.0078250   1.0078250   1.0078250   1.0078250   1.0078250   1.0078250   1.0078250   1.0078250
 NucSpn=           1           1           1           1           1           1           1           1           1           1
 AtZEff=  -0.0000000  -0.0000000  -0.0000000  -0.0000000  -0.0000000  -0.0000000  -0.0000000  -0.0000000  -0.0000000  -0.0000000
 NQMom=    0.0000000   0.0000000   0.0000000   0.0000000   0.0000000   0.0000000   0.0000000   0.0000000   0.0000000   0.0000000
 NMagM=    2.7928460   2.7928460   2.7928460   2.7928460   2.7928460   2.7928460   2.7928460   2.7928460   2.7928460   2.7928460
 AtZNuc=   1.0000000   1.0000000   1.0000000   1.0000000   1.0000000   1.0000000   1.0000000   1.0000000   1.0000000   1.0000000

  Atom        81          82
 IAtWgt=           1           1
 AtmWgt=   1.0078250   1.0078250
 NucSpn=           1           1
 AtZEff=  -0.0000000  -0.0000000
 NQMom=    0.0000000   0.0000000
 NMagM=    2.7928460   2.7928460
 AtZNuc=   1.0000000   1.0000000
 Leave Link  101 at Thu Nov  6 19:02:39 2025, MaxMem= 30870077440 cpu:               4.0 elap:               0.1
 (Enter /public/software/gauss/g16/l202.exe)
 Stoichiometry    C37H31BF2N4O7(1-,2)
 Framework group  C1[X(C37H31BF2N4O7)]
 Deg. of freedom   240
 Full point group                 C1      NOp   1
 Largest Abelian subgroup         C1      NOp   1
 Largest concise Abelian subgroup C1      NOp   1
                         Standard orientation:                         
 ---------------------------------------------------------------------
 Center     Atomic      Atomic             Coordinates (Angstroms)
 Number     Number       Type             X           Y           Z
 ---------------------------------------------------------------------
      1          5           0       -1.112857    0.095474   -0.211032
      2          7           0       -0.112247    1.255211   -0.448424
      3          6           0       -0.395481    2.585544   -0.615332
      4          6           0        0.812005    3.263215   -0.910303
      5          6           0        1.858422    2.358030   -0.890454
      6          6           0        1.270220    1.081225   -0.605571
      7          6           0        1.844889   -0.201530   -0.541218
      8          6           0        3.355847   -0.345416   -0.620297
      9          8           0        3.899122   -0.525959   -1.698075
     10          6           0        4.096325   -0.262084    0.707565
     11          6           0        5.597646   -0.369384    0.602150
     12          6           0        6.523277    0.692118    0.765474
     13          7           0        6.114508    2.020664    1.210538
     14          8           0        6.751924    3.001765    0.805771
     15          8           0        5.152499    2.126741    1.985532
     16          6           0        7.890374    0.551562    0.561739
     17          6           0        8.411094   -0.699131    0.198582
     18          6           0        7.523108   -1.789177    0.028742
     19          6           0        6.164953   -1.601226    0.221816
     20          7           0        9.784991   -0.853439    0.019740
     21          8           0       10.248217   -2.006275   -0.332917
     22          8           0       10.575478    0.153219    0.198561
     23          6           0        1.054823   -1.352113   -0.427402
     24          7           0       -0.333261   -1.236805   -0.348497
     25          6           0       -0.873491   -2.487674   -0.276848
     26          6           0        0.185317   -3.433577   -0.318949
     27          6           0        1.384621   -2.753972   -0.414376
     28          6           0        2.727347   -3.408887   -0.518043
     29          6           0       -2.290570   -2.722702   -0.197500
     30          6           0       -2.832577   -3.950359    0.014053
     31          6           0       -4.247305   -4.278798    0.096707
     32          6           0       -5.282054   -3.333079   -0.051637
     33          6           0       -6.621378   -3.696892    0.035127
     34          6           0       -6.964057   -5.037075    0.276028
     35          8           0       -8.245135   -5.499053    0.377290
     36          6           0       -9.318412   -4.563059    0.220749
     37          6           0       -5.951380   -5.997531    0.428232
     38          6           0       -4.621133   -5.619772    0.339115
     39          6           0        3.293237    2.712521   -1.135849
     40          6           0       -1.658050    3.274645   -0.513176
     41          6           0       -2.821908    2.859491    0.049717
     42          6           0       -4.060684    3.624049    0.121274
     43          6           0       -5.145022    3.086146    0.850169
     44          6           0       -6.351108    3.759719    0.963686
     45          6           0       -6.517701    5.007108    0.342270
     46          8           0       -7.739526    5.597644    0.505072
     47          6           0       -7.962090    6.872684   -0.107764
     48          6           0       -5.459738    5.563650   -0.393399
     49          6           0       -4.255273    4.875170   -0.497630
     50          9           0       -1.671861    0.173898    1.078955
     51          9           0       -2.143352    0.141759   -1.160138
     52          1           0        0.887287    4.325718   -1.100370
     53          1           0        3.768469    0.652791    1.203190
     54          1           0        3.695518   -1.078719    1.324030
     55          1           0        8.553867    1.390715    0.710594
     56          1           0        7.916121   -2.757601   -0.250114
     57          1           0        5.499472   -2.445273    0.073254
     58          1           0        0.066785   -4.508035   -0.309903
     59          1           0        3.364486   -3.170338    0.339925
     60          1           0        2.605241   -4.494327   -0.546663
     61          1           0        3.263720   -3.103564   -1.420787
     62          1           0       -2.931467   -1.858346   -0.326005
     63          1           0       -2.162850   -4.798378    0.144366
     64          1           0       -5.043195   -2.291248   -0.239603
     65          1           0       -7.387271   -2.940640   -0.085163
     66          1           0       -9.278608   -3.781918    0.987112
     67          1           0       -9.302558   -4.104416   -0.773438
     68          1           0      -10.234815   -5.142003    0.339389
     69          1           0       -6.230082   -7.029788    0.613871
     70          1           0       -3.845016   -6.370884    0.457711
     71          1           0        3.884237    2.643245   -0.217242
     72          1           0        3.762996    2.068626   -1.883290
     73          1           0        3.358829    3.744589   -1.489086
     74          1           0       -1.602534    4.284288   -0.913172
     75          1           0       -2.858965    1.888225    0.529184
     76          1           0       -5.027557    2.120938    1.335079
     77          1           0       -7.177659    3.338683    1.527058
     78          1           0       -7.271870    7.627298    0.283823
     79          1           0       -7.862037    6.812789   -1.196615
     80          1           0       -8.985433    7.149276    0.148089
     81          1           0       -5.569701    6.521772   -0.886400
     82          1           0       -3.457338    5.323531   -1.081074
 ---------------------------------------------------------------------
 Rotational constants (GHZ):           0.0665820           0.0239041           0.0180224
 Leave Link  202 at Thu Nov  6 19:02:39 2025, MaxMem= 30870077440 cpu:               0.2 elap:               0.0
 (Enter /public/software/gauss/g16/l301.exe)
 Standard basis: def2TZVPP (5D, 7F)
 Ernie: Thresh=  0.10000D-02 Tol=  0.10000D-05 Strict=F.
 There are  2301 symmetry adapted cartesian basis functions of A   symmetry.
 There are  2015 symmetry adapted basis functions of A   symmetry.
  2015 basis functions,  3128 primitive gaussians,  2301 cartesian basis functions
   181 alpha electrons      180 beta electrons
       nuclear repulsion energy      6069.8811302385 Hartrees.
 IExCor= 4336 DFT=T Ex+Corr=M062X ExCW=0 ScaHFX=  0.540000
 ScaDFX=  1.000000  1.000000  1.000000  1.000000 ScalE2=  1.000000  1.000000
 IRadAn=      5 IRanWt=     -1 IRanGd=            0 ICorTp=0 IEmpDi=131
 NAtoms=   82 NActive=   82 NUniq=   82 SFac= 1.00D+00 NAtFMM=   60 NAOKFM=T Big=T
 Integral buffers will be    131072 words long.
 Raffenetti 2 integral format.
 Two-electron integral symmetry is turned on.
 R6Disp:  Grimme-D3 Dispersion energy=       -0.0071209186 Hartrees.
 Nuclear repulsion after empirical dispersion term =     6069.8740093199 Hartrees.
 ------------------------------------------------------------------------------
 Polarizable Continuum Model (PCM)
 =================================
 Model                : PCM.
 Atomic radii         : UFF (Universal Force Field).
 Polarization charges : Total charges.
 Charge compensation  : None.
 Solution method      : On-the-fly selection.
 Cavity type          : Scaled VdW (van der Waals Surface) (Alpha=1.100).
 Cavity algorithm     : GePol (No added spheres)
                        Default sphere list used, NSphG=   82.
                        Lebedev-Laikov grids with approx.  5.0 points / Ang**2.
                        Smoothing algorithm: York/Karplus (Gamma=1.0000).
                        Polarization charges: spherical gaussians, with
                                              point-specific exponents (IZeta= 3).
                        Self-potential: point-specific (ISelfS= 7).
                        Self-field    : sphere-specific E.n sum rule (ISelfD= 2).
 Solvent              : Water, Eps=  78.355300 Eps(inf)=   1.777849
 ------------------------------------------------------------------------------
 GePol: Number of generator spheres                  =      82
 GePol: Total number of spheres                      =      82
 GePol: Number of exposed spheres                    =      82 (100.00%)
 GePol: Number of points                             =    5981
 GePol: Average weight of points                     =       0.13
 GePol: Minimum weight of points                     =   0.38D-11
 GePol: Maximum weight of points                     =    0.20577
 GePol: Number of points with low weight             =     390
 GePol: Fraction of low-weight points (<1% of avg)   =       6.52%
 GePol: Cavity surface area                          =    751.977 Ang**2
 GePol: Cavity volume                                =    880.747 Ang**3
 Leave Link  301 at Thu Nov  6 19:02:39 2025, MaxMem= 30870077440 cpu:               3.7 elap:               0.1
 (Enter /public/software/gauss/g16/l302.exe)
 NPDir=0 NMtPBC=     1 NCelOv=     1 NCel=       1 NClECP=     1 NCelD=      1
         NCelK=      1 NCelE2=     1 NClLst=     1 CellRange=     0.0.
 One-electron integrals computed using PRISM.
 One-electron integral symmetry used in STVInt
   1 Symmetry operations used in ECPInt.
 ECPInt:  NShTT=  279378 NPrTT=  805761 LenC2=  161924 LenP2D=  310297.
 LDataN:  DoStor=T MaxTD1= 6 Len=  172
 NBasis=  2015 RedAO= T EigKep=  4.11D-06  NBF=  2015
 NBsUse=  2015 1.00D-06 EigRej= -1.00D+00 NBFU=  2015
 Precomputing XC quadrature grid using
 IXCGrd= 4 IRadAn=           5 IRanWt=          -1 IRanGd=           0 AccXCQ= 0.00D+00.
 Generated NRdTot=       0 NPtTot=           0 NUsed=           0 NTot=          32
 NSgBfM=  1881  1881  1881  1881  1881 MxSgAt=    82 MxSgA2=    82.
 Leave Link  302 at Thu Nov  6 19:02:51 2025, MaxMem= 30870077440 cpu:             758.7 elap:              12.0
 (Enter /public/software/gauss/g16/l303.exe)
 DipDrv:  MaxL=1.
 Leave Link  303 at Thu Nov  6 19:02:52 2025, MaxMem= 30870077440 cpu:              32.0 elap:               0.6
 (Enter /public/software/gauss/g16/l401.exe)
 ExpMin= 6.06D-02 ExpMax= 3.55D+04 ExpMxC= 1.21D+03 IAcc=3 IRadAn=         5 AccDes= 0.00D+00
 Harris functional with IExCor= 1009 and IRadAn=       5 diagonalized for initial guess.
 HarFok:  IExCor= 1009 AccDes= 0.00D+00 IRadAn=         5 IDoV= 1 UseB2=F ITyADJ=14
 ICtDFT=  3500011 ScaDFX=  1.000000  1.000000  1.000000  1.000000
 FoFCou: FMM=F IPFlag=           0 FMFlag=      100000 FMFlg1=        2001
         NFxFlg=           0 DoJE=T BraDBF=F KetDBF=T FulRan=T
         wScrn=  0.000000 ICntrl=       500 IOpCl=  0 I1Cent=   200000004 NGrid=           0
         NMat0=    1 NMatS0=      1 NMatT0=    0 NMatD0=    1 NMtDS0=    0 NMtDT0=    0
 Petite list used in FoFCou.
 Harris En= -2397.69923522120    
 JPrj=0 DoOrth=F DoCkMO=F.
 Initial guess <Sx>= 0.0000 <Sy>= 0.0000 <Sz>= 0.5000 <S**2>= 0.7500 S= 0.5000
 Leave Link  401 at Thu Nov  6 19:03:04 2025, MaxMem= 30870077440 cpu:             791.9 elap:              12.5
 (Enter /public/software/gauss/g16/l502.exe)
 Integral symmetry usage will be decided dynamically.
 UHF open shell SCF:
 Using DIIS extrapolation, IDIIS=  1040.
 NGot= 30870077440 LenX= 30859321692 LenY= 30854024790
 Requested convergence on RMS density matrix=1.00D-08 within 128 cycles.
 Requested convergence on MAX density matrix=1.00D-06.
 Requested convergence on             energy=1.00D-06.
 No special actions if energy rises.
 Fock matrices will be formed incrementally for  20 cycles.

 Cycle   1  Pass 1  IDiag  1:
 FoFJK:  IHMeth= 1 ICntrl=       0 DoSepK=F KAlg= 0 I1Cent=           0 FoldK=F
 IRaf= 540000000 NMat=       1 IRICut=       1 DoRegI=T DoRafI=F ISym2E= 0 IDoP0=0 IntGTp=1.
 FoFCou: FMM=T IPFlag=           0 FMFlag=      100000 FMFlg1=        2001
         NFxFlg=           0 DoJE=F BraDBF=F KetDBF=F FulRan=T
         wScrn=  0.000000 ICntrl=         0 IOpCl=  1 I1Cent=           0 NGrid=           0
         NMat0=    1 NMatS0=      1 NMatT0=    0 NMatD0=    1 NMtDS0=    0 NMtDT0=    0
 Symmetry not used in FoFCou.
 FMM levels:  10  Number of levels for PrismC:   9
 Inv3:  Mode=1 IEnd=   107317083.
 Iteration    1 A*A^-1 deviation from unit magnitude is 6.66D-15 for   5981.
 Iteration    1 A*A^-1 deviation from orthogonality  is 5.79D-15 for   5955   1958.
 Iteration    1 A^-1*A deviation from unit magnitude is 6.66D-15 for   5981.
 Iteration    1 A^-1*A deviation from orthogonality  is 2.40D-15 for   4667   4654.
 E= -2397.49739770404    
 DIIS: error= 2.30D-02 at cycle   1 NSaved=   1.
 NSaved= 1 IEnMin= 1 EnMin= -2397.49739770404     IErMin= 1 ErrMin= 2.30D-02
 ErrMax= 2.30D-02  0.00D+00 EMaxC= 1.00D-01 BMatC= 6.99D+00 BMatP= 6.99D+00
 IDIUse=3 WtCom= 7.70D-01 WtEn= 2.30D-01
 Coeff-Com:  0.100D+01
 Coeff-En:   0.100D+01
 Coeff:      0.100D+01
 Gap=    -0.028 Goal=   None    Shift=    0.000
 Gap=     0.131 Goal=   None    Shift=    0.000
 GapD=   -0.028 DampG=0.250 DampE=0.500 DampFc=0.2500 IDamp=-1.
 Damping current iteration by 2.50D-01
 RMSDP=2.64D-03 MaxDP=7.01D-01              OVMax= 9.59D-01

 Cycle   2  Pass 1  IDiag  1:
 RMSU=  6.57D-04    CP:  1.02D+00
 E= -2397.92673278356     Delta-E=       -0.429335079512 Rises=F Damp=T
 DIIS: error= 1.07D-02 at cycle   2 NSaved=   2.
 NSaved= 2 IEnMin= 2 EnMin= -2397.92673278356     IErMin= 2 ErrMin= 1.07D-02
 ErrMax= 1.07D-02  0.00D+00 EMaxC= 1.00D-01 BMatC= 2.31D+00 BMatP= 6.99D+00
 IDIUse=3 WtCom= 8.93D-01 WtEn= 1.07D-01
 Coeff-Com: -0.960D+00 0.196D+01
 Coeff-En:   0.000D+00 0.100D+01
 Coeff:     -0.858D+00 0.186D+01
 Gap=    -0.026 Goal=   None    Shift=    0.000
 Gap=    -0.142 Goal=   None    Shift=    0.000
 RMSDP=1.06D-03 MaxDP=1.68D-01 DE=-4.29D-01 OVMax= 9.87D-01

 Cycle   3  Pass 1  IDiag  1:
 RMSU=  9.22D-04    CP:  1.02D+00  1.79D+00
 E= -2398.62692163993     Delta-E=       -0.700188856377 Rises=F Damp=F
 DIIS: error= 1.60D-02 at cycle   3 NSaved=   3.
 NSaved= 3 IEnMin= 3 EnMin= -2398.62692163993     IErMin= 2 ErrMin= 1.07D-02
 ErrMax= 1.60D-02  0.00D+00 EMaxC= 1.00D-01 BMatC= 7.55D-01 BMatP= 2.31D+00
 IDIUse=3 WtCom= 8.40D-01 WtEn= 1.60D-01
 Coeff-Com: -0.585D+00 0.104D+01 0.540D+00
 Coeff-En:   0.000D+00 0.000D+00 0.100D+01
 Coeff:     -0.491D+00 0.877D+00 0.614D+00
 Gap=     0.063 Goal=   None    Shift=    0.000
 Gap=     0.123 Goal=   None    Shift=    0.000
 RMSDP=5.70D-04 MaxDP=1.17D-01 DE=-7.00D-01 OVMax= 5.56D-01

 Cycle   4  Pass 1  IDiag  1:
 RMSU=  4.63D-04    CP:  1.01D+00  1.70D+00  6.49D-01
 E= -2398.78428331314     Delta-E=       -0.157361673204 Rises=F Damp=F
 DIIS: error= 6.08D-03 at cycle   4 NSaved=   4.
 NSaved= 4 IEnMin= 4 EnMin= -2398.78428331314     IErMin= 4 ErrMin= 6.08D-03
 ErrMax= 6.08D-03  0.00D+00 EMaxC= 1.00D-01 BMatC= 8.32D-02 BMatP= 7.55D-01
 IDIUse=3 WtCom= 9.39D-01 WtEn= 6.08D-02
 Coeff-Com: -0.128D+00 0.208D+00 0.267D+00 0.653D+00
 Coeff-En:   0.000D+00 0.000D+00 0.000D+00 0.100D+01
 Coeff:     -0.121D+00 0.196D+00 0.251D+00 0.674D+00
 Gap=     0.031 Goal=   None    Shift=    0.000
 Gap=     0.128 Goal=   None    Shift=    0.000
 RMSDP=1.32D-04 MaxDP=3.11D-02 DE=-1.57D-01 OVMax= 1.95D-01

 Cycle   5  Pass 1  IDiag  1:
 RMSU=  1.21D-04    CP:  1.01D+00  1.68D+00  6.86D-01  9.23D-01
 E= -2398.79929349115     Delta-E=       -0.015010178009 Rises=F Damp=F
 DIIS: error= 2.66D-03 at cycle   5 NSaved=   5.
 NSaved= 5 IEnMin= 5 EnMin= -2398.79929349115     IErMin= 5 ErrMin= 2.66D-03
 ErrMax= 2.66D-03  0.00D+00 EMaxC= 1.00D-01 BMatC= 1.87D-02 BMatP= 8.32D-02
 IDIUse=3 WtCom= 9.73D-01 WtEn= 2.66D-02
 Coeff-Com: -0.347D-01 0.487D-01 0.823D-01 0.381D+00 0.523D+00
 Coeff-En:   0.000D+00 0.000D+00 0.000D+00 0.133D+00 0.867D+00
 Coeff:     -0.337D-01 0.474D-01 0.801D-01 0.374D+00 0.532D+00
 Gap=     0.035 Goal=   None    Shift=    0.000
 Gap=     0.121 Goal=   None    Shift=    0.000
 RMSDP=5.32D-05 MaxDP=7.99D-03 DE=-1.50D-02 OVMax= 4.69D-02

 Cycle   6  Pass 1  IDiag  1:
 RMSU=  4.47D-05    CP:  1.01D+00  1.68D+00  6.64D-01  9.67D-01  9.84D-01
 E= -2398.80344562393     Delta-E=       -0.004152132780 Rises=F Damp=F
 DIIS: error= 3.97D-04 at cycle   6 NSaved=   6.
 NSaved= 6 IEnMin= 6 EnMin= -2398.80344562393     IErMin= 6 ErrMin= 3.97D-04
 ErrMax= 3.97D-04  0.00D+00 EMaxC= 1.00D-01 BMatC= 1.37D-03 BMatP= 1.87D-02
 IDIUse=3 WtCom= 9.96D-01 WtEn= 3.97D-03
 Coeff-Com: -0.256D-02 0.181D-02-0.127D-01 0.502D-01 0.232D+00 0.731D+00
 Coeff-En:   0.000D+00 0.000D+00 0.000D+00 0.000D+00 0.000D+00 0.100D+01
 Coeff:     -0.255D-02 0.180D-02-0.126D-01 0.500D-01 0.231D+00 0.732D+00
 Gap=     0.041 Goal=   None    Shift=    0.000
 Gap=     0.125 Goal=   None    Shift=    0.000
 RMSDP=3.75D-05 MaxDP=6.22D-03 DE=-4.15D-03 OVMax= 3.78D-02

 Cycle   7  Pass 1  IDiag  1:
 RMSU=  2.50D-05    CP:  1.01D+00  1.69D+00  6.57D-01  9.80D-01  1.19D+00
                    CP:  1.13D+00
 E= -2398.80403629182     Delta-E=       -0.000590667887 Rises=F Damp=F
 DIIS: error= 3.07D-04 at cycle   7 NSaved=   7.
 NSaved= 7 IEnMin= 7 EnMin= -2398.80403629182     IErMin= 7 ErrMin= 3.07D-04
 ErrMax= 3.07D-04  0.00D+00 EMaxC= 1.00D-01 BMatC= 3.00D-04 BMatP= 1.37D-03
 IDIUse=3 WtCom= 9.97D-01 WtEn= 3.07D-03
 Coeff-Com:  0.326D-02-0.537D-02-0.230D-01-0.356D-01 0.139D-01 0.325D+00
 Coeff-Com:  0.721D+00
 Coeff-En:   0.000D+00 0.000D+00 0.000D+00 0.000D+00 0.000D+00 0.000D+00
 Coeff-En:   0.100D+01
 Coeff:      0.325D-02-0.536D-02-0.230D-01-0.354D-01 0.139D-01 0.324D+00
 Coeff:      0.722D+00
 Gap=     0.043 Goal=   None    Shift=    0.000
 Gap=     0.125 Goal=   None    Shift=    0.000
 RMSDP=2.57D-05 MaxDP=3.68D-03 DE=-5.91D-04 OVMax= 2.95D-02

 Cycle   8  Pass 1  IDiag  1:
 RMSU=  1.26D-05    CP:  1.01D+00  1.68D+00  6.55D-01  9.83D-01  1.33D+00
                    CP:  1.32D+00  1.44D+00
 E= -2398.80429507354     Delta-E=       -0.000258781723 Rises=F Damp=F
 DIIS: error= 2.48D-04 at cycle   8 NSaved=   8.
 NSaved= 8 IEnMin= 8 EnMin= -2398.80429507354     IErMin= 8 ErrMin= 2.48D-04
 ErrMax= 2.48D-04  0.00D+00 EMaxC= 1.00D-01 BMatC= 1.30D-04 BMatP= 3.00D-04
 IDIUse=3 WtCom= 9.98D-01 WtEn= 2.48D-03
 Coeff-Com:  0.120D-02-0.202D-02-0.133D-01-0.199D-01-0.325D-01 0.556D-01
 Coeff-Com:  0.262D+00 0.749D+00
 Coeff-En:   0.000D+00 0.000D+00 0.000D+00 0.000D+00 0.000D+00 0.000D+00
 Coeff-En:   0.000D+00 0.100D+01
 Coeff:      0.120D-02-0.201D-02-0.132D-01-0.198D-01-0.324D-01 0.555D-01
 Coeff:      0.261D+00 0.749D+00
 Gap=     0.044 Goal=   None    Shift=    0.000
 Gap=     0.123 Goal=   None    Shift=    0.000
 RMSDP=2.20D-05 MaxDP=2.46D-03 DE=-2.59D-04 OVMax= 3.45D-02

 Cycle   9  Pass 1  IDiag  1:
 RMSU=  8.33D-06    CP:  1.01D+00  1.68D+00  6.54D-01  9.78D-01  1.43D+00
                    CP:  1.41D+00  1.93D+00  1.74D+00
 E= -2398.80450566222     Delta-E=       -0.000210588685 Rises=F Damp=F
 DIIS: error= 2.70D-04 at cycle   9 NSaved=   9.
 NSaved= 9 IEnMin= 9 EnMin= -2398.80450566222     IErMin= 8 ErrMin= 2.48D-04
 ErrMax= 2.70D-04  0.00D+00 EMaxC= 1.00D-01 BMatC= 1.47D-04 BMatP= 1.30D-04
 IDIUse=3 WtCom= 9.98D-01 WtEn= 2.48D-03
 Coeff-Com:  0.731D-03-0.142D-02-0.113D-01-0.102D-01-0.251D-01 0.293D-01
 Coeff-Com:  0.702D-01 0.531D+00 0.417D+00
 Coeff-En:   0.000D+00 0.000D+00 0.000D+00 0.000D+00 0.000D+00 0.000D+00
 Coeff-En:   0.000D+00 0.000D+00 0.100D+01
 Coeff:      0.729D-03-0.142D-02-0.113D-01-0.102D-01-0.250D-01 0.292D-01
 Coeff:      0.701D-01 0.529D+00 0.419D+00
 Gap=     0.045 Goal=   None    Shift=    0.000
 Gap=     0.122 Goal=   None    Shift=    0.000
 RMSDP=1.30D-05 MaxDP=1.54D-03 DE=-2.11D-04 OVMax= 2.26D-02

 Cycle  10  Pass 1  IDiag  1:
 RMSU=  2.81D-06    CP:  1.01D+00  1.68D+00  6.53D-01  9.75D-01  1.48D+00
                    CP:  1.45D+00  2.17D+00  2.27D+00  1.71D+00
 E= -2398.80464921517     Delta-E=       -0.000143552950 Rises=F Damp=F
 DIIS: error= 2.95D-04 at cycle  10 NSaved=  10.
 NSaved=10 IEnMin=10 EnMin= -2398.80464921517     IErMin= 8 ErrMin= 2.48D-04
 ErrMax= 2.95D-04  0.00D+00 EMaxC= 1.00D-01 BMatC= 1.48D-04 BMatP= 1.30D-04
 IDIUse=3 WtCom= 9.98D-01 WtEn= 2.48D-03
 Coeff-Com:  0.706D-03-0.136D-02-0.109D-01-0.103D-01-0.283D-01 0.165D-01
 Coeff-Com:  0.678D-01 0.598D+00 0.599D+00-0.231D+00
 Coeff-En:   0.000D+00 0.000D+00 0.000D+00 0.000D+00 0.000D+00 0.000D+00
 Coeff-En:   0.000D+00 0.000D+00 0.000D+00 0.100D+01
 Coeff:      0.705D-03-0.135D-02-0.108D-01-0.102D-01-0.282D-01 0.165D-01
 Coeff:      0.676D-01 0.596D+00 0.598D+00-0.228D+00
 Gap=     0.045 Goal=   None    Shift=    0.000
 Gap=     0.122 Goal=   None    Shift=    0.000
 RMSDP=3.76D-06 MaxDP=4.47D-04 DE=-1.44D-04 OVMax= 7.20D-03

 Cycle  11  Pass 1  IDiag  1:
 RMSU=  4.52D-07    CP:  1.01D+00  1.68D+00  6.53D-01  9.76D-01  1.47D+00
                    CP:  1.45D+00  2.11D+00  2.13D+00  1.45D+00  6.17D-01
 E= -2398.80460589204     Delta-E=        0.000043323138 Rises=F Damp=F
 DIIS: error= 2.90D-04 at cycle  11 NSaved=  11.
 NSaved=11 IEnMin=10 EnMin= -2398.80464921517     IErMin= 8 ErrMin= 2.48D-04
 ErrMax= 2.90D-04  0.00D+00 EMaxC= 1.00D-01 BMatC= 1.42D-04 BMatP= 1.30D-04
 IDIUse=3 WtCom= 9.98D-01 WtEn= 2.48D-03
 Large coefficients: NSaved= 11 BigCof=   13.98 CofMax=   10.00 Det=-5.79D-08
 Inversion failed.  Reducing to 10 matrices.
 Large coefficients: NSaved= 10 BigCof=   13.74 CofMax=   10.00 Det=-6.01D-08
 Inversion failed.  Reducing to  9 matrices.
 Large coefficients: NSaved=  9 BigCof=   13.77 CofMax=   10.00 Det=-6.02D-08
 Inversion failed.  Reducing to  8 matrices.
 Large coefficients: NSaved=  8 BigCof=   15.87 CofMax=   10.00 Det=-1.08D-07
 Inversion failed.  Reducing to  7 matrices.
 Large coefficients: NSaved=  7 BigCof=   16.75 CofMax=   10.00 Det=-1.14D-07
 Inversion failed.  Reducing to  6 matrices.
 Large coefficients: NSaved=  6 BigCof=   20.93 CofMax=   10.00 Det=-1.23D-07
 Inversion failed.  Reducing to  5 matrices.
 Large coefficients: NSaved=  5 BigCof=   19.85 CofMax=   10.00 Det=-1.36D-07
 Inversion failed.  Reducing to  4 matrices.
 Large coefficients: NSaved=  4 BigCof=   18.81 CofMax=   10.00 Det=-1.48D-07
 Inversion failed.  Reducing to  3 matrices.
 Large coefficients: NSaved=  3 BigCof=   20.65 CofMax=   10.00 Det=-1.57D-07
 Inversion failed.  Reducing to  2 matrices.
 Large coefficients: NSaved=  2 BigCof=   16.68 CofMax=   10.00 Det=-2.03D-07
 Coeff-Com: -0.157D+02 0.167D+02
 Coeff-En:   0.000D+00 0.100D+01
 Coeff:     -0.156D+02 0.166D+02
 Gap=     0.042 Goal=   None    Shift=    0.000
 Gap=     0.126 Goal=   None    Shift=    0.000
 RMSDP=4.59D-05 MaxDP=5.77D-03 DE= 4.33D-05 OVMax= 9.39D-02

 Cycle  12  Pass 1  IDiag  1:
 RMSU=  1.14D-05    CP:  1.01D+00  1.68D+00  6.54D-01  9.88D-01  1.31D+00
                    CP:  1.48D+00  1.68D+00  6.11D-01 -2.02D+00 -3.00D+00
                    CP:  3.00D+00
 E= -2398.80418214694     Delta-E=        0.000423745094 Rises=F Damp=F
 DIIS: error= 1.74D-04 at cycle  12 NSaved=   3.
 NSaved= 3 IEnMin= 1 EnMin= -2398.80464921517     IErMin= 3 ErrMin= 1.74D-04
 ErrMax= 1.74D-04  0.00D+00 EMaxC= 1.00D-01 BMatC= 1.17D-04 BMatP= 1.42D-04
 IDIUse=3 WtCom= 9.98D-01 WtEn= 1.74D-03
 Large coefficients: NSaved=  3 BigCof=   13.60 CofMax=   10.00 Det=-1.98D-07
 Inversion failed.  Reducing to  2 matrices.
 Coeff-Com:  0.460D+00 0.540D+00
 Coeff-En:   0.000D+00 0.100D+01
 Coeff:      0.459D+00 0.541D+00
 Gap=     0.044 Goal=   None    Shift=    0.000
 Gap=     0.123 Goal=   None    Shift=    0.000
 RMSDP=4.23D-05 MaxDP=5.29D-03 DE= 4.24D-04 OVMax= 8.32D-02

 Cycle  13  Pass 1  IDiag  1:
 RMSU=  3.75D-06    CP:  1.01D+00  1.68D+00  6.54D-01  9.75D-01  1.47D+00
                    CP:  1.50D+00  2.21D+00  2.21D+00  8.71D-01 -8.44D-01
                    CP:  3.00D+00  2.21D-01
 E= -2398.80455306492     Delta-E=       -0.000370917975 Rises=F Damp=F
 DIIS: error= 2.59D-04 at cycle  13 NSaved=   3.
 NSaved= 3 IEnMin= 1 EnMin= -2398.80460589204     IErMin= 2 ErrMin= 1.74D-04
 ErrMax= 2.59D-04  0.00D+00 EMaxC= 1.00D-01 BMatC= 1.64D-04 BMatP= 1.17D-04
 IDIUse=3 WtCom= 9.98D-01 WtEn= 1.74D-03
 Coeff-Com: -0.178D+00 0.596D+00 0.582D+00
 Coeff-En:   0.000D+00 0.000D+00 0.100D+01
 Coeff:     -0.178D+00 0.595D+00 0.583D+00
 Gap=     0.044 Goal=   None    Shift=    0.000
 Gap=     0.124 Goal=   None    Shift=    0.000
 RMSDP=7.38D-06 MaxDP=1.06D-03 DE=-3.71D-04 OVMax= 1.28D-02

 Cycle  14  Pass 1  IDiag  1:
 RMSU=  2.24D-06    CP:  1.01D+00  1.68D+00  6.55D-01  9.74D-01  1.46D+00
                    CP:  1.51D+00  2.21D+00  2.01D+00  3.79D-01 -2.37D+00
                    CP:  3.00D+00  3.91D-01  1.07D+00
 E= -2398.80448958370     Delta-E=        0.000063481217 Rises=F Damp=F
 DIIS: error= 2.94D-04 at cycle  14 NSaved=   4.
 NSaved= 4 IEnMin= 1 EnMin= -2398.80460589204     IErMin= 2 ErrMin= 1.74D-04
 ErrMax= 2.94D-04  0.00D+00 EMaxC= 1.00D-01 BMatC= 1.33D-04 BMatP= 1.17D-04
 IDIUse=3 WtCom= 9.98D-01 WtEn= 1.74D-03
 Rare condition: small coef for last iteration:  0.000D+00
 Coeff-Com: -0.208D+01 0.615D+00 0.508D+00 0.196D+01
 Coeff-En:   0.000D+00 0.000D+00 0.000D+00 0.100D+01
 Coeff:     -0.208D+01 0.615D+00 0.508D+00 0.196D+01
 Gap=     0.043 Goal=   None    Shift=    0.000
 Gap=     0.127 Goal=   None    Shift=    0.000
 RMSDP=3.09D-05 MaxDP=3.53D-03 DE= 6.35D-05 OVMax= 6.21D-02

 Cycle  15  Pass 1  IDiag  1:
 RMSU=  4.54D-06    CP:  1.01D+00  1.68D+00  6.57D-01  9.76D-01  1.39D+00
                    CP:  1.60D+00  2.16D+00  1.34D+00 -2.06D+00 -3.00D+00
                    CP:  3.00D+00  1.89D+00  1.51D+00 -4.67D-01
 E= -2398.80424154746     Delta-E=        0.000248036240 Rises=F Damp=F
 DIIS: error= 1.57D-04 at cycle  15 NSaved=   5.
 NSaved= 5 IEnMin= 1 EnMin= -2398.80460589204     IErMin= 5 ErrMin= 1.57D-04
 ErrMax= 1.57D-04  0.00D+00 EMaxC= 1.00D-01 BMatC= 4.46D-05 BMatP= 1.17D-04
 IDIUse=3 WtCom= 9.98D-01 WtEn= 1.57D-03
 Rare condition: small coef for last iteration:  0.000D+00
 Coeff-Com: -0.172D+01 0.384D+00 0.211D+00 0.128D+01 0.845D+00
 Coeff-En:   0.000D+00 0.000D+00 0.000D+00 0.000D+00 0.100D+01
 Coeff:     -0.172D+01 0.384D+00 0.211D+00 0.128D+01 0.845D+00
 Gap=     0.043 Goal=   None    Shift=    0.000
 Gap=     0.129 Goal=   None    Shift=    0.000
 RMSDP=2.05D-05 MaxDP=2.64D-03 DE= 2.48D-04 OVMax= 4.12D-02

 Cycle  16  Pass 1  IDiag  1:
 RMSU=  6.18D-06    CP:  1.01D+00  1.68D+00  6.58D-01  9.77D-01  1.33D+00
                    CP:  1.63D+00  2.11D+00  8.36D-01 -3.00D+00 -3.00D+00
                    CP:  3.00D+00  2.89D+00  1.51D+00 -1.54D+00  1.56D+00
 E= -2398.80413901941     Delta-E=        0.000102528049 Rises=F Damp=F
 DIIS: error= 7.59D-05 at cycle  16 NSaved=   6.
 NSaved= 6 IEnMin= 1 EnMin= -2398.80460589204     IErMin= 6 ErrMin= 7.59D-05
 ErrMax= 7.59D-05  0.00D+00 EMaxC= 1.00D-01 BMatC= 9.09D-06 BMatP= 4.46D-05
 IDIUse=1 WtCom= 1.00D+00 WtEn= 0.00D+00
 Coeff-Com:  0.790D+00-0.353D-01-0.825D-01-0.106D+01 0.102D+00 0.128D+01
 Coeff:      0.790D+00-0.353D-01-0.825D-01-0.106D+01 0.102D+00 0.128D+01
 Gap=     0.042 Goal=   None    Shift=    0.000
 Gap=     0.130 Goal=   None    Shift=    0.000
 RMSDP=5.32D-06 MaxDP=5.70D-04 DE= 1.03D-04 OVMax= 5.50D-03

 Cycle  17  Pass 1  IDiag  1:
 RMSU=  1.58D-06    CP:  1.01D+00  1.68D+00  6.59D-01  9.77D-01  1.31D+00
                    CP:  1.60D+00  2.00D+00  6.68D-01 -3.00D+00 -3.00D+00
                    CP:  3.00D+00  2.80D+00  1.49D+00 -1.62D+00  1.55D+00
                    CP:  1.18D+00
 E= -2398.80413370469     Delta-E=        0.000005314723 Rises=F Damp=F
 DIIS: error= 6.72D-05 at cycle  17 NSaved=   7.
 NSaved= 7 IEnMin= 1 EnMin= -2398.80460589204     IErMin= 7 ErrMin= 6.72D-05
 ErrMax= 6.72D-05  0.00D+00 EMaxC= 1.00D-01 BMatC= 1.31D-05 BMatP= 9.09D-06
 IDIUse=1 WtCom= 1.00D+00 WtEn= 0.00D+00
 Coeff-Com:  0.136D+01-0.170D+00-0.171D+00-0.158D+01-0.182D+00 0.117D+01
 Coeff-Com:  0.579D+00
 Coeff:      0.136D+01-0.170D+00-0.171D+00-0.158D+01-0.182D+00 0.117D+01
 Coeff:      0.579D+00
 Gap=     0.041 Goal=   None    Shift=    0.000
 Gap=     0.131 Goal=   None    Shift=    0.000
 RMSDP=8.73D-06 MaxDP=1.25D-03 DE= 5.31D-06 OVMax= 1.78D-02

 Cycle  18  Pass 1  IDiag  1:
 RMSU=  1.73D-06    CP:  1.01D+00  1.68D+00  6.59D-01  9.78D-01  1.28D+00
                    CP:  1.59D+00  1.89D+00  3.84D-01 -3.00D+00 -3.00D+00
                    CP:  3.00D+00  3.00D+00  1.42D+00 -1.97D+00  1.60D+00
                    CP:  2.00D+00  9.72D-01
 E= -2398.80411766995     Delta-E=        0.000016034741 Rises=F Damp=F
 DIIS: error= 2.93D-05 at cycle  18 NSaved=   8.
 NSaved= 8 IEnMin= 1 EnMin= -2398.80460589204     IErMin= 8 ErrMin= 2.93D-05
 ErrMax= 2.93D-05  0.00D+00 EMaxC= 1.00D-01 BMatC= 2.07D-06 BMatP= 9.09D-06
 IDIUse=1 WtCom= 1.00D+00 WtEn= 0.00D+00
 Coeff-Com:  0.728D+00-0.824D-01-0.741D-01-0.794D+00-0.134D+00 0.354D+00
 Coeff-Com: -0.771D-01 0.108D+01
 Coeff:      0.728D+00-0.824D-01-0.741D-01-0.794D+00-0.134D+00 0.354D+00
 Coeff:     -0.771D-01 0.108D+01
 Gap=     0.041 Goal=   None    Shift=    0.000
 Gap=     0.131 Goal=   None    Shift=    0.000
 RMSDP=4.15D-06 MaxDP=4.74D-04 DE= 1.60D-05 OVMax= 6.37D-03

 Cycle  19  Pass 1  IDiag  1:
 RMSU=  4.66D-07    CP:  1.01D+00  1.68D+00  6.59D-01  9.79D-01  1.26D+00
                    CP:  1.58D+00  1.80D+00  2.27D-01 -3.00D+00 -3.00D+00
                    CP:  3.00D+00  3.00D+00  1.32D+00 -2.16D+00  1.50D+00
                    CP:  2.21D+00  1.14D+00  1.17D+00
 E= -2398.80411574364     Delta-E=        0.000001926308 Rises=F Damp=F
 DIIS: error= 1.56D-05 at cycle  19 NSaved=   9.
 NSaved= 9 IEnMin= 1 EnMin= -2398.80460589204     IErMin= 9 ErrMin= 1.56D-05
 ErrMax= 1.56D-05  0.00D+00 EMaxC= 1.00D-01 BMatC= 1.01D-06 BMatP= 2.07D-06
 IDIUse=1 WtCom= 1.00D+00 WtEn= 0.00D+00
 Coeff-Com:  0.115D+00-0.847D-02-0.129D-01-0.131D+00 0.133D-01-0.183D-01
 Coeff-Com: -0.353D+00 0.682D+00 0.714D+00
 Coeff:      0.115D+00-0.847D-02-0.129D-01-0.131D+00 0.133D-01-0.183D-01
 Coeff:     -0.353D+00 0.682D+00 0.714D+00
 Gap=     0.041 Goal=   None    Shift=    0.000
 Gap=     0.131 Goal=   None    Shift=    0.000
 RMSDP=2.89D-06 MaxDP=3.71D-04 DE= 1.93D-06 OVMax= 5.44D-03

 Cycle  20  Pass 1  IDiag  1:
 RMSU=  3.73D-07    CP:  1.01D+00  1.68D+00  6.59D-01  9.80D-01  1.24D+00
                    CP:  1.57D+00  1.76D+00  1.27D-01 -3.00D+00 -3.00D+00
                    CP:  3.00D+00  3.00D+00  1.23D+00 -2.28D+00  1.45D+00
                    CP:  2.44D+00  1.03D+00  1.59D+00  1.19D+00
 E= -2398.80411505308     Delta-E=        0.000000690561 Rises=F Damp=F
 DIIS: error= 2.54D-06 at cycle  20 NSaved=  10.
 NSaved=10 IEnMin= 1 EnMin= -2398.80460589204     IErMin=10 ErrMin= 2.54D-06
 ErrMax= 2.54D-06  0.00D+00 EMaxC= 1.00D-01 BMatC= 7.59D-08 BMatP= 1.01D-06
 IDIUse=1 WtCom= 1.00D+00 WtEn= 0.00D+00
 Coeff-Com: -0.908D-01 0.122D-01 0.495D-02 0.978D-01 0.488D-01-0.551D-01
 Coeff-Com: -0.152D+00 0.152D-02 0.243D+00 0.890D+00
 Coeff:     -0.908D-01 0.122D-01 0.495D-02 0.978D-01 0.488D-01-0.551D-01
 Coeff:     -0.152D+00 0.152D-02 0.243D+00 0.890D+00
 Gap=     0.041 Goal=   None    Shift=    0.000
 Gap=     0.131 Goal=   None    Shift=    0.000
 RMSDP=9.57D-07 MaxDP=1.39D-04 DE= 6.91D-07 OVMax= 1.06D-03

 Cycle  21  Pass 1  IDiag  1:
 Restarting incremental Fock formation.
 E= -2398.80411514056     Delta-E=       -0.000000087484 Rises=F Damp=F
 DIIS: error= 2.06D-06 at cycle  21 NSaved=  11.
 NSaved=11 IEnMin= 1 EnMin= -2398.80460589204     IErMin=11 ErrMin= 2.06D-06
 ErrMax= 2.06D-06  0.00D+00 EMaxC= 1.00D-01 BMatC= 2.53D-08 BMatP= 7.59D-08
 IDIUse=1 WtCom= 1.00D+00 WtEn= 0.00D+00
 Coeff-Com: -0.624D-01 0.414D-02 0.133D-02 0.722D-01 0.174D-01-0.416D-02
 Coeff-Com:  0.657D-01-0.258D+00-0.193D+00 0.416D+00 0.941D+00
 Coeff:     -0.624D-01 0.414D-02 0.133D-02 0.722D-01 0.174D-01-0.416D-02
 Coeff:      0.657D-01-0.258D+00-0.193D+00 0.416D+00 0.941D+00
 Gap=     0.041 Goal=   None    Shift=    0.000
 Gap=     0.131 Goal=   None    Shift=    0.000
 RMSDP=7.81D-07 MaxDP=9.69D-05 DE=-8.75D-08 OVMax= 8.19D-04

 Cycle  22  Pass 1  IDiag  1:
 RMSU=  7.81D-07    CP:  1.00D+00
 E= -2398.80411519327     Delta-E=       -0.000000052705 Rises=F Damp=F
 DIIS: error= 1.63D-06 at cycle  22 NSaved=  12.
 NSaved=12 IEnMin= 1 EnMin= -2398.80460589204     IErMin=12 ErrMin= 1.63D-06
 ErrMax= 1.63D-06  0.00D+00 EMaxC= 1.00D-01 BMatC= 7.63D-09 BMatP= 2.53D-08
 IDIUse=1 WtCom= 1.00D+00 WtEn= 0.00D+00
 Coeff-Com: -0.756D-02-0.153D-02-0.192D-02 0.113D-01-0.175D-03 0.884D-02
 Coeff-Com:  0.562D-01-0.104D+00-0.135D+00-0.629D-01 0.399D+00 0.838D+00
 Coeff:     -0.756D-02-0.153D-02-0.192D-02 0.113D-01-0.175D-03 0.884D-02
 Coeff:      0.562D-01-0.104D+00-0.135D+00-0.629D-01 0.399D+00 0.838D+00
 Gap=     0.041 Goal=   None    Shift=    0.000
 Gap=     0.131 Goal=   None    Shift=    0.000
 RMSDP=3.93D-07 MaxDP=6.30D-05 DE=-5.27D-08 OVMax= 3.78D-04

 Cycle  23  Pass 1  IDiag  1:
 RMSU=  8.45D-08    CP:  1.00D+00  1.49D+00
 E= -2398.80411520922     Delta-E=       -0.000000015951 Rises=F Damp=F
 DIIS: error= 1.04D-06 at cycle  23 NSaved=  13.
 NSaved=13 IEnMin= 1 EnMin= -2398.80460589204     IErMin=13 ErrMin= 1.04D-06
 ErrMax= 1.04D-06  0.00D+00 EMaxC= 1.00D-01 BMatC= 3.17D-09 BMatP= 7.63D-09
 IDIUse=1 WtCom= 1.00D+00 WtEn= 0.00D+00
 Coeff-Com:  0.241D-01-0.316D-02-0.275D-02-0.247D-01-0.528D-02 0.109D-01
 Coeff-Com:  0.573D-02 0.358D-01-0.102D-01-0.188D+00-0.109D+00 0.463D+00
 Coeff-Com:  0.803D+00
 Coeff:      0.241D-01-0.316D-02-0.275D-02-0.247D-01-0.528D-02 0.109D-01
 Coeff:      0.573D-02 0.358D-01-0.102D-01-0.188D+00-0.109D+00 0.463D+00
 Coeff:      0.803D+00
 Gap=     0.041 Goal=   None    Shift=    0.000
 Gap=     0.131 Goal=   None    Shift=    0.000
 RMSDP=2.43D-07 MaxDP=3.45D-05 DE=-1.60D-08 OVMax= 2.88D-04

 Cycle  24  Pass 1  IDiag  1:
 RMSU=  1.19D-07    CP:  1.00D+00  1.73D+00  2.12D+00
 E= -2398.80411521506     Delta-E=       -0.000000005841 Rises=F Damp=F
 DIIS: error= 8.21D-07 at cycle  24 NSaved=  14.
 NSaved=14 IEnMin= 1 EnMin= -2398.80460589204     IErMin=14 ErrMin= 8.21D-07
 ErrMax= 8.21D-07  0.00D+00 EMaxC= 1.00D-01 BMatC= 1.23D-09 BMatP= 3.17D-09
 IDIUse=1 WtCom= 1.00D+00 WtEn= 0.00D+00
 Coeff-Com:  0.674D-02-0.929D-03-0.949D-03-0.747D-02-0.154D-03-0.933D-03
 Coeff-Com: -0.164D-01 0.400D-01 0.274D-01-0.653D-01-0.143D+00 0.570D-02
 Coeff-Com:  0.369D+00 0.787D+00
 Coeff:      0.674D-02-0.929D-03-0.949D-03-0.747D-02-0.154D-03-0.933D-03
 Coeff:     -0.164D-01 0.400D-01 0.274D-01-0.653D-01-0.143D+00 0.570D-02
 Coeff:      0.369D+00 0.787D+00
 Gap=     0.041 Goal=   None    Shift=    0.000
 Gap=     0.131 Goal=   None    Shift=    0.000
 RMSDP=1.69D-07 MaxDP=2.00D-05 DE=-5.84D-09 OVMax= 2.72D-04

 Cycle  25  Pass 1  IDiag  1:
 RMSU=  3.67D-08    CP:  1.00D+00  1.92D+00  1.84D+00  3.81D-01
 E= -2398.80411521617     Delta-E=       -0.000000001115 Rises=F Damp=F
 DIIS: error= 5.44D-07 at cycle  25 NSaved=  15.
 NSaved=15 IEnMin= 1 EnMin= -2398.80460589204     IErMin=15 ErrMin= 5.44D-07
 ErrMax= 5.44D-07  0.00D+00 EMaxC= 1.00D-01 BMatC= 6.25D-10 BMatP= 1.23D-09
 IDIUse=1 WtCom= 1.00D+00 WtEn= 0.00D+00
 Coeff-Com:  0.148D-02-0.101D-03-0.184D-03-0.105D-02 0.130D-03 0.212D-03
 Coeff-Com: -0.643D-02 0.752D-02 0.128D-01 0.296D-01-0.318D-01-0.160D+00
 Coeff-Com: -0.119D+00 0.419D+00 0.848D+00
 Coeff:      0.148D-02-0.101D-03-0.184D-03-0.105D-02 0.130D-03 0.212D-03
 Coeff:     -0.643D-02 0.752D-02 0.128D-01 0.296D-01-0.318D-01-0.160D+00
 Coeff:     -0.119D+00 0.419D+00 0.848D+00
 Gap=     0.041 Goal=   None    Shift=    0.000
 Gap=     0.131 Goal=   None    Shift=    0.000
 RMSDP=8.98D-08 MaxDP=9.95D-06 DE=-1.12D-09 OVMax= 1.66D-04

 Cycle  26  Pass 1  IDiag  1:
 RMSU=  1.50D-08    CP:  1.00D+00  1.95D+00  2.42D+00  9.65D-01  8.59D-01
 E= -2398.80411521666     Delta-E=       -0.000000000491 Rises=F Damp=F
 DIIS: error= 4.69D-07 at cycle  26 NSaved=  16.
 NSaved=16 IEnMin= 1 EnMin= -2398.80460589204     IErMin=16 ErrMin= 4.69D-07
 ErrMax= 4.69D-07  0.00D+00 EMaxC= 1.00D-01 BMatC= 1.76D-10 BMatP= 6.25D-10
 IDIUse=1 WtCom= 1.00D+00 WtEn= 0.00D+00
 Coeff-Com: -0.254D-02 0.212D-03 0.137D-03 0.302D-02 0.143D-03-0.306D-03
 Coeff-Com:  0.184D-02-0.102D-01-0.398D-02 0.404D-01 0.360D-01-0.783D-01
 Coeff-Com: -0.195D+00-0.647D-01 0.409D+00 0.864D+00
 Coeff:     -0.254D-02 0.212D-03 0.137D-03 0.302D-02 0.143D-03-0.306D-03
 Coeff:      0.184D-02-0.102D-01-0.398D-02 0.404D-01 0.360D-01-0.783D-01
 Coeff:     -0.195D+00-0.647D-01 0.409D+00 0.864D+00
 Gap=     0.041 Goal=   None    Shift=    0.000
 Gap=     0.131 Goal=   None    Shift=    0.000
 RMSDP=3.43D-08 MaxDP=6.10D-06 DE=-4.91D-10 OVMax= 5.56D-05

 Cycle  27  Pass 1  IDiag  1:
 RMSU=  6.76D-09    CP:  1.00D+00  1.98D+00  2.34D+00  8.34D-01  1.20D+00
                    CP:  1.33D+00
 E= -2398.80411521643     Delta-E=        0.000000000235 Rises=F Damp=F
 DIIS: error= 3.46D-07 at cycle  27 NSaved=  17.
 NSaved=17 IEnMin= 1 EnMin= -2398.80460589204     IErMin=17 ErrMin= 3.46D-07
 ErrMax= 3.46D-07  0.00D+00 EMaxC= 1.00D-01 BMatC= 6.90D-11 BMatP= 1.76D-10
 IDIUse=1 WtCom= 1.00D+00 WtEn= 0.00D+00
 Coeff-Com: -0.147D-02 0.254D-03 0.206D-03 0.157D-02-0.198D-03-0.177D-03
 Coeff-Com:  0.265D-02-0.497D-02-0.571D-02-0.766D-04 0.173D-01 0.455D-01
 Coeff-Com: -0.572D-02-0.173D+00-0.271D+00 0.181D+00 0.121D+01
 Coeff:     -0.147D-02 0.254D-03 0.206D-03 0.157D-02-0.198D-03-0.177D-03
 Coeff:      0.265D-02-0.497D-02-0.571D-02-0.766D-04 0.173D-01 0.455D-01
 Coeff:     -0.572D-02-0.173D+00-0.271D+00 0.181D+00 0.121D+01
 Gap=     0.041 Goal=   None    Shift=    0.000
 Gap=     0.131 Goal=   None    Shift=    0.000
 RMSDP=1.47D-08 MaxDP=4.21D-06 DE= 2.35D-10 OVMax= 1.88D-05

 Cycle  28  Pass 1  IDiag  1:
 RMSU=  4.50D-09    CP:  1.00D+00  1.99D+00  2.39D+00  8.89D-01  1.29D+00
                    CP:  1.88D+00  2.08D+00
 E= -2398.80411521678     Delta-E=       -0.000000000351 Rises=F Damp=F
 DIIS: error= 2.69D-07 at cycle  28 NSaved=  18.
 NSaved=18 IEnMin= 1 EnMin= -2398.80460589204     IErMin=18 ErrMin= 2.69D-07
 ErrMax= 2.69D-07  0.00D+00 EMaxC= 1.00D-01 BMatC= 3.99D-11 BMatP= 6.90D-11
 IDIUse=1 WtCom= 1.00D+00 WtEn= 0.00D+00
 Coeff-Com: -0.684D-03 0.179D-03 0.117D-03 0.509D-03 0.191D-04-0.911D-03
 Coeff-Com: -0.545D-03 0.378D-02 0.950D-03-0.207D-01-0.188D-01 0.636D-01
 Coeff-Com:  0.107D+00-0.392D-02-0.368D+00-0.436D+00 0.447D+00 0.123D+01
 Coeff:     -0.684D-03 0.179D-03 0.117D-03 0.509D-03 0.191D-04-0.911D-03
 Coeff:     -0.545D-03 0.378D-02 0.950D-03-0.207D-01-0.188D-01 0.636D-01
 Coeff:      0.107D+00-0.392D-02-0.368D+00-0.436D+00 0.447D+00 0.123D+01
 Gap=     0.041 Goal=   None    Shift=    0.000
 Gap=     0.131 Goal=   None    Shift=    0.000
 RMSDP=1.91D-08 MaxDP=5.03D-06 DE=-3.51D-10 OVMax= 2.74D-05

 Cycle  29  Pass 1  IDiag  1:
 RMSU=  4.64D-09    CP:  1.00D+00  1.99D+00  2.30D+00  8.02D-01  1.46D+00
                    CP:  2.27D+00  3.00D+00  2.22D+00
 E= -2398.80411521689     Delta-E=       -0.000000000109 Rises=F Damp=F
 DIIS: error= 1.73D-07 at cycle  29 NSaved=  19.
 NSaved=19 IEnMin= 1 EnMin= -2398.80460589204     IErMin=19 ErrMin= 1.73D-07
 ErrMax= 1.73D-07  0.00D+00 EMaxC= 1.00D-01 BMatC= 3.32D-11 BMatP= 3.99D-11
 IDIUse=1 WtCom= 1.00D+00 WtEn= 0.00D+00
 Coeff-Com:  0.995D-03-0.999D-04-0.999D-04-0.101D-02-0.205D-03-0.789D-04
 Coeff-Com: -0.711D-03 0.416D-02 0.345D-02-0.903D-02-0.194D-01 0.780D-02
 Coeff-Com:  0.457D-01 0.110D+00-0.434D-01-0.273D+00-0.529D+00 0.583D+00
 Coeff-Com:  0.112D+01
 Coeff:      0.995D-03-0.999D-04-0.999D-04-0.101D-02-0.205D-03-0.789D-04
 Coeff:     -0.711D-03 0.416D-02 0.345D-02-0.903D-02-0.194D-01 0.780D-02
 Coeff:      0.457D-01 0.110D+00-0.434D-01-0.273D+00-0.529D+00 0.583D+00
 Coeff:      0.112D+01
 Gap=     0.041 Goal=   None    Shift=    0.000
 Gap=     0.131 Goal=   None    Shift=    0.000
 RMSDP=1.91D-08 MaxDP=4.18D-06 DE=-1.09D-10 OVMax= 2.52D-05

 Cycle  30  Pass 1  IDiag  1:
 RMSU=  5.32D-09    CP:  1.00D+00  1.97D+00  2.34D+00  8.62D-01  1.50D+00
                    CP:  2.62D+00  3.00D+00  3.00D+00  2.41D+00
 E= -2398.80411521726     Delta-E=       -0.000000000367 Rises=F Damp=F
 DIIS: error= 1.01D-07 at cycle  30 NSaved=  20.
 NSaved=20 IEnMin= 1 EnMin= -2398.80460589204     IErMin=20 ErrMin= 1.01D-07
 ErrMax= 1.01D-07  0.00D+00 EMaxC= 1.00D-01 BMatC= 8.00D-12 BMatP= 3.32D-11
 IDIUse=1 WtCom= 1.00D+00 WtEn= 0.00D+00
 Coeff-Com: -0.401D-03-0.169D-04-0.655D-05 0.569D-03 0.739D-04-0.236D-03
 Coeff-Com: -0.267D-03-0.853D-03 0.127D-02 0.860D-02 0.967D-03-0.325D-01
 Coeff-Com: -0.390D-01 0.645D-01 0.157D+00 0.112D+00-0.462D+00-0.367D+00
 Coeff-Com:  0.430D+00 0.113D+01
 Coeff:     -0.401D-03-0.169D-04-0.655D-05 0.569D-03 0.739D-04-0.236D-03
 Coeff:     -0.267D-03-0.853D-03 0.127D-02 0.860D-02 0.967D-03-0.325D-01
 Coeff:     -0.390D-01 0.645D-01 0.157D+00 0.112D+00-0.462D+00-0.367D+00
 Coeff:      0.430D+00 0.113D+01
 Gap=     0.041 Goal=   None    Shift=    0.000
 Gap=     0.131 Goal=   None    Shift=    0.000
 RMSDP=1.06D-08 MaxDP=2.67D-06 DE=-3.67D-10 OVMax= 1.24D-05

 Cycle  31  Pass 1  IDiag  1:
 RMSU=  4.12D-09    CP:  1.00D+00  1.96D+00  2.30D+00  8.35D-01  1.58D+00
                    CP:  2.80D+00  3.00D+00  3.00D+00  3.00D+00  1.77D+00
 E= -2398.80411521747     Delta-E=       -0.000000000211 Rises=F Damp=F
 DIIS: error= 4.16D-08 at cycle  31 NSaved=  20.
 NSaved=20 IEnMin= 1 EnMin= -2398.80460589204     IErMin=20 ErrMin= 4.16D-08
 ErrMax= 4.16D-08  0.00D+00 EMaxC= 1.00D-01 BMatC= 3.90D-12 BMatP= 8.00D-12
 IDIUse=1 WtCom= 1.00D+00 WtEn= 0.00D+00
 Coeff-Com: -0.316D-03 0.427D-04 0.456D-04 0.361D-03-0.188D-04-0.130D-03
 Coeff-Com:  0.681D-04-0.306D-03-0.166D-03 0.187D-02-0.157D-02-0.679D-02
 Coeff-Com: -0.892D-02 0.558D-02 0.693D-01 0.801D-01-0.217D+00-0.274D+00
 Coeff-Com:  0.363D+00 0.990D+00
 Coeff:     -0.316D-03 0.427D-04 0.456D-04 0.361D-03-0.188D-04-0.130D-03
 Coeff:      0.681D-04-0.306D-03-0.166D-03 0.187D-02-0.157D-02-0.679D-02
 Coeff:     -0.892D-02 0.558D-02 0.693D-01 0.801D-01-0.217D+00-0.274D+00
 Coeff:      0.363D+00 0.990D+00
 Gap=     0.041 Goal=   None    Shift=    0.000
 Gap=     0.131 Goal=   None    Shift=    0.000
 RMSDP=4.53D-09 MaxDP=1.30D-06 DE=-2.11D-10 OVMax= 5.22D-06

 Cycle  32  Pass 1  IDiag  1:
 RMSU=  1.52D-09    CP:  1.00D+00  1.96D+00  2.31D+00  8.48D-01  1.59D+00
                    CP:  2.88D+00  3.00D+00  3.00D+00  3.00D+00  2.05D+00
                    CP:  1.56D+00
 E= -2398.80411521719     Delta-E=        0.000000000276 Rises=F Damp=F
 DIIS: error= 2.18D-08 at cycle  32 NSaved=  20.
 NSaved=20 IEnMin= 1 EnMin= -2398.80460589204     IErMin=20 ErrMin= 2.18D-08
 ErrMax= 2.18D-08  0.00D+00 EMaxC= 1.00D-01 BMatC= 1.39D-12 BMatP= 3.90D-12
 IDIUse=1 WtCom= 1.00D+00 WtEn= 0.00D+00
 Coeff-Com: -0.218D-03 0.330D-04 0.269D-04 0.219D-03 0.429D-04-0.154D-03
 Coeff-Com: -0.233D-03 0.166D-03 0.478D-03 0.208D-02 0.131D-02-0.141D-01
 Coeff-Com: -0.296D-01 0.149D-01 0.160D+00 0.118D-01-0.287D+00-0.228D+00
 Coeff-Com:  0.377D+00 0.991D+00
 Coeff:     -0.218D-03 0.330D-04 0.269D-04 0.219D-03 0.429D-04-0.154D-03
 Coeff:     -0.233D-03 0.166D-03 0.478D-03 0.208D-02 0.131D-02-0.141D-01
 Coeff:     -0.296D-01 0.149D-01 0.160D+00 0.118D-01-0.287D+00-0.228D+00
 Coeff:      0.377D+00 0.991D+00
 Gap=     0.041 Goal=   None    Shift=    0.000
 Gap=     0.131 Goal=   None    Shift=    0.000
 RMSDP=3.27D-09 MaxDP=6.83D-07 DE= 2.76D-10 OVMax= 2.79D-06

 Error on total polarization charges =  0.02589
 SCF Done:  E(UM062X) =  -2398.80411522     A.U. after   32 cycles
            NFock= 32  Conv=0.33D-08     -V/T= 2.0053
 <Sx>= 0.0000 <Sy>= 0.0000 <Sz>= 0.5000 <S**2>= 0.7766 S= 0.5132
 <L.S>= 0.000000000000E+00
 KE= 2.386091679287D+03 PE=-1.777294651955D+04 EE= 6.918176715723D+03
 Annihilation of the first spin contaminant:
 S**2 before annihilation     0.7766,   after     0.7506
 Leave Link  502 at Thu Nov  6 19:59:37 2025, MaxMem= 30870077440 cpu:          215019.6 elap:            3392.5
 (Enter /public/software/gauss/g16/l601.exe)
 Copying SCF densities to generalized density rwf, IOpCl= 1 IROHF=0.

 **********************************************************************

            Population analysis using the SCF density.

 **********************************************************************

 Orbital symmetries:
 Alpha Orbitals:
       Occupied  (A) (A) (A) (A) (A) (A) (A) (A) (A) (A) (A) (A)
                 (A) (A) (A) (A) (A) (A) (A) (A) (A) (A) (A) (A)
                 (A) (A) (A) (A) (A) (A) (A) (A) (A) (A) (A) (A)
                 (A) (A) (A) (A) (A) (A) (A) (A) (A) (A) (A) (A)
                 (A) (A) (A) (A) (A) (A) (A) (A) (A) (A) (A) (A)
                 (A) (A) (A) (A) (A) (A) (A) (A) (A) (A) (A) (A)
                 (A) (A) (A) (A) (A) (A) (A) (A) (A) (A) (A) (A)
                 (A) (A) (A) (A) (A) (A) (A) (A) (A) (A) (A) (A)
                 (A) (A) (A) (A) (A) (A) (A) (A) (A) (A) (A) (A)
                 (A) (A) (A) (A) (A) (A) (A) (A) (A) (A) (A) (A)
                 (A) (A) (A) (A) (A) (A) (A) (A) (A) (A) (A) (A)
                 (A) (A) (A) (A) (A) (A) (A) (A) (A) (A) (A) (A)
                 (A) (A) (A) (A) (A) (A) (A) (A) (A) (A) (A) (A)
                 (A) (A) (A) (A) (A) (A) (A) (A) (A) (A) (A) (A)
                 (A) (A) (A) (A) (A) (A) (A) (A) (A) (A) (A) (A)
                 (A)
       Virtual   (A) (A) (A) (A) (A) (A) (A) (A) (A) (A) (A) (A)
                 (A) (A) (A) (A) (A) (A) (A) (A) (A) (A) (A) (A)
                 (A) (A) (A) (A) (A) (A) (A) (A) (A) (A) (A) (A)
                 (A) (A) (A) (A) (A) (A) (A) (A) (A) (A) (A) (A)
                 (A) (A) (A) (A) (A) (A) (A) (A) (A) (A) (A) (A)
                 (A) (A) (A) (A) (A) (A) (A) (A) (A) (A) (A) (A)
                 (A) (A) (A) (A) (A) (A) (A) (A) (A) (A) (A) (A)
                 (A) (A) (A) (A) (A) (A) (A) (A) (A) (A) (A) (A)
                 (A) (A) (A) (A) (A) (A) (A) (A) (A) (A) (A) (A)
                 (A) (A) (A) (A) (A) (A) (A) (A) (A) (A) (A) (A)
                 (A) (A) (A) (A) (A) (A) (A) (A) (A) (A) (A) (A)
                 (A) (A) (A) (A) (A) (A) (A) (A) (A) (A) (A) (A)
                 (A) (A) (A) (A) (A) (A) (A) (A) (A) (A) (A) (A)
                 (A) (A) (A) (A) (A) (A) (A) (A) (A) (A) (A) (A)
                 (A) (A) (A) (A) (A) (A) (A) (A) (A) (A) (A) (A)
                 (A) (A) (A) (A) (A) (A) (A) (A) (A) (A) (A) (A)
                 (A) (A) (A) (A) (A) (A) (A) (A) (A) (A) (A) (A)
                 (A) (A) (A) (A) (A) (A) (A) (A) (A) (A) (A) (A)
                 (A) (A) (A) (A) (A) (A) (A) (A) (A) (A) (A) (A)
                 (A) (A) (A) (A) (A) (A) (A) (A) (A) (A) (A) (A)
                 (A) (A) (A) (A) (A) (A) (A) (A) (A) (A) (A) (A)
                 (A) (A) (A) (A) (A) (A) (A) (A) (A) (A) (A) (A)
                 (A) (A) (A) (A) (A) (A) (A) (A) (A) (A) (A) (A)
                 (A) (A) (A) (A) (A) (A) (A) (A) (A) (A) (A) (A)
                 (A) (A) (A) (A) (A) (A) (A) (A) (A) (A) (A) (A)
                 (A) (A) (A) (A) (A) (A) (A) (A) (A) (A) (A) (A)
                 (A) (A) (A) (A) (A) (A) (A) (A) (A) (A) (A) (A)
                 (A) (A) (A) (A) (A) (A) (A) (A) (A) (A) (A) (A)
                 (A) (A) (A) (A) (A) (A) (A) (A) (A) (A) (A) (A)
                 (A) (A) (A) (A) (A) (A) (A) (A) (A) (A) (A) (A)
                 (A) (A) (A) (A) (A) (A) (A) (A) (A) (A) (A) (A)
                 (A) (A) (A) (A) (A) (A) (A) (A) (A) (A) (A) (A)
                 (A) (A) (A) (A) (A) (A) (A) (A) (A) (A) (A) (A)
                 (A) (A) (A) (A) (A) (A) (A) (A) (A) (A) (A) (A)
                 (A) (A) (A) (A) (A) (A) (A) (A) (A) (A) (A) (A)
                 (A) (A) (A) (A) (A) (A) (A) (A) (A) (A) (A) (A)
                 (A) (A) (A) (A) (A) (A) (A) (A) (A) (A) (A) (A)
                 (A) (A) (A) (A) (A) (A) (A) (A) (A) (A) (A) (A)
                 (A) (A) (A) (A) (A) (A) (A) (A) (A) (A) (A) (A)
                 (A) (A) (A) (A) (A) (A) (A) (A) (A) (A) (A) (A)
                 (A) (A) (A) (A) (A) (A) (A) (A) (A) (A) (A) (A)
                 (A) (A) (A) (A) (A) (A) (A) (A) (A) (A) (A) (A)
                 (A) (A) (A) (A) (A) (A) (A) (A) (A) (A) (A) (A)
                 (A) (A) (A) (A) (A) (A) (A) (A) (A) (A) (A) (A)
                 (A) (A) (A) (A) (A) (A) (A) (A) (A) (A) (A) (A)
                 (A) (A) (A) (A) (A) (A) (A) (A) (A) (A) (A) (A)
                 (A) (A) (A) (A) (A) (A) (A) (A) (A) (A) (A) (A)
                 (A) (A) (A) (A) (A) (A) (A) (A) (A) (A) (A) (A)
                 (A) (A) (A) (A) (A) (A) (A) (A) (A) (A) (A) (A)
                 (A) (A) (A) (A) (A) (A) (A) (A) (A) (A) (A) (A)
                 (A) (A) (A) (A) (A) (A) (A) (A) (A) (A) (A) (A)
                 (A) (A) (A) (A) (A) (A) (A) (A) (A) (A) (A) (A)
                 (A) (A) (A) (A) (A) (A) (A) (A) (A) (A) (A) (A)
                 (A) (A) (A) (A) (A) (A) (A) (A) (A) (A) (A) (A)
                 (A) (A) (A) (A) (A) (A) (A) (A) (A) (A) (A) (A)
                 (A) (A) (A) (A) (A) (A) (A) (A) (A) (A) (A) (A)
                 (A) (A) (A) (A) (A) (A) (A) (A) (A) (A) (A) (A)
                 (A) (A) (A) (A) (A) (A) (A) (A) (A) (A) (A) (A)
                 (A) (A) (A) (A) (A) (A) (A) (A) (A) (A) (A) (A)
                 (A) (A) (A) (A) (A) (A) (A) (A) (A) (A) (A) (A)
                 (A) (A) (A) (A) (A) (A) (A) (A) (A) (A) (A) (A)
                 (A) (A) (A) (A) (A) (A) (A) (A) (A) (A) (A) (A)
                 (A) (A) (A) (A) (A) (A) (A) (A) (A) (A) (A) (A)
                 (A) (A) (A) (A) (A) (A) (A) (A) (A) (A) (A) (A)
                 (A) (A) (A) (A) (A) (A) (A) (A) (A) (A) (A) (A)
                 (A) (A) (A) (A) (A) (A) (A) (A) (A) (A) (A) (A)
                 (A) (A) (A) (A) (A) (A) (A) (A) (A) (A) (A) (A)
                 (A) (A) (A) (A) (A) (A) (A) (A) (A) (A) (A) (A)
                 (A) (A) (A) (A) (A) (A) (A) (A) (A) (A) (A) (A)
                 (A) (A) (A) (A) (A) (A) (A) (A) (A) (A) (A) (A)
                 (A) (A) (A) (A) (A) (A) (A) (A) (A) (A) (A) (A)
                 (A) (A) (A) (A) (A) (A) (A) (A) (A) (A) (A) (A)
                 (A) (A) (A) (A) (A) (A) (A) (A) (A) (A) (A) (A)
                 (A) (A) (A) (A) (A) (A) (A) (A) (A) (A) (A) (A)
                 (A) (A) (A) (A) (A) (A) (A) (A) (A) (A) (A) (A)
                 (A) (A) (A) (A) (A) (A) (A) (A) (A) (A) (A) (A)
                 (A) (A) (A) (A) (A) (A) (A) (A) (A) (A) (A) (A)
                 (A) (A) (A) (A) (A) (A) (A) (A) (A) (A) (A) (A)
                 (A) (A) (A) (A) (A) (A) (A) (A) (A) (A) (A) (A)
                 (A) (A) (A) (A) (A) (A) (A) (A) (A) (A) (A) (A)
                 (A) (A) (A) (A) (A) (A) (A) (A) (A) (A) (A) (A)
                 (A) (A) (A) (A) (A) (A) (A) (A) (A) (A) (A) (A)
                 (A) (A) (A) (A) (A) (A) (A) (A) (A) (A) (A) (A)
                 (A) (A) (A) (A) (A) (A) (A) (A) (A) (A) (A) (A)
                 (A) (A) (A) (A) (A) (A) (A) (A) (A) (A) (A) (A)
                 (A) (A) (A) (A) (A) (A) (A) (A) (A) (A) (A) (A)
                 (A) (A) (A) (A) (A) (A) (A) (A) (A) (A) (A) (A)
                 (A) (A) (A) (A) (A) (A) (A) (A) (A) (A) (A) (A)
                 (A) (A) (A) (A) (A) (A) (A) (A) (A) (A) (A) (A)
                 (A) (A) (A) (A) (A) (A) (A) (A) (A) (A) (A) (A)
                 (A) (A) (A) (A) (A) (A) (A) (A) (A) (A) (A) (A)
                 (A) (A) (A) (A) (A) (A) (A) (A) (A) (A) (A) (A)
                 (A) (A) (A) (A) (A) (A) (A) (A) (A) (A) (A) (A)
                 (A) (A) (A) (A) (A) (A) (A) (A) (A) (A) (A) (A)
                 (A) (A) (A) (A) (A) (A) (A) (A) (A) (A) (A) (A)
                 (A) (A) (A) (A) (A) (A) (A) (A) (A) (A) (A) (A)
                 (A) (A) (A) (A) (A) (A) (A) (A) (A) (A) (A) (A)
                 (A) (A) (A) (A) (A) (A) (A) (A) (A) (A) (A) (A)
                 (A) (A) (A) (A) (A) (A) (A) (A) (A) (A) (A) (A)
                 (A) (A) (A) (A) (A) (A) (A) (A) (A) (A) (A) (A)
                 (A) (A) (A) (A) (A) (A) (A) (A) (A) (A) (A) (A)
                 (A) (A) (A) (A) (A) (A) (A) (A) (A) (A) (A) (A)
                 (A) (A) (A) (A) (A) (A) (A) (A) (A) (A) (A) (A)
                 (A) (A) (A) (A) (A) (A) (A) (A) (A) (A) (A) (A)
                 (A) (A) (A) (A) (A) (A) (A) (A) (A) (A) (A) (A)
                 (A) (A) (A) (A) (A) (A) (A) (A) (A) (A) (A) (A)
                 (A) (A) (A) (A) (A) (A) (A) (A) (A) (A) (A) (A)
                 (A) (A) (A) (A) (A) (A) (A) (A) (A) (A) (A) (A)
                 (A) (A) (A) (A) (A) (A) (A) (A) (A) (A) (A) (A)
                 (A) (A) (A) (A) (A) (A) (A) (A) (A) (A) (A) (A)
                 (A) (A) (A) (A) (A) (A) (A) (A) (A) (A) (A) (A)
                 (A) (A) (A) (A) (A) (A) (A) (A) (A) (A) (A) (A)
                 (A) (A) (A) (A) (A) (A) (A) (A) (A) (A) (A) (A)
                 (A) (A) (A) (A) (A) (A) (A) (A) (A) (A) (A) (A)
                 (A) (A) (A) (A) (A) (A) (A) (A) (A) (A) (A) (A)
                 (A) (A) (A) (A) (A) (A) (A) (A) (A) (A) (A) (A)
                 (A) (A) (A) (A) (A) (A) (A) (A) (A) (A) (A) (A)
                 (A) (A) (A) (A) (A) (A) (A) (A) (A) (A) (A) (A)
                 (A) (A) (A) (A) (A) (A) (A) (A) (A) (A) (A) (A)
                 (A) (A) (A) (A) (A) (A) (A) (A) (A) (A) (A) (A)
                 (A) (A) (A) (A) (A) (A) (A) (A) (A) (A) (A) (A)
                 (A) (A) (A) (A) (A) (A) (A) (A) (A) (A) (A) (A)
                 (A) (A) (A) (A) (A) (A) (A) (A) (A) (A) (A) (A)
                 (A) (A) (A) (A) (A) (A) (A) (A) (A) (A) (A) (A)
                 (A) (A) (A) (A) (A) (A) (A) (A) (A) (A) (A) (A)
                 (A) (A) (A) (A) (A) (A) (A) (A) (A) (A) (A) (A)
                 (A) (A) (A) (A) (A) (A) (A) (A) (A) (A) (A) (A)
                 (A) (A) (A) (A) (A) (A) (A) (A) (A) (A) (A) (A)
                 (A) (A) (A) (A) (A) (A) (A) (A) (A) (A) (A) (A)
                 (A) (A) (A) (A) (A) (A) (A) (A) (A) (A) (A) (A)
                 (A) (A) (A) (A) (A) (A) (A) (A) (A) (A) (A) (A)
                 (A) (A) (A) (A) (A) (A) (A) (A) (A) (A) (A) (A)
                 (A) (A) (A) (A) (A) (A) (A) (A) (A) (A) (A) (A)
                 (A) (A) (A) (A) (A) (A) (A) (A) (A) (A) (A) (A)
                 (A) (A) (A) (A) (A) (A) (A) (A) (A) (A) (A) (A)
                 (A) (A) (A) (A) (A) (A) (A) (A) (A) (A) (A) (A)
                 (A) (A) (A) (A) (A) (A) (A) (A) (A) (A) (A) (A)
                 (A) (A) (A) (A) (A) (A) (A) (A) (A) (A) (A) (A)
                 (A) (A) (A) (A) (A) (A) (A) (A) (A) (A) (A) (A)
                 (A) (A) (A) (A) (A) (A) (A) (A) (A) (A) (A) (A)
                 (A) (A) (A) (A) (A) (A) (A) (A) (A) (A) (A) (A)
                 (A) (A) (A) (A) (A) (A) (A) (A) (A) (A) (A) (A)
                 (A) (A) (A) (A) (A) (A) (A) (A) (A) (A) (A) (A)
                 (A) (A) (A) (A) (A) (A) (A) (A) (A) (A) (A) (A)
                 (A) (A) (A) (A) (A) (A) (A) (A) (A) (A) (A) (A)
                 (A) (A) (A) (A) (A) (A) (A) (A) (A) (A) (A) (A)
                 (A) (A) (A) (A) (A) (A) (A) (A) (A) (A) (A) (A)
                 (A) (A) (A) (A) (A) (A) (A) (A) (A) (A) (A) (A)
                 (A) (A) (A) (A) (A) (A) (A) (A) (A) (A) (A) (A)
                 (A) (A) (A) (A) (A) (A) (A) (A) (A) (A) (A) (A)
                 (A) (A) (A) (A) (A) (A) (A) (A) (A) (A) (A) (A)
                 (A) (A) (A) (A) (A) (A) (A) (A) (A) (A) (A) (A)
                 (A) (A) (A) (A) (A) (A) (A) (A) (A) (A)
 Beta  Orbitals:
       Occupied  (A) (A) (A) (A) (A) (A) (A) (A) (A) (A) (A) (A)
                 (A) (A) (A) (A) (A) (A) (A) (A) (A) (A) (A) (A)
                 (A) (A) (A) (A) (A) (A) (A) (A) (A) (A) (A) (A)
                 (A) (A) (A) (A) (A) (A) (A) (A) (A) (A) (A) (A)
                 (A) (A) (A) (A) (A) (A) (A) (A) (A) (A) (A) (A)
                 (A) (A) (A) (A) (A) (A) (A) (A) (A) (A) (A) (A)
                 (A) (A) (A) (A) (A) (A) (A) (A) (A) (A) (A) (A)
                 (A) (A) (A) (A) (A) (A) (A) (A) (A) (A) (A) (A)
                 (A) (A) (A) (A) (A) (A) (A) (A) (A) (A) (A) (A)
                 (A) (A) (A) (A) (A) (A) (A) (A) (A) (A) (A) (A)
                 (A) (A) (A) (A) (A) (A) (A) (A) (A) (A) (A) (A)
                 (A) (A) (A) (A) (A) (A) (A) (A) (A) (A) (A) (A)
                 (A) (A) (A) (A) (A) (A) (A) (A) (A) (A) (A) (A)
                 (A) (A) (A) (A) (A) (A) (A) (A) (A) (A) (A) (A)
                 (A) (A) (A) (A) (A) (A) (A) (A) (A) (A) (A) (A)
       Virtual   (A) (A) (A) (A) (A) (A) (A) (A) (A) (A) (A) (A)
                 (A) (A) (A) (A) (A) (A) (A) (A) (A) (A) (A) (A)
                 (A) (A) (A) (A) (A) (A) (A) (A) (A) (A) (A) (A)
                 (A) (A) (A) (A) (A) (A) (A) (A) (A) (A) (A) (A)
                 (A) (A) (A) (A) (A) (A) (A) (A) (A) (A) (A) (A)
                 (A) (A) (A) (A) (A) (A) (A) (A) (A) (A) (A) (A)
                 (A) (A) (A) (A) (A) (A) (A) (A) (A) (A) (A) (A)
                 (A) (A) (A) (A) (A) (A) (A) (A) (A) (A) (A) (A)
                 (A) (A) (A) (A) (A) (A) (A) (A) (A) (A) (A) (A)
                 (A) (A) (A) (A) (A) (A) (A) (A) (A) (A) (A) (A)
                 (A) (A) (A) (A) (A) (A) (A) (A) (A) (A) (A) (A)
                 (A) (A) (A) (A) (A) (A) (A) (A) (A) (A) (A) (A)
                 (A) (A) (A) (A) (A) (A) (A) (A) (A) (A) (A) (A)
                 (A) (A) (A) (A) (A) (A) (A) (A) (A) (A) (A) (A)
                 (A) (A) (A) (A) (A) (A) (A) (A) (A) (A) (A) (A)
                 (A) (A) (A) (A) (A) (A) (A) (A) (A) (A) (A) (A)
                 (A) (A) (A) (A) (A) (A) (A) (A) (A) (A) (A) (A)
                 (A) (A) (A) (A) (A) (A) (A) (A) (A) (A) (A) (A)
                 (A) (A) (A) (A) (A) (A) (A) (A) (A) (A) (A) (A)
                 (A) (A) (A) (A) (A) (A) (A) (A) (A) (A) (A) (A)
                 (A) (A) (A) (A) (A) (A) (A) (A) (A) (A) (A) (A)
                 (A) (A) (A) (A) (A) (A) (A) (A) (A) (A) (A) (A)
                 (A) (A) (A) (A) (A) (A) (A) (A) (A) (A) (A) (A)
                 (A) (A) (A) (A) (A) (A) (A) (A) (A) (A) (A) (A)
                 (A) (A) (A) (A) (A) (A) (A) (A) (A) (A) (A) (A)
                 (A) (A) (A) (A) (A) (A) (A) (A) (A) (A) (A) (A)
                 (A) (A) (A) (A) (A) (A) (A) (A) (A) (A) (A) (A)
                 (A) (A) (A) (A) (A) (A) (A) (A) (A) (A) (A) (A)
                 (A) (A) (A) (A) (A) (A) (A) (A) (A) (A) (A) (A)
                 (A) (A) (A) (A) (A) (A) (A) (A) (A) (A) (A) (A)
                 (A) (A) (A) (A) (A) (A) (A) (A) (A) (A) (A) (A)
                 (A) (A) (A) (A) (A) (A) (A) (A) (A) (A) (A) (A)
                 (A) (A) (A) (A) (A) (A) (A) (A) (A) (A) (A) (A)
                 (A) (A) (A) (A) (A) (A) (A) (A) (A) (A) (A) (A)
                 (A) (A) (A) (A) (A) (A) (A) (A) (A) (A) (A) (A)
                 (A) (A) (A) (A) (A) (A) (A) (A) (A) (A) (A) (A)
                 (A) (A) (A) (A) (A) (A) (A) (A) (A) (A) (A) (A)
                 (A) (A) (A) (A) (A) (A) (A) (A) (A) (A) (A) (A)
                 (A) (A) (A) (A) (A) (A) (A) (A) (A) (A) (A) (A)
                 (A) (A) (A) (A) (A) (A) (A) (A) (A) (A) (A) (A)
                 (A) (A) (A) (A) (A) (A) (A) (A) (A) (A) (A) (A)
                 (A) (A) (A) (A) (A) (A) (A) (A) (A) (A) (A) (A)
                 (A) (A) (A) (A) (A) (A) (A) (A) (A) (A) (A) (A)
                 (A) (A) (A) (A) (A) (A) (A) (A) (A) (A) (A) (A)
                 (A) (A) (A) (A) (A) (A) (A) (A) (A) (A) (A) (A)
                 (A) (A) (A) (A) (A) (A) (A) (A) (A) (A) (A) (A)
                 (A) (A) (A) (A) (A) (A) (A) (A) (A) (A) (A) (A)
                 (A) (A) (A) (A) (A) (A) (A) (A) (A) (A) (A) (A)
                 (A) (A) (A) (A) (A) (A) (A) (A) (A) (A) (A) (A)
                 (A) (A) (A) (A) (A) (A) (A) (A) (A) (A) (A) (A)
                 (A) (A) (A) (A) (A) (A) (A) (A) (A) (A) (A) (A)
                 (A) (A) (A) (A) (A) (A) (A) (A) (A) (A) (A) (A)
                 (A) (A) (A) (A) (A) (A) (A) (A) (A) (A) (A) (A)
                 (A) (A) (A) (A) (A) (A) (A) (A) (A) (A) (A) (A)
                 (A) (A) (A) (A) (A) (A) (A) (A) (A) (A) (A) (A)
                 (A) (A) (A) (A) (A) (A) (A) (A) (A) (A) (A) (A)
                 (A) (A) (A) (A) (A) (A) (A) (A) (A) (A) (A) (A)
                 (A) (A) (A) (A) (A) (A) (A) (A) (A) (A) (A) (A)
                 (A) (A) (A) (A) (A) (A) (A) (A) (A) (A) (A) (A)
                 (A) (A) (A) (A) (A) (A) (A) (A) (A) (A) (A) (A)
                 (A) (A) (A) (A) (A) (A) (A) (A) (A) (A) (A) (A)
                 (A) (A) (A) (A) (A) (A) (A) (A) (A) (A) (A) (A)
                 (A) (A) (A) (A) (A) (A) (A) (A) (A) (A) (A) (A)
                 (A) (A) (A) (A) (A) (A) (A) (A) (A) (A) (A) (A)
                 (A) (A) (A) (A) (A) (A) (A) (A) (A) (A) (A) (A)
                 (A) (A) (A) (A) (A) (A) (A) (A) (A) (A) (A) (A)
                 (A) (A) (A) (A) (A) (A) (A) (A) (A) (A) (A) (A)
                 (A) (A) (A) (A) (A) (A) (A) (A) (A) (A) (A) (A)
                 (A) (A) (A) (A) (A) (A) (A) (A) (A) (A) (A) (A)
                 (A) (A) (A) (A) (A) (A) (A) (A) (A) (A) (A) (A)
                 (A) (A) (A) (A) (A) (A) (A) (A) (A) (A) (A) (A)
                 (A) (A) (A) (A) (A) (A) (A) (A) (A) (A) (A) (A)
                 (A) (A) (A) (A) (A) (A) (A) (A) (A) (A) (A) (A)
                 (A) (A) (A) (A) (A) (A) (A) (A) (A) (A) (A) (A)
                 (A) (A) (A) (A) (A) (A) (A) (A) (A) (A) (A) (A)
                 (A) (A) (A) (A) (A) (A) (A) (A) (A) (A) (A) (A)
                 (A) (A) (A) (A) (A) (A) (A) (A) (A) (A) (A) (A)
[...]
              Bcc     0.0573     7.683     2.741     2.563  0.1541 -0.2335  0.9601
 
              Baa    -0.0130    -1.751    -0.625    -0.584  0.1051 -0.2531  0.9617
    19 C(13)  Bbb     0.0037     0.499     0.178     0.166  0.3428  0.9170  0.2038
              Bcc     0.0093     1.252     0.447     0.418  0.9335 -0.3082 -0.1831
 
              Baa    -0.0898    -3.464    -1.236    -1.155  0.0689  0.9670  0.2453
    20 N(14)  Bbb    -0.0847    -3.267    -1.166    -1.090  0.9939 -0.0453 -0.1008
              Bcc     0.1745     6.731     2.402     2.245  0.0864 -0.2507  0.9642
 
              Baa    -0.1322     9.566     3.413     3.191 -0.3620  0.8915  0.2722
    21 O(17)  Bbb    -0.1198     8.668     3.093     2.891  0.9266  0.3760  0.0011
              Bcc     0.2520   -18.234    -6.506    -6.082  0.1014 -0.2527  0.9622
 
              Baa    -0.1543    11.162     3.983     3.723  0.6491  0.7488  0.1343
    22 O(17)  Bbb    -0.1410    10.201     3.640     3.403  0.7539 -0.6095 -0.2454
              Bcc     0.2952   -21.363    -7.623    -7.126  0.1019 -0.2606  0.9601
 
              Baa    -0.0632    -8.484    -3.027    -2.830  0.0596  0.0322  0.9977
    23 C(13)  Bbb     0.0271     3.640     1.299     1.214  0.7749 -0.6316 -0.0259
              Bcc     0.0361     4.845     1.729     1.616  0.6293  0.7746 -0.0626
 
              Baa    -0.0306    -1.182    -0.422    -0.394  0.2093  0.9744 -0.0819
    24 N(14)  Bbb    -0.0233    -0.897    -0.320    -0.299  0.9666 -0.2188 -0.1336
              Bcc     0.0539     2.079     0.742     0.694  0.1481  0.0512  0.9876
 
              Baa    -0.0747   -10.031    -3.579    -3.346  0.0978  0.9941 -0.0480
    25 C(13)  Bbb    -0.0735    -9.859    -3.518    -3.289  0.9938 -0.1001 -0.0489
              Bcc     0.1482    19.890     7.097     6.635  0.0535  0.0429  0.9976
 
              Baa    -0.0344    -4.612    -1.646    -1.538  0.0898 -0.0049  0.9960
    26 C(13)  Bbb     0.0166     2.225     0.794     0.742  0.2558  0.9666 -0.0183
              Bcc     0.0178     2.387     0.852     0.796  0.9626 -0.2564 -0.0880
 
              Baa    -0.0623    -8.357    -2.982    -2.788  0.9271  0.3687 -0.0668
    27 C(13)  Bbb    -0.0605    -8.123    -2.899    -2.710 -0.3662  0.9294  0.0463
              Bcc     0.1228    16.480     5.881     5.497  0.0792 -0.0184  0.9967
 
              Baa    -0.0017    -0.225    -0.080    -0.075  0.6982  0.5089 -0.5036
    28 C(13)  Bbb     0.0006     0.077     0.028     0.026 -0.0242  0.7198  0.6938
              Bcc     0.0011     0.148     0.053     0.049  0.7155 -0.4722  0.5149
 
              Baa    -0.0526    -7.056    -2.518    -2.354  0.0278  0.1536  0.9877
    29 C(13)  Bbb     0.0226     3.037     1.084     1.013 -0.5615  0.8199 -0.1117
              Bcc     0.0299     4.019     1.434     1.340  0.8270  0.5515 -0.1091
 
              Baa    -0.0579    -7.770    -2.772    -2.592  0.2108  0.9624 -0.1714
    30 C(13)  Bbb    -0.0550    -7.377    -2.632    -2.461  0.9768 -0.2140  0.0001
              Bcc     0.1129    15.147     5.405     5.053  0.0366  0.1675  0.9852
 
              Baa    -0.0192    -2.575    -0.919    -0.859  0.0227  0.1742  0.9845
    31 C(13)  Bbb     0.0079     1.058     0.377     0.353 -0.1168  0.9784 -0.1704
              Bcc     0.0113     1.517     0.541     0.506  0.9929  0.1111 -0.0426
 
              Baa    -0.0142    -1.905    -0.680    -0.636 -0.3708  0.9157 -0.1548
    32 C(13)  Bbb    -0.0137    -1.834    -0.654    -0.612  0.9287  0.3646 -0.0675
              Bcc     0.0279     3.739     1.334     1.247  0.0054  0.1688  0.9856
 
              Baa    -0.0097    -1.305    -0.466    -0.435  0.0173  0.1718  0.9850
    33 C(13)  Bbb     0.0042     0.561     0.200     0.187 -0.6048  0.7863 -0.1265
              Bcc     0.0055     0.745     0.266     0.248  0.7962  0.5935 -0.1175
 
              Baa    -0.0150    -2.015    -0.719    -0.672 -0.3843  0.9099 -0.1562
    34 C(13)  Bbb    -0.0140    -1.884    -0.672    -0.628  0.9231  0.3760 -0.0807
              Bcc     0.0291     3.899     1.391     1.300  0.0147  0.1752  0.9844
 
              Baa    -0.0168     1.215     0.434     0.405  0.7829  0.6101 -0.1223
    35 O(17)  Bbb    -0.0138     0.998     0.356     0.333 -0.6220  0.7721 -0.1304
              Bcc     0.0306    -2.213    -0.790    -0.738  0.0148  0.1782  0.9839
 
              Baa    -0.0005    -0.062    -0.022    -0.021  0.0019  0.1516  0.9884
    36 C(13)  Bbb    -0.0001    -0.018    -0.006    -0.006  0.3099  0.9397 -0.1447
              Bcc     0.0006     0.080     0.029     0.027  0.9508 -0.3066  0.0452
 
              Baa    -0.0112    -1.502    -0.536    -0.501  0.0154  0.1721  0.9850
    37 C(13)  Bbb     0.0051     0.680     0.243     0.227 -0.0677  0.9830 -0.1706
              Bcc     0.0061     0.823     0.293     0.274  0.9976  0.0640 -0.0268
 
              Baa    -0.0123    -1.655    -0.591    -0.552 -0.4799  0.8658 -0.1418
    38 C(13)  Bbb    -0.0113    -1.514    -0.540    -0.505  0.8771  0.4699 -0.0993
              Bcc     0.0236     3.169     1.131     1.057  0.0193  0.1721  0.9849
 
              Baa    -0.0017    -0.232    -0.083    -0.077 -0.5934  0.6799  0.4308
    39 C(13)  Bbb     0.0005     0.066     0.024     0.022 -0.0617 -0.5721  0.8178
              Bcc     0.0012     0.166     0.059     0.055  0.8025  0.4587  0.3815
 
              Baa    -0.0484    -6.489    -2.315    -2.165  0.2800  0.3217  0.9045
    40 C(13)  Bbb     0.0198     2.657     0.948     0.886  0.0119  0.9410 -0.3383
              Bcc     0.0286     3.832     1.367     1.278  0.9599 -0.1055 -0.2597
 
              Baa    -0.0542    -7.274    -2.595    -2.426  0.7560  0.4117 -0.5089
    41 C(13)  Bbb    -0.0510    -6.840    -2.441    -2.281 -0.5630  0.8056 -0.1847
              Bcc     0.1052    14.113     5.036     4.708  0.3339  0.4261  0.8408
 
              Baa    -0.0174    -2.333    -0.832    -0.778  0.3286  0.4571  0.8265
    42 C(13)  Bbb     0.0070     0.940     0.335     0.313  0.5620  0.6087 -0.5600
              Bcc     0.0104     1.393     0.497     0.465  0.7591 -0.6485  0.0569
 
              Baa    -0.0111    -1.495    -0.534    -0.499  0.3093  0.7724 -0.5547
    43 C(13)  Bbb    -0.0100    -1.340    -0.478    -0.447  0.8871 -0.4445 -0.1242
              Bcc     0.0211     2.835     1.012     0.946  0.3425  0.4537  0.8227
 
              Baa    -0.0103    -1.382    -0.493    -0.461  0.3322  0.4534  0.8271
    44 C(13)  Bbb     0.0046     0.611     0.218     0.204  0.5651  0.6064 -0.5594
              Bcc     0.0057     0.770     0.275     0.257  0.7552 -0.6532  0.0548
 
              Baa    -0.0136    -1.821    -0.650    -0.608  0.3405  0.7553 -0.5600
    45 C(13)  Bbb    -0.0126    -1.695    -0.605    -0.565  0.8793 -0.4668 -0.0950
              Bcc     0.0262     3.517     1.255     1.173  0.3332  0.4600  0.8230
 
              Baa    -0.0150     1.084     0.387     0.362  0.9413 -0.1519 -0.3016
    46 O(17)  Bbb    -0.0122     0.885     0.316     0.295 -0.0129  0.8763 -0.4815
              Bcc     0.0272    -1.970    -0.703    -0.657  0.3374  0.4571  0.8229
 
              Baa    -0.0004    -0.055    -0.020    -0.018  0.3324  0.4499  0.8290
    47 C(13)  Bbb    -0.0002    -0.024    -0.009    -0.008  0.7991  0.3326 -0.5009
              Bcc     0.0006     0.079     0.028     0.026 -0.5010  0.8289 -0.2489
 
              Baa    -0.0086    -1.152    -0.411    -0.384  0.3366  0.4547  0.8246
    48 C(13)  Bbb     0.0037     0.501     0.179     0.167  0.1152  0.8493 -0.5153
              Bcc     0.0049     0.651     0.232     0.217  0.9346 -0.2684 -0.2335
 
              Baa    -0.0130    -1.751    -0.625    -0.584  0.5444  0.6237 -0.5609
    49 C(13)  Bbb    -0.0124    -1.668    -0.595    -0.557  0.7795 -0.6231  0.0637
              Bcc     0.0255     3.419     1.220     1.141  0.3098  0.4719  0.8255
 
              Baa    -0.0086    -4.335    -1.547    -1.446 -0.1114  0.9886 -0.1015
    50 F(19)  Bbb    -0.0071    -3.557    -1.269    -1.186  0.3869  0.1372  0.9118
              Bcc     0.0157     7.892     2.816     2.632  0.9154  0.0623 -0.3978
 
              Baa    -0.0058    -2.892    -1.032    -0.965 -0.2325 -0.1485  0.9612
    51 F(19)  Bbb    -0.0025    -1.240    -0.443    -0.414 -0.2904  0.9538  0.0771
              Bcc     0.0082     4.132     1.475     1.378  0.9282  0.2613  0.2649
 
              Baa    -0.0017    -0.885    -0.316    -0.295  0.1643  0.0350  0.9858
    52 H(1)   Bbb    -0.0008    -0.404    -0.144    -0.135 -0.1492  0.9888 -0.0102
              Bcc     0.0024     1.289     0.460     0.430  0.9751  0.1454 -0.1677
 
              Baa    -0.0022    -1.191    -0.425    -0.397 -0.3377 -0.5313  0.7769
    53 H(1)   Bbb    -0.0007    -0.384    -0.137    -0.128 -0.3798  0.8322  0.4040
              Bcc     0.0030     1.574     0.562     0.525  0.8612  0.1586  0.4828
 
              Baa    -0.0025    -1.335    -0.476    -0.445 -0.1844  0.7846  0.5919
    54 H(1)   Bbb    -0.0001    -0.053    -0.019    -0.018 -0.5660 -0.5771  0.5887
              Bcc     0.0026     1.388     0.495     0.463  0.8035 -0.2265  0.5505
 
              Baa    -0.0016    -0.836    -0.298    -0.279  0.0476 -0.1983  0.9790
    55 H(1)   Bbb     0.0000     0.021     0.007     0.007  0.5578  0.8183  0.1387
              Bcc     0.0015     0.816     0.291     0.272  0.8286 -0.5395 -0.1496
 
              Baa    -0.0021    -1.143    -0.408    -0.381  0.8402  0.4702 -0.2702
    56 H(1)   Bbb    -0.0014    -0.748    -0.267    -0.249  0.3450 -0.0791  0.9352
              Bcc     0.0035     1.891     0.675     0.631 -0.4184  0.8790  0.2287
 
              Baa    -0.0017    -0.906    -0.323    -0.302 -0.0410 -0.2281  0.9728
    57 H(1)   Bbb    -0.0006    -0.339    -0.121    -0.113  0.2296  0.9454  0.2314
              Bcc     0.0023     1.245     0.444     0.415  0.9724 -0.2328 -0.0136
 
              Baa    -0.0021    -1.116    -0.398    -0.372  0.0963  0.0427  0.9944
    58 H(1)   Bbb    -0.0005    -0.287    -0.102    -0.096  0.3934  0.9161 -0.0775
              Bcc     0.0026     1.403     0.501     0.468  0.9143 -0.3987 -0.0714
 
              Baa    -0.0019    -1.030    -0.368    -0.344 -0.3410  0.0283  0.9396
    59 H(1)   Bbb    -0.0004    -0.223    -0.080    -0.074  0.3729  0.9216  0.1076
              Bcc     0.0023     1.253     0.447     0.418  0.8630 -0.3871  0.3248
 
              Baa    -0.0013    -0.698    -0.249    -0.233 -0.0695 -0.0957  0.9930
    60 H(1)   Bbb    -0.0010    -0.519    -0.185    -0.173  0.8712  0.4791  0.1071
              Bcc     0.0023     1.218     0.435     0.406 -0.4860  0.8725  0.0501
 
              Baa    -0.0019    -1.040    -0.371    -0.347  0.2877 -0.1799  0.9407
    61 H(1)   Bbb    -0.0004    -0.199    -0.071    -0.066  0.5388  0.8424 -0.0037
              Bcc     0.0023     1.239     0.442     0.413  0.7918 -0.5079 -0.3393
 
              Baa    -0.0022    -1.181    -0.421    -0.394  0.1758 -0.1410  0.9743
    62 H(1)   Bbb    -0.0022    -1.153    -0.411    -0.384 -0.4476  0.8700  0.2067
              Bcc     0.0044     2.334     0.833     0.778  0.8768  0.4724 -0.0899
 
              Baa    -0.0056    -3.011    -1.075    -1.004  0.7912  0.6011 -0.1127
    63 H(1)   Bbb    -0.0017    -0.899    -0.321    -0.300  0.0490  0.1214  0.9914
              Bcc     0.0073     3.910     1.395     1.304 -0.6096  0.7899 -0.0666
 
              Baa    -0.0012    -0.632    -0.226    -0.211  0.9801 -0.1807 -0.0823
    64 H(1)   Bbb    -0.0009    -0.462    -0.165    -0.154  0.1028  0.1070  0.9889
              Bcc     0.0021     1.095     0.391     0.365  0.1699  0.9777 -0.1235
 
              Baa    -0.0006    -0.317    -0.113    -0.106  0.0152  0.1517  0.9883
    65 H(1)   Bbb    -0.0002    -0.123    -0.044    -0.041 -0.6060  0.7876 -0.1116
              Bcc     0.0008     0.439     0.157     0.147  0.7953  0.5973 -0.1040
 
              Baa    -0.0003    -0.167    -0.060    -0.056  0.1697 -0.0984  0.9806
    66 H(1)   Bbb    -0.0001    -0.065    -0.023    -0.022  0.3533  0.9349  0.0327
              Bcc     0.0004     0.232     0.083     0.077  0.9200 -0.3409 -0.1934
 
              Baa    -0.0003    -0.163    -0.058    -0.054 -0.1866  0.3637  0.9126
    67 H(1)   Bbb    -0.0001    -0.072    -0.026    -0.024  0.3321  0.8976 -0.2898
              Bcc     0.0004     0.235     0.084     0.078  0.9246 -0.2490  0.2883
 
              Baa    -0.0002    -0.122    -0.043    -0.041  0.0174 -0.4994  0.8662
    68 H(1)   Bbb    -0.0002    -0.117    -0.042    -0.039 -0.0101  0.8662  0.4996
              Bcc     0.0004     0.239     0.085     0.080  0.9998  0.0174 -0.0100
 
              Baa    -0.0005    -0.288    -0.103    -0.096  0.0110  0.1523  0.9883
    69 H(1)   Bbb    -0.0002    -0.108    -0.038    -0.036  0.1126  0.9819 -0.1526
              Bcc     0.0007     0.395     0.141     0.132  0.9936 -0.1129  0.0063
 
              Baa    -0.0009    -0.464    -0.165    -0.155 -0.0248  0.1404  0.9898
    70 H(1)   Bbb    -0.0005    -0.273    -0.097    -0.091  0.8608  0.5065 -0.0503
              Bcc     0.0014     0.737     0.263     0.246 -0.5083  0.8508 -0.1334
 
              Baa    -0.0018    -0.959    -0.342    -0.320 -0.3394  0.1880  0.9217
    71 H(1)   Bbb    -0.0006    -0.305    -0.109    -0.102 -0.2493  0.9268 -0.2808
              Bcc     0.0024     1.264     0.451     0.422  0.9070  0.3251  0.2677
 
              Baa    -0.0020    -1.059    -0.378    -0.353  0.3026  0.3249  0.8960
    72 H(1)   Bbb    -0.0003    -0.154    -0.055    -0.051 -0.4276  0.8865 -0.1770
              Bcc     0.0023     1.213     0.433     0.405  0.8518  0.3296 -0.4072
 
              Baa    -0.0013    -0.669    -0.239    -0.223  0.0356  0.3002  0.9532
    73 H(1)   Bbb    -0.0011    -0.568    -0.203    -0.190  0.7862 -0.5973  0.1587
              Bcc     0.0023     1.237     0.441     0.413  0.6170  0.7437 -0.2573
 
              Baa    -0.0025    -1.342    -0.479    -0.447  0.3873  0.9216  0.0248
    74 H(1)   Bbb    -0.0016    -0.868    -0.310    -0.290  0.1183 -0.0763  0.9900
              Bcc     0.0041     2.210     0.789     0.737  0.9143 -0.3805 -0.1386
 
              Baa    -0.0056    -3.006    -1.073    -1.003  0.9536 -0.1270 -0.2730
    75 H(1)   Bbb    -0.0012    -0.641    -0.229    -0.214  0.3011  0.3890  0.8707
              Bcc     0.0068     3.647     1.301     1.216  0.0044  0.9124 -0.4092
 
              Baa    -0.0009    -0.463    -0.165    -0.155  0.4151  0.3834  0.8251
    76 H(1)   Bbb    -0.0003    -0.171    -0.061    -0.057  0.9077 -0.2355 -0.3472
              Bcc     0.0012     0.634     0.226     0.212  0.0612  0.8931 -0.4458
 
              Baa    -0.0005    -0.272    -0.097    -0.091  0.3382  0.4252  0.8395
    77 H(1)   Bbb    -0.0003    -0.150    -0.053    -0.050  0.6649  0.5234 -0.5329
              Bcc     0.0008     0.421     0.150     0.141 -0.6660  0.7384 -0.1057
 
              Baa    -0.0003    -0.149    -0.053    -0.050  0.2090  0.1464  0.9669
    78 H(1)   Bbb    -0.0002    -0.092    -0.033    -0.031  0.8959  0.3678 -0.2493
              Bcc     0.0005     0.241     0.086     0.080 -0.3921  0.9183 -0.0543
 
              Baa    -0.0003    -0.144    -0.052    -0.048  0.4259  0.6883  0.5872
    79 H(1)   Bbb    -0.0002    -0.094    -0.033    -0.031  0.7206  0.1344 -0.6802
              Bcc     0.0004     0.238     0.085     0.079 -0.5471  0.7129 -0.4388
 
              Baa    -0.0002    -0.123    -0.044    -0.041 -0.5774 -0.5108  0.6369
    80 H(1)   Bbb    -0.0002    -0.107    -0.038    -0.036  0.4014  0.5017  0.7663
              Bcc     0.0004     0.230     0.082     0.077  0.7109 -0.6982  0.0846
 
              Baa    -0.0005    -0.276    -0.098    -0.092  0.3393  0.4229  0.8402
    81 H(1)   Bbb    -0.0001    -0.066    -0.023    -0.022  0.1331  0.8626 -0.4880
              Bcc     0.0006     0.341     0.122     0.114  0.9312 -0.2774 -0.2364
 
              Baa    -0.0009    -0.499    -0.178    -0.167 -0.6074  0.7944  0.0021
    82 H(1)   Bbb    -0.0007    -0.388    -0.138    -0.129  0.3809  0.2888  0.8784
              Bcc     0.0017     0.887     0.317     0.296  0.6971  0.5343 -0.4780
 

 ---------------------------------------------------------------------------------

 No NMR shielding tensors so no spin-rotation constants.
 Leave Link  601 at Thu Nov  6 19:59:41 2025, MaxMem= 30870077440 cpu:             214.3 elap:               3.7
 (Enter /public/software/gauss/g16/l9999.exe)
 1\1\GINC-CU319\SP\UM062X\def2TZVPP\C37H31B1F2N4O7(1-,2)\BAIDING\06-Nov
 -2025\0\\#p M062X/DEF2TZVPP scrf=(solvent=water) em=GD3\\Energy calcul
 ation for BE_OMe_reduced\\-1,2\B,0,-1.112857,0.095474,-0.211032\N,0,-0
 .112247,1.255211,-0.448424\C,0,-0.395481,2.585544,-0.615332\C,0,0.8120
 05,3.263215,-0.910303\C,0,1.858422,2.35803,-0.890454\C,0,1.27022,1.081
 225,-0.605571\C,0,1.844889,-0.20153,-0.541218\C,0,3.355847,-0.345416,-
 0.620297\O,0,3.899122,-0.525959,-1.698075\C,0,4.096325,-0.262084,0.707
 565\C,0,5.597646,-0.369384,0.60215\C,0,6.523277,0.692118,0.765474\N,0,
 6.114508,2.020664,1.210538\O,0,6.751924,3.001765,0.805771\O,0,5.152499
 ,2.126741,1.985532\C,0,7.890374,0.551562,0.561739\C,0,8.411094,-0.6991
 31,0.198582\C,0,7.523108,-1.789177,0.028742\C,0,6.164953,-1.601226,0.2
 21816\N,0,9.784991,-0.853439,0.01974\O,0,10.248217,-2.006275,-0.332917
 \O,0,10.575478,0.153219,0.198561\C,0,1.054823,-1.352113,-0.427402\N,0,
 -0.333261,-1.236805,-0.348497\C,0,-0.873491,-2.487674,-0.276848\C,0,0.
 185317,-3.433577,-0.318949\C,0,1.384621,-2.753972,-0.414376\C,0,2.7273
 47,-3.408887,-0.518043\C,0,-2.29057,-2.722702,-0.1975\C,0,-2.832577,-3
 .950359,0.014053\C,0,-4.247305,-4.278798,0.096707\C,0,-5.282054,-3.333
 079,-0.051637\C,0,-6.621378,-3.696892,0.035127\C,0,-6.964057,-5.037075
 ,0.276028\O,0,-8.245135,-5.499053,0.37729\C,0,-9.318412,-4.563059,0.22
 0749\C,0,-5.95138,-5.997531,0.428232\C,0,-4.621133,-5.619772,0.339115\
 C,0,3.293237,2.712521,-1.135849\C,0,-1.65805,3.274645,-0.513176\C,0,-2
 .821908,2.859491,0.049717\C,0,-4.060684,3.624049,0.121274\C,0,-5.14502
 2,3.086146,0.850169\C,0,-6.351108,3.759719,0.963686\C,0,-6.517701,5.00
 7108,0.34227\O,0,-7.739526,5.597644,0.505072\C,0,-7.96209,6.872684,-0.
 107764\C,0,-5.459738,5.56365,-0.393399\C,0,-4.255273,4.87517,-0.49763\
 F,0,-1.671861,0.173898,1.078955\F,0,-2.143352,0.141759,-1.160138\H,0,0
 .887287,4.325718,-1.10037\H,0,3.768469,0.652791,1.20319\H,0,3.695518,-
 1.078719,1.32403\H,0,8.553867,1.390715,0.710594\H,0,7.916121,-2.757601
 ,-0.250114\H,0,5.499472,-2.445273,0.073254\H,0,0.066785,-4.508035,-0.3
 09903\H,0,3.364486,-3.170338,0.339925\H,0,2.605241,-4.494327,-0.546663
 \H,0,3.26372,-3.103564,-1.420787\H,0,-2.931467,-1.858346,-0.326005\H,0
 ,-2.16285,-4.798378,0.144366\H,0,-5.043195,-2.291248,-0.239603\H,0,-7.
 387271,-2.94064,-0.085163\H,0,-9.278608,-3.781918,0.987112\H,0,-9.3025
 58,-4.104416,-0.773438\H,0,-10.234815,-5.142003,0.339389\H,0,-6.230082
 ,-7.029788,0.613871\H,0,-3.845016,-6.370884,0.457711\H,0,3.884237,2.64
 3245,-0.217242\H,0,3.762996,2.068626,-1.88329\H,0,3.358829,3.744589,-1
 .489086\H,0,-1.602534,4.284288,-0.913172\H,0,-2.858965,1.888225,0.5291
 84\H,0,-5.027557,2.120938,1.335079\H,0,-7.177659,3.338683,1.527058\H,0
 ,-7.27187,7.627298,0.283823\H,0,-7.862037,6.812789,-1.196615\H,0,-8.98
 5433,7.149276,0.148089\H,0,-5.569701,6.521772,-0.8864\H,0,-3.457338,5.
 323531,-1.081074\\Version=ES64L-G16RevA.03\State=2-A\HF=-2398.8041152\
 S2=0.776603\S2-1=0.\S2A=0.750601\RMSD=3.267e-09\Dipole=-6.2209504,-0.4
 394754,0.4747136\Quadrupole=-84.3752857,55.7237875,28.6514982,-20.8019
 267,10.186468,-13.5630163\PG=C01 [X(C37H31B1F2N4O7)]\\@


 A DANDELION FROM A LOVER MEANS MORE THAN AN ORCHID FROM A FRIEND.
 Job cpu time:       2 days 12 hours 14 minutes 45.5 seconds.
 Elapsed time:       0 days  0 hours 57 minutes  2.4 seconds.
 File lengths (MBytes):  RWF=   4330 Int=      0 D2E=      0 Chk=    283 Scr=      1
 Normal termination of Gaussian 16 at Thu Nov  6 19:59:42 2025.
