 Entering Gaussian System, Link 0=g16
 Input=BE_sin_sp.gjf
 Output=BE_sin_sp.log
 Initial command:
 /public/software/gauss/g16/l1.exe "/public/home/baiding/1105_BE_sp/tmp_BE_sin_sp_1568733/Gau-1948833.inp" -scrdir="/public/home/baiding/1105_BE_sp/tmp_BE_sin_sp_1568733/"
 Entering Link 1 = /public/software/gauss/g16/l1.exe PID=   1948834.
  
 Copyright (c) 1988,1990,1992,1993,1995,1998,2003,2009,2016,
            Gaussian, Inc.  All Rights Reserved.
  
 This is part of the Gaussian(R) 16 program.  It is based on
 the Gaussian(R) 09 system (copyright 2009, Gaussian, Inc.),
 the Gaussian(R) 03 system (copyright 2003, Gaussian, Inc.),
 the Gaussian(R) 98 system (copyright 1998, Gaussian, Inc.),
 the Gaussian(R) 94 system (copyright 1995, Gaussian, Inc.),
 the Gaussian 92(TM) system (copyright 1992, Gaussian, Inc.),
 the Gaussian 90(TM) system (copyright 1990, Gaussian, Inc.),
 the Gaussian 88(TM) system (copyright 1988, Gaussian, Inc.),
 the Gaussian 86(TM) system (copyright 1986, Carnegie Mellon
 University), and the Gaussian 82(TM) system (copyright 1983,
 Carnegie Mellon University). Gaussian is a federally registered
 trademark of Gaussian, Inc.
  
 This software contains proprietary and confidential information,
 including trade secrets, belonging to Gaussian, Inc.
  
 This software is provided under written license and may be
 used, copied, transmitted, or stored only in accord with that
 written license.
  
 The following legend is applicable only to US Government
 contracts under FAR:
  
                    RESTRICTED RIGHTS LEGEND
  
 Use, reproduction and disclosure by the US Government is
 subject to restrictions as set forth in subparagraphs (a)
 and (c) of the Commercial Computer Software - Restricted
 Rights clause in FAR 52.227-19.
  
 Gaussian, Inc.
 340 Quinnipiac St., Bldg. 40, Wallingford CT 06492
  
  
 ---------------------------------------------------------------
 Warning -- This program may not be used in any manner that
 competes with the business of Gaussian, Inc. or will provide
 assistance to any competitor of Gaussian, Inc.  The licensee
 of this program is prohibited from giving any competitor of
 Gaussian, Inc. access to this program.  By using this program,
 the user acknowledges that Gaussian, Inc. is engaged in the
 business of creating and licensing software in the field of
 computational chemistry and represents and warrants to the
 licensee that it is not a competitor of Gaussian, Inc. and that
 it will not use this program in any manner prohibited above.
 ---------------------------------------------------------------
  

 Cite this work as:
 Gaussian 16, Revision A.03,
 M. J. Frisch, G. W. Trucks, H. B. Schlegel, G. E. Scuseria, 
 M. A. Robb, J. R. Cheeseman, G. Scalmani, V. Barone, 
 G. A. Petersson, H. Nakatsuji, X. Li, M. Caricato, A. V. Marenich, 
 J. Bloino, B. G. Janesko, R. Gomperts, B. Mennucci, H. P. Hratchian, 
 J. V. Ortiz, A. F. Izmaylov, J. L. Sonnenberg, D. Williams-Young, 
 F. Ding, F. Lipparini, F. Egidi, J. Goings, B. Peng, A. Petrone, 
 T. Henderson, D. Ranasinghe, V. G. Zakrzewski, J. Gao, N. Rega, 
 G. Zheng, W. Liang, M. Hada, M. Ehara, K. Toyota, R. Fukuda, 
 J. Hasegawa, M. Ishida, T. Nakajima, Y. Honda, O. Kitao, H. Nakai, 
 T. Vreven, K. Throssell, J. A. Montgomery, Jr., J. E. Peralta, 
 F. Ogliaro, M. J. Bearpark, J. J. Heyd, E. N. Brothers, K. N. Kudin, 
 V. N. Staroverov, T. A. Keith, R. Kobayashi, J. Normand, 
 K. Raghavachari, A. P. Rendell, J. C. Burant, S. S. Iyengar, 
 J. Tomasi, M. Cossi, J. M. Millam, M. Klene, C. Adamo, R. Cammi, 
 J. W. Ochterski, R. L. Martin, K. Morokuma, O. Farkas, 
 J. B. Foresman, and D. J. Fox, Gaussian, Inc., Wallingford CT, 2016.
 
 ******************************************
 Gaussian 16:  ES64L-G16RevA.03 25-Dec-2016
                 6-Nov-2025 
 ******************************************
 %nprocshared=64
 Will use up to   64 processors via shared memory.
 %mem=230GB
 %chk=BE_sin_sp.chk
 ----------------------------------------------
 #p M062X/DEF2TZVPP scrf=(solvent=water) em=GD3
 ----------------------------------------------
 1/38=1,172=1/1;
 2/12=2,17=6,18=5,40=1/2;
 3/5=44,7=202,11=2,25=1,30=1,70=2201,72=1,74=-55,124=31/1,2,3;
 4//1;
 5/5=2,38=5,53=1/2;
 6/7=2,8=2,9=2,10=2,28=1/1;
 99/5=1,9=1/99;
 Leave Link    1 at Thu Nov  6 04:28:21 2025, MaxMem= 30870077440 cpu:              10.1 elap:               0.2
 (Enter /public/software/gauss/g16/l101.exe)
 -----------------------------
 Energy calculation for BE_sin
 -----------------------------
 Symbolic Z-matrix:
 Charge =  0 Multiplicity = 1
 B                     0.33636  -2.80962  -0.45727 
 N                    -0.8312   -2.27764  -1.32853 
 C                    -1.80154  -3.01078  -1.92736 
 C                    -2.7134   -2.13684  -2.55173 
 C                    -2.30279  -0.8279   -2.33179 
 C                    -1.10341  -0.91863  -1.55148 
 C                    -0.21645   0.06113  -1.08404 
 C                    -0.56115   1.52477  -1.29965 
 O                    -0.195     2.10363  -2.30626 
 C                    -1.37954   2.15852  -0.18224 
 C                    -1.77295   3.59252  -0.43327 
 C                    -3.09624   4.0649   -0.53265 
 N                    -4.25795   3.19323  -0.31007 
 O                    -5.26812   3.4058   -0.98243 
 O                    -4.18016   2.30981   0.54647 
 C                    -3.40583   5.38779  -0.83454 
 C                    -2.35687   6.27674  -1.0109 
 C                    -1.02684   5.87307  -0.91141 
 C                    -0.75567   4.53976  -0.63546 
 N                    -2.66488   7.6759   -1.30543 
 O                    -3.84963   8.01036  -1.37908 
 O                    -1.72338   8.45541  -1.46765 
 C                     0.97923  -0.26906  -0.43315 
 N                     1.28151  -1.61351  -0.17007 
 C                     2.47461  -1.66735   0.46778 
 C                     2.97766  -0.35766   0.60727 
 C                     2.06533   0.53204   0.05388 
 C                     2.25695   2.01554  -0.02387 
 C                     3.11831  -2.93965   0.9211 
 C                     4.02942  -3.61625  -0.14511 
 C                     5.27807  -2.8348   -0.48515 
 C                     5.33873  -2.00167  -1.61308 
 C                     6.48406  -1.26908  -1.91276 
 C                     7.60859  -1.35087  -1.08116 
 O                     8.69226  -0.59512  -1.47775 
 C                     9.91099  -0.65393  -0.72817 
 C                     9.87816   0.2953    0.46532 
 O                     11.14723   0.20618   1.10167 
 C                     11.24395   1.04799   2.25052 
 C                     12.62145   0.92562   2.87801 
 O                     13.65629   1.61397   2.17943 
 C                     14.17414   0.93257   1.03507 
 C                     15.44313   1.63876   0.58998 
 O                     16.49141   1.61684   1.55754 
 C                     17.18174   0.3737    1.62297 
 C                     7.57242  -2.17388   0.05012 
 C                     6.41346  -2.9023    0.33104 
 C                    -2.99754   0.38789  -2.86341 
 C                    -1.86662  -4.50718  -1.91944 
 C                    -2.42258  -5.14305  -0.61194 
 C                    -3.81156  -4.68002  -0.23476 
 C                    -4.95118  -5.24994  -0.81249 
 C                    -6.23979  -4.81511  -0.48811 
 C                    -6.40178  -3.7794    0.43917 
 O                    -7.61684  -3.27537   0.83596 
 C                    -8.80481  -3.8123    0.23784 
 C                    -10.00086  -3.05812   0.78394 
 O                    -10.04066  -1.70997   0.30952 
 C                    -9.61093  -0.71695   1.2459 
 C                    -10.7098  -0.29131   2.20243 
 O                    -11.77043   0.29257   1.44671 
 C                    -12.94718   0.57121   2.20723 
 C                    -12.87216   1.80421   3.10108 
 O                    -12.84253   3.03832   2.38416 
 C                    -11.54318   3.43651   1.95414 
 C                    -5.2733   -3.19675   1.03266 
 C                    -3.99995  -3.6449    0.69564 
 F                     1.02483  -3.82094  -1.14126 
 F                    -0.15436  -3.32353   0.75828 
 H                    -3.57871  -2.44886  -3.12071 
 H                    -2.23579   1.50864  -0.00107 
 H                    -0.77028   2.0918    0.72899 
 H                    -4.43429   5.71268  -0.90899 
 H                    -0.22524   6.58712  -1.04892 
 H                     0.2762    4.21777  -0.56818 
 H                     3.92205  -0.10176   1.06781 
 H                     2.20615   2.37863  -1.05459 
 H                     1.50305   2.56117   0.55384 
 H                     3.23661   2.28097   0.3805 
 H                     3.72159  -2.71688   1.80672 
 H                     2.34685  -3.65253   1.22283 
 H                     4.31102  -4.59554   0.2572 
 H                     3.43587  -3.79414  -1.04492 
 H                     4.47843  -1.93102  -2.27338 
 H                     6.52605  -0.63277  -2.79134 
 H                     10.13078  -1.67796  -0.40969 
 H                     10.69355  -0.33948  -1.4232 
 H                     9.68509   1.3206    0.11742 
 H                     9.07678   0.02173   1.16626 
 H                     11.05214   2.09541   1.9742 
 H                     10.48858   0.75222   2.99514 
 H                     12.57717   1.38205   3.87234 
 H                     12.87989  -0.13616   3.001 
 H                     14.37029  -0.12036   1.28211 
 H                     13.45767   0.94794   0.20379 
 H                     15.78147   1.19524  -0.35801 
 H                     15.22171   2.69631   0.41137 
 H                     17.60402   0.10018   0.64553 
 H                     17.99732   0.49869   2.33971 
 H                     16.53839  -0.44677   1.96635 
 H                     8.42474  -2.25861   0.71334 
 H                     6.40092  -3.54109   1.21086 
 H                    -2.33572   1.00384  -3.479 
 H                    -3.84734   0.08473  -3.47949 
 H                    -3.3845    1.02358  -2.05984 
 H                    -2.50433  -4.81013  -2.75522 
 H                    -0.86762  -4.91438  -2.09666 
 H                    -2.42299  -6.22754  -0.76649 
 H                    -1.7293   -4.92966   0.20422 
 H                    -4.83877  -6.05838  -1.53091 
 H                    -7.09589  -5.28851  -0.95324 
 H                    -8.75926  -3.70221  -0.85235 
 H                    -8.90328  -4.87876   0.47874 
 H                    -10.9064  -3.56374   0.42999 
 H                    -10.00291  -3.09455   1.87963 
 H                    -8.74623  -1.06345   1.82294 
 H                    -9.29593   0.14448   0.64755 
 H                    -11.08778  -1.15377   2.7719 
 H                    -10.28673   0.42394   2.9222 
 H                    -13.74834   0.7145    1.47454 
 H                    -13.20686  -0.29766   2.83167 
 H                    -13.78699   1.82396   3.70489 
 H                    -12.01954   1.74534   3.79212 
 H                    -11.14374   2.77704   1.176 
 H                    -11.63809   4.44752   1.54851 
 H                    -10.83584   3.45918   2.79515 
 H                    -5.41215  -2.39837   1.75518 
 H                    -3.13255  -3.18829   1.16526 
 
 ITRead=  0  0  0  0  0  0  0  0  0  0  0  0  0  0  0  0  0  0  0  0
 ITRead=  0  0  0  0  0  0  0  0  0  0  0  0  0  0  0  0  0  0  0  0
 ITRead=  0  0  0  0  0  0  0  0  0  0  0  0  0  0  0  0  0  0  0  0
 ITRead=  0  0  0  0  0  0  0  0  0  0  0  0  0  0  0  0  0  0  0  0
 ITRead=  0  0  0  0  0  0  0  0  0  0  0  0  0  0  0  0  0  0  0  0
 ITRead=  0  0  0  0  0  0  0  0  0  0  0  0  0  0  0  0  0  0  0  0
 ITRead=  0  0  0  0  0  0  0  0
 MicOpt= -1 -1 -1 -1 -1 -1 -1 -1 -1 -1 -1 -1 -1 -1 -1 -1 -1 -1 -1 -1
 MicOpt= -1 -1 -1 -1 -1 -1 -1 -1 -1 -1 -1 -1 -1 -1 -1 -1 -1 -1 -1 -1
 MicOpt= -1 -1 -1 -1 -1 -1 -1 -1 -1 -1 -1 -1 -1 -1 -1 -1 -1 -1 -1 -1
 MicOpt= -1 -1 -1 -1 -1 -1 -1 -1 -1 -1 -1 -1 -1 -1 -1 -1 -1 -1 -1 -1
 MicOpt= -1 -1 -1 -1 -1 -1 -1 -1 -1 -1 -1 -1 -1 -1 -1 -1 -1 -1 -1 -1
 MicOpt= -1 -1 -1 -1 -1 -1 -1 -1 -1 -1 -1 -1 -1 -1 -1 -1 -1 -1 -1 -1
 MicOpt= -1 -1 -1 -1 -1 -1 -1 -1
 NAtoms=    128 NQM=      128 NQMF=       0 NMMI=      0 NMMIF=      0
                NMic=       0 NMicF=      0.
                    Isotopes and Nuclear Properties:
 (Nuclear quadrupole moments (NQMom) in fm**2, nuclear magnetic moments (NMagM)
  in nuclear magnetons)

  Atom         1           2           3           4           5           6           7           8           9          10
 IAtWgt=          11          14          12          12          12          12          12          12          16          12
 AtmWgt=  11.0093053  14.0030740  12.0000000  12.0000000  12.0000000  12.0000000  12.0000000  12.0000000  15.9949146  12.0000000
 NucSpn=           3           2           0           0           0           0           0           0           0           0
 AtZEff=  -0.0000000  -0.0000000  -0.0000000  -0.0000000  -0.0000000  -0.0000000  -0.0000000  -0.0000000  -0.0000000  -0.0000000
 NQMom=    4.0590000   2.0440000   0.0000000   0.0000000   0.0000000   0.0000000   0.0000000   0.0000000   0.0000000   0.0000000
 NMagM=    2.6886370   0.4037610   0.0000000   0.0000000   0.0000000   0.0000000   0.0000000   0.0000000   0.0000000   0.0000000
 AtZNuc=   5.0000000   7.0000000   6.0000000   6.0000000   6.0000000   6.0000000   6.0000000   6.0000000   8.0000000   6.0000000

  Atom        11          12          13          14          15          16          17          18          19          20
 IAtWgt=          12          12          14          16          16          12          12          12          12          14
 AtmWgt=  12.0000000  12.0000000  14.0030740  15.9949146  15.9949146  12.0000000  12.0000000  12.0000000  12.0000000  14.0030740
 NucSpn=           0           0           2           0           0           0           0           0           0           2
 AtZEff=  -0.0000000  -0.0000000  -0.0000000  -0.0000000  -0.0000000  -0.0000000  -0.0000000  -0.0000000  -0.0000000  -0.0000000
 NQMom=    0.0000000   0.0000000   2.0440000   0.0000000   0.0000000   0.0000000   0.0000000   0.0000000   0.0000000   2.0440000
 NMagM=    0.0000000   0.0000000   0.4037610   0.0000000   0.0000000   0.0000000   0.0000000   0.0000000   0.0000000   0.4037610
 AtZNuc=   6.0000000   6.0000000   7.0000000   8.0000000   8.0000000   6.0000000   6.0000000   6.0000000   6.0000000   7.0000000

  Atom        21          22          23          24          25          26          27          28          29          30
 IAtWgt=          16          16          12          14          12          12          12          12          12          12
 AtmWgt=  15.9949146  15.9949146  12.0000000  14.0030740  12.0000000  12.0000000  12.0000000  12.0000000  12.0000000  12.0000000
 NucSpn=           0           0           0           2           0           0           0           0           0           0
 AtZEff=  -0.0000000  -0.0000000  -0.0000000  -0.0000000  -0.0000000  -0.0000000  -0.0000000  -0.0000000  -0.0000000  -0.0000000
 NQMom=    0.0000000   0.0000000   0.0000000   2.0440000   0.0000000   0.0000000   0.0000000   0.0000000   0.0000000   0.0000000
 NMagM=    0.0000000   0.0000000   0.0000000   0.4037610   0.0000000   0.0000000   0.0000000   0.0000000   0.0000000   0.0000000
 AtZNuc=   8.0000000   8.0000000   6.0000000   7.0000000   6.0000000   6.0000000   6.0000000   6.0000000   6.0000000   6.0000000

  Atom        31          32          33          34          35          36          37          38          39          40
 IAtWgt=          12          12          12          12          16          12          12          16          12          12
 AtmWgt=  12.0000000  12.0000000  12.0000000  12.0000000  15.9949146  12.0000000  12.0000000  15.9949146  12.0000000  12.0000000
 NucSpn=           0           0           0           0           0           0           0           0           0           0
 AtZEff=  -0.0000000  -0.0000000  -0.0000000  -0.0000000  -0.0000000  -0.0000000  -0.0000000  -0.0000000  -0.0000000  -0.0000000
 NQMom=    0.0000000   0.0000000   0.0000000   0.0000000   0.0000000   0.0000000   0.0000000   0.0000000   0.0000000   0.0000000
 NMagM=    0.0000000   0.0000000   0.0000000   0.0000000   0.0000000   0.0000000   0.0000000   0.0000000   0.0000000   0.0000000
 AtZNuc=   6.0000000   6.0000000   6.0000000   6.0000000   8.0000000   6.0000000   6.0000000   8.0000000   6.0000000   6.0000000

  Atom        41          42          43          44          45          46          47          48          49          50
 IAtWgt=          16          12          12          16          12          12          12          12          12          12
 AtmWgt=  15.9949146  12.0000000  12.0000000  15.9949146  12.0000000  12.0000000  12.0000000  12.0000000  12.0000000  12.0000000
 NucSpn=           0           0           0           0           0           0           0           0           0           0
 AtZEff=  -0.0000000  -0.0000000  -0.0000000  -0.0000000  -0.0000000  -0.0000000  -0.0000000  -0.0000000  -0.0000000  -0.0000000
 NQMom=    0.0000000   0.0000000   0.0000000   0.0000000   0.0000000   0.0000000   0.0000000   0.0000000   0.0000000   0.0000000
 NMagM=    0.0000000   0.0000000   0.0000000   0.0000000   0.0000000   0.0000000   0.0000000   0.0000000   0.0000000   0.0000000
 AtZNuc=   8.0000000   6.0000000   6.0000000   8.0000000   6.0000000   6.0000000   6.0000000   6.0000000   6.0000000   6.0000000

  Atom        51          52          53          54          55          56          57          58          59          60
 IAtWgt=          12          12          12          12          16          12          12          16          12          12
 AtmWgt=  12.0000000  12.0000000  12.0000000  12.0000000  15.9949146  12.0000000  12.0000000  15.9949146  12.0000000  12.0000000
 NucSpn=           0           0           0           0           0           0           0           0           0           0
 AtZEff=  -0.0000000  -0.0000000  -0.0000000  -0.0000000  -0.0000000  -0.0000000  -0.0000000  -0.0000000  -0.0000000  -0.0000000
 NQMom=    0.0000000   0.0000000   0.0000000   0.0000000   0.0000000   0.0000000   0.0000000   0.0000000   0.0000000   0.0000000
 NMagM=    0.0000000   0.0000000   0.0000000   0.0000000   0.0000000   0.0000000   0.0000000   0.0000000   0.0000000   0.0000000
 AtZNuc=   6.0000000   6.0000000   6.0000000   6.0000000   8.0000000   6.0000000   6.0000000   8.0000000   6.0000000   6.0000000

  Atom        61          62          63          64          65          66          67          68          69          70
 IAtWgt=          16          12          12          16          12          12          12          19          19           1
 AtmWgt=  15.9949146  12.0000000  12.0000000  15.9949146  12.0000000  12.0000000  12.0000000  18.9984033  18.9984033   1.0078250
 NucSpn=           0           0           0           0           0           0           0           1           1           1
 AtZEff=  -0.0000000  -0.0000000  -0.0000000  -0.0000000  -0.0000000  -0.0000000  -0.0000000  -0.0000000  -0.0000000  -0.0000000
 NQMom=    0.0000000   0.0000000   0.0000000   0.0000000   0.0000000   0.0000000   0.0000000   0.0000000   0.0000000   0.0000000
 NMagM=    0.0000000   0.0000000   0.0000000   0.0000000   0.0000000   0.0000000   0.0000000   2.6288670   2.6288670   2.7928460
 AtZNuc=   8.0000000   6.0000000   6.0000000   8.0000000   6.0000000   6.0000000   6.0000000   9.0000000   9.0000000   1.0000000

  Atom        71          72          73          74          75          76          77          78          79          80
 IAtWgt=           1           1           1           1           1           1           1           1           1           1
 AtmWgt=   1.0078250   1.0078250   1.0078250   1.0078250   1.0078250   1.0078250   1.0078250   1.0078250   1.0078250   1.0078250
 NucSpn=           1           1           1           1           1           1           1           1           1           1
 AtZEff=  -0.0000000  -0.0000000  -0.0000000  -0.0000000  -0.0000000  -0.0000000  -0.0000000  -0.0000000  -0.0000000  -0.0000000
 NQMom=    0.0000000   0.0000000   0.0000000   0.0000000   0.0000000   0.0000000   0.0000000   0.0000000   0.0000000   0.0000000
 NMagM=    2.7928460   2.7928460   2.7928460   2.7928460   2.7928460   2.7928460   2.7928460   2.7928460   2.7928460   2.7928460
 AtZNuc=   1.0000000   1.0000000   1.0000000   1.0000000   1.0000000   1.0000000   1.0000000   1.0000000   1.0000000   1.0000000

  Atom        81          82          83          84          85          86          87          88          89          90
 IAtWgt=           1           1           1           1           1           1           1           1           1           1
 AtmWgt=   1.0078250   1.0078250   1.0078250   1.0078250   1.0078250   1.0078250   1.0078250   1.0078250   1.0078250   1.0078250
 NucSpn=           1           1           1           1           1           1           1           1           1           1
 AtZEff=  -0.0000000  -0.0000000  -0.0000000  -0.0000000  -0.0000000  -0.0000000  -0.0000000  -0.0000000  -0.0000000  -0.0000000
 NQMom=    0.0000000   0.0000000   0.0000000   0.0000000   0.0000000   0.0000000   0.0000000   0.0000000   0.0000000   0.0000000
 NMagM=    2.7928460   2.7928460   2.7928460   2.7928460   2.7928460   2.7928460   2.7928460   2.7928460   2.7928460   2.7928460
 AtZNuc=   1.0000000   1.0000000   1.0000000   1.0000000   1.0000000   1.0000000   1.0000000   1.0000000   1.0000000   1.0000000

  Atom        91          92          93          94          95          96          97          98          99         100
 IAtWgt=           1           1           1           1           1           1           1           1           1           1
 AtmWgt=   1.0078250   1.0078250   1.0078250   1.0078250   1.0078250   1.0078250   1.0078250   1.0078250   1.0078250   1.0078250
 NucSpn=           1           1           1           1           1           1           1           1           1           1
 AtZEff=  -0.0000000  -0.0000000  -0.0000000  -0.0000000  -0.0000000  -0.0000000  -0.0000000  -0.0000000  -0.0000000  -0.0000000
 NQMom=    0.0000000   0.0000000   0.0000000   0.0000000   0.0000000   0.0000000   0.0000000   0.0000000   0.0000000   0.0000000
 NMagM=    2.7928460   2.7928460   2.7928460   2.7928460   2.7928460   2.7928460   2.7928460   2.7928460   2.7928460   2.7928460
 AtZNuc=   1.0000000   1.0000000   1.0000000   1.0000000   1.0000000   1.0000000   1.0000000   1.0000000   1.0000000   1.0000000

  Atom       101         102         103         104         105         106         107         108         109         110
 IAtWgt=           1           1           1           1           1           1           1           1           1           1
 AtmWgt=   1.0078250   1.0078250   1.0078250   1.0078250   1.0078250   1.0078250   1.0078250   1.0078250   1.0078250   1.0078250
 NucSpn=           1           1           1           1           1           1           1           1           1           1
 AtZEff=  -0.0000000  -0.0000000  -0.0000000  -0.0000000  -0.0000000  -0.0000000  -0.0000000  -0.0000000  -0.0000000  -0.0000000
 NQMom=    0.0000000   0.0000000   0.0000000   0.0000000   0.0000000   0.0000000   0.0000000   0.0000000   0.0000000   0.0000000
 NMagM=    2.7928460   2.7928460   2.7928460   2.7928460   2.7928460   2.7928460   2.7928460   2.7928460   2.7928460   2.7928460
 AtZNuc=   1.0000000   1.0000000   1.0000000   1.0000000   1.0000000   1.0000000   1.0000000   1.0000000   1.0000000   1.0000000

  Atom       111         112         113         114         115         116         117         118         119         120
 IAtWgt=           1           1           1           1           1           1           1           1           1           1
 AtmWgt=   1.0078250   1.0078250   1.0078250   1.0078250   1.0078250   1.0078250   1.0078250   1.0078250   1.0078250   1.0078250
 NucSpn=           1           1           1           1           1           1           1           1           1           1
 AtZEff=  -0.0000000  -0.0000000  -0.0000000  -0.0000000  -0.0000000  -0.0000000  -0.0000000  -0.0000000  -0.0000000  -0.0000000
 NQMom=    0.0000000   0.0000000   0.0000000   0.0000000   0.0000000   0.0000000   0.0000000   0.0000000   0.0000000   0.0000000
 NMagM=    2.7928460   2.7928460   2.7928460   2.7928460   2.7928460   2.7928460   2.7928460   2.7928460   2.7928460   2.7928460
 AtZNuc=   1.0000000   1.0000000   1.0000000   1.0000000   1.0000000   1.0000000   1.0000000   1.0000000   1.0000000   1.0000000

  Atom       121         122         123         124         125         126         127         128
 IAtWgt=           1           1           1           1           1           1           1           1
 AtmWgt=   1.0078250   1.0078250   1.0078250   1.0078250   1.0078250   1.0078250   1.0078250   1.0078250
 NucSpn=           1           1           1           1           1           1           1           1
 AtZEff=  -0.0000000  -0.0000000  -0.0000000  -0.0000000  -0.0000000  -0.0000000  -0.0000000  -0.0000000
 NQMom=    0.0000000   0.0000000   0.0000000   0.0000000   0.0000000   0.0000000   0.0000000   0.0000000
 NMagM=    2.7928460   2.7928460   2.7928460   2.7928460   2.7928460   2.7928460   2.7928460   2.7928460
 AtZNuc=   1.0000000   1.0000000   1.0000000   1.0000000   1.0000000   1.0000000   1.0000000   1.0000000
 Leave Link  101 at Thu Nov  6 04:28:21 2025, MaxMem= 30870077440 cpu:               4.9 elap:               0.1
 (Enter /public/software/gauss/g16/l202.exe)
 Stoichiometry    C49H59BF2N4O13
 Framework group  C1[X(C49H59BF2N4O13)]
 Deg. of freedom   378
 Full point group                 C1      NOp   1
 Largest Abelian subgroup         C1      NOp   1
 Largest concise Abelian subgroup C1      NOp   1
                         Standard orientation:                         
 ---------------------------------------------------------------------
 Center     Atomic      Atomic             Coordinates (Angstroms)
 Number     Number       Type             X           Y           Z
 ---------------------------------------------------------------------
      1          5           0        0.336361   -2.809623   -0.457273
      2          7           0       -0.831197   -2.277643   -1.328526
      3          6           0       -1.801544   -3.010781   -1.927357
      4          6           0       -2.713400   -2.136839   -2.551730
      5          6           0       -2.302791   -0.827904   -2.331787
      6          6           0       -1.103410   -0.918628   -1.551481
      7          6           0       -0.216454    0.061134   -1.084039
      8          6           0       -0.561150    1.524768   -1.299646
      9          8           0       -0.194998    2.103633   -2.306262
     10          6           0       -1.379541    2.158524   -0.182243
     11          6           0       -1.772947    3.592521   -0.433272
     12          6           0       -3.096240    4.064899   -0.532651
     13          7           0       -4.257945    3.193230   -0.310069
     14          8           0       -5.268116    3.405803   -0.982426
     15          8           0       -4.180155    2.309805    0.546474
     16          6           0       -3.405830    5.387788   -0.834538
     17          6           0       -2.356871    6.276743   -1.010896
     18          6           0       -1.026841    5.873068   -0.911407
     19          6           0       -0.755670    4.539755   -0.635455
     20          7           0       -2.664882    7.675904   -1.305434
     21          8           0       -3.849629    8.010361   -1.379080
     22          8           0       -1.723375    8.455409   -1.467651
     23          6           0        0.979226   -0.269058   -0.433149
     24          7           0        1.281511   -1.613510   -0.170071
     25          6           0        2.474606   -1.667347    0.467783
     26          6           0        2.977656   -0.357661    0.607268
     27          6           0        2.065326    0.532041    0.053875
     28          6           0        2.256954    2.015539   -0.023866
     29          6           0        3.118315   -2.939653    0.921098
     30          6           0        4.029420   -3.616254   -0.145114
     31          6           0        5.278069   -2.834799   -0.485147
     32          6           0        5.338734   -2.001665   -1.613084
     33          6           0        6.484061   -1.269076   -1.912755
     34          6           0        7.608587   -1.350869   -1.081163
     35          8           0        8.692255   -0.595120   -1.477753
     36          6           0        9.910994   -0.653930   -0.728168
     37          6           0        9.878156    0.295296    0.465319
     38          8           0       11.147226    0.206180    1.101669
     39          6           0       11.243954    1.047988    2.250516
     40          6           0       12.621453    0.925619    2.878013
     41          8           0       13.656289    1.613965    2.179432
     42          6           0       14.174143    0.932573    1.035071
     43          6           0       15.443127    1.638759    0.589982
     44          8           0       16.491411    1.616839    1.557540
     45          6           0       17.181736    0.373703    1.622969
     46          6           0        7.572418   -2.173879    0.050123
     47          6           0        6.413460   -2.902298    0.331043
     48          6           0       -2.997535    0.387892   -2.863406
     49          6           0       -1.866615   -4.507181   -1.919443
     50          6           0       -2.422582   -5.143048   -0.611942
     51          6           0       -3.811555   -4.680016   -0.234763
     52          6           0       -4.951183   -5.249937   -0.812486
     53          6           0       -6.239788   -4.815107   -0.488110
     54          6           0       -6.401784   -3.779404    0.439166
     55          8           0       -7.616840   -3.275367    0.835957
     56          6           0       -8.804815   -3.812303    0.237843
     57          6           0      -10.000859   -3.058120    0.783944
     58          8           0      -10.040657   -1.709970    0.309519
     59          6           0       -9.610935   -0.716951    1.245897
     60          6           0      -10.709804   -0.291311    2.202427
     61          8           0      -11.770429    0.292570    1.446706
     62          6           0      -12.947181    0.571213    2.207225
     63          6           0      -12.872157    1.804205    3.101080
     64          8           0      -12.842527    3.038317    2.384164
     65          6           0      -11.543184    3.436505    1.954138
     66          6           0       -5.273298   -3.196751    1.032665
     67          6           0       -3.999947   -3.644895    0.695643
     68          9           0        1.024830   -3.820943   -1.141255
     69          9           0       -0.154361   -3.323531    0.758281
     70          1           0       -3.578706   -2.448862   -3.120708
     71          1           0       -2.235787    1.508635   -0.001073
     72          1           0       -0.770276    2.091799    0.728987
     73          1           0       -4.434292    5.712680   -0.908991
     74          1           0       -0.225239    6.587120   -1.048916
     75          1           0        0.276204    4.217771   -0.568175
     76          1           0        3.922047   -0.101763    1.067809
     77          1           0        2.206152    2.378633   -1.054589
     78          1           0        1.503048    2.561173    0.553835
     79          1           0        3.236610    2.280969    0.380497
     80          1           0        3.721585   -2.716883    1.806715
     81          1           0        2.346848   -3.652534    1.222825
     82          1           0        4.311015   -4.595543    0.257203
     83          1           0        3.435872   -3.794143   -1.044921
     84          1           0        4.478434   -1.931023   -2.273380
     85          1           0        6.526049   -0.632773   -2.791342
     86          1           0       10.130782   -1.677955   -0.409694
     87          1           0       10.693552   -0.339480   -1.423204
     88          1           0        9.685088    1.320597    0.117418
     89          1           0        9.076781    0.021734    1.166260
     90          1           0       11.052137    2.095413    1.974198
     91          1           0       10.488580    0.752219    2.995136
     92          1           0       12.577173    1.382047    3.872342
     93          1           0       12.879891   -0.136159    3.000999
     94          1           0       14.370293   -0.120361    1.282106
     95          1           0       13.457672    0.947940    0.203787
     96          1           0       15.781469    1.195236   -0.358007
     97          1           0       15.221709    2.696309    0.411369
     98          1           0       17.604024    0.100184    0.645529
     99          1           0       17.997320    0.498694    2.339715
    100          1           0       16.538385   -0.446768    1.966353
    101          1           0        8.424743   -2.258610    0.713340
    102          1           0        6.400919   -3.541087    1.210855
    103          1           0       -2.335721    1.003844   -3.479004
    104          1           0       -3.847341    0.084730   -3.479490
    105          1           0       -3.384501    1.023584   -2.059840
    106          1           0       -2.504327   -4.810133   -2.755222
    107          1           0       -0.867620   -4.914379   -2.096658
    108          1           0       -2.422989   -6.227536   -0.766489
    109          1           0       -1.729302   -4.929658    0.204217
    110          1           0       -4.838772   -6.058383   -1.530906
    111          1           0       -7.095887   -5.288508   -0.953236
    112          1           0       -8.759258   -3.702207   -0.852347
    113          1           0       -8.903277   -4.878757    0.478743
    114          1           0      -10.906401   -3.563739    0.429992
    115          1           0      -10.002909   -3.094547    1.879627
    116          1           0       -8.746228   -1.063454    1.822938
    117          1           0       -9.295934    0.144480    0.647546
    118          1           0      -11.087781   -1.153766    2.771901
    119          1           0      -10.286727    0.423936    2.922199
    120          1           0      -13.748341    0.714501    1.474539
    121          1           0      -13.206856   -0.297663    2.831672
    122          1           0      -13.786992    1.823963    3.704889
    123          1           0      -12.019543    1.745340    3.792116
    124          1           0      -11.143737    2.777037    1.176005
    125          1           0      -11.638086    4.447523    1.548513
    126          1           0      -10.835838    3.459176    2.795154
    127          1           0       -5.412146   -2.398370    1.755175
    128          1           0       -3.132555   -3.188286    1.165262
 ---------------------------------------------------------------------
 Rotational constants (GHZ):           0.0411966           0.0087816           0.0076516
 Leave Link  202 at Thu Nov  6 04:28:22 2025, MaxMem= 30870077440 cpu:               0.2 elap:               0.0
 (Enter /public/software/gauss/g16/l301.exe)
 Standard basis: def2TZVPP (5D, 7F)
 Ernie: Thresh=  0.10000D-02 Tol=  0.10000D-05 Strict=F.
 There are  3369 symmetry adapted cartesian basis functions of A   symmetry.
 There are  2965 symmetry adapted basis functions of A   symmetry.
  2965 basis functions,  4522 primitive gaussians,  3369 cartesian basis functions
   254 alpha electrons      254 beta electrons
       nuclear repulsion energy      9917.1479673440 Hartrees.
 IExCor= 4336 DFT=T Ex+Corr=M062X ExCW=0 ScaHFX=  0.540000
 ScaDFX=  1.000000  1.000000  1.000000  1.000000 ScalE2=  1.000000  1.000000
 IRadAn=      5 IRanWt=     -1 IRanGd=            0 ICorTp=0 IEmpDi=131
 NAtoms=  128 NActive=  128 NUniq=  128 SFac= 1.00D+00 NAtFMM=   60 NAOKFM=T Big=T
 Integral buffers will be    131072 words long.
 Raffenetti 2 integral format.
 Two-electron integral symmetry is turned on.
 R6Disp:  Grimme-D3 Dispersion energy=       -0.0116119013 Hartrees.
 Nuclear repulsion after empirical dispersion term =     9917.1363554426 Hartrees.
 ------------------------------------------------------------------------------
 Polarizable Continuum Model (PCM)
 =================================
 Model                : PCM.
 Atomic radii         : UFF (Universal Force Field).
 Polarization charges : Total charges.
 Charge compensation  : None.
 Solution method      : On-the-fly selection.
 Cavity type          : Scaled VdW (van der Waals Surface) (Alpha=1.100).
 Cavity algorithm     : GePol (No added spheres)
                        Default sphere list used, NSphG=  128.
                        Lebedev-Laikov grids with approx.  5.0 points / Ang**2.
                        Smoothing algorithm: York/Karplus (Gamma=1.0000).
                        Polarization charges: spherical gaussians, with
                                              point-specific exponents (IZeta= 3).
                        Self-potential: point-specific (ISelfS= 7).
                        Self-field    : sphere-specific E.n sum rule (ISelfD= 2).
 Solvent              : Water, Eps=  78.355300 Eps(inf)=   1.777849
 ------------------------------------------------------------------------------
 GePol: Number of generator spheres                  =     128
 GePol: Total number of spheres                      =     128
 GePol: Number of exposed spheres                    =     128 (100.00%)
 GePol: Number of points                             =    8794
 GePol: Average weight of points                     =       0.13
 GePol: Minimum weight of points                     =   0.77D-11
 GePol: Maximum weight of points                     =    0.20577
 GePol: Number of points with low weight             =     607
 GePol: Fraction of low-weight points (<1% of avg)   =       6.90%
 GePol: Cavity surface area                          =   1119.518 Ang**2
 GePol: Cavity volume                                =   1289.211 Ang**3
 Leave Link  301 at Thu Nov  6 04:28:22 2025, MaxMem= 30870077440 cpu:               6.6 elap:               0.1
 (Enter /public/software/gauss/g16/l302.exe)
 NPDir=0 NMtPBC=     1 NCelOv=     1 NCel=       1 NClECP=     1 NCelD=      1
         NCelK=      1 NCelE2=     1 NClLst=     1 CellRange=     0.0.
 One-electron integrals computed using PRISM.
 One-electron integral symmetry used in STVInt
   1 Symmetry operations used in ECPInt.
 ECPInt:  NShTT=  619941 NPrTT= 1717573 LenC2=  275533 LenP2D=  506156.
 LDataN:  DoStor=T MaxTD1= 6 Len=  172
 Number of processors reduced to  56 by ecpmxn.
 NBasis=  2965 RedAO= T EigKep=  4.07D-06  NBF=  2965
 NBsUse=  2965 1.00D-06 EigRej= -1.00D+00 NBFU=  2965
 Precomputing XC quadrature grid using
 IXCGrd= 4 IRadAn=           5 IRanWt=          -1 IRanGd=           0 AccXCQ= 0.00D+00.
 Generated NRdTot=       0 NPtTot=           0 NUsed=           0 NTot=          32
 NSgBfM=  2341  2341  2341  2341  2341 MxSgAt=   128 MxSgA2=   128.
 Leave Link  302 at Thu Nov  6 04:28:55 2025, MaxMem= 30870077440 cpu:            2101.1 elap:              32.9
 (Enter /public/software/gauss/g16/l303.exe)
 DipDrv:  MaxL=1.
 Leave Link  303 at Thu Nov  6 04:28:56 2025, MaxMem= 30870077440 cpu:              60.4 elap:               1.0
 (Enter /public/software/gauss/g16/l401.exe)
 ExpMin= 6.06D-02 ExpMax= 3.55D+04 ExpMxC= 1.21D+03 IAcc=3 IRadAn=         5 AccDes= 0.00D+00
 Harris functional with IExCor= 1009 and IRadAn=       5 diagonalized for initial guess.
 HarFok:  IExCor= 1009 AccDes= 0.00D+00 IRadAn=         5 IDoV= 1 UseB2=F ITyADJ=14
 ICtDFT=  3500011 ScaDFX=  1.000000  1.000000  1.000000  1.000000
 FoFCou: FMM=F IPFlag=           0 FMFlag=      100000 FMFlg1=        2001
         NFxFlg=           0 DoJE=T BraDBF=F KetDBF=T FulRan=T
         wScrn=  0.000000 ICntrl=       500 IOpCl=  0 I1Cent=   200000004 NGrid=           0
         NMat0=    1 NMatS0=      1 NMatT0=    0 NMatD0=    1 NMtDS0=    0 NMtDT0=    0
 Petite list used in FoFCou.
 Harris En= -3322.45187623216    
 JPrj=0 DoOrth=F DoCkMO=F.
 Leave Link  401 at Thu Nov  6 04:29:22 2025, MaxMem= 30870077440 cpu:            1637.9 elap:              25.7
 (Enter /public/software/gauss/g16/l502.exe)
 Integral symmetry usage will be decided dynamically.
 Closed shell SCF:
 Using DIIS extrapolation, IDIIS=  1040.
 NGot= 30870077440 LenX= 30847133070 LenY= 30835779540
 Requested convergence on RMS density matrix=1.00D-08 within 128 cycles.
 Requested convergence on MAX density matrix=1.00D-06.
 Requested convergence on             energy=1.00D-06.
 No special actions if energy rises.
 Fock matrices will be formed incrementally for  20 cycles.

 Cycle   1  Pass 1  IDiag  1:
 FoFJK:  IHMeth= 1 ICntrl=       0 DoSepK=F KAlg= 0 I1Cent=           0 FoldK=F
 IRaf= 400000000 NMat=       1 IRICut=       1 DoRegI=T DoRafI=F ISym2E= 0 IDoP0=0 IntGTp=1.
 FoFCou: FMM=T IPFlag=           0 FMFlag=      100000 FMFlg1=        2001
         NFxFlg=           0 DoJE=F BraDBF=F KetDBF=F FulRan=T
         wScrn=  0.000000 ICntrl=         0 IOpCl=  0 I1Cent=           0 NGrid=           0
         NMat0=    1 NMatS0=      1 NMatT0=    0 NMatD0=    1 NMtDS0=    0 NMtDT0=    0
 Symmetry not used in FoFCou.
 FMM levels:  10  Number of levels for PrismC:   9
 Inv3:  Mode=1 IEnd=   232003308.
 Iteration    1 A*A^-1 deviation from unit magnitude is 1.53D-14 for   8768.
 Iteration    1 A*A^-1 deviation from orthogonality  is 8.25D-15 for   8768   3982.
 Iteration    1 A^-1*A deviation from unit magnitude is 1.53D-14 for   8768.
 Iteration    1 A^-1*A deviation from orthogonality  is 3.64D-15 for   7671   7034.
 E= -3322.46286715940    
 DIIS: error= 2.60D-02 at cycle   1 NSaved=   1.
 NSaved= 1 IEnMin= 1 EnMin= -3322.46286715940     IErMin= 1 ErrMin= 2.60D-02
 ErrMax= 2.60D-02  0.00D+00 EMaxC= 1.00D-01 BMatC= 2.25D+00 BMatP= 2.25D+00
 IDIUse=3 WtCom= 7.40D-01 WtEn= 2.60D-01
 Coeff-Com:  0.100D+01
 Coeff-En:   0.100D+01
 Coeff:      0.100D+01
 Gap=     0.164 Goal=   None    Shift=    0.000
 GapD=    0.164 DampG=1.000 DampE=0.500 DampFc=0.5000 IDamp=-1.
 Damping current iteration by 5.00D-01
 RMSDP=1.47D-03 MaxDP=5.33D-01              OVMax= 2.60D-01

 Cycle   2  Pass 1  IDiag  1:
 RMSU=  7.32D-04    CP:  1.02D+00
 E= -3323.25329704497     Delta-E=       -0.790429885561 Rises=F Damp=T
 DIIS: error= 4.98D-03 at cycle   2 NSaved=   2.
 NSaved= 2 IEnMin= 2 EnMin= -3323.25329704497     IErMin= 2 ErrMin= 4.98D-03
 ErrMax= 4.98D-03  0.00D+00 EMaxC= 1.00D-01 BMatC= 2.34D-01 BMatP= 2.25D+00
 IDIUse=3 WtCom= 9.50D-01 WtEn= 4.98D-02
 Coeff-Com: -0.553D-01 0.106D+01
 Coeff-En:   0.000D+00 0.100D+01
 Coeff:     -0.525D-01 0.105D+01
 Gap=     0.213 Goal=   None    Shift=    0.000
 RMSDP=4.57D-04 MaxDP=9.06D-02 DE=-7.90D-01 OVMax= 1.95D-01

 Cycle   3  Pass 1  IDiag  1:
 RMSU=  4.53D-04    CP:  1.00D+00  1.04D+00
 E= -3324.00727574566     Delta-E=       -0.753978700692 Rises=F Damp=F
 DIIS: error= 9.52D-03 at cycle   3 NSaved=   3.
 NSaved= 3 IEnMin= 3 EnMin= -3324.00727574566     IErMin= 2 ErrMin= 4.98D-03
 ErrMax= 9.52D-03  0.00D+00 EMaxC= 1.00D-01 BMatC= 1.34D-01 BMatP= 2.34D-01
 IDIUse=3 WtCom= 9.05D-01 WtEn= 9.52D-02
 Coeff-Com: -0.116D+00 0.483D+00 0.632D+00
 Coeff-En:   0.000D+00 0.000D+00 0.100D+01
 Coeff:     -0.105D+00 0.437D+00 0.667D+00
 Gap=     0.167 Goal=   None    Shift=    0.000
 RMSDP=1.64D-04 MaxDP=6.41D-02 DE=-7.54D-01 OVMax= 6.59D-02

 Cycle   4  Pass 1  IDiag  1:
 RMSU=  1.52D-04    CP:  1.00D+00  1.11D+00  9.11D-01
 E= -3324.08824427495     Delta-E=       -0.080968529292 Rises=F Damp=F
 DIIS: error= 2.91D-03 at cycle   4 NSaved=   4.
 NSaved= 4 IEnMin= 4 EnMin= -3324.08824427495     IErMin= 4 ErrMin= 2.91D-03
 ErrMax= 2.91D-03  0.00D+00 EMaxC= 1.00D-01 BMatC= 2.37D-02 BMatP= 1.34D-01
 IDIUse=3 WtCom= 9.71D-01 WtEn= 2.91D-02
 Coeff-Com: -0.358D-01 0.939D-01 0.341D+00 0.601D+00
 Coeff-En:   0.000D+00 0.000D+00 0.144D+00 0.856D+00
 Coeff:     -0.347D-01 0.912D-01 0.335D+00 0.608D+00
 Gap=     0.169 Goal=   None    Shift=    0.000
 RMSDP=6.81D-05 MaxDP=2.84D-02 DE=-8.10D-02 OVMax= 2.20D-02

 Cycle   5  Pass 1  IDiag  1:
 RMSU=  3.48D-05    CP:  1.00D+00  1.08D+00  9.60D-01  6.78D-01
 E= -3324.10602543972     Delta-E=       -0.017781164775 Rises=F Damp=F
 DIIS: error= 3.04D-04 at cycle   5 NSaved=   5.
 NSaved= 5 IEnMin= 5 EnMin= -3324.10602543972     IErMin= 5 ErrMin= 3.04D-04
 ErrMax= 3.04D-04  0.00D+00 EMaxC= 1.00D-01 BMatC= 8.98D-04 BMatP= 2.37D-02
 IDIUse=3 WtCom= 9.97D-01 WtEn= 3.04D-03
 Coeff-Com: -0.110D-01 0.221D-01 0.132D+00 0.288D+00 0.570D+00
 Coeff-En:   0.000D+00 0.000D+00 0.000D+00 0.000D+00 0.100D+01
 Coeff:     -0.110D-01 0.220D-01 0.131D+00 0.287D+00 0.571D+00
 Gap=     0.168 Goal=   None    Shift=    0.000
 RMSDP=1.92D-05 MaxDP=7.65D-03 DE=-1.78D-02 OVMax= 6.55D-03

 Cycle   6  Pass 1  IDiag  1:
 RMSU=  1.32D-05    CP:  1.00D+00  1.09D+00  9.52D-01  7.10D-01  8.09D-01
 E= -3324.10666532017     Delta-E=       -0.000639880447 Rises=F Damp=F
 DIIS: error= 1.99D-04 at cycle   6 NSaved=   6.
 NSaved= 6 IEnMin= 6 EnMin= -3324.10666532017     IErMin= 6 ErrMin= 1.99D-04
 ErrMax= 1.99D-04  0.00D+00 EMaxC= 1.00D-01 BMatC= 1.23D-04 BMatP= 8.98D-04
 IDIUse=3 WtCom= 9.98D-01 WtEn= 1.99D-03
 Coeff-Com: -0.126D-02 0.188D-03 0.283D-01 0.763D-01 0.302D+00 0.594D+00
 Coeff-En:   0.000D+00 0.000D+00 0.000D+00 0.000D+00 0.514D-01 0.949D+00
 Coeff:     -0.126D-02 0.188D-03 0.282D-01 0.762D-01 0.302D+00 0.595D+00
 Gap=     0.169 Goal=   None    Shift=    0.000
 RMSDP=5.94D-06 MaxDP=1.67D-03 DE=-6.40D-04 OVMax= 1.78D-03

 Cycle   7  Pass 1  IDiag  1:
 RMSU=  4.37D-06    CP:  1.00D+00  1.09D+00  9.56D-01  7.04D-01  8.79D-01
                    CP:  9.05D-01
 E= -3324.10676238156     Delta-E=       -0.000097061387 Rises=F Damp=F
 DIIS: error= 2.85D-05 at cycle   7 NSaved=   7.
 NSaved= 7 IEnMin= 7 EnMin= -3324.10676238156     IErMin= 7 ErrMin= 2.85D-05
 ErrMax= 2.85D-05  0.00D+00 EMaxC= 1.00D-01 BMatC= 8.09D-06 BMatP= 1.23D-04
 IDIUse=1 WtCom= 1.00D+00 WtEn= 0.00D+00
 Coeff-Com:  0.864D-03-0.265D-02-0.424D-02-0.443D-02 0.557D-01 0.234D+00
 Coeff-Com:  0.721D+00
 Coeff:      0.864D-03-0.265D-02-0.424D-02-0.443D-02 0.557D-01 0.234D+00
 Coeff:      0.721D+00
 Gap=     0.169 Goal=   None    Shift=    0.000
 RMSDP=2.28D-06 MaxDP=6.44D-04 DE=-9.71D-05 OVMax= 6.71D-04

 Cycle   8  Pass 1  IDiag  1:
 RMSU=  1.79D-06    CP:  1.00D+00  1.09D+00  9.57D-01  7.07D-01  8.96D-01
                    CP:  9.62D-01  9.08D-01
 E= -3324.10676920354     Delta-E=       -0.000006821978 Rises=F Damp=F
 DIIS: error= 1.37D-05 at cycle   8 NSaved=   8.
 NSaved= 8 IEnMin= 8 EnMin= -3324.10676920354     IErMin= 8 ErrMin= 1.37D-05
 ErrMax= 1.37D-05  0.00D+00 EMaxC= 1.00D-01 BMatC= 1.74D-06 BMatP= 8.09D-06
 IDIUse=1 WtCom= 1.00D+00 WtEn= 0.00D+00
 Coeff-Com:  0.622D-03-0.136D-02-0.607D-02-0.137D-01-0.158D-01 0.227D-01
 Coeff-Com:  0.356D+00 0.658D+00
 Coeff:      0.622D-03-0.136D-02-0.607D-02-0.137D-01-0.158D-01 0.227D-01
 Coeff:      0.356D+00 0.658D+00
 Gap=     0.169 Goal=   None    Shift=    0.000
 RMSDP=1.01D-06 MaxDP=1.95D-04 DE=-6.82D-06 OVMax= 4.02D-04

 Cycle   9  Pass 1  IDiag  1:
 RMSU=  7.14D-07    CP:  1.00D+00  1.09D+00  9.58D-01  7.07D-01  9.08D-01
                    CP:  9.80D-01  1.00D+00  1.04D+00
 E= -3324.10677065383     Delta-E=       -0.000001450297 Rises=F Damp=F
 DIIS: error= 6.43D-06 at cycle   9 NSaved=   9.
 NSaved= 9 IEnMin= 9 EnMin= -3324.10677065383     IErMin= 9 ErrMin= 6.43D-06
 ErrMax= 6.43D-06  0.00D+00 EMaxC= 1.00D-01 BMatC= 2.63D-07 BMatP= 1.74D-06
 IDIUse=1 WtCom= 1.00D+00 WtEn= 0.00D+00
 Coeff-Com:  0.239D-03-0.452D-03-0.266D-02-0.684D-02-0.138D-01-0.140D-01
 Coeff-Com:  0.113D+00 0.344D+00 0.581D+00
 Coeff:      0.239D-03-0.452D-03-0.266D-02-0.684D-02-0.138D-01-0.140D-01
 Coeff:      0.113D+00 0.344D+00 0.581D+00
 Gap=     0.169 Goal=   None    Shift=    0.000
 RMSDP=3.38D-07 MaxDP=1.10D-04 DE=-1.45D-06 OVMax= 1.55D-04

 Cycle  10  Pass 1  IDiag  1:
 RMSU=  2.68D-07    CP:  1.00D+00  1.09D+00  9.58D-01  7.07D-01  9.09D-01
                    CP:  9.85D-01  1.02D+00  1.11D+00  8.88D-01
 E= -3324.10677087299     Delta-E=       -0.000000219154 Rises=F Damp=F
 DIIS: error= 2.99D-06 at cycle  10 NSaved=  10.
 NSaved=10 IEnMin=10 EnMin= -3324.10677087299     IErMin=10 ErrMin= 2.99D-06
 ErrMax= 2.99D-06  0.00D+00 EMaxC= 1.00D-01 BMatC= 3.82D-08 BMatP= 2.63D-07
 IDIUse=1 WtCom= 1.00D+00 WtEn= 0.00D+00
 Coeff-Com:  0.163D-05 0.304D-04-0.119D-03-0.867D-03-0.377D-02-0.117D-01
 Coeff-Com: -0.107D-01 0.433D-01 0.290D+00 0.694D+00
 Coeff:      0.163D-05 0.304D-04-0.119D-03-0.867D-03-0.377D-02-0.117D-01
 Coeff:     -0.107D-01 0.433D-01 0.290D+00 0.694D+00
 Gap=     0.169 Goal=   None    Shift=    0.000
 RMSDP=1.45D-07 MaxDP=3.55D-05 DE=-2.19D-07 OVMax= 6.97D-05

 Cycle  11  Pass 1  IDiag  1:
 RMSU=  9.49D-08    CP:  1.00D+00  1.09D+00  9.58D-01  7.07D-01  9.09D-01
                    CP:  9.86D-01  1.03D+00  1.15D+00  9.91D-01  1.01D+00
 E= -3324.10677091188     Delta-E=       -0.000000038894 Rises=F Damp=F
 DIIS: error= 7.31D-07 at cycle  11 NSaved=  11.
 NSaved=11 IEnMin=11 EnMin= -3324.10677091188     IErMin=11 ErrMin= 7.31D-07
 ErrMax= 7.31D-07  0.00D+00 EMaxC= 1.00D-01 BMatC= 5.51D-09 BMatP= 3.82D-08
 IDIUse=1 WtCom= 1.00D+00 WtEn= 0.00D+00
 Coeff-Com: -0.299D-04 0.714D-04 0.326D-03 0.574D-03 0.366D-03-0.300D-02
 Coeff-Com: -0.197D-01-0.326D-01 0.344D-01 0.317D+00 0.702D+00
 Coeff:     -0.299D-04 0.714D-04 0.326D-03 0.574D-03 0.366D-03-0.300D-02
 Coeff:     -0.197D-01-0.326D-01 0.344D-01 0.317D+00 0.702D+00
 Gap=     0.169 Goal=   None    Shift=    0.000
 RMSDP=9.35D-08 MaxDP=4.10D-05 DE=-3.89D-08 OVMax= 2.50D-05

 Cycle  12  Pass 1  IDiag  1:
 RMSU=  3.95D-08    CP:  1.00D+00  1.09D+00  9.58D-01  7.07D-01  9.10D-01
                    CP:  9.85D-01  1.03D+00  1.17D+00  1.03D+00  1.14D+00
                    CP:  1.07D+00
 E= -3324.10677091891     Delta-E=       -0.000000007030 Rises=F Damp=F
 DIIS: error= 2.40D-07 at cycle  12 NSaved=  12.
 NSaved=12 IEnMin=12 EnMin= -3324.10677091891     IErMin=12 ErrMin= 2.40D-07
 ErrMax= 2.40D-07  0.00D+00 EMaxC= 1.00D-01 BMatC= 7.27D-10 BMatP= 5.51D-09
 IDIUse=1 WtCom= 1.00D+00 WtEn= 0.00D+00
 Coeff-Com: -0.119D-04 0.237D-04 0.157D-03 0.367D-03 0.695D-03 0.383D-03
 Coeff-Com: -0.645D-02-0.208D-01-0.329D-01 0.333D-01 0.291D+00 0.734D+00
 Coeff:     -0.119D-04 0.237D-04 0.157D-03 0.367D-03 0.695D-03 0.383D-03
 Coeff:     -0.645D-02-0.208D-01-0.329D-01 0.333D-01 0.291D+00 0.734D+00
 Gap=     0.169 Goal=   None    Shift=    0.000
 RMSDP=2.47D-08 MaxDP=7.37D-06 DE=-7.03D-09 OVMax= 1.16D-05

 Cycle  13  Pass 1  IDiag  1:
 RMSU=  1.68D-08    CP:  1.00D+00  1.09D+00  9.58D-01  7.07D-01  9.10D-01
                    CP:  9.85D-01  1.03D+00  1.18D+00  1.04D+00  1.18D+00
                    CP:  1.18D+00  1.10D+00
 E= -3324.10677091988     Delta-E=       -0.000000000971 Rises=F Damp=F
 DIIS: error= 1.52D-07 at cycle  13 NSaved=  13.
 NSaved=13 IEnMin=13 EnMin= -3324.10677091988     IErMin=13 ErrMin= 1.52D-07
 ErrMax= 1.52D-07  0.00D+00 EMaxC= 1.00D-01 BMatC= 9.56D-11 BMatP= 7.27D-10
 IDIUse=1 WtCom= 1.00D+00 WtEn= 0.00D+00
 Coeff-Com:  0.149D-05-0.465D-05-0.580D-05 0.165D-04 0.146D-03 0.580D-03
 Coeff-Com:  0.140D-02-0.808D-03-0.162D-01-0.405D-01-0.339D-01 0.213D+00
 Coeff-Com:  0.876D+00
 Coeff:      0.149D-05-0.465D-05-0.580D-05 0.165D-04 0.146D-03 0.580D-03
 Coeff:      0.140D-02-0.808D-03-0.162D-01-0.405D-01-0.339D-01 0.213D+00
 Coeff:      0.876D+00
 Gap=     0.169 Goal=   None    Shift=    0.000
 RMSDP=1.43D-08 MaxDP=4.33D-06 DE=-9.71D-10 OVMax= 8.27D-06

 Cycle  14  Pass 1  IDiag  1:
 RMSU=  6.55D-09    CP:  1.00D+00  1.09D+00  9.58D-01  7.07D-01  9.10D-01
                    CP:  9.85D-01  1.03D+00  1.18D+00  1.04D+00  1.20D+00
                    CP:  1.24D+00  1.27D+00  1.23D+00
 E= -3324.10677091969     Delta-E=        0.000000000189 Rises=F Damp=F
 DIIS: error= 6.95D-08 at cycle  14 NSaved=  14.
 NSaved=14 IEnMin=13 EnMin= -3324.10677091988     IErMin=14 ErrMin= 6.95D-08
 ErrMax= 6.95D-08  0.00D+00 EMaxC= 1.00D-01 BMatC= 2.48D-11 BMatP= 9.56D-11
 IDIUse=1 WtCom= 1.00D+00 WtEn= 0.00D+00
 Coeff-Com:  0.269D-05-0.602D-05-0.314D-04-0.594D-04-0.673D-04 0.171D-03
 Coeff-Com:  0.179D-02 0.361D-02-0.419D-03-0.222D-01-0.692D-01-0.574D-01
 Coeff-Com:  0.347D+00 0.797D+00
 Coeff:      0.269D-05-0.602D-05-0.314D-04-0.594D-04-0.673D-04 0.171D-03
 Coeff:      0.179D-02 0.361D-02-0.419D-03-0.222D-01-0.692D-01-0.574D-01
 Coeff:      0.347D+00 0.797D+00
 Gap=     0.169 Goal=   None    Shift=    0.000
 RMSDP=6.38D-09 MaxDP=1.72D-06 DE= 1.89D-10 OVMax= 4.27D-06

 Cycle  15  Pass 1  IDiag  1:
 RMSU=  3.40D-09    CP:  1.00D+00  1.09D+00  9.58D-01  7.07D-01  9.10D-01
                    CP:  9.85D-01  1.03D+00  1.18D+00  1.04D+00  1.21D+00
                    CP:  1.26D+00  1.32D+00  1.46D+00  1.28D+00
 E= -3324.10677091967     Delta-E=        0.000000000022 Rises=F Damp=F
 DIIS: error= 6.16D-08 at cycle  15 NSaved=  15.
 NSaved=15 IEnMin=13 EnMin= -3324.10677091988     IErMin=15 ErrMin= 6.16D-08
 ErrMax= 6.16D-08  0.00D+00 EMaxC= 1.00D-01 BMatC= 7.61D-12 BMatP= 2.48D-11
 IDIUse=1 WtCom= 1.00D+00 WtEn= 0.00D+00
 Coeff-Com:  0.874D-06-0.175D-05-0.141D-04-0.314D-04-0.659D-04-0.391D-04
 Coeff-Com:  0.552D-03 0.197D-02 0.337D-02-0.234D-02-0.272D-01-0.759D-01
 Coeff-Com: -0.135D-01 0.403D+00 0.710D+00
 Coeff:      0.874D-06-0.175D-05-0.141D-04-0.314D-04-0.659D-04-0.391D-04
 Coeff:      0.552D-03 0.197D-02 0.337D-02-0.234D-02-0.272D-01-0.759D-01
 Coeff:     -0.135D-01 0.403D+00 0.710D+00
 Gap=     0.169 Goal=   None    Shift=    0.000
 RMSDP=2.95D-09 MaxDP=8.13D-07 DE= 2.18D-11 OVMax= 2.16D-06

 Error on total polarization charges =  0.02920
 SCF Done:  E(RM062X) =  -3324.10677092     A.U. after   15 cycles
            NFock= 15  Conv=0.29D-08     -V/T= 2.0054
 KE= 3.306405739053D+03 PE=-2.759597052931D+04 EE= 1.104832166389D+04
 Leave Link  502 at Thu Nov  6 05:03:42 2025, MaxMem= 30870077440 cpu:          129171.4 elap:            2060.2
 (Enter /public/software/gauss/g16/l601.exe)
 Copying SCF densities to generalized density rwf, IOpCl= 0 IROHF=0.
 Hyperfine terms turned off by default for NAtoms > 100.

 **********************************************************************

            Population analysis using the SCF density.

 **********************************************************************

 Orbital symmetries:
       Occupied  (A) (A) (A) (A) (A) (A) (A) (A) (A) (A) (A) (A)
                 (A) (A) (A) (A) (A) (A) (A) (A) (A) (A) (A) (A)
                 (A) (A) (A) (A) (A) (A) (A) (A) (A) (A) (A) (A)
                 (A) (A) (A) (A) (A) (A) (A) (A) (A) (A) (A) (A)
                 (A) (A) (A) (A) (A) (A) (A) (A) (A) (A) (A) (A)
                 (A) (A) (A) (A) (A) (A) (A) (A) (A) (A) (A) (A)
                 (A) (A) (A) (A) (A) (A) (A) (A) (A) (A) (A) (A)
                 (A) (A) (A) (A) (A) (A) (A) (A) (A) (A) (A) (A)
                 (A) (A) (A) (A) (A) (A) (A) (A) (A) (A) (A) (A)
                 (A) (A) (A) (A) (A) (A) (A) (A) (A) (A) (A) (A)
                 (A) (A) (A) (A) (A) (A) (A) (A) (A) (A) (A) (A)
                 (A) (A) (A) (A) (A) (A) (A) (A) (A) (A) (A) (A)
                 (A) (A) (A) (A) (A) (A) (A) (A) (A) (A) (A) (A)
                 (A) (A) (A) (A) (A) (A) (A) (A) (A) (A) (A) (A)
                 (A) (A) (A) (A) (A) (A) (A) (A) (A) (A) (A) (A)
                 (A) (A) (A) (A) (A) (A) (A) (A) (A) (A) (A) (A)
                 (A) (A) (A) (A) (A) (A) (A) (A) (A) (A) (A) (A)
                 (A) (A) (A) (A) (A) (A) (A) (A) (A) (A) (A) (A)
                 (A) (A) (A) (A) (A) (A) (A) (A) (A) (A) (A) (A)
                 (A) (A) (A) (A) (A) (A) (A) (A) (A) (A) (A) (A)
                 (A) (A) (A) (A) (A) (A) (A) (A) (A) (A) (A) (A)
                 (A) (A)
       Virtual   (A) (A) (A) (A) (A) (A) (A) (A) (A) (A) (A) (A)
                 (A) (A) (A) (A) (A) (A) (A) (A) (A) (A) (A) (A)
                 (A) (A) (A) (A) (A) (A) (A) (A) (A) (A) (A) (A)
                 (A) (A) (A) (A) (A) (A) (A) (A) (A) (A) (A) (A)
                 (A) (A) (A) (A) (A) (A) (A) (A) (A) (A) (A) (A)
                 (A) (A) (A) (A) (A) (A) (A) (A) (A) (A) (A) (A)
                 (A) (A) (A) (A) (A) (A) (A) (A) (A) (A) (A) (A)
                 (A) (A) (A) (A) (A) (A) (A) (A) (A) (A) (A) (A)
                 (A) (A) (A) (A) (A) (A) (A) (A) (A) (A) (A) (A)
                 (A) (A) (A) (A) (A) (A) (A) (A) (A) (A) (A) (A)
                 (A) (A) (A) (A) (A) (A) (A) (A) (A) (A) (A) (A)
                 (A) (A) (A) (A) (A) (A) (A) (A) (A) (A) (A) (A)
                 (A) (A) (A) (A) (A) (A) (A) (A) (A) (A) (A) (A)
                 (A) (A) (A) (A) (A) (A) (A) (A) (A) (A) (A) (A)
                 (A) (A) (A) (A) (A) (A) (A) (A) (A) (A) (A) (A)
                 (A) (A) (A) (A) (A) (A) (A) (A) (A) (A) (A) (A)
                 (A) (A) (A) (A) (A) (A) (A) (A) (A) (A) (A) (A)
                 (A) (A) (A) (A) (A) (A) (A) (A) (A) (A) (A) (A)
                 (A) (A) (A) (A) (A) (A) (A) (A) (A) (A) (A) (A)
                 (A) (A) (A) (A) (A) (A) (A) (A) (A) (A) (A) (A)
                 (A) (A) (A) (A) (A) (A) (A) (A) (A) (A) (A) (A)
                 (A) (A) (A) (A) (A) (A) (A) (A) (A) (A) (A) (A)
                 (A) (A) (A) (A) (A) (A) (A) (A) (A) (A) (A) (A)
                 (A) (A) (A) (A) (A) (A) (A) (A) (A) (A) (A) (A)
                 (A) (A) (A) (A) (A) (A) (A) (A) (A) (A) (A) (A)
                 (A) (A) (A) (A) (A) (A) (A) (A) (A) (A) (A) (A)
                 (A) (A) (A) (A) (A) (A) (A) (A) (A) (A) (A) (A)
                 (A) (A) (A) (A) (A) (A) (A) (A) (A) (A) (A) (A)
                 (A) (A) (A) (A) (A) (A) (A) (A) (A) (A) (A) (A)
                 (A) (A) (A) (A) (A) (A) (A) (A) (A) (A) (A) (A)
                 (A) (A) (A) (A) (A) (A) (A) (A) (A) (A) (A) (A)
                 (A) (A) (A) (A) (A) (A) (A) (A) (A) (A) (A) (A)
                 (A) (A) (A) (A) (A) (A) (A) (A) (A) (A) (A) (A)
                 (A) (A) (A) (A) (A) (A) (A) (A) (A) (A) (A) (A)
                 (A) (A) (A) (A) (A) (A) (A) (A) (A) (A) (A) (A)
                 (A) (A) (A) (A) (A) (A) (A) (A) (A) (A) (A) (A)
                 (A) (A) (A) (A) (A) (A) (A) (A) (A) (A) (A) (A)
                 (A) (A) (A) (A) (A) (A) (A) (A) (A) (A) (A) (A)
                 (A) (A) (A) (A) (A) (A) (A) (A) (A) (A) (A) (A)
                 (A) (A) (A) (A) (A) (A) (A) (A) (A) (A) (A) (A)
                 (A) (A) (A) (A) (A) (A) (A) (A) (A) (A) (A) (A)
                 (A) (A) (A) (A) (A) (A) (A) (A) (A) (A) (A) (A)
                 (A) (A) (A) (A) (A) (A) (A) (A) (A) (A) (A) (A)
                 (A) (A) (A) (A) (A) (A) (A) (A) (A) (A) (A) (A)
                 (A) (A) (A) (A) (A) (A) (A) (A) (A) (A) (A) (A)
                 (A) (A) (A) (A) (A) (A) (A) (A) (A) (A) (A) (A)
                 (A) (A) (A) (A) (A) (A) (A) (A) (A) (A) (A) (A)
                 (A) (A) (A) (A) (A) (A) (A) (A) (A) (A) (A) (A)
                 (A) (A) (A) (A) (A) (A) (A) (A) (A) (A) (A) (A)
                 (A) (A) (A) (A) (A) (A) (A) (A) (A) (A) (A) (A)
                 (A) (A) (A) (A) (A) (A) (A) (A) (A) (A) (A) (A)
                 (A) (A) (A) (A) (A) (A) (A) (A) (A) (A) (A) (A)
                 (A) (A) (A) (A) (A) (A) (A) (A) (A) (A) (A) (A)
                 (A) (A) (A) (A) (A) (A) (A) (A) (A) (A) (A) (A)
                 (A) (A) (A) (A) (A) (A) (A) (A) (A) (A) (A) (A)
                 (A) (A) (A) (A) (A) (A) (A) (A) (A) (A) (A) (A)
                 (A) (A) (A) (A) (A) (A) (A) (A) (A) (A) (A) (A)
                 (A) (A) (A) (A) (A) (A) (A) (A) (A) (A) (A) (A)
                 (A) (A) (A) (A) (A) (A) (A) (A) (A) (A) (A) (A)
                 (A) (A) (A) (A) (A) (A) (A) (A) (A) (A) (A) (A)
                 (A) (A) (A) (A) (A) (A) (A) (A) (A) (A) (A) (A)
                 (A) (A) (A) (A) (A) (A) (A) (A) (A) (A) (A) (A)
                 (A) (A) (A) (A) (A) (A) (A) (A) (A) (A) (A) (A)
                 (A) (A) (A) (A) (A) (A) (A) (A) (A) (A) (A) (A)
                 (A) (A) (A) (A) (A) (A) (A) (A) (A) (A) (A) (A)
                 (A) (A) (A) (A) (A) (A) (A) (A) (A) (A) (A) (A)
                 (A) (A) (A) (A) (A) (A) (A) (A) (A) (A) (A) (A)
                 (A) (A) (A) (A) (A) (A) (A) (A) (A) (A) (A) (A)
                 (A) (A) (A) (A) (A) (A) (A) (A) (A) (A) (A) (A)
                 (A) (A) (A) (A) (A) (A) (A) (A) (A) (A) (A) (A)
                 (A) (A) (A) (A) (A) (A) (A) (A) (A) (A) (A) (A)
                 (A) (A) (A) (A) (A) (A) (A) (A) (A) (A) (A) (A)
                 (A) (A) (A) (A) (A) (A) (A) (A) (A) (A) (A) (A)
                 (A) (A) (A) (A) (A) (A) (A) (A) (A) (A) (A) (A)
                 (A) (A) (A) (A) (A) (A) (A) (A) (A) (A) (A) (A)
                 (A) (A) (A) (A) (A) (A) (A) (A) (A) (A) (A) (A)
                 (A) (A) (A) (A) (A) (A) (A) (A) (A) (A) (A) (A)
                 (A) (A) (A) (A) (A) (A) (A) (A) (A) (A) (A) (A)
                 (A) (A) (A) (A) (A) (A) (A) (A) (A) (A) (A) (A)
                 (A) (A) (A) (A) (A) (A) (A) (A) (A) (A) (A) (A)
                 (A) (A) (A) (A) (A) (A) (A) (A) (A) (A) (A) (A)
                 (A) (A) (A) (A) (A) (A) (A) (A) (A) (A) (A) (A)
                 (A) (A) (A) (A) (A) (A) (A) (A) (A) (A) (A) (A)
                 (A) (A) (A) (A) (A) (A) (A) (A) (A) (A) (A) (A)
                 (A) (A) (A) (A) (A) (A) (A) (A) (A) (A) (A) (A)
                 (A) (A) (A) (A) (A) (A) (A) (A) (A) (A) (A) (A)
                 (A) (A) (A) (A) (A) (A) (A) (A) (A) (A) (A) (A)
                 (A) (A) (A) (A) (A) (A) (A) (A) (A) (A) (A) (A)
                 (A) (A) (A) (A) (A) (A) (A) (A) (A) (A) (A) (A)
                 (A) (A) (A) (A) (A) (A) (A) (A) (A) (A) (A) (A)
                 (A) (A) (A) (A) (A) (A) (A) (A) (A) (A) (A) (A)
                 (A) (A) (A) (A) (A) (A) (A) (A) (A) (A) (A) (A)
                 (A) (A) (A) (A) (A) (A) (A) (A) (A) (A) (A) (A)
                 (A) (A) (A) (A) (A) (A) (A) (A) (A) (A) (A) (A)
                 (A) (A) (A) (A) (A) (A) (A) (A) (A) (A) (A) (A)
                 (A) (A) (A) (A) (A) (A) (A) (A) (A) (A) (A) (A)
                 (A) (A) (A) (A) (A) (A) (A) (A) (A) (A) (A) (A)
                 (A) (A) (A) (A) (A) (A) (A) (A) (A) (A) (A) (A)
                 (A) (A) (A) (A) (A) (A) (A) (A) (A) (A) (A) (A)
                 (A) (A) (A) (A) (A) (A) (A) (A) (A) (A) (A) (A)
                 (A) (A) (A) (A) (A) (A) (A) (A) (A) (A) (A) (A)
                 (A) (A) (A) (A) (A) (A) (A) (A) (A) (A) (A) (A)
                 (A) (A) (A) (A) (A) (A) (A) (A) (A) (A) (A) (A)
                 (A) (A) (A) (A) (A) (A) (A) (A) (A) (A) (A) (A)
                 (A) (A) (A) (A) (A) (A) (A) (A) (A) (A) (A) (A)
                 (A) (A) (A) (A) (A) (A) (A) (A) (A) (A) (A) (A)
                 (A) (A) (A) (A) (A) (A) (A) (A) (A) (A) (A) (A)
                 (A) (A) (A) (A) (A) (A) (A) (A) (A) (A) (A) (A)
                 (A) (A) (A) (A) (A) (A) (A) (A) (A) (A) (A) (A)
                 (A) (A) (A) (A) (A) (A) (A) (A) (A) (A) (A) (A)
                 (A) (A) (A) (A) (A) (A) (A) (A) (A) (A) (A) (A)
                 (A) (A) (A) (A) (A) (A) (A) (A) (A) (A) (A) (A)
                 (A) (A) (A) (A) (A) (A) (A) (A) (A) (A) (A) (A)
                 (A) (A) (A) (A) (A) (A) (A) (A) (A) (A) (A) (A)
                 (A) (A) (A) (A) (A) (A) (A) (A) (A) (A) (A) (A)
                 (A) (A) (A) (A) (A) (A) (A) (A) (A) (A) (A) (A)
                 (A) (A) (A) (A) (A) (A) (A) (A) (A) (A) (A) (A)
                 (A) (A) (A) (A) (A) (A) (A) (A) (A) (A) (A) (A)
                 (A) (A) (A) (A) (A) (A) (A) (A) (A) (A) (A) (A)
                 (A) (A) (A) (A) (A) (A) (A) (A) (A) (A) (A) (A)
                 (A) (A) (A) (A) (A) (A) (A) (A) (A) (A) (A) (A)
                 (A) (A) (A) (A) (A) (A) (A) (A) (A) (A) (A) (A)
                 (A) (A) (A) (A) (A) (A) (A) (A) (A) (A) (A) (A)
                 (A) (A) (A) (A) (A) (A) (A) (A) (A) (A) (A) (A)
                 (A) (A) (A) (A) (A) (A) (A) (A) (A) (A) (A) (A)
                 (A) (A) (A) (A) (A) (A) (A) (A) (A) (A) (A) (A)
                 (A) (A) (A) (A) (A) (A) (A) (A) (A) (A) (A) (A)
                 (A) (A) (A) (A) (A) (A) (A) (A) (A) (A) (A) (A)
                 (A) (A) (A) (A) (A) (A) (A) (A) (A) (A) (A) (A)
                 (A) (A) (A) (A) (A) (A) (A) (A) (A) (A) (A) (A)
                 (A) (A) (A) (A) (A) (A) (A) (A) (A) (A) (A) (A)
                 (A) (A) (A) (A) (A) (A) (A) (A) (A) (A) (A) (A)
                 (A) (A) (A) (A) (A) (A) (A) (A) (A) (A) (A) (A)
                 (A) (A) (A) (A) (A) (A) (A) (A) (A) (A) (A) (A)
                 (A) (A) (A) (A) (A) (A) (A) (A) (A) (A) (A) (A)
                 (A) (A) (A) (A) (A) (A) (A) (A) (A) (A) (A) (A)
                 (A) (A) (A) (A) (A) (A) (A) (A) (A) (A) (A) (A)
                 (A) (A) (A) (A) (A) (A) (A) (A) (A) (A) (A) (A)
                 (A) (A) (A) (A) (A) (A) (A) (A) (A) (A) (A) (A)
                 (A) (A) (A) (A) (A) (A) (A) (A) (A) (A) (A) (A)
                 (A) (A) (A) (A) (A) (A) (A) (A) (A) (A) (A) (A)
                 (A) (A) (A) (A) (A) (A) (A) (A) (A) (A) (A) (A)
                 (A) (A) (A) (A) (A) (A) (A) (A) (A) (A) (A) (A)
                 (A) (A) (A) (A) (A) (A) (A) (A) (A) (A) (A) (A)
                 (A) (A) (A) (A) (A) (A) (A) (A) (A) (A) (A) (A)
                 (A) (A) (A) (A) (A) (A) (A) (A) (A) (A) (A) (A)
                 (A) (A) (A) (A) (A) (A) (A) (A) (A) (A) (A) (A)
                 (A) (A) (A) (A) (A) (A) (A) (A) (A) (A) (A) (A)
                 (A) (A) (A) (A) (A) (A) (A) (A) (A) (A) (A) (A)
                 (A) (A) (A) (A) (A) (A) (A) (A) (A) (A) (A) (A)
                 (A) (A) (A) (A) (A) (A) (A) (A) (A) (A) (A) (A)
                 (A) (A) (A) (A) (A) (A) (A) (A) (A) (A) (A) (A)
                 (A) (A) (A) (A) (A) (A) (A) (A) (A) (A) (A) (A)
                 (A) (A) (A) (A) (A) (A) (A) (A) (A) (A) (A) (A)
                 (A) (A) (A) (A) (A) (A) (A) (A) (A) (A) (A) (A)
                 (A) (A) (A) (A) (A) (A) (A) (A) (A) (A) (A) (A)
                 (A) (A) (A) (A) (A) (A) (A) (A) (A) (A) (A) (A)
                 (A) (A) (A) (A) (A) (A) (A) (A) (A) (A) (A) (A)
                 (A) (A) (A) (A) (A) (A) (A) (A) (A) (A) (A) (A)
                 (A) (A) (A) (A) (A) (A) (A) (A) (A) (A) (A) (A)
                 (A) (A) (A) (A) (A) (A) (A) (A) (A) (A) (A) (A)
                 (A) (A) (A) (A) (A) (A) (A) (A) (A) (A) (A) (A)
                 (A) (A) (A) (A) (A) (A) (A) (A) (A) (A) (A) (A)
                 (A) (A) (A) (A) (A) (A) (A) (A) (A) (A) (A) (A)
                 (A) (A) (A) (A) (A) (A) (A) (A) (A) (A) (A) (A)
                 (A) (A) (A) (A) (A) (A) (A) (A) (A) (A) (A) (A)
                 (A) (A) (A) (A) (A) (A) (A) (A) (A) (A) (A) (A)
                 (A) (A) (A) (A) (A) (A) (A) (A) (A) (A) (A) (A)
                 (A) (A) (A) (A) (A) (A) (A) (A) (A) (A) (A) (A)
                 (A) (A) (A) (A) (A) (A) (A) (A) (A) (A) (A) (A)
                 (A) (A) (A) (A) (A) (A) (A) (A) (A) (A) (A) (A)
                 (A) (A) (A) (A) (A) (A) (A) (A) (A) (A) (A) (A)
                 (A) (A) (A) (A) (A) (A) (A) (A) (A) (A) (A) (A)
                 (A) (A) (A) (A) (A) (A) (A) (A) (A) (A) (A) (A)
                 (A) (A) (A) (A) (A) (A) (A) (A) (A) (A) (A) (A)
                 (A) (A) (A) (A) (A) (A) (A) (A) (A) (A) (A) (A)
                 (A) (A) (A) (A) (A) (A) (A) (A) (A) (A) (A) (A)
                 (A) (A) (A) (A) (A) (A) (A) (A) (A) (A) (A) (A)
                 (A) (A) (A) (A) (A) (A) (A) (A) (A) (A) (A) (A)
                 (A) (A) (A) (A) (A) (A) (A) (A) (A) (A) (A) (A)
                 (A) (A) (A) (A) (A) (A) (A) (A) (A) (A) (A) (A)
                 (A) (A) (A) (A) (A) (A) (A) (A) (A) (A) (A) (A)
                 (A) (A) (A) (A) (A) (A) (A) (A) (A) (A) (A) (A)
                 (A) (A) (A) (A) (A) (A) (A) (A) (A) (A) (A) (A)
                 (A) (A) (A) (A) (A) (A) (A) (A) (A) (A) (A) (A)
                 (A) (A) (A) (A) (A) (A) (A) (A) (A) (A) (A) (A)
                 (A) (A) (A) (A) (A) (A) (A) (A) (A) (A) (A) (A)
                 (A) (A) (A) (A) (A) (A) (A) (A) (A) (A) (A) (A)
                 (A) (A) (A) (A) (A) (A) (A) (A) (A) (A) (A) (A)
                 (A) (A) (A) (A) (A) (A) (A) (A) (A) (A) (A) (A)
                 (A) (A) (A) (A) (A) (A) (A) (A) (A) (A) (A) (A)
                 (A) (A) (A) (A) (A) (A) (A) (A) (A) (A) (A) (A)
                 (A) (A) (A) (A) (A) (A) (A) (A) (A) (A) (A) (A)
                 (A) (A) (A) (A) (A) (A) (A) (A) (A) (A) (A) (A)
                 (A) (A) (A) (A) (A) (A) (A) (A) (A) (A) (A) (A)
                 (A) (A) (A) (A) (A) (A) (A) (A) (A) (A) (A) (A)
                 (A) (A) (A) (A) (A) (A) (A) (A) (A) (A) (A) (A)
                 (A) (A) (A) (A) (A) (A) (A) (A) (A) (A) (A) (A)
                 (A) (A) (A) (A) (A) (A) (A) (A) (A) (A) (A) (A)
                 (A) (A) (A) (A) (A) (A) (A) (A) (A) (A) (A) (A)
                 (A) (A) (A) (A) (A) (A) (A) (A) (A) (A) (A) (A)
                 (A) (A) (A) (A) (A) (A) (A) (A) (A) (A) (A) (A)
                 (A) (A) (A) (A) (A) (A) (A) (A) (A) (A) (A) (A)
                 (A) (A) (A) (A) (A) (A) (A) (A) (A) (A) (A) (A)
                 (A) (A) (A) (A) (A) (A) (A) (A) (A) (A) (A) (A)
                 (A) (A) (A) (A) (A) (A) (A) (A) (A) (A) (A) (A)
                 (A) (A) (A) (A) (A) (A) (A) (A) (A) (A) (A) (A)
                 (A) (A) (A) (A) (A) (A) (A) (A) (A) (A) (A) (A)
                 (A) (A) (A) (A) (A) (A) (A) (A) (A) (A) (A) (A)
                 (A) (A) (A) (A) (A) (A) (A) (A) (A) (A) (A) (A)
                 (A) (A) (A) (A) (A) (A) (A) (A) (A) (A) (A) (A)
                 (A) (A) (A) (A) (A) (A) (A) (A) (A) (A) (A) (A)
                 (A) (A) (A) (A) (A) (A) (A) (A) (A) (A) (A) (A)
                 (A) (A) (A) (A) (A) (A) (A) (A) (A) (A) (A) (A)
                 (A) (A) (A) (A) (A) (A) (A) (A) (A) (A) (A) (A)
                 (A) (A) (A) (A) (A) (A) (A) (A) (A) (A) (A) (A)
                 (A) (A) (A) (A) (A) (A) (A) (A) (A) (A) (A) (A)
                 (A) (A) (A) (A) (A) (A) (A) (A) (A) (A) (A) (A)
                 (A) (A) (A) (A) (A) (A) (A) (A) (A) (A) (A) (A)
                 (A) (A) (A) (A) (A) (A) (A) (A) (A) (A) (A) (A)
                 (A) (A) (A) (A) (A) (A) (A) (A) (A) (A) (A) (A)
                 (A) (A) (A) (A) (A) (A) (A) (A) (A) (A) (A) (A)
                 (A) (A) (A) (A) (A) (A) (A) (A) (A) (A) (A) (A)
                 (A) (A) (A) (A) (A) (A) (A) (A) (A) (A) (A) (A)
                 (A) (A) (A) (A) (A) (A) (A) (A) (A) (A) (A) (A)
                 (A) (A) (A) (A) (A) (A) (A) (A) (A) (A) (A)
 The electronic state is 1-A.
 Alpha  occ. eigenvalues --  -25.20899 -25.20632 -19.69459 -19.69394 -19.68802
 Alpha  occ. eigenvalues --  -19.68780 -19.66466 -19.66295 -19.66105 -19.64075
 Alpha  occ. eigenvalues --  -19.63398 -19.63364 -19.63307 -19.63175 -19.63128
 Alpha  occ. eigenvalues --  -15.02812 -15.02338 -14.79024 -14.79009 -10.68152
 Alpha  occ. eigenvalues --  -10.64337 -10.63576 -10.62018 -10.61491 -10.61102
 Alpha  occ. eigenvalues --  -10.60897 -10.60651 -10.60594 -10.60593 -10.59821
 Alpha  occ. eigenvalues --  -10.59798 -10.59780 -10.59762 -10.59572 -10.59131
 Alpha  occ. eigenvalues --  -10.59129 -10.58873 -10.58826 -10.58807 -10.58782
 Alpha  occ. eigenvalues --  -10.58651 -10.58585 -10.58533 -10.58476 -10.58448
 Alpha  occ. eigenvalues --  -10.58235 -10.57806 -10.57726 -10.57724 -10.57449
 Alpha  occ. eigenvalues --  -10.55464 -10.55327 -10.55001 -10.54985 -10.54916
 Alpha  occ. eigenvalues --  -10.54913 -10.54875 -10.54844 -10.54815 -10.54793
 Alpha  occ. eigenvalues --  -10.54718 -10.54681 -10.54651 -10.54506 -10.54477
 Alpha  occ. eigenvalues --  -10.54459 -10.54416 -10.54360  -7.13634  -1.38542
 Alpha  occ. eigenvalues --   -1.37902  -1.32629  -1.29411  -1.20951  -1.20110
 Alpha  occ. eigenvalues --   -1.19468  -1.19109  -1.19055  -1.16984  -1.16600
 Alpha  occ. eigenvalues --   -1.15932  -1.15373  -1.14561  -1.14408  -1.11176
 Alpha  occ. eigenvalues --   -1.09287  -1.03713  -0.96735  -0.96608  -0.96539
 Alpha  occ. eigenvalues --   -0.94962  -0.93145  -0.91832  -0.91424  -0.90271
 Alpha  occ. eigenvalues --   -0.90071  -0.88660  -0.88457  -0.87902  -0.86466
 Alpha  occ. eigenvalues --   -0.86171  -0.84909  -0.84795  -0.84459  -0.83920
 Alpha  occ. eigenvalues --   -0.83545  -0.82446  -0.82104  -0.81147  -0.80902
 Alpha  occ. eigenvalues --   -0.80319  -0.79001  -0.77468  -0.76817  -0.76231
 Alpha  occ. eigenvalues --   -0.74318  -0.73640  -0.73383  -0.72271  -0.71641
 Alpha  occ. eigenvalues --   -0.70655  -0.70525  -0.70378  -0.70359  -0.69777
 Alpha  occ. eigenvalues --   -0.69005  -0.68378  -0.67855  -0.67616  -0.66964
 Alpha  occ. eigenvalues --   -0.66299  -0.65863  -0.65401  -0.64373  -0.64309
 Alpha  occ. eigenvalues --   -0.63865  -0.63816  -0.63589  -0.62457  -0.62388
 Alpha  occ. eigenvalues --   -0.62214  -0.61902  -0.61593  -0.60347  -0.59620
 Alpha  occ. eigenvalues --   -0.59412  -0.59219  -0.58618  -0.58524  -0.58324
 Alpha  occ. eigenvalues --   -0.58000  -0.57644  -0.57473  -0.57236  -0.57029
 Alpha  occ. eigenvalues --   -0.56841  -0.56528  -0.55904  -0.55641  -0.55353
 Alpha  occ. eigenvalues --   -0.54974  -0.54555  -0.54416  -0.54202  -0.53889
 Alpha  occ. eigenvalues --   -0.53818  -0.53741  -0.53494  -0.53301  -0.53239
 Alpha  occ. eigenvalues --   -0.52974  -0.52955  -0.52613  -0.51735  -0.51655
 Alpha  occ. eigenvalues --   -0.51598  -0.51330  -0.51101  -0.51005  -0.50485
 Alpha  occ. eigenvalues --   -0.50384  -0.49997  -0.49900  -0.49689  -0.49423
 Alpha  occ. eigenvalues --   -0.49216  -0.49104  -0.49054  -0.48810  -0.48709
 Alpha  occ. eigenvalues --   -0.48344  -0.48229  -0.48164  -0.47916  -0.47698
 Alpha  occ. eigenvalues --   -0.47525  -0.47289  -0.47182  -0.46752  -0.46603
 Alpha  occ. eigenvalues --   -0.46307  -0.46139  -0.45568  -0.45413  -0.45050
 Alpha  occ. eigenvalues --   -0.44972  -0.44812  -0.44355  -0.44209  -0.44050
 Alpha  occ. eigenvalues --   -0.43874  -0.43113  -0.42932  -0.42843  -0.42763
 Alpha  occ. eigenvalues --   -0.42340  -0.42322  -0.41931  -0.41823  -0.41493
 Alpha  occ. eigenvalues --   -0.41307  -0.41180  -0.40848  -0.40744  -0.40592
 Alpha  occ. eigenvalues --   -0.40564  -0.40443  -0.40429  -0.40067  -0.39786
 Alpha  occ. eigenvalues --   -0.39269  -0.39195  -0.39110  -0.38776  -0.38516
 Alpha  occ. eigenvalues --   -0.38379  -0.38145  -0.37455  -0.36550  -0.36028
 Alpha  occ. eigenvalues --   -0.35563  -0.35312  -0.34870  -0.33652  -0.33628
 Alpha  occ. eigenvalues --   -0.33142  -0.32602  -0.31852  -0.31651  -0.31476
 Alpha  occ. eigenvalues --   -0.31367  -0.27899  -0.27818  -0.26159
 Alpha virt. eigenvalues --   -0.09278  -0.08571  -0.07437  -0.02115  -0.00919
 Alpha virt. eigenvalues --    0.01067   0.01123   0.01751   0.02605   0.02771
 Alpha virt. eigenvalues --    0.04056   0.05162   0.05763   0.06338   0.06762
 Alpha virt. eigenvalues --    0.06909   0.07241   0.07677   0.07853   0.08080
 Alpha virt. eigenvalues --    0.08150   0.08368   0.08495   0.08841   0.08972
 Alpha virt. eigenvalues --    0.09077   0.09408   0.09629   0.09774   0.09867
 Alpha virt. eigenvalues --    0.09922   0.10324   0.10527   0.10674   0.10766
 Alpha virt. eigenvalues --    0.10906   0.10935   0.11207   0.11537   0.11572
 Alpha virt. eigenvalues --    0.11903   0.12057   0.12237   0.12294   0.12517
 Alpha virt. eigenvalues --    0.12603   0.12651   0.12856   0.13091   0.13286
 Alpha virt. eigenvalues --    0.13405   0.13471   0.13577   0.13689   0.13947
 Alpha virt. eigenvalues --    0.14130   0.14166   0.14247   0.14318   0.14472
 Alpha virt. eigenvalues --    0.14526   0.14839   0.14938   0.15020   0.15208
 Alpha virt. eigenvalues --    0.15281   0.15491   0.15845   0.15888   0.15954
 Alpha virt. eigenvalues --    0.16235   0.16255   0.16444   0.16504   0.16665
 Alpha virt. eigenvalues --    0.16939   0.17009   0.17141   0.17206   0.17382
 Alpha virt. eigenvalues --    0.17494   0.17698   0.17933   0.18085   0.18243
 Alpha virt. eigenvalues --    0.18452   0.18551   0.18847   0.19006   0.19135
 Alpha virt. eigenvalues --    0.19217   0.19410   0.19821   0.19857   0.19948
 Alpha virt. eigenvalues --    0.20031   0.20059   0.20177   0.20589   0.20752
 Alpha virt. eigenvalues --    0.20811   0.20999   0.21194   0.21282   0.21401
 Alpha virt. eigenvalues --    0.21594   0.21861   0.21982   0.22099   0.22157
 Alpha virt. eigenvalues --    0.22348   0.22584   0.22806   0.22989   0.23183
 Alpha virt. eigenvalues --    0.23317   0.23448   0.23644   0.23752   0.23897
 Alpha virt. eigenvalues --    0.24120   0.24217   0.24279   0.24342   0.24886
 Alpha virt. eigenvalues --    0.24980   0.25005   0.25094   0.25242   0.25448
 Alpha virt. eigenvalues --    0.25750   0.25990   0.26126   0.26351   0.26431
 Alpha virt. eigenvalues --    0.26665   0.26878   0.26926   0.27148   0.27196
 Alpha virt. eigenvalues --    0.27339   0.27464   0.27494   0.27642   0.27843
 Alpha virt. eigenvalues --    0.28270   0.28274   0.28488   0.28814   0.28956
 Alpha virt. eigenvalues --    0.29244   0.29349   0.29741   0.29919   0.29980
 Alpha virt. eigenvalues --    0.30164   0.30278   0.30413   0.30704   0.30779
 Alpha virt. eigenvalues --    0.31039   0.31159   0.31590   0.31729   0.31815
 Alpha virt. eigenvalues --    0.32032   0.32183   0.32410   0.32643   0.32776
 Alpha virt. eigenvalues --    0.32859   0.32960   0.33197   0.33303   0.33490
 Alpha virt. eigenvalues --    0.33671   0.33784   0.33938   0.34033   0.34300
 Alpha virt. eigenvalues --    0.34409   0.34676   0.34746   0.34808   0.34844
 Alpha virt. eigenvalues --    0.35140   0.35168   0.35248   0.35428   0.35471
 Alpha virt. eigenvalues --    0.35607   0.35740   0.35861   0.36083   0.36109
 Alpha virt. eigenvalues --    0.36234   0.36553   0.36723   0.36862   0.36949
 Alpha virt. eigenvalues --    0.37148   0.37324   0.37416   0.37508   0.37676
 Alpha virt. eigenvalues --    0.37789   0.37954   0.38121   0.38151   0.38364
 Alpha virt. eigenvalues --    0.38456   0.38597   0.38851   0.39092   0.39183
 Alpha virt. eigenvalues --    0.39193   0.39388   0.39451   0.39516   0.39728
 Alpha virt. eigenvalues --    0.39859   0.39960   0.40201   0.40346   0.40456
 Alpha virt. eigenvalues --    0.40538   0.40639   0.40864   0.41024   0.41063
 Alpha virt. eigenvalues --    0.41211   0.41502   0.41532   0.41617   0.41817
 Alpha virt. eigenvalues --    0.41906   0.42094   0.42269   0.42481   0.42567
 Alpha virt. eigenvalues --    0.42720   0.42846   0.42967   0.43037   0.43249
 Alpha virt. eigenvalues --    0.43426   0.43493   0.43625   0.43652   0.43798
 Alpha virt. eigenvalues --    0.43990   0.44212   0.44436   0.44577   0.44677
 Alpha virt. eigenvalues --    0.44770   0.44846   0.45011   0.45100   0.45347
 Alpha virt. eigenvalues --    0.45371   0.45572   0.45636   0.45742   0.45967
 Alpha virt. eigenvalues --    0.45991   0.46115   0.46241   0.46368   0.46484
 Alpha virt. eigenvalues --    0.46627   0.46811   0.46885   0.46974   0.47082
 Alpha virt. eigenvalues --    0.47113   0.47213   0.47348   0.47442   0.47491
 Alpha virt. eigenvalues --    0.47552   0.47704   0.47831   0.47984   0.48058
 Alpha virt. eigenvalues --    0.48237   0.48298   0.48463   0.48501   0.48719
 Alpha virt. eigenvalues --    0.48779   0.49001   0.49163   0.49252   0.49515
 Alpha virt. eigenvalues --    0.49778   0.49886   0.49983   0.50044   0.50135
 Alpha virt. eigenvalues --    0.50185   0.50373   0.50458   0.50670   0.50769
 Alpha virt. eigenvalues --    0.50925   0.50968   0.51115   0.51272   0.51333
[...]
 Alpha virt. eigenvalues --    4.70583   4.70980   4.71152   4.71258   4.71465
 Alpha virt. eigenvalues --    4.72053   4.72257   4.72447   4.72703   4.73004
 Alpha virt. eigenvalues --    4.73462   4.73675   4.73826   4.74249   4.74589
 Alpha virt. eigenvalues --    4.74769   4.74880   4.75250   4.75349   4.76062
 Alpha virt. eigenvalues --    4.76202   4.76590   4.77122   4.77260   4.77907
 Alpha virt. eigenvalues --    4.78200   4.78369   4.78575   4.79241   4.79572
 Alpha virt. eigenvalues --    4.79663   4.79898   4.80505   4.80658   4.80971
 Alpha virt. eigenvalues --    4.81027   4.81206   4.81610   4.81992   4.82127
 Alpha virt. eigenvalues --    4.82381   4.82486   4.82529   4.82771   4.83381
 Alpha virt. eigenvalues --    4.83947   4.84408   4.84557   4.84634   4.84749
 Alpha virt. eigenvalues --    4.85449   4.85783   4.86404   4.86628   4.86701
 Alpha virt. eigenvalues --    4.86982   4.87039   4.87269   4.87299   4.87645
 Alpha virt. eigenvalues --    4.87781   4.88137   4.88631   4.89181   4.89322
 Alpha virt. eigenvalues --    4.89536   4.90009   4.90196   4.90509   4.90781
 Alpha virt. eigenvalues --    4.90956   4.91534   4.91734   4.92105   4.92645
 Alpha virt. eigenvalues --    4.93008   4.93090   4.93384   4.94001   4.94363
 Alpha virt. eigenvalues --    4.94616   4.94833   4.95022   4.95194   4.95452
 Alpha virt. eigenvalues --    4.95647   4.95828   4.96058   4.96477   4.96951
 Alpha virt. eigenvalues --    4.97317   4.97664   4.97777   4.97907   4.98135
 Alpha virt. eigenvalues --    4.98478   4.99044   4.99315   4.99546   5.00458
 Alpha virt. eigenvalues --    5.00580   5.00797   5.01400   5.02005   5.02328
 Alpha virt. eigenvalues --    5.02477   5.03015   5.03272   5.03947   5.04085
 Alpha virt. eigenvalues --    5.04546   5.04566   5.04989   5.05302   5.06032
 Alpha virt. eigenvalues --    5.06141   5.06524   5.06642   5.07225   5.07336
 Alpha virt. eigenvalues --    5.07702   5.08403   5.08699   5.08961   5.09144
 Alpha virt. eigenvalues --    5.09679   5.10226   5.10435   5.10937   5.11253
 Alpha virt. eigenvalues --    5.11389   5.11683   5.12131   5.12300   5.12489
 Alpha virt. eigenvalues --    5.12925   5.13084   5.13243   5.13358   5.13786
 Alpha virt. eigenvalues --    5.13892   5.14168   5.14710   5.14866   5.15226
 Alpha virt. eigenvalues --    5.15621   5.16018   5.16185   5.16320   5.16756
 Alpha virt. eigenvalues --    5.16870   5.17338   5.17785   5.18184   5.18716
 Alpha virt. eigenvalues --    5.18884   5.18920   5.19417   5.19786   5.20017
 Alpha virt. eigenvalues --    5.20434   5.21198   5.21463   5.22400   5.22573
 Alpha virt. eigenvalues --    5.22648   5.22769   5.23498   5.23540   5.24124
 Alpha virt. eigenvalues --    5.24263   5.24688   5.25157   5.25502   5.25572
 Alpha virt. eigenvalues --    5.25880   5.26588   5.26790   5.27101   5.27604
 Alpha virt. eigenvalues --    5.28028   5.28439   5.28682   5.28772   5.29095
 Alpha virt. eigenvalues --    5.29469   5.29586   5.29816   5.30052   5.30204
 Alpha virt. eigenvalues --    5.30244   5.30873   5.31124   5.31415   5.31511
 Alpha virt. eigenvalues --    5.31810   5.32127   5.32485   5.32581   5.33087
 Alpha virt. eigenvalues --    5.33304   5.34247   5.34431   5.34516   5.34833
 Alpha virt. eigenvalues --    5.35171   5.35463   5.35978   5.36377   5.36638
 Alpha virt. eigenvalues --    5.36818   5.36875   5.37059   5.37387   5.37687
 Alpha virt. eigenvalues --    5.37857   5.38269   5.38539   5.39160   5.39262
 Alpha virt. eigenvalues --    5.39435   5.39950   5.40207   5.40486   5.40669
 Alpha virt. eigenvalues --    5.41006   5.41420   5.41761   5.42053   5.42458
 Alpha virt. eigenvalues --    5.42669   5.43084   5.43357   5.43526   5.43756
 Alpha virt. eigenvalues --    5.44098   5.44573   5.44675   5.45170   5.45669
 Alpha virt. eigenvalues --    5.46027   5.46311   5.46856   5.46991   5.47346
 Alpha virt. eigenvalues --    5.47644   5.48392   5.48499   5.48667   5.49187
 Alpha virt. eigenvalues --    5.49724   5.49958   5.50263   5.50624   5.50757
 Alpha virt. eigenvalues --    5.51178   5.51312   5.51762   5.52178   5.52388
 Alpha virt. eigenvalues --    5.52862   5.53169   5.53248   5.53968   5.54508
 Alpha virt. eigenvalues --    5.55393   5.55790   5.56400   5.56788   5.57063
 Alpha virt. eigenvalues --    5.57731   5.57833   5.58241   5.58640   5.58850
 Alpha virt. eigenvalues --    5.59010   5.59162   5.59680   5.59822   5.60036
 Alpha virt. eigenvalues --    5.60163   5.60421   5.60882   5.61143   5.61635
 Alpha virt. eigenvalues --    5.61785   5.62225   5.62311   5.62535   5.63421
 Alpha virt. eigenvalues --    5.63520   5.63574   5.63968   5.64084   5.64156
 Alpha virt. eigenvalues --    5.64473   5.64910   5.65418   5.65743   5.65782
 Alpha virt. eigenvalues --    5.66043   5.66353   5.66798   5.67028   5.67927
 Alpha virt. eigenvalues --    5.67940   5.68274   5.68600   5.69316   5.70163
 Alpha virt. eigenvalues --    5.70268   5.70604   5.71637   5.72263   5.74230
 Alpha virt. eigenvalues --    5.75124   5.75654   5.75804   5.77554   5.78768
 Alpha virt. eigenvalues --    5.79995   5.82430   5.82790   5.84200   5.85081
 Alpha virt. eigenvalues --    5.85392   5.86006   5.87440   5.88261   5.88812
 Alpha virt. eigenvalues --    5.90877   5.91347   5.91501   5.91887   5.94378
 Alpha virt. eigenvalues --    5.95068   5.95385   5.95910   5.97311   5.97896
 Alpha virt. eigenvalues --    5.98641   6.00159   6.00520   6.00670   6.01043
 Alpha virt. eigenvalues --    6.02223   6.02589   6.03155   6.04828   6.05774
 Alpha virt. eigenvalues --    6.06148   6.06516   6.06860   6.09151   6.09255
 Alpha virt. eigenvalues --    6.10082   6.10940   6.15954   6.17919   6.19447
 Alpha virt. eigenvalues --    6.20721   6.21516   6.21618   6.21715   6.22573
 Alpha virt. eigenvalues --    6.25156   6.25244   6.25696   6.26066   6.26987
 Alpha virt. eigenvalues --    6.27298   6.27497   6.27876   6.28521   6.28886
 Alpha virt. eigenvalues --    6.29991   6.30582   6.30989   6.31438   6.31621
 Alpha virt. eigenvalues --    6.32353   6.35428   6.36254   6.36587   6.37359
 Alpha virt. eigenvalues --    6.38543   6.39354   6.41476   6.42603   6.43116
 Alpha virt. eigenvalues --    6.45433   6.45683   6.48243   6.51179   6.60517
 Alpha virt. eigenvalues --    6.67280   6.70865   6.72129   6.72764   6.72887
 Alpha virt. eigenvalues --    6.72927   6.74822   6.74969   6.75148   6.76185
 Alpha virt. eigenvalues --    6.78220   6.78387   6.80392   6.80889   6.82796
 Alpha virt. eigenvalues --    6.82850   6.82862   6.83251   6.83350   6.84586
 Alpha virt. eigenvalues --    6.85412   6.86365   6.86835   6.87404   6.87527
 Alpha virt. eigenvalues --    6.87718   6.88075   6.94025   6.94127   6.94291
 Alpha virt. eigenvalues --    6.97089   6.97783   6.97897   6.98345   6.98965
 Alpha virt. eigenvalues --    6.99284   6.99737   6.99856   7.01134   7.01810
 Alpha virt. eigenvalues --    7.03020   7.05096   7.05884   7.08003   7.08972
 Alpha virt. eigenvalues --    7.10094   7.11238   7.16985   7.20368   7.20479
 Alpha virt. eigenvalues --    7.22548   7.23868   7.25978   7.26569   7.26786
 Alpha virt. eigenvalues --    7.26844   7.26907   7.28845   7.29854   7.31058
 Alpha virt. eigenvalues --    7.33394   7.33548   7.34343   7.34560   7.34666
 Alpha virt. eigenvalues --    7.35485   7.37105   7.37482   7.37700   7.39076
 Alpha virt. eigenvalues --    7.39746   7.40006   7.42616   7.45211   7.47191
 Alpha virt. eigenvalues --    7.47243   7.50079   8.44773   8.47580   8.55672
 Alpha virt. eigenvalues --    8.59214   8.82456   8.88395   8.92005   8.92571
 Alpha virt. eigenvalues --    8.94411   8.99821  15.86744  22.77205  22.78916
 Alpha virt. eigenvalues --   22.80183  22.90844  22.93176  23.10163  23.11346
 Alpha virt. eigenvalues --   23.11777  23.13608  23.19056  23.24526  23.24918
 Alpha virt. eigenvalues --   23.25695  23.26095  23.29168  23.29478  23.31656
 Alpha virt. eigenvalues --   23.32044  23.32628  23.33059  23.33397  23.35725
 Alpha virt. eigenvalues --   23.36030  23.36341  23.37449  23.39560  23.41680
 Alpha virt. eigenvalues --   23.42453  23.43073  23.44256  23.46282  23.46458
 Alpha virt. eigenvalues --   23.48006  23.50180  23.52618  23.53243  23.53598
 Alpha virt. eigenvalues --   23.56171  23.58279  23.58342  23.59581  23.61453
 Alpha virt. eigenvalues --   23.69271  23.75246  23.85559  23.94204  23.99646
 Alpha virt. eigenvalues --   24.06915  24.07412  32.58829  32.62153  33.13128
 Alpha virt. eigenvalues --   33.27842  44.13611  44.18871  44.21183  44.25274
 Alpha virt. eigenvalues --   44.29296  44.29650  44.30537  44.41286  44.42061
 Alpha virt. eigenvalues --   44.47950  44.48957  44.61644  44.63443  57.43008
 Alpha virt. eigenvalues --   57.58548
          Condensed to atoms (all electrons):
 Mulliken charges:
               1
     1  B    0.398472
     2  N   -0.068170
     3  C    0.034511
     4  C   -0.088429
     5  C   -0.007666
     6  C    0.080277
     7  C    0.208166
     8  C   -0.047891
     9  O   -0.270932
    10  C   -0.581988
    11  C    0.201950
    12  C    0.046954
    13  N    0.456732
    14  O   -0.333310
    15  O   -0.334051
    16  C    0.008482
    17  C   -0.047526
    18  C   -0.100032
    19  C   -0.140054
    20  N    0.499401
    21  O   -0.357490
    22  O   -0.355354
    23  C    0.079578
    24  N   -0.059932
    25  C    0.050690
    26  C   -0.107230
    27  C    0.048816
    28  C   -0.466203
    29  C   -0.326399
    30  C   -0.317324
    31  C   -0.014504
    32  C   -0.136500
    33  C   -0.184454
    34  C    0.202025
    35  O   -0.313578
    36  C   -0.124253
    37  C   -0.074147
    38  O   -0.337549
    39  C   -0.053341
    40  C   -0.103267
    41  O   -0.337954
    42  C   -0.050941
    43  C   -0.097897
    44  O   -0.349504
    45  C   -0.196315
    46  C   -0.176407
    47  C   -0.146682
    48  C   -0.416721
    49  C   -0.327566
    50  C   -0.351012
    51  C    0.026719
    52  C   -0.149835
    53  C   -0.173687
    54  C    0.209893
    55  O   -0.302797
    56  C   -0.077559
    57  C   -0.124364
    58  O   -0.350170
    59  C   -0.091885
    60  C   -0.066005
    61  O   -0.338490
    62  C   -0.072237
    63  C   -0.101056
    64  O   -0.353197
    65  C   -0.202641
    66  C   -0.198519
    67  C   -0.142898
    68  F   -0.347640
    69  F   -0.348157
    70  H    0.162333
    71  H    0.223920
    72  H    0.264037
    73  H    0.208528
    74  H    0.201799
    75  H    0.168868
    76  H    0.164358
    77  H    0.185170
    78  H    0.157117
    79  H    0.137705
    80  H    0.165231
    81  H    0.152235
    82  H    0.143545
    83  H    0.163793
    84  H    0.148633
    85  H    0.155103
    86  H    0.142811
    87  H    0.152412
    88  H    0.130113
    89  H    0.138155
    90  H    0.122455
    91  H    0.120177
    92  H    0.129361
    93  H    0.123016
    94  H    0.119739
    95  H    0.125199
    96  H    0.115993
    97  H    0.124024
    98  H    0.119160
    99  H    0.136073
   100  H    0.121044
   101  H    0.153759
   102  H    0.148271
   103  H    0.178448
   104  H    0.139360
   105  H    0.143729
   106  H    0.154284
   107  H    0.174104
   108  H    0.145746
   109  H    0.169670
   110  H    0.145184
   111  H    0.153736
   112  H    0.139377
   113  H    0.143700
   114  H    0.134277
   115  H    0.139264
   116  H    0.125015
   117  H    0.130666
   118  H    0.127478
   119  H    0.126964
   120  H    0.127406
   121  H    0.116671
   122  H    0.129784
   123  H    0.128469
   124  H    0.128104
   125  H    0.141221
   126  H    0.117987
   127  H    0.156127
   128  H    0.150140
 Sum of Mulliken charges =  -0.00000
 Mulliken charges with hydrogens summed into heavy atoms:
               1
     1  B    0.398472
     2  N   -0.068170
     3  C    0.034511
     4  C    0.073904
     5  C   -0.007666
     6  C    0.080277
     7  C    0.208166
     8  C   -0.047891
     9  O   -0.270932
    10  C   -0.094031
    11  C    0.201950
    12  C    0.046954
    13  N    0.456732
    14  O   -0.333310
    15  O   -0.334051
    16  C    0.217009
    17  C   -0.047526
    18  C    0.101767
    19  C    0.028813
    20  N    0.499401
    21  O   -0.357490
    22  O   -0.355354
    23  C    0.079578
    24  N   -0.059932
    25  C    0.050690
    26  C    0.057128
    27  C    0.048816
    28  C    0.013788
    29  C   -0.008933
    30  C   -0.009986
    31  C   -0.014504
    32  C    0.012133
    33  C   -0.029351
    34  C    0.202025
    35  O   -0.313578
    36  C    0.170970
    37  C    0.194121
    38  O   -0.337549
    39  C    0.189291
    40  C    0.149110
    41  O   -0.337954
    42  C    0.193997
    43  C    0.142120
    44  O   -0.349504
    45  C    0.179962
    46  C   -0.022648
    47  C    0.001590
    48  C    0.044816
    49  C    0.000823
    50  C   -0.035596
    51  C    0.026719
    52  C   -0.004652
    53  C   -0.019951
    54  C    0.209893
    55  O   -0.302797
    56  C    0.205518
    57  C    0.149177
    58  O   -0.350170
    59  C    0.163795
    60  C    0.188438
    61  O   -0.338490
    62  C    0.171840
    63  C    0.157196
    64  O   -0.353197
    65  C    0.184670
    66  C   -0.042393
    67  C    0.007242
    68  F   -0.347640
    69  F   -0.348157
 Electronic spatial extent (au):  <R**2>=         132421.8151
 Charge=             -0.0000 electrons
 Dipole moment (field-independent basis, Debye):
    X=              4.0212    Y=             -4.6541    Z=              4.5302  Tot=              7.6389
 Quadrupole moment (field-independent basis, Debye-Ang):
   XX=           -463.1513   YY=           -444.8829   ZZ=           -398.3217
   XY=             27.3545   XZ=            -25.1245   YZ=             11.2406
 Traceless Quadrupole moment (field-independent basis, Debye-Ang):
   XX=            -27.6993   YY=             -9.4309   ZZ=             37.1303
   XY=             27.3545   XZ=            -25.1245   YZ=             11.2406
 Octapole moment (field-independent basis, Debye-Ang**2):
  XXX=            -72.1146  YYY=           -560.7167  ZZZ=             75.1702  XYY=             23.1984
  XXY=          -1232.7376  XXZ=            110.4406  XZZ=           -140.5942  YZZ=            -34.2842
  YYZ=             66.1043  XYZ=           -179.4468
 Hexadecapole moment (field-independent basis, Debye-Ang**3):
 XXXX=        -157820.1589 YYYY=         -31031.9443 ZZZZ=          -5171.3404 XXXY=          -3738.3565
 XXXZ=          -8526.4566 YYYX=           2553.0442 YYYZ=           1255.4519 ZZZX=           -105.8979
 ZZZY=             14.5825 XXYY=         -29830.1714 XXZZ=         -23452.1957 YYZZ=          -5446.3382
 XXYZ=          -2304.6967 YYXZ=            -24.4757 ZZXY=              5.6196
 N-N= 9.917136355443D+03 E-N=-2.759597053066D+04  KE= 3.306405739053D+03
 Leave Link  601 at Thu Nov  6 05:03:45 2025, MaxMem= 30870077440 cpu:             139.0 elap:               2.7
 (Enter /public/software/gauss/g16/l9999.exe)
 1\1\GINC-CU161\SP\RM062X\def2TZVPP\C49H59B1F2N4O13\BAIDING\06-Nov-2025
 \0\\#p M062X/DEF2TZVPP scrf=(solvent=water) em=GD3\\Energy calculation
  for BE_sin\\0,1\B,0,0.336361,-2.809623,-0.457273\N,0,-0.831197,-2.277
 643,-1.328526\C,0,-1.801544,-3.010781,-1.927357\C,0,-2.7134,-2.136839,
 -2.55173\C,0,-2.302791,-0.827904,-2.331787\C,0,-1.10341,-0.918628,-1.5
 51481\C,0,-0.216454,0.061134,-1.084039\C,0,-0.56115,1.524768,-1.299646
 \O,0,-0.194998,2.103633,-2.306262\C,0,-1.379541,2.158524,-0.182243\C,0
 ,-1.772947,3.592521,-0.433272\C,0,-3.09624,4.064899,-0.532651\N,0,-4.2
 57945,3.19323,-0.310069\O,0,-5.268116,3.405803,-0.982426\O,0,-4.180155
 ,2.309805,0.546474\C,0,-3.40583,5.387788,-0.834538\C,0,-2.356871,6.276
 743,-1.010896\C,0,-1.026841,5.873068,-0.911407\C,0,-0.75567,4.539755,-
 0.635455\N,0,-2.664882,7.675904,-1.305434\O,0,-3.849629,8.010361,-1.37
 908\O,0,-1.723375,8.455409,-1.467651\C,0,0.979226,-0.269058,-0.433149\
 N,0,1.281511,-1.61351,-0.170071\C,0,2.474606,-1.667347,0.467783\C,0,2.
 977656,-0.357661,0.607268\C,0,2.065326,0.532041,0.053875\C,0,2.256954,
 2.015539,-0.023866\C,0,3.118315,-2.939653,0.921098\C,0,4.02942,-3.6162
 54,-0.145114\C,0,5.278069,-2.834799,-0.485147\C,0,5.338734,-2.001665,-
 1.613084\C,0,6.484061,-1.269076,-1.912755\C,0,7.608587,-1.350869,-1.08
 1163\O,0,8.692255,-0.59512,-1.477753\C,0,9.910994,-0.65393,-0.728168\C
 ,0,9.878156,0.295296,0.465319\O,0,11.147226,0.20618,1.101669\C,0,11.24
 3954,1.047988,2.250516\C,0,12.621453,0.925619,2.878013\O,0,13.656289,1
 .613965,2.179432\C,0,14.174143,0.932573,1.035071\C,0,15.443127,1.63875
 9,0.589982\O,0,16.491411,1.616839,1.55754\C,0,17.181736,0.373703,1.622
 969\C,0,7.572418,-2.173879,0.050123\C,0,6.41346,-2.902298,0.331043\C,0
 ,-2.997535,0.387892,-2.863406\C,0,-1.866615,-4.507181,-1.919443\C,0,-2
 .422582,-5.143048,-0.611942\C,0,-3.811555,-4.680016,-0.234763\C,0,-4.9
 51183,-5.249937,-0.812486\C,0,-6.239788,-4.815107,-0.48811\C,0,-6.4017
 84,-3.779404,0.439166\O,0,-7.61684,-3.275367,0.835957\C,0,-8.804815,-3
 .812303,0.237843\C,0,-10.000859,-3.05812,0.783944\O,0,-10.040657,-1.70
 997,0.309519\C,0,-9.610935,-0.716951,1.245897\C,0,-10.709804,-0.291311
 ,2.202427\O,0,-11.770429,0.29257,1.446706\C,0,-12.947181,0.571213,2.20
 7225\C,0,-12.872157,1.804205,3.10108\O,0,-12.842527,3.038317,2.384164\
 C,0,-11.543184,3.436505,1.954138\C,0,-5.273298,-3.196751,1.032665\C,0,
 -3.999947,-3.644895,0.695643\F,0,1.02483,-3.820943,-1.141255\F,0,-0.15
 4361,-3.323531,0.758281\H,0,-3.578706,-2.448862,-3.120708\H,0,-2.23578
 7,1.508635,-0.001073\H,0,-0.770276,2.091799,0.728987\H,0,-4.434292,5.7
 1268,-0.908991\H,0,-0.225239,6.58712,-1.048916\H,0,0.276204,4.217771,-
 0.568175\H,0,3.922047,-0.101763,1.067809\H,0,2.206152,2.378633,-1.0545
 89\H,0,1.503048,2.561173,0.553835\H,0,3.23661,2.280969,0.380497\H,0,3.
 721585,-2.716883,1.806715\H,0,2.346848,-3.652534,1.222825\H,0,4.311015
 ,-4.595543,0.257203\H,0,3.435872,-3.794143,-1.044921\H,0,4.478434,-1.9
 31023,-2.27338\H,0,6.526049,-0.632773,-2.791342\H,0,10.130782,-1.67795
 5,-0.409694\H,0,10.693552,-0.33948,-1.423204\H,0,9.685088,1.320597,0.1
 17418\H,0,9.076781,0.021734,1.16626\H,0,11.052137,2.095413,1.974198\H,
 0,10.48858,0.752219,2.995136\H,0,12.577173,1.382047,3.872342\H,0,12.87
 9891,-0.136159,3.000999\H,0,14.370293,-0.120361,1.282106\H,0,13.457672
 ,0.94794,0.203787\H,0,15.781469,1.195236,-0.358007\H,0,15.221709,2.696
 309,0.411369\H,0,17.604024,0.100184,0.645529\H,0,17.99732,0.498694,2.3
 39715\H,0,16.538385,-0.446768,1.966353\H,0,8.424743,-2.25861,0.71334\H
 ,0,6.400919,-3.541087,1.210855\H,0,-2.335721,1.003844,-3.479004\H,0,-3
 .847341,0.08473,-3.47949\H,0,-3.384501,1.023584,-2.05984\H,0,-2.504327
 ,-4.810133,-2.755222\H,0,-0.86762,-4.914379,-2.096658\H,0,-2.422989,-6
 .227536,-0.766489\H,0,-1.729302,-4.929658,0.204217\H,0,-4.838772,-6.05
 8383,-1.530906\H,0,-7.095887,-5.288508,-0.953236\H,0,-8.759258,-3.7022
 07,-0.852347\H,0,-8.903277,-4.878757,0.478743\H,0,-10.906401,-3.563739
 ,0.429992\H,0,-10.002909,-3.094547,1.879627\H,0,-8.746228,-1.063454,1.
 822938\H,0,-9.295934,0.14448,0.647546\H,0,-11.087781,-1.153766,2.77190
 1\H,0,-10.286727,0.423936,2.922199\H,0,-13.748341,0.714501,1.474539\H,
 0,-13.206856,-0.297663,2.831672\H,0,-13.786992,1.823963,3.704889\H,0,-
 12.019543,1.74534,3.792116\H,0,-11.143737,2.777037,1.176005\H,0,-11.63
 8086,4.447523,1.548513\H,0,-10.835838,3.459176,2.795154\H,0,-5.412146,
 -2.39837,1.755175\H,0,-3.132555,-3.188286,1.165262\\Version=ES64L-G16R
 evA.03\State=1-A\HF=-3324.1067709\RMSD=2.947e-09\Dipole=1.5820511,-1.8
 310768,1.7823118\Quadrupole=-20.5937796,-7.0116765,27.6054561,20.33739
 9,-18.6794404,8.357095\PG=C01 [X(C49H59B1F2N4O13)]\\@


 The lyf so short, the craft so long to lerne.
                             -- Chaucer
 Job cpu time:       1 days 12 hours 59 minutes 29.8 seconds.
 Elapsed time:       0 days  0 hours 35 minutes 23.7 seconds.
 File lengths (MBytes):  RWF=   5807 Int=      0 D2E=      0 Chk=    508 Scr=      1
 Normal termination of Gaussian 16 at Thu Nov  6 05:03:46 2025.
