 Entering Gaussian System, Link 0=g16
 Input=BE_SO3H_reduced_i_sp.gjf
 Output=BE_SO3H_reduced_i_sp.log
 Initial command:
 /public/software/gauss/g16/l1.exe "/public/home/baiding/1113_modified_sp/tmp_BE_SO3H_reduced_i_sp_1602077/Gau-282949.inp" -scrdir="/public/home/baiding/1113_modified_sp/tmp_BE_SO3H_reduced_i_sp_1602077/"
 Entering Link 1 = /public/software/gauss/g16/l1.exe PID=    282950.
  
 Copyright (c) 1988,1990,1992,1993,1995,1998,2003,2009,2016,
            Gaussian, Inc.  All Rights Reserved.
  
 This is part of the Gaussian(R) 16 program.  It is based on
 the Gaussian(R) 09 system (copyright 2009, Gaussian, Inc.),
 the Gaussian(R) 03 system (copyright 2003, Gaussian, Inc.),
 the Gaussian(R) 98 system (copyright 1998, Gaussian, Inc.),
 the Gaussian(R) 94 system (copyright 1995, Gaussian, Inc.),
 the Gaussian 92(TM) system (copyright 1992, Gaussian, Inc.),
 the Gaussian 90(TM) system (copyright 1990, Gaussian, Inc.),
 the Gaussian 88(TM) system (copyright 1988, Gaussian, Inc.),
 the Gaussian 86(TM) system (copyright 1986, Carnegie Mellon
 University), and the Gaussian 82(TM) system (copyright 1983,
 Carnegie Mellon University). Gaussian is a federally registered
 trademark of Gaussian, Inc.
  
 This software contains proprietary and confidential information,
 including trade secrets, belonging to Gaussian, Inc.
  
 This software is provided under written license and may be
 used, copied, transmitted, or stored only in accord with that
 written license.
  
 The following legend is applicable only to US Government
 contracts under FAR:
  
                    RESTRICTED RIGHTS LEGEND
  
 Use, reproduction and disclosure by the US Government is
 subject to restrictions as set forth in subparagraphs (a)
 and (c) of the Commercial Computer Software - Restricted
 Rights clause in FAR 52.227-19.
  
 Gaussian, Inc.
 340 Quinnipiac St., Bldg. 40, Wallingford CT 06492
  
  
 ---------------------------------------------------------------
 Warning -- This program may not be used in any manner that
 competes with the business of Gaussian, Inc. or will provide
 assistance to any competitor of Gaussian, Inc.  The licensee
 of this program is prohibited from giving any competitor of
 Gaussian, Inc. access to this program.  By using this program,
 the user acknowledges that Gaussian, Inc. is engaged in the
 business of creating and licensing software in the field of
 computational chemistry and represents and warrants to the
 licensee that it is not a competitor of Gaussian, Inc. and that
 it will not use this program in any manner prohibited above.
 ---------------------------------------------------------------
  

 Cite this work as:
 Gaussian 16, Revision A.03,
 M. J. Frisch, G. W. Trucks, H. B. Schlegel, G. E. Scuseria, 
 M. A. Robb, J. R. Cheeseman, G. Scalmani, V. Barone, 
 G. A. Petersson, H. Nakatsuji, X. Li, M. Caricato, A. V. Marenich, 
 J. Bloino, B. G. Janesko, R. Gomperts, B. Mennucci, H. P. Hratchian, 
 J. V. Ortiz, A. F. Izmaylov, J. L. Sonnenberg, D. Williams-Young, 
 F. Ding, F. Lipparini, F. Egidi, J. Goings, B. Peng, A. Petrone, 
 T. Henderson, D. Ranasinghe, V. G. Zakrzewski, J. Gao, N. Rega, 
 G. Zheng, W. Liang, M. Hada, M. Ehara, K. Toyota, R. Fukuda, 
 J. Hasegawa, M. Ishida, T. Nakajima, Y. Honda, O. Kitao, H. Nakai, 
 T. Vreven, K. Throssell, J. A. Montgomery, Jr., J. E. Peralta, 
 F. Ogliaro, M. J. Bearpark, J. J. Heyd, E. N. Brothers, K. N. Kudin, 
 V. N. Staroverov, T. A. Keith, R. Kobayashi, J. Normand, 
 K. Raghavachari, A. P. Rendell, J. C. Burant, S. S. Iyengar, 
 J. Tomasi, M. Cossi, J. M. Millam, M. Klene, C. Adamo, R. Cammi, 
 J. W. Ochterski, R. L. Martin, K. Morokuma, O. Farkas, 
 J. B. Foresman, and D. J. Fox, Gaussian, Inc., Wallingford CT, 2016.
 
 ******************************************
 Gaussian 16:  ES64L-G16RevA.03 25-Dec-2016
                14-Nov-2025 
 ******************************************
 %nprocshared=64
 Will use up to   64 processors via shared memory.
 %mem=230GB
 %chk=BE_SO3H_reduced_i_sp.chk
 ----------------------------------------------
 #p M062X/DEF2TZVPP scrf=(solvent=water) em=GD3
 ----------------------------------------------
 1/38=1,172=1/1;
 2/12=2,17=6,18=5,40=1/2;
 3/5=44,7=202,11=2,25=1,30=1,70=2201,72=1,74=-55,124=31/1,2,3;
 4//1;
 5/5=2,38=5,53=1/2;
 6/7=2,8=2,9=2,10=2,28=1/1;
 99/5=1,9=1/99;
 Leave Link    1 at Fri Nov 14 05:20:13 2025, MaxMem= 30870077440 cpu:              22.9 elap:               0.4
 (Enter /public/software/gauss/g16/l101.exe)
 ----------------------------------------
 Energy calculation for BE_SO3H_reduced_i
 ----------------------------------------
 Symbolic Z-matrix:
 Charge = -1 Multiplicity = 2
 B                    -0.15519  -0.45685  -0.55729 
 N                    -0.6326   -1.8647   -0.97429 
 C                     0.07438  -3.04494  -0.79135 
 C                    -0.81801  -4.11774  -1.00429 
 C                    -2.07474  -3.60969  -1.30808 
 C                    -1.94488  -2.18027  -1.29575 
 C                    -2.8902   -1.14518  -1.50587 
 C                    -4.28716  -1.49364  -1.87241 
 O                    -4.62858  -2.08617  -2.8862 
 C                    -6.56818  -1.31979  -1.23294 
 C                    -7.40398  -0.84802  -0.07272 
 C                    -8.74417  -0.50476  -0.30718 
 C                    -9.57093  -0.11236   0.73758 
 C                    -9.03608  -0.0583    2.0259 
 C                    -7.70656  -0.38886   2.28902 
 C                    -6.89531  -0.7871    1.2323 
 N                    -9.89184   0.35945   3.12853 
 O                    -9.40885   0.41006   4.26552 
 O                    -11.06961   0.64731   2.88606 
 C                    -2.50497   0.2175   -1.41593 
 N                    -1.21075   0.55296  -1.05109 
 C                    -1.08153   1.93348  -1.0924 
 C                    -2.31814   2.46719  -1.51573 
 C                    -3.21152   1.42535  -1.73153 
 C                    -4.61149   1.58932  -2.24635 
 C                     0.13201   2.61556  -0.76958 
 C                     0.26288   3.97313  -0.69154 
 C                     1.48182   4.69663  -0.38836 
 C                     1.43636   6.11023  -0.32664 
 C                     2.56394   6.86496  -0.03963 
 C                     3.77762   6.20809   0.19833 
 S                     5.23077   7.15398   0.5297 
 O                     6.17067   6.36756   1.33208 
 O                     4.84709   8.50113   0.97116 
 O                     5.99061   7.29104  -0.91055 
 C                     3.86343   4.80832   0.1451 
 C                     2.72882   4.06829  -0.14271 
 C                    -3.29203  -4.4474   -1.56715 
 C                     1.46372  -3.07461  -0.46134 
 C                     2.18057  -4.20896  -0.20321 
 C                     3.59181  -4.27087   0.12142 
 C                     4.18304  -5.53754   0.34509 
 C                     5.52677  -5.67064   0.66233 
 C                     6.31567  -4.51886   0.76937 
 S                     8.03292  -4.66708   1.14963 
 O                     8.29979  -6.00203   1.70048 
 O                     8.4897   -3.47827   1.87376 
 O                     8.80305  -4.55009  -0.28672 
 C                     5.76637  -3.24507   0.55542 
 C                     4.42394  -3.12838   0.23707 
 F                     1.09931  -0.17524  -1.14489 
 F                    -0.00659  -0.37992   0.84315 
 H                    -0.5609   -5.16741  -0.94851 
 H                    -6.84275  -0.79652  -2.15278 
 H                    -6.71482  -2.39252  -1.40029 
 H                    -10.60499   0.15544   0.56335 
 H                    -7.32105  -0.33672   3.29907 
 H                    -5.86119  -1.04718   1.42375 
 H                    -2.52256   3.51703  -1.67998 
 H                    -4.84017   0.88605  -3.05453 
 H                    -5.36371   1.44011  -1.46436 
 H                    -4.74235   2.60022  -2.64244 
 H                     0.99665   1.98707  -0.58697 
 H                    -0.61131   4.5968   -0.86548 
 H                     0.49196   6.61531  -0.50604 
 H                     2.50243   7.94623   0.00835 
 H                     5.51419   7.92724  -1.47927 
 H                     4.80603   4.30734   0.3363 
 H                     2.80937   2.98742  -0.17603 
 H                    -3.61981  -4.39832  -2.61032 
 H                    -3.07355  -5.4926   -1.33132 
 H                    -4.14369  -4.13888  -0.95057 
 H                     1.96324  -2.11249  -0.43411 
 H                     1.67382  -5.17103  -0.23689 
 H                     3.56592  -6.42763   0.26837 
 H                     5.95591  -6.65133   0.83331 
 H                     8.71815  -5.39002  -0.77869 
 H                     6.38286  -2.35767   0.64762 
 H                     4.01297  -2.13703   0.08184 
 H                    -9.14138  -0.54299  -1.31661 
 O                    -5.17389  -1.08054  -0.93979 
 
 ITRead=  0  0  0  0  0  0  0  0  0  0  0  0  0  0  0  0  0  0  0  0
 ITRead=  0  0  0  0  0  0  0  0  0  0  0  0  0  0  0  0  0  0  0  0
 ITRead=  0  0  0  0  0  0  0  0  0  0  0  0  0  0  0  0  0  0  0  0
 ITRead=  0  0  0  0  0  0  0  0  0  0  0  0  0  0  0  0  0  0  0  0
 ITRead=  0
 MicOpt= -1 -1 -1 -1 -1 -1 -1 -1 -1 -1 -1 -1 -1 -1 -1 -1 -1 -1 -1 -1
 MicOpt= -1 -1 -1 -1 -1 -1 -1 -1 -1 -1 -1 -1 -1 -1 -1 -1 -1 -1 -1 -1
 MicOpt= -1 -1 -1 -1 -1 -1 -1 -1 -1 -1 -1 -1 -1 -1 -1 -1 -1 -1 -1 -1
 MicOpt= -1 -1 -1 -1 -1 -1 -1 -1 -1 -1 -1 -1 -1 -1 -1 -1 -1 -1 -1 -1
 MicOpt= -1
 NAtoms=     81 NQM=       81 NQMF=       0 NMMI=      0 NMMIF=      0
                NMic=       0 NMicF=      0.
                    Isotopes and Nuclear Properties:
 (Nuclear quadrupole moments (NQMom) in fm**2, nuclear magnetic moments (NMagM)
  in nuclear magnetons)

  Atom         1           2           3           4           5           6           7           8           9          10
 IAtWgt=          11          14          12          12          12          12          12          12          16          12
 AtmWgt=  11.0093053  14.0030740  12.0000000  12.0000000  12.0000000  12.0000000  12.0000000  12.0000000  15.9949146  12.0000000
 NucSpn=           3           2           0           0           0           0           0           0           0           0
 AtZEff=  -0.0000000  -0.0000000  -0.0000000  -0.0000000  -0.0000000  -0.0000000  -0.0000000  -0.0000000  -0.0000000  -0.0000000
 NQMom=    4.0590000   2.0440000   0.0000000   0.0000000   0.0000000   0.0000000   0.0000000   0.0000000   0.0000000   0.0000000
 NMagM=    2.6886370   0.4037610   0.0000000   0.0000000   0.0000000   0.0000000   0.0000000   0.0000000   0.0000000   0.0000000
 AtZNuc=   5.0000000   7.0000000   6.0000000   6.0000000   6.0000000   6.0000000   6.0000000   6.0000000   8.0000000   6.0000000

  Atom        11          12          13          14          15          16          17          18          19          20
 IAtWgt=          12          12          12          12          12          12          14          16          16          12
 AtmWgt=  12.0000000  12.0000000  12.0000000  12.0000000  12.0000000  12.0000000  14.0030740  15.9949146  15.9949146  12.0000000
 NucSpn=           0           0           0           0           0           0           2           0           0           0
 AtZEff=  -0.0000000  -0.0000000  -0.0000000  -0.0000000  -0.0000000  -0.0000000  -0.0000000  -0.0000000  -0.0000000  -0.0000000
 NQMom=    0.0000000   0.0000000   0.0000000   0.0000000   0.0000000   0.0000000   2.0440000   0.0000000   0.0000000   0.0000000
 NMagM=    0.0000000   0.0000000   0.0000000   0.0000000   0.0000000   0.0000000   0.4037610   0.0000000   0.0000000   0.0000000
 AtZNuc=   6.0000000   6.0000000   6.0000000   6.0000000   6.0000000   6.0000000   7.0000000   8.0000000   8.0000000   6.0000000

  Atom        21          22          23          24          25          26          27          28          29          30
 IAtWgt=          14          12          12          12          12          12          12          12          12          12
 AtmWgt=  14.0030740  12.0000000  12.0000000  12.0000000  12.0000000  12.0000000  12.0000000  12.0000000  12.0000000  12.0000000
 NucSpn=           2           0           0           0           0           0           0           0           0           0
 AtZEff=  -0.0000000  -0.0000000  -0.0000000  -0.0000000  -0.0000000  -0.0000000  -0.0000000  -0.0000000  -0.0000000  -0.0000000
 NQMom=    2.0440000   0.0000000   0.0000000   0.0000000   0.0000000   0.0000000   0.0000000   0.0000000   0.0000000   0.0000000
 NMagM=    0.4037610   0.0000000   0.0000000   0.0000000   0.0000000   0.0000000   0.0000000   0.0000000   0.0000000   0.0000000
 AtZNuc=   7.0000000   6.0000000   6.0000000   6.0000000   6.0000000   6.0000000   6.0000000   6.0000000   6.0000000   6.0000000

  Atom        31          32          33          34          35          36          37          38          39          40
 IAtWgt=          12          32          16          16          16          12          12          12          12          12
 AtmWgt=  12.0000000  31.9720718  15.9949146  15.9949146  15.9949146  12.0000000  12.0000000  12.0000000  12.0000000  12.0000000
 NucSpn=           0           0           0           0           0           0           0           0           0           0
 AtZEff=  -0.0000000  -0.0000000  -0.0000000  -0.0000000  -0.0000000  -0.0000000  -0.0000000  -0.0000000  -0.0000000  -0.0000000
 NQMom=    0.0000000   0.0000000   0.0000000   0.0000000   0.0000000   0.0000000   0.0000000   0.0000000   0.0000000   0.0000000
 NMagM=    0.0000000   0.0000000   0.0000000   0.0000000   0.0000000   0.0000000   0.0000000   0.0000000   0.0000000   0.0000000
 AtZNuc=   6.0000000  16.0000000   8.0000000   8.0000000   8.0000000   6.0000000   6.0000000   6.0000000   6.0000000   6.0000000

  Atom        41          42          43          44          45          46          47          48          49          50
 IAtWgt=          12          12          12          12          32          16          16          16          12          12
 AtmWgt=  12.0000000  12.0000000  12.0000000  12.0000000  31.9720718  15.9949146  15.9949146  15.9949146  12.0000000  12.0000000
 NucSpn=           0           0           0           0           0           0           0           0           0           0
 AtZEff=  -0.0000000  -0.0000000  -0.0000000  -0.0000000  -0.0000000  -0.0000000  -0.0000000  -0.0000000  -0.0000000  -0.0000000
 NQMom=    0.0000000   0.0000000   0.0000000   0.0000000   0.0000000   0.0000000   0.0000000   0.0000000   0.0000000   0.0000000
 NMagM=    0.0000000   0.0000000   0.0000000   0.0000000   0.0000000   0.0000000   0.0000000   0.0000000   0.0000000   0.0000000
 AtZNuc=   6.0000000   6.0000000   6.0000000   6.0000000  16.0000000   8.0000000   8.0000000   8.0000000   6.0000000   6.0000000

  Atom        51          52          53          54          55          56          57          58          59          60
 IAtWgt=          19          19           1           1           1           1           1           1           1           1
 AtmWgt=  18.9984033  18.9984033   1.0078250   1.0078250   1.0078250   1.0078250   1.0078250   1.0078250   1.0078250   1.0078250
 NucSpn=           1           1           1           1           1           1           1           1           1           1
 AtZEff=  -0.0000000  -0.0000000  -0.0000000  -0.0000000  -0.0000000  -0.0000000  -0.0000000  -0.0000000  -0.0000000  -0.0000000
 NQMom=    0.0000000   0.0000000   0.0000000   0.0000000   0.0000000   0.0000000   0.0000000   0.0000000   0.0000000   0.0000000
 NMagM=    2.6288670   2.6288670   2.7928460   2.7928460   2.7928460   2.7928460   2.7928460   2.7928460   2.7928460   2.7928460
 AtZNuc=   9.0000000   9.0000000   1.0000000   1.0000000   1.0000000   1.0000000   1.0000000   1.0000000   1.0000000   1.0000000

  Atom        61          62          63          64          65          66          67          68          69          70
 IAtWgt=           1           1           1           1           1           1           1           1           1           1
 AtmWgt=   1.0078250   1.0078250   1.0078250   1.0078250   1.0078250   1.0078250   1.0078250   1.0078250   1.0078250   1.0078250
 NucSpn=           1           1           1           1           1           1           1           1           1           1
 AtZEff=  -0.0000000  -0.0000000  -0.0000000  -0.0000000  -0.0000000  -0.0000000  -0.0000000  -0.0000000  -0.0000000  -0.0000000
 NQMom=    0.0000000   0.0000000   0.0000000   0.0000000   0.0000000   0.0000000   0.0000000   0.0000000   0.0000000   0.0000000
 NMagM=    2.7928460   2.7928460   2.7928460   2.7928460   2.7928460   2.7928460   2.7928460   2.7928460   2.7928460   2.7928460
 AtZNuc=   1.0000000   1.0000000   1.0000000   1.0000000   1.0000000   1.0000000   1.0000000   1.0000000   1.0000000   1.0000000

  Atom        71          72          73          74          75          76          77          78          79          80
 IAtWgt=           1           1           1           1           1           1           1           1           1           1
 AtmWgt=   1.0078250   1.0078250   1.0078250   1.0078250   1.0078250   1.0078250   1.0078250   1.0078250   1.0078250   1.0078250
 NucSpn=           1           1           1           1           1           1           1           1           1           1
 AtZEff=  -0.0000000  -0.0000000  -0.0000000  -0.0000000  -0.0000000  -0.0000000  -0.0000000  -0.0000000  -0.0000000  -0.0000000
 NQMom=    0.0000000   0.0000000   0.0000000   0.0000000   0.0000000   0.0000000   0.0000000   0.0000000   0.0000000   0.0000000
 NMagM=    2.7928460   2.7928460   2.7928460   2.7928460   2.7928460   2.7928460   2.7928460   2.7928460   2.7928460   2.7928460
 AtZNuc=   1.0000000   1.0000000   1.0000000   1.0000000   1.0000000   1.0000000   1.0000000   1.0000000   1.0000000   1.0000000

  Atom        81
 IAtWgt=          16
 AtmWgt=  15.9949146
 NucSpn=           0
 AtZEff=  -0.0000000
 NQMom=    0.0000000
 NMagM=    0.0000000
 AtZNuc=   8.0000000
 Leave Link  101 at Fri Nov 14 05:20:13 2025, MaxMem= 30870077440 cpu:               5.9 elap:               0.1
 (Enter /public/software/gauss/g16/l202.exe)
 Stoichiometry    C35H28BF2N3O10S2(1-,2)
 Framework group  C1[X(C35H28BF2N3O10S2)]
 Deg. of freedom   237
 Full point group                 C1      NOp   1
 Largest Abelian subgroup         C1      NOp   1
 Largest concise Abelian subgroup C1      NOp   1
                         Standard orientation:                         
 ---------------------------------------------------------------------
 Center     Atomic      Atomic             Coordinates (Angstroms)
 Number     Number       Type             X           Y           Z
 ---------------------------------------------------------------------
      1          5           0       -0.155185   -0.456850   -0.557285
      2          7           0       -0.632602   -1.864695   -0.974292
      3          6           0        0.074382   -3.044939   -0.791347
      4          6           0       -0.818006   -4.117744   -1.004295
      5          6           0       -2.074743   -3.609691   -1.308078
      6          6           0       -1.944876   -2.180272   -1.295745
      7          6           0       -2.890203   -1.145178   -1.505873
      8          6           0       -4.287160   -1.493641   -1.872412
      9          8           0       -4.628580   -2.086171   -2.886196
     10          6           0       -6.568179   -1.319793   -1.232937
     11          6           0       -7.403983   -0.848018   -0.072723
     12          6           0       -8.744174   -0.504762   -0.307184
     13          6           0       -9.570928   -0.112355    0.737581
     14          6           0       -9.036082   -0.058298    2.025905
     15          6           0       -7.706560   -0.388860    2.289024
     16          6           0       -6.895312   -0.787101    1.232301
     17          7           0       -9.891842    0.359451    3.128534
     18          8           0       -9.408849    0.410056    4.265516
     19          8           0      -11.069611    0.647310    2.886057
     20          6           0       -2.504972    0.217502   -1.415926
     21          7           0       -1.210749    0.552962   -1.051088
     22          6           0       -1.081528    1.933483   -1.092403
     23          6           0       -2.318136    2.467187   -1.515734
     24          6           0       -3.211517    1.425351   -1.731533
     25          6           0       -4.611488    1.589324   -2.246351
     26          6           0        0.132010    2.615563   -0.769576
     27          6           0        0.262884    3.973129   -0.691543
     28          6           0        1.481822    4.696634   -0.388358
     29          6           0        1.436361    6.110227   -0.326643
     30          6           0        2.563940    6.864962   -0.039631
     31          6           0        3.777617    6.208087    0.198329
     32         16           0        5.230770    7.153980    0.529700
     33          8           0        6.170667    6.367556    1.332079
     34          8           0        4.847092    8.501128    0.971163
     35          8           0        5.990607    7.291044   -0.910554
     36          6           0        3.863427    4.808317    0.145100
     37          6           0        2.728816    4.068288   -0.142710
     38          6           0       -3.292029   -4.447396   -1.567145
     39          6           0        1.463722   -3.074610   -0.461341
     40          6           0        2.180565   -4.208957   -0.203210
     41          6           0        3.591814   -4.270874    0.121421
     42          6           0        4.183039   -5.537538    0.345091
     43          6           0        5.526770   -5.670640    0.662329
     44          6           0        6.315667   -4.518862    0.769369
     45         16           0        8.032923   -4.667080    1.149634
     46          8           0        8.299788   -6.002029    1.700484
     47          8           0        8.489696   -3.478271    1.873758
     48          8           0        8.803051   -4.550089   -0.286721
     49          6           0        5.766367   -3.245068    0.555423
     50          6           0        4.423937   -3.128379    0.237074
     51          9           0        1.099314   -0.175242   -1.144889
     52          9           0       -0.006591   -0.379923    0.843148
     53          1           0       -0.560898   -5.167411   -0.948511
     54          1           0       -6.842746   -0.796523   -2.152781
     55          1           0       -6.714816   -2.392522   -1.400294
     56          1           0      -10.604990    0.155435    0.563354
     57          1           0       -7.321046   -0.336717    3.299072
     58          1           0       -5.861188   -1.047183    1.423751
     59          1           0       -2.522557    3.517029   -1.679983
     60          1           0       -4.840165    0.886047   -3.054533
     61          1           0       -5.363714    1.440112   -1.464357
     62          1           0       -4.742351    2.600219   -2.642441
     63          1           0        0.996653    1.987074   -0.586968
     64          1           0       -0.611313    4.596798   -0.865482
     65          1           0        0.491959    6.615305   -0.506037
     66          1           0        2.502425    7.946230    0.008347
     67          1           0        5.514188    7.927240   -1.479270
     68          1           0        4.806033    4.307335    0.336299
     69          1           0        2.809365    2.987421   -0.176028
     70          1           0       -3.619805   -4.398322   -2.610317
     71          1           0       -3.073547   -5.492604   -1.331324
     72          1           0       -4.143686   -4.138883   -0.950565
     73          1           0        1.963238   -2.112486   -0.434105
     74          1           0        1.673818   -5.171027   -0.236893
     75          1           0        3.565917   -6.427626    0.268370
     76          1           0        5.955914   -6.651327    0.833314
     77          1           0        8.718151   -5.390016   -0.778691
     78          1           0        6.382865   -2.357670    0.647623
     79          1           0        4.012972   -2.137026    0.081842
     80          1           0       -9.141377   -0.542993   -1.316612
     81          8           0       -5.173889   -1.080543   -0.939786
 ---------------------------------------------------------------------
 Rotational constants (GHZ):           0.0371142           0.0202770           0.0142728
 Leave Link  202 at Fri Nov 14 05:20:14 2025, MaxMem= 30870077440 cpu:               1.8 elap:               0.0
 (Enter /public/software/gauss/g16/l301.exe)
 Standard basis: def2TZVPP (5D, 7F)
 Ernie: Thresh=  0.10000D-02 Tol=  0.10000D-05 Strict=F.
 There are  2352 symmetry adapted cartesian basis functions of A   symmetry.
 There are  2057 symmetry adapted basis functions of A   symmetry.
  2057 basis functions,  3215 primitive gaussians,  2352 cartesian basis functions
   198 alpha electrons      197 beta electrons
       nuclear repulsion energy      6784.3012646399 Hartrees.
 IExCor= 4336 DFT=T Ex+Corr=M062X ExCW=0 ScaHFX=  0.540000
 ScaDFX=  1.000000  1.000000  1.000000  1.000000 ScalE2=  1.000000  1.000000
 IRadAn=      5 IRanWt=     -1 IRanGd=            0 ICorTp=0 IEmpDi=131
 NAtoms=   81 NActive=   81 NUniq=   81 SFac= 1.00D+00 NAtFMM=   60 NAOKFM=T Big=T
 Integral buffers will be    131072 words long.
 Raffenetti 2 integral format.
 Two-electron integral symmetry is turned on.
 R6Disp:  Grimme-D3 Dispersion energy=       -0.0067156365 Hartrees.
 Nuclear repulsion after empirical dispersion term =     6784.2945490034 Hartrees.
 ------------------------------------------------------------------------------
 Polarizable Continuum Model (PCM)
 =================================
 Model                : PCM.
 Atomic radii         : UFF (Universal Force Field).
 Polarization charges : Total charges.
 Charge compensation  : None.
 Solution method      : On-the-fly selection.
 Cavity type          : Scaled VdW (van der Waals Surface) (Alpha=1.100).
 Cavity algorithm     : GePol (No added spheres)
                        Default sphere list used, NSphG=   81.
                        Lebedev-Laikov grids with approx.  5.0 points / Ang**2.
                        Smoothing algorithm: York/Karplus (Gamma=1.0000).
                        Polarization charges: spherical gaussians, with
                                              point-specific exponents (IZeta= 3).
                        Self-potential: point-specific (ISelfS= 7).
                        Self-field    : sphere-specific E.n sum rule (ISelfD= 2).
 Solvent              : Water, Eps=  78.355300 Eps(inf)=   1.777849
 ------------------------------------------------------------------------------
 GePol: Number of generator spheres                  =      81
 GePol: Total number of spheres                      =      81
 GePol: Number of exposed spheres                    =      81 (100.00%)
 GePol: Number of points                             =    6304
 GePol: Average weight of points                     =       0.13
 GePol: Minimum weight of points                     =   0.46D-11
 GePol: Maximum weight of points                     =    0.20577
 GePol: Number of points with low weight             =     385
 GePol: Fraction of low-weight points (<1% of avg)   =       6.11%
 GePol: Cavity surface area                          =    805.304 Ang**2
 GePol: Cavity volume                                =    916.940 Ang**3
 Leave Link  301 at Fri Nov 14 05:20:14 2025, MaxMem= 30870077440 cpu:               4.5 elap:               0.1
 (Enter /public/software/gauss/g16/l302.exe)
 NPDir=0 NMtPBC=     1 NCelOv=     1 NCel=       1 NClECP=     1 NCelD=      1
         NCelK=      1 NCelE2=     1 NClLst=     1 CellRange=     0.0.
 One-electron integrals computed using PRISM.
 One-electron integral symmetry used in STVInt
   1 Symmetry operations used in ECPInt.
 ECPInt:  NShTT=  286903 NPrTT=  844327 LenC2=  157026 LenP2D=  302159.
 LDataN:  DoStor=T MaxTD1= 6 Len=  172
 NBasis=  2057 RedAO= T EigKep=  5.87D-06  NBF=  2057
 NBsUse=  2057 1.00D-06 EigRej= -1.00D+00 NBFU=  2057
 Precomputing XC quadrature grid using
 IXCGrd= 4 IRadAn=           5 IRanWt=          -1 IRanGd=           0 AccXCQ= 0.00D+00.
 Generated NRdTot=       0 NPtTot=           0 NUsed=           0 NTot=          32
 NSgBfM=  1932  1932  1932  1932  1932 MxSgAt=    81 MxSgA2=    81.
 Leave Link  302 at Fri Nov 14 05:20:26 2025, MaxMem= 30870077440 cpu:             763.3 elap:              12.0
 (Enter /public/software/gauss/g16/l303.exe)
 DipDrv:  MaxL=1.
 Leave Link  303 at Fri Nov 14 05:20:26 2025, MaxMem= 30870077440 cpu:              32.8 elap:               0.6
 (Enter /public/software/gauss/g16/l401.exe)
 ExpMin= 6.06D-02 ExpMax= 6.07D+04 ExpMxC= 2.07D+03 IAcc=3 IRadAn=         5 AccDes= 0.00D+00
 Harris functional with IExCor= 1009 and IRadAn=       5 diagonalized for initial guess.
 HarFok:  IExCor= 1009 AccDes= 0.00D+00 IRadAn=         5 IDoV= 1 UseB2=F ITyADJ=14
 ICtDFT=  3500011 ScaDFX=  1.000000  1.000000  1.000000  1.000000
 FoFCou: FMM=F IPFlag=           0 FMFlag=      100000 FMFlg1=        2001
         NFxFlg=           0 DoJE=T BraDBF=F KetDBF=T FulRan=T
         wScrn=  0.000000 ICntrl=       500 IOpCl=  0 I1Cent=   200000004 NGrid=           0
         NMat0=    1 NMatS0=      1 NMatT0=    0 NMatD0=    1 NMtDS0=    0 NMtDT0=    0
 Petite list used in FoFCou.
 Harris En= -3286.82799921667    
 JPrj=0 DoOrth=F DoCkMO=F.
 Initial guess <Sx>= 0.0000 <Sy>= 0.0000 <Sz>= 0.5000 <S**2>= 0.7500 S= 0.5000
 Leave Link  401 at Fri Nov 14 05:20:39 2025, MaxMem= 30870077440 cpu:             818.3 elap:              12.9
 (Enter /public/software/gauss/g16/l502.exe)
 Integral symmetry usage will be decided dynamically.
 UHF open shell SCF:
 Using DIIS extrapolation, IDIIS=  1040.
 NGot= 30870077440 LenX= 30858843495 LenY= 30853309239
 Requested convergence on RMS density matrix=1.00D-08 within 128 cycles.
 Requested convergence on MAX density matrix=1.00D-06.
 Requested convergence on             energy=1.00D-06.
 No special actions if energy rises.
 Fock matrices will be formed incrementally for  20 cycles.

 Cycle   1  Pass 1  IDiag  1:
 FoFJK:  IHMeth= 1 ICntrl=       0 DoSepK=F KAlg= 0 I1Cent=           0 FoldK=F
 IRaf= 510000000 NMat=       1 IRICut=       1 DoRegI=T DoRafI=F ISym2E= 0 IDoP0=0 IntGTp=1.
 FoFCou: FMM=T IPFlag=           0 FMFlag=      100000 FMFlg1=        2001
         NFxFlg=           0 DoJE=F BraDBF=F KetDBF=F FulRan=T
         wScrn=  0.000000 ICntrl=         0 IOpCl=  1 I1Cent=           0 NGrid=           0
         NMat0=    1 NMatS0=      1 NMatT0=    0 NMatD0=    1 NMtDS0=    0 NMtDT0=    0
 Symmetry not used in FoFCou.
 FMM levels:  10  Number of levels for PrismC:   9
 Inv3:  Mode=1 IEnd=   119221248.
 Iteration    1 A*A^-1 deviation from unit magnitude is 1.67D-14 for    384.
 Iteration    1 A*A^-1 deviation from orthogonality  is 5.64D-15 for   6036   1060.
 Iteration    1 A^-1*A deviation from unit magnitude is 1.75D-14 for    650.
 Iteration    1 A^-1*A deviation from orthogonality  is 2.58D-14 for   6288   6267.
 E= -3286.71898178111    
 DIIS: error= 3.30D-02 at cycle   1 NSaved=   1.
 NSaved= 1 IEnMin= 1 EnMin= -3286.71898178111     IErMin= 1 ErrMin= 3.30D-02
 ErrMax= 3.30D-02  0.00D+00 EMaxC= 1.00D-01 BMatC= 9.05D+00 BMatP= 9.05D+00
 IDIUse=3 WtCom= 6.70D-01 WtEn= 3.30D-01
 Coeff-Com:  0.100D+01
 Coeff-En:   0.100D+01
 Coeff:      0.100D+01
 Gap=     0.130 Goal=   None    Shift=    0.000
 Gap=     0.120 Goal=   None    Shift=    0.000
 GapD=    0.120 DampG=1.000 DampE=0.500 DampFc=0.5000 IDamp=-1.
 Damping current iteration by 5.00D-01
 RMSDP=1.88D-03 MaxDP=4.14D-01              OVMax= 2.61D-01

 Cycle   2  Pass 1  IDiag  1:
 RMSU=  9.41D-04    CP:  1.01D+00
 E= -3287.39233268434     Delta-E=       -0.673350903222 Rises=F Damp=T
 DIIS: error= 6.47D-03 at cycle   2 NSaved=   2.
 NSaved= 2 IEnMin= 2 EnMin= -3287.39233268434     IErMin= 2 ErrMin= 6.47D-03
 ErrMax= 6.47D-03  0.00D+00 EMaxC= 1.00D-01 BMatC= 8.38D-01 BMatP= 9.05D+00
 IDIUse=3 WtCom= 9.35D-01 WtEn= 6.47D-02
 Coeff-Com:  0.324D-01 0.968D+00
 Coeff-En:   0.930D-01 0.907D+00
 Coeff:      0.363D-01 0.964D+00
 Gap=     0.107 Goal=   None    Shift=    0.000
 Gap=     0.153 Goal=   None    Shift=    0.000
 RMSDP=5.86D-04 MaxDP=1.07D-01 DE=-6.73D-01 OVMax= 1.95D-01

 Cycle   3  Pass 1  IDiag  1:
 RMSU=  5.80D-04    CP:  9.89D-01  9.58D-01
 E= -3288.18508739032     Delta-E=       -0.792754705981 Rises=F Damp=F
 DIIS: error= 8.86D-03 at cycle   3 NSaved=   3.
 NSaved= 3 IEnMin= 3 EnMin= -3288.18508739032     IErMin= 2 ErrMin= 6.47D-03
 ErrMax= 8.86D-03  0.00D+00 EMaxC= 1.00D-01 BMatC= 4.21D-01 BMatP= 8.38D-01
 IDIUse=3 WtCom= 9.11D-01 WtEn= 8.86D-02
 Coeff-Com: -0.730D-01 0.414D+00 0.659D+00
 Coeff-En:   0.000D+00 0.000D+00 0.100D+01
 Coeff:     -0.665D-01 0.377D+00 0.689D+00
 Gap=     0.110 Goal=   None    Shift=    0.000
 Gap=     0.129 Goal=   None    Shift=    0.000
 RMSDP=2.21D-04 MaxDP=3.84D-02 DE=-7.93D-01 OVMax= 4.91D-02

 Cycle   4  Pass 1  IDiag  1:
 RMSU=  2.02D-04    CP:  9.92D-01  1.01D+00  8.77D-01
 E= -3288.25458927406     Delta-E=       -0.069501883738 Rises=F Damp=F
 DIIS: error= 2.45D-03 at cycle   4 NSaved=   4.
 NSaved= 4 IEnMin= 4 EnMin= -3288.25458927406     IErMin= 4 ErrMin= 2.45D-03
 ErrMax= 2.45D-03  0.00D+00 EMaxC= 1.00D-01 BMatC= 6.74D-02 BMatP= 4.21D-01
 IDIUse=3 WtCom= 9.76D-01 WtEn= 2.45D-02
 Coeff-Com: -0.279D-01 0.839D-01 0.336D+00 0.608D+00
 Coeff-En:   0.000D+00 0.000D+00 0.105D+00 0.895D+00
 Coeff:     -0.272D-01 0.819D-01 0.330D+00 0.615D+00
 Gap=     0.110 Goal=   None    Shift=    0.000
 Gap=     0.132 Goal=   None    Shift=    0.000
 RMSDP=7.60D-05 MaxDP=8.56D-03 DE=-6.95D-02 OVMax= 2.28D-02

 Cycle   5  Pass 1  IDiag  1:
 RMSU=  4.75D-05    CP:  9.91D-01  9.93D-01  9.25D-01  7.57D-01
 E= -3288.26810255195     Delta-E=       -0.013513277892 Rises=F Damp=F
 DIIS: error= 4.95D-04 at cycle   5 NSaved=   5.
 NSaved= 5 IEnMin= 5 EnMin= -3288.26810255195     IErMin= 5 ErrMin= 4.95D-04
 ErrMax= 4.95D-04  0.00D+00 EMaxC= 1.00D-01 BMatC= 3.62D-03 BMatP= 6.74D-02
 IDIUse=3 WtCom= 9.95D-01 WtEn= 4.95D-03
 Coeff-Com: -0.785D-02 0.139D-01 0.110D+00 0.283D+00 0.600D+00
 Coeff-En:   0.000D+00 0.000D+00 0.000D+00 0.000D+00 0.100D+01
 Coeff:     -0.781D-02 0.139D-01 0.110D+00 0.282D+00 0.602D+00
 Gap=     0.111 Goal=   None    Shift=    0.000
 Gap=     0.133 Goal=   None    Shift=    0.000
 RMSDP=2.54D-05 MaxDP=7.12D-03 DE=-1.35D-02 OVMax= 9.56D-03

 Cycle   6  Pass 1  IDiag  1:
 RMSU=  1.91D-05    CP:  9.91D-01  1.01D+00  9.14D-01  7.79D-01  9.16D-01
 E= -3288.26897525159     Delta-E=       -0.000872699640 Rises=F Damp=F
 DIIS: error= 1.63D-04 at cycle   6 NSaved=   6.
 NSaved= 6 IEnMin= 6 EnMin= -3288.26897525159     IErMin= 6 ErrMin= 1.63D-04
 ErrMax= 1.63D-04  0.00D+00 EMaxC= 1.00D-01 BMatC= 2.87D-04 BMatP= 3.62D-03
 IDIUse=3 WtCom= 9.98D-01 WtEn= 1.63D-03
 Coeff-Com: -0.488D-03-0.169D-02 0.108D-01 0.470D-01 0.225D+00 0.719D+00
 Coeff-En:   0.000D+00 0.000D+00 0.000D+00 0.000D+00 0.000D+00 0.100D+01
 Coeff:     -0.487D-03-0.169D-02 0.108D-01 0.469D-01 0.225D+00 0.720D+00
 Gap=     0.112 Goal=   None    Shift=    0.000
 Gap=     0.135 Goal=   None    Shift=    0.000
 RMSDP=1.05D-05 MaxDP=1.08D-03 DE=-8.73D-04 OVMax= 5.70D-03

 Cycle   7  Pass 1  IDiag  1:
 RMSU=  8.08D-06    CP:  9.91D-01  1.01D+00  9.16D-01  7.82D-01  1.03D+00
                    CP:  1.17D+00
 E= -3288.26911329575     Delta-E=       -0.000138044163 Rises=F Damp=F
 DIIS: error= 7.25D-05 at cycle   7 NSaved=   7.
 NSaved= 7 IEnMin= 7 EnMin= -3288.26911329575     IErMin= 7 ErrMin= 7.25D-05
 ErrMax= 7.25D-05  0.00D+00 EMaxC= 1.00D-01 BMatC= 7.56D-05 BMatP= 2.87D-04
 IDIUse=1 WtCom= 1.00D+00 WtEn= 0.00D+00
 Coeff-Com:  0.147D-02-0.375D-02-0.201D-01-0.429D-01-0.351D-01 0.281D+00
 Coeff-Com:  0.819D+00
 Coeff:      0.147D-02-0.375D-02-0.201D-01-0.429D-01-0.351D-01 0.281D+00
 Coeff:      0.819D+00
 Gap=     0.113 Goal=   None    Shift=    0.000
 Gap=     0.136 Goal=   None    Shift=    0.000
 RMSDP=8.53D-06 MaxDP=1.88D-03 DE=-1.38D-04 OVMax= 6.06D-03

 Cycle   8  Pass 1  IDiag  1:
 RMSU=  4.49D-06    CP:  9.91D-01  1.01D+00  9.15D-01  7.94D-01  1.10D+00
                    CP:  1.44D+00  1.29D+00
 E= -3288.26917878189     Delta-E=       -0.000065486140 Rises=F Damp=F
 DIIS: error= 4.52D-05 at cycle   8 NSaved=   8.
 NSaved= 8 IEnMin= 8 EnMin= -3288.26917878189     IErMin= 8 ErrMin= 4.52D-05
 ErrMax= 4.52D-05  0.00D+00 EMaxC= 1.00D-01 BMatC= 2.75D-05 BMatP= 7.56D-05
 IDIUse=1 WtCom= 1.00D+00 WtEn= 0.00D+00
 Coeff-Com:  0.776D-03-0.108D-02-0.124D-01-0.343D-01-0.879D-01-0.115D+00
 Coeff-Com:  0.380D+00 0.870D+00
 Coeff:      0.776D-03-0.108D-02-0.124D-01-0.343D-01-0.879D-01-0.115D+00
 Coeff:      0.380D+00 0.870D+00
 Gap=     0.113 Goal=   None    Shift=    0.000
 Gap=     0.137 Goal=   None    Shift=    0.000
 RMSDP=5.98D-06 MaxDP=6.97D-04 DE=-6.55D-05 OVMax= 3.82D-03

 Cycle   9  Pass 1  IDiag  1:
 RMSU=  2.36D-06    CP:  9.91D-01  1.01D+00  9.15D-01  7.98D-01  1.16D+00
                    CP:  1.59D+00  1.72D+00  1.30D+00
 E= -3288.26920702911     Delta-E=       -0.000028247217 Rises=F Damp=F
 DIIS: error= 2.53D-05 at cycle   9 NSaved=   9.
 NSaved= 9 IEnMin= 9 EnMin= -3288.26920702911     IErMin= 9 ErrMin= 2.53D-05
 ErrMax= 2.53D-05  0.00D+00 EMaxC= 1.00D-01 BMatC= 6.42D-06 BMatP= 2.75D-05
 IDIUse=1 WtCom= 1.00D+00 WtEn= 0.00D+00
 Coeff-Com: -0.196D-03 0.891D-03 0.212D-02 0.910D-03-0.243D-01-0.131D+00
 Coeff-Com: -0.109D+00 0.329D+00 0.931D+00
 Coeff:     -0.196D-03 0.891D-03 0.212D-02 0.910D-03-0.243D-01-0.131D+00
 Coeff:     -0.109D+00 0.329D+00 0.931D+00
 Gap=     0.114 Goal=   None    Shift=    0.000
 Gap=     0.137 Goal=   None    Shift=    0.000
 RMSDP=3.58D-06 MaxDP=6.03D-04 DE=-2.82D-05 OVMax= 2.48D-03

 Cycle  10  Pass 1  IDiag  1:
 RMSU=  1.23D-06    CP:  9.91D-01  1.01D+00  9.15D-01  7.99D-01  1.18D+00
                    CP:  1.69D+00  1.94D+00  1.67D+00  1.26D+00
 E= -3288.26921446008     Delta-E=       -0.000007430970 Rises=F Damp=F
 DIIS: error= 1.62D-05 at cycle  10 NSaved=  10.
 NSaved=10 IEnMin=10 EnMin= -3288.26921446008     IErMin=10 ErrMin= 1.62D-05
 ErrMax= 1.62D-05  0.00D+00 EMaxC= 1.00D-01 BMatC= 1.41D-06 BMatP= 6.42D-06
 IDIUse=1 WtCom= 1.00D+00 WtEn= 0.00D+00
 Coeff-Com: -0.233D-03 0.534D-03 0.373D-02 0.855D-02 0.982D-02-0.227D-01
 Coeff-Com: -0.132D+00-0.661D-01 0.367D+00 0.831D+00
 Coeff:     -0.233D-03 0.534D-03 0.373D-02 0.855D-02 0.982D-02-0.227D-01
 Coeff:     -0.132D+00-0.661D-01 0.367D+00 0.831D+00
 Gap=     0.114 Goal=   None    Shift=    0.000
 Gap=     0.137 Goal=   None    Shift=    0.000
 RMSDP=1.33D-06 MaxDP=2.46D-04 DE=-7.43D-06 OVMax= 1.12D-03

 Cycle  11  Pass 1  IDiag  1:
 RMSU=  5.61D-07    CP:  9.91D-01  1.01D+00  9.15D-01  8.00D-01  1.18D+00
                    CP:  1.70D+00  2.01D+00  1.81D+00  1.54D+00  1.19D+00
 E= -3288.26921577498     Delta-E=       -0.000001314904 Rises=F Damp=F
 DIIS: error= 6.28D-06 at cycle  11 NSaved=  11.
 NSaved=11 IEnMin=11 EnMin= -3288.26921577498     IErMin=11 ErrMin= 6.28D-06
 ErrMax= 6.28D-06  0.00D+00 EMaxC= 1.00D-01 BMatC= 2.77D-07 BMatP= 1.41D-06
 IDIUse=1 WtCom= 1.00D+00 WtEn= 0.00D+00
 Coeff-Com: -0.504D-04 0.557D-04 0.104D-02 0.303D-02 0.710D-02 0.120D-01
 Coeff-Com: -0.331D-01-0.713D-01-0.146D-01 0.291D+00 0.805D+00
 Coeff:     -0.504D-04 0.557D-04 0.104D-02 0.303D-02 0.710D-02 0.120D-01
 Coeff:     -0.331D-01-0.713D-01-0.146D-01 0.291D+00 0.805D+00
 Gap=     0.114 Goal=   None    Shift=    0.000
 Gap=     0.137 Goal=   None    Shift=    0.000
 RMSDP=4.84D-07 MaxDP=6.39D-05 DE=-1.31D-06 OVMax= 4.01D-04

 Cycle  12  Pass 1  IDiag  1:
 RMSU=  2.71D-07    CP:  9.91D-01  1.01D+00  9.15D-01  8.00D-01  1.18D+00
                    CP:  1.70D+00  2.01D+00  1.84D+00  1.62D+00  1.42D+00
                    CP:  1.25D+00
 E= -3288.26921609584     Delta-E=       -0.000000320859 Rises=F Damp=F
 DIIS: error= 4.74D-06 at cycle  12 NSaved=  12.
 NSaved=12 IEnMin=12 EnMin= -3288.26921609584     IErMin=12 ErrMin= 4.74D-06
 ErrMax= 4.74D-06  0.00D+00 EMaxC= 1.00D-01 BMatC= 9.38D-08 BMatP= 2.77D-07
 IDIUse=1 WtCom= 1.00D+00 WtEn= 0.00D+00
 Coeff-Com:  0.405D-04-0.108D-03-0.595D-03-0.120D-02-0.335D-03 0.868D-02
 Coeff-Com:  0.199D-01-0.263D-03-0.932D-01-0.134D+00 0.293D+00 0.908D+00
 Coeff:      0.405D-04-0.108D-03-0.595D-03-0.120D-02-0.335D-03 0.868D-02
 Coeff:      0.199D-01-0.263D-03-0.932D-01-0.134D+00 0.293D+00 0.908D+00
 Gap=     0.114 Goal=   None    Shift=    0.000
 Gap=     0.137 Goal=   None    Shift=    0.000
 RMSDP=3.53D-07 MaxDP=5.34D-05 DE=-3.21D-07 OVMax= 3.65D-04

 Cycle  13  Pass 1  IDiag  1:
 RMSU=  1.47D-07    CP:  9.91D-01  1.01D+00  9.15D-01  8.00D-01  1.18D+00
                    CP:  1.70D+00  2.01D+00  1.84D+00  1.65D+00  1.55D+00
                    CP:  1.60D+00  1.64D+00
 E= -3288.26921625567     Delta-E=       -0.000000159829 Rises=F Damp=F
 DIIS: error= 2.74D-06 at cycle  13 NSaved=  13.
 NSaved=13 IEnMin=13 EnMin= -3288.26921625567     IErMin=13 ErrMin= 2.74D-06
 ErrMax= 2.74D-06  0.00D+00 EMaxC= 1.00D-01 BMatC= 3.43D-08 BMatP= 9.38D-08
 IDIUse=1 WtCom= 1.00D+00 WtEn= 0.00D+00
 Coeff-Com:  0.318D-04-0.579D-04-0.591D-03-0.153D-02-0.249D-02-0.520D-03
 Coeff-Com:  0.184D-01 0.265D-01-0.301D-01-0.166D+00-0.152D+00 0.319D+00
 Coeff-Com:  0.989D+00
 Coeff:      0.318D-04-0.579D-04-0.591D-03-0.153D-02-0.249D-02-0.520D-03
 Coeff:      0.184D-01 0.265D-01-0.301D-01-0.166D+00-0.152D+00 0.319D+00
 Coeff:      0.989D+00
 Gap=     0.114 Goal=   None    Shift=    0.000
 Gap=     0.137 Goal=   None    Shift=    0.000
 RMSDP=2.92D-07 MaxDP=3.92D-05 DE=-1.60D-07 OVMax= 3.25D-04

 Cycle  14  Pass 1  IDiag  1:
 RMSU=  7.80D-08    CP:  9.91D-01  1.01D+00  9.15D-01  8.00D-01  1.18D+00
                    CP:  1.70D+00  2.01D+00  1.84D+00  1.67D+00  1.63D+00
                    CP:  1.90D+00  2.25D+00  1.67D+00
 E= -3288.26921633342     Delta-E=       -0.000000077751 Rises=F Damp=F
 DIIS: error= 1.62D-06 at cycle  14 NSaved=  14.
 NSaved=14 IEnMin=14 EnMin= -3288.26921633342     IErMin=14 ErrMin= 1.62D-06
 ErrMax= 1.62D-06  0.00D+00 EMaxC= 1.00D-01 BMatC= 1.21D-08 BMatP= 3.43D-08
 IDIUse=1 WtCom= 1.00D+00 WtEn= 0.00D+00
 Coeff-Com: -0.528D-05 0.228D-04 0.208D-04-0.110D-03-0.958D-03-0.455D-02
 Coeff-Com: -0.194D-02 0.116D-01 0.289D-01-0.131D-01-0.169D+00-0.274D+00
 Coeff-Com:  0.417D+00 0.101D+01
 Coeff:     -0.528D-05 0.228D-04 0.208D-04-0.110D-03-0.958D-03-0.455D-02
 Coeff:     -0.194D-02 0.116D-01 0.289D-01-0.131D-01-0.169D+00-0.274D+00
 Coeff:      0.417D+00 0.101D+01
 Gap=     0.114 Goal=   None    Shift=    0.000
 Gap=     0.137 Goal=   None    Shift=    0.000
 RMSDP=2.12D-07 MaxDP=2.35D-05 DE=-7.78D-08 OVMax= 2.39D-04

 Cycle  15  Pass 1  IDiag  1:
 RMSU=  4.85D-08    CP:  9.91D-01  1.01D+00  9.15D-01  8.00D-01  1.18D+00
                    CP:  1.70D+00  2.02D+00  1.84D+00  1.69D+00  1.67D+00
                    CP:  2.08D+00  2.73D+00  2.28D+00  1.62D+00
 E= -3288.26921636157     Delta-E=       -0.000000028149 Rises=F Damp=F
 DIIS: error= 8.07D-07 at cycle  15 NSaved=  15.
 NSaved=15 IEnMin=15 EnMin= -3288.26921636157     IErMin=15 ErrMin= 8.07D-07
 ErrMax= 8.07D-07  0.00D+00 EMaxC= 1.00D-01 BMatC= 2.93D-09 BMatP= 1.21D-08
 IDIUse=1 WtCom= 1.00D+00 WtEn= 0.00D+00
 Coeff-Com: -0.968D-05 0.232D-04 0.167D-03 0.361D-03 0.309D-03-0.141D-02
 Coeff-Com: -0.545D-02-0.384D-02 0.176D-01 0.421D-01-0.861D-02-0.196D+00
 Coeff-Com: -0.136D+00 0.381D+00 0.909D+00
 Coeff:     -0.968D-05 0.232D-04 0.167D-03 0.361D-03 0.309D-03-0.141D-02
 Coeff:     -0.545D-02-0.384D-02 0.176D-01 0.421D-01-0.861D-02-0.196D+00
 Coeff:     -0.136D+00 0.381D+00 0.909D+00
 Gap=     0.114 Goal=   None    Shift=    0.000
 Gap=     0.137 Goal=   None    Shift=    0.000
 RMSDP=8.97D-08 MaxDP=9.96D-06 DE=-2.81D-08 OVMax= 8.91D-05

 Cycle  16  Pass 1  IDiag  1:
 RMSU=  2.14D-08    CP:  9.91D-01  1.01D+00  9.15D-01  8.00D-01  1.18D+00
                    CP:  1.70D+00  2.02D+00  1.84D+00  1.69D+00  1.68D+00
                    CP:  2.15D+00  2.91D+00  2.57D+00  2.05D+00  1.37D+00
 E= -3288.26921636633     Delta-E=       -0.000000004757 Rises=F Damp=F
 DIIS: error= 3.04D-07 at cycle  16 NSaved=  16.
 NSaved=16 IEnMin=16 EnMin= -3288.26921636633     IErMin=16 ErrMin= 3.04D-07
 ErrMax= 3.04D-07  0.00D+00 EMaxC= 1.00D-01 BMatC= 6.98D-10 BMatP= 2.93D-09
 IDIUse=1 WtCom= 1.00D+00 WtEn= 0.00D+00
 Coeff-Com: -0.255D-05 0.397D-05 0.694D-04 0.187D-03 0.371D-03 0.424D-03
 Coeff-Com: -0.196D-02-0.464D-02 0.104D-02 0.219D-01 0.373D-01-0.266D-01
 Coeff-Com: -0.157D+00-0.498D-01 0.399D+00 0.780D+00
 Coeff:     -0.255D-05 0.397D-05 0.694D-04 0.187D-03 0.371D-03 0.424D-03
 Coeff:     -0.196D-02-0.464D-02 0.104D-02 0.219D-01 0.373D-01-0.266D-01
 Coeff:     -0.157D+00-0.498D-01 0.399D+00 0.780D+00
 Gap=     0.114 Goal=   None    Shift=    0.000
 Gap=     0.137 Goal=   None    Shift=    0.000
 DSYEVD-2 returned Info=     3706328 IAlg= 4 N=  2057 NDim=  2057 NE2=    14999177 trying  DSYEV.
 RMSDP=3.06D-08 MaxDP=4.09D-06 DE=-4.76D-09 OVMax= 2.67D-05

 Cycle  17  Pass 1  IDiag  1:
 RMSU=  1.15D-08    CP:  9.91D-01  1.01D+00  9.15D-01  8.00D-01  1.18D+00
                    CP:  1.70D+00  2.02D+00  1.84D+00  1.70D+00  1.69D+00
                    CP:  2.16D+00  2.95D+00  2.64D+00  2.23D+00  1.61D+00
                    CP:  1.29D+00
 E= -3288.26921636696     Delta-E=       -0.000000000635 Rises=F Damp=F
 DIIS: error= 1.99D-07 at cycle  17 NSaved=  17.
 NSaved=17 IEnMin=17 EnMin= -3288.26921636696     IErMin=17 ErrMin= 1.99D-07
 ErrMax= 1.99D-07  0.00D+00 EMaxC= 1.00D-01 BMatC= 1.48D-10 BMatP= 6.98D-10
 IDIUse=1 WtCom= 1.00D+00 WtEn= 0.00D+00
 Coeff-Com:  0.963D-06-0.302D-05-0.664D-05-0.527D-06 0.807D-04 0.417D-03
 Coeff-Com:  0.358D-03-0.971D-03-0.306D-02-0.537D-03 0.156D-01 0.304D-01
 Coeff-Com: -0.322D-01-0.972D-01-0.284D-01 0.318D+00 0.798D+00
 Coeff:      0.963D-06-0.302D-05-0.664D-05-0.527D-06 0.807D-04 0.417D-03
 Coeff:      0.358D-03-0.971D-03-0.306D-02-0.537D-03 0.156D-01 0.304D-01
 Coeff:     -0.322D-01-0.972D-01-0.284D-01 0.318D+00 0.798D+00
 Gap=     0.114 Goal=   None    Shift=    0.000
 Gap=     0.137 Goal=   None    Shift=    0.000
 RMSDP=1.17D-08 MaxDP=2.35D-06 DE=-6.35D-10 OVMax= 7.07D-06

 Cycle  18  Pass 1  IDiag  1:
 RMSU=  5.96D-09    CP:  9.91D-01  1.01D+00  9.15D-01  8.00D-01  1.18D+00
                    CP:  1.70D+00  2.02D+00  1.84D+00  1.70D+00  1.69D+00
                    CP:  2.17D+00  2.95D+00  2.65D+00  2.28D+00  1.70D+00
                    CP:  1.56D+00  1.22D+00
 E= -3288.26921636711     Delta-E=       -0.000000000146 Rises=F Damp=F
 DIIS: error= 1.61D-07 at cycle  18 NSaved=  18.
 NSaved=18 IEnMin=18 EnMin= -3288.26921636711     IErMin=18 ErrMin= 1.61D-07
 ErrMax= 1.61D-07  0.00D+00 EMaxC= 1.00D-01 BMatC= 5.32D-11 BMatP= 1.48D-10
 IDIUse=1 WtCom= 1.00D+00 WtEn= 0.00D+00
 Coeff-Com:  0.106D-05-0.246D-05-0.192D-04-0.423D-04-0.411D-04 0.127D-03
 Coeff-Com:  0.635D-03 0.568D-03-0.187D-02-0.544D-02-0.267D-03 0.241D-01
 Coeff-Com:  0.188D-01-0.433D-01-0.111D+00-0.115D-01 0.437D+00 0.692D+00
 Coeff:      0.106D-05-0.246D-05-0.192D-04-0.423D-04-0.411D-04 0.127D-03
 Coeff:      0.635D-03 0.568D-03-0.187D-02-0.544D-02-0.267D-03 0.241D-01
 Coeff:      0.188D-01-0.433D-01-0.111D+00-0.115D-01 0.437D+00 0.692D+00
 Gap=     0.114 Goal=   None    Shift=    0.000
 Gap=     0.137 Goal=   None    Shift=    0.000
 RMSDP=5.94D-09 MaxDP=1.11D-06 DE=-1.46D-10 OVMax= 3.29D-06

 Cycle  19  Pass 1  IDiag  1:
 RMSU=  2.95D-09    CP:  9.91D-01  1.01D+00  9.15D-01  8.00D-01  1.18D+00
                    CP:  1.70D+00  2.02D+00  1.84D+00  1.70D+00  1.69D+00
                    CP:  2.17D+00  2.95D+00  2.65D+00  2.30D+00  1.75D+00
                    CP:  1.68D+00  1.50D+00  1.22D+00
 E= -3288.26921636651     Delta-E=        0.000000000593 Rises=F Damp=F
 DIIS: error= 6.92D-08 at cycle  19 NSaved=  19.
 NSaved=19 IEnMin=18 EnMin= -3288.26921636711     IErMin=19 ErrMin= 6.92D-08
 ErrMax= 6.92D-08  0.00D+00 EMaxC= 1.00D-01 BMatC= 1.23D-11 BMatP= 5.32D-11
 IDIUse=1 WtCom= 1.00D+00 WtEn= 0.00D+00
 Coeff-Com:  0.155D-06-0.204D-06-0.625D-05-0.167D-04-0.383D-04-0.499D-04
 Coeff-Com:  0.165D-03 0.517D-03 0.171D-04-0.217D-02-0.454D-02 0.272D-02
 Coeff-Com:  0.166D-01 0.727D-02-0.401D-01-0.954D-01-0.246D-01 0.326D+00
 Coeff-Com:  0.813D+00
 Coeff:      0.155D-06-0.204D-06-0.625D-05-0.167D-04-0.383D-04-0.499D-04
 Coeff:      0.165D-03 0.517D-03 0.171D-04-0.217D-02-0.454D-02 0.272D-02
 Coeff:      0.166D-01 0.727D-02-0.401D-01-0.954D-01-0.246D-01 0.326D+00
 Coeff:      0.813D+00
 Gap=     0.114 Goal=   None    Shift=    0.000
 Gap=     0.137 Goal=   None    Shift=    0.000
 RMSDP=3.73D-09 MaxDP=5.92D-07 DE= 5.93D-10 OVMax= 2.33D-06

 Error on total polarization charges =  0.02442
 SCF Done:  E(UM062X) =  -3288.26921637     A.U. after   19 cycles
            NFock= 19  Conv=0.37D-08     -V/T= 2.0044
 <Sx>= 0.0000 <Sy>= 0.0000 <Sz>= 0.5000 <S**2>= 0.8026 S= 0.5259
 <L.S>= 0.000000000000E+00
 KE= 3.273835659893D+03 PE=-2.131696819584D+04 EE= 7.970568770579D+03
 Annihilation of the first spin contaminant:
 S**2 before annihilation     0.8026,   after     0.7521
 Leave Link  502 at Fri Nov 14 05:53:13 2025, MaxMem= 30870077440 cpu:          123477.5 elap:            1953.9
 (Enter /public/software/gauss/g16/l601.exe)
 Copying SCF densities to generalized density rwf, IOpCl= 1 IROHF=0.

 **********************************************************************

            Population analysis using the SCF density.

 **********************************************************************

 Orbital symmetries:
 Alpha Orbitals:
       Occupied  (A) (A) (A) (A) (A) (A) (A) (A) (A) (A) (A) (A)
                 (A) (A) (A) (A) (A) (A) (A) (A) (A) (A) (A) (A)
                 (A) (A) (A) (A) (A) (A) (A) (A) (A) (A) (A) (A)
                 (A) (A) (A) (A) (A) (A) (A) (A) (A) (A) (A) (A)
                 (A) (A) (A) (A) (A) (A) (A) (A) (A) (A) (A) (A)
                 (A) (A) (A) (A) (A) (A) (A) (A) (A) (A) (A) (A)
                 (A) (A) (A) (A) (A) (A) (A) (A) (A) (A) (A) (A)
                 (A) (A) (A) (A) (A) (A) (A) (A) (A) (A) (A) (A)
                 (A) (A) (A) (A) (A) (A) (A) (A) (A) (A) (A) (A)
                 (A) (A) (A) (A) (A) (A) (A) (A) (A) (A) (A) (A)
                 (A) (A) (A) (A) (A) (A) (A) (A) (A) (A) (A) (A)
                 (A) (A) (A) (A) (A) (A) (A) (A) (A) (A) (A) (A)
                 (A) (A) (A) (A) (A) (A) (A) (A) (A) (A) (A) (A)
                 (A) (A) (A) (A) (A) (A) (A) (A) (A) (A) (A) (A)
                 (A) (A) (A) (A) (A) (A) (A) (A) (A) (A) (A) (A)
                 (A) (A) (A) (A) (A) (A) (A) (A) (A) (A) (A) (A)
                 (A) (A) (A) (A) (A) (A)
       Virtual   (A) (A) (A) (A) (A) (A) (A) (A) (A) (A) (A) (A)
                 (A) (A) (A) (A) (A) (A) (A) (A) (A) (A) (A) (A)
                 (A) (A) (A) (A) (A) (A) (A) (A) (A) (A) (A) (A)
                 (A) (A) (A) (A) (A) (A) (A) (A) (A) (A) (A) (A)
                 (A) (A) (A) (A) (A) (A) (A) (A) (A) (A) (A) (A)
                 (A) (A) (A) (A) (A) (A) (A) (A) (A) (A) (A) (A)
                 (A) (A) (A) (A) (A) (A) (A) (A) (A) (A) (A) (A)
                 (A) (A) (A) (A) (A) (A) (A) (A) (A) (A) (A) (A)
                 (A) (A) (A) (A) (A) (A) (A) (A) (A) (A) (A) (A)
                 (A) (A) (A) (A) (A) (A) (A) (A) (A) (A) (A) (A)
                 (A) (A) (A) (A) (A) (A) (A) (A) (A) (A) (A) (A)
                 (A) (A) (A) (A) (A) (A) (A) (A) (A) (A) (A) (A)
                 (A) (A) (A) (A) (A) (A) (A) (A) (A) (A) (A) (A)
                 (A) (A) (A) (A) (A) (A) (A) (A) (A) (A) (A) (A)
                 (A) (A) (A) (A) (A) (A) (A) (A) (A) (A) (A) (A)
                 (A) (A) (A) (A) (A) (A) (A) (A) (A) (A) (A) (A)
                 (A) (A) (A) (A) (A) (A) (A) (A) (A) (A) (A) (A)
                 (A) (A) (A) (A) (A) (A) (A) (A) (A) (A) (A) (A)
                 (A) (A) (A) (A) (A) (A) (A) (A) (A) (A) (A) (A)
                 (A) (A) (A) (A) (A) (A) (A) (A) (A) (A) (A) (A)
                 (A) (A) (A) (A) (A) (A) (A) (A) (A) (A) (A) (A)
                 (A) (A) (A) (A) (A) (A) (A) (A) (A) (A) (A) (A)
                 (A) (A) (A) (A) (A) (A) (A) (A) (A) (A) (A) (A)
                 (A) (A) (A) (A) (A) (A) (A) (A) (A) (A) (A) (A)
                 (A) (A) (A) (A) (A) (A) (A) (A) (A) (A) (A) (A)
                 (A) (A) (A) (A) (A) (A) (A) (A) (A) (A) (A) (A)
                 (A) (A) (A) (A) (A) (A) (A) (A) (A) (A) (A) (A)
                 (A) (A) (A) (A) (A) (A) (A) (A) (A) (A) (A) (A)
                 (A) (A) (A) (A) (A) (A) (A) (A) (A) (A) (A) (A)
                 (A) (A) (A) (A) (A) (A) (A) (A) (A) (A) (A) (A)
                 (A) (A) (A) (A) (A) (A) (A) (A) (A) (A) (A) (A)
                 (A) (A) (A) (A) (A) (A) (A) (A) (A) (A) (A) (A)
                 (A) (A) (A) (A) (A) (A) (A) (A) (A) (A) (A) (A)
                 (A) (A) (A) (A) (A) (A) (A) (A) (A) (A) (A) (A)
                 (A) (A) (A) (A) (A) (A) (A) (A) (A) (A) (A) (A)
                 (A) (A) (A) (A) (A) (A) (A) (A) (A) (A) (A) (A)
                 (A) (A) (A) (A) (A) (A) (A) (A) (A) (A) (A) (A)
                 (A) (A) (A) (A) (A) (A) (A) (A) (A) (A) (A) (A)
                 (A) (A) (A) (A) (A) (A) (A) (A) (A) (A) (A) (A)
                 (A) (A) (A) (A) (A) (A) (A) (A) (A) (A) (A) (A)
                 (A) (A) (A) (A) (A) (A) (A) (A) (A) (A) (A) (A)
                 (A) (A) (A) (A) (A) (A) (A) (A) (A) (A) (A) (A)
                 (A) (A) (A) (A) (A) (A) (A) (A) (A) (A) (A) (A)
                 (A) (A) (A) (A) (A) (A) (A) (A) (A) (A) (A) (A)
                 (A) (A) (A) (A) (A) (A) (A) (A) (A) (A) (A) (A)
                 (A) (A) (A) (A) (A) (A) (A) (A) (A) (A) (A) (A)
                 (A) (A) (A) (A) (A) (A) (A) (A) (A) (A) (A) (A)
                 (A) (A) (A) (A) (A) (A) (A) (A) (A) (A) (A) (A)
                 (A) (A) (A) (A) (A) (A) (A) (A) (A) (A) (A) (A)
                 (A) (A) (A) (A) (A) (A) (A) (A) (A) (A) (A) (A)
                 (A) (A) (A) (A) (A) (A) (A) (A) (A) (A) (A) (A)
                 (A) (A) (A) (A) (A) (A) (A) (A) (A) (A) (A) (A)
                 (A) (A) (A) (A) (A) (A) (A) (A) (A) (A) (A) (A)
                 (A) (A) (A) (A) (A) (A) (A) (A) (A) (A) (A) (A)
                 (A) (A) (A) (A) (A) (A) (A) (A) (A) (A) (A) (A)
                 (A) (A) (A) (A) (A) (A) (A) (A) (A) (A) (A) (A)
                 (A) (A) (A) (A) (A) (A) (A) (A) (A) (A) (A) (A)
                 (A) (A) (A) (A) (A) (A) (A) (A) (A) (A) (A) (A)
                 (A) (A) (A) (A) (A) (A) (A) (A) (A) (A) (A) (A)
                 (A) (A) (A) (A) (A) (A) (A) (A) (A) (A) (A) (A)
                 (A) (A) (A) (A) (A) (A) (A) (A) (A) (A) (A) (A)
                 (A) (A) (A) (A) (A) (A) (A) (A) (A) (A) (A) (A)
                 (A) (A) (A) (A) (A) (A) (A) (A) (A) (A) (A) (A)
                 (A) (A) (A) (A) (A) (A) (A) (A) (A) (A) (A) (A)
                 (A) (A) (A) (A) (A) (A) (A) (A) (A) (A) (A) (A)
                 (A) (A) (A) (A) (A) (A) (A) (A) (A) (A) (A) (A)
                 (A) (A) (A) (A) (A) (A) (A) (A) (A) (A) (A) (A)
                 (A) (A) (A) (A) (A) (A) (A) (A) (A) (A) (A) (A)
                 (A) (A) (A) (A) (A) (A) (A) (A) (A) (A) (A) (A)
                 (A) (A) (A) (A) (A) (A) (A) (A) (A) (A) (A) (A)
                 (A) (A) (A) (A) (A) (A) (A) (A) (A) (A) (A) (A)
                 (A) (A) (A) (A) (A) (A) (A) (A) (A) (A) (A) (A)
                 (A) (A) (A) (A) (A) (A) (A) (A) (A) (A) (A) (A)
                 (A) (A) (A) (A) (A) (A) (A) (A) (A) (A) (A) (A)
                 (A) (A) (A) (A) (A) (A) (A) (A) (A) (A) (A) (A)
                 (A) (A) (A) (A) (A) (A) (A) (A) (A) (A) (A) (A)
                 (A) (A) (A) (A) (A) (A) (A) (A) (A) (A) (A) (A)
                 (A) (A) (A) (A) (A) (A) (A) (A) (A) (A) (A) (A)
                 (A) (A) (A) (A) (A) (A) (A) (A) (A) (A) (A) (A)
                 (A) (A) (A) (A) (A) (A) (A) (A) (A) (A) (A) (A)
                 (A) (A) (A) (A) (A) (A) (A) (A) (A) (A) (A) (A)
                 (A) (A) (A) (A) (A) (A) (A) (A) (A) (A) (A) (A)
                 (A) (A) (A) (A) (A) (A) (A) (A) (A) (A) (A) (A)
                 (A) (A) (A) (A) (A) (A) (A) (A) (A) (A) (A) (A)
                 (A) (A) (A) (A) (A) (A) (A) (A) (A) (A) (A) (A)
                 (A) (A) (A) (A) (A) (A) (A) (A) (A) (A) (A) (A)
                 (A) (A) (A) (A) (A) (A) (A) (A) (A) (A) (A) (A)
                 (A) (A) (A) (A) (A) (A) (A) (A) (A) (A) (A) (A)
                 (A) (A) (A) (A) (A) (A) (A) (A) (A) (A) (A) (A)
                 (A) (A) (A) (A) (A) (A) (A) (A) (A) (A) (A) (A)
                 (A) (A) (A) (A) (A) (A) (A) (A) (A) (A) (A) (A)
                 (A) (A) (A) (A) (A) (A) (A) (A) (A) (A) (A) (A)
                 (A) (A) (A) (A) (A) (A) (A) (A) (A) (A) (A) (A)
                 (A) (A) (A) (A) (A) (A) (A) (A) (A) (A) (A) (A)
                 (A) (A) (A) (A) (A) (A) (A) (A) (A) (A) (A) (A)
                 (A) (A) (A) (A) (A) (A) (A) (A) (A) (A) (A) (A)
                 (A) (A) (A) (A) (A) (A) (A) (A) (A) (A) (A) (A)
                 (A) (A) (A) (A) (A) (A) (A) (A) (A) (A) (A) (A)
                 (A) (A) (A) (A) (A) (A) (A) (A) (A) (A) (A) (A)
                 (A) (A) (A) (A) (A) (A) (A) (A) (A) (A) (A) (A)
                 (A) (A) (A) (A) (A) (A) (A) (A) (A) (A) (A) (A)
                 (A) (A) (A) (A) (A) (A) (A) (A) (A) (A) (A) (A)
                 (A) (A) (A) (A) (A) (A) (A) (A) (A) (A) (A) (A)
                 (A) (A) (A) (A) (A) (A) (A) (A) (A) (A) (A) (A)
                 (A) (A) (A) (A) (A) (A) (A) (A) (A) (A) (A) (A)
                 (A) (A) (A) (A) (A) (A) (A) (A) (A) (A) (A) (A)
                 (A) (A) (A) (A) (A) (A) (A) (A) (A) (A) (A) (A)
                 (A) (A) (A) (A) (A) (A) (A) (A) (A) (A) (A) (A)
                 (A) (A) (A) (A) (A) (A) (A) (A) (A) (A) (A) (A)
                 (A) (A) (A) (A) (A) (A) (A) (A) (A) (A) (A) (A)
                 (A) (A) (A) (A) (A) (A) (A) (A) (A) (A) (A) (A)
                 (A) (A) (A) (A) (A) (A) (A) (A) (A) (A) (A) (A)
                 (A) (A) (A) (A) (A) (A) (A) (A) (A) (A) (A) (A)
                 (A) (A) (A) (A) (A) (A) (A) (A) (A) (A) (A) (A)
                 (A) (A) (A) (A) (A) (A) (A) (A) (A) (A) (A) (A)
                 (A) (A) (A) (A) (A) (A) (A) (A) (A) (A) (A) (A)
                 (A) (A) (A) (A) (A) (A) (A) (A) (A) (A) (A) (A)
                 (A) (A) (A) (A) (A) (A) (A) (A) (A) (A) (A) (A)
                 (A) (A) (A) (A) (A) (A) (A) (A) (A) (A) (A) (A)
                 (A) (A) (A) (A) (A) (A) (A) (A) (A) (A) (A) (A)
                 (A) (A) (A) (A) (A) (A) (A) (A) (A) (A) (A) (A)
                 (A) (A) (A) (A) (A) (A) (A) (A) (A) (A) (A) (A)
                 (A) (A) (A) (A) (A) (A) (A) (A) (A) (A) (A) (A)
                 (A) (A) (A) (A) (A) (A) (A) (A) (A) (A) (A) (A)
                 (A) (A) (A) (A) (A) (A) (A) (A) (A) (A) (A) (A)
                 (A) (A) (A) (A) (A) (A) (A) (A) (A) (A) (A) (A)
                 (A) (A) (A) (A) (A) (A) (A) (A) (A) (A) (A) (A)
                 (A) (A) (A) (A) (A) (A) (A) (A) (A) (A) (A) (A)
                 (A) (A) (A) (A) (A) (A) (A) (A) (A) (A) (A) (A)
                 (A) (A) (A) (A) (A) (A) (A) (A) (A) (A) (A) (A)
                 (A) (A) (A) (A) (A) (A) (A) (A) (A) (A) (A) (A)
                 (A) (A) (A) (A) (A) (A) (A) (A) (A) (A) (A) (A)
                 (A) (A) (A) (A) (A) (A) (A) (A) (A) (A) (A) (A)
                 (A) (A) (A) (A) (A) (A) (A) (A) (A) (A) (A) (A)
                 (A) (A) (A) (A) (A) (A) (A) (A) (A) (A) (A) (A)
                 (A) (A) (A) (A) (A) (A) (A) (A) (A) (A) (A) (A)
                 (A) (A) (A) (A) (A) (A) (A) (A) (A) (A) (A) (A)
                 (A) (A) (A) (A) (A) (A) (A) (A) (A) (A) (A) (A)
                 (A) (A) (A) (A) (A) (A) (A) (A) (A) (A) (A) (A)
                 (A) (A) (A) (A) (A) (A) (A) (A) (A) (A) (A) (A)
                 (A) (A) (A) (A) (A) (A) (A) (A) (A) (A) (A) (A)
                 (A) (A) (A) (A) (A) (A) (A) (A) (A) (A) (A) (A)
                 (A) (A) (A) (A) (A) (A) (A) (A) (A) (A) (A) (A)
                 (A) (A) (A) (A) (A) (A) (A) (A) (A) (A) (A) (A)
                 (A) (A) (A) (A) (A) (A) (A) (A) (A) (A) (A) (A)
                 (A) (A) (A) (A) (A) (A) (A) (A) (A) (A) (A) (A)
                 (A) (A) (A) (A) (A) (A) (A) (A) (A) (A) (A) (A)
                 (A) (A) (A) (A) (A) (A) (A) (A) (A) (A) (A) (A)
                 (A) (A) (A) (A) (A) (A) (A) (A) (A) (A) (A) (A)
                 (A) (A) (A) (A) (A) (A) (A) (A) (A) (A) (A) (A)
                 (A) (A) (A) (A) (A) (A) (A) (A) (A) (A) (A) (A)
                 (A) (A) (A) (A) (A) (A) (A) (A) (A) (A) (A) (A)
                 (A) (A) (A) (A) (A) (A) (A) (A) (A) (A) (A) (A)
                 (A) (A) (A) (A) (A) (A) (A) (A) (A) (A) (A) (A)
                 (A) (A) (A) (A) (A) (A) (A) (A) (A) (A) (A)
 Beta  Orbitals:
       Occupied  (A) (A) (A) (A) (A) (A) (A) (A) (A) (A) (A) (A)
                 (A) (A) (A) (A) (A) (A) (A) (A) (A) (A) (A) (A)
                 (A) (A) (A) (A) (A) (A) (A) (A) (A) (A) (A) (A)
                 (A) (A) (A) (A) (A) (A) (A) (A) (A) (A) (A) (A)
                 (A) (A) (A) (A) (A) (A) (A) (A) (A) (A) (A) (A)
                 (A) (A) (A) (A) (A) (A) (A) (A) (A) (A) (A) (A)
                 (A) (A) (A) (A) (A) (A) (A) (A) (A) (A) (A) (A)
                 (A) (A) (A) (A) (A) (A) (A) (A) (A) (A) (A) (A)
                 (A) (A) (A) (A) (A) (A) (A) (A) (A) (A) (A) (A)
                 (A) (A) (A) (A) (A) (A) (A) (A) (A) (A) (A) (A)
                 (A) (A) (A) (A) (A) (A) (A) (A) (A) (A) (A) (A)
                 (A) (A) (A) (A) (A) (A) (A) (A) (A) (A) (A) (A)
                 (A) (A) (A) (A) (A) (A) (A) (A) (A) (A) (A) (A)
                 (A) (A) (A) (A) (A) (A) (A) (A) (A) (A) (A) (A)
                 (A) (A) (A) (A) (A) (A) (A) (A) (A) (A) (A) (A)
                 (A) (A) (A) (A) (A) (A) (A) (A) (A) (A) (A) (A)
                 (A) (A) (A) (A) (A)
       Virtual   (A) (A) (A) (A) (A) (A) (A) (A) (A) (A) (A) (A)
                 (A) (A) (A) (A) (A) (A) (A) (A) (A) (A) (A) (A)
                 (A) (A) (A) (A) (A) (A) (A) (A) (A) (A) (A) (A)
                 (A) (A) (A) (A) (A) (A) (A) (A) (A) (A) (A) (A)
                 (A) (A) (A) (A) (A) (A) (A) (A) (A) (A) (A) (A)
                 (A) (A) (A) (A) (A) (A) (A) (A) (A) (A) (A) (A)
                 (A) (A) (A) (A) (A) (A) (A) (A) (A) (A) (A) (A)
                 (A) (A) (A) (A) (A) (A) (A) (A) (A) (A) (A) (A)
                 (A) (A) (A) (A) (A) (A) (A) (A) (A) (A) (A) (A)
                 (A) (A) (A) (A) (A) (A) (A) (A) (A) (A) (A) (A)
                 (A) (A) (A) (A) (A) (A) (A) (A) (A) (A) (A) (A)
                 (A) (A) (A) (A) (A) (A) (A) (A) (A) (A) (A) (A)
                 (A) (A) (A) (A) (A) (A) (A) (A) (A) (A) (A) (A)
                 (A) (A) (A) (A) (A) (A) (A) (A) (A) (A) (A) (A)
                 (A) (A) (A) (A) (A) (A) (A) (A) (A) (A) (A) (A)
                 (A) (A) (A) (A) (A) (A) (A) (A) (A) (A) (A) (A)
                 (A) (A) (A) (A) (A) (A) (A) (A) (A) (A) (A) (A)
                 (A) (A) (A) (A) (A) (A) (A) (A) (A) (A) (A) (A)
                 (A) (A) (A) (A) (A) (A) (A) (A) (A) (A) (A) (A)
                 (A) (A) (A) (A) (A) (A) (A) (A) (A) (A) (A) (A)
                 (A) (A) (A) (A) (A) (A) (A) (A) (A) (A) (A) (A)
                 (A) (A) (A) (A) (A) (A) (A) (A) (A) (A) (A) (A)
                 (A) (A) (A) (A) (A) (A) (A) (A) (A) (A) (A) (A)
                 (A) (A) (A) (A) (A) (A) (A) (A) (A) (A) (A) (A)
                 (A) (A) (A) (A) (A) (A) (A) (A) (A) (A) (A) (A)
                 (A) (A) (A) (A) (A) (A) (A) (A) (A) (A) (A) (A)
                 (A) (A) (A) (A) (A) (A) (A) (A) (A) (A) (A) (A)
                 (A) (A) (A) (A) (A) (A) (A) (A) (A) (A) (A) (A)
                 (A) (A) (A) (A) (A) (A) (A) (A) (A) (A) (A) (A)
                 (A) (A) (A) (A) (A) (A) (A) (A) (A) (A) (A) (A)
                 (A) (A) (A) (A) (A) (A) (A) (A) (A) (A) (A) (A)
                 (A) (A) (A) (A) (A) (A) (A) (A) (A) (A) (A) (A)
                 (A) (A) (A) (A) (A) (A) (A) (A) (A) (A) (A) (A)
                 (A) (A) (A) (A) (A) (A) (A) (A) (A) (A) (A) (A)
                 (A) (A) (A) (A) (A) (A) (A) (A) (A) (A) (A) (A)
                 (A) (A) (A) (A) (A) (A) (A) (A) (A) (A) (A) (A)
                 (A) (A) (A) (A) (A) (A) (A) (A) (A) (A) (A) (A)
                 (A) (A) (A) (A) (A) (A) (A) (A) (A) (A) (A) (A)
                 (A) (A) (A) (A) (A) (A) (A) (A) (A) (A) (A) (A)
                 (A) (A) (A) (A) (A) (A) (A) (A) (A) (A) (A) (A)
                 (A) (A) (A) (A) (A) (A) (A) (A) (A) (A) (A) (A)
                 (A) (A) (A) (A) (A) (A) (A) (A) (A) (A) (A) (A)
                 (A) (A) (A) (A) (A) (A) (A) (A) (A) (A) (A) (A)
                 (A) (A) (A) (A) (A) (A) (A) (A) (A) (A) (A) (A)
                 (A) (A) (A) (A) (A) (A) (A) (A) (A) (A) (A) (A)
                 (A) (A) (A) (A) (A) (A) (A) (A) (A) (A) (A) (A)
                 (A) (A) (A) (A) (A) (A) (A) (A) (A) (A) (A) (A)
                 (A) (A) (A) (A) (A) (A) (A) (A) (A) (A) (A) (A)
                 (A) (A) (A) (A) (A) (A) (A) (A) (A) (A) (A) (A)
                 (A) (A) (A) (A) (A) (A) (A) (A) (A) (A) (A) (A)
                 (A) (A) (A) (A) (A) (A) (A) (A) (A) (A) (A) (A)
                 (A) (A) (A) (A) (A) (A) (A) (A) (A) (A) (A) (A)
                 (A) (A) (A) (A) (A) (A) (A) (A) (A) (A) (A) (A)
                 (A) (A) (A) (A) (A) (A) (A) (A) (A) (A) (A) (A)
                 (A) (A) (A) (A) (A) (A) (A) (A) (A) (A) (A) (A)
                 (A) (A) (A) (A) (A) (A) (A) (A) (A) (A) (A) (A)
                 (A) (A) (A) (A) (A) (A) (A) (A) (A) (A) (A) (A)
                 (A) (A) (A) (A) (A) (A) (A) (A) (A) (A) (A) (A)
                 (A) (A) (A) (A) (A) (A) (A) (A) (A) (A) (A) (A)
                 (A) (A) (A) (A) (A) (A) (A) (A) (A) (A) (A) (A)
                 (A) (A) (A) (A) (A) (A) (A) (A) (A) (A) (A) (A)
                 (A) (A) (A) (A) (A) (A) (A) (A) (A) (A) (A) (A)
                 (A) (A) (A) (A) (A) (A) (A) (A) (A) (A) (A) (A)
                 (A) (A) (A) (A) (A) (A) (A) (A) (A) (A) (A) (A)
                 (A) (A) (A) (A) (A) (A) (A) (A) (A) (A) (A) (A)
                 (A) (A) (A) (A) (A) (A) (A) (A) (A) (A) (A) (A)
                 (A) (A) (A) (A) (A) (A) (A) (A) (A) (A) (A) (A)
                 (A) (A) (A) (A) (A) (A) (A) (A) (A) (A) (A) (A)
                 (A) (A) (A) (A) (A) (A) (A) (A) (A) (A) (A) (A)
                 (A) (A) (A) (A) (A) (A) (A) (A) (A) (A) (A) (A)
                 (A) (A) (A) (A) (A) (A) (A) (A) (A) (A) (A) (A)
                 (A) (A) (A) (A) (A) (A) (A) (A) (A) (A) (A) (A)
                 (A) (A) (A) (A) (A) (A) (A) (A) (A) (A) (A) (A)
                 (A) (A) (A) (A) (A) (A) (A) (A) (A) (A) (A) (A)
                 (A) (A) (A) (A) (A) (A) (A) (A) (A) (A) (A) (A)
                 (A) (A) (A) (A) (A) (A) (A) (A) (A) (A) (A) (A)
                 (A) (A) (A) (A) (A) (A) (A) (A) (A) (A) (A) (A)
                 (A) (A) (A) (A) (A) (A) (A) (A) (A) (A) (A) (A)
                 (A) (A) (A) (A) (A) (A) (A) (A) (A) (A) (A) (A)
                 (A) (A) (A) (A) (A) (A) (A) (A) (A) (A) (A) (A)
                 (A) (A) (A) (A) (A) (A) (A) (A) (A) (A) (A) (A)
                 (A) (A) (A) (A) (A) (A) (A) (A) (A) (A) (A) (A)
                 (A) (A) (A) (A) (A) (A) (A) (A) (A) (A) (A) (A)
                 (A) (A) (A) (A) (A) (A) (A) (A) (A) (A) (A) (A)
                 (A) (A) (A) (A) (A) (A) (A) (A) (A) (A) (A) (A)
                 (A) (A) (A) (A) (A) (A) (A) (A) (A) (A) (A) (A)
                 (A) (A) (A) (A) (A) (A) (A) (A) (A) (A) (A) (A)
                 (A) (A) (A) (A) (A) (A) (A) (A) (A) (A) (A) (A)
                 (A) (A) (A) (A) (A) (A) (A) (A) (A) (A) (A) (A)
                 (A) (A) (A) (A) (A) (A) (A) (A) (A) (A) (A) (A)
                 (A) (A) (A) (A) (A) (A) (A) (A) (A) (A) (A) (A)
                 (A) (A) (A) (A) (A) (A) (A) (A) (A) (A) (A) (A)
                 (A) (A) (A) (A) (A) (A) (A) (A) (A) (A) (A) (A)
                 (A) (A) (A) (A) (A) (A) (A) (A) (A) (A) (A) (A)
                 (A) (A) (A) (A) (A) (A) (A) (A) (A) (A) (A) (A)
                 (A) (A) (A) (A) (A) (A) (A) (A) (A) (A) (A) (A)
                 (A) (A) (A) (A) (A) (A) (A) (A) (A) (A) (A) (A)
                 (A) (A) (A) (A) (A) (A) (A) (A) (A) (A) (A) (A)
                 (A) (A) (A) (A) (A) (A) (A) (A) (A) (A) (A) (A)
                 (A) (A) (A) (A) (A) (A) (A) (A) (A) (A) (A) (A)
                 (A) (A) (A) (A) (A) (A) (A) (A) (A) (A) (A) (A)
                 (A) (A) (A) (A) (A) (A) (A) (A) (A) (A) (A) (A)
                 (A) (A) (A) (A) (A) (A) (A) (A) (A) (A) (A) (A)
                 (A) (A) (A) (A) (A) (A) (A) (A) (A) (A) (A) (A)
                 (A) (A) (A) (A) (A) (A) (A) (A) (A) (A) (A) (A)
                 (A) (A) (A) (A) (A) (A) (A) (A) (A) (A) (A) (A)
                 (A) (A) (A) (A) (A) (A) (A) (A) (A) (A) (A) (A)
                 (A) (A) (A) (A) (A) (A) (A) (A) (A) (A) (A) (A)
                 (A) (A) (A) (A) (A) (A) (A) (A) (A) (A) (A) (A)
                 (A) (A) (A) (A) (A) (A) (A) (A) (A) (A) (A) (A)
                 (A) (A) (A) (A) (A) (A) (A) (A) (A) (A) (A) (A)
                 (A) (A) (A) (A) (A) (A) (A) (A) (A) (A) (A) (A)
                 (A) (A) (A) (A) (A) (A) (A) (A) (A) (A) (A) (A)
                 (A) (A) (A) (A) (A) (A) (A) (A) (A) (A) (A) (A)
                 (A) (A) (A) (A) (A) (A) (A) (A) (A) (A) (A) (A)
                 (A) (A) (A) (A) (A) (A) (A) (A) (A) (A) (A) (A)
                 (A) (A) (A) (A) (A) (A) (A) (A) (A) (A) (A) (A)
                 (A) (A) (A) (A) (A) (A) (A) (A) (A) (A) (A) (A)
                 (A) (A) (A) (A) (A) (A) (A) (A) (A) (A) (A) (A)
                 (A) (A) (A) (A) (A) (A) (A) (A) (A) (A) (A) (A)
                 (A) (A) (A) (A) (A) (A) (A) (A) (A) (A) (A) (A)
                 (A) (A) (A) (A) (A) (A) (A) (A) (A) (A) (A) (A)
                 (A) (A) (A) (A) (A) (A) (A) (A) (A) (A) (A) (A)
                 (A) (A) (A) (A) (A) (A) (A) (A) (A) (A) (A) (A)
                 (A) (A) (A) (A) (A) (A) (A) (A) (A) (A) (A) (A)
                 (A) (A) (A) (A) (A) (A) (A) (A) (A) (A) (A) (A)
                 (A) (A) (A) (A) (A) (A) (A) (A) (A) (A) (A) (A)
                 (A) (A) (A) (A) (A) (A) (A) (A) (A) (A) (A) (A)
                 (A) (A) (A) (A) (A) (A) (A) (A) (A) (A) (A) (A)
                 (A) (A) (A) (A) (A) (A) (A) (A) (A) (A) (A) (A)
                 (A) (A) (A) (A) (A) (A) (A) (A) (A) (A) (A) (A)
                 (A) (A) (A) (A) (A) (A) (A) (A) (A) (A) (A) (A)
                 (A) (A) (A) (A) (A) (A) (A) (A) (A) (A) (A) (A)
                 (A) (A) (A) (A) (A) (A) (A) (A) (A) (A) (A) (A)
                 (A) (A) (A) (A) (A) (A) (A) (A) (A) (A) (A) (A)
                 (A) (A) (A) (A) (A) (A) (A) (A) (A) (A) (A) (A)
                 (A) (A) (A) (A) (A) (A) (A) (A) (A) (A) (A) (A)
                 (A) (A) (A) (A) (A) (A) (A) (A) (A) (A) (A) (A)
                 (A) (A) (A) (A) (A) (A) (A) (A) (A) (A) (A) (A)
                 (A) (A) (A) (A) (A) (A) (A) (A) (A) (A) (A) (A)
                 (A) (A) (A) (A) (A) (A) (A) (A) (A) (A) (A) (A)
                 (A) (A) (A) (A) (A) (A) (A) (A) (A) (A) (A) (A)
                 (A) (A) (A) (A) (A) (A) (A) (A) (A) (A) (A) (A)
                 (A) (A) (A) (A) (A) (A) (A) (A) (A) (A) (A) (A)
                 (A) (A) (A) (A) (A) (A) (A) (A) (A) (A) (A) (A)
                 (A) (A) (A) (A) (A) (A) (A) (A) (A) (A) (A) (A)
                 (A) (A) (A) (A) (A) (A) (A) (A) (A) (A) (A) (A)
                 (A) (A) (A) (A) (A) (A) (A) (A) (A) (A) (A) (A)
                 (A) (A) (A) (A) (A) (A) (A) (A) (A) (A) (A) (A)
                 (A) (A) (A) (A) (A) (A) (A) (A) (A) (A) (A) (A)
                 (A) (A) (A) (A) (A) (A) (A) (A) (A) (A) (A) (A)
                 (A) (A) (A) (A) (A) (A) (A) (A) (A) (A) (A) (A)
                 (A) (A) (A) (A) (A) (A) (A) (A) (A) (A) (A) (A)
                 (A) (A) (A) (A) (A) (A) (A) (A) (A) (A) (A) (A)
                 (A) (A) (A) (A) (A) (A) (A) (A) (A) (A) (A) (A)
 The electronic state is 2-A.
 Alpha  occ. eigenvalues --  -90.14093 -90.14086 -25.19688 -25.19416 -19.69324
 Alpha  occ. eigenvalues --  -19.69309 -19.68737 -19.67710 -19.67707 -19.64434
 Alpha  occ. eigenvalues --  -19.64423 -19.64273 -19.64247 -19.63082 -15.01198
 Alpha  occ. eigenvalues --  -14.76707 -14.76600 -10.69116 -10.61586 -10.61527
 Alpha  occ. eigenvalues --  -10.59090 -10.59075 -10.58542 -10.58228 -10.58185
 Alpha  occ. eigenvalues --  -10.57764 -10.57735 -10.57653 -10.57646 -10.57627
 Alpha  occ. eigenvalues --  -10.57626 -10.57258 -10.57253 -10.57248 -10.57237
 Alpha  occ. eigenvalues --  -10.56901 -10.56740 -10.56605 -10.56036 -10.56033
 Alpha  occ. eigenvalues --  -10.55938 -10.55922 -10.55642 -10.55614 -10.54893
 Alpha  occ. eigenvalues --  -10.54881 -10.54878 -10.54860 -10.53536 -10.53287
 Alpha  occ. eigenvalues --  -10.53270 -10.53223  -8.46542  -8.46535  -7.11861
 Alpha  occ. eigenvalues --   -6.38812  -6.38804  -6.38593  -6.38589  -6.38587
 Alpha  occ. eigenvalues --   -6.38580  -1.36676  -1.31376  -1.28107  -1.27237
 Alpha  occ. eigenvalues --   -1.27236  -1.24505  -1.18172  -1.16653  -1.16640
 Alpha  occ. eigenvalues --   -1.15026  -1.13931  -1.13925  -1.08831  -1.06839
 Alpha  occ. eigenvalues --   -1.00485  -0.98916  -0.98905  -0.93664  -0.92734
 Alpha  occ. eigenvalues --   -0.92032  -0.90850  -0.89834  -0.88990  -0.87388
 Alpha  occ. eigenvalues --   -0.87241  -0.86808  -0.86600  -0.86540  -0.84876
 Alpha  occ. eigenvalues --   -0.81374  -0.80772  -0.79013  -0.78843  -0.77711
 Alpha  occ. eigenvalues --   -0.76580  -0.74615  -0.72767  -0.72233  -0.71680
 Alpha  occ. eigenvalues --   -0.71188  -0.70719  -0.68840  -0.68799  -0.67610
 Alpha  occ. eigenvalues --   -0.67194  -0.65825  -0.65556  -0.65198  -0.65140
 Alpha  occ. eigenvalues --   -0.64310  -0.63718  -0.63189  -0.61788  -0.61638
 Alpha  occ. eigenvalues --   -0.60993  -0.60852  -0.60365  -0.60188  -0.58744
 Alpha  occ. eigenvalues --   -0.58438  -0.58238  -0.57858  -0.57592  -0.57495
 Alpha  occ. eigenvalues --   -0.57068  -0.56307  -0.55738  -0.54696  -0.54626
 Alpha  occ. eigenvalues --   -0.54075  -0.53760  -0.53283  -0.53106  -0.52903
 Alpha  occ. eigenvalues --   -0.52447  -0.52151  -0.51989  -0.51587  -0.51349
 Alpha  occ. eigenvalues --   -0.51139  -0.50856  -0.50848  -0.50557  -0.49992
 Alpha  occ. eigenvalues --   -0.49042  -0.48939  -0.48384  -0.48097  -0.47947
 Alpha  occ. eigenvalues --   -0.47626  -0.47367  -0.47175  -0.47061  -0.46810
 Alpha  occ. eigenvalues --   -0.46498  -0.46127  -0.46011  -0.45788  -0.45613
 Alpha  occ. eigenvalues --   -0.45354  -0.44755  -0.44545  -0.44158  -0.44077
 Alpha  occ. eigenvalues --   -0.43990  -0.43416  -0.43064  -0.42755  -0.42483
 Alpha  occ. eigenvalues --   -0.42100  -0.41903  -0.41894  -0.41103  -0.40965
 Alpha  occ. eigenvalues --   -0.40911  -0.40628  -0.40459  -0.40207  -0.40118
 Alpha  occ. eigenvalues --   -0.39850  -0.39565  -0.39523  -0.39408  -0.38935
 Alpha  occ. eigenvalues --   -0.38550  -0.37742  -0.35629  -0.33645  -0.33290
 Alpha  occ. eigenvalues --   -0.33286  -0.33204  -0.32220  -0.31173  -0.30098
 Alpha  occ. eigenvalues --   -0.29311  -0.23812  -0.18549
 Alpha virt. eigenvalues --   -0.07156  -0.05471  -0.04176  -0.00467   0.00044
 Alpha virt. eigenvalues --    0.00057   0.02357   0.02402   0.02775   0.03524
 Alpha virt. eigenvalues --    0.05580   0.05655   0.05859   0.06776   0.07435
 Alpha virt. eigenvalues --    0.08166   0.08692   0.08762   0.08964   0.09206
 Alpha virt. eigenvalues --    0.09532   0.09796   0.10323   0.10494   0.10725
 Alpha virt. eigenvalues --    0.11131   0.11370   0.11689   0.11721   0.11776
 Alpha virt. eigenvalues --    0.12149   0.12283   0.12520   0.12911   0.13207
 Alpha virt. eigenvalues --    0.13362   0.13469   0.13839   0.14000   0.14262
 Alpha virt. eigenvalues --    0.14398   0.14539   0.14872   0.15043   0.15241
 Alpha virt. eigenvalues --    0.15461   0.15875   0.15971   0.16200   0.16512
 Alpha virt. eigenvalues --    0.16865   0.17392   0.17642   0.17755   0.18178
 Alpha virt. eigenvalues --    0.18280   0.18460   0.19040   0.19316   0.19402
 Alpha virt. eigenvalues --    0.20142   0.20449   0.20715   0.20814   0.20845
 Alpha virt. eigenvalues --    0.21171   0.21220   0.21368   0.21604   0.22012
 Alpha virt. eigenvalues --    0.22096   0.22368   0.22552   0.22956   0.23028
 Alpha virt. eigenvalues --    0.23236   0.23497   0.23668   0.23895   0.24210
 Alpha virt. eigenvalues --    0.24577   0.24586   0.24937   0.25044   0.25285
 Alpha virt. eigenvalues --    0.25511   0.25804   0.26218   0.26495   0.26741
 Alpha virt. eigenvalues --    0.26751   0.26917   0.27074   0.27108   0.27313
 Alpha virt. eigenvalues --    0.27669   0.27851   0.28004   0.28412   0.28487
 Alpha virt. eigenvalues --    0.28787   0.28849   0.29032   0.29358   0.29435
 Alpha virt. eigenvalues --    0.29640   0.29948   0.30226   0.30368   0.30672
 Alpha virt. eigenvalues --    0.30740   0.31282   0.31338   0.31508   0.31885
 Alpha virt. eigenvalues --    0.32081   0.32280   0.32529   0.32829   0.33253
 Alpha virt. eigenvalues --    0.33723   0.34045   0.34122   0.34328   0.34466
 Alpha virt. eigenvalues --    0.34701   0.34907   0.34967   0.35062   0.35206
 Alpha virt. eigenvalues --    0.35383   0.35432   0.35597   0.35822   0.36105
 Alpha virt. eigenvalues --    0.36171   0.36288   0.36519   0.36758   0.36778
 Alpha virt. eigenvalues --    0.37074   0.37216   0.37528   0.37775   0.37998
 Alpha virt. eigenvalues --    0.38256   0.38451   0.38540   0.38848   0.39071
 Alpha virt. eigenvalues --    0.39167   0.39513   0.39711   0.39836   0.40028
 Alpha virt. eigenvalues --    0.40123   0.40291   0.40355   0.40562   0.40768
 Alpha virt. eigenvalues --    0.40977   0.41375   0.41519   0.41872   0.41981
 Alpha virt. eigenvalues --    0.42104   0.42192   0.42539   0.42862   0.43000
 Alpha virt. eigenvalues --    0.43097   0.43286   0.43593   0.43642   0.43755
 Alpha virt. eigenvalues --    0.44090   0.44268   0.44349   0.44490   0.44866
 Alpha virt. eigenvalues --    0.44930   0.45113   0.45254   0.45592   0.45664
 Alpha virt. eigenvalues --    0.45939   0.46113   0.46388   0.46598   0.46679
 Alpha virt. eigenvalues --    0.46859   0.47017   0.47234   0.47520   0.47626
 Alpha virt. eigenvalues --    0.47991   0.48010   0.48210   0.48604   0.48840
 Alpha virt. eigenvalues --    0.49252   0.49451   0.49479   0.50098   0.50228
 Alpha virt. eigenvalues --    0.50540   0.50735   0.51145   0.51427   0.51518
 Alpha virt. eigenvalues --    0.51759   0.52035   0.52387   0.52486   0.52689
 Alpha virt. eigenvalues --    0.52803   0.52995   0.53217   0.53595   0.53685
 Alpha virt. eigenvalues --    0.53796   0.54174   0.54429   0.54536   0.54631
 Alpha virt. eigenvalues --    0.54753   0.54971   0.55206   0.55359   0.55470
 Alpha virt. eigenvalues --    0.55585   0.55814   0.56152   0.56313   0.56576
 Alpha virt. eigenvalues --    0.56671   0.57045   0.57207   0.57494   0.57838
 Alpha virt. eigenvalues --    0.58387   0.58437   0.58800   0.59105   0.59613
 Alpha virt. eigenvalues --    0.59738   0.59950   0.60016   0.60398   0.60863
 Alpha virt. eigenvalues --    0.61097   0.61214   0.61350   0.61488   0.61863
 Alpha virt. eigenvalues --    0.62077   0.62380   0.62536   0.62688   0.62921
 Alpha virt. eigenvalues --    0.62954   0.63349   0.63644   0.63828   0.63881
 Alpha virt. eigenvalues --    0.64350   0.64556   0.64707   0.65158   0.65280
 Alpha virt. eigenvalues --    0.65626   0.65757   0.65911   0.66137   0.66267
 Alpha virt. eigenvalues --    0.66580   0.66874   0.67053   0.67419   0.67626
 Alpha virt. eigenvalues --    0.67777   0.68091   0.68280   0.68448   0.68830
 Alpha virt. eigenvalues --    0.69001   0.69234   0.69308   0.69468   0.69674
[...]
              Bcc     0.0003     0.011     0.004     0.004  0.8429 -0.1544 -0.5154
 
              Baa    -0.0001     0.011     0.004     0.004  0.6074 -0.0956  0.7886
    18 O(17)  Bbb    -0.0001     0.007     0.002     0.002  0.1787  0.9837 -0.0184
              Bcc     0.0002    -0.017    -0.006    -0.006  0.7740 -0.1521 -0.6146
 
              Baa    -0.0001     0.010     0.003     0.003  0.4642  0.3037  0.8320
    19 O(17)  Bbb    -0.0001     0.005     0.002     0.002 -0.0384  0.9454 -0.3237
              Bcc     0.0002    -0.014    -0.005    -0.005  0.8849 -0.1183 -0.4505
 
              Baa    -0.0942   -12.646    -4.512    -4.218 -0.2988  0.0391  0.9535
    20 C(13)  Bbb     0.0413     5.548     1.980     1.851  0.8651 -0.4107  0.2880
              Bcc     0.0529     7.098     2.533     2.368  0.4029  0.9109  0.0888
 
              Baa    -0.0460    -1.776    -0.634    -0.592 -0.1488  0.9855 -0.0813
    21 N(14)  Bbb    -0.0358    -1.382    -0.493    -0.461  0.9136  0.1684  0.3702
              Bcc     0.0819     3.158     1.127     1.053 -0.3785  0.0192  0.9254
 
              Baa    -0.0930   -12.481    -4.454    -4.163 -0.5874  0.7791 -0.2191
    22 C(13)  Bbb    -0.0903   -12.115    -4.323    -4.041  0.7551  0.6250  0.1980
              Bcc     0.1833    24.596     8.777     8.204 -0.2912  0.0491  0.9554
 
              Baa    -0.0640    -8.583    -3.063    -2.863 -0.3256  0.0787  0.9422
    23 C(13)  Bbb     0.0309     4.147     1.480     1.383 -0.3380  0.9210 -0.1938
              Bcc     0.0331     4.436     1.583     1.480  0.8830  0.3816  0.2733
 
              Baa    -0.0748   -10.035    -3.581    -3.347  0.8628  0.4378  0.2528
    24 C(13)  Bbb    -0.0731    -9.810    -3.500    -3.272 -0.3839  0.8927 -0.2359
              Bcc     0.1479    19.845     7.081     6.620 -0.3290  0.1065  0.9383
 
              Baa    -0.0016    -0.211    -0.075    -0.070  0.3714  0.7137  0.5939
    25 C(13)  Bbb    -0.0005    -0.062    -0.022    -0.021 -0.5983 -0.3052  0.7409
              Bcc     0.0020     0.273     0.098     0.091  0.7100 -0.6305  0.3137
 
              Baa    -0.0672    -9.021    -3.219    -3.009 -0.2475 -0.0269  0.9685
    26 C(13)  Bbb     0.0281     3.766     1.344     1.256  0.7348 -0.6567  0.1696
              Bcc     0.0392     5.256     1.875     1.753  0.6315  0.7537  0.1823
 
              Baa    -0.0811   -10.883    -3.883    -3.630 -0.1202  0.9926  0.0147
    27 C(13)  Bbb    -0.0757   -10.162    -3.626    -3.390  0.9653  0.1134  0.2354
              Bcc     0.1568    21.046     7.510     7.020 -0.2320 -0.0425  0.9718
 
              Baa    -0.0229    -3.071    -1.096    -1.024 -0.2324 -0.0554  0.9710
    28 C(13)  Bbb     0.0083     1.115     0.398     0.372 -0.4173  0.9075 -0.0481
              Bcc     0.0146     1.956     0.698     0.652  0.8786  0.4164  0.2340
 
              Baa    -0.0210    -2.822    -1.007    -0.941 -0.5965  0.7974 -0.0913
    29 C(13)  Bbb    -0.0183    -2.462    -0.878    -0.821  0.7722  0.6012  0.2055
              Bcc     0.0394     5.284     1.885     1.763 -0.2188 -0.0521  0.9744
 
              Baa    -0.0127    -1.707    -0.609    -0.569 -0.2171 -0.0444  0.9751
    30 C(13)  Bbb     0.0050     0.676     0.241     0.225 -0.4348  0.8988 -0.0558
              Bcc     0.0077     1.032     0.368     0.344  0.8740  0.4361  0.2144
 
              Baa    -0.0271    -3.630    -1.295    -1.211 -0.5574  0.8264 -0.0802
    31 C(13)  Bbb    -0.0236    -3.161    -1.128    -1.054  0.8094  0.5623  0.1693
              Bcc     0.0506     6.791     2.423     2.265 -0.1850 -0.0295  0.9823
 
              Baa    -0.0064    -0.263    -0.094    -0.088  0.8282  0.5424  0.1411
    32 S(33)  Bbb     0.0005     0.023     0.008     0.008 -0.5378  0.8400 -0.0723
              Bcc     0.0059     0.240     0.086     0.080 -0.1578 -0.0160  0.9873
 
              Baa    -0.0044     0.322     0.115     0.107  0.4147  0.4741  0.7767
    33 O(17)  Bbb    -0.0031     0.228     0.081     0.076 -0.1891  0.8798 -0.4361
              Bcc     0.0076    -0.549    -0.196    -0.183  0.8901 -0.0340 -0.4545
 
              Baa    -0.0045     0.326     0.116     0.109  0.5528  0.5325  0.6410
    34 O(17)  Bbb    -0.0027     0.198     0.071     0.066  0.7767 -0.6079 -0.1648
              Bcc     0.0072    -0.524    -0.187    -0.175 -0.3019 -0.5890  0.7496
 
              Baa    -0.0079     0.571     0.204     0.191 -0.1332  0.5318  0.8363
    35 O(17)  Bbb    -0.0069     0.496     0.177     0.165 -0.4788  0.7043 -0.5241
              Bcc     0.0147    -1.067    -0.381    -0.356  0.8677  0.4703 -0.1608
 
              Baa    -0.0143    -1.924    -0.687    -0.642 -0.2075 -0.0462  0.9772
    36 C(13)  Bbb     0.0059     0.790     0.282     0.264  0.7046 -0.6999  0.1165
              Bcc     0.0085     1.134     0.405     0.378  0.6786  0.7127  0.1777
 
              Baa    -0.0201    -2.698    -0.963    -0.900 -0.6136  0.7836 -0.0974
    37 C(13)  Bbb    -0.0185    -2.481    -0.885    -0.828  0.7613  0.6198  0.1904
              Bcc     0.0386     5.179     1.848     1.727 -0.2095 -0.0427  0.9769
 
              Baa    -0.0013    -0.174    -0.062    -0.058  0.8943 -0.4046 -0.1909
    38 C(13)  Bbb    -0.0006    -0.078    -0.028    -0.026  0.1826 -0.0595  0.9814
              Bcc     0.0019     0.251     0.090     0.084  0.4084  0.9126 -0.0206
 
              Baa    -0.0704    -9.448    -3.371    -3.152 -0.2248  0.0730  0.9717
    39 C(13)  Bbb     0.0294     3.940     1.406     1.314  0.3742  0.9272  0.0169
              Bcc     0.0411     5.509     1.966     1.838  0.8997 -0.3674  0.2357
 
              Baa    -0.0856   -11.489    -4.100    -3.832 -0.3324  0.9290 -0.1630
    40 C(13)  Bbb    -0.0800   -10.734    -3.830    -3.580  0.9146  0.3596  0.1850
              Bcc     0.1656    22.223     7.930     7.413 -0.2304  0.0876  0.9691
 
              Baa    -0.0241    -3.240    -1.156    -1.081 -0.2366  0.0723  0.9689
    41 C(13)  Bbb     0.0088     1.178     0.420     0.393 -0.0314  0.9961 -0.0820
              Bcc     0.0154     2.061     0.736     0.688  0.9711  0.0498  0.2334
 
              Baa    -0.0224    -3.001    -1.071    -1.001  0.1714  0.9849 -0.0238
    42 C(13)  Bbb    -0.0195    -2.622    -0.936    -0.875  0.9606 -0.1617  0.2260
              Bcc     0.0419     5.623     2.006     1.876 -0.2188  0.0616  0.9738
 
              Baa    -0.0134    -1.803    -0.643    -0.601 -0.2173  0.0588  0.9743
    43 C(13)  Bbb     0.0053     0.712     0.254     0.238 -0.0162  0.9978 -0.0639
              Bcc     0.0081     1.090     0.389     0.364  0.9760  0.0297  0.2159
 
              Baa    -0.0286    -3.837    -1.369    -1.280  0.1290  0.9909 -0.0391
    44 C(13)  Bbb    -0.0249    -3.342    -1.193    -1.115  0.9727 -0.1188  0.1993
              Bcc     0.0535     7.179     2.562     2.395 -0.1928  0.0638  0.9792
 
              Baa    -0.0068    -0.278    -0.099    -0.093  0.9793 -0.0965  0.1782
    45 S(33)  Bbb     0.0006     0.023     0.008     0.008  0.1013  0.9947 -0.0183
              Bcc     0.0062     0.255     0.091     0.085 -0.1755  0.0360  0.9838
 
              Baa    -0.0047     0.338     0.121     0.113  0.7438 -0.1960  0.6390
    46 O(17)  Bbb    -0.0027     0.197     0.070     0.066  0.4260  0.8758 -0.2272
              Bcc     0.0074    -0.535    -0.191    -0.178 -0.5151  0.4412  0.7349
 
              Baa    -0.0049     0.354     0.126     0.118  0.5377 -0.2105  0.8164
    47 O(17)  Bbb    -0.0036     0.263     0.094     0.088 -0.2244  0.8977  0.3793
              Bcc     0.0085    -0.618    -0.220    -0.206  0.8127  0.3871 -0.4355
 
              Baa    -0.0083     0.598     0.213     0.199  0.1113 -0.4569  0.8825
    48 O(17)  Bbb    -0.0071     0.516     0.184     0.172  0.0678  0.8895  0.4519
              Bcc     0.0154    -1.114    -0.398    -0.372  0.9915 -0.0095 -0.1300
 
              Baa    -0.0152    -2.034    -0.726    -0.679 -0.2213  0.0651  0.9730
    49 C(13)  Bbb     0.0062     0.838     0.299     0.279  0.3144  0.9493  0.0080
              Bcc     0.0089     1.197     0.427     0.399  0.9232 -0.3076  0.2305
 
              Baa    -0.0211    -2.832    -1.010    -0.945  0.1880  0.9821 -0.0113
    50 C(13)  Bbb    -0.0194    -2.606    -0.930    -0.869  0.9562 -0.1804  0.2304
              Bcc     0.0405     5.438     1.940     1.814 -0.2243  0.0541  0.9730
 
              Baa    -0.0072    -3.611    -1.289    -1.205 -0.0462  0.0527  0.9975
    51 F(19)  Bbb    -0.0043    -2.150    -0.767    -0.717 -0.1933  0.9793 -0.0606
              Bcc     0.0115     5.761     2.056     1.922  0.9801  0.1956  0.0350
 
              Baa    -0.0146    -7.340    -2.619    -2.448 -0.2939  0.9542  0.0561
    52 F(19)  Bbb    -0.0121    -6.091    -2.173    -2.032 -0.6505 -0.2427  0.7197
              Bcc     0.0267    13.431     4.792     4.480  0.7003  0.1750  0.6920
 
              Baa    -0.0026    -1.381    -0.493    -0.461 -0.2811  0.1073  0.9536
    53 H(1)   Bbb    -0.0022    -1.173    -0.419    -0.391 -0.3077  0.9312 -0.1955
              Bcc     0.0048     2.554     0.911     0.852  0.9090  0.3483  0.2288
 
              Baa    -0.0010    -0.530    -0.189    -0.177 -0.0493  0.7071  0.7054
    54 H(1)   Bbb    -0.0008    -0.422    -0.151    -0.141  0.1717  0.7018 -0.6914
              Bcc     0.0018     0.952     0.340     0.317  0.9839 -0.0870  0.1560
 
              Baa    -0.0012    -0.667    -0.238    -0.222  0.1934 -0.3897  0.9004
    55 H(1)   Bbb    -0.0008    -0.414    -0.148    -0.138 -0.3489  0.8304  0.4343
              Bcc     0.0020     1.080     0.385     0.360  0.9170  0.3982 -0.0247
 
              Baa    -0.0002    -0.094    -0.033    -0.031  0.2234 -0.1723  0.9594
    56 H(1)   Bbb    -0.0002    -0.085    -0.030    -0.028  0.1493  0.9787  0.1410
              Bcc     0.0003     0.179     0.064     0.060  0.9632 -0.1117 -0.2443
 
              Baa    -0.0003    -0.149    -0.053    -0.050  0.6819 -0.1653  0.7125
    57 H(1)   Bbb    -0.0003    -0.137    -0.049    -0.046  0.1658  0.9837  0.0696
              Bcc     0.0005     0.286     0.102     0.096  0.7124 -0.0706 -0.6982
 
              Baa    -0.0009    -0.460    -0.164    -0.153  0.6992  0.0720  0.7113
    58 H(1)   Bbb    -0.0008    -0.433    -0.154    -0.144 -0.0435  0.9974 -0.0582
              Bcc     0.0017     0.893     0.318     0.298  0.7136 -0.0097 -0.7005
 
              Baa    -0.0025    -1.330    -0.475    -0.444 -0.3031 -0.0813  0.9495
    59 H(1)   Bbb    -0.0021    -1.105    -0.394    -0.369 -0.1386  0.9895  0.0405
              Bcc     0.0046     2.435     0.869     0.812  0.9428  0.1194  0.3112
 
              Baa    -0.0025    -1.349    -0.481    -0.450 -0.5455  0.0895  0.8333
    60 H(1)   Bbb    -0.0005    -0.283    -0.101    -0.094  0.3609  0.9224  0.1372
              Bcc     0.0031     1.631     0.582     0.544  0.7564 -0.3756  0.5355
 
              Baa    -0.0020    -1.071    -0.382    -0.357  0.0810  0.0580  0.9950
    61 H(1)   Bbb    -0.0009    -0.473    -0.169    -0.158  0.3429  0.9357 -0.0825
              Bcc     0.0029     1.544     0.551     0.515  0.9359 -0.3479 -0.0559
 
              Baa    -0.0016    -0.854    -0.305    -0.285  0.6733  0.3404 -0.6563
    62 H(1)   Bbb    -0.0013    -0.687    -0.245    -0.229  0.3087  0.6772  0.6679
              Bcc     0.0029     1.541     0.550     0.514  0.6718 -0.6523  0.3509
 
              Baa    -0.0032    -1.719    -0.614    -0.574 -0.5676  0.6809 -0.4629
    63 H(1)   Bbb    -0.0028    -1.469    -0.524    -0.490 -0.4536  0.2106  0.8660
              Bcc     0.0060     3.188     1.138     1.063  0.6871  0.7014  0.1893
 
              Baa    -0.0085    -4.514    -1.611    -1.506  0.5218  0.8401  0.1483
    64 H(1)   Bbb    -0.0020    -1.090    -0.389    -0.364 -0.2527 -0.0138  0.9674
              Bcc     0.0105     5.605     2.000     1.870  0.8148 -0.5423  0.2051
 
              Baa    -0.0013    -0.712    -0.254    -0.237 -0.1906  0.0012  0.9817
    65 H(1)   Bbb    -0.0010    -0.532    -0.190    -0.177  0.5513  0.8276  0.1060
              Bcc     0.0023     1.244     0.444     0.415  0.8123 -0.5614  0.1583
 
              Baa    -0.0009    -0.464    -0.166    -0.155 -0.2276 -0.0415  0.9729
    66 H(1)   Bbb    -0.0002    -0.111    -0.040    -0.037 -0.4549  0.8879 -0.0685
              Bcc     0.0011     0.575     0.205     0.192  0.8610  0.4581  0.2210
 
              Baa    -0.0007    -0.389    -0.139    -0.130 -0.1477  0.6133  0.7759
    67 H(1)   Bbb    -0.0001    -0.066    -0.024    -0.022  0.9418 -0.1524  0.2998
              Bcc     0.0009     0.456     0.163     0.152  0.3021  0.7750 -0.5551
 
              Baa    -0.0009    -0.474    -0.169    -0.158 -0.2124 -0.0566  0.9755
    68 H(1)   Bbb    -0.0003    -0.183    -0.065    -0.061  0.7566 -0.6413  0.1276
              Bcc     0.0012     0.658     0.235     0.219  0.6184  0.7652  0.1790
 
              Baa    -0.0017    -0.901    -0.322    -0.301  0.9608  0.0678  0.2688
    69 H(1)   Bbb    -0.0012    -0.630    -0.225    -0.210 -0.2680 -0.0212  0.9632
              Bcc     0.0029     1.531     0.546     0.511 -0.0710  0.9975  0.0022
 
              Baa    -0.0024    -1.263    -0.451    -0.421 -0.5217 -0.1611  0.8378
    70 H(1)   Bbb    -0.0004    -0.236    -0.084    -0.079 -0.6596  0.6990 -0.2763
              Bcc     0.0028     1.500     0.535     0.500  0.5411  0.6967  0.4709
 
              Baa    -0.0016    -0.840    -0.300    -0.280  0.2893 -0.1391  0.9471
    71 H(1)   Bbb    -0.0014    -0.734    -0.262    -0.245  0.8867 -0.3339 -0.3199
              Bcc     0.0030     1.574     0.562     0.525  0.3607  0.9323  0.0268
 
              Baa    -0.0024    -1.268    -0.452    -0.423  0.0208  0.1938  0.9808
    72 H(1)   Bbb    -0.0006    -0.306    -0.109    -0.102  0.7304 -0.6728  0.1175
              Bcc     0.0029     1.574     0.562     0.525  0.6827  0.7139 -0.1556
 
              Baa    -0.0033    -1.779    -0.635    -0.593  0.2312  0.9406  0.2484
    73 H(1)   Bbb    -0.0029    -1.542    -0.550    -0.515 -0.2920 -0.1765  0.9400
              Bcc     0.0062     3.322     1.185     1.108  0.9280 -0.2899  0.2339
 
              Baa    -0.0090    -4.783    -1.707    -1.596  0.8367 -0.4930  0.2383
    74 H(1)   Bbb    -0.0021    -1.133    -0.404    -0.378 -0.2367  0.0667  0.9693
              Bcc     0.0111     5.916     2.111     1.973  0.4938  0.8675  0.0609
 
              Baa    -0.0014    -0.747    -0.266    -0.249 -0.2165  0.0709  0.9737
    75 H(1)   Bbb    -0.0011    -0.580    -0.207    -0.193  0.8499 -0.4771  0.2237
              Bcc     0.0025     1.327     0.473     0.443  0.4804  0.8760  0.0431
 
              Baa    -0.0009    -0.489    -0.174    -0.163 -0.2313  0.0534  0.9714
    76 H(1)   Bbb    -0.0002    -0.118    -0.042    -0.039  0.0044  0.9985 -0.0538
              Bcc     0.0011     0.607     0.217     0.202  0.9729  0.0081  0.2312
 
              Baa    -0.0008    -0.405    -0.144    -0.135  0.1449 -0.5251  0.8386
    77 H(1)   Bbb    -0.0001    -0.076    -0.027    -0.025  0.7467  0.6141  0.2555
              Bcc     0.0009     0.480     0.171     0.160  0.6492 -0.5892 -0.4811
 
              Baa    -0.0009    -0.495    -0.177    -0.165 -0.2258  0.0723  0.9715
    78 H(1)   Bbb    -0.0004    -0.192    -0.068    -0.064  0.3883  0.9213  0.0217
              Bcc     0.0013     0.686     0.245     0.229  0.8934 -0.3821  0.2361
 
              Baa    -0.0018    -0.944    -0.337    -0.315  0.8832  0.3963  0.2508
    79 H(1)   Bbb    -0.0012    -0.652    -0.233    -0.218 -0.2807  0.0183  0.9596
              Bcc     0.0030     1.596     0.570     0.532 -0.3757  0.9179 -0.1274
 
              Baa    -0.0003    -0.186    -0.066    -0.062  0.0284  0.0843  0.9960
    80 H(1)   Bbb    -0.0003    -0.170    -0.061    -0.057  0.0611  0.9944 -0.0860
              Bcc     0.0007     0.356     0.127     0.119  0.9977 -0.0633 -0.0231
 
              Baa    -0.0208     1.505     0.537     0.502  0.3859  0.7561  0.5285
    81 O(17)  Bbb    -0.0136     0.983     0.351     0.328 -0.6249 -0.2072  0.7527
              Bcc     0.0344    -2.488    -0.888    -0.830  0.6786 -0.6208  0.3925
 

 ---------------------------------------------------------------------------------

 No NMR shielding tensors so no spin-rotation constants.
 Leave Link  601 at Fri Nov 14 05:53:17 2025, MaxMem= 30870077440 cpu:             192.5 elap:               3.4
 (Enter /public/software/gauss/g16/l9999.exe)
 1\1\GINC-CU137\SP\UM062X\def2TZVPP\C35H28B1F2N3O10S2(1-,2)\BAIDING\14-
 Nov-2025\0\\#p M062X/DEF2TZVPP scrf=(solvent=water) em=GD3\\Energy cal
 culation for BE_SO3H_reduced_i\\-1,2\B,0,-0.155185,-0.45685,-0.557285\
 N,0,-0.632602,-1.864695,-0.974292\C,0,0.074382,-3.044939,-0.791347\C,0
 ,-0.818006,-4.117744,-1.004295\C,0,-2.074743,-3.609691,-1.308078\C,0,-
 1.944876,-2.180272,-1.295745\C,0,-2.890203,-1.145178,-1.505873\C,0,-4.
 28716,-1.493641,-1.872412\O,0,-4.62858,-2.086171,-2.886196\C,0,-6.5681
 79,-1.319793,-1.232937\C,0,-7.403983,-0.848018,-0.072723\C,0,-8.744174
 ,-0.504762,-0.307184\C,0,-9.570928,-0.112355,0.737581\C,0,-9.036082,-0
 .058298,2.025905\C,0,-7.70656,-0.38886,2.289024\C,0,-6.895312,-0.78710
 1,1.232301\N,0,-9.891842,0.359451,3.128534\O,0,-9.408849,0.410056,4.26
 5516\O,0,-11.069611,0.64731,2.886057\C,0,-2.504972,0.217502,-1.415926\
 N,0,-1.210749,0.552962,-1.051088\C,0,-1.081528,1.933483,-1.092403\C,0,
 -2.318136,2.467187,-1.515734\C,0,-3.211517,1.425351,-1.731533\C,0,-4.6
 11488,1.589324,-2.246351\C,0,0.13201,2.615563,-0.769576\C,0,0.262884,3
 .973129,-0.691543\C,0,1.481822,4.696634,-0.388358\C,0,1.436361,6.11022
 7,-0.326643\C,0,2.56394,6.864962,-0.039631\C,0,3.777617,6.208087,0.198
 329\S,0,5.23077,7.15398,0.5297\O,0,6.170667,6.367556,1.332079\O,0,4.84
 7092,8.501128,0.971163\O,0,5.990607,7.291044,-0.910554\C,0,3.863427,4.
 808317,0.1451\C,0,2.728816,4.068288,-0.14271\C,0,-3.292029,-4.447396,-
 1.567145\C,0,1.463722,-3.07461,-0.461341\C,0,2.180565,-4.208957,-0.203
 21\C,0,3.591814,-4.270874,0.121421\C,0,4.183039,-5.537538,0.345091\C,0
 ,5.52677,-5.67064,0.662329\C,0,6.315667,-4.518862,0.769369\S,0,8.03292
 3,-4.66708,1.149634\O,0,8.299788,-6.002029,1.700484\O,0,8.489696,-3.47
 8271,1.873758\O,0,8.803051,-4.550089,-0.286721\C,0,5.766367,-3.245068,
 0.555423\C,0,4.423937,-3.128379,0.237074\F,0,1.099314,-0.175242,-1.144
 889\F,0,-0.006591,-0.379923,0.843148\H,0,-0.560898,-5.167411,-0.948511
 \H,0,-6.842746,-0.796523,-2.152781\H,0,-6.714816,-2.392522,-1.400294\H
 ,0,-10.60499,0.155435,0.563354\H,0,-7.321046,-0.336717,3.299072\H,0,-5
 .861188,-1.047183,1.423751\H,0,-2.522557,3.517029,-1.679983\H,0,-4.840
 165,0.886047,-3.054533\H,0,-5.363714,1.440112,-1.464357\H,0,-4.742351,
 2.600219,-2.642441\H,0,0.996653,1.987074,-0.586968\H,0,-0.611313,4.596
 798,-0.865482\H,0,0.491959,6.615305,-0.506037\H,0,2.502425,7.94623,0.0
 08347\H,0,5.514188,7.92724,-1.47927\H,0,4.806033,4.307335,0.336299\H,0
 ,2.809365,2.987421,-0.176028\H,0,-3.619805,-4.398322,-2.610317\H,0,-3.
 073547,-5.492604,-1.331324\H,0,-4.143686,-4.138883,-0.950565\H,0,1.963
 238,-2.112486,-0.434105\H,0,1.673818,-5.171027,-0.236893\H,0,3.565917,
 -6.427626,0.26837\H,0,5.955914,-6.651327,0.833314\H,0,8.718151,-5.3900
 16,-0.778691\H,0,6.382865,-2.35767,0.647623\H,0,4.012972,-2.137026,0.0
 81842\H,0,-9.141377,-0.542993,-1.316612\O,0,-5.173889,-1.080543,-0.939
 786\\Version=ES64L-G16RevA.03\State=2-A\HF=-3288.2692164\S2=0.802555\S
 2-1=0.\S2A=0.752076\RMSD=3.727e-09\Dipole=-4.5867924,-1.1834347,-4.164
 8018\Quadrupole=-75.1911291,43.5554561,31.635673,-9.5034799,-11.570777
 7,-17.3065447\PG=C01 [X(C35H28B1F2N3O10S2)]\\@


 WHEN IT COMES TO CASH FLOW, IT SEEMS LIKE THE TIDE IS ALWAYS GOING OUT.
 Job cpu time:       1 days 10 hours 49 minutes 10.1 seconds.
 Elapsed time:       0 days  0 hours 33 minutes  3.9 seconds.
 File lengths (MBytes):  RWF=   4553 Int=      0 D2E=      0 Chk=    294 Scr=      1
 Normal termination of Gaussian 16 at Fri Nov 14 05:53:18 2025.
