 Entering Gaussian System, Link 0=g16
 Input=BE_SO3H_reduced_sp.gjf
 Output=BE_SO3H_reduced_sp.log
 Initial command:
 /public/software/gauss/g16/l1.exe "/public/home/baiding/1105_BE_sp/tmp_BE_SO3H_reduced_sp_1568733/Gau-1950450.inp" -scrdir="/public/home/baiding/1105_BE_sp/tmp_BE_SO3H_reduced_sp_1568733/"
 Entering Link 1 = /public/software/gauss/g16/l1.exe PID=   1950451.
  
 Copyright (c) 1988,1990,1992,1993,1995,1998,2003,2009,2016,
            Gaussian, Inc.  All Rights Reserved.
  
 This is part of the Gaussian(R) 16 program.  It is based on
 the Gaussian(R) 09 system (copyright 2009, Gaussian, Inc.),
 the Gaussian(R) 03 system (copyright 2003, Gaussian, Inc.),
 the Gaussian(R) 98 system (copyright 1998, Gaussian, Inc.),
 the Gaussian(R) 94 system (copyright 1995, Gaussian, Inc.),
 the Gaussian 92(TM) system (copyright 1992, Gaussian, Inc.),
 the Gaussian 90(TM) system (copyright 1990, Gaussian, Inc.),
 the Gaussian 88(TM) system (copyright 1988, Gaussian, Inc.),
 the Gaussian 86(TM) system (copyright 1986, Carnegie Mellon
 University), and the Gaussian 82(TM) system (copyright 1983,
 Carnegie Mellon University). Gaussian is a federally registered
 trademark of Gaussian, Inc.
  
 This software contains proprietary and confidential information,
 including trade secrets, belonging to Gaussian, Inc.
  
 This software is provided under written license and may be
 used, copied, transmitted, or stored only in accord with that
 written license.
  
 The following legend is applicable only to US Government
 contracts under FAR:
  
                    RESTRICTED RIGHTS LEGEND
  
 Use, reproduction and disclosure by the US Government is
 subject to restrictions as set forth in subparagraphs (a)
 and (c) of the Commercial Computer Software - Restricted
 Rights clause in FAR 52.227-19.
  
 Gaussian, Inc.
 340 Quinnipiac St., Bldg. 40, Wallingford CT 06492
  
  
 ---------------------------------------------------------------
 Warning -- This program may not be used in any manner that
 competes with the business of Gaussian, Inc. or will provide
 assistance to any competitor of Gaussian, Inc.  The licensee
 of this program is prohibited from giving any competitor of
 Gaussian, Inc. access to this program.  By using this program,
 the user acknowledges that Gaussian, Inc. is engaged in the
 business of creating and licensing software in the field of
 computational chemistry and represents and warrants to the
 licensee that it is not a competitor of Gaussian, Inc. and that
 it will not use this program in any manner prohibited above.
 ---------------------------------------------------------------
  

 Cite this work as:
 Gaussian 16, Revision A.03,
 M. J. Frisch, G. W. Trucks, H. B. Schlegel, G. E. Scuseria, 
 M. A. Robb, J. R. Cheeseman, G. Scalmani, V. Barone, 
 G. A. Petersson, H. Nakatsuji, X. Li, M. Caricato, A. V. Marenich, 
 J. Bloino, B. G. Janesko, R. Gomperts, B. Mennucci, H. P. Hratchian, 
 J. V. Ortiz, A. F. Izmaylov, J. L. Sonnenberg, D. Williams-Young, 
 F. Ding, F. Lipparini, F. Egidi, J. Goings, B. Peng, A. Petrone, 
 T. Henderson, D. Ranasinghe, V. G. Zakrzewski, J. Gao, N. Rega, 
 G. Zheng, W. Liang, M. Hada, M. Ehara, K. Toyota, R. Fukuda, 
 J. Hasegawa, M. Ishida, T. Nakajima, Y. Honda, O. Kitao, H. Nakai, 
 T. Vreven, K. Throssell, J. A. Montgomery, Jr., J. E. Peralta, 
 F. Ogliaro, M. J. Bearpark, J. J. Heyd, E. N. Brothers, K. N. Kudin, 
 V. N. Staroverov, T. A. Keith, R. Kobayashi, J. Normand, 
 K. Raghavachari, A. P. Rendell, J. C. Burant, S. S. Iyengar, 
 J. Tomasi, M. Cossi, J. M. Millam, M. Klene, C. Adamo, R. Cammi, 
 J. W. Ochterski, R. L. Martin, K. Morokuma, O. Farkas, 
 J. B. Foresman, and D. J. Fox, Gaussian, Inc., Wallingford CT, 2016.
 
 ******************************************
 Gaussian 16:  ES64L-G16RevA.03 25-Dec-2016
                 6-Nov-2025 
 ******************************************
 %nprocshared=64
 Will use up to   64 processors via shared memory.
 %mem=230GB
 %chk=BE_SO3H_reduced_sp.chk
 ----------------------------------------------
 #p M062X/DEF2TZVPP scrf=(solvent=water) em=GD3
 ----------------------------------------------
 1/38=1,172=1/1;
 2/12=2,17=6,18=5,40=1/2;
 3/5=44,7=202,11=2,25=1,30=1,70=2201,72=1,74=-55,124=31/1,2,3;
 4//1;
 5/5=2,38=5,53=1/2;
 6/7=2,8=2,9=2,10=2,28=1/1;
 99/5=1,9=1/99;
 Leave Link    1 at Thu Nov  6 05:03:47 2025, MaxMem= 30870077440 cpu:              15.8 elap:               0.3
 (Enter /public/software/gauss/g16/l101.exe)
 --------------------------------------
 Energy calculation for BE_SO3H_reduced
 --------------------------------------
 Symbolic Z-matrix:
 Charge = -1 Multiplicity = 2
 B                     0.16876  -0.03053   0.67036 
 N                    -0.69548  -1.3045    0.60659 
 C                    -0.22222  -2.60373   0.51648 
 C                    -1.33695  -3.46915   0.55559 
 C                    -2.49583  -2.71282   0.66793 
 C                    -2.07854  -1.3377    0.71744 
 C                    -2.81871  -0.1282    0.7821 
 C                    -4.31121  -0.20727   0.83747 
 O                    -4.89986  -0.69222   1.7989 
 C                    -5.03669   0.19814  -0.44644 
 C                    -6.54257   0.23869  -0.36716 
 C                    -7.40709  -0.34749  -1.31555 
 N                    -6.90282  -0.99317  -2.53262 
 O                    -7.54544  -1.94078  -2.99096 
 O                    -5.87967  -0.54569  -3.05732 
 C                    -8.79314  -0.3408   -1.18722 
 C                    -9.34137   0.30624  -0.09116 
 C                    -8.54152   0.92309   0.87031 
 C                    -7.16235   0.87007   0.72568 
 N                    -10.79444   0.34417   0.04784 
 O                    -11.26945   0.9167    1.0324 
 O                    -11.48102  -0.19805  -0.82269 
 C                    -2.15154   1.12538   0.72993 
 N                    -0.77755   1.18022   0.54041 
 C                    -0.37881   2.50795   0.56294 
 C                    -1.52417   3.29877   0.78481 
 C                    -2.63128   2.4652    0.905 
 C                    -4.01842   2.93569   1.23197 
 C                     0.97954   2.90967   0.36307 
 C                     1.43155   4.19501   0.44171 
 C                     2.79547   4.63544   0.21866 
 C                     3.09158   6.01478   0.33 
 C                     4.37306   6.50496   0.12477 
 C                     5.39869   5.60762  -0.19568 
 S                     7.02879   6.21574  -0.4973 
 O                     8.01836   5.1916   -0.15383 
 O                     7.15819   7.56791   0.06068 
 O                     7.14886   6.32441  -2.12283 
 C                     5.14547   4.23221  -0.31169 
 C                     3.86094   3.75822  -0.10452 
 C                    -3.87934  -3.29331   0.70037 
 C                     1.16514  -2.92208   0.391 
 C                     1.67394  -4.18999   0.38987 
 C                     3.07184  -4.54996   0.25671 
 C                     3.42297  -5.92121   0.2527 
 C                     4.74064  -6.33722   0.13164 
 C                     5.74859  -5.37231   0.01611 
 S                     7.42888  -5.8822   -0.16586 
 O                     7.55923  -7.28847   0.23674 
 O                     8.32533  -4.87702   0.41063 
 O                     7.73595  -5.78105  -1.76742 
 C                     5.44091  -4.00288   0.01751 
 C                     4.12062  -3.6031    0.13748 
 F                     1.11432  -0.02838  -0.38108 
 F                     0.87842   0.02852   1.88795 
 H                    -1.29547  -4.54809   0.48432 
 H                    -4.64742   1.15609  -0.80562 
 H                    -4.69688  -0.52543  -1.19237 
 H                    -9.41962  -0.80928  -1.93322 
 H                    -8.9924    1.42979   1.71368 
 H                    -6.54423   1.33433   1.48224 
 H                    -1.53796   4.37855   0.85479 
 H                    -4.67332   2.99969   0.35535 
 H                    -4.50815   2.28261   1.961 
 H                    -3.97255   3.93786   1.66792 
 H                     1.67443   2.1149    0.11368 
 H                     0.72731   4.98642   0.68921 
 H                     2.29365   6.70618   0.58354 
 H                     4.57731   7.56542   0.21932 
 H                     6.635     7.09125  -2.44406 
 H                     5.94781   3.54348  -0.5522 
 H                     3.68135   2.69233  -0.19051 
 H                    -4.53586  -2.85288  -0.05801 
 H                    -3.8274   -4.3684    0.50749 
 H                    -4.36952  -3.14748   1.6682 
 H                     1.83867  -2.07963   0.27857 
 H                     0.99113  -5.03001   0.49739 
 H                     2.63876  -6.66606   0.34921 
 H                     4.9853   -7.39325   0.13566 
 H                     7.29381  -6.51395  -2.23886 
 H                     6.22836  -3.26164  -0.06422 
 H                     3.89972  -2.5416    0.14538 
 
 ITRead=  0  0  0  0  0  0  0  0  0  0  0  0  0  0  0  0  0  0  0  0
 ITRead=  0  0  0  0  0  0  0  0  0  0  0  0  0  0  0  0  0  0  0  0
 ITRead=  0  0  0  0  0  0  0  0  0  0  0  0  0  0  0  0  0  0  0  0
 ITRead=  0  0  0  0  0  0  0  0  0  0  0  0  0  0  0  0  0  0  0  0
 ITRead=  0  0
 MicOpt= -1 -1 -1 -1 -1 -1 -1 -1 -1 -1 -1 -1 -1 -1 -1 -1 -1 -1 -1 -1
 MicOpt= -1 -1 -1 -1 -1 -1 -1 -1 -1 -1 -1 -1 -1 -1 -1 -1 -1 -1 -1 -1
 MicOpt= -1 -1 -1 -1 -1 -1 -1 -1 -1 -1 -1 -1 -1 -1 -1 -1 -1 -1 -1 -1
 MicOpt= -1 -1 -1 -1 -1 -1 -1 -1 -1 -1 -1 -1 -1 -1 -1 -1 -1 -1 -1 -1
 MicOpt= -1 -1
 NAtoms=     82 NQM=       82 NQMF=       0 NMMI=      0 NMMIF=      0
                NMic=       0 NMicF=      0.
                    Isotopes and Nuclear Properties:
 (Nuclear quadrupole moments (NQMom) in fm**2, nuclear magnetic moments (NMagM)
  in nuclear magnetons)

  Atom         1           2           3           4           5           6           7           8           9          10
 IAtWgt=          11          14          12          12          12          12          12          12          16          12
 AtmWgt=  11.0093053  14.0030740  12.0000000  12.0000000  12.0000000  12.0000000  12.0000000  12.0000000  15.9949146  12.0000000
 NucSpn=           3           2           0           0           0           0           0           0           0           0
 AtZEff=  -0.0000000  -0.0000000  -0.0000000  -0.0000000  -0.0000000  -0.0000000  -0.0000000  -0.0000000  -0.0000000  -0.0000000
 NQMom=    4.0590000   2.0440000   0.0000000   0.0000000   0.0000000   0.0000000   0.0000000   0.0000000   0.0000000   0.0000000
 NMagM=    2.6886370   0.4037610   0.0000000   0.0000000   0.0000000   0.0000000   0.0000000   0.0000000   0.0000000   0.0000000
 AtZNuc=   5.0000000   7.0000000   6.0000000   6.0000000   6.0000000   6.0000000   6.0000000   6.0000000   8.0000000   6.0000000

  Atom        11          12          13          14          15          16          17          18          19          20
 IAtWgt=          12          12          14          16          16          12          12          12          12          14
 AtmWgt=  12.0000000  12.0000000  14.0030740  15.9949146  15.9949146  12.0000000  12.0000000  12.0000000  12.0000000  14.0030740
 NucSpn=           0           0           2           0           0           0           0           0           0           2
 AtZEff=  -0.0000000  -0.0000000  -0.0000000  -0.0000000  -0.0000000  -0.0000000  -0.0000000  -0.0000000  -0.0000000  -0.0000000
 NQMom=    0.0000000   0.0000000   2.0440000   0.0000000   0.0000000   0.0000000   0.0000000   0.0000000   0.0000000   2.0440000
 NMagM=    0.0000000   0.0000000   0.4037610   0.0000000   0.0000000   0.0000000   0.0000000   0.0000000   0.0000000   0.4037610
 AtZNuc=   6.0000000   6.0000000   7.0000000   8.0000000   8.0000000   6.0000000   6.0000000   6.0000000   6.0000000   7.0000000

  Atom        21          22          23          24          25          26          27          28          29          30
 IAtWgt=          16          16          12          14          12          12          12          12          12          12
 AtmWgt=  15.9949146  15.9949146  12.0000000  14.0030740  12.0000000  12.0000000  12.0000000  12.0000000  12.0000000  12.0000000
 NucSpn=           0           0           0           2           0           0           0           0           0           0
 AtZEff=  -0.0000000  -0.0000000  -0.0000000  -0.0000000  -0.0000000  -0.0000000  -0.0000000  -0.0000000  -0.0000000  -0.0000000
 NQMom=    0.0000000   0.0000000   0.0000000   2.0440000   0.0000000   0.0000000   0.0000000   0.0000000   0.0000000   0.0000000
 NMagM=    0.0000000   0.0000000   0.0000000   0.4037610   0.0000000   0.0000000   0.0000000   0.0000000   0.0000000   0.0000000
 AtZNuc=   8.0000000   8.0000000   6.0000000   7.0000000   6.0000000   6.0000000   6.0000000   6.0000000   6.0000000   6.0000000

  Atom        31          32          33          34          35          36          37          38          39          40
 IAtWgt=          12          12          12          12          32          16          16          16          12          12
 AtmWgt=  12.0000000  12.0000000  12.0000000  12.0000000  31.9720718  15.9949146  15.9949146  15.9949146  12.0000000  12.0000000
 NucSpn=           0           0           0           0           0           0           0           0           0           0
 AtZEff=  -0.0000000  -0.0000000  -0.0000000  -0.0000000  -0.0000000  -0.0000000  -0.0000000  -0.0000000  -0.0000000  -0.0000000
 NQMom=    0.0000000   0.0000000   0.0000000   0.0000000   0.0000000   0.0000000   0.0000000   0.0000000   0.0000000   0.0000000
 NMagM=    0.0000000   0.0000000   0.0000000   0.0000000   0.0000000   0.0000000   0.0000000   0.0000000   0.0000000   0.0000000
 AtZNuc=   6.0000000   6.0000000   6.0000000   6.0000000  16.0000000   8.0000000   8.0000000   8.0000000   6.0000000   6.0000000

  Atom        41          42          43          44          45          46          47          48          49          50
 IAtWgt=          12          12          12          12          12          12          12          32          16          16
 AtmWgt=  12.0000000  12.0000000  12.0000000  12.0000000  12.0000000  12.0000000  12.0000000  31.9720718  15.9949146  15.9949146
 NucSpn=           0           0           0           0           0           0           0           0           0           0
 AtZEff=  -0.0000000  -0.0000000  -0.0000000  -0.0000000  -0.0000000  -0.0000000  -0.0000000  -0.0000000  -0.0000000  -0.0000000
 NQMom=    0.0000000   0.0000000   0.0000000   0.0000000   0.0000000   0.0000000   0.0000000   0.0000000   0.0000000   0.0000000
 NMagM=    0.0000000   0.0000000   0.0000000   0.0000000   0.0000000   0.0000000   0.0000000   0.0000000   0.0000000   0.0000000
 AtZNuc=   6.0000000   6.0000000   6.0000000   6.0000000   6.0000000   6.0000000   6.0000000  16.0000000   8.0000000   8.0000000

  Atom        51          52          53          54          55          56          57          58          59          60
 IAtWgt=          16          12          12          19          19           1           1           1           1           1
 AtmWgt=  15.9949146  12.0000000  12.0000000  18.9984033  18.9984033   1.0078250   1.0078250   1.0078250   1.0078250   1.0078250
 NucSpn=           0           0           0           1           1           1           1           1           1           1
 AtZEff=  -0.0000000  -0.0000000  -0.0000000  -0.0000000  -0.0000000  -0.0000000  -0.0000000  -0.0000000  -0.0000000  -0.0000000
 NQMom=    0.0000000   0.0000000   0.0000000   0.0000000   0.0000000   0.0000000   0.0000000   0.0000000   0.0000000   0.0000000
 NMagM=    0.0000000   0.0000000   0.0000000   2.6288670   2.6288670   2.7928460   2.7928460   2.7928460   2.7928460   2.7928460
 AtZNuc=   8.0000000   6.0000000   6.0000000   9.0000000   9.0000000   1.0000000   1.0000000   1.0000000   1.0000000   1.0000000

  Atom        61          62          63          64          65          66          67          68          69          70
 IAtWgt=           1           1           1           1           1           1           1           1           1           1
 AtmWgt=   1.0078250   1.0078250   1.0078250   1.0078250   1.0078250   1.0078250   1.0078250   1.0078250   1.0078250   1.0078250
 NucSpn=           1           1           1           1           1           1           1           1           1           1
 AtZEff=  -0.0000000  -0.0000000  -0.0000000  -0.0000000  -0.0000000  -0.0000000  -0.0000000  -0.0000000  -0.0000000  -0.0000000
 NQMom=    0.0000000   0.0000000   0.0000000   0.0000000   0.0000000   0.0000000   0.0000000   0.0000000   0.0000000   0.0000000
 NMagM=    2.7928460   2.7928460   2.7928460   2.7928460   2.7928460   2.7928460   2.7928460   2.7928460   2.7928460   2.7928460
 AtZNuc=   1.0000000   1.0000000   1.0000000   1.0000000   1.0000000   1.0000000   1.0000000   1.0000000   1.0000000   1.0000000

  Atom        71          72          73          74          75          76          77          78          79          80
 IAtWgt=           1           1           1           1           1           1           1           1           1           1
 AtmWgt=   1.0078250   1.0078250   1.0078250   1.0078250   1.0078250   1.0078250   1.0078250   1.0078250   1.0078250   1.0078250
 NucSpn=           1           1           1           1           1           1           1           1           1           1
 AtZEff=  -0.0000000  -0.0000000  -0.0000000  -0.0000000  -0.0000000  -0.0000000  -0.0000000  -0.0000000  -0.0000000  -0.0000000
 NQMom=    0.0000000   0.0000000   0.0000000   0.0000000   0.0000000   0.0000000   0.0000000   0.0000000   0.0000000   0.0000000
 NMagM=    2.7928460   2.7928460   2.7928460   2.7928460   2.7928460   2.7928460   2.7928460   2.7928460   2.7928460   2.7928460
 AtZNuc=   1.0000000   1.0000000   1.0000000   1.0000000   1.0000000   1.0000000   1.0000000   1.0000000   1.0000000   1.0000000

  Atom        81          82
 IAtWgt=           1           1
 AtmWgt=   1.0078250   1.0078250
 NucSpn=           1           1
 AtZEff=  -0.0000000  -0.0000000
 NQMom=    0.0000000   0.0000000
 NMagM=    2.7928460   2.7928460
 AtZNuc=   1.0000000   1.0000000
 Leave Link  101 at Thu Nov  6 05:03:47 2025, MaxMem= 30870077440 cpu:               4.1 elap:               0.1
 (Enter /public/software/gauss/g16/l202.exe)
 Stoichiometry    C35H27BF2N4O11S2(1-,2)
 Framework group  C1[X(C35H27BF2N4O11S2)]
 Deg. of freedom   240
 Full point group                 C1      NOp   1
 Largest Abelian subgroup         C1      NOp   1
 Largest concise Abelian subgroup C1      NOp   1
                         Standard orientation:                         
 ---------------------------------------------------------------------
 Center     Atomic      Atomic             Coordinates (Angstroms)
 Number     Number       Type             X           Y           Z
 ---------------------------------------------------------------------
      1          5           0       -0.168760   -0.030525   -0.670360
      2          7           0        0.695476   -1.304497   -0.606591
      3          6           0        0.222222   -2.603732   -0.516483
      4          6           0        1.336952   -3.469146   -0.555588
      5          6           0        2.495831   -2.712817   -0.667931
      6          6           0        2.078536   -1.337698   -0.717435
      7          6           0        2.818707   -0.128196   -0.782095
      8          6           0        4.311211   -0.207266   -0.837473
      9          8           0        4.899864   -0.692217   -1.798903
     10          6           0        5.036685    0.198140    0.446441
     11          6           0        6.542573    0.238687    0.367160
     12          6           0        7.407094   -0.347491    1.315554
     13          7           0        6.902816   -0.993165    2.532616
     14          8           0        7.545441   -1.940776    2.990961
     15          8           0        5.879670   -0.545694    3.057317
     16          6           0        8.793139   -0.340796    1.187217
     17          6           0        9.341366    0.306240    0.091155
     18          6           0        8.541518    0.923085   -0.870313
     19          6           0        7.162347    0.870070   -0.725683
     20          7           0       10.794435    0.344172   -0.047844
     21          8           0       11.269454    0.916703   -1.032404
     22          8           0       11.481020   -0.198054    0.822685
     23          6           0        2.151544    1.125378   -0.729927
     24          7           0        0.777554    1.180224   -0.540414
     25          6           0        0.378805    2.507951   -0.562941
     26          6           0        1.524174    3.298770   -0.784814
     27          6           0        2.631277    2.465204   -0.905003
     28          6           0        4.018420    2.935694   -1.231966
     29          6           0       -0.979543    2.909671   -0.363066
     30          6           0       -1.431547    4.195008   -0.441710
     31          6           0       -2.795467    4.635440   -0.218656
     32          6           0       -3.091577    6.014776   -0.329995
     33          6           0       -4.373058    6.504961   -0.124774
     34          6           0       -5.398687    5.607620    0.195680
     35         16           0       -7.028790    6.215741    0.497299
     36          8           0       -8.018365    5.191602    0.153829
     37          8           0       -7.158191    7.567905   -0.060683
     38          8           0       -7.148865    6.324407    2.122833
     39          6           0       -5.145468    4.232210    0.311694
     40          6           0       -3.860938    3.758222    0.104516
     41          6           0        3.879343   -3.293308   -0.700366
     42          6           0       -1.165138   -2.922083   -0.391004
     43          6           0       -1.673940   -4.189989   -0.389866
     44          6           0       -3.071835   -4.549957   -0.256709
     45          6           0       -3.422974   -5.921210   -0.252702
     46          6           0       -4.740644   -6.337222   -0.131644
     47          6           0       -5.748589   -5.372307   -0.016105
     48         16           0       -7.428877   -5.882203    0.165864
     49          8           0       -7.559226   -7.288465   -0.236744
     50          8           0       -8.325334   -4.877020   -0.410634
     51          8           0       -7.735950   -5.781045    1.767423
     52          6           0       -5.440908   -4.002878   -0.017506
     53          6           0       -4.120617   -3.603100   -0.137477
     54          9           0       -1.114323   -0.028377    0.381075
     55          9           0       -0.878418    0.028523   -1.887950
     56          1           0        1.295468   -4.548085   -0.484322
     57          1           0        4.647417    1.156092    0.805622
     58          1           0        4.696875   -0.525433    1.192372
     59          1           0        9.419617   -0.809280    1.933220
     60          1           0        8.992403    1.429791   -1.713676
     61          1           0        6.544234    1.334328   -1.482238
     62          1           0        1.537961    4.378550   -0.854791
     63          1           0        4.673318    2.999689   -0.355351
     64          1           0        4.508148    2.282612   -1.961002
     65          1           0        3.972552    3.937860   -1.667923
     66          1           0       -1.674426    2.114896   -0.113684
     67          1           0       -0.727313    4.986421   -0.689208
     68          1           0       -2.293648    6.706184   -0.583536
     69          1           0       -4.577310    7.565419   -0.219317
     70          1           0       -6.635002    7.091250    2.444056
     71          1           0       -5.947814    3.543480    0.552202
     72          1           0       -3.681354    2.692332    0.190513
     73          1           0        4.535860   -2.852884    0.058006
     74          1           0        3.827395   -4.368403   -0.507490
     75          1           0        4.369521   -3.147478   -1.668199
     76          1           0       -1.838669   -2.079629   -0.278565
     77          1           0       -0.991134   -5.030012   -0.497390
     78          1           0       -2.638758   -6.666063   -0.349209
     79          1           0       -4.985300   -7.393255   -0.135659
     80          1           0       -7.293810   -6.513953    2.238856
     81          1           0       -6.228357   -3.261635    0.064224
     82          1           0       -3.899722   -2.541597   -0.145381
 ---------------------------------------------------------------------
 Rotational constants (GHZ):           0.0390582           0.0182801           0.0130116
 Leave Link  202 at Thu Nov  6 05:03:47 2025, MaxMem= 30870077440 cpu:               0.2 elap:               0.0
 (Enter /public/software/gauss/g16/l301.exe)
 Standard basis: def2TZVPP (5D, 7F)
 Ernie: Thresh=  0.10000D-02 Tol=  0.10000D-05 Strict=F.
 There are  2409 symmetry adapted cartesian basis functions of A   symmetry.
 There are  2105 symmetry adapted basis functions of A   symmetry.
  2105 basis functions,  3300 primitive gaussians,  2409 cartesian basis functions
   205 alpha electrons      204 beta electrons
       nuclear repulsion energy      7223.9522284306 Hartrees.
 IExCor= 4336 DFT=T Ex+Corr=M062X ExCW=0 ScaHFX=  0.540000
 ScaDFX=  1.000000  1.000000  1.000000  1.000000 ScalE2=  1.000000  1.000000
 IRadAn=      5 IRanWt=     -1 IRanGd=            0 ICorTp=0 IEmpDi=131
 NAtoms=   82 NActive=   82 NUniq=   82 SFac= 1.00D+00 NAtFMM=   60 NAOKFM=T Big=T
 Integral buffers will be    131072 words long.
 Raffenetti 2 integral format.
 Two-electron integral symmetry is turned on.
 R6Disp:  Grimme-D3 Dispersion energy=       -0.0072191229 Hartrees.
 Nuclear repulsion after empirical dispersion term =     7223.9450093077 Hartrees.
 ------------------------------------------------------------------------------
 Polarizable Continuum Model (PCM)
 =================================
 Model                : PCM.
 Atomic radii         : UFF (Universal Force Field).
 Polarization charges : Total charges.
 Charge compensation  : None.
 Solution method      : On-the-fly selection.
 Cavity type          : Scaled VdW (van der Waals Surface) (Alpha=1.100).
 Cavity algorithm     : GePol (No added spheres)
                        Default sphere list used, NSphG=   82.
                        Lebedev-Laikov grids with approx.  5.0 points / Ang**2.
                        Smoothing algorithm: York/Karplus (Gamma=1.0000).
                        Polarization charges: spherical gaussians, with
                                              point-specific exponents (IZeta= 3).
                        Self-potential: point-specific (ISelfS= 7).
                        Self-field    : sphere-specific E.n sum rule (ISelfD= 2).
 Solvent              : Water, Eps=  78.355300 Eps(inf)=   1.777849
 ------------------------------------------------------------------------------
 GePol: Number of generator spheres                  =      82
 GePol: Total number of spheres                      =      82
 GePol: Number of exposed spheres                    =      82 (100.00%)
 GePol: Number of points                             =    6370
 GePol: Average weight of points                     =       0.13
 GePol: Minimum weight of points                     =   0.12D-11
 GePol: Maximum weight of points                     =    0.20577
 GePol: Number of points with low weight             =     409
 GePol: Fraction of low-weight points (<1% of avg)   =       6.42%
 GePol: Cavity surface area                          =    809.455 Ang**2
 GePol: Cavity volume                                =    936.499 Ang**3
 Leave Link  301 at Thu Nov  6 05:03:47 2025, MaxMem= 30870077440 cpu:               4.1 elap:               0.1
 (Enter /public/software/gauss/g16/l302.exe)
 NPDir=0 NMtPBC=     1 NCelOv=     1 NCel=       1 NClECP=     1 NCelD=      1
         NCelK=      1 NCelE2=     1 NClLst=     1 CellRange=     0.0.
 One-electron integrals computed using PRISM.
 One-electron integral symmetry used in STVInt
   1 Symmetry operations used in ECPInt.
 ECPInt:  NShTT=  299151 NPrTT=  886432 LenC2=  163656 LenP2D=  316031.
 LDataN:  DoStor=T MaxTD1= 6 Len=  172
 NBasis=  2105 RedAO= T EigKep=  5.29D-06  NBF=  2105
 NBsUse=  2105 1.00D-06 EigRej= -1.00D+00 NBFU=  2105
 Precomputing XC quadrature grid using
 IXCGrd= 4 IRadAn=           5 IRanWt=          -1 IRanGd=           0 AccXCQ= 0.00D+00.
 Generated NRdTot=       0 NPtTot=           0 NUsed=           0 NTot=          32
 NSgBfM=  1950  1950  1950  1950  1950 MxSgAt=    82 MxSgA2=    82.
 Leave Link  302 at Thu Nov  6 05:03:59 2025, MaxMem= 30870077440 cpu:             795.3 elap:              12.5
 (Enter /public/software/gauss/g16/l303.exe)
 DipDrv:  MaxL=1.
 Leave Link  303 at Thu Nov  6 05:04:00 2025, MaxMem= 30870077440 cpu:              34.3 elap:               0.6
 (Enter /public/software/gauss/g16/l401.exe)
 ExpMin= 6.06D-02 ExpMax= 6.07D+04 ExpMxC= 2.07D+03 IAcc=3 IRadAn=         5 AccDes= 0.00D+00
 Harris functional with IExCor= 1009 and IRadAn=       5 diagonalized for initial guess.
 HarFok:  IExCor= 1009 AccDes= 0.00D+00 IRadAn=         5 IDoV= 1 UseB2=F ITyADJ=14
 ICtDFT=  3500011 ScaDFX=  1.000000  1.000000  1.000000  1.000000
 FoFCou: FMM=F IPFlag=           0 FMFlag=      100000 FMFlg1=        2001
         NFxFlg=           0 DoJE=T BraDBF=F KetDBF=T FulRan=T
         wScrn=  0.000000 ICntrl=       500 IOpCl=  0 I1Cent=   200000004 NGrid=           0
         NMat0=    1 NMatS0=      1 NMatT0=    0 NMatD0=    1 NMtDS0=    0 NMtDT0=    0
 Petite list used in FoFCou.
 Harris En= -3416.04153338007    
 JPrj=0 DoOrth=F DoCkMO=F.
 Initial guess <Sx>= 0.0000 <Sy>= 0.0000 <Sz>= 0.5000 <S**2>= 0.7500 S= 0.5000
 Leave Link  401 at Thu Nov  6 05:04:13 2025, MaxMem= 30870077440 cpu:             843.8 elap:              13.3
 (Enter /public/software/gauss/g16/l502.exe)
 Integral symmetry usage will be decided dynamically.
 UHF open shell SCF:
 Using DIIS extrapolation, IDIIS=  1040.
 NGot= 30870077440 LenX= 30858296656 LenY= 30852490966
 Requested convergence on RMS density matrix=1.00D-08 within 128 cycles.
 Requested convergence on MAX density matrix=1.00D-06.
 Requested convergence on             energy=1.00D-06.
 No special actions if energy rises.
 Fock matrices will be formed incrementally for  20 cycles.

 Cycle   1  Pass 1  IDiag  1:
 FoFJK:  IHMeth= 1 ICntrl=       0 DoSepK=F KAlg= 0 I1Cent=           0 FoldK=F
 IRaf= 500000000 NMat=       1 IRICut=       1 DoRegI=T DoRafI=F ISym2E= 0 IDoP0=0 IntGTp=1.
 FoFCou: FMM=T IPFlag=           0 FMFlag=      100000 FMFlg1=        2001
         NFxFlg=           0 DoJE=F BraDBF=F KetDBF=F FulRan=T
         wScrn=  0.000000 ICntrl=         0 IOpCl=  1 I1Cent=           0 NGrid=           0
         NMat0=    1 NMatS0=      1 NMatT0=    0 NMatD0=    1 NMtDS0=    0 NMtDT0=    0
 Symmetry not used in FoFCou.
 FMM levels:  10  Number of levels for PrismC:   9
 Inv3:  Mode=1 IEnd=   121730700.
 Iteration    1 A*A^-1 deviation from unit magnitude is 1.47D-14 for    763.
 Iteration    1 A*A^-1 deviation from orthogonality  is 1.47D-14 for   2667    774.
 Iteration    1 A^-1*A deviation from unit magnitude is 1.35D-14 for    763.
 Iteration    1 A^-1*A deviation from orthogonality  is 2.96D-14 for   3757   3736.
 E= -3415.87929427631    
 DIIS: error= 2.25D-02 at cycle   1 NSaved=   1.
 NSaved= 1 IEnMin= 1 EnMin= -3415.87929427631     IErMin= 1 ErrMin= 2.25D-02
 ErrMax= 2.25D-02  0.00D+00 EMaxC= 1.00D-01 BMatC= 9.74D+00 BMatP= 9.74D+00
 IDIUse=3 WtCom= 7.75D-01 WtEn= 2.25D-01
 Coeff-Com:  0.100D+01
 Coeff-En:   0.100D+01
 Coeff:      0.100D+01
 Gap=     0.128 Goal=   None    Shift=    0.000
 Gap=     0.122 Goal=   None    Shift=    0.000
 GapD=    0.122 DampG=1.000 DampE=0.500 DampFc=0.5000 IDamp=-1.
 Damping current iteration by 5.00D-01
 RMSDP=2.38D-03 MaxDP=7.16D-01              OVMax= 4.25D-01

 Cycle   2  Pass 1  IDiag  1:
 RMSU=  1.18D-03    CP:  1.03D+00
 E= -3416.57703691318     Delta-E=       -0.697742636874 Rises=F Damp=T
 DIIS: error= 5.32D-03 at cycle   2 NSaved=   2.
 NSaved= 2 IEnMin= 2 EnMin= -3416.57703691318     IErMin= 2 ErrMin= 5.32D-03
 ErrMax= 5.32D-03  0.00D+00 EMaxC= 1.00D-01 BMatC= 9.15D-01 BMatP= 9.74D+00
 IDIUse=3 WtCom= 9.47D-01 WtEn= 5.32D-02
 Coeff-Com:  0.497D-01 0.950D+00
 Coeff-En:   0.125D+00 0.875D+00
 Coeff:      0.537D-01 0.946D+00
 Gap=     0.081 Goal=   None    Shift=    0.000
 Gap=     0.161 Goal=   None    Shift=    0.000
 RMSDP=6.47D-04 MaxDP=1.30D-01 DE=-6.98D-01 OVMax= 3.42D-01

 Cycle   3  Pass 1  IDiag  1:
 RMSU=  6.43D-04    CP:  1.01D+00  9.68D-01
 E= -3417.44720379119     Delta-E=       -0.870166878014 Rises=F Damp=F
 DIIS: error= 5.00D-03 at cycle   3 NSaved=   3.
 NSaved= 3 IEnMin= 3 EnMin= -3417.44720379119     IErMin= 3 ErrMin= 5.00D-03
 ErrMax= 5.00D-03  0.00D+00 EMaxC= 1.00D-01 BMatC= 4.13D-01 BMatP= 9.15D-01
 IDIUse=3 WtCom= 9.50D-01 WtEn= 5.00D-02
 Coeff-Com: -0.658D-01 0.391D+00 0.675D+00
 Coeff-En:   0.000D+00 0.000D+00 0.100D+01
 Coeff:     -0.625D-01 0.371D+00 0.691D+00
 Gap=     0.094 Goal=   None    Shift=    0.000
 Gap=     0.130 Goal=   None    Shift=    0.000
 RMSDP=2.10D-04 MaxDP=3.29D-02 DE=-8.70D-01 OVMax= 5.06D-02

 Cycle   4  Pass 1  IDiag  1:
 RMSU=  2.07D-04    CP:  1.01D+00  9.86D-01  9.58D-01
 E= -3417.51771018228     Delta-E=       -0.070506391083 Rises=F Damp=F
 DIIS: error= 1.51D-03 at cycle   4 NSaved=   4.
 NSaved= 4 IEnMin= 4 EnMin= -3417.51771018228     IErMin= 4 ErrMin= 1.51D-03
 ErrMax= 1.51D-03  0.00D+00 EMaxC= 1.00D-01 BMatC= 5.59D-02 BMatP= 4.13D-01
 IDIUse=3 WtCom= 9.85D-01 WtEn= 1.51D-02
 Coeff-Com: -0.282D-01 0.828D-01 0.323D+00 0.623D+00
 Coeff-En:   0.000D+00 0.000D+00 0.607D-01 0.939D+00
 Coeff:     -0.278D-01 0.815D-01 0.319D+00 0.628D+00
 Gap=     0.095 Goal=   None    Shift=    0.000
 Gap=     0.133 Goal=   None    Shift=    0.000
 RMSDP=7.89D-05 MaxDP=1.65D-02 DE=-7.05D-02 OVMax= 2.66D-02

 Cycle   5  Pass 1  IDiag  1:
 RMSU=  5.89D-05    CP:  1.01D+00  9.63D-01  9.95D-01  8.18D-01
 E= -3417.52921792010     Delta-E=       -0.011507737820 Rises=F Damp=F
 DIIS: error= 4.52D-04 at cycle   5 NSaved=   5.
 NSaved= 5 IEnMin= 5 EnMin= -3417.52921792010     IErMin= 5 ErrMin= 4.52D-04
 ErrMax= 4.52D-04  0.00D+00 EMaxC= 1.00D-01 BMatC= 3.67D-03 BMatP= 5.59D-02
 IDIUse=3 WtCom= 9.95D-01 WtEn= 4.52D-03
 Coeff-Com: -0.870D-02 0.153D-01 0.105D+00 0.287D+00 0.601D+00
 Coeff-En:   0.000D+00 0.000D+00 0.000D+00 0.000D+00 0.100D+01
 Coeff:     -0.866D-02 0.152D-01 0.105D+00 0.286D+00 0.602D+00
 Gap=     0.098 Goal=   None    Shift=    0.000
 Gap=     0.134 Goal=   None    Shift=    0.000
 RMSDP=3.20D-05 MaxDP=1.07D-02 DE=-1.15D-02 OVMax= 1.56D-02

 Cycle   6  Pass 1  IDiag  1:
 RMSU=  2.69D-05    CP:  1.01D+00  9.75D-01  9.95D-01  8.57D-01  1.05D+00
 E= -3417.53013109234     Delta-E=       -0.000913172245 Rises=F Damp=F
 DIIS: error= 1.54D-04 at cycle   6 NSaved=   6.
 NSaved= 6 IEnMin= 6 EnMin= -3417.53013109234     IErMin= 6 ErrMin= 1.54D-04
 ErrMax= 1.54D-04  0.00D+00 EMaxC= 1.00D-01 BMatC= 3.48D-04 BMatP= 3.67D-03
 IDIUse=3 WtCom= 9.98D-01 WtEn= 1.54D-03
 Coeff-Com: -0.739D-03-0.124D-02 0.107D-01 0.496D-01 0.237D+00 0.705D+00
 Coeff-En:   0.000D+00 0.000D+00 0.000D+00 0.000D+00 0.000D+00 0.100D+01
 Coeff:     -0.738D-03-0.124D-02 0.107D-01 0.495D-01 0.236D+00 0.705D+00
 Gap=     0.099 Goal=   None    Shift=    0.000
 Gap=     0.135 Goal=   None    Shift=    0.000
 RMSDP=1.86D-05 MaxDP=5.99D-03 DE=-9.13D-04 OVMax= 1.01D-02

 Cycle   7  Pass 1  IDiag  1:
 RMSU=  1.17D-05    CP:  1.01D+00  9.69D-01  9.99D-01  8.69D-01  1.23D+00
                    CP:  1.22D+00
 E= -3417.53030178175     Delta-E=       -0.000170689411 Rises=F Damp=F
 DIIS: error= 6.87D-05 at cycle   7 NSaved=   7.
 NSaved= 7 IEnMin= 7 EnMin= -3417.53030178175     IErMin= 7 ErrMin= 6.87D-05
 ErrMax= 6.87D-05  0.00D+00 EMaxC= 1.00D-01 BMatC= 1.00D-04 BMatP= 3.48D-04
 IDIUse=1 WtCom= 1.00D+00 WtEn= 0.00D+00
 Coeff-Com:  0.167D-02-0.419D-02-0.203D-01-0.457D-01-0.321D-01 0.313D+00
 Coeff-Com:  0.788D+00
 Coeff:      0.167D-02-0.419D-02-0.203D-01-0.457D-01-0.321D-01 0.313D+00
 Coeff:      0.788D+00
 Gap=     0.101 Goal=   None    Shift=    0.000
 Gap=     0.136 Goal=   None    Shift=    0.000
 RMSDP=1.45D-05 MaxDP=3.72D-03 DE=-1.71D-04 OVMax= 8.97D-03

 Cycle   8  Pass 1  IDiag  1:
 RMSU=  6.33D-06    CP:  1.01D+00  9.68D-01  1.00D+00  8.89D-01  1.34D+00
                    CP:  1.55D+00  1.45D+00
 E= -3417.53038275732     Delta-E=       -0.000080975566 Rises=F Damp=F
 DIIS: error= 4.16D-05 at cycle   8 NSaved=   8.
 NSaved= 8 IEnMin= 8 EnMin= -3417.53038275732     IErMin= 8 ErrMin= 4.16D-05
 ErrMax= 4.16D-05  0.00D+00 EMaxC= 1.00D-01 BMatC= 3.19D-05 BMatP= 1.00D-04
 IDIUse=1 WtCom= 1.00D+00 WtEn= 0.00D+00
 Coeff-Com:  0.935D-03-0.143D-02-0.121D-01-0.352D-01-0.865D-01-0.835D-01
 Coeff-Com:  0.359D+00 0.859D+00
 Coeff:      0.935D-03-0.143D-02-0.121D-01-0.352D-01-0.865D-01-0.835D-01
 Coeff:      0.359D+00 0.859D+00
 Gap=     0.101 Goal=   None    Shift=    0.000
 Gap=     0.137 Goal=   None    Shift=    0.000
 RMSDP=1.07D-05 MaxDP=2.81D-03 DE=-8.10D-05 OVMax= 4.96D-03

 Cycle   9  Pass 1  IDiag  1:
 RMSU=  2.98D-06    CP:  1.01D+00  9.66D-01  1.00D+00  8.98D-01  1.44D+00
                    CP:  1.74D+00  1.94D+00  1.45D+00
 E= -3417.53041534685     Delta-E=       -0.000032589534 Rises=F Damp=F
 DIIS: error= 2.77D-05 at cycle   9 NSaved=   9.
 NSaved= 9 IEnMin= 9 EnMin= -3417.53041534685     IErMin= 9 ErrMin= 2.77D-05
 ErrMax= 2.77D-05  0.00D+00 EMaxC= 1.00D-01 BMatC= 8.77D-06 BMatP= 3.19D-05
 IDIUse=1 WtCom= 1.00D+00 WtEn= 0.00D+00
 Coeff-Com: -0.147D-03 0.811D-03 0.158D-02-0.530D-03-0.278D-01-0.128D+00
 Coeff-Com: -0.853D-01 0.363D+00 0.876D+00
 Coeff:     -0.147D-03 0.811D-03 0.158D-02-0.530D-03-0.278D-01-0.128D+00
 Coeff:     -0.853D-01 0.363D+00 0.876D+00
 Gap=     0.101 Goal=   None    Shift=    0.000
 Gap=     0.137 Goal=   None    Shift=    0.000
 RMSDP=6.01D-06 MaxDP=1.75D-03 DE=-3.26D-05 OVMax= 2.42D-03

 Cycle  10  Pass 1  IDiag  1:
 RMSU=  1.68D-06    CP:  1.01D+00  9.67D-01  1.00D+00  9.01D-01  1.47D+00
                    CP:  1.86D+00  2.20D+00  1.86D+00  1.43D+00
 E= -3417.53042428056     Delta-E=       -0.000008933705 Rises=F Damp=F
 DIIS: error= 1.86D-05 at cycle  10 NSaved=  10.
 NSaved=10 IEnMin=10 EnMin= -3417.53042428056     IErMin=10 ErrMin= 1.86D-05
 ErrMax= 1.86D-05  0.00D+00 EMaxC= 1.00D-01 BMatC= 3.01D-06 BMatP= 8.77D-06
 IDIUse=1 WtCom= 1.00D+00 WtEn= 0.00D+00
 Coeff-Com: -0.324D-03 0.780D-03 0.422D-02 0.975D-02 0.927D-02-0.413D-01
 Coeff-Com: -0.146D+00-0.510D-01 0.469D+00 0.746D+00
 Coeff:     -0.324D-03 0.780D-03 0.422D-02 0.975D-02 0.927D-02-0.413D-01
 Coeff:     -0.146D+00-0.510D-01 0.469D+00 0.746D+00
 Gap=     0.102 Goal=   None    Shift=    0.000
 Gap=     0.137 Goal=   None    Shift=    0.000
 RMSDP=2.69D-06 MaxDP=8.40D-04 DE=-8.93D-06 OVMax= 1.32D-03

 Cycle  11  Pass 1  IDiag  1:
 RMSU=  8.28D-07    CP:  1.01D+00  9.67D-01  1.00D+00  9.03D-01  1.48D+00
                    CP:  1.89D+00  2.31D+00  2.09D+00  1.82D+00  1.23D+00
 E= -3417.53042643554     Delta-E=       -0.000002154986 Rises=F Damp=F
 DIIS: error= 9.04D-06 at cycle  11 NSaved=  11.
 NSaved=11 IEnMin=11 EnMin= -3417.53042643554     IErMin=11 ErrMin= 9.04D-06
 ErrMax= 9.04D-06  0.00D+00 EMaxC= 1.00D-01 BMatC= 7.48D-07 BMatP= 3.01D-06
 IDIUse=1 WtCom= 1.00D+00 WtEn= 0.00D+00
 Coeff-Com: -0.128D-03 0.211D-03 0.176D-02 0.513D-02 0.105D-01 0.641D-02
 Coeff-Com: -0.574D-01-0.103D+00 0.553D-01 0.386D+00 0.695D+00
 Coeff:     -0.128D-03 0.211D-03 0.176D-02 0.513D-02 0.105D-01 0.641D-02
 Coeff:     -0.574D-01-0.103D+00 0.553D-01 0.386D+00 0.695D+00
 Gap=     0.102 Goal=   None    Shift=    0.000
 Gap=     0.137 Goal=   None    Shift=    0.000
 RMSDP=9.82D-07 MaxDP=2.88D-04 DE=-2.15D-06 OVMax= 4.94D-04

 Cycle  12  Pass 1  IDiag  1:
 RMSU=  3.84D-07    CP:  1.01D+00  9.67D-01  1.00D+00  9.03D-01  1.49D+00
                    CP:  1.90D+00  2.33D+00  2.17D+00  1.98D+00  1.46D+00
                    CP:  1.22D+00
 E= -3417.53042699994     Delta-E=       -0.000000564400 Rises=F Damp=F
 DIIS: error= 4.55D-06 at cycle  12 NSaved=  12.
 NSaved=12 IEnMin=12 EnMin= -3417.53042699994     IErMin=12 ErrMin= 4.55D-06
 ErrMax= 4.55D-06  0.00D+00 EMaxC= 1.00D-01 BMatC= 1.63D-07 BMatP= 7.48D-07
 IDIUse=1 WtCom= 1.00D+00 WtEn= 0.00D+00
 Coeff-Com:  0.244D-04-0.871D-04-0.326D-03-0.394D-03 0.167D-02 0.117D-01
 Coeff-Com:  0.118D-01-0.239D-01-0.901D-01-0.467D-01 0.261D+00 0.875D+00
 Coeff:      0.244D-04-0.871D-04-0.326D-03-0.394D-03 0.167D-02 0.117D-01
 Coeff:      0.118D-01-0.239D-01-0.901D-01-0.467D-01 0.261D+00 0.875D+00
 Gap=     0.102 Goal=   None    Shift=    0.000
 Gap=     0.137 Goal=   None    Shift=    0.000
 RMSDP=6.48D-07 MaxDP=2.35D-04 DE=-5.64D-07 OVMax= 5.00D-04

 Cycle  13  Pass 1  IDiag  1:
 RMSU=  2.51D-07    CP:  1.01D+00  9.67D-01  1.00D+00  9.03D-01  1.49D+00
                    CP:  1.90D+00  2.34D+00  2.20D+00  2.07D+00  1.62D+00
                    CP:  1.56D+00  1.46D+00
 E= -3417.53042725213     Delta-E=       -0.000000252187 Rises=F Damp=F
 DIIS: error= 3.54D-06 at cycle  13 NSaved=  13.
 NSaved=13 IEnMin=13 EnMin= -3417.53042725213     IErMin=13 ErrMin= 3.54D-06
 ErrMax= 3.54D-06  0.00D+00 EMaxC= 1.00D-01 BMatC= 7.24D-08 BMatP= 1.63D-07
 IDIUse=1 WtCom= 1.00D+00 WtEn= 0.00D+00
 Coeff-Com:  0.498D-04-0.102D-03-0.693D-03-0.180D-02-0.256D-02 0.278D-02
 Coeff-Com:  0.220D-01 0.250D-01-0.542D-01-0.154D+00-0.106D+00 0.434D+00
 Coeff-Com:  0.835D+00
 Coeff:      0.498D-04-0.102D-03-0.693D-03-0.180D-02-0.256D-02 0.278D-02
 Coeff:      0.220D-01 0.250D-01-0.542D-01-0.154D+00-0.106D+00 0.434D+00
 Coeff:      0.835D+00
 Gap=     0.102 Goal=   None    Shift=    0.000
 Gap=     0.137 Goal=   None    Shift=    0.000
 RMSDP=4.02D-07 MaxDP=1.10D-04 DE=-2.52D-07 OVMax= 3.60D-04

 Cycle  14  Pass 1  IDiag  1:
 RMSU=  1.49D-07    CP:  1.01D+00  9.67D-01  1.00D+00  9.03D-01  1.49D+00
                    CP:  1.90D+00  2.34D+00  2.22D+00  2.11D+00  1.68D+00
                    CP:  1.77D+00  2.05D+00  1.47D+00
 E= -3417.53042737011     Delta-E=       -0.000000117978 Rises=F Damp=F
 DIIS: error= 2.06D-06 at cycle  14 NSaved=  14.
 NSaved=14 IEnMin=14 EnMin= -3417.53042737011     IErMin=14 ErrMin= 2.06D-06
 ErrMax= 2.06D-06  0.00D+00 EMaxC= 1.00D-01 BMatC= 2.09D-08 BMatP= 7.24D-08
 IDIUse=1 WtCom= 1.00D+00 WtEn= 0.00D+00
 Coeff-Com:  0.938D-05-0.492D-05-0.129D-03-0.557D-03-0.167D-02-0.350D-02
 Coeff-Com:  0.390D-02 0.200D-01 0.157D-01-0.478D-01-0.151D+00-0.189D+00
 Coeff-Com:  0.263D+00 0.109D+01
 Coeff:      0.938D-05-0.492D-05-0.129D-03-0.557D-03-0.167D-02-0.350D-02
 Coeff:      0.390D-02 0.200D-01 0.157D-01-0.478D-01-0.151D+00-0.189D+00
 Coeff:      0.263D+00 0.109D+01
 Gap=     0.102 Goal=   None    Shift=    0.000
 Gap=     0.137 Goal=   None    Shift=    0.000
 RMSDP=3.56D-07 MaxDP=1.19D-04 DE=-1.18D-07 OVMax= 3.20D-04

 Cycle  15  Pass 1  IDiag  1:
 RMSU=  7.93D-08    CP:  1.01D+00  9.67D-01  1.00D+00  9.03D-01  1.49D+00
                    CP:  1.91D+00  2.35D+00  2.23D+00  2.13D+00  1.72D+00
                    CP:  1.95D+00  2.54D+00  2.12D+00  1.83D+00
 E= -3417.53042742558     Delta-E=       -0.000000055472 Rises=F Damp=F
 DIIS: error= 8.67D-07 at cycle  15 NSaved=  15.
 NSaved=15 IEnMin=15 EnMin= -3417.53042742558     IErMin=15 ErrMin= 8.67D-07
 ErrMax= 8.67D-07  0.00D+00 EMaxC= 1.00D-01 BMatC= 7.52D-09 BMatP= 2.09D-08
 IDIUse=1 WtCom= 1.00D+00 WtEn= 0.00D+00
 Coeff-Com: -0.123D-04 0.312D-04 0.185D-03 0.363D-03 0.730D-04-0.289D-02
 Coeff-Com: -0.632D-02-0.106D-03 0.260D-01 0.327D-01-0.236D-01-0.218D+00
 Coeff-Com: -0.183D+00 0.512D+00 0.862D+00
 Coeff:     -0.123D-04 0.312D-04 0.185D-03 0.363D-03 0.730D-04-0.289D-02
 Coeff:     -0.632D-02-0.106D-03 0.260D-01 0.327D-01-0.236D-01-0.218D+00
 Coeff:     -0.183D+00 0.512D+00 0.862D+00
 Gap=     0.102 Goal=   None    Shift=    0.000
 Gap=     0.137 Goal=   None    Shift=    0.000
 RMSDP=1.80D-07 MaxDP=5.12D-05 DE=-5.55D-08 OVMax= 1.53D-04

 Cycle  16  Pass 1  IDiag  1:
 RMSU=  4.09D-08    CP:  1.01D+00  9.67D-01  1.00D+00  9.03D-01  1.49D+00
                    CP:  1.91D+00  2.35D+00  2.23D+00  2.14D+00  1.73D+00
                    CP:  1.99D+00  2.75D+00  2.45D+00  2.34D+00  1.51D+00
 E= -3417.53042743776     Delta-E=       -0.000000012184 Rises=F Damp=F
 DIIS: error= 4.90D-07 at cycle  16 NSaved=  16.
 NSaved=16 IEnMin=16 EnMin= -3417.53042743776     IErMin=16 ErrMin= 4.90D-07
 ErrMax= 4.90D-07  0.00D+00 EMaxC= 1.00D-01 BMatC= 1.75D-09 BMatP= 7.52D-09
 IDIUse=1 WtCom= 1.00D+00 WtEn= 0.00D+00
 Coeff-Com: -0.661D-05 0.132D-04 0.104D-03 0.279D-03 0.472D-03-0.101D-03
 Coeff-Com: -0.334D-02-0.583D-02 0.549D-02 0.263D-01 0.327D-01-0.368D-01
 Coeff-Com: -0.155D+00-0.904D-01 0.371D+00 0.855D+00
 Coeff:     -0.661D-05 0.132D-04 0.104D-03 0.279D-03 0.472D-03-0.101D-03
 Coeff:     -0.334D-02-0.583D-02 0.549D-02 0.263D-01 0.327D-01-0.368D-01
 Coeff:     -0.155D+00-0.904D-01 0.371D+00 0.855D+00
 Gap=     0.102 Goal=   None    Shift=    0.000
 Gap=     0.137 Goal=   None    Shift=    0.000
 RMSDP=8.18D-08 MaxDP=2.25D-05 DE=-1.22D-08 OVMax= 6.26D-05

 Cycle  17  Pass 1  IDiag  1:
 RMSU=  2.08D-08    CP:  1.01D+00  9.67D-01  1.00D+00  9.03D-01  1.49D+00
                    CP:  1.91D+00  2.35D+00  2.24D+00  2.14D+00  1.73D+00
                    CP:  2.01D+00  2.83D+00  2.57D+00  2.60D+00  1.87D+00
                    CP:  1.30D+00
 E= -3417.53042744018     Delta-E=       -0.000000002421 Rises=F Damp=F
 DIIS: error= 2.55D-07 at cycle  17 NSaved=  17.
 NSaved=17 IEnMin=17 EnMin= -3417.53042744018     IErMin=17 ErrMin= 2.55D-07
 ErrMax= 2.55D-07  0.00D+00 EMaxC= 1.00D-01 BMatC= 4.03D-10 BMatP= 1.75D-09
 IDIUse=1 WtCom= 1.00D+00 WtEn= 0.00D+00
 Coeff-Com: -0.558D-06 0.155D-07 0.106D-04 0.534D-04 0.190D-03 0.461D-03
 Coeff-Com: -0.263D-03-0.244D-02-0.232D-02 0.509D-02 0.174D-01 0.237D-01
 Coeff-Com: -0.317D-01-0.129D+00 0.497D-02 0.361D+00 0.753D+00
 Coeff:     -0.558D-06 0.155D-07 0.106D-04 0.534D-04 0.190D-03 0.461D-03
 Coeff:     -0.263D-03-0.244D-02-0.232D-02 0.509D-02 0.174D-01 0.237D-01
 Coeff:     -0.317D-01-0.129D+00 0.497D-02 0.361D+00 0.753D+00
 Gap=     0.102 Goal=   None    Shift=    0.000
 Gap=     0.137 Goal=   None    Shift=    0.000
 RMSDP=2.24D-08 MaxDP=5.34D-06 DE=-2.42D-09 OVMax= 1.77D-05

 Cycle  18  Pass 1  IDiag  1:
 RMSU=  9.94D-09    CP:  1.01D+00  9.67D-01  1.00D+00  9.03D-01  1.49D+00
                    CP:  1.91D+00  2.35D+00  2.24D+00  2.14D+00  1.73D+00
                    CP:  2.01D+00  2.84D+00  2.59D+00  2.65D+00  1.99D+00
                    CP:  1.53D+00  1.33D+00
 E= -3417.53042744015     Delta-E=        0.000000000035 Rises=F Damp=F
 DIIS: error= 2.11D-07 at cycle  18 NSaved=  18.
 NSaved=18 IEnMin=17 EnMin= -3417.53042744018     IErMin=18 ErrMin= 2.11D-07
 ErrMax= 2.11D-07  0.00D+00 EMaxC= 1.00D-01 BMatC= 1.72D-10 BMatP= 4.03D-10
 IDIUse=1 WtCom= 1.00D+00 WtEn= 0.00D+00
 Coeff-Com:  0.146D-05-0.353D-05-0.234D-04-0.480D-04-0.311D-04 0.256D-03
 Coeff-Com:  0.782D-03 0.372D-03-0.276D-02-0.481D-02-0.192D-03 0.240D-01
 Coeff-Com:  0.294D-01-0.453D-01-0.105D+00-0.553D-01 0.411D+00 0.748D+00
 Coeff:      0.146D-05-0.353D-05-0.234D-04-0.480D-04-0.311D-04 0.256D-03
 Coeff:      0.782D-03 0.372D-03-0.276D-02-0.481D-02-0.192D-03 0.240D-01
 Coeff:      0.294D-01-0.453D-01-0.105D+00-0.553D-01 0.411D+00 0.748D+00
 Gap=     0.102 Goal=   None    Shift=    0.000
 Gap=     0.137 Goal=   None    Shift=    0.000
 RMSDP=1.24D-08 MaxDP=6.62D-06 DE= 3.46D-11 OVMax= 8.58D-06

 Cycle  19  Pass 1  IDiag  1:
 RMSU=  6.13D-09    CP:  1.01D+00  9.67D-01  1.00D+00  9.03D-01  1.49D+00
                    CP:  1.91D+00  2.35D+00  2.24D+00  2.14D+00  1.73D+00
                    CP:  2.01D+00  2.84D+00  2.59D+00  2.66D+00  2.04D+00
                    CP:  1.63D+00  1.68D+00  1.35D+00
 E= -3417.53042744070     Delta-E=       -0.000000000551 Rises=F Damp=F
 DIIS: error= 1.54D-07 at cycle  19 NSaved=  19.
 NSaved=19 IEnMin=19 EnMin= -3417.53042744070     IErMin=19 ErrMin= 1.54D-07
 ErrMax= 1.54D-07  0.00D+00 EMaxC= 1.00D-01 BMatC= 6.48D-11 BMatP= 1.72D-10
 IDIUse=1 WtCom= 1.00D+00 WtEn= 0.00D+00
 Coeff-Com:  0.804D-06-0.158D-05-0.144D-04-0.384D-04-0.724D-04-0.547D-05
 Coeff-Com:  0.463D-03 0.932D-03-0.646D-03-0.391D-02-0.552D-02 0.450D-02
 Coeff-Com:  0.251D-01 0.160D-01-0.527D-01-0.139D+00-0.336D-01 0.371D+00
 Coeff-Com:  0.817D+00
 Coeff:      0.804D-06-0.158D-05-0.144D-04-0.384D-04-0.724D-04-0.547D-05
 Coeff:      0.463D-03 0.932D-03-0.646D-03-0.391D-02-0.552D-02 0.450D-02
 Coeff:      0.251D-01 0.160D-01-0.527D-01-0.139D+00-0.336D-01 0.371D+00
 Coeff:      0.817D+00
 Gap=     0.102 Goal=   None    Shift=    0.000
 Gap=     0.137 Goal=   None    Shift=    0.000
 RMSDP=9.45D-09 MaxDP=5.56D-06 DE=-5.51D-10 OVMax= 6.21D-06

 Cycle  20  Pass 1  IDiag  1:
 RMSU=  3.15D-09    CP:  1.01D+00  9.67D-01  1.00D+00  9.03D-01  1.49D+00
                    CP:  1.91D+00  2.35D+00  2.24D+00  2.14D+00  1.73D+00
                    CP:  2.01D+00  2.84D+00  2.59D+00  2.65D+00  2.05D+00
                    CP:  1.69D+00  1.88D+00  1.88D+00  1.53D+00
 E= -3417.53042744048     Delta-E=        0.000000000222 Rises=F Damp=F
 DIIS: error= 1.14D-07 at cycle  20 NSaved=  20.
 NSaved=20 IEnMin=19 EnMin= -3417.53042744070     IErMin=20 ErrMin= 1.14D-07
 ErrMax= 1.14D-07  0.00D+00 EMaxC= 1.00D-01 BMatC= 3.07D-11 BMatP= 6.48D-11
 IDIUse=1 WtCom= 1.00D+00 WtEn= 0.00D+00
 Coeff-Com: -0.499D-06 0.127D-05 0.713D-05 0.122D-04-0.885D-05-0.126D-03
 Coeff-Com: -0.253D-03 0.154D-03 0.121D-02 0.114D-02-0.184D-02-0.113D-01
 Coeff-Com: -0.602D-02 0.289D-01 0.363D-01-0.206D-01-0.228D+00-0.240D+00
 Coeff-Com:  0.316D+00 0.112D+01
 Coeff:     -0.499D-06 0.127D-05 0.713D-05 0.122D-04-0.885D-05-0.126D-03
 Coeff:     -0.253D-03 0.154D-03 0.121D-02 0.114D-02-0.184D-02-0.113D-01
 Coeff:     -0.602D-02 0.289D-01 0.363D-01-0.206D-01-0.228D+00-0.240D+00
 Coeff:      0.316D+00 0.112D+01
 Gap=     0.102 Goal=   None    Shift=    0.000
 Gap=     0.137 Goal=   None    Shift=    0.000
 RMSDP=1.00D-08 MaxDP=4.20D-06 DE= 2.22D-10 OVMax= 8.92D-06

 Cycle  21  Pass 1  IDiag  1:
 Restarting incremental Fock formation.
 E= -3417.53042744057     Delta-E=       -0.000000000096 Rises=F Damp=F
 DIIS: error= 8.19D-08 at cycle  21 NSaved=  20.
 NSaved=20 IEnMin=18 EnMin= -3417.53042744070     IErMin=20 ErrMin= 8.19D-08
 ErrMax= 8.19D-08  0.00D+00 EMaxC= 1.00D-01 BMatC= 1.50D-11 BMatP= 3.07D-11
 IDIUse=1 WtCom= 1.00D+00 WtEn= 0.00D+00
 Coeff-Com:  0.276D-07 0.240D-05 0.609D-05 0.108D-04-0.738D-05-0.127D-03
 Coeff-Com: -0.245D-03 0.261D-03 0.130D-02 0.167D-02-0.312D-02-0.992D-02
 Coeff-Com: -0.121D-02 0.250D-01 0.554D-01-0.288D-01-0.209D+00-0.304D+00
 Coeff-Com:  0.210D+00 0.126D+01
 Coeff:      0.276D-07 0.240D-05 0.609D-05 0.108D-04-0.738D-05-0.127D-03
 Coeff:     -0.245D-03 0.261D-03 0.130D-02 0.167D-02-0.312D-02-0.992D-02
 Coeff:     -0.121D-02 0.250D-01 0.554D-01-0.288D-01-0.209D+00-0.304D+00
 Coeff:      0.210D+00 0.126D+01
 Gap=     0.102 Goal=   None    Shift=    0.000
 Gap=     0.137 Goal=   None    Shift=    0.000
 RMSDP=8.70D-09 MaxDP=1.62D-06 DE=-9.64D-11 OVMax= 8.54D-06

 Cycle  22  Pass 1  IDiag  1:
 RMSU=  8.68D-09    CP:  1.00D+00
 E= -3417.53042744108     Delta-E=       -0.000000000506 Rises=F Damp=F
 DIIS: error= 5.64D-08 at cycle  22 NSaved=  20.
 NSaved=20 IEnMin=20 EnMin= -3417.53042744108     IErMin=20 ErrMin= 5.64D-08
 ErrMax= 5.64D-08  0.00D+00 EMaxC= 1.00D-01 BMatC= 8.29D-12 BMatP= 1.50D-11
 IDIUse=1 WtCom= 1.00D+00 WtEn= 0.00D+00
 Coeff-Com:  0.130D-05 0.580D-05 0.268D-04 0.584D-04-0.880D-05-0.338D-03
 Coeff-Com: -0.420D-03 0.478D-03 0.245D-02 0.487D-02-0.319D-02-0.189D-01
 Coeff-Com: -0.863D-02 0.430D-01 0.128D+00 0.492D-01-0.329D+00-0.602D+00
 Coeff-Com:  0.517D+00 0.122D+01
 Coeff:      0.130D-05 0.580D-05 0.268D-04 0.584D-04-0.880D-05-0.338D-03
 Coeff:     -0.420D-03 0.478D-03 0.245D-02 0.487D-02-0.319D-02-0.189D-01
 Coeff:     -0.863D-02 0.430D-01 0.128D+00 0.492D-01-0.329D+00-0.602D+00
 Coeff:      0.517D+00 0.122D+01
 Gap=     0.102 Goal=   None    Shift=    0.000
 Gap=     0.137 Goal=   None    Shift=    0.000
 RMSDP=7.24D-09 MaxDP=1.21D-06 DE=-5.06D-10 OVMax= 8.58D-06

 Cycle  23  Pass 1  IDiag  1:
 RMSU=  3.35D-09    CP:  1.00D+00  1.74D+00
 E= -3417.53042744090     Delta-E=        0.000000000180 Rises=F Damp=F
 DIIS: error= 3.21D-08 at cycle  23 NSaved=  20.
 NSaved=20 IEnMin=19 EnMin= -3417.53042744108     IErMin=20 ErrMin= 3.21D-08
 ErrMax= 3.21D-08  0.00D+00 EMaxC= 1.00D-01 BMatC= 3.31D-12 BMatP= 8.29D-12
 IDIUse=1 WtCom= 1.00D+00 WtEn= 0.00D+00
 Coeff-Com:  0.116D-05 0.980D-05 0.277D-04 0.435D-04-0.552D-04-0.249D-03
 Coeff-Com: -0.288D-03 0.189D-03 0.273D-02 0.221D-02-0.587D-02-0.119D-01
 Coeff-Com: -0.596D-02 0.626D-01 0.103D+00-0.569D-02-0.313D+00-0.378D+00
 Coeff-Com:  0.453D+00 0.110D+01
 Coeff:      0.116D-05 0.980D-05 0.277D-04 0.435D-04-0.552D-04-0.249D-03
 Coeff:     -0.288D-03 0.189D-03 0.273D-02 0.221D-02-0.587D-02-0.119D-01
 Coeff:     -0.596D-02 0.626D-01 0.103D+00-0.569D-02-0.313D+00-0.378D+00
 Coeff:      0.453D+00 0.110D+01
 Gap=     0.102 Goal=   None    Shift=    0.000
 Gap=     0.137 Goal=   None    Shift=    0.000
 RMSDP=5.10D-09 MaxDP=8.30D-07 DE= 1.80D-10 OVMax= 5.84D-06

 Error on total polarization charges =  0.02383
 SCF Done:  E(UM062X) =  -3417.53042744     A.U. after   23 cycles
            NFock= 23  Conv=0.51D-08     -V/T= 2.0044
 <Sx>= 0.0000 <Sy>= 0.0000 <Sz>= 0.5000 <S**2>= 0.8002 S= 0.5248
 <L.S>= 0.000000000000E+00
 KE= 3.402491003669D+03 PE=-2.249868089437D+04 EE= 8.454714453948D+03
 Annihilation of the first spin contaminant:
 S**2 before annihilation     0.8002,   after     0.7519
 Leave Link  502 at Thu Nov  6 05:46:22 2025, MaxMem= 30870077440 cpu:          159879.0 elap:            2528.3
 (Enter /public/software/gauss/g16/l601.exe)
 Copying SCF densities to generalized density rwf, IOpCl= 1 IROHF=0.

 **********************************************************************

            Population analysis using the SCF density.

 **********************************************************************

 Orbital symmetries:
 Alpha Orbitals:
       Occupied  (A) (A) (A) (A) (A) (A) (A) (A) (A) (A) (A) (A)
                 (A) (A) (A) (A) (A) (A) (A) (A) (A) (A) (A) (A)
                 (A) (A) (A) (A) (A) (A) (A) (A) (A) (A) (A) (A)
                 (A) (A) (A) (A) (A) (A) (A) (A) (A) (A) (A) (A)
                 (A) (A) (A) (A) (A) (A) (A) (A) (A) (A) (A) (A)
                 (A) (A) (A) (A) (A) (A) (A) (A) (A) (A) (A) (A)
                 (A) (A) (A) (A) (A) (A) (A) (A) (A) (A) (A) (A)
                 (A) (A) (A) (A) (A) (A) (A) (A) (A) (A) (A) (A)
                 (A) (A) (A) (A) (A) (A) (A) (A) (A) (A) (A) (A)
                 (A) (A) (A) (A) (A) (A) (A) (A) (A) (A) (A) (A)
                 (A) (A) (A) (A) (A) (A) (A) (A) (A) (A) (A) (A)
                 (A) (A) (A) (A) (A) (A) (A) (A) (A) (A) (A) (A)
                 (A) (A) (A) (A) (A) (A) (A) (A) (A) (A) (A) (A)
                 (A) (A) (A) (A) (A) (A) (A) (A) (A) (A) (A) (A)
                 (A) (A) (A) (A) (A) (A) (A) (A) (A) (A) (A) (A)
                 (A) (A) (A) (A) (A) (A) (A) (A) (A) (A) (A) (A)
                 (A) (A) (A) (A) (A) (A) (A) (A) (A) (A) (A) (A)
                 (A)
       Virtual   (A) (A) (A) (A) (A) (A) (A) (A) (A) (A) (A) (A)
                 (A) (A) (A) (A) (A) (A) (A) (A) (A) (A) (A) (A)
                 (A) (A) (A) (A) (A) (A) (A) (A) (A) (A) (A) (A)
                 (A) (A) (A) (A) (A) (A) (A) (A) (A) (A) (A) (A)
                 (A) (A) (A) (A) (A) (A) (A) (A) (A) (A) (A) (A)
                 (A) (A) (A) (A) (A) (A) (A) (A) (A) (A) (A) (A)
                 (A) (A) (A) (A) (A) (A) (A) (A) (A) (A) (A) (A)
                 (A) (A) (A) (A) (A) (A) (A) (A) (A) (A) (A) (A)
                 (A) (A) (A) (A) (A) (A) (A) (A) (A) (A) (A) (A)
                 (A) (A) (A) (A) (A) (A) (A) (A) (A) (A) (A) (A)
                 (A) (A) (A) (A) (A) (A) (A) (A) (A) (A) (A) (A)
                 (A) (A) (A) (A) (A) (A) (A) (A) (A) (A) (A) (A)
                 (A) (A) (A) (A) (A) (A) (A) (A) (A) (A) (A) (A)
                 (A) (A) (A) (A) (A) (A) (A) (A) (A) (A) (A) (A)
                 (A) (A) (A) (A) (A) (A) (A) (A) (A) (A) (A) (A)
                 (A) (A) (A) (A) (A) (A) (A) (A) (A) (A) (A) (A)
                 (A) (A) (A) (A) (A) (A) (A) (A) (A) (A) (A) (A)
                 (A) (A) (A) (A) (A) (A) (A) (A) (A) (A) (A) (A)
                 (A) (A) (A) (A) (A) (A) (A) (A) (A) (A) (A) (A)
                 (A) (A) (A) (A) (A) (A) (A) (A) (A) (A) (A) (A)
                 (A) (A) (A) (A) (A) (A) (A) (A) (A) (A) (A) (A)
                 (A) (A) (A) (A) (A) (A) (A) (A) (A) (A) (A) (A)
                 (A) (A) (A) (A) (A) (A) (A) (A) (A) (A) (A) (A)
                 (A) (A) (A) (A) (A) (A) (A) (A) (A) (A) (A) (A)
                 (A) (A) (A) (A) (A) (A) (A) (A) (A) (A) (A) (A)
                 (A) (A) (A) (A) (A) (A) (A) (A) (A) (A) (A) (A)
                 (A) (A) (A) (A) (A) (A) (A) (A) (A) (A) (A) (A)
                 (A) (A) (A) (A) (A) (A) (A) (A) (A) (A) (A) (A)
                 (A) (A) (A) (A) (A) (A) (A) (A) (A) (A) (A) (A)
                 (A) (A) (A) (A) (A) (A) (A) (A) (A) (A) (A) (A)
                 (A) (A) (A) (A) (A) (A) (A) (A) (A) (A) (A) (A)
                 (A) (A) (A) (A) (A) (A) (A) (A) (A) (A) (A) (A)
                 (A) (A) (A) (A) (A) (A) (A) (A) (A) (A) (A) (A)
                 (A) (A) (A) (A) (A) (A) (A) (A) (A) (A) (A) (A)
                 (A) (A) (A) (A) (A) (A) (A) (A) (A) (A) (A) (A)
                 (A) (A) (A) (A) (A) (A) (A) (A) (A) (A) (A) (A)
                 (A) (A) (A) (A) (A) (A) (A) (A) (A) (A) (A) (A)
                 (A) (A) (A) (A) (A) (A) (A) (A) (A) (A) (A) (A)
                 (A) (A) (A) (A) (A) (A) (A) (A) (A) (A) (A) (A)
                 (A) (A) (A) (A) (A) (A) (A) (A) (A) (A) (A) (A)
                 (A) (A) (A) (A) (A) (A) (A) (A) (A) (A) (A) (A)
                 (A) (A) (A) (A) (A) (A) (A) (A) (A) (A) (A) (A)
                 (A) (A) (A) (A) (A) (A) (A) (A) (A) (A) (A) (A)
                 (A) (A) (A) (A) (A) (A) (A) (A) (A) (A) (A) (A)
                 (A) (A) (A) (A) (A) (A) (A) (A) (A) (A) (A) (A)
                 (A) (A) (A) (A) (A) (A) (A) (A) (A) (A) (A) (A)
                 (A) (A) (A) (A) (A) (A) (A) (A) (A) (A) (A) (A)
                 (A) (A) (A) (A) (A) (A) (A) (A) (A) (A) (A) (A)
                 (A) (A) (A) (A) (A) (A) (A) (A) (A) (A) (A) (A)
                 (A) (A) (A) (A) (A) (A) (A) (A) (A) (A) (A) (A)
                 (A) (A) (A) (A) (A) (A) (A) (A) (A) (A) (A) (A)
                 (A) (A) (A) (A) (A) (A) (A) (A) (A) (A) (A) (A)
                 (A) (A) (A) (A) (A) (A) (A) (A) (A) (A) (A) (A)
                 (A) (A) (A) (A) (A) (A) (A) (A) (A) (A) (A) (A)
                 (A) (A) (A) (A) (A) (A) (A) (A) (A) (A) (A) (A)
                 (A) (A) (A) (A) (A) (A) (A) (A) (A) (A) (A) (A)
                 (A) (A) (A) (A) (A) (A) (A) (A) (A) (A) (A) (A)
                 (A) (A) (A) (A) (A) (A) (A) (A) (A) (A) (A) (A)
                 (A) (A) (A) (A) (A) (A) (A) (A) (A) (A) (A) (A)
                 (A) (A) (A) (A) (A) (A) (A) (A) (A) (A) (A) (A)
                 (A) (A) (A) (A) (A) (A) (A) (A) (A) (A) (A) (A)
                 (A) (A) (A) (A) (A) (A) (A) (A) (A) (A) (A) (A)
                 (A) (A) (A) (A) (A) (A) (A) (A) (A) (A) (A) (A)
                 (A) (A) (A) (A) (A) (A) (A) (A) (A) (A) (A) (A)
                 (A) (A) (A) (A) (A) (A) (A) (A) (A) (A) (A) (A)
                 (A) (A) (A) (A) (A) (A) (A) (A) (A) (A) (A) (A)
                 (A) (A) (A) (A) (A) (A) (A) (A) (A) (A) (A) (A)
                 (A) (A) (A) (A) (A) (A) (A) (A) (A) (A) (A) (A)
                 (A) (A) (A) (A) (A) (A) (A) (A) (A) (A) (A) (A)
                 (A) (A) (A) (A) (A) (A) (A) (A) (A) (A) (A) (A)
                 (A) (A) (A) (A) (A) (A) (A) (A) (A) (A) (A) (A)
                 (A) (A) (A) (A) (A) (A) (A) (A) (A) (A) (A) (A)
                 (A) (A) (A) (A) (A) (A) (A) (A) (A) (A) (A) (A)
                 (A) (A) (A) (A) (A) (A) (A) (A) (A) (A) (A) (A)
                 (A) (A) (A) (A) (A) (A) (A) (A) (A) (A) (A) (A)
                 (A) (A) (A) (A) (A) (A) (A) (A) (A) (A) (A) (A)
                 (A) (A) (A) (A) (A) (A) (A) (A) (A) (A) (A) (A)
                 (A) (A) (A) (A) (A) (A) (A) (A) (A) (A) (A) (A)
                 (A) (A) (A) (A) (A) (A) (A) (A) (A) (A) (A) (A)
                 (A) (A) (A) (A) (A) (A) (A) (A) (A) (A) (A) (A)
                 (A) (A) (A) (A) (A) (A) (A) (A) (A) (A) (A) (A)
                 (A) (A) (A) (A) (A) (A) (A) (A) (A) (A) (A) (A)
                 (A) (A) (A) (A) (A) (A) (A) (A) (A) (A) (A) (A)
                 (A) (A) (A) (A) (A) (A) (A) (A) (A) (A) (A) (A)
                 (A) (A) (A) (A) (A) (A) (A) (A) (A) (A) (A) (A)
                 (A) (A) (A) (A) (A) (A) (A) (A) (A) (A) (A) (A)
                 (A) (A) (A) (A) (A) (A) (A) (A) (A) (A) (A) (A)
                 (A) (A) (A) (A) (A) (A) (A) (A) (A) (A) (A) (A)
                 (A) (A) (A) (A) (A) (A) (A) (A) (A) (A) (A) (A)
                 (A) (A) (A) (A) (A) (A) (A) (A) (A) (A) (A) (A)
                 (A) (A) (A) (A) (A) (A) (A) (A) (A) (A) (A) (A)
                 (A) (A) (A) (A) (A) (A) (A) (A) (A) (A) (A) (A)
                 (A) (A) (A) (A) (A) (A) (A) (A) (A) (A) (A) (A)
                 (A) (A) (A) (A) (A) (A) (A) (A) (A) (A) (A) (A)
                 (A) (A) (A) (A) (A) (A) (A) (A) (A) (A) (A) (A)
                 (A) (A) (A) (A) (A) (A) (A) (A) (A) (A) (A) (A)
                 (A) (A) (A) (A) (A) (A) (A) (A) (A) (A) (A) (A)
                 (A) (A) (A) (A) (A) (A) (A) (A) (A) (A) (A) (A)
                 (A) (A) (A) (A) (A) (A) (A) (A) (A) (A) (A) (A)
                 (A) (A) (A) (A) (A) (A) (A) (A) (A) (A) (A) (A)
                 (A) (A) (A) (A) (A) (A) (A) (A) (A) (A) (A) (A)
                 (A) (A) (A) (A) (A) (A) (A) (A) (A) (A) (A) (A)
                 (A) (A) (A) (A) (A) (A) (A) (A) (A) (A) (A) (A)
                 (A) (A) (A) (A) (A) (A) (A) (A) (A) (A) (A) (A)
                 (A) (A) (A) (A) (A) (A) (A) (A) (A) (A) (A) (A)
                 (A) (A) (A) (A) (A) (A) (A) (A) (A) (A) (A) (A)
                 (A) (A) (A) (A) (A) (A) (A) (A) (A) (A) (A) (A)
                 (A) (A) (A) (A) (A) (A) (A) (A) (A) (A) (A) (A)
                 (A) (A) (A) (A) (A) (A) (A) (A) (A) (A) (A) (A)
                 (A) (A) (A) (A) (A) (A) (A) (A) (A) (A) (A) (A)
                 (A) (A) (A) (A) (A) (A) (A) (A) (A) (A) (A) (A)
                 (A) (A) (A) (A) (A) (A) (A) (A) (A) (A) (A) (A)
                 (A) (A) (A) (A) (A) (A) (A) (A) (A) (A) (A) (A)
                 (A) (A) (A) (A) (A) (A) (A) (A) (A) (A) (A) (A)
                 (A) (A) (A) (A) (A) (A) (A) (A) (A) (A) (A) (A)
                 (A) (A) (A) (A) (A) (A) (A) (A) (A) (A) (A) (A)
                 (A) (A) (A) (A) (A) (A) (A) (A) (A) (A) (A) (A)
                 (A) (A) (A) (A) (A) (A) (A) (A) (A) (A) (A) (A)
                 (A) (A) (A) (A) (A) (A) (A) (A) (A) (A) (A) (A)
                 (A) (A) (A) (A) (A) (A) (A) (A) (A) (A) (A) (A)
                 (A) (A) (A) (A) (A) (A) (A) (A) (A) (A) (A) (A)
                 (A) (A) (A) (A) (A) (A) (A) (A) (A) (A) (A) (A)
                 (A) (A) (A) (A) (A) (A) (A) (A) (A) (A) (A) (A)
                 (A) (A) (A) (A) (A) (A) (A) (A) (A) (A) (A) (A)
                 (A) (A) (A) (A) (A) (A) (A) (A) (A) (A) (A) (A)
                 (A) (A) (A) (A) (A) (A) (A) (A) (A) (A) (A) (A)
                 (A) (A) (A) (A) (A) (A) (A) (A) (A) (A) (A) (A)
                 (A) (A) (A) (A) (A) (A) (A) (A) (A) (A) (A) (A)
                 (A) (A) (A) (A) (A) (A) (A) (A) (A) (A) (A) (A)
                 (A) (A) (A) (A) (A) (A) (A) (A) (A) (A) (A) (A)
                 (A) (A) (A) (A) (A) (A) (A) (A) (A) (A) (A) (A)
                 (A) (A) (A) (A) (A) (A) (A) (A) (A) (A) (A) (A)
                 (A) (A) (A) (A) (A) (A) (A) (A) (A) (A) (A) (A)
                 (A) (A) (A) (A) (A) (A) (A) (A) (A) (A) (A) (A)
                 (A) (A) (A) (A) (A) (A) (A) (A) (A) (A) (A) (A)
                 (A) (A) (A) (A) (A) (A) (A) (A) (A) (A) (A) (A)
                 (A) (A) (A) (A) (A) (A) (A) (A) (A) (A) (A) (A)
                 (A) (A) (A) (A) (A) (A) (A) (A) (A) (A) (A) (A)
                 (A) (A) (A) (A) (A) (A) (A) (A) (A) (A) (A) (A)
                 (A) (A) (A) (A) (A) (A) (A) (A) (A) (A) (A) (A)
                 (A) (A) (A) (A) (A) (A) (A) (A) (A) (A) (A) (A)
                 (A) (A) (A) (A) (A) (A) (A) (A) (A) (A) (A) (A)
                 (A) (A) (A) (A) (A) (A) (A) (A) (A) (A) (A) (A)
                 (A) (A) (A) (A) (A) (A) (A) (A) (A) (A) (A) (A)
                 (A) (A) (A) (A) (A) (A) (A) (A) (A) (A) (A) (A)
                 (A) (A) (A) (A) (A) (A) (A) (A) (A) (A) (A) (A)
                 (A) (A) (A) (A) (A) (A) (A) (A) (A) (A) (A) (A)
                 (A) (A) (A) (A) (A) (A) (A) (A) (A) (A) (A) (A)
                 (A) (A) (A) (A) (A) (A) (A) (A) (A) (A) (A) (A)
                 (A) (A) (A) (A) (A) (A) (A) (A) (A) (A) (A) (A)
                 (A) (A) (A) (A) (A) (A) (A) (A) (A) (A) (A) (A)
                 (A) (A) (A) (A) (A) (A) (A) (A) (A) (A) (A) (A)
                 (A) (A) (A) (A) (A) (A) (A) (A) (A) (A) (A) (A)
                 (A) (A) (A) (A) (A) (A) (A) (A) (A) (A) (A) (A)
                 (A) (A) (A) (A) (A) (A) (A) (A) (A) (A) (A) (A)
                 (A) (A) (A) (A) (A) (A) (A) (A) (A) (A) (A) (A)
                 (A) (A) (A) (A) (A) (A) (A) (A) (A) (A) (A) (A)
                 (A) (A) (A) (A) (A) (A) (A) (A) (A) (A) (A) (A)
                 (A) (A) (A) (A)
 Beta  Orbitals:
       Occupied  (A) (A) (A) (A) (A) (A) (A) (A) (A) (A) (A) (A)
                 (A) (A) (A) (A) (A) (A) (A) (A) (A) (A) (A) (A)
                 (A) (A) (A) (A) (A) (A) (A) (A) (A) (A) (A) (A)
                 (A) (A) (A) (A) (A) (A) (A) (A) (A) (A) (A) (A)
                 (A) (A) (A) (A) (A) (A) (A) (A) (A) (A) (A) (A)
                 (A) (A) (A) (A) (A) (A) (A) (A) (A) (A) (A) (A)
                 (A) (A) (A) (A) (A) (A) (A) (A) (A) (A) (A) (A)
                 (A) (A) (A) (A) (A) (A) (A) (A) (A) (A) (A) (A)
                 (A) (A) (A) (A) (A) (A) (A) (A) (A) (A) (A) (A)
                 (A) (A) (A) (A) (A) (A) (A) (A) (A) (A) (A) (A)
                 (A) (A) (A) (A) (A) (A) (A) (A) (A) (A) (A) (A)
                 (A) (A) (A) (A) (A) (A) (A) (A) (A) (A) (A) (A)
                 (A) (A) (A) (A) (A) (A) (A) (A) (A) (A) (A) (A)
                 (A) (A) (A) (A) (A) (A) (A) (A) (A) (A) (A) (A)
                 (A) (A) (A) (A) (A) (A) (A) (A) (A) (A) (A) (A)
                 (A) (A) (A) (A) (A) (A) (A) (A) (A) (A) (A) (A)
                 (A) (A) (A) (A) (A) (A) (A) (A) (A) (A) (A) (A)
       Virtual   (A) (A) (A) (A) (A) (A) (A) (A) (A) (A) (A) (A)
                 (A) (A) (A) (A) (A) (A) (A) (A) (A) (A) (A) (A)
                 (A) (A) (A) (A) (A) (A) (A) (A) (A) (A) (A) (A)
                 (A) (A) (A) (A) (A) (A) (A) (A) (A) (A) (A) (A)
                 (A) (A) (A) (A) (A) (A) (A) (A) (A) (A) (A) (A)
                 (A) (A) (A) (A) (A) (A) (A) (A) (A) (A) (A) (A)
                 (A) (A) (A) (A) (A) (A) (A) (A) (A) (A) (A) (A)
                 (A) (A) (A) (A) (A) (A) (A) (A) (A) (A) (A) (A)
                 (A) (A) (A) (A) (A) (A) (A) (A) (A) (A) (A) (A)
                 (A) (A) (A) (A) (A) (A) (A) (A) (A) (A) (A) (A)
                 (A) (A) (A) (A) (A) (A) (A) (A) (A) (A) (A) (A)
                 (A) (A) (A) (A) (A) (A) (A) (A) (A) (A) (A) (A)
                 (A) (A) (A) (A) (A) (A) (A) (A) (A) (A) (A) (A)
                 (A) (A) (A) (A) (A) (A) (A) (A) (A) (A) (A) (A)
                 (A) (A) (A) (A) (A) (A) (A) (A) (A) (A) (A) (A)
                 (A) (A) (A) (A) (A) (A) (A) (A) (A) (A) (A) (A)
                 (A) (A) (A) (A) (A) (A) (A) (A) (A) (A) (A) (A)
                 (A) (A) (A) (A) (A) (A) (A) (A) (A) (A) (A) (A)
                 (A) (A) (A) (A) (A) (A) (A) (A) (A) (A) (A) (A)
                 (A) (A) (A) (A) (A) (A) (A) (A) (A) (A) (A) (A)
                 (A) (A) (A) (A) (A) (A) (A) (A) (A) (A) (A) (A)
                 (A) (A) (A) (A) (A) (A) (A) (A) (A) (A) (A) (A)
                 (A) (A) (A) (A) (A) (A) (A) (A) (A) (A) (A) (A)
                 (A) (A) (A) (A) (A) (A) (A) (A) (A) (A) (A) (A)
                 (A) (A) (A) (A) (A) (A) (A) (A) (A) (A) (A) (A)
                 (A) (A) (A) (A) (A) (A) (A) (A) (A) (A) (A) (A)
                 (A) (A) (A) (A) (A) (A) (A) (A) (A) (A) (A) (A)
                 (A) (A) (A) (A) (A) (A) (A) (A) (A) (A) (A) (A)
                 (A) (A) (A) (A) (A) (A) (A) (A) (A) (A) (A) (A)
                 (A) (A) (A) (A) (A) (A) (A) (A) (A) (A) (A) (A)
                 (A) (A) (A) (A) (A) (A) (A) (A) (A) (A) (A) (A)
                 (A) (A) (A) (A) (A) (A) (A) (A) (A) (A) (A) (A)
                 (A) (A) (A) (A) (A) (A) (A) (A) (A) (A) (A) (A)
                 (A) (A) (A) (A) (A) (A) (A) (A) (A) (A) (A) (A)
                 (A) (A) (A) (A) (A) (A) (A) (A) (A) (A) (A) (A)
                 (A) (A) (A) (A) (A) (A) (A) (A) (A) (A) (A) (A)
                 (A) (A) (A) (A) (A) (A) (A) (A) (A) (A) (A) (A)
                 (A) (A) (A) (A) (A) (A) (A) (A) (A) (A) (A) (A)
                 (A) (A) (A) (A) (A) (A) (A) (A) (A) (A) (A) (A)
                 (A) (A) (A) (A) (A) (A) (A) (A) (A) (A) (A) (A)
                 (A) (A) (A) (A) (A) (A) (A) (A) (A) (A) (A) (A)
                 (A) (A) (A) (A) (A) (A) (A) (A) (A) (A) (A) (A)
                 (A) (A) (A) (A) (A) (A) (A) (A) (A) (A) (A) (A)
                 (A) (A) (A) (A) (A) (A) (A) (A) (A) (A) (A) (A)
                 (A) (A) (A) (A) (A) (A) (A) (A) (A) (A) (A) (A)
                 (A) (A) (A) (A) (A) (A) (A) (A) (A) (A) (A) (A)
                 (A) (A) (A) (A) (A) (A) (A) (A) (A) (A) (A) (A)
                 (A) (A) (A) (A) (A) (A) (A) (A) (A) (A) (A) (A)
                 (A) (A) (A) (A) (A) (A) (A) (A) (A) (A) (A) (A)
                 (A) (A) (A) (A) (A) (A) (A) (A) (A) (A) (A) (A)
                 (A) (A) (A) (A) (A) (A) (A) (A) (A) (A) (A) (A)
                 (A) (A) (A) (A) (A) (A) (A) (A) (A) (A) (A) (A)
                 (A) (A) (A) (A) (A) (A) (A) (A) (A) (A) (A) (A)
                 (A) (A) (A) (A) (A) (A) (A) (A) (A) (A) (A) (A)
                 (A) (A) (A) (A) (A) (A) (A) (A) (A) (A) (A) (A)
                 (A) (A) (A) (A) (A) (A) (A) (A) (A) (A) (A) (A)
                 (A) (A) (A) (A) (A) (A) (A) (A) (A) (A) (A) (A)
                 (A) (A) (A) (A) (A) (A) (A) (A) (A) (A) (A) (A)
                 (A) (A) (A) (A) (A) (A) (A) (A) (A) (A) (A) (A)
                 (A) (A) (A) (A) (A) (A) (A) (A) (A) (A) (A) (A)
                 (A) (A) (A) (A) (A) (A) (A) (A) (A) (A) (A) (A)
                 (A) (A) (A) (A) (A) (A) (A) (A) (A) (A) (A) (A)
                 (A) (A) (A) (A) (A) (A) (A) (A) (A) (A) (A) (A)
                 (A) (A) (A) (A) (A) (A) (A) (A) (A) (A) (A) (A)
                 (A) (A) (A) (A) (A) (A) (A) (A) (A) (A) (A) (A)
                 (A) (A) (A) (A) (A) (A) (A) (A) (A) (A) (A) (A)
                 (A) (A) (A) (A) (A) (A) (A) (A) (A) (A) (A) (A)
                 (A) (A) (A) (A) (A) (A) (A) (A) (A) (A) (A) (A)
                 (A) (A) (A) (A) (A) (A) (A) (A) (A) (A) (A) (A)
                 (A) (A) (A) (A) (A) (A) (A) (A) (A) (A) (A) (A)
                 (A) (A) (A) (A) (A) (A) (A) (A) (A) (A) (A) (A)
                 (A) (A) (A) (A) (A) (A) (A) (A) (A) (A) (A) (A)
                 (A) (A) (A) (A) (A) (A) (A) (A) (A) (A) (A) (A)
                 (A) (A) (A) (A) (A) (A) (A) (A) (A) (A) (A) (A)
                 (A) (A) (A) (A) (A) (A) (A) (A) (A) (A) (A) (A)
                 (A) (A) (A) (A) (A) (A) (A) (A) (A) (A) (A) (A)
                 (A) (A) (A) (A) (A) (A) (A) (A) (A) (A) (A) (A)
                 (A) (A) (A) (A) (A) (A) (A) (A) (A) (A) (A) (A)
                 (A) (A) (A) (A) (A) (A) (A) (A) (A) (A) (A) (A)
                 (A) (A) (A) (A) (A) (A) (A) (A) (A) (A) (A) (A)
                 (A) (A) (A) (A) (A) (A) (A) (A) (A) (A) (A) (A)
                 (A) (A) (A) (A) (A) (A) (A) (A) (A) (A) (A) (A)
                 (A) (A) (A) (A) (A) (A) (A) (A) (A) (A) (A) (A)
                 (A) (A) (A) (A) (A) (A) (A) (A) (A) (A) (A) (A)
                 (A) (A) (A) (A) (A) (A) (A) (A) (A) (A) (A) (A)
                 (A) (A) (A) (A) (A) (A) (A) (A) (A) (A) (A) (A)
                 (A) (A) (A) (A) (A) (A) (A) (A) (A) (A) (A) (A)
                 (A) (A) (A) (A) (A) (A) (A) (A) (A) (A) (A) (A)
                 (A) (A) (A) (A) (A) (A) (A) (A) (A) (A) (A) (A)
                 (A) (A) (A) (A) (A) (A) (A) (A) (A) (A) (A) (A)
                 (A) (A) (A) (A) (A) (A) (A) (A) (A) (A) (A) (A)
                 (A) (A) (A) (A) (A) (A) (A) (A) (A) (A) (A) (A)
                 (A) (A) (A) (A) (A) (A) (A) (A) (A) (A) (A) (A)
                 (A) (A) (A) (A) (A) (A) (A) (A) (A) (A) (A) (A)
                 (A) (A) (A) (A) (A) (A) (A) (A) (A) (A) (A) (A)
                 (A) (A) (A) (A) (A) (A) (A) (A) (A) (A) (A) (A)
                 (A) (A) (A) (A) (A) (A) (A) (A) (A) (A) (A) (A)
                 (A) (A) (A) (A) (A) (A) (A) (A) (A) (A) (A) (A)
                 (A) (A) (A) (A) (A) (A) (A) (A) (A) (A) (A) (A)
                 (A) (A) (A) (A) (A) (A) (A) (A) (A) (A) (A) (A)
                 (A) (A) (A) (A) (A) (A) (A) (A) (A) (A) (A) (A)
                 (A) (A) (A) (A) (A) (A) (A) (A) (A) (A) (A) (A)
                 (A) (A) (A) (A) (A) (A) (A) (A) (A) (A) (A) (A)
                 (A) (A) (A) (A) (A) (A) (A) (A) (A) (A) (A) (A)
                 (A) (A) (A) (A) (A) (A) (A) (A) (A) (A) (A) (A)
                 (A) (A) (A) (A) (A) (A) (A) (A) (A) (A) (A) (A)
                 (A) (A) (A) (A) (A) (A) (A) (A) (A) (A) (A) (A)
                 (A) (A) (A) (A) (A) (A) (A) (A) (A) (A) (A) (A)
                 (A) (A) (A) (A) (A) (A) (A) (A) (A) (A) (A) (A)
                 (A) (A) (A) (A) (A) (A) (A) (A) (A) (A) (A) (A)
                 (A) (A) (A) (A) (A) (A) (A) (A) (A) (A) (A) (A)
                 (A) (A) (A) (A) (A) (A) (A) (A) (A) (A) (A) (A)
                 (A) (A) (A) (A) (A) (A) (A) (A) (A) (A) (A) (A)
                 (A) (A) (A) (A) (A) (A) (A) (A) (A) (A) (A) (A)
                 (A) (A) (A) (A) (A) (A) (A) (A) (A) (A) (A) (A)
                 (A) (A) (A) (A) (A) (A) (A) (A) (A) (A) (A) (A)
                 (A) (A) (A) (A) (A) (A) (A) (A) (A) (A) (A) (A)
                 (A) (A) (A) (A) (A) (A) (A) (A) (A) (A) (A) (A)
                 (A) (A) (A) (A) (A) (A) (A) (A) (A) (A) (A) (A)
                 (A) (A) (A) (A) (A) (A) (A) (A) (A) (A) (A) (A)
                 (A) (A) (A) (A) (A) (A) (A) (A) (A) (A) (A) (A)
                 (A) (A) (A) (A) (A) (A) (A) (A) (A) (A) (A) (A)
                 (A) (A) (A) (A) (A) (A) (A) (A) (A) (A) (A) (A)
                 (A) (A) (A) (A) (A) (A) (A) (A) (A) (A) (A) (A)
                 (A) (A) (A) (A) (A) (A) (A) (A) (A) (A) (A) (A)
                 (A) (A) (A) (A) (A) (A) (A) (A) (A) (A) (A) (A)
                 (A) (A) (A) (A) (A) (A) (A) (A) (A) (A) (A) (A)
                 (A) (A) (A) (A) (A) (A) (A) (A) (A) (A) (A) (A)
                 (A) (A) (A) (A) (A) (A) (A) (A) (A) (A) (A) (A)
                 (A) (A) (A) (A) (A) (A) (A) (A) (A) (A) (A) (A)
                 (A) (A) (A) (A) (A) (A) (A) (A) (A) (A) (A) (A)
                 (A) (A) (A) (A) (A) (A) (A) (A) (A) (A) (A) (A)
                 (A) (A) (A) (A) (A) (A) (A) (A) (A) (A) (A) (A)
                 (A) (A) (A) (A) (A) (A) (A) (A) (A) (A) (A) (A)
                 (A) (A) (A) (A) (A) (A) (A) (A) (A) (A) (A) (A)
                 (A) (A) (A) (A) (A) (A) (A) (A) (A) (A) (A) (A)
                 (A) (A) (A) (A) (A) (A) (A) (A) (A) (A) (A) (A)
                 (A) (A) (A) (A) (A) (A) (A) (A) (A) (A) (A) (A)
                 (A) (A) (A) (A) (A) (A) (A) (A) (A) (A) (A) (A)
                 (A) (A) (A) (A) (A) (A) (A) (A) (A) (A) (A) (A)
                 (A) (A) (A) (A) (A) (A) (A) (A) (A) (A) (A) (A)
                 (A) (A) (A) (A) (A) (A) (A) (A) (A) (A) (A) (A)
                 (A) (A) (A) (A) (A) (A) (A) (A) (A) (A) (A) (A)
                 (A) (A) (A) (A) (A) (A) (A) (A) (A) (A) (A) (A)
                 (A) (A) (A) (A) (A) (A) (A) (A) (A) (A) (A) (A)
                 (A) (A) (A) (A) (A) (A) (A) (A) (A) (A) (A) (A)
                 (A) (A) (A) (A) (A) (A) (A) (A) (A) (A) (A) (A)
                 (A) (A) (A) (A) (A) (A) (A) (A) (A) (A) (A) (A)
                 (A) (A) (A) (A) (A) (A) (A) (A) (A) (A) (A) (A)
                 (A) (A) (A) (A) (A) (A) (A) (A) (A) (A) (A) (A)
                 (A) (A) (A) (A) (A) (A) (A) (A) (A) (A) (A) (A)
                 (A) (A) (A) (A) (A) (A) (A) (A) (A) (A) (A) (A)
                 (A) (A) (A) (A) (A) (A) (A) (A) (A) (A) (A) (A)
                 (A) (A) (A) (A) (A) (A) (A) (A) (A) (A) (A) (A)
                 (A) (A) (A) (A) (A) (A) (A) (A) (A) (A) (A) (A)
                 (A) (A) (A) (A) (A) (A) (A) (A) (A) (A) (A) (A)
                 (A) (A) (A) (A) (A) (A) (A) (A) (A) (A) (A) (A)
                 (A) (A) (A) (A) (A) (A) (A) (A) (A) (A) (A) (A)
                 (A) (A) (A) (A) (A)
 The electronic state is 2-A.
 Alpha  occ. eigenvalues --  -90.14116 -90.14095 -25.19601 -25.19395 -19.69355
 Alpha  occ. eigenvalues --  -19.69334 -19.68980 -19.68854 -19.68577 -19.68555
 Alpha  occ. eigenvalues --  -19.64451 -19.64434 -19.64285 -19.64254 -19.63916
 Alpha  occ. eigenvalues --  -15.02318 -15.02111 -14.76688 -14.76658 -10.65632
 Alpha  occ. eigenvalues --  -10.63788 -10.63168 -10.61454 -10.60206 -10.59371
 Alpha  occ. eigenvalues --  -10.59135 -10.59100 -10.58324 -10.58321 -10.58232
 Alpha  occ. eigenvalues --  -10.57697 -10.57695 -10.57666 -10.57619 -10.57398
 Alpha  occ. eigenvalues --  -10.57288 -10.57284 -10.57269 -10.57250 -10.56375
 Alpha  occ. eigenvalues --  -10.56082 -10.56056 -10.55981 -10.55943 -10.55709
 Alpha  occ. eigenvalues --  -10.55675 -10.55009 -10.54964 -10.54950 -10.54943
 Alpha  occ. eigenvalues --  -10.54041 -10.53356 -10.53352 -10.53289  -8.46565
 Alpha  occ. eigenvalues --   -8.46544  -7.11817  -6.38835  -6.38814  -6.38616
 Alpha  occ. eigenvalues --   -6.38612  -6.38595  -6.38590  -1.37967  -1.37627
 Alpha  occ. eigenvalues --   -1.31328  -1.28044  -1.27268  -1.27240  -1.19545
 Alpha  occ. eigenvalues --   -1.19187  -1.18251  -1.16685  -1.16663  -1.13948
 Alpha  occ. eigenvalues --   -1.13922  -1.08849  -1.06888  -1.03232  -0.98959
 Alpha  occ. eigenvalues --   -0.98926  -0.96048  -0.93210  -0.92518  -0.92069
 Alpha  occ. eigenvalues --   -0.90966  -0.89919  -0.89119  -0.87648  -0.87262
 Alpha  occ. eigenvalues --   -0.86677  -0.86623  -0.85682  -0.83190  -0.81415
 Alpha  occ. eigenvalues --   -0.81051  -0.79562  -0.78987  -0.78652  -0.76654
 Alpha  occ. eigenvalues --   -0.74730  -0.72959  -0.72253  -0.71718  -0.71225
 Alpha  occ. eigenvalues --   -0.70798  -0.70091  -0.68844  -0.68168  -0.67622
 Alpha  occ. eigenvalues --   -0.66732  -0.65650  -0.65230  -0.65149  -0.64835
 Alpha  occ. eigenvalues --   -0.64062  -0.63744  -0.63341  -0.62095  -0.61916
 Alpha  occ. eigenvalues --   -0.61862  -0.61780  -0.60963  -0.60757  -0.60120
 Alpha  occ. eigenvalues --   -0.58976  -0.58556  -0.58289  -0.58003  -0.57544
 Alpha  occ. eigenvalues --   -0.57349  -0.57088  -0.56587  -0.56235  -0.54843
 Alpha  occ. eigenvalues --   -0.54721  -0.54460  -0.53916  -0.53399  -0.53048
 Alpha  occ. eigenvalues --   -0.52805  -0.52454  -0.52178  -0.51997  -0.51929
 Alpha  occ. eigenvalues --   -0.51112  -0.50914  -0.50852  -0.50680  -0.50501
 Alpha  occ. eigenvalues --   -0.49586  -0.49017  -0.48619  -0.48566  -0.48042
 Alpha  occ. eigenvalues --   -0.47992  -0.47881  -0.47363  -0.47317  -0.47218
 Alpha  occ. eigenvalues --   -0.47154  -0.46704  -0.46437  -0.46149  -0.46001
[...]
 
              Baa    -0.0014    -0.184    -0.066    -0.061  0.1270 -0.6796  0.7225
    19 C(13)  Bbb     0.0002     0.021     0.008     0.007 -0.4040  0.6298  0.6634
              Bcc     0.0012     0.162     0.058     0.054  0.9059  0.3761  0.1946
 
              Baa    -0.0002    -0.009    -0.003    -0.003 -0.0575 -0.5059  0.8606
    20 N(14)  Bbb    -0.0000    -0.001    -0.000    -0.000  0.0256  0.8610  0.5079
              Bcc     0.0003     0.011     0.004     0.004  0.9980 -0.0512  0.0366
 
              Baa    -0.0005     0.037     0.013     0.013  0.0786 -0.5361  0.8405
    21 O(17)  Bbb    -0.0001     0.008     0.003     0.003  0.9751 -0.1341 -0.1767
              Bcc     0.0006    -0.046    -0.016    -0.015  0.2074  0.8335  0.5122
 
              Baa    -0.0012     0.087     0.031     0.029 -0.1105 -0.4515  0.8854
    22 O(17)  Bbb    -0.0008     0.061     0.022     0.020  0.9881 -0.1462  0.0487
              Bcc     0.0020    -0.148    -0.053    -0.049  0.1074  0.8802  0.4623
 
              Baa    -0.0934   -12.537    -4.473    -4.182  0.1392  0.0505  0.9890
    23 C(13)  Bbb     0.0406     5.445     1.943     1.816  0.8100  0.5687 -0.1431
              Bcc     0.0528     7.092     2.531     2.366 -0.5697  0.8210  0.0382
 
              Baa    -0.0449    -1.732    -0.618    -0.578 -0.0281  0.9987  0.0428
    24 N(14)  Bbb    -0.0360    -1.387    -0.495    -0.463  0.9597  0.0389 -0.2784
              Bcc     0.0809     3.119     1.113     1.040  0.2797 -0.0333  0.9595
 
              Baa    -0.0877   -11.769    -4.199    -3.926  0.4677  0.8792 -0.0908
    25 C(13)  Bbb    -0.0852   -11.429    -4.078    -3.812  0.8714 -0.4758 -0.1192
              Bcc     0.1729    23.198     8.278     7.738  0.1480  0.0234  0.9887
 
              Baa    -0.0613    -8.230    -2.937    -2.745  0.1331  0.0437  0.9901
    26 C(13)  Bbb     0.0298     4.002     1.428     1.335  0.1626  0.9845 -0.0653
              Bcc     0.0315     4.228     1.509     1.410  0.9777 -0.1697 -0.1239
 
              Baa    -0.0739    -9.920    -3.540    -3.309  0.9804 -0.1144 -0.1605
    27 C(13)  Bbb    -0.0722    -9.688    -3.457    -3.232  0.0937  0.9869 -0.1312
              Bcc     0.1461    19.608     6.997     6.540  0.1734  0.1136  0.9783
 
              Baa    -0.0024    -0.326    -0.116    -0.109 -0.5025  0.5281  0.6846
    28 C(13)  Bbb     0.0004     0.048     0.017     0.016  0.6491 -0.2926  0.7022
              Bcc     0.0021     0.278     0.099     0.093  0.5711  0.7972 -0.1957
 
              Baa    -0.0632    -8.485    -3.028    -2.830  0.1898  0.1169  0.9748
    29 C(13)  Bbb     0.0264     3.544     1.265     1.182  0.5763  0.7906 -0.2070
              Bcc     0.0368     4.940     1.763     1.648  0.7949 -0.6011 -0.0827
 
              Baa    -0.0745    -9.994    -3.566    -3.334 -0.1143  0.9860 -0.1217
    30 C(13)  Bbb    -0.0696    -9.341    -3.333    -3.116  0.9754  0.0881 -0.2021
              Bcc     0.1441    19.335     6.899     6.449  0.1886  0.1418  0.9718
 
              Baa    -0.0213    -2.853    -1.018    -0.952  0.1814  0.1301  0.9748
    31 C(13)  Bbb     0.0078     1.044     0.373     0.348  0.1956  0.9666 -0.1654
              Bcc     0.0135     1.809     0.645     0.603  0.9637 -0.2207 -0.1499
 
              Baa    -0.0193    -2.589    -0.924    -0.864  0.3985  0.8978 -0.1874
    32 C(13)  Bbb    -0.0168    -2.258    -0.806    -0.753  0.8946 -0.4255 -0.1363
              Bcc     0.0361     4.847     1.730     1.617  0.2021  0.1133  0.9728
 
              Baa    -0.0117    -1.575    -0.562    -0.525  0.2054  0.1122  0.9722
    33 C(13)  Bbb     0.0047     0.625     0.223     0.208  0.2165  0.9636 -0.1569
              Bcc     0.0071     0.951     0.339     0.317  0.9544 -0.2427 -0.1737
 
              Baa    -0.0246    -3.295    -1.176    -1.099  0.3486  0.9184 -0.1872
    34 C(13)  Bbb    -0.0213    -2.865    -1.022    -0.956  0.9071 -0.3809 -0.1793
              Bcc     0.0459     6.160     2.198     2.055  0.2360  0.1073  0.9658
 
              Baa    -0.0058    -0.236    -0.084    -0.079  0.9095 -0.3561 -0.2144
    35 S(33)  Bbb     0.0005     0.022     0.008     0.007  0.3238  0.9304 -0.1718
              Bcc     0.0052     0.214     0.076     0.071  0.2606  0.0868  0.9615
 
              Baa    -0.0041     0.295     0.105     0.098  0.7646 -0.3245  0.5568
    36 O(17)  Bbb    -0.0030     0.215     0.077     0.072  0.1620  0.9330  0.3214
              Bcc     0.0070    -0.510    -0.182    -0.170 -0.6238 -0.1555  0.7660
 
              Baa    -0.0040     0.290     0.104     0.097  0.8667 -0.3748  0.3293
    37 O(17)  Bbb    -0.0024     0.172     0.062     0.058  0.4950  0.7283 -0.4739
              Bcc     0.0064    -0.463    -0.165    -0.154 -0.0622  0.5737  0.8167
 
              Baa    -0.0071     0.515     0.184     0.172  0.3344 -0.4786  0.8118
    38 O(17)  Bbb    -0.0062     0.446     0.159     0.149  0.4810  0.8275  0.2897
              Bcc     0.0133    -0.961    -0.343    -0.321  0.8104 -0.2936 -0.5070
 
              Baa    -0.0131    -1.759    -0.628    -0.587  0.2053  0.1162  0.9718
    39 C(13)  Bbb     0.0054     0.721     0.257     0.241  0.5193  0.8287 -0.2088
              Bcc     0.0077     1.038     0.370     0.346  0.8295 -0.5475 -0.1098
 
              Baa    -0.0182    -2.447    -0.873    -0.816  0.4168  0.8904 -0.1831
    40 C(13)  Bbb    -0.0167    -2.243    -0.800    -0.748  0.8871 -0.4424 -0.1321
              Bcc     0.0349     4.690     1.673     1.564  0.1986  0.1073  0.9742
 
              Baa    -0.0012    -0.157    -0.056    -0.052  0.6629  0.3901 -0.6390
    41 C(13)  Bbb    -0.0006    -0.074    -0.027    -0.025  0.4676  0.4507  0.7604
              Bcc     0.0017     0.231     0.082     0.077 -0.5847  0.8029 -0.1164
 
              Baa    -0.0715    -9.593    -3.423    -3.200  0.0963 -0.0344  0.9948
    42 C(13)  Bbb     0.0299     4.008     1.430     1.337 -0.5426  0.8360  0.0815
              Bcc     0.0416     5.586     1.993     1.863  0.8345  0.5476 -0.0619
 
              Baa    -0.0867   -11.638    -4.153    -3.882  0.1625  0.9862  0.0320
    43 C(13)  Bbb    -0.0810   -10.870    -3.879    -3.626  0.9821 -0.1585 -0.1016
              Bcc     0.1677    22.508     8.031     7.508  0.0951 -0.0479  0.9943
 
              Baa    -0.0245    -3.284    -1.172    -1.095  0.0846 -0.0307  0.9959
    44 C(13)  Bbb     0.0089     1.195     0.426     0.399 -0.1552  0.9869  0.0436
              Bcc     0.0156     2.089     0.745     0.697  0.9842  0.1583 -0.0787
 
              Baa    -0.0226    -3.036    -1.083    -1.013 -0.3591  0.9320  0.0501
    45 C(13)  Bbb    -0.0198    -2.651    -0.946    -0.884  0.9277  0.3623 -0.0899
              Bcc     0.0424     5.687     2.029     1.897  0.1019 -0.0142  0.9947
 
              Baa    -0.0136    -1.823    -0.651    -0.608  0.1032 -0.0127  0.9946
    46 C(13)  Bbb     0.0054     0.720     0.257     0.240 -0.1752  0.9841  0.0307
              Bcc     0.0082     1.103     0.394     0.368  0.9791  0.1774 -0.0994
 
              Baa    -0.0289    -3.872    -1.382    -1.292 -0.3156  0.9475  0.0520
    47 C(13)  Bbb    -0.0251    -3.372    -1.203    -1.125  0.9401  0.3196 -0.1185
              Bcc     0.0540     7.244     2.585     2.416  0.1289 -0.0115  0.9916
 
              Baa    -0.0068    -0.279    -0.100    -0.093  0.9426  0.3015 -0.1437
    48 S(33)  Bbb     0.0006     0.025     0.009     0.008 -0.3002  0.9534  0.0311
              Bcc     0.0062     0.254     0.091     0.085  0.1464  0.0138  0.9891
 
              Baa    -0.0047     0.343     0.122     0.114  0.8419  0.3994  0.3628
    49 O(17)  Bbb    -0.0028     0.200     0.071     0.067 -0.5159  0.7929  0.3242
              Bcc     0.0075    -0.543    -0.194    -0.181 -0.1581 -0.4601  0.8737
 
              Baa    -0.0049     0.353     0.126     0.118  0.6942  0.3964  0.6008
    50 O(17)  Bbb    -0.0036     0.262     0.094     0.087 -0.1006  0.8799 -0.4643
              Bcc     0.0085    -0.615    -0.219    -0.205  0.7127 -0.2619 -0.6507
 
              Baa    -0.0083     0.604     0.215     0.201  0.2617  0.5781  0.7729
    51 O(17)  Bbb    -0.0072     0.522     0.186     0.174 -0.4057  0.7925 -0.4554
              Bcc     0.0156    -1.126    -0.402    -0.375  0.8758  0.1943 -0.4419
 
              Baa    -0.0153    -2.055    -0.733    -0.686  0.0991 -0.0188  0.9949
    52 C(13)  Bbb     0.0063     0.846     0.302     0.282 -0.4913  0.8685  0.0654
              Bcc     0.0090     1.209     0.431     0.403  0.8653  0.4953 -0.0769
 
              Baa    -0.0213    -2.861    -1.021    -0.954 -0.3694  0.9284  0.0409
    53 C(13)  Bbb    -0.0196    -2.632    -0.939    -0.878  0.9246  0.3716 -0.0836
              Bcc     0.0409     5.492     1.960     1.832  0.0928 -0.0069  0.9957
 
              Baa    -0.0069    -3.461    -1.235    -1.154  0.3303 -0.0716  0.9412
    54 F(19)  Bbb    -0.0050    -2.491    -0.889    -0.831  0.0470  0.9971  0.0593
              Bcc     0.0119     5.952     2.124     1.985  0.9427 -0.0247 -0.3327
 
              Baa    -0.0145    -7.302    -2.606    -2.436 -0.0190  0.9869  0.1601
    55 F(19)  Bbb    -0.0120    -6.022    -2.149    -2.009 -0.3509 -0.1565  0.9232
              Bcc     0.0265    13.324     4.754     4.444  0.9362 -0.0387  0.3493
 
              Baa    -0.0026    -1.409    -0.503    -0.470  0.0400 -0.0705  0.9967
    56 H(1)   Bbb    -0.0021    -1.122    -0.400    -0.374  0.1651  0.9843  0.0630
              Bcc     0.0047     2.531     0.903     0.844  0.9855 -0.1620 -0.0510
 
              Baa    -0.0027    -1.417    -0.506    -0.473 -0.6476  0.0197  0.7617
    57 H(1)   Bbb    -0.0017    -0.902    -0.322    -0.301 -0.3588  0.8740 -0.3276
              Bcc     0.0043     2.319     0.828     0.774  0.6722  0.4855  0.5590
 
              Baa    -0.0028    -1.515    -0.540    -0.505 -0.2475  0.8732  0.4200
    58 H(1)   Bbb    -0.0018    -0.986    -0.352    -0.329  0.7203  0.4557 -0.5229
              Bcc     0.0047     2.501     0.892     0.834  0.6480 -0.1731  0.7417
 
              Baa    -0.0003    -0.140    -0.050    -0.047 -0.1097  0.8841  0.4542
    59 H(1)   Bbb    -0.0002    -0.102    -0.036    -0.034 -0.3296 -0.4635  0.8225
              Bcc     0.0005     0.242     0.086     0.081  0.9377 -0.0595  0.3422
 
              Baa    -0.0003    -0.175    -0.062    -0.058  0.1116  0.2258  0.9678
    60 H(1)   Bbb    -0.0003    -0.173    -0.062    -0.058 -0.2807  0.9413 -0.1873
              Bcc     0.0007     0.347     0.124     0.116  0.9533  0.2507 -0.1685
 
              Baa    -0.0012    -0.615    -0.220    -0.205  0.1510 -0.0863  0.9848
    61 H(1)   Bbb    -0.0007    -0.400    -0.143    -0.133 -0.3460  0.9286  0.1344
              Bcc     0.0019     1.015     0.362     0.339  0.9260  0.3610 -0.1104
 
              Baa    -0.0024    -1.276    -0.455    -0.426  0.1390  0.1949  0.9709
    62 H(1)   Bbb    -0.0019    -1.005    -0.359    -0.335 -0.1130  0.9772 -0.1799
              Bcc     0.0043     2.282     0.814     0.761  0.9838  0.0847 -0.1579
 
              Baa    -0.0018    -0.964    -0.344    -0.321 -0.2519 -0.0387  0.9670
    63 H(1)   Bbb    -0.0012    -0.638    -0.228    -0.213 -0.5367  0.8370 -0.1063
              Bcc     0.0030     1.602     0.572     0.534  0.8053  0.5458  0.2316
 
              Baa    -0.0026    -1.398    -0.499    -0.466  0.3475  0.2057  0.9148
    64 H(1)   Bbb    -0.0006    -0.299    -0.107    -0.100 -0.6276  0.7759  0.0639
              Bcc     0.0032     1.697     0.606     0.566  0.6967  0.5964 -0.3987
 
              Baa    -0.0017    -0.884    -0.315    -0.295  0.6372 -0.1642  0.7530
    65 H(1)   Bbb    -0.0013    -0.686    -0.245    -0.229 -0.5529  0.5832  0.5951
              Bcc     0.0029     1.570     0.560     0.524  0.5368  0.7956 -0.2808
 
              Baa    -0.0031    -1.630    -0.582    -0.544  0.5402  0.8389  0.0666
    66 H(1)   Bbb    -0.0026    -1.402    -0.500    -0.468  0.0511 -0.1117  0.9924
              Bcc     0.0057     3.032     1.082     1.011  0.8400 -0.5327 -0.1032
 
              Baa    -0.0077    -4.098    -1.462    -1.367  0.7151 -0.6979 -0.0395
    67 H(1)   Bbb    -0.0019    -1.026    -0.366    -0.342  0.1742  0.1233  0.9770
              Bcc     0.0096     5.124     1.828     1.709  0.6769  0.7055 -0.2097
 
              Baa    -0.0012    -0.658    -0.235    -0.219  0.1997  0.1262  0.9717
    68 H(1)   Bbb    -0.0009    -0.476    -0.170    -0.159  0.7293 -0.6814 -0.0614
              Bcc     0.0021     1.134     0.405     0.378  0.6544  0.7209 -0.2281
 
              Baa    -0.0008    -0.428    -0.153    -0.143  0.1912  0.1076  0.9756
    69 H(1)   Bbb    -0.0002    -0.103    -0.037    -0.034  0.2386  0.9591 -0.1525
              Bcc     0.0010     0.531     0.189     0.177  0.9521 -0.2620 -0.1577
 
              Baa    -0.0007    -0.355    -0.127    -0.118  0.3102 -0.5582  0.7695
    70 H(1)   Bbb    -0.0001    -0.063    -0.022    -0.021  0.9239  0.3679 -0.1056
              Bcc     0.0008     0.417     0.149     0.139 -0.2242  0.7437  0.6298
 
              Baa    -0.0008    -0.438    -0.156    -0.146  0.1989  0.1142  0.9733
    71 H(1)   Bbb    -0.0003    -0.174    -0.062    -0.058  0.5829  0.7846 -0.2112
              Bcc     0.0011     0.612     0.218     0.204  0.7878 -0.6094 -0.0895
 
              Baa    -0.0015    -0.802    -0.286    -0.268  0.9774  0.1554 -0.1431
    72 H(1)   Bbb    -0.0011    -0.592    -0.211    -0.197  0.1325  0.0767  0.9882
              Bcc     0.0026     1.394     0.497     0.465 -0.1646  0.9849 -0.0543
 
              Baa    -0.0023    -1.242    -0.443    -0.414 -0.2580  0.1675  0.9515
    73 H(1)   Bbb    -0.0006    -0.330    -0.118    -0.110  0.5670  0.8237  0.0088
              Bcc     0.0029     1.572     0.561     0.524  0.7823 -0.5417  0.3075
 
              Baa    -0.0016    -0.843    -0.301    -0.281 -0.3087 -0.1442  0.9402
    74 H(1)   Bbb    -0.0014    -0.751    -0.268    -0.251  0.7888  0.5135  0.3378
              Bcc     0.0030     1.594     0.569     0.532 -0.5315  0.8459 -0.0448
 
              Baa    -0.0026    -1.366    -0.487    -0.455  0.3801 -0.0612  0.9229
    75 H(1)   Bbb    -0.0002    -0.097    -0.035    -0.032  0.5658  0.8047 -0.1797
              Bcc     0.0027     1.463     0.522     0.488  0.7317 -0.5905 -0.3405
 
              Baa    -0.0034    -1.810    -0.646    -0.604 -0.4848  0.8508 -0.2028
    76 H(1)   Bbb    -0.0029    -1.551    -0.554    -0.517 -0.0360  0.2122  0.9766
              Bcc     0.0063     3.362     1.199     1.121  0.8739  0.4808 -0.0723
 
              Baa    -0.0090    -4.818    -1.719    -1.607  0.7468  0.6634 -0.0459
    77 H(1)   Bbb    -0.0022    -1.162    -0.414    -0.387  0.0852 -0.0270  0.9960
              Bcc     0.0112     5.980     2.134     1.995 -0.6595  0.7478  0.0767
 
              Baa    -0.0014    -0.757    -0.270    -0.252  0.1014 -0.0304  0.9944
    78 H(1)   Bbb    -0.0011    -0.582    -0.208    -0.194  0.7583  0.6493 -0.0575
              Bcc     0.0025     1.339     0.478     0.447 -0.6439  0.7599  0.0889
 
              Baa    -0.0009    -0.494    -0.176    -0.165  0.0881 -0.0125  0.9960
    79 H(1)   Bbb    -0.0002    -0.122    -0.043    -0.041 -0.1969  0.9800  0.0297
              Bcc     0.0012     0.616     0.220     0.205  0.9765  0.1987 -0.0839
 
              Baa    -0.0008    -0.413    -0.147    -0.138  0.2584  0.6455  0.7187
    80 H(1)   Bbb    -0.0001    -0.071    -0.025    -0.024  0.9123 -0.4078  0.0383
              Bcc     0.0009     0.484     0.173     0.161 -0.3178 -0.6457  0.6943
 
              Baa    -0.0009    -0.498    -0.178    -0.166  0.0996 -0.0345  0.9944
    81 H(1)   Bbb    -0.0004    -0.193    -0.069    -0.064 -0.5559  0.8269  0.0843
              Bcc     0.0013     0.691     0.247     0.230  0.8252  0.5612 -0.0632
 
              Baa    -0.0018    -0.943    -0.337    -0.315  0.9806 -0.1947 -0.0214
    82 H(1)   Bbb    -0.0012    -0.658    -0.235    -0.220  0.0242  0.0122  0.9996
              Bcc     0.0030     1.602     0.571     0.534  0.1943  0.9808 -0.0167
 

 ---------------------------------------------------------------------------------

 No NMR shielding tensors so no spin-rotation constants.
 Leave Link  601 at Thu Nov  6 05:46:25 2025, MaxMem= 30870077440 cpu:             188.1 elap:               3.3
 (Enter /public/software/gauss/g16/l9999.exe)
 1\1\GINC-CU161\SP\UM062X\def2TZVPP\C35H27B1F2N4O11S2(1-,2)\BAIDING\06-
 Nov-2025\0\\#p M062X/DEF2TZVPP scrf=(solvent=water) em=GD3\\Energy cal
 culation for BE_SO3H_reduced\\-1,2\B,0,0.16876,-0.030525,0.67036\N,0,-
 0.695476,-1.304497,0.606591\C,0,-0.222222,-2.603732,0.516483\C,0,-1.33
 6952,-3.469146,0.555588\C,0,-2.495831,-2.712817,0.667931\C,0,-2.078536
 ,-1.337698,0.717435\C,0,-2.818707,-0.128196,0.782095\C,0,-4.311211,-0.
 207266,0.837473\O,0,-4.899864,-0.692217,1.798903\C,0,-5.036685,0.19814
 ,-0.446441\C,0,-6.542573,0.238687,-0.36716\C,0,-7.407094,-0.347491,-1.
 315554\N,0,-6.902816,-0.993165,-2.532616\O,0,-7.545441,-1.940776,-2.99
 0961\O,0,-5.87967,-0.545694,-3.057317\C,0,-8.793139,-0.340796,-1.18721
 7\C,0,-9.341366,0.30624,-0.091155\C,0,-8.541518,0.923085,0.870313\C,0,
 -7.162347,0.87007,0.725683\N,0,-10.794435,0.344172,0.047844\O,0,-11.26
 9454,0.916703,1.032404\O,0,-11.48102,-0.198054,-0.822685\C,0,-2.151544
 ,1.125378,0.729927\N,0,-0.777554,1.180224,0.540414\C,0,-0.378805,2.507
 951,0.562941\C,0,-1.524174,3.29877,0.784814\C,0,-2.631277,2.465204,0.9
 05003\C,0,-4.01842,2.935694,1.231966\C,0,0.979543,2.909671,0.363066\C,
 0,1.431547,4.195008,0.44171\C,0,2.795467,4.63544,0.218656\C,0,3.091577
 ,6.014776,0.329995\C,0,4.373058,6.504961,0.124774\C,0,5.398687,5.60762
 ,-0.19568\S,0,7.02879,6.215741,-0.497299\O,0,8.018365,5.191602,-0.1538
 29\O,0,7.158191,7.567905,0.060683\O,0,7.148865,6.324407,-2.122833\C,0,
 5.145468,4.23221,-0.311694\C,0,3.860938,3.758222,-0.104516\C,0,-3.8793
 43,-3.293308,0.700366\C,0,1.165138,-2.922083,0.391004\C,0,1.67394,-4.1
 89989,0.389866\C,0,3.071835,-4.549957,0.256709\C,0,3.422974,-5.92121,0
 .252702\C,0,4.740644,-6.337222,0.131644\C,0,5.748589,-5.372307,0.01610
 5\S,0,7.428877,-5.882203,-0.165864\O,0,7.559226,-7.288465,0.236744\O,0
 ,8.325334,-4.87702,0.410634\O,0,7.73595,-5.781045,-1.767423\C,0,5.4409
 08,-4.002878,0.017506\C,0,4.120617,-3.6031,0.137477\F,0,1.114323,-0.02
 8377,-0.381075\F,0,0.878418,0.028523,1.88795\H,0,-1.295468,-4.548085,0
 .484322\H,0,-4.647417,1.156092,-0.805622\H,0,-4.696875,-0.525433,-1.19
 2372\H,0,-9.419617,-0.80928,-1.93322\H,0,-8.992403,1.429791,1.713676\H
 ,0,-6.544234,1.334328,1.482238\H,0,-1.537961,4.37855,0.854791\H,0,-4.6
 73318,2.999689,0.355351\H,0,-4.508148,2.282612,1.961002\H,0,-3.972552,
 3.93786,1.667923\H,0,1.674426,2.114896,0.113684\H,0,0.727313,4.986421,
 0.689208\H,0,2.293648,6.706184,0.583536\H,0,4.57731,7.565419,0.219317\
 H,0,6.635002,7.09125,-2.444056\H,0,5.947814,3.54348,-0.552202\H,0,3.68
 1354,2.692332,-0.190513\H,0,-4.53586,-2.852884,-0.058006\H,0,-3.827395
 ,-4.368403,0.50749\H,0,-4.369521,-3.147478,1.668199\H,0,1.838669,-2.07
 9629,0.278565\H,0,0.991134,-5.030012,0.49739\H,0,2.638758,-6.666063,0.
 349209\H,0,4.9853,-7.393255,0.135659\H,0,7.29381,-6.513953,-2.238856\H
 ,0,6.228357,-3.261635,-0.064224\H,0,3.899722,-2.541597,0.145381\\Versi
 on=ES64L-G16RevA.03\State=2-A\HF=-3417.5304274\S2=0.800154\S2-1=0.\S2A
 =0.751905\RMSD=5.101e-09\Dipole=-5.1658299,1.461964,-2.220321\Quadrupo
 le=-134.0935849,66.9698866,67.1236983,-17.8785806,-31.8664205,2.144676
 9\PG=C01 [X(C35H27B1F2N4O11S2)]\\@


 IT IS THE BEHAVIOR AND DISTRIBUTION OF THE ELECTRONS 
 AROUND THE NUCLEUS THAT GIVES THE FUNDAMENTAL 
 CHARACTER OF AN ATOM:  IT MUST BE THE SAME FOR MOLECULES.

                               -- C. A. COULSON, 1951
 Job cpu time:       1 days 20 hours 56 minutes 25.4 seconds.
 Elapsed time:       0 days  0 hours 42 minutes 38.8 seconds.
 File lengths (MBytes):  RWF=   4750 Int=      0 D2E=      0 Chk=    308 Scr=      1
 Normal termination of Gaussian 16 at Thu Nov  6 05:46:26 2025.
