 Entering Gaussian System, Link 0=g16
 Input=BE_sin_reduced_sp.gjf
 Output=BE_sin_reduced_sp.log
 Initial command:
 /public/software/gauss/g16/l1.exe "/public/home/baiding/1105_BE_sp/tmp_BE_sin_reduced_sp_1568733/Gau-1945465.inp" -scrdir="/public/home/baiding/1105_BE_sp/tmp_BE_sin_reduced_sp_1568733/"
 Entering Link 1 = /public/software/gauss/g16/l1.exe PID=   1945466.
  
 Copyright (c) 1988,1990,1992,1993,1995,1998,2003,2009,2016,
            Gaussian, Inc.  All Rights Reserved.
  
 This is part of the Gaussian(R) 16 program.  It is based on
 the Gaussian(R) 09 system (copyright 2009, Gaussian, Inc.),
 the Gaussian(R) 03 system (copyright 2003, Gaussian, Inc.),
 the Gaussian(R) 98 system (copyright 1998, Gaussian, Inc.),
 the Gaussian(R) 94 system (copyright 1995, Gaussian, Inc.),
 the Gaussian 92(TM) system (copyright 1992, Gaussian, Inc.),
 the Gaussian 90(TM) system (copyright 1990, Gaussian, Inc.),
 the Gaussian 88(TM) system (copyright 1988, Gaussian, Inc.),
 the Gaussian 86(TM) system (copyright 1986, Carnegie Mellon
 University), and the Gaussian 82(TM) system (copyright 1983,
 Carnegie Mellon University). Gaussian is a federally registered
 trademark of Gaussian, Inc.
  
 This software contains proprietary and confidential information,
 including trade secrets, belonging to Gaussian, Inc.
  
 This software is provided under written license and may be
 used, copied, transmitted, or stored only in accord with that
 written license.
  
 The following legend is applicable only to US Government
 contracts under FAR:
  
                    RESTRICTED RIGHTS LEGEND
  
 Use, reproduction and disclosure by the US Government is
 subject to restrictions as set forth in subparagraphs (a)
 and (c) of the Commercial Computer Software - Restricted
 Rights clause in FAR 52.227-19.
  
 Gaussian, Inc.
 340 Quinnipiac St., Bldg. 40, Wallingford CT 06492
  
  
 ---------------------------------------------------------------
 Warning -- This program may not be used in any manner that
 competes with the business of Gaussian, Inc. or will provide
 assistance to any competitor of Gaussian, Inc.  The licensee
 of this program is prohibited from giving any competitor of
 Gaussian, Inc. access to this program.  By using this program,
 the user acknowledges that Gaussian, Inc. is engaged in the
 business of creating and licensing software in the field of
 computational chemistry and represents and warrants to the
 licensee that it is not a competitor of Gaussian, Inc. and that
 it will not use this program in any manner prohibited above.
 ---------------------------------------------------------------
  

 Cite this work as:
 Gaussian 16, Revision A.03,
 M. J. Frisch, G. W. Trucks, H. B. Schlegel, G. E. Scuseria, 
 M. A. Robb, J. R. Cheeseman, G. Scalmani, V. Barone, 
 G. A. Petersson, H. Nakatsuji, X. Li, M. Caricato, A. V. Marenich, 
 J. Bloino, B. G. Janesko, R. Gomperts, B. Mennucci, H. P. Hratchian, 
 J. V. Ortiz, A. F. Izmaylov, J. L. Sonnenberg, D. Williams-Young, 
 F. Ding, F. Lipparini, F. Egidi, J. Goings, B. Peng, A. Petrone, 
 T. Henderson, D. Ranasinghe, V. G. Zakrzewski, J. Gao, N. Rega, 
 G. Zheng, W. Liang, M. Hada, M. Ehara, K. Toyota, R. Fukuda, 
 J. Hasegawa, M. Ishida, T. Nakajima, Y. Honda, O. Kitao, H. Nakai, 
 T. Vreven, K. Throssell, J. A. Montgomery, Jr., J. E. Peralta, 
 F. Ogliaro, M. J. Bearpark, J. J. Heyd, E. N. Brothers, K. N. Kudin, 
 V. N. Staroverov, T. A. Keith, R. Kobayashi, J. Normand, 
 K. Raghavachari, A. P. Rendell, J. C. Burant, S. S. Iyengar, 
 J. Tomasi, M. Cossi, J. M. Millam, M. Klene, C. Adamo, R. Cammi, 
 J. W. Ochterski, R. L. Martin, K. Morokuma, O. Farkas, 
 J. B. Foresman, and D. J. Fox, Gaussian, Inc., Wallingford CT, 2016.
 
 ******************************************
 Gaussian 16:  ES64L-G16RevA.03 25-Dec-2016
                 6-Nov-2025 
 ******************************************
 %nprocshared=64
 Will use up to   64 processors via shared memory.
 %mem=230GB
 %chk=BE_sin_reduced_sp.chk
 ----------------------------------------------
 #p M062X/DEF2TZVPP scrf=(solvent=water) em=GD3
 ----------------------------------------------
 1/38=1,172=1/1;
 2/12=2,17=6,18=5,40=1/2;
 3/5=44,7=202,11=2,25=1,30=1,70=2201,72=1,74=-55,124=31/1,2,3;
 4//1;
 5/5=2,38=5,53=1/2;
 6/7=2,8=2,9=2,10=2,28=1/1;
 99/5=1,9=1/99;
 Leave Link    1 at Thu Nov  6 03:16:36 2025, MaxMem= 30870077440 cpu:               9.4 elap:               0.2
 (Enter /public/software/gauss/g16/l101.exe)
 -------------------------------------
 Energy calculation for BE_sin_reduced
 -------------------------------------
 Symbolic Z-matrix:
 Charge = -1 Multiplicity = 2
 B                    -0.54782  -1.3915   -2.12476 
 N                    -1.76263  -0.44966  -1.95511 
 C                    -2.9239   -0.41674  -2.68932 
 C                    -3.67123   0.68204  -2.26998 
 C                    -2.95362   1.37037  -1.27197 
 C                    -1.74056   0.65575  -1.09777 
 C                    -0.60199   0.82346  -0.22049 
 C                    -0.12107   2.15729   0.08376 
 O                    -0.75577   3.19609  -0.20013 
 C                     1.30093   2.34795   0.66476 
 C                     2.00696   3.50587   0.01358 
 C                     1.6357    4.85734   0.16136 
 N                     0.56968   5.27177   1.08242 
 O                    -0.13389   6.22723   0.74891 
 O                     0.45661   4.68763   2.16096 
 C                     2.2612    5.89285  -0.52304 
 C                     3.31757   5.57048  -1.36493 
 C                     3.73596   4.25343  -1.54817 
 C                     3.06902   3.2435   -0.86668 
 N                     4.00181   6.64683  -2.07412 
 O                     3.61288   7.80527  -1.89904 
 O                     4.93982   6.35007  -2.81927 
 C                     0.13683  -0.37252   0.13248 
 N                     0.15797  -1.44786  -0.75622 
 C                     0.88269  -2.4719   -0.19338 
 C                     1.28083  -2.07366   1.07862 
 C                     0.81092  -0.76173   1.31103 
 C                     0.90517  -0.04055   2.62554 
 C                     1.20163  -3.77135  -0.87237 
 C                     2.12216  -3.66718  -2.11983 
 C                     3.43505  -2.95736  -1.87147 
 C                     3.61088  -1.61308  -2.23776 
 C                     4.80886  -0.94686  -1.99432 
 C                     5.87102  -1.61453  -1.37061 
 O                     7.01634  -0.86434  -1.19435 
 C                     8.16154  -1.45269  -0.56836 
 C                     8.04777  -1.40053   0.95146 
 O                     9.25124  -1.94266   1.48181 
 C                     9.27097  -1.93058   2.90908 
 C                     10.58074  -2.50033   3.42407 
 O                     11.69771  -1.62259   3.29949 
 C                     12.31707  -1.60578   2.01218 
 C                     13.64087  -0.86953   2.12534 
 O                     14.57943  -1.48475   3.00633 
 C                     15.20683  -2.63889   2.45783 
 C                     5.71953  -2.95375  -0.99442 
 C                     4.50945  -3.60543  -1.25132 
 C                    -3.51291   2.53274  -0.50204 
 C                    -3.2933   -1.41714  -3.7445 
 C                    -3.97182  -2.7167   -3.22239 
 C                    -5.31306  -2.4992   -2.55986 
 C                    -6.48463  -2.38283  -3.31693 
 C                    -7.7317   -2.16024  -2.72459 
 C                    -7.81942  -2.05084  -1.33212 
 O                    -8.98774  -1.84133  -0.63916 
 C                    -10.20875  -1.71226  -1.38376 
 C                    -11.36519  -1.50667  -0.42045 
 O                    -11.52555  -0.17401   0.06471 
 C                    -10.53758   0.31594   0.97823 
 C                    -10.44749  -0.4466    2.28837 
 O                    -11.7286  -0.44047   2.91606 
 C                    -11.8094  -1.26049   4.08375 
 C                    -11.15407  -0.68581   5.33455 
 O                    -11.83767   0.44215   5.88041 
 C                    -11.49014   1.68651   5.27811 
 C                    -6.65962  -2.16491  -0.55359 
 C                    -5.42907  -2.38492  -1.16476 
 F                     0.32715  -0.89594  -3.1262 
 F                    -0.97034  -2.67731  -2.50656 
 H                    -4.65662   0.94138  -2.63665 
 H                     1.20694   2.52596   1.73743 
 H                     1.89999   1.45095   0.52207 
 H                     1.94491   6.91812  -0.3905 
 H                     4.55911   4.02823  -2.21386 
 H                     3.37327   2.2133   -1.01849 
 H                     1.83274  -2.68779   1.77957 
 H                     1.86622   0.46929   2.76618 
 H                     0.11735   0.7098    2.73682 
 H                     0.80214  -0.75289   3.45108 
 H                     1.68946  -4.41076  -0.12911 
 H                     0.28121  -4.27828  -1.1804 
 H                     2.31412  -4.68896  -2.46815 
 H                     1.57972  -3.1554   -2.91817 
 H                     2.79458  -1.08436  -2.72167 
 H                     4.94139   0.09001  -2.28873 
 H                     8.32182  -2.47827  -0.91589 
 H                     9.01168  -0.84751  -0.89302 
 H                     7.91231  -0.35816   1.27493 
 H                     7.17945  -1.97664   1.30179 
 H                     9.139    -0.90453   3.28329 
 H                     8.44202  -2.54079   3.30039 
 H                     10.46318  -2.68747   4.49667 
 H                     10.78855  -3.46077   2.93085 
 H                     12.46299  -2.63417   1.6527 
 H                     11.69267  -1.08466   1.27501 
 H                     14.07002  -0.75897   1.11845 
 H                     13.46225   0.13156   2.5316 
 H                     15.70174  -2.40863   1.50358 
 H                     15.96052  -2.96548   3.17881 
 H                     14.50068  -3.46324   2.29447 
 H                     6.5214   -3.49674  -0.50847 
 H                     4.40824  -4.64776  -0.95845 
 H                    -3.22641   3.49909  -0.92997 
 H                    -4.60719   2.48322  -0.50743 
 H                    -3.17897   2.5372    0.53822 
 H                    -3.98115  -0.92723  -4.4421 
 H                    -2.4086   -1.7073   -4.31852 
 H                    -4.09649  -3.38468  -4.0828 
 H                    -3.28611  -3.20918  -2.52925 
 H                    -6.43099  -2.47207  -4.39937 
 H                    -8.61312  -2.08127  -3.34943 
 H                    -10.14245  -0.86936  -2.08268 
 H                    -10.38715  -2.62961  -1.9591 
 H                    -12.28895  -1.71777  -0.96766 
 H                    -11.29374  -2.23196   0.40011 
 H                    -9.5427    0.33592   0.51841 
 H                    -10.83724   1.349     1.18059 
 H                    -10.11406  -1.48154   2.12944 
 H                    -9.68838   0.04948   2.90961 
 H                    -12.87833  -1.39915   4.27683 
 H                    -11.36753  -2.24841   3.88136 
 H                    -11.18735  -1.46468   6.10535 
 H                    -10.09764  -0.44108   5.15554 
 H                    -11.83776   1.75567   4.24156 
 H                    -11.97208   2.47116   5.86777 
 H                    -10.40309   1.84808   5.29776 
 H                    -6.74104  -2.08299   0.52598 
 H                    -4.54048  -2.47585  -0.54568 
 
 ITRead=  0  0  0  0  0  0  0  0  0  0  0  0  0  0  0  0  0  0  0  0
 ITRead=  0  0  0  0  0  0  0  0  0  0  0  0  0  0  0  0  0  0  0  0
 ITRead=  0  0  0  0  0  0  0  0  0  0  0  0  0  0  0  0  0  0  0  0
 ITRead=  0  0  0  0  0  0  0  0  0  0  0  0  0  0  0  0  0  0  0  0
 ITRead=  0  0  0  0  0  0  0  0  0  0  0  0  0  0  0  0  0  0  0  0
 ITRead=  0  0  0  0  0  0  0  0  0  0  0  0  0  0  0  0  0  0  0  0
 ITRead=  0  0  0  0  0  0  0  0
 MicOpt= -1 -1 -1 -1 -1 -1 -1 -1 -1 -1 -1 -1 -1 -1 -1 -1 -1 -1 -1 -1
 MicOpt= -1 -1 -1 -1 -1 -1 -1 -1 -1 -1 -1 -1 -1 -1 -1 -1 -1 -1 -1 -1
 MicOpt= -1 -1 -1 -1 -1 -1 -1 -1 -1 -1 -1 -1 -1 -1 -1 -1 -1 -1 -1 -1
 MicOpt= -1 -1 -1 -1 -1 -1 -1 -1 -1 -1 -1 -1 -1 -1 -1 -1 -1 -1 -1 -1
 MicOpt= -1 -1 -1 -1 -1 -1 -1 -1 -1 -1 -1 -1 -1 -1 -1 -1 -1 -1 -1 -1
 MicOpt= -1 -1 -1 -1 -1 -1 -1 -1 -1 -1 -1 -1 -1 -1 -1 -1 -1 -1 -1 -1
 MicOpt= -1 -1 -1 -1 -1 -1 -1 -1
 NAtoms=    128 NQM=      128 NQMF=       0 NMMI=      0 NMMIF=      0
                NMic=       0 NMicF=      0.
                    Isotopes and Nuclear Properties:
 (Nuclear quadrupole moments (NQMom) in fm**2, nuclear magnetic moments (NMagM)
  in nuclear magnetons)

  Atom         1           2           3           4           5           6           7           8           9          10
 IAtWgt=          11          14          12          12          12          12          12          12          16          12
 AtmWgt=  11.0093053  14.0030740  12.0000000  12.0000000  12.0000000  12.0000000  12.0000000  12.0000000  15.9949146  12.0000000
 NucSpn=           3           2           0           0           0           0           0           0           0           0
 AtZEff=  -0.0000000  -0.0000000  -0.0000000  -0.0000000  -0.0000000  -0.0000000  -0.0000000  -0.0000000  -0.0000000  -0.0000000
 NQMom=    4.0590000   2.0440000   0.0000000   0.0000000   0.0000000   0.0000000   0.0000000   0.0000000   0.0000000   0.0000000
 NMagM=    2.6886370   0.4037610   0.0000000   0.0000000   0.0000000   0.0000000   0.0000000   0.0000000   0.0000000   0.0000000
 AtZNuc=   5.0000000   7.0000000   6.0000000   6.0000000   6.0000000   6.0000000   6.0000000   6.0000000   8.0000000   6.0000000

  Atom        11          12          13          14          15          16          17          18          19          20
 IAtWgt=          12          12          14          16          16          12          12          12          12          14
 AtmWgt=  12.0000000  12.0000000  14.0030740  15.9949146  15.9949146  12.0000000  12.0000000  12.0000000  12.0000000  14.0030740
 NucSpn=           0           0           2           0           0           0           0           0           0           2
 AtZEff=  -0.0000000  -0.0000000  -0.0000000  -0.0000000  -0.0000000  -0.0000000  -0.0000000  -0.0000000  -0.0000000  -0.0000000
 NQMom=    0.0000000   0.0000000   2.0440000   0.0000000   0.0000000   0.0000000   0.0000000   0.0000000   0.0000000   2.0440000
 NMagM=    0.0000000   0.0000000   0.4037610   0.0000000   0.0000000   0.0000000   0.0000000   0.0000000   0.0000000   0.4037610
 AtZNuc=   6.0000000   6.0000000   7.0000000   8.0000000   8.0000000   6.0000000   6.0000000   6.0000000   6.0000000   7.0000000

  Atom        21          22          23          24          25          26          27          28          29          30
 IAtWgt=          16          16          12          14          12          12          12          12          12          12
 AtmWgt=  15.9949146  15.9949146  12.0000000  14.0030740  12.0000000  12.0000000  12.0000000  12.0000000  12.0000000  12.0000000
 NucSpn=           0           0           0           2           0           0           0           0           0           0
 AtZEff=  -0.0000000  -0.0000000  -0.0000000  -0.0000000  -0.0000000  -0.0000000  -0.0000000  -0.0000000  -0.0000000  -0.0000000
 NQMom=    0.0000000   0.0000000   0.0000000   2.0440000   0.0000000   0.0000000   0.0000000   0.0000000   0.0000000   0.0000000
 NMagM=    0.0000000   0.0000000   0.0000000   0.4037610   0.0000000   0.0000000   0.0000000   0.0000000   0.0000000   0.0000000
 AtZNuc=   8.0000000   8.0000000   6.0000000   7.0000000   6.0000000   6.0000000   6.0000000   6.0000000   6.0000000   6.0000000

  Atom        31          32          33          34          35          36          37          38          39          40
 IAtWgt=          12          12          12          12          16          12          12          16          12          12
 AtmWgt=  12.0000000  12.0000000  12.0000000  12.0000000  15.9949146  12.0000000  12.0000000  15.9949146  12.0000000  12.0000000
 NucSpn=           0           0           0           0           0           0           0           0           0           0
 AtZEff=  -0.0000000  -0.0000000  -0.0000000  -0.0000000  -0.0000000  -0.0000000  -0.0000000  -0.0000000  -0.0000000  -0.0000000
 NQMom=    0.0000000   0.0000000   0.0000000   0.0000000   0.0000000   0.0000000   0.0000000   0.0000000   0.0000000   0.0000000
 NMagM=    0.0000000   0.0000000   0.0000000   0.0000000   0.0000000   0.0000000   0.0000000   0.0000000   0.0000000   0.0000000
 AtZNuc=   6.0000000   6.0000000   6.0000000   6.0000000   8.0000000   6.0000000   6.0000000   8.0000000   6.0000000   6.0000000

  Atom        41          42          43          44          45          46          47          48          49          50
 IAtWgt=          16          12          12          16          12          12          12          12          12          12
 AtmWgt=  15.9949146  12.0000000  12.0000000  15.9949146  12.0000000  12.0000000  12.0000000  12.0000000  12.0000000  12.0000000
 NucSpn=           0           0           0           0           0           0           0           0           0           0
 AtZEff=  -0.0000000  -0.0000000  -0.0000000  -0.0000000  -0.0000000  -0.0000000  -0.0000000  -0.0000000  -0.0000000  -0.0000000
 NQMom=    0.0000000   0.0000000   0.0000000   0.0000000   0.0000000   0.0000000   0.0000000   0.0000000   0.0000000   0.0000000
 NMagM=    0.0000000   0.0000000   0.0000000   0.0000000   0.0000000   0.0000000   0.0000000   0.0000000   0.0000000   0.0000000
 AtZNuc=   8.0000000   6.0000000   6.0000000   8.0000000   6.0000000   6.0000000   6.0000000   6.0000000   6.0000000   6.0000000

  Atom        51          52          53          54          55          56          57          58          59          60
 IAtWgt=          12          12          12          12          16          12          12          16          12          12
 AtmWgt=  12.0000000  12.0000000  12.0000000  12.0000000  15.9949146  12.0000000  12.0000000  15.9949146  12.0000000  12.0000000
 NucSpn=           0           0           0           0           0           0           0           0           0           0
 AtZEff=  -0.0000000  -0.0000000  -0.0000000  -0.0000000  -0.0000000  -0.0000000  -0.0000000  -0.0000000  -0.0000000  -0.0000000
 NQMom=    0.0000000   0.0000000   0.0000000   0.0000000   0.0000000   0.0000000   0.0000000   0.0000000   0.0000000   0.0000000
 NMagM=    0.0000000   0.0000000   0.0000000   0.0000000   0.0000000   0.0000000   0.0000000   0.0000000   0.0000000   0.0000000
 AtZNuc=   6.0000000   6.0000000   6.0000000   6.0000000   8.0000000   6.0000000   6.0000000   8.0000000   6.0000000   6.0000000

  Atom        61          62          63          64          65          66          67          68          69          70
 IAtWgt=          16          12          12          16          12          12          12          19          19           1
 AtmWgt=  15.9949146  12.0000000  12.0000000  15.9949146  12.0000000  12.0000000  12.0000000  18.9984033  18.9984033   1.0078250
 NucSpn=           0           0           0           0           0           0           0           1           1           1
 AtZEff=  -0.0000000  -0.0000000  -0.0000000  -0.0000000  -0.0000000  -0.0000000  -0.0000000  -0.0000000  -0.0000000  -0.0000000
 NQMom=    0.0000000   0.0000000   0.0000000   0.0000000   0.0000000   0.0000000   0.0000000   0.0000000   0.0000000   0.0000000
 NMagM=    0.0000000   0.0000000   0.0000000   0.0000000   0.0000000   0.0000000   0.0000000   2.6288670   2.6288670   2.7928460
 AtZNuc=   8.0000000   6.0000000   6.0000000   8.0000000   6.0000000   6.0000000   6.0000000   9.0000000   9.0000000   1.0000000

  Atom        71          72          73          74          75          76          77          78          79          80
 IAtWgt=           1           1           1           1           1           1           1           1           1           1
 AtmWgt=   1.0078250   1.0078250   1.0078250   1.0078250   1.0078250   1.0078250   1.0078250   1.0078250   1.0078250   1.0078250
 NucSpn=           1           1           1           1           1           1           1           1           1           1
 AtZEff=  -0.0000000  -0.0000000  -0.0000000  -0.0000000  -0.0000000  -0.0000000  -0.0000000  -0.0000000  -0.0000000  -0.0000000
 NQMom=    0.0000000   0.0000000   0.0000000   0.0000000   0.0000000   0.0000000   0.0000000   0.0000000   0.0000000   0.0000000
 NMagM=    2.7928460   2.7928460   2.7928460   2.7928460   2.7928460   2.7928460   2.7928460   2.7928460   2.7928460   2.7928460
 AtZNuc=   1.0000000   1.0000000   1.0000000   1.0000000   1.0000000   1.0000000   1.0000000   1.0000000   1.0000000   1.0000000

  Atom        81          82          83          84          85          86          87          88          89          90
 IAtWgt=           1           1           1           1           1           1           1           1           1           1
 AtmWgt=   1.0078250   1.0078250   1.0078250   1.0078250   1.0078250   1.0078250   1.0078250   1.0078250   1.0078250   1.0078250
 NucSpn=           1           1           1           1           1           1           1           1           1           1
 AtZEff=  -0.0000000  -0.0000000  -0.0000000  -0.0000000  -0.0000000  -0.0000000  -0.0000000  -0.0000000  -0.0000000  -0.0000000
 NQMom=    0.0000000   0.0000000   0.0000000   0.0000000   0.0000000   0.0000000   0.0000000   0.0000000   0.0000000   0.0000000
 NMagM=    2.7928460   2.7928460   2.7928460   2.7928460   2.7928460   2.7928460   2.7928460   2.7928460   2.7928460   2.7928460
 AtZNuc=   1.0000000   1.0000000   1.0000000   1.0000000   1.0000000   1.0000000   1.0000000   1.0000000   1.0000000   1.0000000

  Atom        91          92          93          94          95          96          97          98          99         100
 IAtWgt=           1           1           1           1           1           1           1           1           1           1
 AtmWgt=   1.0078250   1.0078250   1.0078250   1.0078250   1.0078250   1.0078250   1.0078250   1.0078250   1.0078250   1.0078250
 NucSpn=           1           1           1           1           1           1           1           1           1           1
 AtZEff=  -0.0000000  -0.0000000  -0.0000000  -0.0000000  -0.0000000  -0.0000000  -0.0000000  -0.0000000  -0.0000000  -0.0000000
 NQMom=    0.0000000   0.0000000   0.0000000   0.0000000   0.0000000   0.0000000   0.0000000   0.0000000   0.0000000   0.0000000
 NMagM=    2.7928460   2.7928460   2.7928460   2.7928460   2.7928460   2.7928460   2.7928460   2.7928460   2.7928460   2.7928460
 AtZNuc=   1.0000000   1.0000000   1.0000000   1.0000000   1.0000000   1.0000000   1.0000000   1.0000000   1.0000000   1.0000000

  Atom       101         102         103         104         105         106         107         108         109         110
 IAtWgt=           1           1           1           1           1           1           1           1           1           1
 AtmWgt=   1.0078250   1.0078250   1.0078250   1.0078250   1.0078250   1.0078250   1.0078250   1.0078250   1.0078250   1.0078250
 NucSpn=           1           1           1           1           1           1           1           1           1           1
 AtZEff=  -0.0000000  -0.0000000  -0.0000000  -0.0000000  -0.0000000  -0.0000000  -0.0000000  -0.0000000  -0.0000000  -0.0000000
 NQMom=    0.0000000   0.0000000   0.0000000   0.0000000   0.0000000   0.0000000   0.0000000   0.0000000   0.0000000   0.0000000
 NMagM=    2.7928460   2.7928460   2.7928460   2.7928460   2.7928460   2.7928460   2.7928460   2.7928460   2.7928460   2.7928460
 AtZNuc=   1.0000000   1.0000000   1.0000000   1.0000000   1.0000000   1.0000000   1.0000000   1.0000000   1.0000000   1.0000000

  Atom       111         112         113         114         115         116         117         118         119         120
 IAtWgt=           1           1           1           1           1           1           1           1           1           1
 AtmWgt=   1.0078250   1.0078250   1.0078250   1.0078250   1.0078250   1.0078250   1.0078250   1.0078250   1.0078250   1.0078250
 NucSpn=           1           1           1           1           1           1           1           1           1           1
 AtZEff=  -0.0000000  -0.0000000  -0.0000000  -0.0000000  -0.0000000  -0.0000000  -0.0000000  -0.0000000  -0.0000000  -0.0000000
 NQMom=    0.0000000   0.0000000   0.0000000   0.0000000   0.0000000   0.0000000   0.0000000   0.0000000   0.0000000   0.0000000
 NMagM=    2.7928460   2.7928460   2.7928460   2.7928460   2.7928460   2.7928460   2.7928460   2.7928460   2.7928460   2.7928460
 AtZNuc=   1.0000000   1.0000000   1.0000000   1.0000000   1.0000000   1.0000000   1.0000000   1.0000000   1.0000000   1.0000000

  Atom       121         122         123         124         125         126         127         128
 IAtWgt=           1           1           1           1           1           1           1           1
 AtmWgt=   1.0078250   1.0078250   1.0078250   1.0078250   1.0078250   1.0078250   1.0078250   1.0078250
 NucSpn=           1           1           1           1           1           1           1           1
 AtZEff=  -0.0000000  -0.0000000  -0.0000000  -0.0000000  -0.0000000  -0.0000000  -0.0000000  -0.0000000
 NQMom=    0.0000000   0.0000000   0.0000000   0.0000000   0.0000000   0.0000000   0.0000000   0.0000000
 NMagM=    2.7928460   2.7928460   2.7928460   2.7928460   2.7928460   2.7928460   2.7928460   2.7928460
 AtZNuc=   1.0000000   1.0000000   1.0000000   1.0000000   1.0000000   1.0000000   1.0000000   1.0000000
 Leave Link  101 at Thu Nov  6 03:16:36 2025, MaxMem= 30870077440 cpu:               4.7 elap:               0.1
 (Enter /public/software/gauss/g16/l202.exe)
 Stoichiometry    C49H59BF2N4O13(1-,2)
 Framework group  C1[X(C49H59BF2N4O13)]
 Deg. of freedom   378
 Full point group                 C1      NOp   1
 Largest Abelian subgroup         C1      NOp   1
 Largest concise Abelian subgroup C1      NOp   1
                         Standard orientation:                         
 ---------------------------------------------------------------------
 Center     Atomic      Atomic             Coordinates (Angstroms)
 Number     Number       Type             X           Y           Z
 ---------------------------------------------------------------------
      1          5           0       -0.547824   -1.391497   -2.124763
      2          7           0       -1.762628   -0.449659   -1.955107
      3          6           0       -2.923902   -0.416740   -2.689323
      4          6           0       -3.671230    0.682042   -2.269979
      5          6           0       -2.953619    1.370374   -1.271972
      6          6           0       -1.740555    0.655746   -1.097774
      7          6           0       -0.601991    0.823461   -0.220494
      8          6           0       -0.121072    2.157295    0.083764
      9          8           0       -0.755766    3.196090   -0.200128
     10          6           0        1.300931    2.347945    0.664762
     11          6           0        2.006963    3.505871    0.013581
     12          6           0        1.635695    4.857343    0.161363
     13          7           0        0.569678    5.271766    1.082423
     14          8           0       -0.133889    6.227231    0.748905
     15          8           0        0.456613    4.687627    2.160956
     16          6           0        2.261199    5.892849   -0.523038
     17          6           0        3.317570    5.570480   -1.364926
     18          6           0        3.735957    4.253430   -1.548171
     19          6           0        3.069018    3.243498   -0.866682
     20          7           0        4.001808    6.646826   -2.074117
     21          8           0        3.612877    7.805273   -1.899039
     22          8           0        4.939817    6.350069   -2.819269
     23          6           0        0.136829   -0.372519    0.132477
     24          7           0        0.157973   -1.447861   -0.756219
     25          6           0        0.882690   -2.471901   -0.193382
     26          6           0        1.280832   -2.073663    1.078619
     27          6           0        0.810922   -0.761730    1.311033
     28          6           0        0.905166   -0.040552    2.625535
     29          6           0        1.201625   -3.771352   -0.872373
     30          6           0        2.122162   -3.667184   -2.119829
     31          6           0        3.435050   -2.957362   -1.871472
     32          6           0        3.610879   -1.613075   -2.237764
     33          6           0        4.808857   -0.946856   -1.994315
     34          6           0        5.871023   -1.614532   -1.370610
     35          8           0        7.016343   -0.864337   -1.194352
     36          6           0        8.161538   -1.452688   -0.568357
     37          6           0        8.047766   -1.400533    0.951461
     38          8           0        9.251236   -1.942664    1.481807
     39          6           0        9.270971   -1.930583    2.909075
     40          6           0       10.580741   -2.500329    3.424066
     41          8           0       11.697705   -1.622586    3.299493
     42          6           0       12.317071   -1.605777    2.012178
     43          6           0       13.640868   -0.869534    2.125338
     44          8           0       14.579426   -1.484745    3.006335
     45          6           0       15.206833   -2.638893    2.457828
     46          6           0        5.719533   -2.953749   -0.994420
     47          6           0        4.509445   -3.605432   -1.251317
     48          6           0       -3.512911    2.532744   -0.502042
     49          6           0       -3.293304   -1.417142   -3.744500
     50          6           0       -3.971822   -2.716696   -3.222394
     51          6           0       -5.313058   -2.499195   -2.559859
     52          6           0       -6.484632   -2.382833   -3.316933
     53          6           0       -7.731700   -2.160239   -2.724589
     54          6           0       -7.819417   -2.050837   -1.332123
     55          8           0       -8.987742   -1.841326   -0.639163
     56          6           0      -10.208751   -1.712258   -1.383756
     57          6           0      -11.365194   -1.506666   -0.420446
     58          8           0      -11.525554   -0.174009    0.064712
     59          6           0      -10.537583    0.315936    0.978233
     60          6           0      -10.447489   -0.446603    2.288371
     61          8           0      -11.728603   -0.440471    2.916057
     62          6           0      -11.809401   -1.260486    4.083753
     63          6           0      -11.154069   -0.685814    5.334547
     64          8           0      -11.837668    0.442153    5.880406
     65          6           0      -11.490137    1.686513    5.278109
     66          6           0       -6.659623   -2.164909   -0.553585
     67          6           0       -5.429070   -2.384919   -1.164764
     68          9           0        0.327153   -0.895941   -3.126204
     69          9           0       -0.970341   -2.677307   -2.506563
     70          1           0       -4.656623    0.941377   -2.636651
     71          1           0        1.206942    2.525959    1.737425
     72          1           0        1.899993    1.450946    0.522074
     73          1           0        1.944909    6.918122   -0.390499
     74          1           0        4.559105    4.028234   -2.213860
     75          1           0        3.373268    2.213303   -1.018487
     76          1           0        1.832737   -2.687791    1.779569
     77          1           0        1.866215    0.469289    2.766184
     78          1           0        0.117350    0.709803    2.736816
     79          1           0        0.802142   -0.752885    3.451084
     80          1           0        1.689462   -4.410762   -0.129112
     81          1           0        0.281214   -4.278282   -1.180402
     82          1           0        2.314121   -4.688964   -2.468150
     83          1           0        1.579716   -3.155401   -2.918173
     84          1           0        2.794581   -1.084356   -2.721670
     85          1           0        4.941393    0.090009   -2.288729
     86          1           0        8.321816   -2.478268   -0.915885
     87          1           0        9.011682   -0.847509   -0.893023
     88          1           0        7.912305   -0.358156    1.274927
     89          1           0        7.179450   -1.976636    1.301788
     90          1           0        9.138996   -0.904527    3.283293
     91          1           0        8.442022   -2.540787    3.300387
     92          1           0       10.463176   -2.687471    4.496672
     93          1           0       10.788548   -3.460766    2.930850
     94          1           0       12.462994   -2.634165    1.652704
     95          1           0       11.692674   -1.084660    1.275012
     96          1           0       14.070025   -0.758970    1.118448
     97          1           0       13.462246    0.131559    2.531599
     98          1           0       15.701744   -2.408625    1.503579
     99          1           0       15.960516   -2.965481    3.178805
    100          1           0       14.500675   -3.463236    2.294471
    101          1           0        6.521398   -3.496737   -0.508474
    102          1           0        4.408236   -4.647759   -0.958446
    103          1           0       -3.226412    3.499091   -0.929966
    104          1           0       -4.607188    2.483221   -0.507432
    105          1           0       -3.178973    2.537198    0.538217
    106          1           0       -3.981151   -0.927227   -4.442101
    107          1           0       -2.408601   -1.707296   -4.318515
    108          1           0       -4.096494   -3.384683   -4.082799
    109          1           0       -3.286109   -3.209177   -2.529253
    110          1           0       -6.430993   -2.472073   -4.399365
    111          1           0       -8.613116   -2.081274   -3.349430
    112          1           0      -10.142455   -0.869361   -2.082679
    113          1           0      -10.387149   -2.629609   -1.959102
    114          1           0      -12.288954   -1.717768   -0.967655
    115          1           0      -11.293743   -2.231958    0.400107
    116          1           0       -9.542701    0.335916    0.518412
    117          1           0      -10.837237    1.349003    1.180592
    118          1           0      -10.114059   -1.481538    2.129438
    119          1           0       -9.688379    0.049479    2.909611
    120          1           0      -12.878326   -1.399145    4.276831
    121          1           0      -11.367528   -2.248409    3.881363
    122          1           0      -11.187353   -1.464678    6.105348
    123          1           0      -10.097645   -0.441076    5.155541
    124          1           0      -11.837759    1.755670    4.241560
    125          1           0      -11.972077    2.471158    5.867770
    126          1           0      -10.403091    1.848076    5.297763
    127          1           0       -6.741037   -2.082992    0.525981
    128          1           0       -4.540484   -2.475848   -0.545684
 ---------------------------------------------------------------------
 Rotational constants (GHZ):           0.0384553           0.0095079           0.0089690
 Leave Link  202 at Thu Nov  6 03:16:36 2025, MaxMem= 30870077440 cpu:               0.2 elap:               0.0
 (Enter /public/software/gauss/g16/l301.exe)
 Standard basis: def2TZVPP (5D, 7F)
 Ernie: Thresh=  0.10000D-02 Tol=  0.10000D-05 Strict=F.
 There are  3369 symmetry adapted cartesian basis functions of A   symmetry.
 There are  2965 symmetry adapted basis functions of A   symmetry.
  2965 basis functions,  4522 primitive gaussians,  3369 cartesian basis functions
   255 alpha electrons      254 beta electrons
       nuclear repulsion energy     10111.0458403519 Hartrees.
 IExCor= 4336 DFT=T Ex+Corr=M062X ExCW=0 ScaHFX=  0.540000
 ScaDFX=  1.000000  1.000000  1.000000  1.000000 ScalE2=  1.000000  1.000000
 IRadAn=      5 IRanWt=     -1 IRanGd=            0 ICorTp=0 IEmpDi=131
 NAtoms=  128 NActive=  128 NUniq=  128 SFac= 1.00D+00 NAtFMM=   60 NAOKFM=T Big=T
 Integral buffers will be    131072 words long.
 Raffenetti 2 integral format.
 Two-electron integral symmetry is turned on.
 R6Disp:  Grimme-D3 Dispersion energy=       -0.0124065751 Hartrees.
 Nuclear repulsion after empirical dispersion term =    10111.0334337768 Hartrees.
 ------------------------------------------------------------------------------
 Polarizable Continuum Model (PCM)
 =================================
 Model                : PCM.
 Atomic radii         : UFF (Universal Force Field).
 Polarization charges : Total charges.
 Charge compensation  : None.
 Solution method      : On-the-fly selection.
 Cavity type          : Scaled VdW (van der Waals Surface) (Alpha=1.100).
 Cavity algorithm     : GePol (No added spheres)
                        Default sphere list used, NSphG=  128.
                        Lebedev-Laikov grids with approx.  5.0 points / Ang**2.
                        Smoothing algorithm: York/Karplus (Gamma=1.0000).
                        Polarization charges: spherical gaussians, with
                                              point-specific exponents (IZeta= 3).
                        Self-potential: point-specific (ISelfS= 7).
                        Self-field    : sphere-specific E.n sum rule (ISelfD= 2).
 Solvent              : Water, Eps=  78.355300 Eps(inf)=   1.777849
 ------------------------------------------------------------------------------
 GePol: Number of generator spheres                  =     128
 GePol: Total number of spheres                      =     128
 GePol: Number of exposed spheres                    =     128 (100.00%)
 GePol: Number of points                             =    8766
 GePol: Average weight of points                     =       0.13
 GePol: Minimum weight of points                     =   0.66D-10
 GePol: Maximum weight of points                     =    0.20577
 GePol: Number of points with low weight             =     612
 GePol: Fraction of low-weight points (<1% of avg)   =       6.98%
 GePol: Cavity surface area                          =   1122.952 Ang**2
 GePol: Cavity volume                                =   1287.282 Ang**3
 Leave Link  301 at Thu Nov  6 03:16:36 2025, MaxMem= 30870077440 cpu:               6.0 elap:               0.1
 (Enter /public/software/gauss/g16/l302.exe)
 NPDir=0 NMtPBC=     1 NCelOv=     1 NCel=       1 NClECP=     1 NCelD=      1
         NCelK=      1 NCelE2=     1 NClLst=     1 CellRange=     0.0.
 One-electron integrals computed using PRISM.
 One-electron integral symmetry used in STVInt
   1 Symmetry operations used in ECPInt.
 ECPInt:  NShTT=  619941 NPrTT= 1717573 LenC2=  286497 LenP2D=  524160.
 LDataN:  DoStor=T MaxTD1= 6 Len=  172
 Number of processors reduced to  55 by ecpmxn.
 NBasis=  2965 RedAO= T EigKep=  5.16D-06  NBF=  2965
 NBsUse=  2965 1.00D-06 EigRej= -1.00D+00 NBFU=  2965
 Precomputing XC quadrature grid using
 IXCGrd= 4 IRadAn=           5 IRanWt=          -1 IRanGd=           0 AccXCQ= 0.00D+00.
 Generated NRdTot=       0 NPtTot=           0 NUsed=           0 NTot=          32
 NSgBfM=  2327  2309  2309  2312  2327 MxSgAt=   128 MxSgA2=   128.
 Leave Link  302 at Thu Nov  6 03:17:09 2025, MaxMem= 30870077440 cpu:            2083.0 elap:              32.7
 (Enter /public/software/gauss/g16/l303.exe)
 DipDrv:  MaxL=1.
 Leave Link  303 at Thu Nov  6 03:17:10 2025, MaxMem= 30870077440 cpu:              61.3 elap:               1.1
 (Enter /public/software/gauss/g16/l401.exe)
 ExpMin= 6.06D-02 ExpMax= 3.55D+04 ExpMxC= 1.21D+03 IAcc=3 IRadAn=         5 AccDes= 0.00D+00
 Harris functional with IExCor= 1009 and IRadAn=       5 diagonalized for initial guess.
 HarFok:  IExCor= 1009 AccDes= 0.00D+00 IRadAn=         5 IDoV= 1 UseB2=F ITyADJ=14
 ICtDFT=  3500011 ScaDFX=  1.000000  1.000000  1.000000  1.000000
 FoFCou: FMM=F IPFlag=           0 FMFlag=      100000 FMFlg1=        2001
         NFxFlg=           0 DoJE=T BraDBF=F KetDBF=T FulRan=T
         wScrn=  0.000000 ICntrl=       500 IOpCl=  0 I1Cent=   200000004 NGrid=           0
         NMat0=    1 NMatS0=      1 NMatT0=    0 NMatD0=    1 NMtDS0=    0 NMtDT0=    0
 Petite list used in FoFCou.
 Harris En= -3322.66869462221    
 JPrj=0 DoOrth=F DoCkMO=F.
 Initial guess <Sx>= 0.0000 <Sy>= 0.0000 <Sz>= 0.5000 <S**2>= 0.7500 S= 0.5000
 Leave Link  401 at Thu Nov  6 03:17:37 2025, MaxMem= 30870077440 cpu:            1738.9 elap:              27.3
 (Enter /public/software/gauss/g16/l502.exe)
 Integral symmetry usage will be decided dynamically.
 UHF open shell SCF:
 Using DIIS extrapolation, IDIIS=  1040.
 NGot= 30870077440 LenX= 30847133070 LenY= 30835779540
 Requested convergence on RMS density matrix=1.00D-08 within 128 cycles.
 Requested convergence on MAX density matrix=1.00D-06.
 Requested convergence on             energy=1.00D-06.
 No special actions if energy rises.
 Fock matrices will be formed incrementally for  20 cycles.

 Cycle   1  Pass 1  IDiag  1:
 FoFJK:  IHMeth= 1 ICntrl=       0 DoSepK=F KAlg= 0 I1Cent=           0 FoldK=F
 IRaf= 420000000 NMat=       1 IRICut=       1 DoRegI=T DoRafI=F ISym2E= 0 IDoP0=0 IntGTp=1.
 FoFCou: FMM=T IPFlag=           0 FMFlag=      100000 FMFlg1=        2001
         NFxFlg=           0 DoJE=F BraDBF=F KetDBF=F FulRan=T
         wScrn=  0.000000 ICntrl=         0 IOpCl=  1 I1Cent=           0 NGrid=           0
         NMat0=    1 NMatS0=      1 NMatT0=    0 NMatD0=    1 NMtDS0=    0 NMtDT0=    0
 Symmetry not used in FoFCou.
 FMM levels:  10  Number of levels for PrismC:   9
 Inv3:  Mode=1 IEnd=   230528268.
 Iteration    1 A*A^-1 deviation from unit magnitude is 2.00D-14 for   1503.
 Iteration    1 A*A^-1 deviation from orthogonality  is 9.56D-15 for   7239   3277.
 Iteration    1 A^-1*A deviation from unit magnitude is 1.95D-14 for    791.
 Iteration    1 A^-1*A deviation from orthogonality  is 1.41D-14 for   7274   7239.
 E= -3322.53367657917    
 DIIS: error= 2.52D-02 at cycle   1 NSaved=   1.
 NSaved= 1 IEnMin= 1 EnMin= -3322.53367657917     IErMin= 1 ErrMin= 2.52D-02
 ErrMax= 2.52D-02  0.00D+00 EMaxC= 1.00D-01 BMatC= 9.20D+00 BMatP= 9.20D+00
 IDIUse=3 WtCom= 7.48D-01 WtEn= 2.52D-01
 Coeff-Com:  0.100D+01
 Coeff-En:   0.100D+01
 Coeff:      0.100D+01
 Gap=     0.061 Goal=   None    Shift=    0.000
 Gap=     0.135 Goal=   None    Shift=    0.000
 GapD=    0.061 DampG=0.500 DampE=0.500 DampFc=0.2500 IDamp=-1.
 Damping current iteration by 2.50D-01
 RMSDP=1.28D-03 MaxDP=4.10D-01              OVMax= 2.56D-01

 Cycle   2  Pass 1  IDiag  1:
 RMSU=  3.19D-04    CP:  9.98D-01
 E= -3323.12070734106     Delta-E=       -0.587030761892 Rises=F Damp=T
 DIIS: error= 1.17D-02 at cycle   2 NSaved=   2.
 NSaved= 2 IEnMin= 2 EnMin= -3323.12070734106     IErMin= 2 ErrMin= 1.17D-02
 ErrMax= 1.17D-02  0.00D+00 EMaxC= 1.00D-01 BMatC= 3.22D+00 BMatP= 9.20D+00
 IDIUse=3 WtCom= 8.83D-01 WtEn= 1.17D-01
 Coeff-Com: -0.112D+01 0.212D+01
 Coeff-En:   0.000D+00 0.100D+01
 Coeff:     -0.994D+00 0.199D+01
 Gap=     0.134 Goal=   None    Shift=    0.000
 Gap=     0.155 Goal=   None    Shift=    0.000
 RMSDP=6.02D-04 MaxDP=1.71D-01 DE=-5.87D-01 OVMax= 1.73D-01

 Cycle   3  Pass 1  IDiag  1:
 RMSU=  4.39D-04    CP:  9.82D-01  2.28D+00
 E= -3324.18036894533     Delta-E=       -1.059661604268 Rises=F Damp=F
 DIIS: error= 7.38D-03 at cycle   3 NSaved=   3.
 NSaved= 3 IEnMin= 3 EnMin= -3324.18036894533     IErMin= 3 ErrMin= 7.38D-03
 ErrMax= 7.38D-03  0.00D+00 EMaxC= 1.00D-01 BMatC= 3.34D-01 BMatP= 3.22D+00
 IDIUse=3 WtCom= 9.26D-01 WtEn= 7.38D-02
 Coeff-Com: -0.479D+00 0.812D+00 0.668D+00
 Coeff-En:   0.000D+00 0.000D+00 0.100D+01
 Coeff:     -0.444D+00 0.752D+00 0.692D+00
 Gap=     0.129 Goal=   None    Shift=    0.000
 Gap=     0.141 Goal=   None    Shift=    0.000
 RMSDP=1.44D-04 MaxDP=4.96D-02 DE=-1.06D+00 OVMax= 5.63D-02

 Cycle   4  Pass 1  IDiag  1:
 RMSU=  1.41D-04    CP:  9.82D-01  2.27D+00  9.31D-01
 E= -3324.23031193295     Delta-E=       -0.049942987624 Rises=F Damp=F
 DIIS: error= 2.68D-03 at cycle   4 NSaved=   4.
 NSaved= 4 IEnMin= 4 EnMin= -3324.23031193295     IErMin= 4 ErrMin= 2.68D-03
 ErrMax= 2.68D-03  0.00D+00 EMaxC= 1.00D-01 BMatC= 7.07D-02 BMatP= 3.34D-01
 IDIUse=3 WtCom= 9.73D-01 WtEn= 2.68D-02
 Coeff-Com: -0.736D-01 0.114D+00 0.335D+00 0.625D+00
 Coeff-En:   0.000D+00 0.000D+00 0.162D+00 0.838D+00
 Coeff:     -0.716D-01 0.111D+00 0.330D+00 0.631D+00
 Gap=     0.126 Goal=   None    Shift=    0.000
 Gap=     0.143 Goal=   None    Shift=    0.000
 RMSDP=5.85D-05 MaxDP=2.68D-02 DE=-4.99D-02 OVMax= 2.20D-02

 Cycle   5  Pass 1  IDiag  1:
 RMSU=  4.37D-05    CP:  9.81D-01  2.26D+00  9.53D-01  7.37D-01
 E= -3324.24394852509     Delta-E=       -0.013636592139 Rises=F Damp=F
 DIIS: error= 2.69D-04 at cycle   5 NSaved=   5.
 NSaved= 5 IEnMin= 5 EnMin= -3324.24394852509     IErMin= 5 ErrMin= 2.69D-04
 ErrMax= 2.69D-04  0.00D+00 EMaxC= 1.00D-01 BMatC= 2.16D-03 BMatP= 7.07D-02
 IDIUse=3 WtCom= 9.97D-01 WtEn= 2.69D-03
 Coeff-Com: -0.117D-01 0.163D-01 0.111D+00 0.260D+00 0.624D+00
 Coeff-En:   0.000D+00 0.000D+00 0.000D+00 0.000D+00 0.100D+01
 Coeff:     -0.117D-01 0.163D-01 0.111D+00 0.259D+00 0.625D+00
 Gap=     0.128 Goal=   None    Shift=    0.000
 Gap=     0.144 Goal=   None    Shift=    0.000
 RMSDP=1.55D-05 MaxDP=7.96D-03 DE=-1.36D-02 OVMax= 7.00D-03

 Cycle   6  Pass 1  IDiag  1:
 RMSU=  1.35D-05    CP:  9.81D-01  2.28D+00  9.49D-01  7.74D-01  1.01D+00
 E= -3324.24437458811     Delta-E=       -0.000426063018 Rises=F Damp=F
 DIIS: error= 1.51D-04 at cycle   6 NSaved=   6.
 NSaved= 6 IEnMin= 6 EnMin= -3324.24437458811     IErMin= 6 ErrMin= 1.51D-04
 ErrMax= 1.51D-04  0.00D+00 EMaxC= 1.00D-01 BMatC= 3.79D-04 BMatP= 2.16D-03
 IDIUse=3 WtCom= 9.98D-01 WtEn= 1.51D-03
 Coeff-Com:  0.249D-02-0.455D-02 0.190D-01 0.603D-01 0.312D+00 0.610D+00
 Coeff-En:   0.000D+00 0.000D+00 0.000D+00 0.000D+00 0.000D+00 0.100D+01
 Coeff:      0.248D-02-0.455D-02 0.190D-01 0.602D-01 0.312D+00 0.611D+00
 Gap=     0.129 Goal=   None    Shift=    0.000
 Gap=     0.144 Goal=   None    Shift=    0.000
 RMSDP=6.85D-06 MaxDP=2.27D-03 DE=-4.26D-04 OVMax= 5.51D-03

 Cycle   7  Pass 1  IDiag  1:
 RMSU=  5.34D-06    CP:  9.81D-01  2.27D+00  9.53D-01  7.72D-01  1.08D+00
                    CP:  9.44D-01
 E= -3324.24447796861     Delta-E=       -0.000103380504 Rises=F Damp=F
 DIIS: error= 4.23D-05 at cycle   7 NSaved=   7.
 NSaved= 7 IEnMin= 7 EnMin= -3324.24447796861     IErMin= 7 ErrMin= 4.23D-05
 ErrMax= 4.23D-05  0.00D+00 EMaxC= 1.00D-01 BMatC= 4.96D-05 BMatP= 3.79D-04
 IDIUse=1 WtCom= 1.00D+00 WtEn= 0.00D+00
 Coeff-Com:  0.318D-02-0.481D-02-0.132D-01-0.257D-01 0.914D-03 0.225D+00
 Coeff-Com:  0.815D+00
 Coeff:      0.318D-02-0.481D-02-0.132D-01-0.257D-01 0.914D-03 0.225D+00
 Coeff:      0.815D+00
 Gap=     0.129 Goal=   None    Shift=    0.000
 Gap=     0.145 Goal=   None    Shift=    0.000
 RMSDP=4.59D-06 MaxDP=2.01D-03 DE=-1.03D-04 OVMax= 4.40D-03

 Cycle   8  Pass 1  IDiag  1:
 RMSU=  2.97D-06    CP:  9.81D-01  2.27D+00  9.55D-01  7.82D-01  1.12D+00
                    CP:  1.09D+00  1.35D+00
 E= -3324.24450847625     Delta-E=       -0.000030507637 Rises=F Damp=F
 DIIS: error= 3.31D-05 at cycle   8 NSaved=   8.
 NSaved= 8 IEnMin= 8 EnMin= -3324.24450847625     IErMin= 8 ErrMin= 3.31D-05
 ErrMax= 3.31D-05  0.00D+00 EMaxC= 1.00D-01 BMatC= 1.69D-05 BMatP= 4.96D-05
 IDIUse=1 WtCom= 1.00D+00 WtEn= 0.00D+00
 Coeff-Com:  0.969D-03-0.126D-02-0.102D-01-0.261D-01-0.757D-01-0.491D-01
 Coeff-Com:  0.377D+00 0.784D+00
 Coeff:      0.969D-03-0.126D-02-0.102D-01-0.261D-01-0.757D-01-0.491D-01
 Coeff:      0.377D+00 0.784D+00
 Gap=     0.129 Goal=   None    Shift=    0.000
 Gap=     0.146 Goal=   None    Shift=    0.000
 RMSDP=2.93D-06 MaxDP=7.50D-04 DE=-3.05D-05 OVMax= 3.28D-03

 Cycle   9  Pass 1  IDiag  1:
 RMSU=  1.35D-06    CP:  9.81D-01  2.27D+00  9.56D-01  7.83D-01  1.14D+00
                    CP:  1.13D+00  1.72D+00  1.39D+00
 E= -3324.24452105976     Delta-E=       -0.000012583516 Rises=F Damp=F
 DIIS: error= 1.59D-05 at cycle   9 NSaved=   9.
 NSaved= 9 IEnMin= 9 EnMin= -3324.24452105976     IErMin= 9 ErrMin= 1.59D-05
 ErrMax= 1.59D-05  0.00D+00 EMaxC= 1.00D-01 BMatC= 3.98D-06 BMatP= 1.69D-05
 IDIUse=1 WtCom= 1.00D+00 WtEn= 0.00D+00
 Coeff-Com: -0.629D-03 0.102D-02 0.119D-02-0.101D-03-0.254D-01-0.887D-01
 Coeff-Com: -0.132D+00 0.242D+00 0.100D+01
 Coeff:     -0.629D-03 0.102D-02 0.119D-02-0.101D-03-0.254D-01-0.887D-01
 Coeff:     -0.132D+00 0.242D+00 0.100D+01
 Gap=     0.129 Goal=   None    Shift=    0.000
 Gap=     0.146 Goal=   None    Shift=    0.000
 RMSDP=2.23D-06 MaxDP=7.27D-04 DE=-1.26D-05 OVMax= 2.61D-03

 Cycle  10  Pass 1  IDiag  1:
 RMSU=  8.97D-07    CP:  9.81D-01  2.27D+00  9.56D-01  7.82D-01  1.14D+00
                    CP:  1.15D+00  1.96D+00  1.80D+00  1.57D+00
 E= -3324.24452564623     Delta-E=       -0.000004586469 Rises=F Damp=F
 DIIS: error= 1.70D-05 at cycle  10 NSaved=  10.
 NSaved=10 IEnMin=10 EnMin= -3324.24452564623     IErMin= 9 ErrMin= 1.59D-05
 ErrMax= 1.70D-05  0.00D+00 EMaxC= 1.00D-01 BMatC= 1.84D-06 BMatP= 3.98D-06
 IDIUse=1 WtCom= 1.00D+00 WtEn= 0.00D+00
 Coeff-Com: -0.619D-03 0.921D-03 0.364D-02 0.766D-02 0.777D-02-0.355D-01
 Coeff-Com: -0.183D+00-0.105D+00 0.585D+00 0.719D+00
 Coeff:     -0.619D-03 0.921D-03 0.364D-02 0.766D-02 0.777D-02-0.355D-01
 Coeff:     -0.183D+00-0.105D+00 0.585D+00 0.719D+00
 Gap=     0.130 Goal=   None    Shift=    0.000
 Gap=     0.146 Goal=   None    Shift=    0.000
 RMSDP=1.24D-06 MaxDP=5.52D-04 DE=-4.59D-06 OVMax= 1.09D-03

 Cycle  11  Pass 1  IDiag  1:
 RMSU=  4.39D-07    CP:  9.81D-01  2.27D+00  9.56D-01  7.82D-01  1.15D+00
                    CP:  1.14D+00  2.08D+00  2.01D+00  2.03D+00  1.22D+00
 E= -3324.24452669023     Delta-E=       -0.000001043998 Rises=F Damp=F
 DIIS: error= 7.28D-06 at cycle  11 NSaved=  11.
 NSaved=11 IEnMin=11 EnMin= -3324.24452669023     IErMin=11 ErrMin= 7.28D-06
 ErrMax= 7.28D-06  0.00D+00 EMaxC= 1.00D-01 BMatC= 3.45D-07 BMatP= 1.84D-06
 IDIUse=1 WtCom= 1.00D+00 WtEn= 0.00D+00
 Coeff-Com: -0.172D-03 0.239D-03 0.156D-02 0.402D-02 0.978D-02 0.869D-03
 Coeff-Com: -0.627D-01-0.111D+00 0.788D-01 0.363D+00 0.716D+00
 Coeff:     -0.172D-03 0.239D-03 0.156D-02 0.402D-02 0.978D-02 0.869D-03
 Coeff:     -0.627D-01-0.111D+00 0.788D-01 0.363D+00 0.716D+00
 Gap=     0.130 Goal=   None    Shift=    0.000
 Gap=     0.146 Goal=   None    Shift=    0.000
 RMSDP=5.49D-07 MaxDP=2.83D-04 DE=-1.04D-06 OVMax= 3.50D-04

 Cycle  12  Pass 1  IDiag  1:
 RMSU=  1.96D-07    CP:  9.81D-01  2.26D+00  9.56D-01  7.82D-01  1.14D+00
                    CP:  1.13D+00  2.11D+00  2.07D+00  2.21D+00  1.50D+00
                    CP:  1.22D+00
 E= -3324.24452684853     Delta-E=       -0.000000158298 Rises=F Damp=F
 DIIS: error= 2.69D-06 at cycle  12 NSaved=  12.
 NSaved=12 IEnMin=12 EnMin= -3324.24452684853     IErMin=12 ErrMin= 2.69D-06
 ErrMax= 2.69D-06  0.00D+00 EMaxC= 1.00D-01 BMatC= 6.73D-08 BMatP= 3.45D-07
 IDIUse=1 WtCom= 1.00D+00 WtEn= 0.00D+00
 Coeff-Com:  0.305D-04-0.530D-04 0.151D-04 0.373D-03 0.296D-02 0.618D-02
 Coeff-Com:  0.787D-02-0.283D-01-0.752D-01 0.199D-01 0.333D+00 0.733D+00
 Coeff:      0.305D-04-0.530D-04 0.151D-04 0.373D-03 0.296D-02 0.618D-02
 Coeff:      0.787D-02-0.283D-01-0.752D-01 0.199D-01 0.333D+00 0.733D+00
 Gap=     0.130 Goal=   None    Shift=    0.000
 Gap=     0.146 Goal=   None    Shift=    0.000
 RMSDP=2.00D-07 MaxDP=9.85D-05 DE=-1.58D-07 OVMax= 7.64D-05

 Cycle  13  Pass 1  IDiag  1:
 RMSU=  7.69D-08    CP:  9.81D-01  2.26D+00  9.56D-01  7.82D-01  1.14D+00
                    CP:  1.12D+00  2.11D+00  2.08D+00  2.27D+00  1.58D+00
                    CP:  1.42D+00  1.18D+00
 E= -3324.24452687726     Delta-E=       -0.000000028729 Rises=F Damp=F
 DIIS: error= 7.58D-07 at cycle  13 NSaved=  13.
 NSaved=13 IEnMin=13 EnMin= -3324.24452687726     IErMin=13 ErrMin= 7.58D-07
 ErrMax= 7.58D-07  0.00D+00 EMaxC= 1.00D-01 BMatC= 1.38D-08 BMatP= 6.73D-08
 IDIUse=1 WtCom= 1.00D+00 WtEn= 0.00D+00
 Coeff-Com:  0.478D-04-0.707D-04-0.354D-03-0.767D-03-0.881D-03 0.213D-02
 Coeff-Com:  0.181D-01 0.141D-01-0.503D-01-0.781D-01-0.306D-01 0.298D+00
 Coeff-Com:  0.828D+00
 Coeff:      0.478D-04-0.707D-04-0.354D-03-0.767D-03-0.881D-03 0.213D-02
 Coeff:      0.181D-01 0.141D-01-0.503D-01-0.781D-01-0.306D-01 0.298D+00
 Coeff:      0.828D+00
 Gap=     0.130 Goal=   None    Shift=    0.000
 Gap=     0.146 Goal=   None    Shift=    0.000
 RMSDP=1.23D-07 MaxDP=6.10D-05 DE=-2.87D-08 OVMax= 3.24D-05

 Cycle  14  Pass 1  IDiag  1:
 RMSU=  4.00D-08    CP:  9.81D-01  2.26D+00  9.56D-01  7.82D-01  1.14D+00
                    CP:  1.12D+00  2.11D+00  2.08D+00  2.29D+00  1.63D+00
                    CP:  1.54D+00  1.44D+00  1.33D+00
 E= -3324.24452688615     Delta-E=       -0.000000008895 Rises=F Damp=F
 DIIS: error= 3.72D-07 at cycle  14 NSaved=  14.
 NSaved=14 IEnMin=14 EnMin= -3324.24452688615     IErMin=14 ErrMin= 3.72D-07
 ErrMax= 3.72D-07  0.00D+00 EMaxC= 1.00D-01 BMatC= 2.56D-09 BMatP= 1.38D-08
 IDIUse=1 WtCom= 1.00D+00 WtEn= 0.00D+00
 Coeff-Com:  0.715D-05-0.923D-05-0.101D-03-0.299D-03-0.822D-03-0.758D-03
 Coeff-Com:  0.389D-02 0.994D-02 0.220D-02-0.256D-01-0.811D-01-0.705D-01
 Coeff-Com:  0.249D+00 0.914D+00
 Coeff:      0.715D-05-0.923D-05-0.101D-03-0.299D-03-0.822D-03-0.758D-03
 Coeff:      0.389D-02 0.994D-02 0.220D-02-0.256D-01-0.811D-01-0.705D-01
 Coeff:      0.249D+00 0.914D+00
 Gap=     0.130 Goal=   None    Shift=    0.000
 Gap=     0.146 Goal=   None    Shift=    0.000
 RMSDP=4.87D-08 MaxDP=2.11D-05 DE=-8.89D-09 OVMax= 2.64D-05

 Cycle  15  Pass 1  IDiag  1:
 RMSU=  1.85D-08    CP:  9.81D-01  2.26D+00  9.56D-01  7.81D-01  1.14D+00
                    CP:  1.12D+00  2.11D+00  2.08D+00  2.30D+00  1.64D+00
                    CP:  1.57D+00  1.54D+00  1.64D+00  1.36D+00
 E= -3324.24452688789     Delta-E=       -0.000000001735 Rises=F Damp=F
 DIIS: error= 2.87D-07 at cycle  15 NSaved=  15.
 NSaved=15 IEnMin=15 EnMin= -3324.24452688789     IErMin=15 ErrMin= 2.87D-07
 ErrMax= 2.87D-07  0.00D+00 EMaxC= 1.00D-01 BMatC= 8.07D-10 BMatP= 2.56D-09
 IDIUse=1 WtCom= 1.00D+00 WtEn= 0.00D+00
 Coeff-Com: -0.782D-05 0.122D-04 0.462D-04 0.577D-04-0.149D-03-0.910D-03
 Coeff-Com: -0.287D-02 0.428D-03 0.136D-01 0.911D-02-0.285D-01-0.107D+00
 Coeff-Com: -0.973D-01 0.391D+00 0.823D+00
 Coeff:     -0.782D-05 0.122D-04 0.462D-04 0.577D-04-0.149D-03-0.910D-03
 Coeff:     -0.287D-02 0.428D-03 0.136D-01 0.911D-02-0.285D-01-0.107D+00
 Coeff:     -0.973D-01 0.391D+00 0.823D+00
 Gap=     0.130 Goal=   None    Shift=    0.000
 Gap=     0.146 Goal=   None    Shift=    0.000
 RMSDP=2.25D-08 MaxDP=5.89D-06 DE=-1.74D-09 OVMax= 1.36D-05

 Cycle  16  Pass 1  IDiag  1:
 RMSU=  8.66D-09    CP:  9.81D-01  2.26D+00  9.56D-01  7.81D-01  1.14D+00
                    CP:  1.12D+00  2.11D+00  2.08D+00  2.30D+00  1.64D+00
                    CP:  1.58D+00  1.59D+00  1.78D+00  1.65D+00  1.50D+00
 E= -3324.24452688877     Delta-E=       -0.000000000886 Rises=F Damp=F
 DIIS: error= 1.21D-07 at cycle  16 NSaved=  16.
 NSaved=16 IEnMin=16 EnMin= -3324.24452688877     IErMin=16 ErrMin= 1.21D-07
 ErrMax= 1.21D-07  0.00D+00 EMaxC= 1.00D-01 BMatC= 2.12D-10 BMatP= 8.07D-10
 IDIUse=1 WtCom= 1.00D+00 WtEn= 0.00D+00
 Coeff-Com: -0.410D-05 0.626D-05 0.438D-04 0.911D-04 0.119D-03-0.211D-03
 Coeff-Com: -0.211D-02-0.224D-02 0.563D-02 0.106D-01 0.587D-02-0.331D-01
 Coeff-Com: -0.102D+00-0.446D-01 0.385D+00 0.777D+00
 Coeff:     -0.410D-05 0.626D-05 0.438D-04 0.911D-04 0.119D-03-0.211D-03
 Coeff:     -0.211D-02-0.224D-02 0.563D-02 0.106D-01 0.587D-02-0.331D-01
 Coeff:     -0.102D+00-0.446D-01 0.385D+00 0.777D+00
 Gap=     0.130 Goal=   None    Shift=    0.000
 Gap=     0.146 Goal=   None    Shift=    0.000
 RMSDP=1.20D-08 MaxDP=3.60D-06 DE=-8.86D-10 OVMax= 8.03D-06

 Cycle  17  Pass 1  IDiag  1:
 RMSU=  5.08D-09    CP:  9.81D-01  2.26D+00  9.56D-01  7.81D-01  1.14D+00
                    CP:  1.12D+00  2.11D+00  2.08D+00  2.30D+00  1.64D+00
                    CP:  1.58D+00  1.59D+00  1.82D+00  1.77D+00  1.83D+00
                    CP:  1.40D+00
 E= -3324.24452688921     Delta-E=       -0.000000000435 Rises=F Damp=F
 DIIS: error= 9.46D-08 at cycle  17 NSaved=  17.
 NSaved=17 IEnMin=17 EnMin= -3324.24452688921     IErMin=17 ErrMin= 9.46D-08
 ErrMax= 9.46D-08  0.00D+00 EMaxC= 1.00D-01 BMatC= 3.94D-11 BMatP= 2.12D-10
 IDIUse=1 WtCom= 1.00D+00 WtEn= 0.00D+00
 Coeff-Com:  0.639D-06-0.915D-06 0.515D-05 0.187D-04 0.653D-04 0.134D-03
 Coeff-Com: -0.700D-04-0.866D-03-0.102D-02 0.170D-02 0.772D-02 0.115D-01
 Coeff-Com: -0.112D-01-0.101D+00-0.525D-01 0.257D+00 0.888D+00
 Coeff:      0.639D-06-0.915D-06 0.515D-05 0.187D-04 0.653D-04 0.134D-03
 Coeff:     -0.700D-04-0.866D-03-0.102D-02 0.170D-02 0.772D-02 0.115D-01
 Coeff:     -0.112D-01-0.101D+00-0.525D-01 0.257D+00 0.888D+00
 Gap=     0.130 Goal=   None    Shift=    0.000
 Gap=     0.146 Goal=   None    Shift=    0.000
 RMSDP=8.00D-09 MaxDP=3.72D-06 DE=-4.35D-10 OVMax= 5.39D-06

 Cycle  18  Pass 1  IDiag  1:
 RMSU=  2.22D-09    CP:  9.81D-01  2.26D+00  9.56D-01  7.81D-01  1.14D+00
                    CP:  1.12D+00  2.11D+00  2.08D+00  2.30D+00  1.64D+00
                    CP:  1.57D+00  1.58D+00  1.83D+00  1.80D+00  2.03D+00
                    CP:  1.76D+00  1.59D+00
 E= -3324.24452688888     Delta-E=        0.000000000324 Rises=F Damp=F
 DIIS: error= 8.24D-08 at cycle  18 NSaved=  18.
 NSaved=18 IEnMin=17 EnMin= -3324.24452688921     IErMin=18 ErrMin= 8.24D-08
 ErrMax= 8.24D-08  0.00D+00 EMaxC= 1.00D-01 BMatC= 1.47D-11 BMatP= 3.94D-11
 IDIUse=1 WtCom= 1.00D+00 WtEn= 0.00D+00
 Coeff-Com:  0.129D-05-0.195D-05-0.874D-05-0.141D-04-0.504D-05 0.115D-03
 Coeff-Com:  0.487D-03 0.170D-03-0.191D-02-0.197D-02 0.182D-02 0.133D-01
 Coeff-Com:  0.225D-01-0.336D-01-0.124D+00-0.834D-01 0.389D+00 0.818D+00
 Coeff:      0.129D-05-0.195D-05-0.874D-05-0.141D-04-0.504D-05 0.115D-03
 Coeff:      0.487D-03 0.170D-03-0.191D-02-0.197D-02 0.182D-02 0.133D-01
 Coeff:      0.225D-01-0.336D-01-0.124D+00-0.834D-01 0.389D+00 0.818D+00
 Gap=     0.130 Goal=   None    Shift=    0.000
 Gap=     0.146 Goal=   None    Shift=    0.000
 RMSDP=4.62D-09 MaxDP=2.25D-06 DE= 3.24D-10 OVMax= 3.33D-06

 Cycle  19  Pass 1  IDiag  1:
 RMSU=  1.14D-09    CP:  9.81D-01  2.26D+00  9.56D-01  7.81D-01  1.14D+00
                    CP:  1.12D+00  2.11D+00  2.08D+00  2.29D+00  1.64D+00
                    CP:  1.57D+00  1.57D+00  1.83D+00  1.81D+00  2.13D+00
                    CP:  1.96D+00  2.01D+00  1.48D+00
 E= -3324.24452688855     Delta-E=        0.000000000337 Rises=F Damp=F
 DIIS: error= 6.81D-08 at cycle  19 NSaved=  19.
 NSaved=19 IEnMin=17 EnMin= -3324.24452688921     IErMin=19 ErrMin= 6.81D-08
 ErrMax= 6.81D-08  0.00D+00 EMaxC= 1.00D-01 BMatC= 5.47D-12 BMatP= 1.47D-11
 IDIUse=1 WtCom= 1.00D+00 WtEn= 0.00D+00
 Coeff-Com:  0.168D-06-0.287D-06-0.407D-05-0.845D-05-0.183D-04 0.902D-05
 Coeff-Com:  0.167D-03 0.296D-03-0.329D-03-0.107D-02-0.139D-02 0.106D-02
 Coeff-Com:  0.990D-02 0.151D-01-0.274D-01-0.898D-01-0.107D+00 0.246D+00
 Coeff-Com:  0.954D+00
 Coeff:      0.168D-06-0.287D-06-0.407D-05-0.845D-05-0.183D-04 0.902D-05
 Coeff:      0.167D-03 0.296D-03-0.329D-03-0.107D-02-0.139D-02 0.106D-02
 Coeff:      0.990D-02 0.151D-01-0.274D-01-0.898D-01-0.107D+00 0.246D+00
 Coeff:      0.954D+00
 Gap=     0.130 Goal=   None    Shift=    0.000
 Gap=     0.146 Goal=   None    Shift=    0.000
 RMSDP=2.84D-09 MaxDP=1.32D-06 DE= 3.37D-10 OVMax= 3.12D-06

 Cycle  20  Pass 1  IDiag  1:
 RMSU=  7.78D-10    CP:  9.81D-01  2.26D+00  9.56D-01  7.81D-01  1.14D+00
                    CP:  1.12D+00  2.11D+00  2.08D+00  2.29D+00  1.64D+00
                    CP:  1.57D+00  1.57D+00  1.83D+00  1.81D+00  2.17D+00
                    CP:  2.07D+00  2.26D+00  1.99D+00  1.63D+00
 E= -3324.24452688942     Delta-E=       -0.000000000875 Rises=F Damp=F
 DIIS: error= 5.99D-08 at cycle  20 NSaved=  20.
 NSaved=20 IEnMin=20 EnMin= -3324.24452688942     IErMin=20 ErrMin= 5.99D-08
 ErrMax= 5.99D-08  0.00D+00 EMaxC= 1.00D-01 BMatC= 3.65D-12 BMatP= 5.47D-12
 IDIUse=1 WtCom= 1.00D+00 WtEn= 0.00D+00
 Coeff-Com: -0.651D-06 0.952D-06 0.226D-05 0.289D-05-0.825D-05-0.546D-04
 Coeff-Com: -0.170D-03 0.886D-04 0.802D-03 0.387D-03-0.171D-02-0.640D-02
 Coeff-Com: -0.617D-02 0.262D-01 0.483D-01-0.628D-02-0.263D+00-0.287D+00
 Coeff-Com:  0.557D+00 0.938D+00
 Coeff:     -0.651D-06 0.952D-06 0.226D-05 0.289D-05-0.825D-05-0.546D-04
 Coeff:     -0.170D-03 0.886D-04 0.802D-03 0.387D-03-0.171D-02-0.640D-02
 Coeff:     -0.617D-02 0.262D-01 0.483D-01-0.628D-02-0.263D+00-0.287D+00
 Coeff:      0.557D+00 0.938D+00
 Gap=     0.130 Goal=   None    Shift=    0.000
 Gap=     0.146 Goal=   None    Shift=    0.000
 RMSDP=2.13D-09 MaxDP=7.78D-07 DE=-8.75D-10 OVMax= 3.39D-06

 Error on total polarization charges =  0.02902
 SCF Done:  E(UM062X) =  -3324.24452689     A.U. after   20 cycles
            NFock= 20  Conv=0.21D-08     -V/T= 2.0054
 <Sx>= 0.0000 <Sy>= 0.0000 <Sz>= 0.5000 <S**2>= 0.7654 S= 0.5077
 <L.S>= 0.000000000000E+00
 KE= 3.306531950593D+03 PE=-2.802844568470D+04 EE= 1.128663577344D+04
 Annihilation of the first spin contaminant:
 S**2 before annihilation     0.7654,   after     0.7502
 Leave Link  502 at Thu Nov  6 04:28:15 2025, MaxMem= 30870077440 cpu:          267718.8 elap:            4237.5
 (Enter /public/software/gauss/g16/l601.exe)
 Copying SCF densities to generalized density rwf, IOpCl= 1 IROHF=0.
 Hyperfine terms turned off by default for NAtoms > 100.

 **********************************************************************

            Population analysis using the SCF density.

 **********************************************************************

 Orbital symmetries:
 Alpha Orbitals:
       Occupied  (A) (A) (A) (A) (A) (A) (A) (A) (A) (A) (A) (A)
                 (A) (A) (A) (A) (A) (A) (A) (A) (A) (A) (A) (A)
                 (A) (A) (A) (A) (A) (A) (A) (A) (A) (A) (A) (A)
                 (A) (A) (A) (A) (A) (A) (A) (A) (A) (A) (A) (A)
                 (A) (A) (A) (A) (A) (A) (A) (A) (A) (A) (A) (A)
                 (A) (A) (A) (A) (A) (A) (A) (A) (A) (A) (A) (A)
                 (A) (A) (A) (A) (A) (A) (A) (A) (A) (A) (A) (A)
                 (A) (A) (A) (A) (A) (A) (A) (A) (A) (A) (A) (A)
                 (A) (A) (A) (A) (A) (A) (A) (A) (A) (A) (A) (A)
                 (A) (A) (A) (A) (A) (A) (A) (A) (A) (A) (A) (A)
                 (A) (A) (A) (A) (A) (A) (A) (A) (A) (A) (A) (A)
                 (A) (A) (A) (A) (A) (A) (A) (A) (A) (A) (A) (A)
                 (A) (A) (A) (A) (A) (A) (A) (A) (A) (A) (A) (A)
                 (A) (A) (A) (A) (A) (A) (A) (A) (A) (A) (A) (A)
                 (A) (A) (A) (A) (A) (A) (A) (A) (A) (A) (A) (A)
                 (A) (A) (A) (A) (A) (A) (A) (A) (A) (A) (A) (A)
                 (A) (A) (A) (A) (A) (A) (A) (A) (A) (A) (A) (A)
                 (A) (A) (A) (A) (A) (A) (A) (A) (A) (A) (A) (A)
                 (A) (A) (A) (A) (A) (A) (A) (A) (A) (A) (A) (A)
                 (A) (A) (A) (A) (A) (A) (A) (A) (A) (A) (A) (A)
                 (A) (A) (A) (A) (A) (A) (A) (A) (A) (A) (A) (A)
                 (A) (A) (A)
       Virtual   (A) (A) (A) (A) (A) (A) (A) (A) (A) (A) (A) (A)
                 (A) (A) (A) (A) (A) (A) (A) (A) (A) (A) (A) (A)
                 (A) (A) (A) (A) (A) (A) (A) (A) (A) (A) (A) (A)
                 (A) (A) (A) (A) (A) (A) (A) (A) (A) (A) (A) (A)
                 (A) (A) (A) (A) (A) (A) (A) (A) (A) (A) (A) (A)
                 (A) (A) (A) (A) (A) (A) (A) (A) (A) (A) (A) (A)
                 (A) (A) (A) (A) (A) (A) (A) (A) (A) (A) (A) (A)
                 (A) (A) (A) (A) (A) (A) (A) (A) (A) (A) (A) (A)
                 (A) (A) (A) (A) (A) (A) (A) (A) (A) (A) (A) (A)
                 (A) (A) (A) (A) (A) (A) (A) (A) (A) (A) (A) (A)
                 (A) (A) (A) (A) (A) (A) (A) (A) (A) (A) (A) (A)
                 (A) (A) (A) (A) (A) (A) (A) (A) (A) (A) (A) (A)
                 (A) (A) (A) (A) (A) (A) (A) (A) (A) (A) (A) (A)
                 (A) (A) (A) (A) (A) (A) (A) (A) (A) (A) (A) (A)
                 (A) (A) (A) (A) (A) (A) (A) (A) (A) (A) (A) (A)
                 (A) (A) (A) (A) (A) (A) (A) (A) (A) (A) (A) (A)
                 (A) (A) (A) (A) (A) (A) (A) (A) (A) (A) (A) (A)
                 (A) (A) (A) (A) (A) (A) (A) (A) (A) (A) (A) (A)
                 (A) (A) (A) (A) (A) (A) (A) (A) (A) (A) (A) (A)
                 (A) (A) (A) (A) (A) (A) (A) (A) (A) (A) (A) (A)
                 (A) (A) (A) (A) (A) (A) (A) (A) (A) (A) (A) (A)
                 (A) (A) (A) (A) (A) (A) (A) (A) (A) (A) (A) (A)
                 (A) (A) (A) (A) (A) (A) (A) (A) (A) (A) (A) (A)
                 (A) (A) (A) (A) (A) (A) (A) (A) (A) (A) (A) (A)
                 (A) (A) (A) (A) (A) (A) (A) (A) (A) (A) (A) (A)
                 (A) (A) (A) (A) (A) (A) (A) (A) (A) (A) (A) (A)
                 (A) (A) (A) (A) (A) (A) (A) (A) (A) (A) (A) (A)
                 (A) (A) (A) (A) (A) (A) (A) (A) (A) (A) (A) (A)
                 (A) (A) (A) (A) (A) (A) (A) (A) (A) (A) (A) (A)
                 (A) (A) (A) (A) (A) (A) (A) (A) (A) (A) (A) (A)
                 (A) (A) (A) (A) (A) (A) (A) (A) (A) (A) (A) (A)
                 (A) (A) (A) (A) (A) (A) (A) (A) (A) (A) (A) (A)
                 (A) (A) (A) (A) (A) (A) (A) (A) (A) (A) (A) (A)
                 (A) (A) (A) (A) (A) (A) (A) (A) (A) (A) (A) (A)
                 (A) (A) (A) (A) (A) (A) (A) (A) (A) (A) (A) (A)
                 (A) (A) (A) (A) (A) (A) (A) (A) (A) (A) (A) (A)
                 (A) (A) (A) (A) (A) (A) (A) (A) (A) (A) (A) (A)
                 (A) (A) (A) (A) (A) (A) (A) (A) (A) (A) (A) (A)
                 (A) (A) (A) (A) (A) (A) (A) (A) (A) (A) (A) (A)
                 (A) (A) (A) (A) (A) (A) (A) (A) (A) (A) (A) (A)
                 (A) (A) (A) (A) (A) (A) (A) (A) (A) (A) (A) (A)
                 (A) (A) (A) (A) (A) (A) (A) (A) (A) (A) (A) (A)
                 (A) (A) (A) (A) (A) (A) (A) (A) (A) (A) (A) (A)
                 (A) (A) (A) (A) (A) (A) (A) (A) (A) (A) (A) (A)
                 (A) (A) (A) (A) (A) (A) (A) (A) (A) (A) (A) (A)
                 (A) (A) (A) (A) (A) (A) (A) (A) (A) (A) (A) (A)
                 (A) (A) (A) (A) (A) (A) (A) (A) (A) (A) (A) (A)
                 (A) (A) (A) (A) (A) (A) (A) (A) (A) (A) (A) (A)
                 (A) (A) (A) (A) (A) (A) (A) (A) (A) (A) (A) (A)
                 (A) (A) (A) (A) (A) (A) (A) (A) (A) (A) (A) (A)
                 (A) (A) (A) (A) (A) (A) (A) (A) (A) (A) (A) (A)
                 (A) (A) (A) (A) (A) (A) (A) (A) (A) (A) (A) (A)
                 (A) (A) (A) (A) (A) (A) (A) (A) (A) (A) (A) (A)
                 (A) (A) (A) (A) (A) (A) (A) (A) (A) (A) (A) (A)
                 (A) (A) (A) (A) (A) (A) (A) (A) (A) (A) (A) (A)
                 (A) (A) (A) (A) (A) (A) (A) (A) (A) (A) (A) (A)
                 (A) (A) (A) (A) (A) (A) (A) (A) (A) (A) (A) (A)
                 (A) (A) (A) (A) (A) (A) (A) (A) (A) (A) (A) (A)
                 (A) (A) (A) (A) (A) (A) (A) (A) (A) (A) (A) (A)
                 (A) (A) (A) (A) (A) (A) (A) (A) (A) (A) (A) (A)
                 (A) (A) (A) (A) (A) (A) (A) (A) (A) (A) (A) (A)
                 (A) (A) (A) (A) (A) (A) (A) (A) (A) (A) (A) (A)
                 (A) (A) (A) (A) (A) (A) (A) (A) (A) (A) (A) (A)
                 (A) (A) (A) (A) (A) (A) (A) (A) (A) (A) (A) (A)
                 (A) (A) (A) (A) (A) (A) (A) (A) (A) (A) (A) (A)
                 (A) (A) (A) (A) (A) (A) (A) (A) (A) (A) (A) (A)
                 (A) (A) (A) (A) (A) (A) (A) (A) (A) (A) (A) (A)
                 (A) (A) (A) (A) (A) (A) (A) (A) (A) (A) (A) (A)
                 (A) (A) (A) (A) (A) (A) (A) (A) (A) (A) (A) (A)
                 (A) (A) (A) (A) (A) (A) (A) (A) (A) (A) (A) (A)
                 (A) (A) (A) (A) (A) (A) (A) (A) (A) (A) (A) (A)
                 (A) (A) (A) (A) (A) (A) (A) (A) (A) (A) (A) (A)
                 (A) (A) (A) (A) (A) (A) (A) (A) (A) (A) (A) (A)
                 (A) (A) (A) (A) (A) (A) (A) (A) (A) (A) (A) (A)
                 (A) (A) (A) (A) (A) (A) (A) (A) (A) (A) (A) (A)
                 (A) (A) (A) (A) (A) (A) (A) (A) (A) (A) (A) (A)
                 (A) (A) (A) (A) (A) (A) (A) (A) (A) (A) (A) (A)
                 (A) (A) (A) (A) (A) (A) (A) (A) (A) (A) (A) (A)
                 (A) (A) (A) (A) (A) (A) (A) (A) (A) (A) (A) (A)
                 (A) (A) (A) (A) (A) (A) (A) (A) (A) (A) (A) (A)
                 (A) (A) (A) (A) (A) (A) (A) (A) (A) (A) (A) (A)
                 (A) (A) (A) (A) (A) (A) (A) (A) (A) (A) (A) (A)
                 (A) (A) (A) (A) (A) (A) (A) (A) (A) (A) (A) (A)
                 (A) (A) (A) (A) (A) (A) (A) (A) (A) (A) (A) (A)
                 (A) (A) (A) (A) (A) (A) (A) (A) (A) (A) (A) (A)
                 (A) (A) (A) (A) (A) (A) (A) (A) (A) (A) (A) (A)
                 (A) (A) (A) (A) (A) (A) (A) (A) (A) (A) (A) (A)
                 (A) (A) (A) (A) (A) (A) (A) (A) (A) (A) (A) (A)
                 (A) (A) (A) (A) (A) (A) (A) (A) (A) (A) (A) (A)
                 (A) (A) (A) (A) (A) (A) (A) (A) (A) (A) (A) (A)
                 (A) (A) (A) (A) (A) (A) (A) (A) (A) (A) (A) (A)
                 (A) (A) (A) (A) (A) (A) (A) (A) (A) (A) (A) (A)
                 (A) (A) (A) (A) (A) (A) (A) (A) (A) (A) (A) (A)
                 (A) (A) (A) (A) (A) (A) (A) (A) (A) (A) (A) (A)
                 (A) (A) (A) (A) (A) (A) (A) (A) (A) (A) (A) (A)
                 (A) (A) (A) (A) (A) (A) (A) (A) (A) (A) (A) (A)
                 (A) (A) (A) (A) (A) (A) (A) (A) (A) (A) (A) (A)
                 (A) (A) (A) (A) (A) (A) (A) (A) (A) (A) (A) (A)
                 (A) (A) (A) (A) (A) (A) (A) (A) (A) (A) (A) (A)
                 (A) (A) (A) (A) (A) (A) (A) (A) (A) (A) (A) (A)
                 (A) (A) (A) (A) (A) (A) (A) (A) (A) (A) (A) (A)
                 (A) (A) (A) (A) (A) (A) (A) (A) (A) (A) (A) (A)
                 (A) (A) (A) (A) (A) (A) (A) (A) (A) (A) (A) (A)
                 (A) (A) (A) (A) (A) (A) (A) (A) (A) (A) (A) (A)
                 (A) (A) (A) (A) (A) (A) (A) (A) (A) (A) (A) (A)
                 (A) (A) (A) (A) (A) (A) (A) (A) (A) (A) (A) (A)
                 (A) (A) (A) (A) (A) (A) (A) (A) (A) (A) (A) (A)
                 (A) (A) (A) (A) (A) (A) (A) (A) (A) (A) (A) (A)
                 (A) (A) (A) (A) (A) (A) (A) (A) (A) (A) (A) (A)
                 (A) (A) (A) (A) (A) (A) (A) (A) (A) (A) (A) (A)
                 (A) (A) (A) (A) (A) (A) (A) (A) (A) (A) (A) (A)
                 (A) (A) (A) (A) (A) (A) (A) (A) (A) (A) (A) (A)
                 (A) (A) (A) (A) (A) (A) (A) (A) (A) (A) (A) (A)
                 (A) (A) (A) (A) (A) (A) (A) (A) (A) (A) (A) (A)
                 (A) (A) (A) (A) (A) (A) (A) (A) (A) (A) (A) (A)
                 (A) (A) (A) (A) (A) (A) (A) (A) (A) (A) (A) (A)
                 (A) (A) (A) (A) (A) (A) (A) (A) (A) (A) (A) (A)
                 (A) (A) (A) (A) (A) (A) (A) (A) (A) (A) (A) (A)
                 (A) (A) (A) (A) (A) (A) (A) (A) (A) (A) (A) (A)
                 (A) (A) (A) (A) (A) (A) (A) (A) (A) (A) (A) (A)
                 (A) (A) (A) (A) (A) (A) (A) (A) (A) (A) (A) (A)
                 (A) (A) (A) (A) (A) (A) (A) (A) (A) (A) (A) (A)
                 (A) (A) (A) (A) (A) (A) (A) (A) (A) (A) (A) (A)
                 (A) (A) (A) (A) (A) (A) (A) (A) (A) (A) (A) (A)
                 (A) (A) (A) (A) (A) (A) (A) (A) (A) (A) (A) (A)
                 (A) (A) (A) (A) (A) (A) (A) (A) (A) (A) (A) (A)
                 (A) (A) (A) (A) (A) (A) (A) (A) (A) (A) (A) (A)
                 (A) (A) (A) (A) (A) (A) (A) (A) (A) (A) (A) (A)
                 (A) (A) (A) (A) (A) (A) (A) (A) (A) (A) (A) (A)
                 (A) (A) (A) (A) (A) (A) (A) (A) (A) (A) (A) (A)
                 (A) (A) (A) (A) (A) (A) (A) (A) (A) (A) (A) (A)
                 (A) (A) (A) (A) (A) (A) (A) (A) (A) (A) (A) (A)
                 (A) (A) (A) (A) (A) (A) (A) (A) (A) (A) (A) (A)
                 (A) (A) (A) (A) (A) (A) (A) (A) (A) (A) (A) (A)
                 (A) (A) (A) (A) (A) (A) (A) (A) (A) (A) (A) (A)
                 (A) (A) (A) (A) (A) (A) (A) (A) (A) (A) (A) (A)
                 (A) (A) (A) (A) (A) (A) (A) (A) (A) (A) (A) (A)
                 (A) (A) (A) (A) (A) (A) (A) (A) (A) (A) (A) (A)
                 (A) (A) (A) (A) (A) (A) (A) (A) (A) (A) (A) (A)
                 (A) (A) (A) (A) (A) (A) (A) (A) (A) (A) (A) (A)
                 (A) (A) (A) (A) (A) (A) (A) (A) (A) (A) (A) (A)
                 (A) (A) (A) (A) (A) (A) (A) (A) (A) (A) (A) (A)
                 (A) (A) (A) (A) (A) (A) (A) (A) (A) (A) (A) (A)
                 (A) (A) (A) (A) (A) (A) (A) (A) (A) (A) (A) (A)
                 (A) (A) (A) (A) (A) (A) (A) (A) (A) (A) (A) (A)
                 (A) (A) (A) (A) (A) (A) (A) (A) (A) (A) (A) (A)
                 (A) (A) (A) (A) (A) (A) (A) (A) (A) (A) (A) (A)
                 (A) (A) (A) (A) (A) (A) (A) (A) (A) (A) (A) (A)
                 (A) (A) (A) (A) (A) (A) (A) (A) (A) (A) (A) (A)
                 (A) (A) (A) (A) (A) (A) (A) (A) (A) (A) (A) (A)
                 (A) (A) (A) (A) (A) (A) (A) (A) (A) (A) (A) (A)
                 (A) (A) (A) (A) (A) (A) (A) (A) (A) (A) (A) (A)
                 (A) (A) (A) (A) (A) (A) (A) (A) (A) (A) (A) (A)
                 (A) (A) (A) (A) (A) (A) (A) (A) (A) (A) (A) (A)
                 (A) (A) (A) (A) (A) (A) (A) (A) (A) (A) (A) (A)
                 (A) (A) (A) (A) (A) (A) (A) (A) (A) (A) (A) (A)
                 (A) (A) (A) (A) (A) (A) (A) (A) (A) (A) (A) (A)
                 (A) (A) (A) (A) (A) (A) (A) (A) (A) (A) (A) (A)
                 (A) (A) (A) (A) (A) (A) (A) (A) (A) (A) (A) (A)
                 (A) (A) (A) (A) (A) (A) (A) (A) (A) (A) (A) (A)
                 (A) (A) (A) (A) (A) (A) (A) (A) (A) (A) (A) (A)
                 (A) (A) (A) (A) (A) (A) (A) (A) (A) (A) (A) (A)
                 (A) (A) (A) (A) (A) (A) (A) (A) (A) (A) (A) (A)
                 (A) (A) (A) (A) (A) (A) (A) (A) (A) (A) (A) (A)
                 (A) (A) (A) (A) (A) (A) (A) (A) (A) (A) (A) (A)
                 (A) (A) (A) (A) (A) (A) (A) (A) (A) (A) (A) (A)
                 (A) (A) (A) (A) (A) (A) (A) (A) (A) (A) (A) (A)
                 (A) (A) (A) (A) (A) (A) (A) (A) (A) (A) (A) (A)
                 (A) (A) (A) (A) (A) (A) (A) (A) (A) (A) (A) (A)
                 (A) (A) (A) (A) (A) (A) (A) (A) (A) (A) (A) (A)
                 (A) (A) (A) (A) (A) (A) (A) (A) (A) (A) (A) (A)
                 (A) (A) (A) (A) (A) (A) (A) (A) (A) (A) (A) (A)
                 (A) (A) (A) (A) (A) (A) (A) (A) (A) (A) (A) (A)
                 (A) (A) (A) (A) (A) (A) (A) (A) (A) (A) (A) (A)
                 (A) (A) (A) (A) (A) (A) (A) (A) (A) (A) (A) (A)
                 (A) (A) (A) (A) (A) (A) (A) (A) (A) (A) (A) (A)
                 (A) (A) (A) (A) (A) (A) (A) (A) (A) (A) (A) (A)
                 (A) (A) (A) (A) (A) (A) (A) (A) (A) (A) (A) (A)
                 (A) (A) (A) (A) (A) (A) (A) (A) (A) (A) (A) (A)
                 (A) (A) (A) (A) (A) (A) (A) (A) (A) (A) (A) (A)
                 (A) (A) (A) (A) (A) (A) (A) (A) (A) (A) (A) (A)
                 (A) (A) (A) (A) (A) (A) (A) (A) (A) (A) (A) (A)
                 (A) (A) (A) (A) (A) (A) (A) (A) (A) (A) (A) (A)
                 (A) (A) (A) (A) (A) (A) (A) (A) (A) (A) (A) (A)
                 (A) (A) (A) (A) (A) (A) (A) (A) (A) (A) (A) (A)
                 (A) (A) (A) (A) (A) (A) (A) (A) (A) (A) (A) (A)
                 (A) (A) (A) (A) (A) (A) (A) (A) (A) (A) (A) (A)
                 (A) (A) (A) (A) (A) (A) (A) (A) (A) (A) (A) (A)
                 (A) (A) (A) (A) (A) (A) (A) (A) (A) (A) (A) (A)
                 (A) (A) (A) (A) (A) (A) (A) (A) (A) (A) (A) (A)
                 (A) (A) (A) (A) (A) (A) (A) (A) (A) (A) (A) (A)
                 (A) (A) (A) (A) (A) (A) (A) (A) (A) (A) (A) (A)
                 (A) (A) (A) (A) (A) (A) (A) (A) (A) (A) (A) (A)
                 (A) (A) (A) (A) (A) (A) (A) (A) (A) (A) (A) (A)
                 (A) (A) (A) (A) (A) (A) (A) (A) (A) (A) (A) (A)
                 (A) (A) (A) (A) (A) (A) (A) (A) (A) (A) (A) (A)
                 (A) (A) (A) (A) (A) (A) (A) (A) (A) (A) (A) (A)
                 (A) (A) (A) (A) (A) (A) (A) (A) (A) (A) (A) (A)
                 (A) (A) (A) (A) (A) (A) (A) (A) (A) (A) (A) (A)
                 (A) (A) (A) (A) (A) (A) (A) (A) (A) (A) (A) (A)
                 (A) (A) (A) (A) (A) (A) (A) (A) (A) (A) (A) (A)
                 (A) (A) (A) (A) (A) (A) (A) (A) (A) (A) (A) (A)
                 (A) (A) (A) (A) (A) (A) (A) (A) (A) (A) (A) (A)
                 (A) (A) (A) (A) (A) (A) (A) (A) (A) (A) (A) (A)
                 (A) (A) (A) (A) (A) (A) (A) (A) (A) (A) (A) (A)
                 (A) (A) (A) (A) (A) (A) (A) (A) (A) (A) (A) (A)
                 (A) (A) (A) (A) (A) (A) (A) (A) (A) (A) (A) (A)
                 (A) (A) (A) (A) (A) (A) (A) (A) (A) (A) (A) (A)
                 (A) (A) (A) (A) (A) (A) (A) (A) (A) (A) (A) (A)
                 (A) (A) (A) (A) (A) (A) (A) (A) (A) (A) (A) (A)
                 (A) (A) (A) (A) (A) (A) (A) (A) (A) (A) (A) (A)
                 (A) (A) (A) (A) (A) (A) (A) (A) (A) (A) (A) (A)
                 (A) (A) (A) (A) (A) (A) (A) (A) (A) (A) (A) (A)
                 (A) (A) (A) (A) (A) (A) (A) (A) (A) (A) (A) (A)
                 (A) (A) (A) (A) (A) (A) (A) (A) (A) (A) (A) (A)
                 (A) (A) (A) (A) (A) (A) (A) (A) (A) (A) (A) (A)
                 (A) (A) (A) (A) (A) (A) (A) (A) (A) (A) (A) (A)
                 (A) (A) (A) (A) (A) (A) (A) (A) (A) (A) (A) (A)
                 (A) (A) (A) (A) (A) (A) (A) (A) (A) (A) (A) (A)
                 (A) (A) (A) (A) (A) (A) (A) (A) (A) (A) (A) (A)
                 (A) (A) (A) (A) (A) (A) (A) (A) (A) (A) (A) (A)
                 (A) (A) (A) (A) (A) (A) (A) (A) (A) (A) (A) (A)
                 (A) (A) (A) (A) (A) (A) (A) (A) (A) (A) (A) (A)
                 (A) (A) (A) (A) (A) (A) (A) (A) (A) (A) (A) (A)
                 (A) (A) (A) (A) (A) (A) (A) (A) (A) (A) (A) (A)
                 (A) (A) (A) (A) (A) (A) (A) (A) (A) (A)
 Beta  Orbitals:
       Occupied  (A) (A) (A) (A) (A) (A) (A) (A) (A) (A) (A) (A)
                 (A) (A) (A) (A) (A) (A) (A) (A) (A) (A) (A) (A)
                 (A) (A) (A) (A) (A) (A) (A) (A) (A) (A) (A) (A)
                 (A) (A) (A) (A) (A) (A) (A) (A) (A) (A) (A) (A)
                 (A) (A) (A) (A) (A) (A) (A) (A) (A) (A) (A) (A)
                 (A) (A) (A) (A) (A) (A) (A) (A) (A) (A) (A) (A)
                 (A) (A) (A) (A) (A) (A) (A) (A) (A) (A) (A) (A)
                 (A) (A) (A) (A) (A) (A) (A) (A) (A) (A) (A) (A)
                 (A) (A) (A) (A) (A) (A) (A) (A) (A) (A) (A) (A)
                 (A) (A) (A) (A) (A) (A) (A) (A) (A) (A) (A) (A)
                 (A) (A) (A) (A) (A) (A) (A) (A) (A) (A) (A) (A)
                 (A) (A) (A) (A) (A) (A) (A) (A) (A) (A) (A) (A)
                 (A) (A) (A) (A) (A) (A) (A) (A) (A) (A) (A) (A)
                 (A) (A) (A) (A) (A) (A) (A) (A) (A) (A) (A) (A)
                 (A) (A) (A) (A) (A) (A) (A) (A) (A) (A) (A) (A)
                 (A) (A) (A) (A) (A) (A) (A) (A) (A) (A) (A) (A)
                 (A) (A) (A) (A) (A) (A) (A) (A) (A) (A) (A) (A)
                 (A) (A) (A) (A) (A) (A) (A) (A) (A) (A) (A) (A)
                 (A) (A) (A) (A) (A) (A) (A) (A) (A) (A) (A) (A)
                 (A) (A) (A) (A) (A) (A) (A) (A) (A) (A) (A) (A)
                 (A) (A) (A) (A) (A) (A) (A) (A) (A) (A) (A) (A)
                 (A) (A)
       Virtual   (A) (A) (A) (A) (A) (A) (A) (A) (A) (A) (A) (A)
                 (A) (A) (A) (A) (A) (A) (A) (A) (A) (A) (A) (A)
                 (A) (A) (A) (A) (A) (A) (A) (A) (A) (A) (A) (A)
                 (A) (A) (A) (A) (A) (A) (A) (A) (A) (A) (A) (A)
                 (A) (A) (A) (A) (A) (A) (A) (A) (A) (A) (A) (A)
                 (A) (A) (A) (A) (A) (A) (A) (A) (A) (A) (A) (A)
[...]
  Beta virt. eigenvalues --    5.18508   5.18638   5.18892   5.19381   5.19454
  Beta virt. eigenvalues --    5.19670   5.20059   5.20590   5.21207   5.22046
  Beta virt. eigenvalues --    5.22282   5.22810   5.23469   5.23548   5.23716
  Beta virt. eigenvalues --    5.24108   5.24791   5.24871   5.25054   5.25409
  Beta virt. eigenvalues --    5.25700   5.25867   5.26247   5.26595   5.26946
  Beta virt. eigenvalues --    5.27204   5.27396   5.27861   5.28536   5.28750
  Beta virt. eigenvalues --    5.28951   5.29047   5.29394   5.29722   5.29778
  Beta virt. eigenvalues --    5.29826   5.30092   5.30271   5.30518   5.30897
  Beta virt. eigenvalues --    5.31098   5.31502   5.31771   5.31980   5.32141
  Beta virt. eigenvalues --    5.32391   5.32675   5.32932   5.33083   5.33784
  Beta virt. eigenvalues --    5.34008   5.34343   5.34544   5.34745   5.35370
  Beta virt. eigenvalues --    5.35579   5.35753   5.36326   5.36549   5.36899
  Beta virt. eigenvalues --    5.37089   5.37580   5.37769   5.38189   5.38259
  Beta virt. eigenvalues --    5.38349   5.38784   5.38973   5.39272   5.39600
  Beta virt. eigenvalues --    5.39802   5.40443   5.40817   5.40864   5.41090
  Beta virt. eigenvalues --    5.41374   5.41763   5.42303   5.42610   5.42803
  Beta virt. eigenvalues --    5.43323   5.43541   5.43803   5.44046   5.44175
  Beta virt. eigenvalues --    5.44363   5.44560   5.44820   5.45396   5.46036
  Beta virt. eigenvalues --    5.46604   5.46709   5.46809   5.47386   5.47551
  Beta virt. eigenvalues --    5.48560   5.48788   5.49368   5.49727   5.50232
  Beta virt. eigenvalues --    5.50446   5.50701   5.50915   5.50962   5.51534
  Beta virt. eigenvalues --    5.51640   5.51948   5.52053   5.52232   5.52563
  Beta virt. eigenvalues --    5.52856   5.52990   5.53760   5.54039   5.54430
  Beta virt. eigenvalues --    5.55189   5.55756   5.55866   5.56927   5.57770
  Beta virt. eigenvalues --    5.57815   5.58272   5.58764   5.59034   5.59526
  Beta virt. eigenvalues --    5.59898   5.60038   5.60199   5.60237   5.60425
  Beta virt. eigenvalues --    5.60902   5.61096   5.61409   5.61924   5.62594
  Beta virt. eigenvalues --    5.62666   5.62989   5.63467   5.63565   5.64079
  Beta virt. eigenvalues --    5.64192   5.64417   5.64532   5.64696   5.65097
  Beta virt. eigenvalues --    5.65496   5.65787   5.66092   5.66233   5.66504
  Beta virt. eigenvalues --    5.66832   5.67352   5.68020   5.68134   5.68707
  Beta virt. eigenvalues --    5.68837   5.69063   5.69426   5.69649   5.69752
  Beta virt. eigenvalues --    5.70268   5.70564   5.72205   5.72620   5.73464
  Beta virt. eigenvalues --    5.75329   5.75575   5.76320   5.77456   5.79692
  Beta virt. eigenvalues --    5.81587   5.81922   5.83718   5.84376   5.84720
  Beta virt. eigenvalues --    5.85304   5.86242   5.86472   5.87582   5.89497
  Beta virt. eigenvalues --    5.91003   5.91181   5.92103   5.92636   5.92695
  Beta virt. eigenvalues --    5.94446   5.94662   5.97338   5.97621   5.97913
  Beta virt. eigenvalues --    5.98438   5.98872   5.99768   6.00702   6.01691
  Beta virt. eigenvalues --    6.02405   6.02649   6.03889   6.05067   6.05802
  Beta virt. eigenvalues --    6.06342   6.06575   6.06940   6.09367   6.10562
  Beta virt. eigenvalues --    6.10630   6.11106   6.11627   6.16572   6.17535
  Beta virt. eigenvalues --    6.20968   6.21738   6.22008   6.22477   6.22649
  Beta virt. eigenvalues --    6.23299   6.25356   6.25892   6.26463   6.26598
  Beta virt. eigenvalues --    6.27354   6.27827   6.28089   6.29790   6.30772
  Beta virt. eigenvalues --    6.30796   6.31095   6.31944   6.32885   6.34422
  Beta virt. eigenvalues --    6.34741   6.35910   6.36416   6.36712   6.37983
  Beta virt. eigenvalues --    6.40194   6.40676   6.42797   6.43054   6.43665
  Beta virt. eigenvalues --    6.45935   6.47487   6.53641   6.57900   6.68188
  Beta virt. eigenvalues --    6.70975   6.71408   6.72190   6.72740   6.72910
  Beta virt. eigenvalues --    6.74016   6.74605   6.75028   6.75322   6.75632
  Beta virt. eigenvalues --    6.77598   6.78312   6.80677   6.83088   6.83332
  Beta virt. eigenvalues --    6.83445   6.83532   6.84189   6.84612   6.85507
  Beta virt. eigenvalues --    6.85899   6.86967   6.87588   6.88011   6.88415
  Beta virt. eigenvalues --    6.88730   6.88825   6.94213   6.96251   6.96382
  Beta virt. eigenvalues --    6.97819   6.98204   6.98311   6.99135   6.99601
  Beta virt. eigenvalues --    6.99853   7.01162   7.01406   7.01546   7.03178
  Beta virt. eigenvalues --    7.03594   7.05807   7.07251   7.08403   7.11801
  Beta virt. eigenvalues --    7.13145   7.17777   7.18560   7.20646   7.21736
  Beta virt. eigenvalues --    7.24296   7.26092   7.26943   7.26979   7.27022
  Beta virt. eigenvalues --    7.27735   7.29141   7.29795   7.30858   7.31428
  Beta virt. eigenvalues --    7.33458   7.34688   7.34727   7.34868   7.36358
  Beta virt. eigenvalues --    7.36590   7.37107   7.39024   7.39217   7.39630
  Beta virt. eigenvalues --    7.39766   7.41039   7.44050   7.45821   7.47728
  Beta virt. eigenvalues --    7.48715   7.51006   8.46532   8.49966   8.55674
  Beta virt. eigenvalues --    8.60335   8.84406   8.86470   8.94928   8.95490
  Beta virt. eigenvalues --    8.97433   9.01136  15.87739  22.78736  22.79049
  Beta virt. eigenvalues --   22.79732  22.87635  22.93924  23.02186  23.11746
  Beta virt. eigenvalues --   23.11946  23.13730  23.16836  23.24771  23.25128
  Beta virt. eigenvalues --   23.26401  23.26801  23.27683  23.29487  23.30997
  Beta virt. eigenvalues --   23.31876  23.33190  23.33339  23.33828  23.35587
  Beta virt. eigenvalues --   23.36510  23.37321  23.37608  23.38435  23.40428
  Beta virt. eigenvalues --   23.43059  23.43339  23.44351  23.46488  23.46629
  Beta virt. eigenvalues --   23.47455  23.49945  23.51964  23.53575  23.53863
  Beta virt. eigenvalues --   23.56708  23.58465  23.58527  23.59641  23.60836
  Beta virt. eigenvalues --   23.68611  23.71295  23.81662  23.88155  23.99804
  Beta virt. eigenvalues --   24.07487  24.07613  32.59131  32.63043  33.08874
  Beta virt. eigenvalues --   33.27919  44.16800  44.20607  44.22502  44.26692
  Beta virt. eigenvalues --   44.29304  44.29824  44.30736  44.42206  44.43241
  Beta virt. eigenvalues --   44.48524  44.49633  44.62058  44.67443  57.47329
  Beta virt. eigenvalues --   57.58262
          Condensed to atoms (all electrons):
          Atomic-Atomic Spin Densities.
 Mulliken charges and spin densities:
               1          2
     1  B    0.396673  -0.007187
     2  N   -0.088993   0.007536
     3  C    0.018931   0.152575
     4  C   -0.144229  -0.019444
     5  C   -0.019642   0.140548
     6  C    0.073250   0.002494
     7  C   -0.174390   0.348689
     8  C    0.309439   0.001181
     9  O   -0.464706   0.197261
    10  C   -0.530617   0.013073
    11  C    0.087132   0.006516
    12  C   -0.020661  -0.002198
    13  N    0.491826   0.000327
    14  O   -0.351002  -0.000329
    15  O   -0.338913   0.000843
    16  C    0.004214   0.000308
    17  C   -0.058635  -0.000139
    18  C   -0.086331  -0.000703
    19  C   -0.082860  -0.001173
    20  N    0.498513   0.000040
    21  O   -0.364506  -0.000093
    22  O   -0.362983   0.000154
    23  C    0.074142  -0.048013
    24  N   -0.082011   0.012084
    25  C   -0.010628   0.105662
    26  C   -0.120885  -0.011805
    27  C   -0.047706   0.116366
    28  C   -0.427339  -0.012600
    29  C   -0.314584  -0.008166
    30  C   -0.347859   0.000059
    31  C    0.064475   0.006679
    32  C   -0.161273  -0.004272
    33  C   -0.205682   0.001073
    34  C    0.202511  -0.000490
    35  O   -0.314813  -0.000004
    36  C   -0.125800   0.000000
    37  C   -0.069402   0.000003
    38  O   -0.338651   0.000000
    39  C   -0.050775   0.000000
    40  C   -0.102785   0.000000
    41  O   -0.338421   0.000000
    42  C   -0.055954  -0.000000
    43  C   -0.096431  -0.000000
    44  O   -0.349076   0.000000
    45  C   -0.198619   0.000000
    46  C   -0.170041   0.000569
    47  C   -0.171457  -0.001458
    48  C   -0.393344  -0.004651
    49  C   -0.323796  -0.015025
    50  C   -0.315932   0.008763
    51  C    0.008413   0.005966
    52  C   -0.148992  -0.001225
    53  C   -0.179260   0.000663
    54  C    0.216226  -0.000600
    55  O   -0.305866   0.000011
    56  C   -0.092637   0.000006
    57  C   -0.152494   0.000000
    58  O   -0.340039  -0.000000
    59  C   -0.103140   0.000000
    60  C   -0.089338  -0.000000
    61  O   -0.336071  -0.000000
    62  C   -0.069244   0.000000
    63  C   -0.102576   0.000000
    64  O   -0.352907   0.000000
    65  C   -0.203435   0.000000
    66  C   -0.192376   0.001101
    67  C   -0.140160  -0.005220
    68  F   -0.362935   0.000704
    69  F   -0.364296   0.000630
    70  H    0.141976  -0.001770
    71  H    0.232897   0.000121
    72  H    0.160332  -0.005217
    73  H    0.205993   0.000056
    74  H    0.197453   0.000013
    75  H    0.161472   0.001127
    76  H    0.142322  -0.000818
    77  H    0.135719   0.004632
    78  H    0.136691  -0.002204
    79  H    0.135303   0.002596
    80  H    0.128643  -0.000992
    81  H    0.155231   0.004355
    82  H    0.141485   0.000349
    83  H    0.156550  -0.000179
    84  H    0.161282   0.000149
    85  H    0.148946   0.000030
    86  H    0.142085  -0.000000
    87  H    0.151471   0.000000
    88  H    0.128056   0.000000
    89  H    0.137172  -0.000002
    90  H    0.120883  -0.000000
    91  H    0.119724   0.000000
    92  H    0.129284  -0.000000
    93  H    0.123217  -0.000000
    94  H    0.120712   0.000000
    95  H    0.127073  -0.000000
    96  H    0.115590   0.000000
    97  H    0.124444   0.000000
    98  H    0.119922   0.000000
    99  H    0.136324   0.000000
   100  H    0.122083  -0.000000
   101  H    0.151431  -0.000003
   102  H    0.144135   0.000096
   103  H    0.129982   0.005239
   104  H    0.114859   0.001125
   105  H    0.126146   0.001722
   106  H    0.145155  -0.000351
   107  H    0.145354   0.003765
   108  H    0.133201   0.000701
   109  H    0.154944  -0.001789
   110  H    0.144422   0.000034
   111  H    0.153692  -0.000015
   112  H    0.152783  -0.000002
   113  H    0.148476  -0.000000
   114  H    0.145755   0.000000
   115  H    0.135728   0.000000
   116  H    0.126503  -0.000001
   117  H    0.140343  -0.000000
   118  H    0.135157   0.000000
   119  H    0.135158  -0.000000
   120  H    0.128473  -0.000000
   121  H    0.115328  -0.000000
   122  H    0.129801   0.000000
   123  H    0.129857  -0.000000
   124  H    0.128222  -0.000000
   125  H    0.141225  -0.000000
   126  H    0.118488  -0.000000
   127  H    0.152682  -0.000003
   128  H    0.144114   0.000146
 Sum of Mulliken charges =  -1.00000   1.00000
 Mulliken charges and spin densities with hydrogens summed into heavy atoms:
               1          2
     1  B    0.396673  -0.007187
     2  N   -0.088993   0.007536
     3  C    0.018931   0.152575
     4  C   -0.002254  -0.021214
     5  C   -0.019642   0.140548
     6  C    0.073250   0.002494
     7  C   -0.174390   0.348689
     8  C    0.309439   0.001181
     9  O   -0.464706   0.197261
    10  C   -0.137387   0.007977
    11  C    0.087132   0.006516
    12  C   -0.020661  -0.002198
    13  N    0.491826   0.000327
    14  O   -0.351002  -0.000329
    15  O   -0.338913   0.000843
    16  C    0.210207   0.000364
    17  C   -0.058635  -0.000139
    18  C    0.111123  -0.000690
    19  C    0.078612  -0.000046
    20  N    0.498513   0.000040
    21  O   -0.364506  -0.000093
    22  O   -0.362983   0.000154
    23  C    0.074142  -0.048013
    24  N   -0.082011   0.012084
    25  C   -0.010628   0.105662
    26  C    0.021437  -0.012623
    27  C   -0.047706   0.116366
    28  C   -0.019626  -0.007576
    29  C   -0.030710  -0.004803
    30  C   -0.049824   0.000229
    31  C    0.064475   0.006679
    32  C    0.000010  -0.004122
    33  C   -0.056736   0.001104
    34  C    0.202511  -0.000490
    35  O   -0.314813  -0.000004
    36  C    0.167756  -0.000000
    37  C    0.195826   0.000001
    38  O   -0.338651   0.000000
    39  C    0.189832   0.000000
    40  C    0.149717   0.000000
    41  O   -0.338421   0.000000
    42  C    0.191831  -0.000000
    43  C    0.143604  -0.000000
    44  O   -0.349076   0.000000
    45  C    0.179710  -0.000000
    46  C   -0.018610   0.000567
    47  C   -0.027322  -0.001361
    48  C   -0.022357   0.003435
    49  C   -0.033287  -0.011612
    50  C   -0.027787   0.007674
    51  C    0.008413   0.005966
    52  C   -0.004570  -0.001191
    53  C   -0.025568   0.000648
    54  C    0.216226  -0.000600
    55  O   -0.305866   0.000011
    56  C    0.208622   0.000004
    57  C    0.128990   0.000000
    58  O   -0.340039  -0.000000
    59  C    0.163707  -0.000001
    60  C    0.180977   0.000000
    61  O   -0.336071  -0.000000
    62  C    0.174557   0.000000
    63  C    0.157082   0.000000
    64  O   -0.352907   0.000000
    65  C    0.184499  -0.000000
    66  C   -0.039694   0.001098
    67  C    0.003954  -0.005074
    68  F   -0.362935   0.000704
    69  F   -0.364296   0.000630
 Electronic spatial extent (au):  <R**2>=         119596.5583
 Charge=             -1.0000 electrons
 Dipole moment (field-independent basis, Debye):
    X=              4.7086    Y=            -13.0460    Z=              4.4095  Tot=             14.5538
 Quadrupole moment (field-independent basis, Debye-Ang):
   XX=           -516.1226   YY=           -483.3778   ZZ=           -447.5796
   XY=            -13.9342   XZ=             13.4654   YZ=              0.4460
 Traceless Quadrupole moment (field-independent basis, Debye-Ang):
   XX=            -33.7626   YY=             -1.0178   ZZ=             34.7804
   XY=            -13.9342   XZ=             13.4654   YZ=              0.4460
 Octapole moment (field-independent basis, Debye-Ang**2):
  XXX=            617.3374  YYY=           -627.8078  ZZZ=            -41.3886  XYY=            -87.4251
  XXY=           -611.8455  XXZ=           -818.5739  XZZ=           -147.6816  YZZ=            -89.9798
  YYZ=            188.0771  XYZ=             65.5139
 Hexadecapole moment (field-independent basis, Debye-Ang**3):
 XXXX=        -145604.0693 YYYY=         -25018.8413 ZZZZ=         -14060.6285 XXXY=           -762.8610
 XXXZ=          -1119.6433 YYYX=          -2322.3637 YYYZ=            815.1094 ZZZX=            946.4247
 ZZZY=            -99.0479 XXYY=         -22647.7020 XXZZ=         -26980.3634 YYZZ=          -5977.9213
 XXYZ=             79.4673 YYXZ=            726.0464 ZZXY=            183.6343
 N-N= 1.011103343378D+04 E-N=-2.802844568182D+04  KE= 3.306531950593D+03
 Leave Link  601 at Thu Nov  6 04:28:19 2025, MaxMem= 30870077440 cpu:             203.5 elap:               3.8
 (Enter /public/software/gauss/g16/l9999.exe)
 1\1\GINC-CU161\SP\UM062X\def2TZVPP\C49H59B1F2N4O13(1-,2)\BAIDING\06-No
 v-2025\0\\#p M062X/DEF2TZVPP scrf=(solvent=water) em=GD3\\Energy calcu
 lation for BE_sin_reduced\\-1,2\B,0,-0.547824,-1.391497,-2.124763\N,0,
 -1.762628,-0.449659,-1.955107\C,0,-2.923902,-0.41674,-2.689323\C,0,-3.
 67123,0.682042,-2.269979\C,0,-2.953619,1.370374,-1.271972\C,0,-1.74055
 5,0.655746,-1.097774\C,0,-0.601991,0.823461,-0.220494\C,0,-0.121072,2.
 157295,0.083764\O,0,-0.755766,3.19609,-0.200128\C,0,1.300931,2.347945,
 0.664762\C,0,2.006963,3.505871,0.013581\C,0,1.635695,4.857343,0.161363
 \N,0,0.569678,5.271766,1.082423\O,0,-0.133889,6.227231,0.748905\O,0,0.
 456613,4.687627,2.160956\C,0,2.261199,5.892849,-0.523038\C,0,3.31757,5
 .57048,-1.364926\C,0,3.735957,4.25343,-1.548171\C,0,3.069018,3.243498,
 -0.866682\N,0,4.001808,6.646826,-2.074117\O,0,3.612877,7.805273,-1.899
 039\O,0,4.939817,6.350069,-2.819269\C,0,0.136829,-0.372519,0.132477\N,
 0,0.157973,-1.447861,-0.756219\C,0,0.88269,-2.471901,-0.193382\C,0,1.2
 80832,-2.073663,1.078619\C,0,0.810922,-0.76173,1.311033\C,0,0.905166,-
 0.040552,2.625535\C,0,1.201625,-3.771352,-0.872373\C,0,2.122162,-3.667
 184,-2.119829\C,0,3.43505,-2.957362,-1.871472\C,0,3.610879,-1.613075,-
 2.237764\C,0,4.808857,-0.946856,-1.994315\C,0,5.871023,-1.614532,-1.37
 061\O,0,7.016343,-0.864337,-1.194352\C,0,8.161538,-1.452688,-0.568357\
 C,0,8.047766,-1.400533,0.951461\O,0,9.251236,-1.942664,1.481807\C,0,9.
 270971,-1.930583,2.909075\C,0,10.580741,-2.500329,3.424066\O,0,11.6977
 05,-1.622586,3.299493\C,0,12.317071,-1.605777,2.012178\C,0,13.640868,-
 0.869534,2.125338\O,0,14.579426,-1.484745,3.006335\C,0,15.206833,-2.63
 8893,2.457828\C,0,5.719533,-2.953749,-0.99442\C,0,4.509445,-3.605432,-
 1.251317\C,0,-3.512911,2.532744,-0.502042\C,0,-3.293304,-1.417142,-3.7
 445\C,0,-3.971822,-2.716696,-3.222394\C,0,-5.313058,-2.499195,-2.55985
 9\C,0,-6.484632,-2.382833,-3.316933\C,0,-7.7317,-2.160239,-2.724589\C,
 0,-7.819417,-2.050837,-1.332123\O,0,-8.987742,-1.841326,-0.639163\C,0,
 -10.208751,-1.712258,-1.383756\C,0,-11.365194,-1.506666,-0.420446\O,0,
 -11.525554,-0.174009,0.064712\C,0,-10.537583,0.315936,0.978233\C,0,-10
 .447489,-0.446603,2.288371\O,0,-11.728603,-0.440471,2.916057\C,0,-11.8
 09401,-1.260486,4.083753\C,0,-11.154069,-0.685814,5.334547\O,0,-11.837
 668,0.442153,5.880406\C,0,-11.490137,1.686513,5.278109\C,0,-6.659623,-
 2.164909,-0.553585\C,0,-5.42907,-2.384919,-1.164764\F,0,0.327153,-0.89
 5941,-3.126204\F,0,-0.970341,-2.677307,-2.506563\H,0,-4.656623,0.94137
 7,-2.636651\H,0,1.206942,2.525959,1.737425\H,0,1.899993,1.450946,0.522
 074\H,0,1.944909,6.918122,-0.390499\H,0,4.559105,4.028234,-2.21386\H,0
 ,3.373268,2.213303,-1.018487\H,0,1.832737,-2.687791,1.779569\H,0,1.866
 215,0.469289,2.766184\H,0,0.11735,0.709803,2.736816\H,0,0.802142,-0.75
 2885,3.451084\H,0,1.689462,-4.410762,-0.129112\H,0,0.281214,-4.278282,
 -1.180402\H,0,2.314121,-4.688964,-2.46815\H,0,1.579716,-3.155401,-2.91
 8173\H,0,2.794581,-1.084356,-2.72167\H,0,4.941393,0.090009,-2.288729\H
 ,0,8.321816,-2.478268,-0.915885\H,0,9.011682,-0.847509,-0.893023\H,0,7
 .912305,-0.358156,1.274927\H,0,7.17945,-1.976636,1.301788\H,0,9.138996
 ,-0.904527,3.283293\H,0,8.442022,-2.540787,3.300387\H,0,10.463176,-2.6
 87471,4.496672\H,0,10.788548,-3.460766,2.93085\H,0,12.462994,-2.634165
 ,1.652704\H,0,11.692674,-1.08466,1.275012\H,0,14.070025,-0.75897,1.118
 448\H,0,13.462246,0.131559,2.531599\H,0,15.701744,-2.408625,1.503579\H
 ,0,15.960516,-2.965481,3.178805\H,0,14.500675,-3.463236,2.294471\H,0,6
 .521398,-3.496737,-0.508474\H,0,4.408236,-4.647759,-0.958446\H,0,-3.22
 6412,3.499091,-0.929966\H,0,-4.607188,2.483221,-0.507432\H,0,-3.178973
 ,2.537198,0.538217\H,0,-3.981151,-0.927227,-4.442101\H,0,-2.408601,-1.
 707296,-4.318515\H,0,-4.096494,-3.384683,-4.082799\H,0,-3.286109,-3.20
 9177,-2.529253\H,0,-6.430993,-2.472073,-4.399365\H,0,-8.613116,-2.0812
 74,-3.34943\H,0,-10.142455,-0.869361,-2.082679\H,0,-10.387149,-2.62960
 9,-1.959102\H,0,-12.288954,-1.717768,-0.967655\H,0,-11.293743,-2.23195
 8,0.400107\H,0,-9.542701,0.335916,0.518412\H,0,-10.837237,1.349003,1.1
 80592\H,0,-10.114059,-1.481538,2.129438\H,0,-9.688379,0.049479,2.90961
 1\H,0,-12.878326,-1.399145,4.276831\H,0,-11.367528,-2.248409,3.881363\
 H,0,-11.187353,-1.464678,6.105348\H,0,-10.097645,-0.441076,5.155541\H,
 0,-11.837759,1.75567,4.24156\H,0,-11.972077,2.471158,5.86777\H,0,-10.4
 03091,1.848076,5.297763\H,0,-6.741037,-2.082992,0.525981\H,0,-4.540484
 ,-2.475848,-0.545684\\Version=ES64L-G16RevA.03\State=2-A\HF=-3324.2445
 269\S2=0.76539\S2-1=0.\S2A=0.750182\RMSD=2.126e-09\Dipole=1.8525189,-5
 .1326798,1.7348176\Quadrupole=-25.1016503,-0.7567346,25.8583849,-10.35
 9753,10.0112071,0.3315536\PG=C01 [X(C49H59B1F2N4O13)]\\@


 RESEARCH IS WHAT I AM DOING WHEN I DON'T KNOW WHAT I AM DOING.
     -- WERNER VON BRAUN
 Job cpu time:       3 days  3 hours 31 minutes  6.5 seconds.
 Elapsed time:       0 days  1 hours 11 minutes 43.4 seconds.
 File lengths (MBytes):  RWF=   9355 Int=      0 D2E=      0 Chk=    609 Scr=      1
 Normal termination of Gaussian 16 at Thu Nov  6 04:28:21 2025.
