 Entering Gaussian System, Link 0=g16
 Input=BNO_CN_reduced_sp.gjf
 Output=BNO_CN_reduced_sp.log
 Initial command:
 /public/software/gauss/g16/l1.exe "/public/home/baiding/1024_sp/tmp_BNO_CN_reduced_sp_1526250/Gau-2914986.inp" -scrdir="/public/home/baiding/1024_sp/tmp_BNO_CN_reduced_sp_1526250/"
 Entering Link 1 = /public/software/gauss/g16/l1.exe PID=   2914987.
  
 Copyright (c) 1988,1990,1992,1993,1995,1998,2003,2009,2016,
            Gaussian, Inc.  All Rights Reserved.
  
 This is part of the Gaussian(R) 16 program.  It is based on
 the Gaussian(R) 09 system (copyright 2009, Gaussian, Inc.),
 the Gaussian(R) 03 system (copyright 2003, Gaussian, Inc.),
 the Gaussian(R) 98 system (copyright 1998, Gaussian, Inc.),
 the Gaussian(R) 94 system (copyright 1995, Gaussian, Inc.),
 the Gaussian 92(TM) system (copyright 1992, Gaussian, Inc.),
 the Gaussian 90(TM) system (copyright 1990, Gaussian, Inc.),
 the Gaussian 88(TM) system (copyright 1988, Gaussian, Inc.),
 the Gaussian 86(TM) system (copyright 1986, Carnegie Mellon
 University), and the Gaussian 82(TM) system (copyright 1983,
 Carnegie Mellon University). Gaussian is a federally registered
 trademark of Gaussian, Inc.
  
 This software contains proprietary and confidential information,
 including trade secrets, belonging to Gaussian, Inc.
  
 This software is provided under written license and may be
 used, copied, transmitted, or stored only in accord with that
 written license.
  
 The following legend is applicable only to US Government
 contracts under FAR:
  
                    RESTRICTED RIGHTS LEGEND
  
 Use, reproduction and disclosure by the US Government is
 subject to restrictions as set forth in subparagraphs (a)
 and (c) of the Commercial Computer Software - Restricted
 Rights clause in FAR 52.227-19.
  
 Gaussian, Inc.
 340 Quinnipiac St., Bldg. 40, Wallingford CT 06492
  
  
 ---------------------------------------------------------------
 Warning -- This program may not be used in any manner that
 competes with the business of Gaussian, Inc. or will provide
 assistance to any competitor of Gaussian, Inc.  The licensee
 of this program is prohibited from giving any competitor of
 Gaussian, Inc. access to this program.  By using this program,
 the user acknowledges that Gaussian, Inc. is engaged in the
 business of creating and licensing software in the field of
 computational chemistry and represents and warrants to the
 licensee that it is not a competitor of Gaussian, Inc. and that
 it will not use this program in any manner prohibited above.
 ---------------------------------------------------------------
  

 Cite this work as:
 Gaussian 16, Revision A.03,
 M. J. Frisch, G. W. Trucks, H. B. Schlegel, G. E. Scuseria, 
 M. A. Robb, J. R. Cheeseman, G. Scalmani, V. Barone, 
 G. A. Petersson, H. Nakatsuji, X. Li, M. Caricato, A. V. Marenich, 
 J. Bloino, B. G. Janesko, R. Gomperts, B. Mennucci, H. P. Hratchian, 
 J. V. Ortiz, A. F. Izmaylov, J. L. Sonnenberg, D. Williams-Young, 
 F. Ding, F. Lipparini, F. Egidi, J. Goings, B. Peng, A. Petrone, 
 T. Henderson, D. Ranasinghe, V. G. Zakrzewski, J. Gao, N. Rega, 
 G. Zheng, W. Liang, M. Hada, M. Ehara, K. Toyota, R. Fukuda, 
 J. Hasegawa, M. Ishida, T. Nakajima, Y. Honda, O. Kitao, H. Nakai, 
 T. Vreven, K. Throssell, J. A. Montgomery, Jr., J. E. Peralta, 
 F. Ogliaro, M. J. Bearpark, J. J. Heyd, E. N. Brothers, K. N. Kudin, 
 V. N. Staroverov, T. A. Keith, R. Kobayashi, J. Normand, 
 K. Raghavachari, A. P. Rendell, J. C. Burant, S. S. Iyengar, 
 J. Tomasi, M. Cossi, J. M. Millam, M. Klene, C. Adamo, R. Cammi, 
 J. W. Ochterski, R. L. Martin, K. Morokuma, O. Farkas, 
 J. B. Foresman, and D. J. Fox, Gaussian, Inc., Wallingford CT, 2016.
 
 ******************************************
 Gaussian 16:  ES64L-G16RevA.03 25-Dec-2016
                24-Oct-2025 
 ******************************************
 %nprocshared=64
 Will use up to   64 processors via shared memory.
 %mem=230GB
 %chk=BNO_CN_reduced_sp.chk
 ----------------------------------------------
 #p M062X/DEF2TZVPP scrf=(solvent=water) em=GD3
 ----------------------------------------------
 1/38=1,172=1/1;
 2/12=2,17=6,18=5,40=1/2;
 3/5=44,7=202,11=2,25=1,30=1,70=2201,72=1,74=-55,124=31/1,2,3;
 4//1;
 5/5=2,38=5,53=1/2;
 6/7=2,8=2,9=2,10=2,28=1/1;
 99/5=1,9=1/99;
 Leave Link    1 at Fri Oct 24 18:16:38 2025, MaxMem= 30870077440 cpu:              12.8 elap:               0.2
 (Enter /public/software/gauss/g16/l101.exe)
 -------------------------------------
 Energy calculation for BNO_CN_reduced
 -------------------------------------
 Symbolic Z-matrix:
 Charge = -1 Multiplicity = 2
 C                     3.9563   -3.05137   0.06818 
 C                     2.60462  -2.40312   0.00945 
 C                     1.41612  -3.1172   -0.0272 
 C                     0.33484  -2.21941  -0.16086 
 C                    -1.03139  -2.66365  -0.19612 
 C                    -2.17514  -1.92763  -0.06596 
 C                    -3.51125  -2.45248  -0.11553 
 C                    -4.58812  -1.60427   0.02371 
 O                    -4.30476  -0.26855   0.29252 
 C                    -5.297     0.66081   0.45131 
 C                    -6.65532   0.29632   0.36032 
 C                    -7.62462   1.29871   0.54212 
 C                    -7.2567    2.61117   0.80474 
 C                    -5.89127   2.94452   0.88748 
 C                    -5.50719   4.29356   1.15681 
 N                    -5.19813   5.39703   1.37696 
 C                    -4.89916   1.96444   0.70874 
 C                    -6.96274  -1.08313   0.07577 
 C                    -5.97122  -1.99897  -0.0996 
 C                    -6.24218  -3.43791  -0.46218 
 C                    -5.16871  -4.36494   0.1139 
 C                    -3.77164  -3.92982  -0.34179 
 N                     0.84518  -0.94041  -0.22568 
 C                     2.24141  -1.01971  -0.10085 
 C                     3.06001   0.1335   -0.20521 
 C                     4.50232   0.03843   0.06398 
 C                     4.98265  -0.40442   1.31868 
 C                     6.33636  -0.47866   1.58839 
 C                     7.27002  -0.13548   0.58462 
 N                     8.64385  -0.22043   0.84368 
 O                     9.04933  -0.62403   1.9897 
 O                     9.48289   0.1052   -0.0678 
 C                     6.81175   0.29343  -0.68165 
 C                     5.45415   0.39071  -0.92141 
 C                     2.49173   1.37571  -0.58926 
 C                     3.02276   2.69935  -0.65386 
 C                     4.37551   3.22196  -0.27014 
 C                     1.97548   3.51491  -1.10332 
 C                     0.83395   2.7262   -1.27218 
 C                    -0.52826   3.16205  -1.70089 
 N                     1.1421    1.43758  -0.95537 
 B                     0.09862   0.32797  -0.71264 
 F                    -0.81922   0.78296   0.2681 
 F                    -0.60817   0.05629  -1.89472 
 H                     4.65727  -2.6022   -0.64089 
 H                     4.41767  -2.98077   1.05838 
 H                     3.85695  -4.11327  -0.17509 
 H                     1.31446  -4.19307   0.03556 
 H                    -1.10962  -3.74305  -0.29916 
 H                    -2.08431  -0.86288   0.09568 
 H                    -8.67422   1.03103   0.4732 
 H                    -8.0084    3.37945   0.94493 
 H                    -3.84378   2.20566   0.76796 
 H                    -8.00417  -1.37774  -0.01181 
 H                    -7.24351  -3.71918  -0.12244 
 H                    -6.24165  -3.52683  -1.55799 
 H                    -5.21902  -4.34159   1.2093 
 H                    -5.35818  -5.39705  -0.19668 
 H                    -3.0179   -4.51537   0.19508 
 H                    -3.63772  -4.16818  -1.40682 
 H                     4.27052  -0.66358   2.09574 
 H                     6.6924   -0.7883    2.56244 
 H                     7.53014   0.53404  -1.45442 
 H                     5.10872   0.71475  -1.89784 
 H                     5.13251   3.05555  -1.04424 
 H                     4.31203   4.30124  -0.10167 
 H                     4.75075   2.75571   0.64508 
 H                     2.0269    4.58258  -1.27391 
 H                    -0.87675   2.58837  -2.56553 
 H                    -1.26128   3.01105  -0.90118 
 H                    -0.51558   4.22171  -1.96437 
 
 ITRead=  0  0  0  0  0  0  0  0  0  0  0  0  0  0  0  0  0  0  0  0
 ITRead=  0  0  0  0  0  0  0  0  0  0  0  0  0  0  0  0  0  0  0  0
 ITRead=  0  0  0  0  0  0  0  0  0  0  0  0  0  0  0  0  0  0  0  0
 ITRead=  0  0  0  0  0  0  0  0  0  0  0
 MicOpt= -1 -1 -1 -1 -1 -1 -1 -1 -1 -1 -1 -1 -1 -1 -1 -1 -1 -1 -1 -1
 MicOpt= -1 -1 -1 -1 -1 -1 -1 -1 -1 -1 -1 -1 -1 -1 -1 -1 -1 -1 -1 -1
 MicOpt= -1 -1 -1 -1 -1 -1 -1 -1 -1 -1 -1 -1 -1 -1 -1 -1 -1 -1 -1 -1
 MicOpt= -1 -1 -1 -1 -1 -1 -1 -1 -1 -1 -1
 NAtoms=     71 NQM=       71 NQMF=       0 NMMI=      0 NMMIF=      0
                NMic=       0 NMicF=      0.
                    Isotopes and Nuclear Properties:
 (Nuclear quadrupole moments (NQMom) in fm**2, nuclear magnetic moments (NMagM)
  in nuclear magnetons)

  Atom         1           2           3           4           5           6           7           8           9          10
 IAtWgt=          12          12          12          12          12          12          12          12          16          12
 AtmWgt=  12.0000000  12.0000000  12.0000000  12.0000000  12.0000000  12.0000000  12.0000000  12.0000000  15.9949146  12.0000000
 NucSpn=           0           0           0           0           0           0           0           0           0           0
 AtZEff=  -0.0000000  -0.0000000  -0.0000000  -0.0000000  -0.0000000  -0.0000000  -0.0000000  -0.0000000  -0.0000000  -0.0000000
 NQMom=    0.0000000   0.0000000   0.0000000   0.0000000   0.0000000   0.0000000   0.0000000   0.0000000   0.0000000   0.0000000
 NMagM=    0.0000000   0.0000000   0.0000000   0.0000000   0.0000000   0.0000000   0.0000000   0.0000000   0.0000000   0.0000000
 AtZNuc=   6.0000000   6.0000000   6.0000000   6.0000000   6.0000000   6.0000000   6.0000000   6.0000000   8.0000000   6.0000000

  Atom        11          12          13          14          15          16          17          18          19          20
 IAtWgt=          12          12          12          12          12          14          12          12          12          12
 AtmWgt=  12.0000000  12.0000000  12.0000000  12.0000000  12.0000000  14.0030740  12.0000000  12.0000000  12.0000000  12.0000000
 NucSpn=           0           0           0           0           0           2           0           0           0           0
 AtZEff=  -0.0000000  -0.0000000  -0.0000000  -0.0000000  -0.0000000  -0.0000000  -0.0000000  -0.0000000  -0.0000000  -0.0000000
 NQMom=    0.0000000   0.0000000   0.0000000   0.0000000   0.0000000   2.0440000   0.0000000   0.0000000   0.0000000   0.0000000
 NMagM=    0.0000000   0.0000000   0.0000000   0.0000000   0.0000000   0.4037610   0.0000000   0.0000000   0.0000000   0.0000000
 AtZNuc=   6.0000000   6.0000000   6.0000000   6.0000000   6.0000000   7.0000000   6.0000000   6.0000000   6.0000000   6.0000000

  Atom        21          22          23          24          25          26          27          28          29          30
 IAtWgt=          12          12          14          12          12          12          12          12          12          14
 AtmWgt=  12.0000000  12.0000000  14.0030740  12.0000000  12.0000000  12.0000000  12.0000000  12.0000000  12.0000000  14.0030740
 NucSpn=           0           0           2           0           0           0           0           0           0           2
 AtZEff=  -0.0000000  -0.0000000  -0.0000000  -0.0000000  -0.0000000  -0.0000000  -0.0000000  -0.0000000  -0.0000000  -0.0000000
 NQMom=    0.0000000   0.0000000   2.0440000   0.0000000   0.0000000   0.0000000   0.0000000   0.0000000   0.0000000   2.0440000
 NMagM=    0.0000000   0.0000000   0.4037610   0.0000000   0.0000000   0.0000000   0.0000000   0.0000000   0.0000000   0.4037610
 AtZNuc=   6.0000000   6.0000000   7.0000000   6.0000000   6.0000000   6.0000000   6.0000000   6.0000000   6.0000000   7.0000000

  Atom        31          32          33          34          35          36          37          38          39          40
 IAtWgt=          16          16          12          12          12          12          12          12          12          12
 AtmWgt=  15.9949146  15.9949146  12.0000000  12.0000000  12.0000000  12.0000000  12.0000000  12.0000000  12.0000000  12.0000000
 NucSpn=           0           0           0           0           0           0           0           0           0           0
 AtZEff=  -0.0000000  -0.0000000  -0.0000000  -0.0000000  -0.0000000  -0.0000000  -0.0000000  -0.0000000  -0.0000000  -0.0000000
 NQMom=    0.0000000   0.0000000   0.0000000   0.0000000   0.0000000   0.0000000   0.0000000   0.0000000   0.0000000   0.0000000
 NMagM=    0.0000000   0.0000000   0.0000000   0.0000000   0.0000000   0.0000000   0.0000000   0.0000000   0.0000000   0.0000000
 AtZNuc=   8.0000000   8.0000000   6.0000000   6.0000000   6.0000000   6.0000000   6.0000000   6.0000000   6.0000000   6.0000000

  Atom        41          42          43          44          45          46          47          48          49          50
 IAtWgt=          14          11          19          19           1           1           1           1           1           1
 AtmWgt=  14.0030740  11.0093053  18.9984033  18.9984033   1.0078250   1.0078250   1.0078250   1.0078250   1.0078250   1.0078250
 NucSpn=           2           3           1           1           1           1           1           1           1           1
 AtZEff=  -0.0000000  -0.0000000  -0.0000000  -0.0000000  -0.0000000  -0.0000000  -0.0000000  -0.0000000  -0.0000000  -0.0000000
 NQMom=    2.0440000   4.0590000   0.0000000   0.0000000   0.0000000   0.0000000   0.0000000   0.0000000   0.0000000   0.0000000
 NMagM=    0.4037610   2.6886370   2.6288670   2.6288670   2.7928460   2.7928460   2.7928460   2.7928460   2.7928460   2.7928460
 AtZNuc=   7.0000000   5.0000000   9.0000000   9.0000000   1.0000000   1.0000000   1.0000000   1.0000000   1.0000000   1.0000000

  Atom        51          52          53          54          55          56          57          58          59          60
 IAtWgt=           1           1           1           1           1           1           1           1           1           1
 AtmWgt=   1.0078250   1.0078250   1.0078250   1.0078250   1.0078250   1.0078250   1.0078250   1.0078250   1.0078250   1.0078250
 NucSpn=           1           1           1           1           1           1           1           1           1           1
 AtZEff=  -0.0000000  -0.0000000  -0.0000000  -0.0000000  -0.0000000  -0.0000000  -0.0000000  -0.0000000  -0.0000000  -0.0000000
 NQMom=    0.0000000   0.0000000   0.0000000   0.0000000   0.0000000   0.0000000   0.0000000   0.0000000   0.0000000   0.0000000
 NMagM=    2.7928460   2.7928460   2.7928460   2.7928460   2.7928460   2.7928460   2.7928460   2.7928460   2.7928460   2.7928460
 AtZNuc=   1.0000000   1.0000000   1.0000000   1.0000000   1.0000000   1.0000000   1.0000000   1.0000000   1.0000000   1.0000000

  Atom        61          62          63          64          65          66          67          68          69          70
 IAtWgt=           1           1           1           1           1           1           1           1           1           1
 AtmWgt=   1.0078250   1.0078250   1.0078250   1.0078250   1.0078250   1.0078250   1.0078250   1.0078250   1.0078250   1.0078250
 NucSpn=           1           1           1           1           1           1           1           1           1           1
 AtZEff=  -0.0000000  -0.0000000  -0.0000000  -0.0000000  -0.0000000  -0.0000000  -0.0000000  -0.0000000  -0.0000000  -0.0000000
 NQMom=    0.0000000   0.0000000   0.0000000   0.0000000   0.0000000   0.0000000   0.0000000   0.0000000   0.0000000   0.0000000
 NMagM=    2.7928460   2.7928460   2.7928460   2.7928460   2.7928460   2.7928460   2.7928460   2.7928460   2.7928460   2.7928460
 AtZNuc=   1.0000000   1.0000000   1.0000000   1.0000000   1.0000000   1.0000000   1.0000000   1.0000000   1.0000000   1.0000000

  Atom        71
 IAtWgt=           1
 AtmWgt=   1.0078250
 NucSpn=           1
 AtZEff=  -0.0000000
 NQMom=    0.0000000
 NMagM=    2.7928460
 AtZNuc=   1.0000000
 Leave Link  101 at Fri Oct 24 18:16:38 2025, MaxMem= 30870077440 cpu:               4.2 elap:               0.1
 (Enter /public/software/gauss/g16/l202.exe)
 Stoichiometry    C34H27BF2N4O3(1-,2)
 Framework group  C1[X(C34H27BF2N4O3)]
 Deg. of freedom   207
 Full point group                 C1      NOp   1
 Largest Abelian subgroup         C1      NOp   1
 Largest concise Abelian subgroup C1      NOp   1
                         Standard orientation:                         
 ---------------------------------------------------------------------
 Center     Atomic      Atomic             Coordinates (Angstroms)
 Number     Number       Type             X           Y           Z
 ---------------------------------------------------------------------
      1          6           0        3.956301   -3.051372    0.068180
      2          6           0        2.604617   -2.403117    0.009454
      3          6           0        1.416122   -3.117202   -0.027202
      4          6           0        0.334837   -2.219414   -0.160857
      5          6           0       -1.031386   -2.663652   -0.196116
      6          6           0       -2.175135   -1.927632   -0.065957
      7          6           0       -3.511247   -2.452481   -0.115532
      8          6           0       -4.588123   -1.604272    0.023707
      9          8           0       -4.304764   -0.268554    0.292516
     10          6           0       -5.296998    0.660805    0.451312
     11          6           0       -6.655323    0.296316    0.360320
     12          6           0       -7.624615    1.298705    0.542119
     13          6           0       -7.256696    2.611171    0.804735
     14          6           0       -5.891265    2.944520    0.887475
     15          6           0       -5.507189    4.293564    1.156809
     16          7           0       -5.198127    5.397029    1.376958
     17          6           0       -4.899158    1.964437    0.708739
     18          6           0       -6.962736   -1.083129    0.075768
     19          6           0       -5.971221   -1.998974   -0.099596
     20          6           0       -6.242181   -3.437910   -0.462184
     21          6           0       -5.168713   -4.364944    0.113897
     22          6           0       -3.771643   -3.929820   -0.341794
     23          7           0        0.845182   -0.940413   -0.225676
     24          6           0        2.241409   -1.019709   -0.100854
     25          6           0        3.060006    0.133504   -0.205206
     26          6           0        4.502322    0.038425    0.063977
     27          6           0        4.982646   -0.404421    1.318679
     28          6           0        6.336359   -0.478664    1.588391
     29          6           0        7.270022   -0.135476    0.584615
     30          7           0        8.643850   -0.220429    0.843683
     31          8           0        9.049327   -0.624031    1.989699
     32          8           0        9.482890    0.105201   -0.067796
     33          6           0        6.811753    0.293434   -0.681654
     34          6           0        5.454148    0.390712   -0.921411
     35          6           0        2.491731    1.375708   -0.589256
     36          6           0        3.022760    2.699348   -0.653858
     37          6           0        4.375507    3.221965   -0.270140
     38          6           0        1.975480    3.514913   -1.103323
     39          6           0        0.833953    2.726199   -1.272180
     40          6           0       -0.528263    3.162049   -1.700892
     41          7           0        1.142101    1.437575   -0.955371
     42          5           0        0.098622    0.327965   -0.712639
     43          9           0       -0.819222    0.782961    0.268098
     44          9           0       -0.608169    0.056294   -1.894722
     45          1           0        4.657265   -2.602199   -0.640885
     46          1           0        4.417668   -2.980766    1.058378
     47          1           0        3.856950   -4.113272   -0.175086
     48          1           0        1.314461   -4.193072    0.035558
     49          1           0       -1.109618   -3.743052   -0.299156
     50          1           0       -2.084307   -0.862878    0.095677
     51          1           0       -8.674219    1.031029    0.473199
     52          1           0       -8.008399    3.379447    0.944927
     53          1           0       -3.843775    2.205662    0.767961
     54          1           0       -8.004165   -1.377739   -0.011805
     55          1           0       -7.243512   -3.719180   -0.122442
     56          1           0       -6.241655   -3.526825   -1.557988
     57          1           0       -5.219019   -4.341592    1.209296
     58          1           0       -5.358175   -5.397046   -0.196675
     59          1           0       -3.017902   -4.515366    0.195079
     60          1           0       -3.637723   -4.168176   -1.406824
     61          1           0        4.270521   -0.663580    2.095738
     62          1           0        6.692400   -0.788304    2.562441
     63          1           0        7.530140    0.534044   -1.454419
     64          1           0        5.108723    0.714751   -1.897838
     65          1           0        5.132515    3.055553   -1.044241
     66          1           0        4.312028    4.301237   -0.101666
     67          1           0        4.750749    2.755714    0.645084
     68          1           0        2.026896    4.582576   -1.273913
     69          1           0       -0.876748    2.588369   -2.565526
     70          1           0       -1.261283    3.011051   -0.901183
     71          1           0       -0.515581    4.221709   -1.964367
 ---------------------------------------------------------------------
 Rotational constants (GHZ):           0.1446985           0.0340470           0.0289291
 Leave Link  202 at Fri Oct 24 18:16:38 2025, MaxMem= 30870077440 cpu:               0.2 elap:               0.0
 (Enter /public/software/gauss/g16/l301.exe)
 Standard basis: def2TZVPP (5D, 7F)
 Ernie: Thresh=  0.10000D-02 Tol=  0.10000D-05 Strict=F.
 There are  1989 symmetry adapted cartesian basis functions of A   symmetry.
 There are  1742 symmetry adapted basis functions of A   symmetry.
  1742 basis functions,  2703 primitive gaussians,  1989 cartesian basis functions
   154 alpha electrons      153 beta electrons
       nuclear repulsion energy      4907.1151775900 Hartrees.
 IExCor= 4336 DFT=T Ex+Corr=M062X ExCW=0 ScaHFX=  0.540000
 ScaDFX=  1.000000  1.000000  1.000000  1.000000 ScalE2=  1.000000  1.000000
 IRadAn=      5 IRanWt=     -1 IRanGd=            0 ICorTp=0 IEmpDi=131
 NAtoms=   71 NActive=   71 NUniq=   71 SFac= 1.00D+00 NAtFMM=   60 NAOKFM=T Big=T
 Integral buffers will be    131072 words long.
 Raffenetti 2 integral format.
 Two-electron integral symmetry is turned on.
 R6Disp:  Grimme-D3 Dispersion energy=       -0.0063376841 Hartrees.
 Nuclear repulsion after empirical dispersion term =     4907.1088399059 Hartrees.
 ------------------------------------------------------------------------------
 Polarizable Continuum Model (PCM)
 =================================
 Model                : PCM.
 Atomic radii         : UFF (Universal Force Field).
 Polarization charges : Total charges.
 Charge compensation  : None.
 Solution method      : On-the-fly selection.
 Cavity type          : Scaled VdW (van der Waals Surface) (Alpha=1.100).
 Cavity algorithm     : GePol (No added spheres)
                        Default sphere list used, NSphG=   71.
                        Lebedev-Laikov grids with approx.  5.0 points / Ang**2.
                        Smoothing algorithm: York/Karplus (Gamma=1.0000).
                        Polarization charges: spherical gaussians, with
                                              point-specific exponents (IZeta= 3).
                        Self-potential: point-specific (ISelfS= 7).
                        Self-field    : sphere-specific E.n sum rule (ISelfD= 2).
 Solvent              : Water, Eps=  78.355300 Eps(inf)=   1.777849
 ------------------------------------------------------------------------------
 GePol: Number of generator spheres                  =      71
 GePol: Total number of spheres                      =      71
 GePol: Number of exposed spheres                    =      71 (100.00%)
 GePol: Number of points                             =    5128
 GePol: Average weight of points                     =       0.13
 GePol: Minimum weight of points                     =   0.41D-10
 GePol: Maximum weight of points                     =    0.20577
 GePol: Number of points with low weight             =     341
 GePol: Fraction of low-weight points (<1% of avg)   =       6.65%
 GePol: Cavity surface area                          =    651.513 Ang**2
 GePol: Cavity volume                                =    758.347 Ang**3
 Leave Link  301 at Fri Oct 24 18:16:38 2025, MaxMem= 30870077440 cpu:               3.6 elap:               0.1
 (Enter /public/software/gauss/g16/l302.exe)
 NPDir=0 NMtPBC=     1 NCelOv=     1 NCel=       1 NClECP=     1 NCelD=      1
         NCelK=      1 NCelE2=     1 NClLst=     1 CellRange=     0.0.
 One-electron integrals computed using PRISM.
 One-electron integral symmetry used in STVInt
   1 Symmetry operations used in ECPInt.
 ECPInt:  NShTT=  208981 NPrTT=  602205 LenC2=  139418 LenP2D=  271121.
 LDataN:  DoStor=T MaxTD1= 6 Len=  172
 NBasis=  1742 RedAO= T EigKep=  5.59D-06  NBF=  1742
 NBsUse=  1742 1.00D-06 EigRej= -1.00D+00 NBFU=  1742
 Precomputing XC quadrature grid using
 IXCGrd= 4 IRadAn=           5 IRanWt=          -1 IRanGd=           0 AccXCQ= 0.00D+00.
 Generated NRdTot=       0 NPtTot=           0 NUsed=           0 NTot=          32
 NSgBfM=  1786  1786  1786  1786  1786 MxSgAt=    71 MxSgA2=    71.
 Leave Link  302 at Fri Oct 24 18:16:46 2025, MaxMem= 30870077440 cpu:             506.0 elap:               7.9
 (Enter /public/software/gauss/g16/l303.exe)
 DipDrv:  MaxL=1.
 Leave Link  303 at Fri Oct 24 18:16:47 2025, MaxMem= 30870077440 cpu:              24.7 elap:               0.4
 (Enter /public/software/gauss/g16/l401.exe)
 ExpMin= 6.06D-02 ExpMax= 3.55D+04 ExpMxC= 1.21D+03 IAcc=3 IRadAn=         5 AccDes= 0.00D+00
 Harris functional with IExCor= 1009 and IRadAn=       5 diagonalized for initial guess.
 HarFok:  IExCor= 1009 AccDes= 0.00D+00 IRadAn=         5 IDoV= 1 UseB2=F ITyADJ=14
 ICtDFT=  3500011 ScaDFX=  1.000000  1.000000  1.000000  1.000000
 FoFCou: FMM=F IPFlag=           0 FMFlag=      100000 FMFlg1=        2001
         NFxFlg=           0 DoJE=T BraDBF=F KetDBF=T FulRan=T
         wScrn=  0.000000 ICntrl=       500 IOpCl=  0 I1Cent=   200000004 NGrid=           0
         NMat0=    1 NMatS0=      1 NMatT0=    0 NMatD0=    1 NMtDS0=    0 NMtDT0=    0
 Petite list used in FoFCou.
 Harris En= -1980.37881591137    
 JPrj=0 DoOrth=F DoCkMO=F.
 Initial guess <Sx>= 0.0000 <Sy>= 0.0000 <Sz>= 0.5000 <S**2>= 0.7500 S= 0.5000
 Leave Link  401 at Fri Oct 24 18:16:57 2025, MaxMem= 30870077440 cpu:             637.4 elap:              10.0
 (Enter /public/software/gauss/g16/l502.exe)
 Integral symmetry usage will be decided dynamically.
 UHF open shell SCF:
 Using DIIS extrapolation, IDIIS=  1040.
 NGot= 30870077440 LenX= 30862021207 LenY= 30858063097
 Requested convergence on RMS density matrix=1.00D-08 within 128 cycles.
 Requested convergence on MAX density matrix=1.00D-06.
 Requested convergence on             energy=1.00D-06.
 No special actions if energy rises.
 Fock matrices will be formed incrementally for  20 cycles.

 Cycle   1  Pass 1  IDiag  1:
 FoFJK:  IHMeth= 1 ICntrl=       0 DoSepK=F KAlg= 0 I1Cent=           0 FoldK=F
 IRaf= 640000000 NMat=       1 IRICut=       1 DoRegI=T DoRafI=F ISym2E= 0 IDoP0=0 IntGTp=1.
 FoFCou: FMM=T IPFlag=           0 FMFlag=      100000 FMFlg1=        2001
         NFxFlg=           0 DoJE=F BraDBF=F KetDBF=F FulRan=T
         wScrn=  0.000000 ICntrl=         0 IOpCl=  1 I1Cent=           0 NGrid=           0
         NMat0=    1 NMatS0=      1 NMatT0=    0 NMatD0=    1 NMtDS0=    0 NMtDT0=    0
 Symmetry not used in FoFCou.
 FMM levels:  10  Number of levels for PrismC:   9
 Inv3:  Mode=1 IEnd=    78889152.
 Iteration    1 A*A^-1 deviation from unit magnitude is 1.43D-14 for     78.
 Iteration    1 A*A^-1 deviation from orthogonality  is 8.84D-15 for   4425    636.
 Iteration    1 A^-1*A deviation from unit magnitude is 1.34D-14 for    629.
 Iteration    1 A^-1*A deviation from orthogonality  is 5.08D-15 for   3796     63.
 E= -1980.21138661017    
 DIIS: error= 2.90D-02 at cycle   1 NSaved=   1.
 NSaved= 1 IEnMin= 1 EnMin= -1980.21138661017     IErMin= 1 ErrMin= 2.90D-02
 ErrMax= 2.90D-02  0.00D+00 EMaxC= 1.00D-01 BMatC= 5.61D+00 BMatP= 5.61D+00
 IDIUse=3 WtCom= 7.10D-01 WtEn= 2.90D-01
 Coeff-Com:  0.100D+01
 Coeff-En:   0.100D+01
 Coeff:      0.100D+01
 Gap=     0.078 Goal=   None    Shift=    0.000
 Gap=     0.122 Goal=   None    Shift=    0.000
 GapD=    0.078 DampG=0.500 DampE=0.500 DampFc=0.2500 IDamp=-1.
 Damping current iteration by 2.50D-01
 RMSDP=1.61D-03 MaxDP=2.98D-01              OVMax= 7.57D-01

 Cycle   2  Pass 1  IDiag  1:
 RMSU=  4.00D-04    CP:  9.92D-01
 E= -1980.58477568651     Delta-E=       -0.373389076333 Rises=F Damp=T
 DIIS: error= 1.19D-02 at cycle   2 NSaved=   2.
 NSaved= 2 IEnMin= 2 EnMin= -1980.58477568651     IErMin= 2 ErrMin= 1.19D-02
 ErrMax= 1.19D-02  0.00D+00 EMaxC= 1.00D-01 BMatC= 1.95D+00 BMatP= 5.61D+00
 IDIUse=3 WtCom= 8.81D-01 WtEn= 1.19D-01
 Coeff-Com: -0.108D+01 0.208D+01
 Coeff-En:   0.000D+00 0.100D+01
 Coeff:     -0.955D+00 0.196D+01
 Gap=     0.018 Goal=   None    Shift=    0.000
 Gap=     0.199 Goal=   None    Shift=    0.000
 RMSDP=1.04D-03 MaxDP=2.08D-01 DE=-3.73D-01 OVMax= 6.93D-01

 Cycle   3  Pass 1  IDiag  1:
 RMSU=  7.82D-04    CP:  9.83D-01  2.70D+00
 E= -1981.22926651178     Delta-E=       -0.644490825274 Rises=F Damp=F
 DIIS: error= 1.53D-02 at cycle   3 NSaved=   3.
 NSaved= 3 IEnMin= 3 EnMin= -1981.22926651178     IErMin= 2 ErrMin= 1.19D-02
 ErrMax= 1.53D-02  0.00D+00 EMaxC= 1.00D-01 BMatC= 3.51D-01 BMatP= 1.95D+00
 IDIUse=3 WtCom= 8.47D-01 WtEn= 1.53D-01
 Coeff-Com: -0.556D+00 0.958D+00 0.598D+00
 Coeff-En:   0.000D+00 0.000D+00 0.100D+01
 Coeff:     -0.471D+00 0.811D+00 0.660D+00
 Gap=     0.054 Goal=   None    Shift=    0.000
 Gap=     0.131 Goal=   None    Shift=    0.000
 RMSDP=3.47D-04 MaxDP=8.91D-02 DE=-6.44D-01 OVMax= 2.95D-01

 Cycle   4  Pass 1  IDiag  1:
 RMSU=  3.01D-04    CP:  9.74D-01  2.60D+00  7.91D-01
 E= -1981.28789996963     Delta-E=       -0.058633457853 Rises=F Damp=F
 DIIS: error= 8.07D-03 at cycle   4 NSaved=   4.
 NSaved= 4 IEnMin= 4 EnMin= -1981.28789996963     IErMin= 4 ErrMin= 8.07D-03
 ErrMax= 8.07D-03  0.00D+00 EMaxC= 1.00D-01 BMatC= 9.29D-02 BMatP= 3.51D-01
 IDIUse=3 WtCom= 9.19D-01 WtEn= 8.07D-02
 Coeff-Com: -0.901D-01 0.149D+00 0.354D+00 0.587D+00
 Coeff-En:   0.000D+00 0.000D+00 0.205D+00 0.795D+00
 Coeff:     -0.828D-01 0.137D+00 0.342D+00 0.604D+00
 Gap=     0.073 Goal=   None    Shift=    0.000
 Gap=     0.138 Goal=   None    Shift=    0.000
 RMSDP=1.40D-04 MaxDP=5.73D-02 DE=-5.86D-02 OVMax= 1.01D-01

 Cycle   5  Pass 1  IDiag  1:
 RMSU=  1.00D-04    CP:  9.77D-01  2.64D+00  8.65D-01  7.44D-01
 E= -1981.30721400370     Delta-E=       -0.019314034065 Rises=F Damp=F
 DIIS: error= 7.51D-04 at cycle   5 NSaved=   5.
 NSaved= 5 IEnMin= 5 EnMin= -1981.30721400370     IErMin= 5 ErrMin= 7.51D-04
 ErrMax= 7.51D-04  0.00D+00 EMaxC= 1.00D-01 BMatC= 5.20D-03 BMatP= 9.29D-02
 IDIUse=3 WtCom= 9.92D-01 WtEn= 7.51D-03
 Coeff-Com: -0.109D-01 0.165D-01 0.141D+00 0.308D+00 0.546D+00
 Coeff-En:   0.000D+00 0.000D+00 0.000D+00 0.000D+00 0.100D+01
 Coeff:     -0.108D-01 0.164D-01 0.140D+00 0.305D+00 0.549D+00
 Gap=     0.077 Goal=   None    Shift=    0.000
 Gap=     0.132 Goal=   None    Shift=    0.000
 RMSDP=5.49D-05 MaxDP=2.08D-02 DE=-1.93D-02 OVMax= 3.26D-02

 Cycle   6  Pass 1  IDiag  1:
 RMSU=  4.36D-05    CP:  9.75D-01  2.62D+00  8.45D-01  8.33D-01  9.11D-01
 E= -1981.30878213267     Delta-E=       -0.001568128973 Rises=F Damp=F
 DIIS: error= 2.81D-04 at cycle   6 NSaved=   6.
 NSaved= 6 IEnMin= 6 EnMin= -1981.30878213267     IErMin= 6 ErrMin= 2.81D-04
 ErrMax= 2.81D-04  0.00D+00 EMaxC= 1.00D-01 BMatC= 6.76D-04 BMatP= 5.20D-03
 IDIUse=3 WtCom= 9.97D-01 WtEn= 2.81D-03
 Coeff-Com:  0.604D-02-0.986D-02 0.128D-01 0.336D-01 0.252D+00 0.705D+00
 Coeff-En:   0.000D+00 0.000D+00 0.000D+00 0.000D+00 0.000D+00 0.100D+01
 Coeff:      0.603D-02-0.983D-02 0.128D-01 0.335D-01 0.252D+00 0.706D+00
 Gap=     0.080 Goal=   None    Shift=    0.000
 Gap=     0.134 Goal=   None    Shift=    0.000
 RMSDP=3.33D-05 MaxDP=1.20D-02 DE=-1.57D-03 OVMax= 2.41D-02

 Cycle   7  Pass 1  IDiag  1:
 RMSU=  2.21D-05    CP:  9.75D-01  2.63D+00  8.52D-01  8.40D-01  1.14D+00
                    CP:  1.16D+00
 E= -1981.30920568400     Delta-E=       -0.000423551327 Rises=F Damp=F
 DIIS: error= 2.88D-04 at cycle   7 NSaved=   7.
 NSaved= 7 IEnMin= 7 EnMin= -1981.30920568400     IErMin= 6 ErrMin= 2.81D-04
 ErrMax= 2.88D-04  0.00D+00 EMaxC= 1.00D-01 BMatC= 1.46D-04 BMatP= 6.76D-04
 IDIUse=3 WtCom= 9.97D-01 WtEn= 2.81D-03
 Coeff-Com:  0.400D-02-0.597D-02-0.178D-01-0.522D-01-0.685D-03 0.243D+00
 Coeff-Com:  0.829D+00
 Coeff-En:   0.000D+00 0.000D+00 0.000D+00 0.000D+00 0.000D+00 0.000D+00
 Coeff-En:   0.100D+01
 Coeff:      0.399D-02-0.595D-02-0.178D-01-0.520D-01-0.683D-03 0.243D+00
 Coeff:      0.830D+00
 Gap=     0.082 Goal=   None    Shift=    0.000
 Gap=     0.135 Goal=   None    Shift=    0.000
 RMSDP=2.54D-05 MaxDP=4.75D-03 DE=-4.24D-04 OVMax= 2.67D-02

 Cycle   8  Pass 1  IDiag  1:
 RMSU=  1.03D-05    CP:  9.75D-01  2.63D+00  8.50D-01  8.65D-01  1.24D+00
                    CP:  1.42D+00  1.72D+00
 E= -1981.30944063547     Delta-E=       -0.000234951470 Rises=F Damp=F
 DIIS: error= 2.75D-04 at cycle   8 NSaved=   8.
 NSaved= 8 IEnMin= 8 EnMin= -1981.30944063547     IErMin= 8 ErrMin= 2.75D-04
 ErrMax= 2.75D-04  0.00D+00 EMaxC= 1.00D-01 BMatC= 8.74D-05 BMatP= 1.46D-04
 IDIUse=3 WtCom= 9.97D-01 WtEn= 2.75D-03
 Coeff-Com:  0.469D-03-0.217D-03-0.256D-02-0.252D-01-0.398D-01-0.936D-01
 Coeff-Com:  0.314D+00 0.847D+00
 Coeff-En:   0.000D+00 0.000D+00 0.000D+00 0.000D+00 0.000D+00 0.000D+00
 Coeff-En:   0.000D+00 0.100D+01
 Coeff:      0.468D-03-0.217D-03-0.255D-02-0.251D-01-0.397D-01-0.934D-01
 Coeff:      0.313D+00 0.847D+00
 Gap=     0.083 Goal=   None    Shift=    0.000
 Gap=     0.135 Goal=   None    Shift=    0.000
 RMSDP=2.28D-05 MaxDP=3.03D-03 DE=-2.35D-04 OVMax= 2.68D-02

 Cycle   9  Pass 1  IDiag  1:
 RMSU=  7.09D-06    CP:  9.75D-01  2.64D+00  8.48D-01  8.77D-01  1.30D+00
                    CP:  1.57D+00  2.48D+00  1.93D+00
 E= -1981.30962190276     Delta-E=       -0.000181267289 Rises=F Damp=F
 DIIS: error= 2.94D-04 at cycle   9 NSaved=   9.
 NSaved= 9 IEnMin= 9 EnMin= -1981.30962190276     IErMin= 8 ErrMin= 2.75D-04
 ErrMax= 2.94D-04  0.00D+00 EMaxC= 1.00D-01 BMatC= 7.31D-05 BMatP= 8.74D-05
 IDIUse=3 WtCom= 9.97D-01 WtEn= 2.75D-03
 Coeff-Com:  0.919D-03-0.923D-03 0.794D-02-0.132D-03 0.475D-02-0.875D-01
 Coeff-Com: -0.389D-01 0.135D+00 0.979D+00
 Coeff-En:   0.000D+00 0.000D+00 0.000D+00 0.000D+00 0.000D+00 0.000D+00
 Coeff-En:   0.000D+00 0.000D+00 0.100D+01
 Coeff:      0.917D-03-0.921D-03 0.792D-02-0.132D-03 0.473D-02-0.873D-01
 Coeff:     -0.388D-01 0.135D+00 0.979D+00
 Gap=     0.084 Goal=   None    Shift=    0.000
 Gap=     0.136 Goal=   None    Shift=    0.000
 RMSDP=2.21D-05 MaxDP=2.72D-03 DE=-1.81D-04 OVMax= 2.86D-02

 Cycle  10  Pass 1  IDiag  1:
 RMSU=  4.77D-06    CP:  9.75D-01  2.64D+00  8.43D-01  8.86D-01  1.32D+00
                    CP:  1.66D+00  3.00D+00  3.00D+00  2.28D+00
 E= -1981.30979948358     Delta-E=       -0.000177580822 Rises=F Damp=F
 DIIS: error= 2.98D-04 at cycle  10 NSaved=  10.
 NSaved=10 IEnMin=10 EnMin= -1981.30979948358     IErMin= 8 ErrMin= 2.75D-04
 ErrMax= 2.98D-04  0.00D+00 EMaxC= 1.00D-01 BMatC= 8.21D-05 BMatP= 7.31D-05
 IDIUse=3 WtCom= 9.97D-01 WtEn= 2.75D-03
 Coeff-Com:  0.104D-02-0.111D-02 0.799D-02 0.477D-04 0.852D-02-0.739D-01
 Coeff-Com: -0.375D-01 0.621D-01 0.900D+00 0.133D+00
 Coeff-En:   0.000D+00 0.000D+00 0.000D+00 0.000D+00 0.000D+00 0.000D+00
 Coeff-En:   0.000D+00 0.000D+00 0.000D+00 0.100D+01
 Coeff:      0.104D-02-0.111D-02 0.797D-02 0.476D-04 0.849D-02-0.737D-01
 Coeff:     -0.374D-01 0.619D-01 0.897D+00 0.135D+00
 Gap=     0.084 Goal=   None    Shift=    0.000
 Gap=     0.136 Goal=   None    Shift=    0.000
 RMSDP=3.40D-06 MaxDP=4.11D-04 DE=-1.78D-04 OVMax= 4.37D-03

 Cycle  11  Pass 1  IDiag  1:
 RMSU=  1.96D-06    CP:  9.75D-01  2.64D+00  8.43D-01  8.86D-01  1.32D+00
                    CP:  1.67D+00  3.00D+00  3.00D+00  2.52D+00  1.44D+00
 E= -1981.30982699506     Delta-E=       -0.000027511480 Rises=F Damp=F
 DIIS: error= 2.99D-04 at cycle  11 NSaved=  11.
 NSaved=11 IEnMin=11 EnMin= -1981.30982699506     IErMin= 8 ErrMin= 2.75D-04
 ErrMax= 2.99D-04  0.00D+00 EMaxC= 1.00D-01 BMatC= 8.17D-05 BMatP= 7.31D-05
 IDIUse=3 WtCom= 9.97D-01 WtEn= 2.75D-03
 Coeff-Com:  0.867D-03-0.846D-03 0.893D-02 0.225D-02 0.825D-02-0.896D-01
 Coeff-Com: -0.714D-01 0.740D-01 0.108D+01 0.188D+01-0.189D+01
 Coeff-En:   0.000D+00 0.000D+00 0.000D+00 0.000D+00 0.000D+00 0.000D+00
 Coeff-En:   0.000D+00 0.000D+00 0.000D+00 0.000D+00 0.100D+01
 Coeff:      0.865D-03-0.844D-03 0.890D-02 0.224D-02 0.823D-02-0.894D-01
 Coeff:     -0.713D-01 0.738D-01 0.108D+01 0.187D+01-0.189D+01
 Gap=     0.084 Goal=   None    Shift=    0.000
 Gap=     0.136 Goal=   None    Shift=    0.000
 RMSDP=8.01D-06 MaxDP=9.50D-04 DE=-2.75D-05 OVMax= 1.04D-02

 Cycle  12  Pass 1  IDiag  1:
 RMSU=  8.24D-07    CP:  9.75D-01  2.64D+00  8.44D-01  8.85D-01  1.32D+00
                    CP:  1.65D+00  3.00D+00  2.81D+00  1.92D+00  4.56D-01
                    CP: -4.48D-01
 E= -1981.30976224077     Delta-E=        0.000064754288 Rises=F Damp=F
 DIIS: error= 2.99D-04 at cycle  12 NSaved=  12.
 NSaved=12 IEnMin=11 EnMin= -1981.30982699506     IErMin= 8 ErrMin= 2.75D-04
 ErrMax= 2.99D-04  0.00D+00 EMaxC= 1.00D-01 BMatC= 8.07D-05 BMatP= 7.31D-05
 IDIUse=3 WtCom= 9.97D-01 WtEn= 2.75D-03
 Large coefficients: NSaved= 12 BigCof=   14.18 CofMax=   10.00 Det=-1.43D-08
 Inversion failed.  Reducing to 11 matrices.
 Large coefficients: NSaved= 11 BigCof=   14.69 CofMax=   10.00 Det=-1.48D-08
 Inversion failed.  Reducing to 10 matrices.
 Large coefficients: NSaved= 10 BigCof=   15.24 CofMax=   10.00 Det=-6.27D-09
 Inversion failed.  Reducing to  9 matrices.
 Rare condition: small coef for last iteration:  0.000D+00
 Coeff-Com: -0.184D-01-0.148D-01-0.614D-01 0.959D-01 0.165D+00 0.754D+00
 Coeff-Com:  0.227D+01-0.578D+01 0.359D+01
 Coeff-En:   0.000D+00 0.000D+00 0.000D+00 0.000D+00 0.000D+00 0.000D+00
 Coeff-En:   0.000D+00 0.000D+00 0.100D+01
 Coeff:     -0.184D-01-0.148D-01-0.614D-01 0.959D-01 0.165D+00 0.754D+00
 Coeff:      0.227D+01-0.578D+01 0.359D+01
 Gap=     0.084 Goal=   None    Shift=    0.000
 Gap=     0.135 Goal=   None    Shift=    0.000
 RMSDP=3.40D-05 MaxDP=4.00D-03 DE= 6.48D-05 OVMax= 4.42D-02

 Cycle  13  Pass 1  IDiag  1:
 RMSU=  4.69D-06    CP:  9.75D-01  2.63D+00  8.51D-01  8.76D-01  1.32D+00
                    CP:  1.60D+00  2.15D+00  1.05D+00 -6.07D-01 -8.59D-01
                    CP:  1.07D+00 -6.41D-01
 E= -1981.30949152615     Delta-E=        0.000270714622 Rises=F Damp=F
 DIIS: error= 2.74D-04 at cycle  13 NSaved=  10.
 NSaved=10 IEnMin= 8 EnMin= -1981.30982699506     IErMin=10 ErrMin= 2.74D-04
 ErrMax= 2.74D-04  0.00D+00 EMaxC= 1.00D-01 BMatC= 6.97D-05 BMatP= 7.31D-05
 IDIUse=3 WtCom= 9.97D-01 WtEn= 2.74D-03
 Large coefficients: NSaved= 10 BigCof=   10.06 CofMax=   10.00 Det=-7.54D-09
 Inversion failed.  Reducing to  9 matrices.
 Large coefficients: NSaved=  9 BigCof=   20.67 CofMax=   10.00 Det=-8.96D-09
 Inversion failed.  Reducing to  8 matrices.
 Large coefficients: NSaved=  8 BigCof=   22.86 CofMax=   10.00 Det=-9.02D-09
 Inversion failed.  Reducing to  7 matrices.
 Large coefficients: NSaved=  7 BigCof=   20.31 CofMax=   10.00 Det=-9.16D-09
 Inversion failed.  Reducing to  6 matrices.
 Large coefficients: NSaved=  6 BigCof=   21.22 CofMax=   10.00 Det=-1.03D-08
 Inversion failed.  Reducing to  5 matrices.
 Large coefficients: NSaved=  5 BigCof=   18.65 CofMax=   10.00 Det=-1.20D-08
 Inversion failed.  Reducing to  4 matrices.
 Large coefficients: NSaved=  4 BigCof=   14.40 CofMax=   10.00 Det=-1.37D-08
 Inversion failed.  Reducing to  3 matrices.
 Large coefficients: NSaved=  3 BigCof=   13.07 CofMax=   10.00 Det=-6.14D-08
 Inversion failed.  Reducing to  2 matrices.
 Coeff-Com: -0.109D+01 0.209D+01
 Coeff-En:   0.000D+00 0.100D+01
 Coeff:     -0.109D+01 0.209D+01
 Gap=     0.084 Goal=   None    Shift=    0.000
 Gap=     0.135 Goal=   None    Shift=    0.000
 RMSDP=1.89D-05 MaxDP=3.62D-03 DE= 2.71D-04 OVMax= 2.52D-02

 Cycle  14  Pass 1  IDiag  1:
 RMSU=  1.96D-06    CP:  9.75D-01  2.63D+00  8.57D-01  8.63D-01  1.34D+00
                    CP:  1.55D+00  1.75D+00  7.83D-02 -1.96D+00 -1.71D+00
                    CP:  2.20D+00 -1.38D+00  1.87D+00
 E= -1981.30934476407     Delta-E=        0.000146762076 Rises=F Damp=F
 DIIS: error= 1.99D-04 at cycle  14 NSaved=   3.
 NSaved= 3 IEnMin= 1 EnMin= -1981.30976224077     IErMin= 3 ErrMin= 1.99D-04
 ErrMax= 1.99D-04  0.00D+00 EMaxC= 1.00D-01 BMatC= 5.83D-05 BMatP= 6.97D-05
 IDIUse=3 WtCom= 9.98D-01 WtEn= 1.99D-03
 Rare condition: small coef for last iteration:  0.000D+00
 Coeff-Com: -0.147D+01 0.185D+01 0.623D+00
 Coeff-En:   0.000D+00 0.000D+00 0.100D+01
 Coeff:     -0.147D+01 0.185D+01 0.623D+00
 Gap=     0.084 Goal=   None    Shift=    0.000
 Gap=     0.135 Goal=   None    Shift=    0.000
 RMSDP=2.47D-05 MaxDP=2.98D-03 DE= 1.47D-04 OVMax= 2.97D-02

 Cycle  15  Pass 1  IDiag  1:
 RMSU=  6.42D-06    CP:  9.75D-01  2.63D+00  8.59D-01  8.62D-01  1.32D+00
                    CP:  1.54D+00  1.10D+00 -1.12D+00 -3.00D+00 -2.65D+00
                    CP:  3.00D+00 -2.37D+00  2.98D+00  1.14D+00
 E= -1981.30915769892     Delta-E=        0.000187065154 Rises=F Damp=F
 DIIS: error= 2.97D-04 at cycle  15 NSaved=   4.
 NSaved= 4 IEnMin= 1 EnMin= -1981.30976224077     IErMin= 3 ErrMin= 1.99D-04
 ErrMax= 2.97D-04  0.00D+00 EMaxC= 1.00D-01 BMatC= 7.85D-05 BMatP= 5.83D-05
 IDIUse=3 WtCom= 9.98D-01 WtEn= 1.99D-03
 Rare condition: small coef for last iteration:  0.000D+00
 Coeff-Com: -0.291D+01 0.162D+01 0.679D+00 0.162D+01
 Coeff-En:   0.000D+00 0.000D+00 0.000D+00 0.100D+01
 Coeff:     -0.291D+01 0.162D+01 0.679D+00 0.162D+01
 Gap=     0.088 Goal=   None    Shift=    0.000
 Gap=     0.134 Goal=   None    Shift=    0.000
 RMSDP=1.13D-04 MaxDP=1.38D-02 DE= 1.87D-04 OVMax= 1.42D-01

 Cycle  16  Pass 1  IDiag  1:
 RMSU=  7.20D-05    CP:  9.75D-01  2.62D+00  8.75D-01  8.17D-01  1.28D+00
                    CP:  1.26D+00 -1.52D+00 -3.00D+00 -3.00D+00 -3.00D+00
                    CP: -3.00D+00 -3.00D+00  3.00D+00  3.00D+00  3.00D+00
 E= -1981.30823934832     Delta-E=        0.000918350601 Rises=F Damp=F
 DIIS: error= 5.09D-04 at cycle  16 NSaved=   5.
 NSaved= 5 IEnMin= 1 EnMin= -1981.30976224077     IErMin= 3 ErrMin= 1.99D-04
 ErrMax= 5.09D-04  0.00D+00 EMaxC= 1.00D-01 BMatC= 2.49D-04 BMatP= 5.83D-05
 IDIUse=3 WtCom= 9.98D-01 WtEn= 1.99D-03
 Rare condition: small coef for last iteration:  0.000D+00
 Coeff-Com: -0.992D+00 0.915D+00 0.419D+00 0.121D+01-0.548D+00
 Coeff-En:   0.000D+00 0.000D+00 0.000D+00 0.000D+00 0.100D+01
 Coeff:     -0.992D+00 0.915D+00 0.419D+00 0.121D+01-0.548D+00
 Gap=     0.078 Goal=   None    Shift=    0.000
 Gap=     0.139 Goal=   None    Shift=    0.000
 RMSDP=1.65D-04 MaxDP=2.03D-02 DE= 9.18D-04 OVMax= 2.10D-01

 Cycle  17  Pass 1  IDiag  1:
 RMSU=  3.10D-06    CP:  9.75D-01  2.64D+00  8.50D-01  8.84D-01  1.35D+00
                    CP:  1.65D+00  2.50D+00  1.49D+00 -1.66D-01 -6.25D-01
                    CP:  7.16D-01  2.88D-01  9.30D-01 -6.54D-01 -6.62D-02
                    CP:  4.98D-03
 E= -1981.30956301952     Delta-E=       -0.001323671200 Rises=F Damp=F
 DIIS: error= 3.41D-04 at cycle  17 NSaved=   6.
 NSaved= 6 IEnMin= 1 EnMin= -1981.30976224077     IErMin= 3 ErrMin= 1.99D-04
 ErrMax= 3.41D-04  0.00D+00 EMaxC= 1.00D-01 BMatC= 1.30D-04 BMatP= 5.83D-05
 IDIUse=3 WtCom= 9.98D-01 WtEn= 1.99D-03
 Coeff-Com: -0.138D+01 0.301D+00 0.208D+00 0.199D+01-0.113D+01 0.100D+01
 Coeff-En:   0.000D+00 0.000D+00 0.000D+00 0.000D+00 0.000D+00 0.100D+01
 Coeff:     -0.137D+01 0.300D+00 0.207D+00 0.199D+01-0.113D+01 0.100D+01
 Gap=     0.088 Goal=   None    Shift=    0.000
 Gap=     0.136 Goal=   None    Shift=    0.000
 RMSDP=5.47D-05 MaxDP=6.11D-03 DE=-1.32D-03 OVMax= 6.77D-02

 Cycle  18  Pass 1  IDiag  1:
 RMSU=  1.27D-05    CP:  9.75D-01  2.64D+00  8.41D-01  8.97D-01  1.37D+00
                    CP:  1.78D+00  3.00D+00  3.00D+00  3.00D+00  3.00D+00
                    CP:  3.00D+00 -2.33D+00  2.67D-01 -2.85D+00 -5.28D-01
                    CP: -5.30D-02  2.36D+00
 E= -1981.30999005483     Delta-E=       -0.000427035310 Rises=F Damp=F
 DIIS: error= 3.37D-04 at cycle  18 NSaved=   7.
 NSaved= 7 IEnMin= 7 EnMin= -1981.30999005483     IErMin= 3 ErrMin= 1.99D-04
 ErrMax= 3.37D-04  0.00D+00 EMaxC= 1.00D-01 BMatC= 1.23D-04 BMatP= 5.83D-05
 IDIUse=3 WtCom= 9.98D-01 WtEn= 1.99D-03
 Coeff-Com: -0.175D+01 0.261D+00 0.502D-01 0.219D+01-0.152D+01 0.369D+00
 Coeff-Com:  0.140D+01
 Coeff-En:   0.000D+00 0.000D+00 0.000D+00 0.000D+00 0.000D+00 0.000D+00
 Coeff-En:   0.100D+01
 Coeff:     -0.175D+01 0.260D+00 0.501D-01 0.219D+01-0.152D+01 0.369D+00
 Coeff:      0.140D+01
 Gap=     0.094 Goal=   None    Shift=    0.000
 Gap=     0.135 Goal=   None    Shift=    0.000
 RMSDP=1.17D-04 MaxDP=1.32D-02 DE=-4.27D-04 OVMax= 1.38D-01

 Cycle  19  Pass 1  IDiag  1:
 RMSU=  7.02D-05    CP:  9.76D-01  2.66D+00  8.25D-01  8.89D-01  1.39D+00
                    CP:  1.97D+00  3.00D+00  3.00D+00  3.00D+00  3.00D+00
                    CP:  3.00D+00  1.53D+00  4.59D-02 -3.00D+00 -3.00D+00
                    CP: -8.80D-01  3.00D+00  3.00D+00
 E= -1981.31082227707     Delta-E=       -0.000832222240 Rises=F Damp=F
 DIIS: error= 1.48D-04 at cycle  19 NSaved=   8.
 NSaved= 8 IEnMin= 8 EnMin= -1981.31082227707     IErMin= 8 ErrMin= 1.48D-04
 ErrMax= 1.48D-04  0.00D+00 EMaxC= 1.00D-01 BMatC= 6.10D-05 BMatP= 5.83D-05
 IDIUse=3 WtCom= 9.99D-01 WtEn= 1.48D-03
 Coeff-Com: -0.730D+00 0.135D+00-0.955D-02 0.137D+01-0.121D+01 0.104D+01
 Coeff-Com:  0.516D-01 0.353D+00
 Coeff-En:   0.000D+00 0.000D+00 0.000D+00 0.000D+00 0.000D+00 0.000D+00
 Coeff-En:   0.000D+00 0.100D+01
 Coeff:     -0.729D+00 0.135D+00-0.953D-02 0.137D+01-0.120D+01 0.104D+01
 Coeff:      0.515D-01 0.354D+00
 Gap=     0.096 Goal=   None    Shift=    0.000
 Gap=     0.135 Goal=   None    Shift=    0.000
 RMSDP=9.36D-06 MaxDP=2.64D-03 DE=-8.32D-04 OVMax= 1.07D-02

 Cycle  20  Pass 1  IDiag  1:
 RMSU=  5.38D-06    CP:  9.76D-01  2.66D+00  8.22D-01  8.86D-01  1.36D+00
                    CP:  1.92D+00  3.00D+00  3.00D+00  3.00D+00  3.00D+00
                    CP:  3.00D+00  3.00D+00 -1.50D-01 -3.00D+00 -3.00D+00
                    CP: -9.38D-01  2.89D+00  3.00D+00  1.06D+00
 E= -1981.31089827796     Delta-E=       -0.000076000886 Rises=F Damp=F
 DIIS: error= 1.56D-04 at cycle  20 NSaved=   9.
 NSaved= 9 IEnMin= 9 EnMin= -1981.31089827796     IErMin= 8 ErrMin= 1.48D-04
 ErrMax= 1.56D-04  0.00D+00 EMaxC= 1.00D-01 BMatC= 5.23D-05 BMatP= 5.83D-05
 IDIUse=3 WtCom= 9.99D-01 WtEn= 1.48D-03
 Coeff-Com:  0.155D+01-0.289D+00-0.194D+00-0.522D+00-0.567D+00 0.218D+01
 Coeff-Com: -0.272D+01-0.109D+01 0.265D+01
 Coeff-En:   0.000D+00 0.000D+00 0.000D+00 0.000D+00 0.000D+00 0.000D+00
 Coeff-En:   0.000D+00 0.000D+00 0.100D+01
 Coeff:      0.155D+01-0.288D+00-0.194D+00-0.521D+00-0.566D+00 0.217D+01
 Coeff:     -0.271D+01-0.109D+01 0.265D+01
 Gap=     0.100 Goal=   None    Shift=    0.000
 Gap=     0.133 Goal=   None    Shift=    0.000
 RMSDP=1.22D-04 MaxDP=1.88D-02 DE=-7.60D-05 OVMax= 1.39D-01

 Cycle  21  Pass 1  IDiag  1:
 Restarting incremental Fock formation.
 E= -1981.31143207281     Delta-E=       -0.000533794855 Rises=F Damp=F
 DIIS: error= 2.90D-04 at cycle  21 NSaved=  10.
 NSaved=10 IEnMin=10 EnMin= -1981.31143207281     IErMin= 8 ErrMin= 1.48D-04
 ErrMax= 2.90D-04  0.00D+00 EMaxC= 1.00D-01 BMatC= 1.73D-04 BMatP= 5.23D-05
 IDIUse=3 WtCom= 9.99D-01 WtEn= 1.48D-03
 Coeff-Com: -0.942D+00-0.901D-01-0.113D+00 0.931D+00-0.170D+00 0.163D+01
 Coeff-Com: -0.563D+00-0.253D+01 0.199D+01 0.846D+00
 Coeff-En:   0.000D+00 0.000D+00 0.000D+00 0.000D+00 0.000D+00 0.000D+00
 Coeff-En:   0.000D+00 0.000D+00 0.000D+00 0.100D+01
 Coeff:     -0.941D+00-0.899D-01-0.113D+00 0.929D+00-0.170D+00 0.163D+01
 Coeff:     -0.562D+00-0.252D+01 0.199D+01 0.846D+00
 Gap=     0.071 Goal=   None    Shift=    0.000
 Gap=     0.136 Goal=   None    Shift=    0.000
 RMSDP=1.87D-04 MaxDP=2.26D-02 DE=-5.34D-04 OVMax= 2.03D-01

 Cycle  22  Pass 1  IDiag  1:
 RMSU=  1.86D-04    CP:  9.95D-01
 E= -1981.31042147415     Delta-E=        0.001010598659 Rises=F Damp=F
 DIIS: error= 4.34D-04 at cycle  22 NSaved=  11.
 NSaved=11 IEnMin=10 EnMin= -1981.31143207281     IErMin= 8 ErrMin= 1.48D-04
 ErrMax= 4.34D-04  0.00D+00 EMaxC= 1.00D-01 BMatC= 3.03D-04 BMatP= 5.23D-05
 IDIUse=3 WtCom= 9.99D-01 WtEn= 1.48D-03
 Rare condition: small coef for last iteration:  0.000D+00
 Coeff-Com: -0.214D+01 0.840D-01 0.929D-02 0.144D+01 0.509D-01-0.361D+00
 Coeff-Com:  0.147D+01-0.161D+01 0.173D+00 0.125D+01 0.632D+00
 Coeff-En:   0.000D+00 0.000D+00 0.000D+00 0.000D+00 0.000D+00 0.000D+00
 Coeff-En:   0.000D+00 0.000D+00 0.000D+00 0.000D+00 0.100D+01
 Coeff:     -0.214D+01 0.840D-01 0.929D-02 0.144D+01 0.509D-01-0.361D+00
 Coeff:      0.147D+01-0.161D+01 0.173D+00 0.125D+01 0.632D+00
 Gap=     0.075 Goal=   None    Shift=    0.000
 Gap=     0.135 Goal=   None    Shift=    0.000
 RMSDP=4.17D-05 MaxDP=6.21D-03 DE= 1.01D-03 OVMax= 5.59D-02

 Cycle  23  Pass 1  IDiag  1:
 RMSU=  1.98D-05    CP:  9.96D-01  8.03D-01
 E= -1981.31068497845     Delta-E=       -0.000263504302 Rises=F Damp=F
 DIIS: error= 5.24D-04 at cycle  23 NSaved=  12.
 NSaved=12 IEnMin=10 EnMin= -1981.31143207281     IErMin= 8 ErrMin= 1.48D-04
 ErrMax= 5.24D-04  0.00D+00 EMaxC= 1.00D-01 BMatC= 4.33D-04 BMatP= 5.23D-05
 IDIUse=3 WtCom= 9.99D-01 WtEn= 1.48D-03
 Coeff-Com: -0.171D+01 0.159D+00 0.916D-01 0.100D+01 0.235D+00-0.979D+00
 Coeff-Com:  0.138D+01-0.617D+00-0.671D+00 0.129D+01 0.166D+00 0.653D+00
 Coeff-En:   0.000D+00 0.000D+00 0.000D+00 0.000D+00 0.000D+00 0.000D+00
 Coeff-En:   0.000D+00 0.000D+00 0.000D+00 0.000D+00 0.000D+00 0.100D+01
 Coeff:     -0.171D+01 0.159D+00 0.915D-01 0.100D+01 0.235D+00-0.978D+00
 Coeff:      0.137D+01-0.616D+00-0.670D+00 0.129D+01 0.166D+00 0.653D+00
 Gap=     0.078 Goal=   None    Shift=    0.000
 Gap=     0.134 Goal=   None    Shift=    0.000
 RMSDP=7.90D-05 MaxDP=9.86D-03 DE=-2.64D-04 OVMax= 1.03D-01

 Cycle  24  Pass 1  IDiag  1:
 RMSU=  6.50D-06    CP:  9.97D-01  3.95D-01  2.07D+00
 E= -1981.31122376904     Delta-E=       -0.000538790588 Rises=F Damp=F
 DIIS: error= 5.12D-04 at cycle  24 NSaved=  13.
 NSaved=13 IEnMin=10 EnMin= -1981.31143207281     IErMin= 8 ErrMin= 1.48D-04
 ErrMax= 5.12D-04  0.00D+00 EMaxC= 1.00D-01 BMatC= 4.05D-04 BMatP= 5.23D-05
 IDIUse=3 WtCom= 9.99D-01 WtEn= 1.48D-03
 Coeff-Com: -0.121D+01 0.207D+00 0.992D-01 0.737D+00 0.599D-01-0.673D+00
 Coeff-Com:  0.899D+00-0.465D+00-0.485D+00 0.109D+01 0.500D-01 0.114D+00
 Coeff-Com:  0.573D+00
 Coeff-En:   0.000D+00 0.000D+00 0.000D+00 0.000D+00 0.000D+00 0.000D+00
 Coeff-En:   0.000D+00 0.000D+00 0.000D+00 0.000D+00 0.000D+00 0.000D+00
 Coeff-En:   0.100D+01
 Coeff:     -0.121D+01 0.207D+00 0.991D-01 0.735D+00 0.599D-01-0.672D+00
 Coeff:      0.897D+00-0.464D+00-0.484D+00 0.109D+01 0.499D-01 0.113D+00
 Coeff:      0.574D+00
 Gap=     0.087 Goal=   None    Shift=    0.000
 Gap=     0.134 Goal=   None    Shift=    0.000
 RMSDP=5.90D-05 MaxDP=7.87D-03 DE=-5.39D-04 OVMax= 6.68D-02

 Cycle  25  Pass 1  IDiag  1:
 RMSU=  6.34D-06    CP:  9.99D-01  8.42D-02  2.30D+00  1.99D+00
 E= -1981.31154084378     Delta-E=       -0.000317074736 Rises=F Damp=F
 DIIS: error= 2.68D-04 at cycle  25 NSaved=  14.
 NSaved=14 IEnMin=14 EnMin= -1981.31154084378     IErMin= 8 ErrMin= 1.48D-04
 ErrMax= 2.68D-04  0.00D+00 EMaxC= 1.00D-01 BMatC= 1.10D-04 BMatP= 5.23D-05
 IDIUse=3 WtCom= 9.99D-01 WtEn= 1.48D-03
 Coeff-Com: -0.914D+00 0.115D+00 0.441D-01 0.665D+00-0.115D+00-0.202D+00
 Coeff-Com:  0.662D+00-0.350D+00-0.238D+00 0.445D+00 0.258D+00-0.115D+00
 Coeff-Com: -0.503D+00 0.125D+01
 Coeff-En:   0.000D+00 0.000D+00 0.000D+00 0.000D+00 0.000D+00 0.000D+00
 Coeff-En:   0.000D+00 0.000D+00 0.000D+00 0.000D+00 0.000D+00 0.000D+00
 Coeff-En:   0.000D+00 0.100D+01
 Coeff:     -0.913D+00 0.115D+00 0.440D-01 0.664D+00-0.115D+00-0.202D+00
 Coeff:      0.661D+00-0.349D+00-0.237D+00 0.444D+00 0.257D+00-0.115D+00
 Coeff:     -0.502D+00 0.125D+01
 Gap=     0.089 Goal=   None    Shift=    0.000
 Gap=     0.134 Goal=   None    Shift=    0.000
 RMSDP=4.35D-06 MaxDP=1.23D-03 DE=-3.17D-04 OVMax= 4.35D-03

 Cycle  26  Pass 1  IDiag  1:
 RMSU=  1.62D-06    CP:  9.99D-01  8.94D-02  2.11D+00  1.82D+00  8.73D-01
 E= -1981.31154790783     Delta-E=       -0.000007064055 Rises=F Damp=F
 DIIS: error= 2.28D-04 at cycle  26 NSaved=  15.
 NSaved=15 IEnMin=15 EnMin= -1981.31154790783     IErMin= 8 ErrMin= 1.48D-04
 ErrMax= 2.28D-04  0.00D+00 EMaxC= 1.00D-01 BMatC= 7.95D-05 BMatP= 5.23D-05
 IDIUse=3 WtCom= 9.99D-01 WtEn= 1.48D-03
 Coeff-Com: -0.143D+00 0.132D-01 0.281D-02 0.886D-01 0.112D-03-0.206D-01
 Coeff-Com:  0.741D-01-0.322D+00 0.760D-01 0.213D+00 0.167D+00 0.281D-01
 Coeff-Com: -0.842D+00 0.799D+00 0.865D+00
 Coeff-En:   0.000D+00 0.000D+00 0.000D+00 0.000D+00 0.000D+00 0.000D+00
 Coeff-En:   0.000D+00 0.000D+00 0.000D+00 0.000D+00 0.000D+00 0.000D+00
 Coeff-En:   0.000D+00 0.000D+00 0.100D+01
 Coeff:     -0.143D+00 0.131D-01 0.281D-02 0.885D-01 0.112D-03-0.206D-01
 Coeff:      0.740D-01-0.321D+00 0.759D-01 0.213D+00 0.167D+00 0.281D-01
 Coeff:     -0.841D+00 0.798D+00 0.865D+00
 Gap=     0.094 Goal=   None    Shift=    0.000
 Gap=     0.133 Goal=   None    Shift=    0.000
 RMSDP=4.04D-05 MaxDP=6.22D-03 DE=-7.06D-06 OVMax= 4.34D-02

 Cycle  27  Pass 1  IDiag  1:
 RMSU=  9.35D-07    CP:  1.00D+00 -1.18D-01  2.31D+00  2.66D+00  2.26D+00
                    CP:  6.04D-01
 E= -1981.31161688627     Delta-E=       -0.000068978435 Rises=F Damp=F
 DIIS: error= 2.22D-05 at cycle  27 NSaved=  16.
 NSaved=16 IEnMin=16 EnMin= -1981.31161688627     IErMin=16 ErrMin= 2.22D-05
 ErrMax= 2.22D-05  0.00D+00 EMaxC= 1.00D-01 BMatC= 7.47D-07 BMatP= 5.23D-05
 IDIUse=1 WtCom= 1.00D+00 WtEn= 0.00D+00
 Coeff-Com: -0.142D+00 0.129D-01-0.704D-03 0.987D-01-0.988D-02-0.325D-01
 Coeff-Com:  0.115D+00-0.110D+00 0.290D-01-0.499D-02 0.926D-01 0.990D-01
 Coeff-Com: -0.576D+00 0.210D+00 0.557D+00 0.661D+00
 Coeff:     -0.142D+00 0.129D-01-0.704D-03 0.987D-01-0.988D-02-0.325D-01
 Coeff:      0.115D+00-0.110D+00 0.290D-01-0.499D-02 0.926D-01 0.990D-01
 Coeff:     -0.576D+00 0.210D+00 0.557D+00 0.661D+00
 Gap=     0.093 Goal=   None    Shift=    0.000
 Gap=     0.133 Goal=   None    Shift=    0.000
 RMSDP=1.17D-05 MaxDP=2.06D-03 DE=-6.90D-05 OVMax= 1.29D-02

 Cycle  28  Pass 1  IDiag  1:
 RMSU=  4.59D-07    CP:  1.00D+00 -5.96D-02  2.22D+00  2.38D+00  1.80D+00
                    CP:  1.21D+00  9.05D-01
 E= -1981.31161145021     Delta-E=        0.000005436059 Rises=F Damp=F
 DIIS: error= 7.20D-05 at cycle  28 NSaved=  17.
 NSaved=17 IEnMin=16 EnMin= -1981.31161688627     IErMin=16 ErrMin= 2.22D-05
 ErrMax= 7.20D-05  0.00D+00 EMaxC= 1.00D-01 BMatC= 7.91D-06 BMatP= 7.47D-07
 IDIUse=1 WtCom= 1.00D+00 WtEn= 0.00D+00
 Coeff-Com: -0.680D-01 0.206D-01 0.635D-02 0.411D-01 0.117D-01-0.476D-01
 Coeff-Com:  0.423D-01-0.274D-01 0.859D-02 0.218D-01-0.222D-01 0.309D-01
 Coeff-Com:  0.145D+00-0.291D+00-0.407D+00 0.248D+00 0.129D+01
 Coeff:     -0.680D-01 0.206D-01 0.635D-02 0.411D-01 0.117D-01-0.476D-01
 Coeff:      0.423D-01-0.274D-01 0.859D-02 0.218D-01-0.222D-01 0.309D-01
 Coeff:      0.145D+00-0.291D+00-0.407D+00 0.248D+00 0.129D+01
 Gap=     0.094 Goal=   None    Shift=    0.000
 Gap=     0.133 Goal=   None    Shift=    0.000
 RMSDP=7.05D-06 MaxDP=1.17D-03 DE= 5.44D-06 OVMax= 7.42D-03

 Cycle  29  Pass 1  IDiag  1:
 RMSU=  2.81D-07    CP:  1.00D+00 -9.51D-02  2.26D+00  2.53D+00  2.09D+00
                    CP:  1.39D+00  1.41D+00  2.15D+00
 E= -1981.31161655480     Delta-E=       -0.000005104587 Rises=F Damp=F
 DIIS: error= 3.48D-05 at cycle  29 NSaved=  18.
 NSaved=18 IEnMin=16 EnMin= -1981.31161688627     IErMin=16 ErrMin= 2.22D-05
 ErrMax= 3.48D-05  0.00D+00 EMaxC= 1.00D-01 BMatC= 1.87D-06 BMatP= 7.47D-07
 IDIUse=1 WtCom= 1.00D+00 WtEn= 0.00D+00
 Coeff-Com: -0.166D+00 0.335D-01 0.116D-01 0.106D+00 0.431D-02-0.799D-01
 Coeff-Com:  0.120D+00 0.625D-02-0.717D-01 0.611D-01-0.201D-01 0.178D-01
 Coeff-Com:  0.206D+00-0.192D+00-0.473D+00-0.429D-01 0.602D+00 0.877D+00
 Coeff:     -0.166D+00 0.335D-01 0.116D-01 0.106D+00 0.431D-02-0.799D-01
 Coeff:      0.120D+00 0.625D-02-0.717D-01 0.611D-01-0.201D-01 0.178D-01
 Coeff:      0.206D+00-0.192D+00-0.473D+00-0.429D-01 0.602D+00 0.877D+00
 Gap=     0.093 Goal=   None    Shift=    0.000
 Gap=     0.133 Goal=   None    Shift=    0.000
 RMSDP=3.39D-06 MaxDP=5.48D-04 DE=-5.10D-06 OVMax= 3.33D-03

 Cycle  30  Pass 1  IDiag  1:
 RMSU=  1.64D-07    CP:  1.00D+00 -7.79D-02  2.26D+00  2.47D+00  1.98D+00
                    CP:  1.62D+00  1.51D+00  3.00D+00  1.76D+00
 E= -1981.31161451932     Delta-E=        0.000002035475 Rises=F Damp=F
 DIIS: error= 5.70D-05 at cycle  30 NSaved=  19.
 NSaved=19 IEnMin=16 EnMin= -1981.31161688627     IErMin=16 ErrMin= 2.22D-05
 ErrMax= 5.70D-05  0.00D+00 EMaxC= 1.00D-01 BMatC= 5.04D-06 BMatP= 7.47D-07
 IDIUse=1 WtCom= 1.00D+00 WtEn= 0.00D+00
 Coeff-Com: -0.164D+00 0.214D-01 0.509D-02 0.103D+00-0.352D-02-0.551D-01
 Coeff-Com:  0.133D+00-0.537D-01-0.576D-01 0.771D-01 0.525D-01 0.312D-01
 Coeff-Com: -0.222D+00 0.185D+00 0.750D-01 0.961D-02-0.778D+00 0.401D+00
 Coeff-Com:  0.124D+01
 Coeff:     -0.164D+00 0.214D-01 0.509D-02 0.103D+00-0.352D-02-0.551D-01
 Coeff:      0.133D+00-0.537D-01-0.576D-01 0.771D-01 0.525D-01 0.312D-01
 Coeff:     -0.222D+00 0.185D+00 0.750D-01 0.961D-02-0.778D+00 0.401D+00
 Coeff:      0.124D+01
 Gap=     0.093 Goal=   None    Shift=    0.000
 Gap=     0.133 Goal=   None    Shift=    0.000
 RMSDP=1.12D-06 MaxDP=2.29D-04 DE= 2.04D-06 OVMax= 8.89D-04

 Cycle  31  Pass 1  IDiag  1:
 RMSU=  3.35D-07    CP:  1.00D+00 -8.24D-02  2.26D+00  2.49D+00  2.01D+00
                    CP:  1.78D+00  1.70D+00  3.00D+00  3.00D+00  3.00D+00
 E= -1981.31161517536     Delta-E=       -0.000000656035 Rises=F Damp=F
 DIIS: error= 5.29D-05 at cycle  31 NSaved=  20.
 NSaved=20 IEnMin=16 EnMin= -1981.31161688627     IErMin=16 ErrMin= 2.22D-05
 ErrMax= 5.29D-05  0.00D+00 EMaxC= 1.00D-01 BMatC= 4.33D-06 BMatP= 7.47D-07
 IDIUse=1 WtCom= 1.00D+00 WtEn= 0.00D+00
 Coeff-Com: -0.146D+00 0.174D-01 0.291D-02 0.957D-01-0.938D-02-0.452D-01
 Coeff-Com:  0.126D+00-0.607D-01-0.494D-01 0.701D-01 0.644D-01 0.306D-01
 Coeff-Com: -0.298D+00 0.235D+00 0.169D+00 0.954D-01-0.777D+00 0.388D-01
 Coeff-Com:  0.518D+00 0.922D+00
 Coeff:     -0.146D+00 0.174D-01 0.291D-02 0.957D-01-0.938D-02-0.452D-01
 Coeff:      0.126D+00-0.607D-01-0.494D-01 0.701D-01 0.644D-01 0.306D-01
 Coeff:     -0.298D+00 0.235D+00 0.169D+00 0.954D-01-0.777D+00 0.388D-01
 Coeff:      0.518D+00 0.922D+00
 Gap=     0.093 Goal=   None    Shift=    0.000
 Gap=     0.133 Goal=   None    Shift=    0.000
 RMSDP=1.23D-06 MaxDP=2.47D-04 DE=-6.56D-07 OVMax= 9.73D-04

 Cycle  32  Pass 1  IDiag  1:
 RMSU=  3.37D-07    CP:  1.00D+00 -8.83D-02  2.26D+00  2.50D+00  2.06D+00
                    CP:  1.85D+00  1.82D+00  3.00D+00  3.00D+00  3.00D+00
                    CP:  1.73D+00
 E= -1981.31161600007     Delta-E=       -0.000000824710 Rises=F Damp=F
 DIIS: error= 4.42D-05 at cycle  32 NSaved=  20.
 NSaved=20 IEnMin=15 EnMin= -1981.31161688627     IErMin=15 ErrMin= 2.22D-05
 ErrMax= 4.42D-05  0.00D+00 EMaxC= 1.00D-01 BMatC= 3.05D-06 BMatP= 7.47D-07
 IDIUse=1 WtCom= 1.00D+00 WtEn= 0.00D+00
 Coeff-Com: -0.560D-01 0.126D-01 0.304D-02 0.363D-01-0.336D-01 0.475D-01
 Coeff-Com: -0.249D-01-0.242D-01 0.445D-01 0.148D-01 0.131D-01-0.477D-01
 Coeff-Com:  0.146D-01-0.892D-01 0.930D-01 0.173D+00 0.150D-02-0.842D+00
 Coeff-Com:  0.315D+00 0.135D+01
 Coeff:     -0.560D-01 0.126D-01 0.304D-02 0.363D-01-0.336D-01 0.475D-01
 Coeff:     -0.249D-01-0.242D-01 0.445D-01 0.148D-01 0.131D-01-0.477D-01
 Coeff:      0.146D-01-0.892D-01 0.930D-01 0.173D+00 0.150D-02-0.842D+00
 Coeff:      0.315D+00 0.135D+01
 Gap=     0.094 Goal=   None    Shift=    0.000
 Gap=     0.133 Goal=   None    Shift=    0.000
 RMSDP=5.11D-06 MaxDP=8.48D-04 DE=-8.25D-07 OVMax= 5.01D-03

 Cycle  33  Pass 1  IDiag  1:
 RMSU=  1.06D-07    CP:  1.00D+00 -1.15D-01  2.27D+00  2.58D+00  2.26D+00
                    CP:  1.81D+00  2.03D+00  3.00D+00  3.00D+00  3.00D+00
                    CP:  2.39D+00  1.95D+00
 E= -1981.31161788443     Delta-E=       -0.000001884367 Rises=F Damp=F
 DIIS: error= 1.22D-05 at cycle  33 NSaved=  20.
 NSaved=20 IEnMin=20 EnMin= -1981.31161788443     IErMin=20 ErrMin= 1.22D-05
 ErrMax= 1.22D-05  0.00D+00 EMaxC= 1.00D-01 BMatC= 2.25D-07 BMatP= 7.47D-07
 IDIUse=1 WtCom= 1.00D+00 WtEn= 0.00D+00
 Coeff-Com: -0.915D-03 0.446D-02 0.168D-02-0.101D-01-0.612D-03 0.227D-01
 Coeff-Com: -0.864D-02-0.620D-02-0.106D-01 0.433D-02 0.609D-01-0.603D-01
 Coeff-Com: -0.105D+00-0.310D-01 0.319D+00 0.812D-01-0.406D+00-0.366D+00
 Coeff-Com:  0.324D+00 0.119D+01
 Coeff:     -0.915D-03 0.446D-02 0.168D-02-0.101D-01-0.612D-03 0.227D-01
 Coeff:     -0.864D-02-0.620D-02-0.106D-01 0.433D-02 0.609D-01-0.603D-01
 Coeff:     -0.105D+00-0.310D-01 0.319D+00 0.812D-01-0.406D+00-0.366D+00
 Coeff:      0.324D+00 0.119D+01
 Gap=     0.094 Goal=   None    Shift=    0.000
 Gap=     0.133 Goal=   None    Shift=    0.000
 RMSDP=1.42D-06 MaxDP=2.32D-04 DE=-1.88D-06 OVMax= 9.45D-04

 Cycle  34  Pass 1  IDiag  1:
 RMSU=  5.19D-08    CP:  1.00D+00 -1.22D-01  2.25D+00  2.57D+00  2.31D+00
                    CP:  1.85D+00  2.09D+00  3.00D+00  3.00D+00  3.00D+00
                    CP:  2.77D+00  2.48D+00  1.49D+00
 E= -1981.31161799784     Delta-E=       -0.000000113403 Rises=F Damp=F
 DIIS: error= 1.67D-06 at cycle  34 NSaved=  20.
 NSaved=20 IEnMin=20 EnMin= -1981.31161799784     IErMin=20 ErrMin= 1.67D-06
 ErrMax= 1.67D-06  0.00D+00 EMaxC= 1.00D-01 BMatC= 4.27D-09 BMatP= 2.25D-07
 IDIUse=1 WtCom= 1.00D+00 WtEn= 0.00D+00
 Coeff-Com: -0.156D-02 0.149D-03-0.150D-02 0.104D-02 0.110D-01-0.472D-02
 Coeff-Com: -0.676D-02-0.352D-02 0.395D-02 0.109D-01-0.737D-02 0.373D-02
 Coeff-Com: -0.308D-01 0.189D-01 0.301D-01 0.836D-01-0.195D+00-0.175D+00
 Coeff-Com:  0.498D+00 0.765D+00
 Coeff:     -0.156D-02 0.149D-03-0.150D-02 0.104D-02 0.110D-01-0.472D-02
 Coeff:     -0.676D-02-0.352D-02 0.395D-02 0.109D-01-0.737D-02 0.373D-02
 Coeff:     -0.308D-01 0.189D-01 0.301D-01 0.836D-01-0.195D+00-0.175D+00
 Coeff:      0.498D+00 0.765D+00
 Gap=     0.094 Goal=   None    Shift=    0.000
 Gap=     0.133 Goal=   None    Shift=    0.000
 RMSDP=2.28D-07 MaxDP=3.38D-05 DE=-1.13D-07 OVMax= 2.22D-04

 Cycle  35  Pass 1  IDiag  1:
 RMSU=  1.76D-08    CP:  1.00D+00 -1.20D-01  2.25D+00  2.57D+00  2.30D+00
                    CP:  1.86D+00  2.09D+00  3.00D+00  3.00D+00  3.00D+00
                    CP:  2.83D+00  2.58D+00  1.59D+00  1.32D+00
 E= -1981.31161799908     Delta-E=       -0.000000001242 Rises=F Damp=F
 DIIS: error= 2.12D-07 at cycle  35 NSaved=  20.
 NSaved=20 IEnMin=20 EnMin= -1981.31161799908     IErMin=20 ErrMin= 2.12D-07
 ErrMax= 2.12D-07  0.00D+00 EMaxC= 1.00D-01 BMatC= 1.65D-10 BMatP= 4.27D-09
 IDIUse=1 WtCom= 1.00D+00 WtEn= 0.00D+00
 Coeff-Com: -0.714D-03 0.494D-04 0.215D-02 0.160D-02-0.209D-02-0.351D-02
 Coeff-Com: -0.101D-03-0.182D-03-0.633D-02 0.893D-02 0.246D-01-0.374D-02
 Coeff-Com: -0.600D-01-0.277D-02 0.131D+00-0.171D-01-0.158D+00-0.585D-01
 Coeff-Com:  0.288D+00 0.857D+00
 Coeff:     -0.714D-03 0.494D-04 0.215D-02 0.160D-02-0.209D-02-0.351D-02
 Coeff:     -0.101D-03-0.182D-03-0.633D-02 0.893D-02 0.246D-01-0.374D-02
 Coeff:     -0.600D-01-0.277D-02 0.131D+00-0.171D-01-0.158D+00-0.585D-01
 Coeff:      0.288D+00 0.857D+00
 Gap=     0.094 Goal=   None    Shift=    0.000
 Gap=     0.133 Goal=   None    Shift=    0.000
 RMSDP=5.52D-08 MaxDP=1.51D-05 DE=-1.24D-09 OVMax= 3.62D-05

 Cycle  36  Pass 1  IDiag  1:
 RMSU=  1.00D-08    CP:  1.00D+00 -1.20D-01  2.25D+00  2.57D+00  2.30D+00
                    CP:  1.86D+00  2.09D+00  3.00D+00  3.00D+00  3.00D+00
                    CP:  2.85D+00  2.62D+00  1.63D+00  1.56D+00  1.43D+00
 E= -1981.31161799937     Delta-E=       -0.000000000294 Rises=F Damp=F
 DIIS: error= 6.80D-07 at cycle  36 NSaved=  20.
 NSaved=20 IEnMin=20 EnMin= -1981.31161799937     IErMin=19 ErrMin= 2.12D-07
 ErrMax= 6.80D-07  0.00D+00 EMaxC= 1.00D-01 BMatC= 7.92D-10 BMatP= 1.65D-10
 IDIUse=1 WtCom= 1.00D+00 WtEn= 0.00D+00
 Coeff-Com: -0.199D-03 0.127D-02-0.216D-02 0.598D-03-0.351D-04 0.599D-03
 Coeff-Com: -0.763D-03-0.407D-02 0.380D-02 0.806D-02 0.542D-02-0.248D-01
 Coeff-Com: -0.434D-02 0.352D-01 0.183D-01-0.360D-01-0.928D-01-0.423D-01
 Coeff-Com:  0.288D+00 0.846D+00
 Coeff:     -0.199D-03 0.127D-02-0.216D-02 0.598D-03-0.351D-04 0.599D-03
 Coeff:     -0.763D-03-0.407D-02 0.380D-02 0.806D-02 0.542D-02-0.248D-01
 Coeff:     -0.434D-02 0.352D-01 0.183D-01-0.360D-01-0.928D-01-0.423D-01
 Coeff:      0.288D+00 0.846D+00
 Gap=     0.094 Goal=   None    Shift=    0.000
 Gap=     0.133 Goal=   None    Shift=    0.000
 RMSDP=1.04D-07 MaxDP=1.75D-05 DE=-2.94D-10 OVMax= 1.10D-04

 Cycle  37  Pass 1  IDiag  1:
 RMSU=  3.71D-09    CP:  1.00D+00 -1.21D-01  2.25D+00  2.57D+00  2.30D+00
                    CP:  1.86D+00  2.09D+00  3.00D+00  3.00D+00  3.00D+00
                    CP:  2.86D+00  2.64D+00  1.67D+00  1.64D+00  1.68D+00
                    CP:  1.44D+00
 E= -1981.31161799995     Delta-E=       -0.000000000583 Rises=F Damp=F
 DIIS: error= 1.79D-07 at cycle  37 NSaved=  20.
 NSaved=20 IEnMin=20 EnMin= -1981.31161799995     IErMin=20 ErrMin= 1.79D-07
 ErrMax= 1.79D-07  0.00D+00 EMaxC= 1.00D-01 BMatC= 6.39D-11 BMatP= 1.65D-10
 IDIUse=1 WtCom= 1.00D+00 WtEn= 0.00D+00
 Coeff-Com:  0.127D-03-0.189D-02 0.149D-02 0.104D-02 0.423D-03-0.391D-03
 Coeff-Com:  0.638D-03-0.163D-02-0.489D-02 0.328D-02 0.851D-02 0.757D-03
 Coeff-Com: -0.244D-01 0.739D-02 0.305D-01-0.113D-01-0.110D+00-0.166D+00
 Coeff-Com:  0.355D+00 0.910D+00
 Coeff:      0.127D-03-0.189D-02 0.149D-02 0.104D-02 0.423D-03-0.391D-03
 Coeff:      0.638D-03-0.163D-02-0.489D-02 0.328D-02 0.851D-02 0.757D-03
 Coeff:     -0.244D-01 0.739D-02 0.305D-01-0.113D-01-0.110D+00-0.166D+00
 Coeff:      0.355D+00 0.910D+00
 Gap=     0.094 Goal=   None    Shift=    0.000
 Gap=     0.133 Goal=   None    Shift=    0.000
 RMSDP=1.81D-08 MaxDP=2.76D-06 DE=-5.83D-10 OVMax= 1.13D-05

 Cycle  38  Pass 1  IDiag  1:
 RMSU=  2.19D-09    CP:  1.00D+00 -1.21D-01  2.25D+00  2.57D+00  2.30D+00
                    CP:  1.86D+00  2.09D+00  3.00D+00  3.00D+00  3.00D+00
                    CP:  2.87D+00  2.65D+00  1.68D+00  1.69D+00  1.79D+00
                    CP:  1.81D+00  1.65D+00
 E= -1981.31161800038     Delta-E=       -0.000000000426 Rises=F Damp=F
 DIIS: error= 3.72D-08 at cycle  38 NSaved=  20.
 NSaved=20 IEnMin=20 EnMin= -1981.31161800038     IErMin=20 ErrMin= 3.72D-08
 ErrMax= 3.72D-08  0.00D+00 EMaxC= 1.00D-01 BMatC= 3.16D-12 BMatP= 6.39D-11
 IDIUse=1 WtCom= 1.00D+00 WtEn= 0.00D+00
 Coeff-Com: -0.407D-03 0.456D-03 0.324D-03 0.120D-03-0.313D-04 0.593D-03
 Coeff-Com: -0.830D-03-0.243D-02-0.471D-04 0.445D-02 0.176D-02-0.100D-01
 Coeff-Com: -0.121D-02 0.128D-01 0.117D-01-0.214D-01-0.924D-01-0.524D-01
 Coeff-Com:  0.267D+00 0.882D+00
 Coeff:     -0.407D-03 0.456D-03 0.324D-03 0.120D-03-0.313D-04 0.593D-03
 Coeff:     -0.830D-03-0.243D-02-0.471D-04 0.445D-02 0.176D-02-0.100D-01
 Coeff:     -0.121D-02 0.128D-01 0.117D-01-0.214D-01-0.924D-01-0.524D-01
 Coeff:      0.267D+00 0.882D+00
 Gap=     0.094 Goal=   None    Shift=    0.000
 Gap=     0.133 Goal=   None    Shift=    0.000
 RMSDP=1.49D-08 MaxDP=2.53D-06 DE=-4.26D-10 OVMax= 1.67D-05

 Cycle  39  Pass 1  IDiag  1:
 RMSU=  1.02D-09    CP:  1.00D+00 -1.21D-01  2.25D+00  2.57D+00  2.30D+00
                    CP:  1.86D+00  2.09D+00  3.00D+00  3.00D+00  3.00D+00
                    CP:  2.87D+00  2.65D+00  1.68D+00  1.70D+00  1.82D+00
                    CP:  1.93D+00  2.03D+00  1.49D+00
 E= -1981.31161800025     Delta-E=        0.000000000135 Rises=F Damp=F
 DIIS: error= 8.48D-08 at cycle  39 NSaved=  20.
 NSaved=20 IEnMin=19 EnMin= -1981.31161800038     IErMin=19 ErrMin= 3.72D-08
 ErrMax= 8.48D-08  0.00D+00 EMaxC= 1.00D-01 BMatC= 1.08D-11 BMatP= 3.16D-12
 IDIUse=1 WtCom= 1.00D+00 WtEn= 0.00D+00
 Coeff-Com:  0.135D-03-0.170D-03-0.615D-04 0.134D-03-0.449D-03 0.350D-03
 Coeff-Com:  0.836D-03-0.219D-03-0.173D-02 0.107D-03 0.182D-02-0.616D-03
 Coeff-Com: -0.158D-02 0.412D-02 0.182D-01 0.171D-01-0.124D+00-0.175D+00
 Coeff-Com:  0.332D+00 0.929D+00
 Coeff:      0.135D-03-0.170D-03-0.615D-04 0.134D-03-0.449D-03 0.350D-03
 Coeff:      0.836D-03-0.219D-03-0.173D-02 0.107D-03 0.182D-02-0.616D-03
 Coeff:     -0.158D-02 0.412D-02 0.182D-01 0.171D-01-0.124D+00-0.175D+00
 Coeff:      0.332D+00 0.929D+00
 Gap=     0.094 Goal=   None    Shift=    0.000
 Gap=     0.133 Goal=   None    Shift=    0.000
 RMSDP=1.26D-08 MaxDP=2.05D-06 DE= 1.35D-10 OVMax= 1.32D-05

 Cycle  40  Pass 1  IDiag  1:
 RMSU=  6.13D-10    CP:  1.00D+00 -1.21D-01  2.25D+00  2.57D+00  2.30D+00
                    CP:  1.86D+00  2.09D+00  3.00D+00  3.00D+00  3.00D+00
                    CP:  2.87D+00  2.65D+00  1.68D+00  1.71D+00  1.83D+00
                    CP:  2.02D+00  2.30D+00  1.91D+00  1.75D+00
 E= -1981.31161800014     Delta-E=        0.000000000108 Rises=F Damp=F
 DIIS: error= 1.89D-08 at cycle  40 NSaved=  20.
 NSaved=20 IEnMin=18 EnMin= -1981.31161800038     IErMin=20 ErrMin= 1.89D-08
 ErrMax= 1.89D-08  0.00D+00 EMaxC= 1.00D-01 BMatC= 4.98D-13 BMatP= 3.16D-12
 IDIUse=1 WtCom= 1.00D+00 WtEn= 0.00D+00
 Coeff-Com:  0.717D-04-0.136D-03-0.105D-03-0.357D-03 0.364D-03 0.111D-02
 Coeff-Com:  0.815D-04-0.195D-02-0.747D-03 0.315D-02 0.789D-03-0.385D-02
 Coeff-Com: -0.496D-02 0.105D-01 0.406D-01-0.747D-02-0.147D+00-0.269D+00
 Coeff-Com:  0.236D+00 0.114D+01
 Coeff:      0.717D-04-0.136D-03-0.105D-03-0.357D-03 0.364D-03 0.111D-02
 Coeff:      0.815D-04-0.195D-02-0.747D-03 0.315D-02 0.789D-03-0.385D-02
 Coeff:     -0.496D-02 0.105D-01 0.406D-01-0.747D-02-0.147D+00-0.269D+00
 Coeff:      0.236D+00 0.114D+01
 Gap=     0.094 Goal=   None    Shift=    0.000
 Gap=     0.133 Goal=   None    Shift=    0.000
 RMSDP=9.07D-09 MaxDP=1.41D-06 DE= 1.08D-10 OVMax= 9.26D-06

 Cycle  41  Pass 1  IDiag  1:
 Restarting incremental Fock formation.
 E= -1981.31161800023     Delta-E=       -0.000000000095 Rises=F Damp=F
 DIIS: error= 3.20D-08 at cycle  41 NSaved=  20.
 NSaved=20 IEnMin=17 EnMin= -1981.31161800038     IErMin=19 ErrMin= 1.89D-08
 ErrMax= 3.20D-08  0.00D+00 EMaxC= 1.00D-01 BMatC= 1.84D-12 BMatP= 4.98D-13
 IDIUse=1 WtCom= 1.00D+00 WtEn= 0.00D+00
 Coeff-Com: -0.285D-05-0.355D-04-0.106D-03 0.120D-03 0.344D-03-0.163D-04
 Coeff-Com: -0.447D-03-0.387D-03 0.942D-03 0.611D-03-0.874D-03-0.379D-02
 Coeff-Com:  0.265D-03 0.115D-01 0.322D-01-0.124D-01-0.203D+00-0.167D+00
 Coeff-Com:  0.442D+00 0.900D+00
 Coeff:     -0.285D-05-0.355D-04-0.106D-03 0.120D-03 0.344D-03-0.163D-04
 Coeff:     -0.447D-03-0.387D-03 0.942D-03 0.611D-03-0.874D-03-0.379D-02
 Coeff:      0.265D-03 0.115D-01 0.322D-01-0.124D-01-0.203D+00-0.167D+00
 Coeff:      0.442D+00 0.900D+00
 Gap=     0.094 Goal=   None    Shift=    0.000
 Gap=     0.133 Goal=   None    Shift=    0.000
 RMSDP=6.09D-09 MaxDP=1.03D-06 DE=-9.55D-11 OVMax= 6.44D-06

 Cycle  42  Pass 1  IDiag  1:
 RMSU=  6.05D-09    CP:  1.00D+00
 E= -1981.31161800061     Delta-E=       -0.000000000381 Rises=F Damp=F
 DIIS: error= 4.15D-09 at cycle  42 NSaved=  20.
 NSaved=20 IEnMin=20 EnMin= -1981.31161800061     IErMin=20 ErrMin= 4.15D-09
 ErrMax= 4.15D-09  0.00D+00 EMaxC= 1.00D-01 BMatC= 4.96D-14 BMatP= 4.98D-13
 IDIUse=1 WtCom= 1.00D+00 WtEn= 0.00D+00
 Coeff-Com:  0.981D-05-0.274D-04 0.695D-04-0.134D-04-0.484D-04 0.877D-04
 Coeff-Com: -0.123D-03-0.222D-03 0.300D-03 0.544D-03-0.145D-02-0.207D-02
 Coeff-Com: -0.178D-02 0.185D-01 0.239D-01-0.468D-01-0.142D+00-0.554D-01
 Coeff-Com:  0.398D+00 0.809D+00
 Coeff:      0.981D-05-0.274D-04 0.695D-04-0.134D-04-0.484D-04 0.877D-04
 Coeff:     -0.123D-03-0.222D-03 0.300D-03 0.544D-03-0.145D-02-0.207D-02
 Coeff:     -0.178D-02 0.185D-01 0.239D-01-0.468D-01-0.142D+00-0.554D-01
 Coeff:      0.398D+00 0.809D+00
 Gap=     0.094 Goal=   None    Shift=    0.000
 Gap=     0.133 Goal=   None    Shift=    0.000
 RMSDP=7.57D-10 MaxDP=1.35D-07 DE=-3.81D-10 OVMax= 4.78D-07

 Error on total polarization charges =  0.02446
 SCF Done:  E(UM062X) =  -1981.31161800     A.U. after   42 cycles
            NFock= 42  Conv=0.76D-09     -V/T= 2.0054
 <Sx>= 0.0000 <Sy>= 0.0000 <Sz>= 0.5000 <S**2>= 0.7719 S= 0.5109
 <L.S>= 0.000000000000E+00
 KE= 1.970708001957D+03 PE=-1.446209022869D+04 EE= 5.602961768826D+03
 Annihilation of the first spin contaminant:
 S**2 before annihilation     0.7719,   after     0.7503
 Leave Link  502 at Fri Oct 24 19:20:39 2025, MaxMem= 30870077440 cpu:          242302.9 elap:            3822.3
 (Enter /public/software/gauss/g16/l601.exe)
 Copying SCF densities to generalized density rwf, IOpCl= 1 IROHF=0.

 **********************************************************************

            Population analysis using the SCF density.

 **********************************************************************

 Orbital symmetries:
 Alpha Orbitals:
       Occupied  (A) (A) (A) (A) (A) (A) (A) (A) (A) (A) (A) (A)
                 (A) (A) (A) (A) (A) (A) (A) (A) (A) (A) (A) (A)
                 (A) (A) (A) (A) (A) (A) (A) (A) (A) (A) (A) (A)
                 (A) (A) (A) (A) (A) (A) (A) (A) (A) (A) (A) (A)
                 (A) (A) (A) (A) (A) (A) (A) (A) (A) (A) (A) (A)
                 (A) (A) (A) (A) (A) (A) (A) (A) (A) (A) (A) (A)
                 (A) (A) (A) (A) (A) (A) (A) (A) (A) (A) (A) (A)
                 (A) (A) (A) (A) (A) (A) (A) (A) (A) (A) (A) (A)
                 (A) (A) (A) (A) (A) (A) (A) (A) (A) (A) (A) (A)
                 (A) (A) (A) (A) (A) (A) (A) (A) (A) (A) (A) (A)
                 (A) (A) (A) (A) (A) (A) (A) (A) (A) (A) (A) (A)
                 (A) (A) (A) (A) (A) (A) (A) (A) (A) (A) (A) (A)
                 (A) (A) (A) (A) (A) (A) (A) (A) (A) (A)
       Virtual   (A) (A) (A) (A) (A) (A) (A) (A) (A) (A) (A) (A)
                 (A) (A) (A) (A) (A) (A) (A) (A) (A) (A) (A) (A)
                 (A) (A) (A) (A) (A) (A) (A) (A) (A) (A) (A) (A)
                 (A) (A) (A) (A) (A) (A) (A) (A) (A) (A) (A) (A)
                 (A) (A) (A) (A) (A) (A) (A) (A) (A) (A) (A) (A)
                 (A) (A) (A) (A) (A) (A) (A) (A) (A) (A) (A) (A)
                 (A) (A) (A) (A) (A) (A) (A) (A) (A) (A) (A) (A)
                 (A) (A) (A) (A) (A) (A) (A) (A) (A) (A) (A) (A)
                 (A) (A) (A) (A) (A) (A) (A) (A) (A) (A) (A) (A)
                 (A) (A) (A) (A) (A) (A) (A) (A) (A) (A) (A) (A)
                 (A) (A) (A) (A) (A) (A) (A) (A) (A) (A) (A) (A)
                 (A) (A) (A) (A) (A) (A) (A) (A) (A) (A) (A) (A)
                 (A) (A) (A) (A) (A) (A) (A) (A) (A) (A) (A) (A)
                 (A) (A) (A) (A) (A) (A) (A) (A) (A) (A) (A) (A)
                 (A) (A) (A) (A) (A) (A) (A) (A) (A) (A) (A) (A)
                 (A) (A) (A) (A) (A) (A) (A) (A) (A) (A) (A) (A)
                 (A) (A) (A) (A) (A) (A) (A) (A) (A) (A) (A) (A)
                 (A) (A) (A) (A) (A) (A) (A) (A) (A) (A) (A) (A)
                 (A) (A) (A) (A) (A) (A) (A) (A) (A) (A) (A) (A)
                 (A) (A) (A) (A) (A) (A) (A) (A) (A) (A) (A) (A)
                 (A) (A) (A) (A) (A) (A) (A) (A) (A) (A) (A) (A)
                 (A) (A) (A) (A) (A) (A) (A) (A) (A) (A) (A) (A)
                 (A) (A) (A) (A) (A) (A) (A) (A) (A) (A) (A) (A)
                 (A) (A) (A) (A) (A) (A) (A) (A) (A) (A) (A) (A)
                 (A) (A) (A) (A) (A) (A) (A) (A) (A) (A) (A) (A)
                 (A) (A) (A) (A) (A) (A) (A) (A) (A) (A) (A) (A)
                 (A) (A) (A) (A) (A) (A) (A) (A) (A) (A) (A) (A)
                 (A) (A) (A) (A) (A) (A) (A) (A) (A) (A) (A) (A)
                 (A) (A) (A) (A) (A) (A) (A) (A) (A) (A) (A) (A)
                 (A) (A) (A) (A) (A) (A) (A) (A) (A) (A) (A) (A)
                 (A) (A) (A) (A) (A) (A) (A) (A) (A) (A) (A) (A)
                 (A) (A) (A) (A) (A) (A) (A) (A) (A) (A) (A) (A)
                 (A) (A) (A) (A) (A) (A) (A) (A) (A) (A) (A) (A)
                 (A) (A) (A) (A) (A) (A) (A) (A) (A) (A) (A) (A)
                 (A) (A) (A) (A) (A) (A) (A) (A) (A) (A) (A) (A)
                 (A) (A) (A) (A) (A) (A) (A) (A) (A) (A) (A) (A)
                 (A) (A) (A) (A) (A) (A) (A) (A) (A) (A) (A) (A)
                 (A) (A) (A) (A) (A) (A) (A) (A) (A) (A) (A) (A)
                 (A) (A) (A) (A) (A) (A) (A) (A) (A) (A) (A) (A)
                 (A) (A) (A) (A) (A) (A) (A) (A) (A) (A) (A) (A)
                 (A) (A) (A) (A) (A) (A) (A) (A) (A) (A) (A) (A)
                 (A) (A) (A) (A) (A) (A) (A) (A) (A) (A) (A) (A)
                 (A) (A) (A) (A) (A) (A) (A) (A) (A) (A) (A) (A)
                 (A) (A) (A) (A) (A) (A) (A) (A) (A) (A) (A) (A)
                 (A) (A) (A) (A) (A) (A) (A) (A) (A) (A) (A) (A)
                 (A) (A) (A) (A) (A) (A) (A) (A) (A) (A) (A) (A)
                 (A) (A) (A) (A) (A) (A) (A) (A) (A) (A) (A) (A)
                 (A) (A) (A) (A) (A) (A) (A) (A) (A) (A) (A) (A)
                 (A) (A) (A) (A) (A) (A) (A) (A) (A) (A) (A) (A)
                 (A) (A) (A) (A) (A) (A) (A) (A) (A) (A) (A) (A)
                 (A) (A) (A) (A) (A) (A) (A) (A) (A) (A) (A) (A)
                 (A) (A) (A) (A) (A) (A) (A) (A) (A) (A) (A) (A)
                 (A) (A) (A) (A) (A) (A) (A) (A) (A) (A) (A) (A)
                 (A) (A) (A) (A) (A) (A) (A) (A) (A) (A) (A) (A)
                 (A) (A) (A) (A) (A) (A) (A) (A) (A) (A) (A) (A)
                 (A) (A) (A) (A) (A) (A) (A) (A) (A) (A) (A) (A)
                 (A) (A) (A) (A) (A) (A) (A) (A) (A) (A) (A) (A)
                 (A) (A) (A) (A) (A) (A) (A) (A) (A) (A) (A) (A)
                 (A) (A) (A) (A) (A) (A) (A) (A) (A) (A) (A) (A)
                 (A) (A) (A) (A) (A) (A) (A) (A) (A) (A) (A) (A)
                 (A) (A) (A) (A) (A) (A) (A) (A) (A) (A) (A) (A)
                 (A) (A) (A) (A) (A) (A) (A) (A) (A) (A) (A) (A)
                 (A) (A) (A) (A) (A) (A) (A) (A) (A) (A) (A) (A)
                 (A) (A) (A) (A) (A) (A) (A) (A) (A) (A) (A) (A)
                 (A) (A) (A) (A) (A) (A) (A) (A) (A) (A) (A) (A)
                 (A) (A) (A) (A) (A) (A) (A) (A) (A) (A) (A) (A)
                 (A) (A) (A) (A) (A) (A) (A) (A) (A) (A) (A) (A)
                 (A) (A) (A) (A) (A) (A) (A) (A) (A) (A) (A) (A)
                 (A) (A) (A) (A) (A) (A) (A) (A) (A) (A) (A) (A)
                 (A) (A) (A) (A) (A) (A) (A) (A) (A) (A) (A) (A)
                 (A) (A) (A) (A) (A) (A) (A) (A) (A) (A) (A) (A)
                 (A) (A) (A) (A) (A) (A) (A) (A) (A) (A) (A) (A)
                 (A) (A) (A) (A) (A) (A) (A) (A) (A) (A) (A) (A)
                 (A) (A) (A) (A) (A) (A) (A) (A) (A) (A) (A) (A)
                 (A) (A) (A) (A) (A) (A) (A) (A) (A) (A) (A) (A)
                 (A) (A) (A) (A) (A) (A) (A) (A) (A) (A) (A) (A)
[...]
     6 C(13)  Bbb    -0.0135    -1.814    -0.647    -0.605  0.7253  0.6842  0.0760
              Bcc     0.0272     3.651     1.303     1.218  0.0628 -0.1758  0.9824
 
              Baa    -0.0144    -1.936    -0.691    -0.646  0.0083 -0.1415  0.9899
     7 C(13)  Bbb     0.0067     0.893     0.318     0.298  0.1444  0.9797  0.1389
              Bcc     0.0078     1.043     0.372     0.348  0.9895 -0.1418 -0.0285
 
              Baa    -0.0117    -1.569    -0.560    -0.523 -0.2554  0.9511  0.1736
     8 C(13)  Bbb    -0.0111    -1.487    -0.531    -0.496  0.9661  0.2442  0.0835
              Bcc     0.0228     3.056     1.090     1.019 -0.0370 -0.1891  0.9813
 
              Baa    -0.0143     1.033     0.369     0.345  0.4225  0.8851  0.1950
     9 O(17)  Bbb    -0.0117     0.846     0.302     0.282  0.9056 -0.4209 -0.0517
              Bcc     0.0260    -1.879    -0.670    -0.627 -0.0363 -0.1984  0.9794
 
              Baa    -0.0011    -0.144    -0.051    -0.048  0.7017  0.6957  0.1537
    10 C(13)  Bbb    -0.0006    -0.084    -0.030    -0.028  0.7122 -0.6911 -0.1229
              Bcc     0.0017     0.228     0.081     0.076 -0.0207 -0.1958  0.9804
 
              Baa    -0.0025    -0.340    -0.121    -0.113 -0.0170 -0.1925  0.9812
    11 C(13)  Bbb     0.0012     0.162     0.058     0.054  0.6109  0.7748  0.1626
              Bcc     0.0013     0.178     0.063     0.059  0.7915 -0.6022 -0.1044
 
              Baa    -0.0016    -0.210    -0.075    -0.070  0.2926  0.9384  0.1837
    12 C(13)  Bbb    -0.0013    -0.179    -0.064    -0.060  0.9560 -0.2915 -0.0340
              Bcc     0.0029     0.389     0.139     0.130 -0.0216 -0.1855  0.9824
 
              Baa    -0.0013    -0.171    -0.061    -0.057 -0.0055 -0.1932  0.9811
    13 C(13)  Bbb     0.0006     0.077     0.027     0.026  0.0834  0.9777  0.1930
              Bcc     0.0007     0.094     0.033     0.031  0.9965 -0.0829 -0.0107
 
              Baa    -0.0016    -0.216    -0.077    -0.072  0.4973  0.8499  0.1742
    14 C(13)  Bbb    -0.0015    -0.206    -0.074    -0.069  0.8675 -0.4900 -0.0855
              Bcc     0.0032     0.423     0.151     0.141 -0.0127 -0.1937  0.9810
 
              Baa    -0.0005    -0.068    -0.024    -0.023  0.0152 -0.1966  0.9804
    15 C(13)  Bbb     0.0001     0.008     0.003     0.003  0.9798 -0.1928 -0.0538
              Bcc     0.0005     0.061     0.022     0.020  0.1996  0.9613  0.1897
 
              Baa    -0.0014    -0.055    -0.019    -0.018  0.3642  0.9129  0.1844
    16 N(14)  Bbb    -0.0009    -0.036    -0.013    -0.012  0.9312 -0.3596 -0.0586
              Bcc     0.0023     0.090     0.032     0.030 -0.0128 -0.1930  0.9811
 
              Baa    -0.0002    -0.029    -0.010    -0.010  0.3763  0.9180  0.1252
    17 C(13)  Bbb    -0.0002    -0.021    -0.007    -0.007  0.9239 -0.3618 -0.1245
              Bcc     0.0004     0.049     0.018     0.016  0.0690 -0.1625  0.9843
 
              Baa    -0.0076    -1.024    -0.365    -0.342 -0.2498  0.9465  0.2043
    18 C(13)  Bbb    -0.0068    -0.916    -0.327    -0.306  0.9683  0.2423  0.0613
              Bcc     0.0145     1.940     0.692     0.647 -0.0085 -0.2131  0.9770
 
              Baa    -0.0075    -1.012    -0.361    -0.338 -0.0406 -0.2165  0.9754
    19 C(13)  Bbb     0.0033     0.447     0.160     0.149  0.1224  0.9678  0.2199
              Bcc     0.0042     0.565     0.202     0.188  0.9917 -0.1283  0.0128
 
              Baa    -0.0003    -0.041    -0.015    -0.014 -0.0824 -0.1370  0.9871
    20 C(13)  Bbb     0.0000     0.001     0.000     0.000 -0.7058  0.7073  0.0393
              Bcc     0.0003     0.040     0.014     0.013  0.7036  0.6935  0.1550
 
              Baa    -0.0003    -0.040    -0.014    -0.013  0.9357 -0.3528  0.0048
    21 C(13)  Bbb     0.0000     0.003     0.001     0.001 -0.0435 -0.1018  0.9939
              Bcc     0.0003     0.036     0.013     0.012  0.3501  0.9302  0.1106
 
              Baa    -0.0004    -0.058    -0.021    -0.019  0.0223 -0.1381  0.9902
    22 C(13)  Bbb     0.0001     0.020     0.007     0.007  0.9166 -0.3925 -0.0754
              Bcc     0.0003     0.038     0.014     0.013  0.3991  0.9093  0.1179
 
              Baa    -0.0132    -0.510    -0.182    -0.170 -0.3833  0.0707  0.9209
    23 N(14)  Bbb     0.0030     0.117     0.042     0.039 -0.0725  0.9917 -0.1064
              Bcc     0.0102     0.393     0.140     0.131  0.9208  0.1076  0.3750
 
              Baa    -0.0091    -1.226    -0.437    -0.409  0.1559  0.4215  0.8933
    24 C(13)  Bbb    -0.0001    -0.013    -0.004    -0.004  0.6991 -0.6860  0.2017
              Bcc     0.0092     1.238     0.442     0.413  0.6978  0.5931 -0.4016
 
              Baa    -0.0229    -3.076    -1.098    -1.026  0.0573  0.9965  0.0609
    25 C(13)  Bbb    -0.0137    -1.841    -0.657    -0.614  0.9829 -0.0670  0.1717
              Bcc     0.0366     4.917     1.755     1.640 -0.1752 -0.0500  0.9833
 
              Baa    -0.0808   -10.849    -3.871    -3.619 -0.2015 -0.2827  0.9378
    26 C(13)  Bbb    -0.0714    -9.583    -3.419    -3.197  0.9795 -0.0643  0.1911
              Bcc     0.1523    20.432     7.291     6.815  0.0063  0.9571  0.2899
 
              Baa    -0.0390    -5.235    -1.868    -1.746 -0.0028  0.9399  0.3413
    27 C(13)  Bbb     0.0149     1.997     0.713     0.666 -0.3795 -0.3168  0.8693
              Bcc     0.0241     3.238     1.155     1.080  0.9252 -0.1271  0.3576
 
              Baa    -0.0573    -7.688    -2.743    -2.565 -0.0582 -0.3212  0.9452
    28 C(13)  Bbb    -0.0472    -6.332    -2.259    -2.112  0.9978 -0.0495  0.0446
              Bcc     0.1045    14.020     5.003     4.677  0.0325  0.9457  0.3233
 
              Baa    -0.0131    -1.764    -0.629    -0.588 -0.1954 -0.3118  0.9298
    29 C(13)  Bbb    -0.0037    -0.501    -0.179    -0.167  0.0055  0.9477  0.3190
              Bcc     0.0169     2.265     0.808     0.755  0.9807 -0.0674  0.1835
 
              Baa    -0.3838   -14.803    -5.282    -4.938 -0.1956 -0.3274  0.9244
    30 N(14)  Bbb    -0.3694   -14.247    -5.084    -4.752  0.9807 -0.0608  0.1860
              Bcc     0.7532    29.050    10.366     9.690 -0.0047  0.9429  0.3330
 
              Baa    -0.4664    33.750    12.043    11.258  0.3331 -0.3123  0.8897
    31 O(17)  Bbb    -0.4243    30.704    10.956    10.242  0.9429  0.1088 -0.3148
              Bcc     0.8908   -64.454   -22.999   -21.500  0.0015  0.9437  0.3307
 
              Baa    -0.4657    33.699    12.025    11.241 -0.6679 -0.2504  0.7009
    32 O(17)  Bbb    -0.4237    30.656    10.939    10.226  0.7442 -0.2135  0.6329
              Bcc     0.8894   -64.355   -22.963   -21.466 -0.0088  0.9443  0.3289
 
              Baa    -0.0580    -7.778    -2.776    -2.595 -0.3263 -0.3032  0.8953
    33 C(13)  Bbb    -0.0478    -6.415    -2.289    -2.140  0.9448 -0.0748  0.3190
              Bcc     0.1058    14.194     5.065     4.734 -0.0298  0.9500  0.3108
 
              Baa    -0.0392    -5.260    -1.877    -1.754 -0.0079  0.9416  0.3367
    34 C(13)  Bbb     0.0148     1.992     0.711     0.665 -0.0098 -0.3368  0.9415
              Bcc     0.0243     3.267     1.166     1.090  0.9999  0.0042  0.0119
 
              Baa    -0.0083    -1.120    -0.400    -0.374 -0.3772  0.6741  0.6350
    35 C(13)  Bbb    -0.0026    -0.352    -0.126    -0.117  0.8754  0.4833  0.0070
              Bcc     0.0110     1.472     0.525     0.491  0.3022 -0.5585  0.7725
 
              Baa    -0.0126    -1.686    -0.602    -0.562  0.7435  0.6675  0.0409
    36 C(13)  Bbb    -0.0107    -1.431    -0.511    -0.477 -0.6360  0.7247 -0.2652
              Bcc     0.0232     3.117     1.112     1.040 -0.2067  0.1711  0.9633
 
              Baa    -0.0017    -0.232    -0.083    -0.077 -0.0822  0.1995  0.9764
    37 C(13)  Bbb     0.0003     0.039     0.014     0.013  0.9554  0.2947  0.0202
              Bcc     0.0014     0.193     0.069     0.065 -0.2837  0.9345 -0.2148
 
              Baa    -0.0006    -0.082    -0.029    -0.027  0.8198  0.5557 -0.1384
    38 C(13)  Bbb    -0.0003    -0.045    -0.016    -0.015 -0.5429  0.8310  0.1214
              Bcc     0.0009     0.127     0.045     0.042  0.1825 -0.0244  0.9829
 
              Baa    -0.0146    -1.955    -0.697    -0.652  0.1294  0.9666 -0.2210
    39 C(13)  Bbb    -0.0133    -1.785    -0.637    -0.595  0.9496 -0.0566  0.3085
              Bcc     0.0279     3.740     1.334     1.247 -0.2857  0.2498  0.9252
 
              Baa    -0.0007    -0.092    -0.033    -0.031  0.2947  0.9373 -0.1862
    40 C(13)  Bbb    -0.0001    -0.007    -0.002    -0.002  0.2618  0.1082  0.9590
              Bcc     0.0007     0.098     0.035     0.033  0.9190 -0.3314 -0.2135
 
              Baa    -0.0075    -0.288    -0.103    -0.096  0.2516 -0.0464  0.9667
    41 N(14)  Bbb    -0.0006    -0.024    -0.008    -0.008  0.2979  0.9541 -0.0318
              Bcc     0.0081     0.312     0.111     0.104  0.9208 -0.2960 -0.2539
 
              Baa    -0.0007    -0.127    -0.045    -0.042 -0.1341  0.1753  0.9753
    42 B(11)  Bbb    -0.0001    -0.019    -0.007    -0.006 -0.1027  0.9765 -0.1896
              Bcc     0.0009     0.147     0.052     0.049  0.9856  0.1256  0.1130
 
              Baa    -0.0007    -0.363    -0.130    -0.121 -0.1925  0.9432  0.2707
    43 F(19)  Bbb    -0.0004    -0.194    -0.069    -0.065  0.0227 -0.2715  0.9622
              Bcc     0.0011     0.558     0.199     0.186  0.9810  0.1914  0.0308
 
              Baa    -0.0004    -0.200    -0.071    -0.067 -0.4480  0.6703  0.5916
    44 F(19)  Bbb    -0.0002    -0.105    -0.038    -0.035  0.8613  0.1460  0.4867
              Bcc     0.0006     0.305     0.109     0.102  0.2399  0.7276 -0.6427
 
              Baa    -0.0022    -1.189    -0.424    -0.396 -0.1769 -0.2721  0.9459
    45 H(1)   Bbb     0.0002     0.099     0.035     0.033  0.9058 -0.4210  0.0482
              Bcc     0.0020     1.089     0.389     0.363  0.3851  0.8653  0.3209
 
              Baa    -0.0019    -1.018    -0.363    -0.340 -0.2958  0.3825  0.8753
    46 H(1)   Bbb    -0.0001    -0.049    -0.018    -0.016 -0.5742  0.6611 -0.4829
              Bcc     0.0020     1.067     0.381     0.356  0.7634  0.6455 -0.0241
 
              Baa    -0.0009    -0.477    -0.170    -0.159 -0.1428 -0.0852  0.9861
    47 H(1)   Bbb    -0.0001    -0.046    -0.016    -0.015  0.9176 -0.3847  0.0997
              Bcc     0.0010     0.523     0.187     0.175  0.3709  0.9191  0.1331
 
              Baa    -0.0006    -0.337    -0.120    -0.113 -0.0574  0.0296  0.9979
    48 H(1)   Bbb     0.0002     0.119     0.043     0.040  0.8870 -0.4573  0.0646
              Bcc     0.0004     0.218     0.078     0.073  0.4582  0.8888  0.0000
 
              Baa    -0.0011    -0.595    -0.212    -0.198 -0.0534  0.9973  0.0503
    49 H(1)   Bbb    -0.0005    -0.291    -0.104    -0.097 -0.0082 -0.0508  0.9987
              Bcc     0.0017     0.885     0.316     0.295  0.9985  0.0530  0.0109
 
              Baa    -0.0010    -0.550    -0.196    -0.184  0.9914 -0.0625 -0.1148
    50 H(1)   Bbb    -0.0004    -0.226    -0.081    -0.075  0.1040 -0.1541  0.9826
              Bcc     0.0015     0.777     0.277     0.259  0.0791  0.9861  0.1463
 
              Baa    -0.0002    -0.094    -0.034    -0.031  0.0289  0.9794  0.2001
    51 H(1)   Bbb    -0.0001    -0.074    -0.026    -0.025 -0.0053 -0.2000  0.9798
              Bcc     0.0003     0.168     0.060     0.056  0.9996 -0.0294 -0.0006
 
              Baa    -0.0001    -0.055    -0.020    -0.018  0.0036 -0.1984  0.9801
    52 H(1)   Bbb    -0.0000    -0.015    -0.005    -0.005 -0.0184  0.9799  0.1985
              Bcc     0.0001     0.070     0.025     0.023  0.9998  0.0187  0.0001
 
              Baa    -0.0003    -0.137    -0.049    -0.046  0.0951 -0.1732  0.9803
    53 H(1)   Bbb     0.0000     0.005     0.002     0.002 -0.0316  0.9837  0.1769
              Bcc     0.0002     0.132     0.047     0.044  0.9950  0.0478 -0.0881
 
              Baa    -0.0010    -0.558    -0.199    -0.186 -0.2776  0.9403  0.1970
    54 H(1)   Bbb    -0.0001    -0.064    -0.023    -0.021 -0.0220 -0.2112  0.9772
              Bcc     0.0012     0.622     0.222     0.207  0.9604  0.2670  0.0793
 
              Baa    -0.0001    -0.063    -0.023    -0.021  0.0468 -0.1725  0.9839
    55 H(1)   Bbb    -0.0000    -0.009    -0.003    -0.003  0.8325 -0.5377 -0.1339
              Bcc     0.0001     0.073     0.026     0.024  0.5521  0.8253  0.1184
 
              Baa    -0.0002    -0.092    -0.033    -0.031 -0.0160 -0.3874  0.9218
    56 H(1)   Bbb    -0.0000    -0.016    -0.006    -0.005 -0.6249  0.7236  0.2933
              Bcc     0.0002     0.108     0.039     0.036  0.7806  0.5713  0.2536
 
              Baa    -0.0002    -0.089    -0.032    -0.030 -0.0182  0.1773  0.9840
    57 H(1)   Bbb    -0.0000    -0.015    -0.005    -0.005  0.8360 -0.5371  0.1122
              Bcc     0.0002     0.104     0.037     0.035  0.5484  0.8247 -0.1385
 
              Baa    -0.0001    -0.045    -0.016    -0.015 -0.0244 -0.0495  0.9985
    58 H(1)   Bbb    -0.0000    -0.016    -0.006    -0.005 -0.6557  0.7547  0.0213
              Bcc     0.0001     0.061     0.022     0.020  0.7546  0.6542  0.0509
 
              Baa    -0.0002    -0.087    -0.031    -0.029  0.1457 -0.2411  0.9595
    59 H(1)   Bbb    -0.0001    -0.047    -0.017    -0.016 -0.6143  0.7382  0.2788
              Bcc     0.0002     0.133     0.048     0.044  0.7755  0.6300  0.0405
 
              Baa    -0.0002    -0.108    -0.039    -0.036 -0.1227 -0.0847  0.9888
    60 H(1)   Bbb    -0.0000    -0.007    -0.002    -0.002 -0.4588  0.8883  0.0192
              Bcc     0.0002     0.115     0.041     0.038  0.8800  0.4513  0.1479
 
              Baa    -0.0026    -1.364    -0.487    -0.455 -0.0334  0.9155  0.4009
    61 H(1)   Bbb    -0.0010    -0.554    -0.198    -0.185 -0.3584 -0.3854  0.8503
              Bcc     0.0036     1.918     0.684     0.640  0.9330 -0.1152  0.3410
 
              Baa    -0.0040    -2.155    -0.769    -0.719 -0.0562  0.9379  0.3424
    62 H(1)   Bbb    -0.0010    -0.532    -0.190    -0.178  0.9752  0.1251 -0.1825
              Bcc     0.0050     2.687     0.959     0.896  0.2139 -0.3237  0.9217
 
              Baa    -0.0040    -2.151    -0.767    -0.717  0.0350  0.9330  0.3582
    63 H(1)   Bbb    -0.0011    -0.587    -0.209    -0.196  0.8189 -0.2322  0.5249
              Bcc     0.0051     2.738     0.977     0.913 -0.5729 -0.2750  0.7722
 
              Baa    -0.0026    -1.381    -0.493    -0.461  0.0024  0.9055  0.4243
    64 H(1)   Bbb    -0.0011    -0.569    -0.203    -0.190 -0.0237 -0.4241  0.9053
              Bcc     0.0037     1.950     0.696     0.650  0.9997 -0.0123  0.0205
 
              Baa    -0.0018    -0.973    -0.347    -0.324 -0.0140  0.4072  0.9132
    65 H(1)   Bbb    -0.0001    -0.064    -0.023    -0.021  0.7946  0.5589 -0.2371
              Bcc     0.0019     1.036     0.370     0.346 -0.6069  0.7224 -0.3314
 
              Baa    -0.0009    -0.472    -0.168    -0.157 -0.2203 -0.0180  0.9753
    66 H(1)   Bbb    -0.0000    -0.024    -0.009    -0.008  0.9307  0.2954  0.2157
              Bcc     0.0009     0.496     0.177     0.165 -0.2920  0.9552 -0.0483
 
              Baa    -0.0022    -1.148    -0.410    -0.383 -0.1671 -0.1918  0.9671
    67 H(1)   Bbb     0.0002     0.095     0.034     0.032  0.9108  0.3455  0.2259
              Bcc     0.0020     1.053     0.376     0.351 -0.3774  0.9186  0.1170
 
              Baa    -0.0007    -0.360    -0.128    -0.120 -0.2557  0.1281  0.9582
    68 H(1)   Bbb    -0.0001    -0.030    -0.011    -0.010  0.9654  0.0856  0.2462
              Bcc     0.0007     0.390     0.139     0.130 -0.0504  0.9881 -0.1456
 
              Baa    -0.0005    -0.260    -0.093    -0.087 -0.5122 -0.0262  0.8584
    69 H(1)   Bbb    -0.0003    -0.182    -0.065    -0.061  0.0125  0.9992  0.0380
              Bcc     0.0008     0.442     0.158     0.148  0.8588 -0.0302  0.5115
 
              Baa    -0.0005    -0.278    -0.099    -0.093  0.1477  0.6085  0.7797
    70 H(1)   Bbb    -0.0003    -0.138    -0.049    -0.046  0.1030  0.7746 -0.6241
              Bcc     0.0008     0.416     0.149     0.139  0.9837 -0.1725 -0.0517
 
              Baa    -0.0005    -0.254    -0.091    -0.085  0.2219  0.6576  0.7200
    71 H(1)   Bbb    -0.0004    -0.213    -0.076    -0.071  0.6251  0.4708 -0.6226
              Bcc     0.0009     0.467     0.167     0.156  0.7484 -0.5882  0.3066
 

 ---------------------------------------------------------------------------------

 No NMR shielding tensors so no spin-rotation constants.
 Leave Link  601 at Fri Oct 24 19:20:42 2025, MaxMem= 30870077440 cpu:             181.0 elap:               3.2
 (Enter /public/software/gauss/g16/l9999.exe)
 1\1\GINC-CU056\SP\UM062X\def2TZVPP\C34H27B1F2N4O3(1-,2)\BAIDING\24-Oct
 -2025\0\\#p M062X/DEF2TZVPP scrf=(solvent=water) em=GD3\\Energy calcul
 ation for BNO_CN_reduced\\-1,2\C,0,3.956301,-3.051372,0.06818\C,0,2.60
 4617,-2.403117,0.009454\C,0,1.416122,-3.117202,-0.027202\C,0,0.334837,
 -2.219414,-0.160857\C,0,-1.031386,-2.663652,-0.196116\C,0,-2.175135,-1
 .927632,-0.065957\C,0,-3.511247,-2.452481,-0.115532\C,0,-4.588123,-1.6
 04272,0.023707\O,0,-4.304764,-0.268554,0.292516\C,0,-5.296998,0.660805
 ,0.451312\C,0,-6.655323,0.296316,0.36032\C,0,-7.624615,1.298705,0.5421
 19\C,0,-7.256696,2.611171,0.804735\C,0,-5.891265,2.94452,0.887475\C,0,
 -5.507189,4.293564,1.156809\N,0,-5.198127,5.397029,1.376958\C,0,-4.899
 158,1.964437,0.708739\C,0,-6.962736,-1.083129,0.075768\C,0,-5.971221,-
 1.998974,-0.099596\C,0,-6.242181,-3.43791,-0.462184\C,0,-5.168713,-4.3
 64944,0.113897\C,0,-3.771643,-3.92982,-0.341794\N,0,0.845182,-0.940413
 ,-0.225676\C,0,2.241409,-1.019709,-0.100854\C,0,3.060006,0.133504,-0.2
 05206\C,0,4.502322,0.038425,0.063977\C,0,4.982646,-0.404421,1.318679\C
 ,0,6.336359,-0.478664,1.588391\C,0,7.270022,-0.135476,0.584615\N,0,8.6
 4385,-0.220429,0.843683\O,0,9.049327,-0.624031,1.989699\O,0,9.48289,0.
 105201,-0.067796\C,0,6.811753,0.293434,-0.681654\C,0,5.454148,0.390712
 ,-0.921411\C,0,2.491731,1.375708,-0.589256\C,0,3.02276,2.699348,-0.653
 858\C,0,4.375507,3.221965,-0.27014\C,0,1.97548,3.514913,-1.103323\C,0,
 0.833953,2.726199,-1.27218\C,0,-0.528263,3.162049,-1.700892\N,0,1.1421
 01,1.437575,-0.955371\B,0,0.098622,0.327965,-0.712639\F,0,-0.819222,0.
 782961,0.268098\F,0,-0.608169,0.056294,-1.894722\H,0,4.657265,-2.60219
 9,-0.640885\H,0,4.417668,-2.980766,1.058378\H,0,3.85695,-4.113272,-0.1
 75086\H,0,1.314461,-4.193072,0.035558\H,0,-1.109618,-3.743052,-0.29915
 6\H,0,-2.084307,-0.862878,0.095677\H,0,-8.674219,1.031029,0.473199\H,0
 ,-8.008399,3.379447,0.944927\H,0,-3.843775,2.205662,0.767961\H,0,-8.00
 4165,-1.377739,-0.011805\H,0,-7.243512,-3.71918,-0.122442\H,0,-6.24165
 5,-3.526825,-1.557988\H,0,-5.219019,-4.341592,1.209296\H,0,-5.358175,-
 5.397046,-0.196675\H,0,-3.017902,-4.515366,0.195079\H,0,-3.637723,-4.1
 68176,-1.406824\H,0,4.270521,-0.66358,2.095738\H,0,6.6924,-0.788304,2.
 562441\H,0,7.53014,0.534044,-1.454419\H,0,5.108723,0.714751,-1.897838\
 H,0,5.132515,3.055553,-1.044241\H,0,4.312028,4.301237,-0.101666\H,0,4.
 750749,2.755714,0.645084\H,0,2.026896,4.582576,-1.273913\H,0,-0.876748
 ,2.588369,-2.565526\H,0,-1.261283,3.011051,-0.901183\H,0,-0.515581,4.2
 21709,-1.964367\\Version=ES64L-G16RevA.03\State=2-A\HF=-1981.311618\S2
 =0.771856\S2-1=0.\S2A=0.750255\RMSD=7.565e-10\Dipole=-14.5662342,-2.78
 77628,-1.648897\Quadrupole=-127.1344285,67.2952693,59.8391592,36.29348
 91,-20.7310731,-7.0708893\PG=C01 [X(C34H27B1F2N4O3)]\\@


 THE ATTENTION SPAN OF A COMPUTER IS AS LONG
 AS ITS EXTENSION CORD.
 Job cpu time:       2 days 19 hours 41 minutes 44.3 seconds.
 Elapsed time:       0 days  1 hours  4 minutes  4.8 seconds.
 File lengths (MBytes):  RWF=   3231 Int=      0 D2E=      0 Chk=    212 Scr=      1
 Normal termination of Gaussian 16 at Fri Oct 24 19:20:43 2025.
