 Entering Gaussian System, Link 0=g16
 Input=BNO_CO_reduced_sp.gjf
 Output=BNO_CO_reduced_sp.log
 Initial command:
 /public/software/gauss/g16/l1.exe "/public/home/baiding/1024_sp/tmp_BNO_CO_reduced_sp_1526250/Gau-2918953.inp" -scrdir="/public/home/baiding/1024_sp/tmp_BNO_CO_reduced_sp_1526250/"
 Entering Link 1 = /public/software/gauss/g16/l1.exe PID=   2918954.
  
 Copyright (c) 1988,1990,1992,1993,1995,1998,2003,2009,2016,
            Gaussian, Inc.  All Rights Reserved.
  
 This is part of the Gaussian(R) 16 program.  It is based on
 the Gaussian(R) 09 system (copyright 2009, Gaussian, Inc.),
 the Gaussian(R) 03 system (copyright 2003, Gaussian, Inc.),
 the Gaussian(R) 98 system (copyright 1998, Gaussian, Inc.),
 the Gaussian(R) 94 system (copyright 1995, Gaussian, Inc.),
 the Gaussian 92(TM) system (copyright 1992, Gaussian, Inc.),
 the Gaussian 90(TM) system (copyright 1990, Gaussian, Inc.),
 the Gaussian 88(TM) system (copyright 1988, Gaussian, Inc.),
 the Gaussian 86(TM) system (copyright 1986, Carnegie Mellon
 University), and the Gaussian 82(TM) system (copyright 1983,
 Carnegie Mellon University). Gaussian is a federally registered
 trademark of Gaussian, Inc.
  
 This software contains proprietary and confidential information,
 including trade secrets, belonging to Gaussian, Inc.
  
 This software is provided under written license and may be
 used, copied, transmitted, or stored only in accord with that
 written license.
  
 The following legend is applicable only to US Government
 contracts under FAR:
  
                    RESTRICTED RIGHTS LEGEND
  
 Use, reproduction and disclosure by the US Government is
 subject to restrictions as set forth in subparagraphs (a)
 and (c) of the Commercial Computer Software - Restricted
 Rights clause in FAR 52.227-19.
  
 Gaussian, Inc.
 340 Quinnipiac St., Bldg. 40, Wallingford CT 06492
  
  
 ---------------------------------------------------------------
 Warning -- This program may not be used in any manner that
 competes with the business of Gaussian, Inc. or will provide
 assistance to any competitor of Gaussian, Inc.  The licensee
 of this program is prohibited from giving any competitor of
 Gaussian, Inc. access to this program.  By using this program,
 the user acknowledges that Gaussian, Inc. is engaged in the
 business of creating and licensing software in the field of
 computational chemistry and represents and warrants to the
 licensee that it is not a competitor of Gaussian, Inc. and that
 it will not use this program in any manner prohibited above.
 ---------------------------------------------------------------
  

 Cite this work as:
 Gaussian 16, Revision A.03,
 M. J. Frisch, G. W. Trucks, H. B. Schlegel, G. E. Scuseria, 
 M. A. Robb, J. R. Cheeseman, G. Scalmani, V. Barone, 
 G. A. Petersson, H. Nakatsuji, X. Li, M. Caricato, A. V. Marenich, 
 J. Bloino, B. G. Janesko, R. Gomperts, B. Mennucci, H. P. Hratchian, 
 J. V. Ortiz, A. F. Izmaylov, J. L. Sonnenberg, D. Williams-Young, 
 F. Ding, F. Lipparini, F. Egidi, J. Goings, B. Peng, A. Petrone, 
 T. Henderson, D. Ranasinghe, V. G. Zakrzewski, J. Gao, N. Rega, 
 G. Zheng, W. Liang, M. Hada, M. Ehara, K. Toyota, R. Fukuda, 
 J. Hasegawa, M. Ishida, T. Nakajima, Y. Honda, O. Kitao, H. Nakai, 
 T. Vreven, K. Throssell, J. A. Montgomery, Jr., J. E. Peralta, 
 F. Ogliaro, M. J. Bearpark, J. J. Heyd, E. N. Brothers, K. N. Kudin, 
 V. N. Staroverov, T. A. Keith, R. Kobayashi, J. Normand, 
 K. Raghavachari, A. P. Rendell, J. C. Burant, S. S. Iyengar, 
 J. Tomasi, M. Cossi, J. M. Millam, M. Klene, C. Adamo, R. Cammi, 
 J. W. Ochterski, R. L. Martin, K. Morokuma, O. Farkas, 
 J. B. Foresman, and D. J. Fox, Gaussian, Inc., Wallingford CT, 2016.
 
 ******************************************
 Gaussian 16:  ES64L-G16RevA.03 25-Dec-2016
                24-Oct-2025 
 ******************************************
 %nprocshared=64
 Will use up to   64 processors via shared memory.
 %mem=230GB
 %chk=BNO_CO_reduced_sp.chk
 ----------------------------------------------
 #p M062X/DEF2TZVPP scrf=(solvent=water) em=GD3
 ----------------------------------------------
 1/38=1,172=1/1;
 2/12=2,17=6,18=5,40=1/2;
 3/5=44,7=202,11=2,25=1,30=1,70=2201,72=1,74=-55,124=31/1,2,3;
 4//1;
 5/5=2,38=5,53=1/2;
 6/7=2,8=2,9=2,10=2,28=1/1;
 99/5=1,9=1/99;
 Leave Link    1 at Fri Oct 24 19:37:17 2025, MaxMem= 30870077440 cpu:              11.6 elap:               0.2
 (Enter /public/software/gauss/g16/l101.exe)
 -------------------------------------
 Energy calculation for BNO_CO_reduced
 -------------------------------------
 Symbolic Z-matrix:
 Charge = -1 Multiplicity = 2
 C                     4.05354  -3.02437  -0.11103 
 C                     2.69402  -2.39547  -0.02842 
 C                     1.51586  -3.1259    0.01391 
 C                     0.42413  -2.24428   0.17065 
 C                    -0.93568  -2.70572   0.21256 
 C                    -2.08914  -1.98158   0.09445 
 C                    -3.41628  -2.52796   0.11846 
 C                    -4.50318  -1.70499  -0.0873 
 O                    -4.24269  -0.34937  -0.25208 
 C                    -5.24919   0.56038  -0.45183 
 C                    -6.59691   0.15199  -0.4947 
 C                    -7.58483   1.13714  -0.69834 
 C                    -7.23681   2.46943  -0.85132 
 C                    -5.88293   2.85386  -0.806 
 C                    -5.4906    4.2589   -0.96418 
 O                    -6.27542   5.18796  -1.14497 
 C                    -4.88256   1.88901  -0.60622 
 C                    -6.87919  -1.25135  -0.33637 
 C                    -5.87372  -2.15177  -0.15225 
 C                    -6.11811  -3.6364   -0.04393 
 C                    -5.07404  -4.30713   0.85256 
 C                    -3.65602  -4.00727   0.35461 
 N                     0.91829  -0.95941   0.24534 
 C                     2.31378  -1.01829   0.10285 
 C                     3.11821   0.14418   0.21194 
 C                     4.55736   0.07228  -0.07997 
 C                     5.02376  -0.34903  -1.34736 
 C                     6.37384  -0.40123  -1.63934 
 C                     7.31849  -0.05628  -0.64662 
 N                     8.6891   -0.11787  -0.9288 
 O                     9.53767   0.21333  -0.02842 
 O                     9.08192  -0.50606  -2.08432 
 C                     6.87475   0.35081   0.63197 
 C                     5.51995   0.42584   0.8945 
 C                     2.53852   1.37319   0.62162 
 C                     3.05232   2.70276   0.69855 
 C                     4.39219   3.24994   0.30386 
 C                     2.00049   3.4972    1.17495 
 C                     0.87235   2.69056   1.34771 
 C                    -0.48973   3.10168   1.80067 
 N                     1.19344   1.4109    1.00752 
 B                     0.16068   0.29323   0.75514 
 F                    -0.536    -0.00351   1.93715 
 F                    -0.76821   0.75254  -0.21323 
 H                     4.5015   -2.9364   -1.10599 
 H                     4.75712  -2.57343   0.59433 
 H                     3.97173  -4.09016   0.12145 
 H                     1.42786  -4.20222  -0.06076 
 H                    -1.00097  -3.78765   0.29627 
 H                    -2.01136  -0.91564  -0.06677 
 H                    -8.62583   0.83056  -0.73337 
 H                    -7.99698   3.22742  -1.00642 
 H                    -4.40176   4.45007  -0.91005 
 H                    -3.83256   2.16465  -0.56864 
 H                    -7.91175  -1.58457  -0.38038 
 H                    -7.13535  -3.81424   0.31778 
 H                    -6.05836  -4.07282  -1.05127 
 H                    -5.18578  -3.93766   1.87918 
 H                    -5.24084  -5.3884    0.87774 
 H                    -2.9288   -4.37769   1.08453 
 H                    -3.46457  -4.5646   -0.57395 
 H                     4.30294  -0.60878  -2.11615 
 H                     6.71842  -0.69426  -2.62262 
 H                     7.60214   0.59218   1.39601 
 H                     5.18587   0.73288   1.88031 
 H                     4.31078   4.33024   0.15027 
 H                     5.16181   3.08502   1.06576 
 H                     4.76197   2.80108  -0.62219 
 H                     2.03999   4.5628    1.36095 
 H                    -1.23096   2.95453   1.0077 
 H                    -0.82002   2.50972   2.66004 
 H                    -0.48714   4.15701   2.08127 
 
 ITRead=  0  0  0  0  0  0  0  0  0  0  0  0  0  0  0  0  0  0  0  0
 ITRead=  0  0  0  0  0  0  0  0  0  0  0  0  0  0  0  0  0  0  0  0
 ITRead=  0  0  0  0  0  0  0  0  0  0  0  0  0  0  0  0  0  0  0  0
 ITRead=  0  0  0  0  0  0  0  0  0  0  0  0
 MicOpt= -1 -1 -1 -1 -1 -1 -1 -1 -1 -1 -1 -1 -1 -1 -1 -1 -1 -1 -1 -1
 MicOpt= -1 -1 -1 -1 -1 -1 -1 -1 -1 -1 -1 -1 -1 -1 -1 -1 -1 -1 -1 -1
 MicOpt= -1 -1 -1 -1 -1 -1 -1 -1 -1 -1 -1 -1 -1 -1 -1 -1 -1 -1 -1 -1
 MicOpt= -1 -1 -1 -1 -1 -1 -1 -1 -1 -1 -1 -1
 NAtoms=     72 NQM=       72 NQMF=       0 NMMI=      0 NMMIF=      0
                NMic=       0 NMicF=      0.
                    Isotopes and Nuclear Properties:
 (Nuclear quadrupole moments (NQMom) in fm**2, nuclear magnetic moments (NMagM)
  in nuclear magnetons)

  Atom         1           2           3           4           5           6           7           8           9          10
 IAtWgt=          12          12          12          12          12          12          12          12          16          12
 AtmWgt=  12.0000000  12.0000000  12.0000000  12.0000000  12.0000000  12.0000000  12.0000000  12.0000000  15.9949146  12.0000000
 NucSpn=           0           0           0           0           0           0           0           0           0           0
 AtZEff=  -0.0000000  -0.0000000  -0.0000000  -0.0000000  -0.0000000  -0.0000000  -0.0000000  -0.0000000  -0.0000000  -0.0000000
 NQMom=    0.0000000   0.0000000   0.0000000   0.0000000   0.0000000   0.0000000   0.0000000   0.0000000   0.0000000   0.0000000
 NMagM=    0.0000000   0.0000000   0.0000000   0.0000000   0.0000000   0.0000000   0.0000000   0.0000000   0.0000000   0.0000000
 AtZNuc=   6.0000000   6.0000000   6.0000000   6.0000000   6.0000000   6.0000000   6.0000000   6.0000000   8.0000000   6.0000000

  Atom        11          12          13          14          15          16          17          18          19          20
 IAtWgt=          12          12          12          12          12          16          12          12          12          12
 AtmWgt=  12.0000000  12.0000000  12.0000000  12.0000000  12.0000000  15.9949146  12.0000000  12.0000000  12.0000000  12.0000000
 NucSpn=           0           0           0           0           0           0           0           0           0           0
 AtZEff=  -0.0000000  -0.0000000  -0.0000000  -0.0000000  -0.0000000  -0.0000000  -0.0000000  -0.0000000  -0.0000000  -0.0000000
 NQMom=    0.0000000   0.0000000   0.0000000   0.0000000   0.0000000   0.0000000   0.0000000   0.0000000   0.0000000   0.0000000
 NMagM=    0.0000000   0.0000000   0.0000000   0.0000000   0.0000000   0.0000000   0.0000000   0.0000000   0.0000000   0.0000000
 AtZNuc=   6.0000000   6.0000000   6.0000000   6.0000000   6.0000000   8.0000000   6.0000000   6.0000000   6.0000000   6.0000000

  Atom        21          22          23          24          25          26          27          28          29          30
 IAtWgt=          12          12          14          12          12          12          12          12          12          14
 AtmWgt=  12.0000000  12.0000000  14.0030740  12.0000000  12.0000000  12.0000000  12.0000000  12.0000000  12.0000000  14.0030740
 NucSpn=           0           0           2           0           0           0           0           0           0           2
 AtZEff=  -0.0000000  -0.0000000  -0.0000000  -0.0000000  -0.0000000  -0.0000000  -0.0000000  -0.0000000  -0.0000000  -0.0000000
 NQMom=    0.0000000   0.0000000   2.0440000   0.0000000   0.0000000   0.0000000   0.0000000   0.0000000   0.0000000   2.0440000
 NMagM=    0.0000000   0.0000000   0.4037610   0.0000000   0.0000000   0.0000000   0.0000000   0.0000000   0.0000000   0.4037610
 AtZNuc=   6.0000000   6.0000000   7.0000000   6.0000000   6.0000000   6.0000000   6.0000000   6.0000000   6.0000000   7.0000000

  Atom        31          32          33          34          35          36          37          38          39          40
 IAtWgt=          16          16          12          12          12          12          12          12          12          12
 AtmWgt=  15.9949146  15.9949146  12.0000000  12.0000000  12.0000000  12.0000000  12.0000000  12.0000000  12.0000000  12.0000000
 NucSpn=           0           0           0           0           0           0           0           0           0           0
 AtZEff=  -0.0000000  -0.0000000  -0.0000000  -0.0000000  -0.0000000  -0.0000000  -0.0000000  -0.0000000  -0.0000000  -0.0000000
 NQMom=    0.0000000   0.0000000   0.0000000   0.0000000   0.0000000   0.0000000   0.0000000   0.0000000   0.0000000   0.0000000
 NMagM=    0.0000000   0.0000000   0.0000000   0.0000000   0.0000000   0.0000000   0.0000000   0.0000000   0.0000000   0.0000000
 AtZNuc=   8.0000000   8.0000000   6.0000000   6.0000000   6.0000000   6.0000000   6.0000000   6.0000000   6.0000000   6.0000000

  Atom        41          42          43          44          45          46          47          48          49          50
 IAtWgt=          14          11          19          19           1           1           1           1           1           1
 AtmWgt=  14.0030740  11.0093053  18.9984033  18.9984033   1.0078250   1.0078250   1.0078250   1.0078250   1.0078250   1.0078250
 NucSpn=           2           3           1           1           1           1           1           1           1           1
 AtZEff=  -0.0000000  -0.0000000  -0.0000000  -0.0000000  -0.0000000  -0.0000000  -0.0000000  -0.0000000  -0.0000000  -0.0000000
 NQMom=    2.0440000   4.0590000   0.0000000   0.0000000   0.0000000   0.0000000   0.0000000   0.0000000   0.0000000   0.0000000
 NMagM=    0.4037610   2.6886370   2.6288670   2.6288670   2.7928460   2.7928460   2.7928460   2.7928460   2.7928460   2.7928460
 AtZNuc=   7.0000000   5.0000000   9.0000000   9.0000000   1.0000000   1.0000000   1.0000000   1.0000000   1.0000000   1.0000000

  Atom        51          52          53          54          55          56          57          58          59          60
 IAtWgt=           1           1           1           1           1           1           1           1           1           1
 AtmWgt=   1.0078250   1.0078250   1.0078250   1.0078250   1.0078250   1.0078250   1.0078250   1.0078250   1.0078250   1.0078250
 NucSpn=           1           1           1           1           1           1           1           1           1           1
 AtZEff=  -0.0000000  -0.0000000  -0.0000000  -0.0000000  -0.0000000  -0.0000000  -0.0000000  -0.0000000  -0.0000000  -0.0000000
 NQMom=    0.0000000   0.0000000   0.0000000   0.0000000   0.0000000   0.0000000   0.0000000   0.0000000   0.0000000   0.0000000
 NMagM=    2.7928460   2.7928460   2.7928460   2.7928460   2.7928460   2.7928460   2.7928460   2.7928460   2.7928460   2.7928460
 AtZNuc=   1.0000000   1.0000000   1.0000000   1.0000000   1.0000000   1.0000000   1.0000000   1.0000000   1.0000000   1.0000000

  Atom        61          62          63          64          65          66          67          68          69          70
 IAtWgt=           1           1           1           1           1           1           1           1           1           1
 AtmWgt=   1.0078250   1.0078250   1.0078250   1.0078250   1.0078250   1.0078250   1.0078250   1.0078250   1.0078250   1.0078250
 NucSpn=           1           1           1           1           1           1           1           1           1           1
 AtZEff=  -0.0000000  -0.0000000  -0.0000000  -0.0000000  -0.0000000  -0.0000000  -0.0000000  -0.0000000  -0.0000000  -0.0000000
 NQMom=    0.0000000   0.0000000   0.0000000   0.0000000   0.0000000   0.0000000   0.0000000   0.0000000   0.0000000   0.0000000
 NMagM=    2.7928460   2.7928460   2.7928460   2.7928460   2.7928460   2.7928460   2.7928460   2.7928460   2.7928460   2.7928460
 AtZNuc=   1.0000000   1.0000000   1.0000000   1.0000000   1.0000000   1.0000000   1.0000000   1.0000000   1.0000000   1.0000000

  Atom        71          72
 IAtWgt=           1           1
 AtmWgt=   1.0078250   1.0078250
 NucSpn=           1           1
 AtZEff=  -0.0000000  -0.0000000
 NQMom=    0.0000000   0.0000000
 NMagM=    2.7928460   2.7928460
 AtZNuc=   1.0000000   1.0000000
 Leave Link  101 at Fri Oct 24 19:37:17 2025, MaxMem= 30870077440 cpu:               5.7 elap:               0.1
 (Enter /public/software/gauss/g16/l202.exe)
 Stoichiometry    C34H28BF2N3O4(1-,2)
 Framework group  C1[X(C34H28BF2N3O4)]
 Deg. of freedom   210
 Full point group                 C1      NOp   1
 Largest Abelian subgroup         C1      NOp   1
 Largest concise Abelian subgroup C1      NOp   1
                         Standard orientation:                         
 ---------------------------------------------------------------------
 Center     Atomic      Atomic             Coordinates (Angstroms)
 Number     Number       Type             X           Y           Z
 ---------------------------------------------------------------------
      1          6           0        4.053543   -3.024367   -0.111029
      2          6           0        2.694018   -2.395472   -0.028420
      3          6           0        1.515864   -3.125899    0.013912
      4          6           0        0.424133   -2.244284    0.170648
      5          6           0       -0.935683   -2.705721    0.212555
      6          6           0       -2.089135   -1.981578    0.094450
      7          6           0       -3.416282   -2.527961    0.118462
      8          6           0       -4.503183   -1.704991   -0.087301
      9          8           0       -4.242691   -0.349367   -0.252083
     10          6           0       -5.249192    0.560375   -0.451831
     11          6           0       -6.596910    0.151988   -0.494697
     12          6           0       -7.584826    1.137142   -0.698337
     13          6           0       -7.236811    2.469433   -0.851318
     14          6           0       -5.882931    2.853860   -0.805998
     15          6           0       -5.490602    4.258904   -0.964180
     16          8           0       -6.275419    5.187961   -1.144971
     17          6           0       -4.882564    1.889010   -0.606215
     18          6           0       -6.879186   -1.251353   -0.336371
     19          6           0       -5.873715   -2.151767   -0.152246
     20          6           0       -6.118106   -3.636395   -0.043930
     21          6           0       -5.074038   -4.307125    0.852558
     22          6           0       -3.656016   -4.007273    0.354610
     23          7           0        0.918286   -0.959407    0.245339
     24          6           0        2.313779   -1.018295    0.102851
     25          6           0        3.118205    0.144180    0.211940
     26          6           0        4.557364    0.072278   -0.079972
     27          6           0        5.023757   -0.349032   -1.347355
     28          6           0        6.373837   -0.401233   -1.639338
     29          6           0        7.318489   -0.056281   -0.646615
     30          7           0        8.689100   -0.117868   -0.928797
     31          8           0        9.537668    0.213325   -0.028418
     32          8           0        9.081918   -0.506057   -2.084318
     33          6           0        6.874745    0.350805    0.631967
     34          6           0        5.519949    0.425837    0.894496
     35          6           0        2.538518    1.373193    0.621620
     36          6           0        3.052321    2.702759    0.698550
     37          6           0        4.392185    3.249939    0.303855
     38          6           0        2.000490    3.497196    1.174952
     39          6           0        0.872346    2.690560    1.347708
     40          6           0       -0.489734    3.101682    1.800667
     41          7           0        1.193440    1.410901    1.007519
     42          5           0        0.160684    0.293229    0.755144
     43          9           0       -0.536004   -0.003509    1.937150
     44          9           0       -0.768206    0.752536   -0.213231
     45          1           0        4.501499   -2.936399   -1.105987
     46          1           0        4.757115   -2.573427    0.594327
     47          1           0        3.971733   -4.090164    0.121446
     48          1           0        1.427858   -4.202218   -0.060763
     49          1           0       -1.000973   -3.787645    0.296265
     50          1           0       -2.011362   -0.915635   -0.066772
     51          1           0       -8.625828    0.830560   -0.733368
     52          1           0       -7.996975    3.227420   -1.006420
     53          1           0       -4.401763    4.450072   -0.910048
     54          1           0       -3.832557    2.164654   -0.568644
     55          1           0       -7.911748   -1.584574   -0.380380
     56          1           0       -7.135354   -3.814240    0.317778
     57          1           0       -6.058359   -4.072815   -1.051271
     58          1           0       -5.185784   -3.937662    1.879177
     59          1           0       -5.240840   -5.388403    0.877743
     60          1           0       -2.928799   -4.377692    1.084531
     61          1           0       -3.464569   -4.564595   -0.573946
     62          1           0        4.302939   -0.608779   -2.116154
     63          1           0        6.718419   -0.694263   -2.622621
     64          1           0        7.602144    0.592179    1.396008
     65          1           0        5.185870    0.732878    1.880314
     66          1           0        4.310777    4.330239    0.150270
     67          1           0        5.161810    3.085018    1.065758
     68          1           0        4.761971    2.801083   -0.622189
     69          1           0        2.039990    4.562800    1.360945
     70          1           0       -1.230961    2.954526    1.007698
     71          1           0       -0.820022    2.509716    2.660042
     72          1           0       -0.487138    4.157011    2.081268
 ---------------------------------------------------------------------
 Rotational constants (GHZ):           0.1415474           0.0334170           0.0284378
 Leave Link  202 at Fri Oct 24 19:37:17 2025, MaxMem= 30870077440 cpu:               0.2 elap:               0.0
 (Enter /public/software/gauss/g16/l301.exe)
 Standard basis: def2TZVPP (5D, 7F)
 Ernie: Thresh=  0.10000D-02 Tol=  0.10000D-05 Strict=F.
 There are  2004 symmetry adapted cartesian basis functions of A   symmetry.
 There are  1756 symmetry adapted basis functions of A   symmetry.
  1756 basis functions,  2720 primitive gaussians,  2004 cartesian basis functions
   155 alpha electrons      154 beta electrons
       nuclear repulsion energy      4951.5327199642 Hartrees.
 IExCor= 4336 DFT=T Ex+Corr=M062X ExCW=0 ScaHFX=  0.540000
 ScaDFX=  1.000000  1.000000  1.000000  1.000000 ScalE2=  1.000000  1.000000
 IRadAn=      5 IRanWt=     -1 IRanGd=            0 ICorTp=0 IEmpDi=131
 NAtoms=   72 NActive=   72 NUniq=   72 SFac= 1.00D+00 NAtFMM=   60 NAOKFM=T Big=T
 Integral buffers will be    131072 words long.
 Raffenetti 2 integral format.
 Two-electron integral symmetry is turned on.
 R6Disp:  Grimme-D3 Dispersion energy=       -0.0064096332 Hartrees.
 Nuclear repulsion after empirical dispersion term =     4951.5263103310 Hartrees.
 ------------------------------------------------------------------------------
 Polarizable Continuum Model (PCM)
 =================================
 Model                : PCM.
 Atomic radii         : UFF (Universal Force Field).
 Polarization charges : Total charges.
 Charge compensation  : None.
 Solution method      : On-the-fly selection.
 Cavity type          : Scaled VdW (van der Waals Surface) (Alpha=1.100).
 Cavity algorithm     : GePol (No added spheres)
                        Default sphere list used, NSphG=   72.
                        Lebedev-Laikov grids with approx.  5.0 points / Ang**2.
                        Smoothing algorithm: York/Karplus (Gamma=1.0000).
                        Polarization charges: spherical gaussians, with
                                              point-specific exponents (IZeta= 3).
                        Self-potential: point-specific (ISelfS= 7).
                        Self-field    : sphere-specific E.n sum rule (ISelfD= 2).
 Solvent              : Water, Eps=  78.355300 Eps(inf)=   1.777849
 ------------------------------------------------------------------------------
 GePol: Number of generator spheres                  =      72
 GePol: Total number of spheres                      =      72
 GePol: Number of exposed spheres                    =      72 (100.00%)
 GePol: Number of points                             =    5145
 GePol: Average weight of points                     =       0.13
 GePol: Minimum weight of points                     =   0.81D-11
 GePol: Maximum weight of points                     =    0.20577
 GePol: Number of points with low weight             =     329
 GePol: Fraction of low-weight points (<1% of avg)   =       6.39%
 GePol: Cavity surface area                          =    649.392 Ang**2
 GePol: Cavity volume                                =    757.585 Ang**3
 Leave Link  301 at Fri Oct 24 19:37:17 2025, MaxMem= 30870077440 cpu:               3.5 elap:               0.1
 (Enter /public/software/gauss/g16/l302.exe)
 NPDir=0 NMtPBC=     1 NCelOv=     1 NCel=       1 NClECP=     1 NCelD=      1
         NCelK=      1 NCelE2=     1 NClLst=     1 CellRange=     0.0.
 One-electron integrals computed using PRISM.
 One-electron integral symmetry used in STVInt
   1 Symmetry operations used in ECPInt.
 ECPInt:  NShTT=  212878 NPrTT=  611012 LenC2=  141200 LenP2D=  273837.
 LDataN:  DoStor=T MaxTD1= 6 Len=  172
 NBasis=  1756 RedAO= T EigKep=  5.42D-06  NBF=  1756
 NBsUse=  1756 1.00D-06 EigRej= -1.00D+00 NBFU=  1756
 Precomputing XC quadrature grid using
 IXCGrd= 4 IRadAn=           5 IRanWt=          -1 IRanGd=           0 AccXCQ= 0.00D+00.
 Generated NRdTot=       0 NPtTot=           0 NUsed=           0 NTot=          32
 NSgBfM=  1794  1794  1794  1794  1794 MxSgAt=    72 MxSgA2=    72.
 Leave Link  302 at Fri Oct 24 19:37:25 2025, MaxMem= 30870077440 cpu:             522.3 elap:               8.2
 (Enter /public/software/gauss/g16/l303.exe)
 DipDrv:  MaxL=1.
 Leave Link  303 at Fri Oct 24 19:37:26 2025, MaxMem= 30870077440 cpu:              26.4 elap:               0.5
 (Enter /public/software/gauss/g16/l401.exe)
 ExpMin= 6.06D-02 ExpMax= 3.55D+04 ExpMxC= 1.21D+03 IAcc=3 IRadAn=         5 AccDes= 0.00D+00
 Harris functional with IExCor= 1009 and IRadAn=       5 diagonalized for initial guess.
 HarFok:  IExCor= 1009 AccDes= 0.00D+00 IRadAn=         5 IDoV= 1 UseB2=F ITyADJ=14
 ICtDFT=  3500011 ScaDFX=  1.000000  1.000000  1.000000  1.000000
 FoFCou: FMM=F IPFlag=           0 FMFlag=      100000 FMFlg1=        2001
         NFxFlg=           0 DoJE=T BraDBF=F KetDBF=T FulRan=T
         wScrn=  0.000000 ICntrl=       500 IOpCl=  0 I1Cent=   200000004 NGrid=           0
         NMat0=    1 NMatS0=      1 NMatT0=    0 NMatD0=    1 NMtDS0=    0 NMtDT0=    0
 Petite list used in FoFCou.
 Harris En= -2001.46655870135    
 JPrj=0 DoOrth=F DoCkMO=F.
 Initial guess <Sx>= 0.0000 <Sy>= 0.0000 <Sz>= 0.5000 <S**2>= 0.7500 S= 0.5000
 Leave Link  401 at Fri Oct 24 19:37:36 2025, MaxMem= 30870077440 cpu:             645.1 elap:              10.1
 (Enter /public/software/gauss/g16/l502.exe)
 Integral symmetry usage will be decided dynamically.
 UHF open shell SCF:
 Using DIIS extrapolation, IDIIS=  1040.
 NGot= 30870077440 LenX= 30861900316 LenY= 30857882296
 Requested convergence on RMS density matrix=1.00D-08 within 128 cycles.
 Requested convergence on MAX density matrix=1.00D-06.
 Requested convergence on             energy=1.00D-06.
 No special actions if energy rises.
 Fock matrices will be formed incrementally for  20 cycles.

 Cycle   1  Pass 1  IDiag  1:
 FoFJK:  IHMeth= 1 ICntrl=       0 DoSepK=F KAlg= 0 I1Cent=           0 FoldK=F
 IRaf= 640000000 NMat=       1 IRICut=       1 DoRegI=T DoRafI=F ISym2E= 0 IDoP0=0 IntGTp=1.
 FoFCou: FMM=T IPFlag=           0 FMFlag=      100000 FMFlg1=        2001
         NFxFlg=           0 DoJE=F BraDBF=F KetDBF=F FulRan=T
         wScrn=  0.000000 ICntrl=         0 IOpCl=  1 I1Cent=           0 NGrid=           0
         NMat0=    1 NMatS0=      1 NMatT0=    0 NMatD0=    1 NMtDS0=    0 NMtDT0=    0
 Symmetry not used in FoFCou.
 FMM levels:  10  Number of levels for PrismC:   9
 Inv3:  Mode=1 IEnd=    79413075.
 Iteration    1 A*A^-1 deviation from unit magnitude is 2.13D-14 for   5117.
 Iteration    1 A*A^-1 deviation from orthogonality  is 1.06D-14 for   3253    627.
 Iteration    1 A^-1*A deviation from unit magnitude is 2.13D-14 for   5117.
 Iteration    1 A^-1*A deviation from orthogonality  is 5.64D-15 for   4774   1428.
 E= -2001.27418454525    
 DIIS: error= 2.60D-02 at cycle   1 NSaved=   1.
 NSaved= 1 IEnMin= 1 EnMin= -2001.27418454525     IErMin= 1 ErrMin= 2.60D-02
 ErrMax= 2.60D-02  0.00D+00 EMaxC= 1.00D-01 BMatC= 5.72D+00 BMatP= 5.72D+00
 IDIUse=3 WtCom= 7.40D-01 WtEn= 2.60D-01
 Coeff-Com:  0.100D+01
 Coeff-En:   0.100D+01
 Coeff:      0.100D+01
 Gap=     0.083 Goal=   None    Shift=    0.000
 Gap=     0.119 Goal=   None    Shift=    0.000
 GapD=    0.083 DampG=0.500 DampE=0.500 DampFc=0.2500 IDamp=-1.
 Damping current iteration by 2.50D-01
 RMSDP=1.87D-03 MaxDP=6.15D-01              OVMax= 7.70D-01

 Cycle   2  Pass 1  IDiag  1:
 RMSU=  4.66D-04    CP:  9.96D-01
 E= -2001.65368421519     Delta-E=       -0.379499669933 Rises=F Damp=T
 DIIS: error= 1.07D-02 at cycle   2 NSaved=   2.
 NSaved= 2 IEnMin= 2 EnMin= -2001.65368421519     IErMin= 2 ErrMin= 1.07D-02
 ErrMax= 1.07D-02  0.00D+00 EMaxC= 1.00D-01 BMatC= 1.96D+00 BMatP= 5.72D+00
 IDIUse=3 WtCom= 8.93D-01 WtEn= 1.07D-01
 Coeff-Com: -0.107D+01 0.207D+01
 Coeff-En:   0.000D+00 0.100D+01
 Coeff:     -0.954D+00 0.195D+01
 Gap=     0.015 Goal=   None    Shift=    0.000
 Gap=     0.198 Goal=   None    Shift=    0.000
 RMSDP=1.03D-03 MaxDP=2.06D-01 DE=-3.79D-01 OVMax= 7.02D-01

 Cycle   3  Pass 1  IDiag  1:
 RMSU=  8.30D-04    CP:  9.90D-01  2.32D+00
 E= -2002.30759913039     Delta-E=       -0.653914915203 Rises=F Damp=F
 DIIS: error= 1.37D-02 at cycle   3 NSaved=   3.
 NSaved= 3 IEnMin= 3 EnMin= -2002.30759913039     IErMin= 2 ErrMin= 1.07D-02
 ErrMax= 1.37D-02  0.00D+00 EMaxC= 1.00D-01 BMatC= 3.58D-01 BMatP= 1.96D+00
 IDIUse=3 WtCom= 8.63D-01 WtEn= 1.37D-01
 Coeff-Com: -0.553D+00 0.953D+00 0.600D+00
 Coeff-En:   0.000D+00 0.000D+00 0.100D+01
 Coeff:     -0.477D+00 0.822D+00 0.655D+00
 Gap=     0.054 Goal=   None    Shift=    0.000
 Gap=     0.130 Goal=   None    Shift=    0.000
 RMSDP=3.43D-04 MaxDP=8.95D-02 DE=-6.54D-01 OVMax= 3.01D-01

 Cycle   4  Pass 1  IDiag  1:
 RMSU=  2.98D-04    CP:  9.81D-01  2.27D+00  8.01D-01
 E= -2002.36872962160     Delta-E=       -0.061130491207 Rises=F Damp=F
 DIIS: error= 7.05D-03 at cycle   4 NSaved=   4.
 NSaved= 4 IEnMin= 4 EnMin= -2002.36872962160     IErMin= 4 ErrMin= 7.05D-03
 ErrMax= 7.05D-03  0.00D+00 EMaxC= 1.00D-01 BMatC= 8.78D-02 BMatP= 3.58D-01
 IDIUse=3 WtCom= 9.30D-01 WtEn= 7.05D-02
 Coeff-Com: -0.956D-01 0.156D+00 0.348D+00 0.592D+00
 Coeff-En:   0.000D+00 0.000D+00 0.188D+00 0.812D+00
 Coeff:     -0.889D-01 0.145D+00 0.337D+00 0.607D+00
 Gap=     0.072 Goal=   None    Shift=    0.000
 Gap=     0.137 Goal=   None    Shift=    0.000
 RMSDP=1.38D-04 MaxDP=5.65D-02 DE=-6.11D-02 OVMax= 1.03D-01

 Cycle   5  Pass 1  IDiag  1:
 RMSU=  1.01D-04    CP:  9.84D-01  2.29D+00  8.70D-01  7.52D-01
 E= -2002.38699041378     Delta-E=       -0.018260792184 Rises=F Damp=F
 DIIS: error= 6.64D-04 at cycle   5 NSaved=   5.
 NSaved= 5 IEnMin= 5 EnMin= -2002.38699041378     IErMin= 5 ErrMin= 6.64D-04
 ErrMax= 6.64D-04  0.00D+00 EMaxC= 1.00D-01 BMatC= 5.42D-03 BMatP= 8.78D-02
 IDIUse=3 WtCom= 9.93D-01 WtEn= 6.64D-03
 Coeff-Com: -0.136D-01 0.200D-01 0.140D+00 0.313D+00 0.541D+00
 Coeff-En:   0.000D+00 0.000D+00 0.000D+00 0.000D+00 0.100D+01
 Coeff:     -0.135D-01 0.198D-01 0.139D+00 0.311D+00 0.544D+00
 Gap=     0.076 Goal=   None    Shift=    0.000
 Gap=     0.131 Goal=   None    Shift=    0.000
 RMSDP=5.66D-05 MaxDP=2.16D-02 DE=-1.83D-02 OVMax= 3.54D-02

 Cycle   6  Pass 1  IDiag  1:
 RMSU=  4.50D-05    CP:  9.82D-01  2.26D+00  8.53D-01  8.45D-01  9.29D-01
 E= -2002.38865736502     Delta-E=       -0.001666951241 Rises=F Damp=F
 DIIS: error= 2.90D-04 at cycle   6 NSaved=   6.
 NSaved= 6 IEnMin= 6 EnMin= -2002.38865736502     IErMin= 6 ErrMin= 2.90D-04
 ErrMax= 2.90D-04  0.00D+00 EMaxC= 1.00D-01 BMatC= 6.97D-04 BMatP= 5.42D-03
 IDIUse=3 WtCom= 9.97D-01 WtEn= 2.90D-03
 Coeff-Com:  0.594D-02-0.973D-02 0.113D-01 0.308D-01 0.248D+00 0.714D+00
 Coeff-En:   0.000D+00 0.000D+00 0.000D+00 0.000D+00 0.000D+00 0.100D+01
 Coeff:      0.592D-02-0.970D-02 0.113D-01 0.307D-01 0.247D+00 0.714D+00
 Gap=     0.079 Goal=   None    Shift=    0.000
 Gap=     0.132 Goal=   None    Shift=    0.000
 RMSDP=3.43D-05 MaxDP=1.23D-02 DE=-1.67D-03 OVMax= 2.70D-02

 Cycle   7  Pass 1  IDiag  1:
 RMSU=  2.25D-05    CP:  9.83D-01  2.27D+00  8.59D-01  8.54D-01  1.16D+00
                    CP:  1.18D+00
 E= -2002.38912602033     Delta-E=       -0.000468655305 Rises=F Damp=F
 DIIS: error= 2.32D-04 at cycle   7 NSaved=   7.
 NSaved= 7 IEnMin= 7 EnMin= -2002.38912602033     IErMin= 7 ErrMin= 2.32D-04
 ErrMax= 2.32D-04  0.00D+00 EMaxC= 1.00D-01 BMatC= 1.58D-04 BMatP= 6.97D-04
 IDIUse=3 WtCom= 9.98D-01 WtEn= 2.32D-03
 Coeff-Com:  0.446D-02-0.658D-02-0.182D-01-0.547D-01 0.536D-03 0.244D+00
 Coeff-Com:  0.831D+00
 Coeff-En:   0.000D+00 0.000D+00 0.000D+00 0.000D+00 0.000D+00 0.000D+00
 Coeff-En:   0.100D+01
 Coeff:      0.445D-02-0.656D-02-0.181D-01-0.546D-01 0.535D-03 0.243D+00
 Coeff:      0.831D+00
 Gap=     0.082 Goal=   None    Shift=    0.000
 Gap=     0.134 Goal=   None    Shift=    0.000
 RMSDP=2.67D-05 MaxDP=5.26D-03 DE=-4.69D-04 OVMax= 2.85D-02

 Cycle   8  Pass 1  IDiag  1:
 RMSU=  1.05D-05    CP:  9.83D-01  2.27D+00  8.58D-01  8.81D-01  1.26D+00
                    CP:  1.47D+00  1.72D+00
 E= -2002.38938694250     Delta-E=       -0.000260922178 Rises=F Damp=F
 DIIS: error= 2.55D-04 at cycle   8 NSaved=   8.
 NSaved= 8 IEnMin= 8 EnMin= -2002.38938694250     IErMin= 7 ErrMin= 2.32D-04
 ErrMax= 2.55D-04  0.00D+00 EMaxC= 1.00D-01 BMatC= 9.31D-05 BMatP= 1.58D-04
 IDIUse=3 WtCom= 9.98D-01 WtEn= 2.32D-03
 Coeff-Com:  0.397D-03-0.953D-04-0.148D-02-0.241D-01-0.368D-01-0.114D+00
 Coeff-Com:  0.289D+00 0.888D+00
 Coeff-En:   0.000D+00 0.000D+00 0.000D+00 0.000D+00 0.000D+00 0.000D+00
 Coeff-En:   0.000D+00 0.100D+01
 Coeff:      0.397D-03-0.951D-04-0.148D-02-0.240D-01-0.368D-01-0.114D+00
 Coeff:      0.288D+00 0.888D+00
 Gap=     0.083 Goal=   None    Shift=    0.000
 Gap=     0.134 Goal=   None    Shift=    0.000
 RMSDP=2.42D-05 MaxDP=3.39D-03 DE=-2.61D-04 OVMax= 2.94D-02

 Cycle   9  Pass 1  IDiag  1:
 RMSU=  7.60D-06    CP:  9.83D-01  2.27D+00  8.58D-01  8.93D-01  1.33D+00
                    CP:  1.64D+00  2.50D+00  1.98D+00
 E= -2002.38959169862     Delta-E=       -0.000204756112 Rises=F Damp=F
 DIIS: error= 2.74D-04 at cycle   9 NSaved=   9.
 NSaved= 9 IEnMin= 9 EnMin= -2002.38959169862     IErMin= 7 ErrMin= 2.32D-04
 ErrMax= 2.74D-04  0.00D+00 EMaxC= 1.00D-01 BMatC= 7.98D-05 BMatP= 9.31D-05
 IDIUse=3 WtCom= 9.98D-01 WtEn= 2.32D-03
 Coeff-Com:  0.649D-03-0.540D-03 0.821D-02-0.802D-04 0.774D-02-0.975D-01
 Coeff-Com: -0.402D-01 0.223D+00 0.898D+00
 Coeff-En:   0.000D+00 0.000D+00 0.000D+00 0.000D+00 0.000D+00 0.000D+00
 Coeff-En:   0.000D+00 0.000D+00 0.100D+01
 Coeff:      0.647D-03-0.538D-03 0.819D-02-0.800D-04 0.772D-02-0.972D-01
 Coeff:     -0.401D-01 0.223D+00 0.899D+00
 Gap=     0.083 Goal=   None    Shift=    0.000
 Gap=     0.134 Goal=   None    Shift=    0.000
 RMSDP=2.06D-05 MaxDP=2.56D-03 DE=-2.05D-04 OVMax= 2.75D-02

 Cycle  10  Pass 1  IDiag  1:
 RMSU=  4.08D-06    CP:  9.83D-01  2.27D+00  8.55D-01  9.01D-01  1.35D+00
                    CP:  1.74D+00  3.00D+00  3.00D+00  2.16D+00
 E= -2002.38976880152     Delta-E=       -0.000177102907 Rises=F Damp=F
 DIIS: error= 2.74D-04 at cycle  10 NSaved=  10.
 NSaved=10 IEnMin=10 EnMin= -2002.38976880152     IErMin= 7 ErrMin= 2.32D-04
 ErrMax= 2.74D-04  0.00D+00 EMaxC= 1.00D-01 BMatC= 8.72D-05 BMatP= 7.98D-05
 IDIUse=3 WtCom= 9.98D-01 WtEn= 2.32D-03
 Coeff-Com:  0.851D-03-0.855D-03 0.825D-02 0.168D-03 0.137D-01-0.761D-01
 Coeff-Com: -0.387D-01 0.111D+00 0.768D+00 0.214D+00
 Coeff-En:   0.000D+00 0.000D+00 0.000D+00 0.000D+00 0.000D+00 0.000D+00
 Coeff-En:   0.000D+00 0.000D+00 0.000D+00 0.100D+01
 Coeff:      0.849D-03-0.853D-03 0.823D-02 0.167D-03 0.137D-01-0.759D-01
 Coeff:     -0.387D-01 0.111D+00 0.766D+00 0.216D+00
 Gap=     0.084 Goal=   None    Shift=    0.000
 Gap=     0.134 Goal=   None    Shift=    0.000
 RMSDP=5.14D-06 MaxDP=6.20D-04 DE=-1.77D-04 OVMax= 6.81D-03

 Cycle  11  Pass 1  IDiag  1:
 RMSU=  3.37D-06    CP:  9.83D-01  2.27D+00  8.54D-01  9.02D-01  1.35D+00
                    CP:  1.76D+00  3.00D+00  3.00D+00  2.51D+00  1.66D+00
 E= -2002.38981312225     Delta-E=       -0.000044320729 Rises=F Damp=F
 DIIS: error= 2.77D-04 at cycle  11 NSaved=  11.
 NSaved=11 IEnMin=11 EnMin= -2002.38981312225     IErMin= 7 ErrMin= 2.32D-04
 ErrMax= 2.77D-04  0.00D+00 EMaxC= 1.00D-01 BMatC= 8.68D-05 BMatP= 7.98D-05
 IDIUse=3 WtCom= 9.98D-01 WtEn= 2.32D-03
 Coeff-Com:  0.648D-03-0.548D-03 0.931D-02 0.275D-02 0.140D-01-0.916D-01
 Coeff-Com: -0.758D-01 0.121D+00 0.969D+00 0.143D+01-0.137D+01
 Coeff-En:   0.000D+00 0.000D+00 0.000D+00 0.000D+00 0.000D+00 0.000D+00
 Coeff-En:   0.000D+00 0.000D+00 0.000D+00 0.000D+00 0.100D+01
 Coeff:      0.646D-03-0.547D-03 0.929D-02 0.275D-02 0.139D-01-0.914D-01
 Coeff:     -0.757D-01 0.120D+00 0.967D+00 0.142D+01-0.137D+01
 Gap=     0.084 Goal=   None    Shift=    0.000
 Gap=     0.134 Goal=   None    Shift=    0.000
 RMSDP=8.57D-06 MaxDP=1.01D-03 DE=-4.43D-05 OVMax= 1.15D-02

 Cycle  12  Pass 1  IDiag  1:
 RMSU=  6.57D-07    CP:  9.83D-01  2.27D+00  8.56D-01  9.00D-01  1.35D+00
                    CP:  1.74D+00  3.00D+00  2.86D+00  1.89D+00  5.72D-01
                    CP: -2.24D-01
 E= -2002.38973920818     Delta-E=        0.000073914068 Rises=F Damp=F
 DIIS: error= 2.77D-04 at cycle  12 NSaved=  12.
 NSaved=12 IEnMin=11 EnMin= -2002.38981312225     IErMin= 7 ErrMin= 2.32D-04
 ErrMax= 2.77D-04  0.00D+00 EMaxC= 1.00D-01 BMatC= 8.59D-05 BMatP= 7.98D-05
 IDIUse=3 WtCom= 9.98D-01 WtEn= 2.32D-03
 Large coefficients: NSaved= 12 BigCof=   11.37 CofMax=   10.00 Det=-3.21D-08
 Inversion failed.  Reducing to 11 matrices.
 Large coefficients: NSaved= 11 BigCof=   11.65 CofMax=   10.00 Det=-3.22D-08
 Inversion failed.  Reducing to 10 matrices.
 Large coefficients: NSaved= 10 BigCof=   12.17 CofMax=   10.00 Det=-1.05D-08
 Inversion failed.  Reducing to  9 matrices.
 Rare condition: small coef for last iteration:  0.000D+00
 Coeff-Com: -0.193D-01-0.973D-02-0.596D-01 0.103D+00 0.200D+00 0.580D+00
 Coeff-Com:  0.128D+01-0.481D+01 0.374D+01
 Coeff-En:   0.000D+00 0.000D+00 0.000D+00 0.000D+00 0.000D+00 0.000D+00
 Coeff-En:   0.000D+00 0.000D+00 0.100D+01
 Coeff:     -0.193D-01-0.973D-02-0.596D-01 0.103D+00 0.200D+00 0.580D+00
 Coeff:      0.128D+01-0.481D+01 0.374D+01
 Gap=     0.083 Goal=   None    Shift=    0.000
 Gap=     0.134 Goal=   None    Shift=    0.000
 RMSDP=3.41D-05 MaxDP=3.98D-03 DE= 7.39D-05 OVMax= 4.58D-02

 Cycle  13  Pass 1  IDiag  1:
 RMSU=  4.52D-06    CP:  9.82D-01  2.27D+00  8.60D-01  8.94D-01  1.35D+00
                    CP:  1.66D+00  2.20D+00  1.07D+00 -5.75D-01 -1.24D+00
                    CP:  5.27D-01  9.37D-01
 E= -2002.38944933655     Delta-E=        0.000289871636 Rises=F Damp=F
 DIIS: error= 2.48D-04 at cycle  13 NSaved=  10.
 NSaved=10 IEnMin= 8 EnMin= -2002.38981312225     IErMin= 4 ErrMin= 2.32D-04
 ErrMax= 2.48D-04  0.00D+00 EMaxC= 1.00D-01 BMatC= 7.34D-05 BMatP= 7.98D-05
 IDIUse=3 WtCom= 9.98D-01 WtEn= 2.32D-03
 Rare condition: small coef for last iteration:  0.000D+00
 Coeff-Com: -0.121D-01 0.429D-01 0.102D+00 0.112D+00-0.493D+00-0.357D+00
 Coeff-Com: -0.466D+00-0.997D+01 0.991D+01 0.213D+01
 Coeff-En:   0.000D+00 0.000D+00 0.000D+00 0.000D+00 0.000D+00 0.000D+00
 Coeff-En:   0.000D+00 0.000D+00 0.000D+00 0.100D+01
 Coeff:     -0.121D-01 0.429D-01 0.102D+00 0.112D+00-0.493D+00-0.357D+00
 Coeff:     -0.466D+00-0.997D+01 0.991D+01 0.213D+01
 Gap=     0.085 Goal=   None    Shift=    0.000
 Gap=     0.134 Goal=   None    Shift=    0.000
 RMSDP=9.60D-05 MaxDP=1.02D-02 DE= 2.90D-04 OVMax= 1.26D-01

 Cycle  14  Pass 1  IDiag  1:
 RMSU=  4.26D-05    CP:  9.82D-01  2.26D+00  8.69D-01  8.64D-01  1.36D+00
                    CP:  1.43D+00  6.14D-02 -3.00D+00 -3.00D+00 -3.00D+00
                    CP:  1.16D+00 -3.00D+00  3.00D+00
 E= -2002.38864121090     Delta-E=        0.000808125646 Rises=F Damp=F
 DIIS: error= 3.66D-04 at cycle  14 NSaved=  11.
 NSaved=11 IEnMin= 8 EnMin= -2002.38981312225     IErMin= 4 ErrMin= 2.32D-04
 ErrMax= 3.66D-04  0.00D+00 EMaxC= 1.00D-01 BMatC= 1.42D-04 BMatP= 7.34D-05
 IDIUse=3 WtCom= 9.98D-01 WtEn= 2.32D-03
 Rare condition: small coef for last iteration:  0.000D+00
 Coeff-Com: -0.797D-02 0.318D-01 0.366D-01-0.814D-02-0.454D+00 0.186D-01
 Coeff-Com:  0.110D+01-0.879D+01 0.834D+01 0.153D+01-0.809D+00
 Coeff-En:   0.000D+00 0.000D+00 0.000D+00 0.000D+00 0.000D+00 0.000D+00
 Coeff-En:   0.000D+00 0.000D+00 0.000D+00 0.000D+00 0.100D+01
 Coeff:     -0.797D-02 0.318D-01 0.366D-01-0.814D-02-0.454D+00 0.186D-01
 Coeff:      0.110D+01-0.879D+01 0.834D+01 0.153D+01-0.809D+00
 Gap=     0.080 Goal=   None    Shift=    0.000
 Gap=     0.136 Goal=   None    Shift=    0.000
 RMSDP=1.42D-04 MaxDP=1.56D-02 DE= 8.08D-04 OVMax= 1.88D-01

 Cycle  15  Pass 1  IDiag  1:
 RMSU=  4.31D-06    CP:  9.83D-01  2.27D+00  8.55D-01  9.07D-01  1.38D+00
                    CP:  1.82D+00  3.00D+00  3.00D+00  2.46D+00  2.30D+00
                    CP:  2.15D+00 -2.54D+00  4.21D-01 -3.61D-03
 E= -2002.38984248852     Delta-E=       -0.001201277621 Rises=F Damp=F
 DIIS: error= 3.05D-04 at cycle  15 NSaved=  12.
 NSaved=12 IEnMin=12 EnMin= -2002.38984248852     IErMin= 4 ErrMin= 2.32D-04
 ErrMax= 3.05D-04  0.00D+00 EMaxC= 1.00D-01 BMatC= 1.08D-04 BMatP= 7.34D-05
 IDIUse=3 WtCom= 9.98D-01 WtEn= 2.32D-03
 Coeff-Com: -0.545D-02 0.334D-01 0.466D-01-0.916D-02-0.467D+00-0.282D-01
 Coeff-Com:  0.148D+01-0.986D+01 0.896D+01 0.153D+01-0.123D+01 0.564D+00
 Coeff-En:   0.000D+00 0.000D+00 0.000D+00 0.000D+00 0.000D+00 0.000D+00
 Coeff-En:   0.000D+00 0.000D+00 0.000D+00 0.000D+00 0.000D+00 0.100D+01
 Coeff:     -0.544D-02 0.333D-01 0.465D-01-0.914D-02-0.466D+00-0.281D-01
 Coeff:      0.147D+01-0.984D+01 0.894D+01 0.152D+01-0.123D+01 0.565D+00
 Gap=     0.088 Goal=   None    Shift=    0.000
 Gap=     0.134 Goal=   None    Shift=    0.000
 RMSDP=5.27D-05 MaxDP=6.01D-03 DE=-1.20D-03 OVMax= 6.74D-02

 Cycle  16  Pass 1  IDiag  1:
 RMSU=  3.61D-05    CP:  9.83D-01  2.28D+00  8.50D-01  9.09D-01  1.38D+00
                    CP:  1.95D+00  3.00D+00  3.00D+00  3.00D+00  3.00D+00
                    CP:  3.00D+00 -1.79D+00  9.95D-02 -6.93D-01  1.61D+00
 E= -2002.39028711729     Delta-E=       -0.000444628763 Rises=F Damp=F
 DIIS: error= 2.77D-04 at cycle  16 NSaved=  13.
 NSaved=13 IEnMin=13 EnMin= -2002.39028711729     IErMin= 4 ErrMin= 2.32D-04
 ErrMax= 2.77D-04  0.00D+00 EMaxC= 1.00D-01 BMatC= 8.94D-05 BMatP= 7.34D-05
 IDIUse=3 WtCom= 9.98D-01 WtEn= 2.32D-03
 Coeff-Com: -0.418D-02 0.266D-01 0.968D-01 0.109D+00-0.178D+00-0.313D-01
 Coeff-Com:  0.156D+01-0.760D+01 0.586D+01 0.132D+01-0.110D+01-0.119D+01
 Coeff-Com:  0.213D+01
 Coeff-En:   0.000D+00 0.000D+00 0.000D+00 0.000D+00 0.000D+00 0.000D+00
 Coeff-En:   0.000D+00 0.000D+00 0.000D+00 0.000D+00 0.000D+00 0.000D+00
 Coeff-En:   0.100D+01
 Coeff:     -0.417D-02 0.265D-01 0.965D-01 0.109D+00-0.178D+00-0.313D-01
 Coeff:      0.156D+01-0.758D+01 0.585D+01 0.131D+01-0.109D+01-0.119D+01
 Coeff:      0.212D+01
 Gap=     0.091 Goal=   None    Shift=    0.000
 Gap=     0.133 Goal=   None    Shift=    0.000
 RMSDP=1.00D-04 MaxDP=1.33D-02 DE=-4.45D-04 OVMax= 1.25D-01

 Cycle  17  Pass 1  IDiag  1:
 RMSU=  1.38D-05    CP:  9.83D-01  2.29D+00  8.41D-01  8.85D-01  1.30D+00
                    CP:  2.02D+00  3.00D+00  3.00D+00  3.00D+00  3.00D+00
                    CP:  3.00D+00  3.00D+00 -6.23D-01 -2.18D+00  1.97D+00
                    CP:  3.00D+00
 E= -2002.39105557184     Delta-E=       -0.000768454557 Rises=F Damp=F
 DIIS: error= 1.62D-04 at cycle  17 NSaved=  14.
 NSaved=14 IEnMin=14 EnMin= -2002.39105557184     IErMin=14 ErrMin= 1.62D-04
 ErrMax= 1.62D-04  0.00D+00 EMaxC= 1.00D-01 BMatC= 4.33D-05 BMatP= 7.34D-05
 IDIUse=3 WtCom= 9.98D-01 WtEn= 1.62D-03
 Coeff-Com: -0.355D-03-0.152D-01-0.351D-01-0.710D-01 0.148D+00 0.672D+00
 Coeff-Com:  0.344D+01 0.844D+00-0.309D+01-0.496D+00-0.889D+00 0.766D+00
 Coeff-Com: -0.203D+01 0.176D+01
 Coeff-En:   0.000D+00 0.000D+00 0.000D+00 0.000D+00 0.000D+00 0.000D+00
 Coeff-En:   0.000D+00 0.000D+00 0.000D+00 0.000D+00 0.000D+00 0.000D+00
 Coeff-En:   0.000D+00 0.100D+01
 Coeff:     -0.354D-03-0.152D-01-0.350D-01-0.709D-01 0.148D+00 0.671D+00
 Coeff:      0.343D+01 0.842D+00-0.308D+01-0.496D+00-0.888D+00 0.765D+00
 Coeff:     -0.203D+01 0.176D+01
 Gap=     0.103 Goal=   None    Shift=    0.000
 Gap=     0.132 Goal=   None    Shift=    0.000
 RMSDP=1.38D-04 MaxDP=2.23D-02 DE=-7.68D-04 OVMax= 1.52D-01

 Cycle  18  Pass 1  IDiag  1:
 RMSU=  1.07D-04    CP:  9.85D-01  2.30D+00  8.37D-01  7.89D-01  1.17D+00
                    CP:  1.99D+00  3.00D+00  3.00D+00  3.00D+00  3.00D+00
                    CP:  3.00D+00  3.00D+00 -6.75D-01 -3.00D+00  1.14D+00
                    CP:  3.00D+00  3.00D+00
 E= -2002.39139012263     Delta-E=       -0.000334550786 Rises=F Damp=F
 DIIS: error= 4.71D-04 at cycle  18 NSaved=  15.
 NSaved=15 IEnMin=15 EnMin= -2002.39139012263     IErMin=14 ErrMin= 1.62D-04
 ErrMax= 4.71D-04  0.00D+00 EMaxC= 1.00D-01 BMatC= 4.47D-04 BMatP= 4.33D-05
 IDIUse=3 WtCom= 9.98D-01 WtEn= 1.62D-03
 Coeff-Com:  0.118D-02-0.110D-02-0.662D-02-0.672D-01-0.117D+00-0.895D-01
 Coeff-Com: -0.761D+00 0.385D+01-0.214D+01-0.179D+00 0.238D+00 0.437D+01
 Coeff-Com: -0.549D+01 0.944D+00 0.449D+00
 Coeff-En:   0.000D+00 0.000D+00 0.000D+00 0.000D+00 0.000D+00 0.000D+00
 Coeff-En:   0.000D+00 0.000D+00 0.000D+00 0.000D+00 0.000D+00 0.000D+00
 Coeff-En:   0.000D+00 0.000D+00 0.100D+01
 Coeff:      0.118D-02-0.110D-02-0.660D-02-0.671D-01-0.117D+00-0.894D-01
 Coeff:     -0.760D+00 0.384D+01-0.214D+01-0.178D+00 0.237D+00 0.437D+01
 Coeff:     -0.548D+01 0.942D+00 0.450D+00
 Gap=     0.060 Goal=   None    Shift=    0.000
 Gap=     0.135 Goal=   None    Shift=    0.000
 RMSDP=2.91D-04 MaxDP=3.77D-02 DE=-3.35D-04 OVMax= 3.41D-01

 Cycle  19  Pass 1  IDiag  1:
 RMSU=  7.66D-06    CP:  9.83D-01  2.28D+00  8.51D-01  8.93D-01  1.25D+00
                    CP:  1.57D+00  2.87D+00  3.00D+00  3.00D+00  1.49D+00
                    CP:  2.03D-01  3.00D+00 -9.90D-01 -3.98D-02 -2.31D+00
                    CP:  3.83D-03  1.77D-01 -9.80D-03
 E= -2002.38976651915     Delta-E=        0.001623603479 Rises=F Damp=F
 DIIS: error= 3.11D-04 at cycle  19 NSaved=  16.
 NSaved=16 IEnMin=15 EnMin= -2002.39139012263     IErMin=14 ErrMin= 1.62D-04
 ErrMax= 3.11D-04  0.00D+00 EMaxC= 1.00D-01 BMatC= 2.03D-04 BMatP= 4.33D-05
 IDIUse=3 WtCom= 9.98D-01 WtEn= 1.62D-03
 Rare condition: small coef for last iteration:  0.000D+00
 Coeff-Com:  0.394D-02 0.242D-02 0.413D-02-0.738D-01-0.192D+00-0.210D+00
 Coeff-Com: -0.442D+00 0.828D+00 0.624D-01-0.141D+00 0.345D+00 0.326D+01
 Coeff-Com: -0.394D+01 0.539D+00 0.541D+00 0.416D+00
 Coeff-En:   0.000D+00 0.000D+00 0.000D+00 0.000D+00 0.000D+00 0.000D+00
 Coeff-En:   0.000D+00 0.000D+00 0.000D+00 0.000D+00 0.000D+00 0.000D+00
 Coeff-En:   0.000D+00 0.000D+00 0.000D+00 0.100D+01
 Coeff:      0.394D-02 0.242D-02 0.413D-02-0.738D-01-0.192D+00-0.210D+00
 Coeff:     -0.442D+00 0.828D+00 0.624D-01-0.141D+00 0.345D+00 0.326D+01
 Coeff:     -0.394D+01 0.539D+00 0.541D+00 0.416D+00
 Gap=     0.075 Goal=   None    Shift=    0.000
 Gap=     0.134 Goal=   None    Shift=    0.000
 RMSDP=1.51D-05 MaxDP=1.84D-03 DE= 1.62D-03 OVMax= 2.05D-02

 Cycle  20  Pass 1  IDiag  1:
 RMSU=  3.97D-06    CP:  9.83D-01  2.28D+00  8.49D-01  8.94D-01  1.23D+00
                    CP:  1.57D+00  3.00D+00  3.00D+00  3.00D+00  3.00D+00
                    CP:  2.32D+00  3.00D+00 -1.60D+00 -2.09D-01 -2.64D+00
                    CP:  7.21D-03  4.66D-01 -1.80D-02  1.24D+00
 E= -2002.38988406664     Delta-E=       -0.000117547490 Rises=F Damp=F
 DIIS: error= 3.37D-04 at cycle  20 NSaved=  17.
 NSaved=17 IEnMin=15 EnMin= -2002.39139012263     IErMin=14 ErrMin= 1.62D-04
 ErrMax= 3.37D-04  0.00D+00 EMaxC= 1.00D-01 BMatC= 2.30D-04 BMatP= 4.33D-05
 IDIUse=3 WtCom= 9.98D-01 WtEn= 1.62D-03
 Coeff-Com:  0.260D-02 0.466D-02 0.688D-02-0.494D-01-0.205D+00-0.292D+00
 Coeff-Com: -0.965D+00-0.121D+00 0.116D+01 0.179D-01 0.632D+00 0.172D+01
 Coeff-Com: -0.223D+01 0.485D-01 0.615D+00-0.180D+00 0.842D+00
 Coeff-En:   0.000D+00 0.000D+00 0.000D+00 0.000D+00 0.000D+00 0.000D+00
 Coeff-En:   0.000D+00 0.000D+00 0.000D+00 0.000D+00 0.000D+00 0.000D+00
 Coeff-En:   0.000D+00 0.000D+00 0.000D+00 0.000D+00 0.100D+01
 Coeff:      0.259D-02 0.466D-02 0.687D-02-0.493D-01-0.204D+00-0.292D+00
 Coeff:     -0.963D+00-0.120D+00 0.115D+01 0.179D-01 0.631D+00 0.171D+01
 Coeff:     -0.223D+01 0.484D-01 0.614D+00-0.180D+00 0.842D+00
 Gap=     0.074 Goal=   None    Shift=    0.000
 Gap=     0.134 Goal=   None    Shift=    0.000
 RMSDP=5.55D-06 MaxDP=1.14D-03 DE=-1.18D-04 OVMax= 6.11D-03

 Cycle  21  Pass 1  IDiag  1:
 Restarting incremental Fock formation.
 E= -2002.38983190559     Delta-E=        0.000052161045 Rises=F Damp=F
 DIIS: error= 3.34D-04 at cycle  21 NSaved=  18.
 NSaved=18 IEnMin=15 EnMin= -2002.39139012263     IErMin=14 ErrMin= 1.62D-04
 ErrMax= 3.34D-04  0.00D+00 EMaxC= 1.00D-01 BMatC= 2.35D-04 BMatP= 4.33D-05
 IDIUse=3 WtCom= 9.98D-01 WtEn= 1.62D-03
 Rare condition: small coef for last iteration:  0.000D+00
 Coeff-Com:  0.225D-02 0.418D-02 0.674D-02-0.459D-01-0.194D+00-0.316D+00
 Coeff-Com: -0.123D+01 0.480D+00 0.799D+00 0.226D-01 0.704D+00 0.161D+01
 Coeff-Com: -0.216D+01 0.804D-01 0.606D+00-0.319D+00 0.473D+00 0.475D+00
 Coeff-En:   0.000D+00 0.000D+00 0.000D+00 0.000D+00 0.000D+00 0.000D+00
 Coeff-En:   0.000D+00 0.000D+00 0.000D+00 0.000D+00 0.000D+00 0.000D+00
 Coeff-En:   0.000D+00 0.000D+00 0.000D+00 0.000D+00 0.000D+00 0.100D+01
 Coeff:      0.225D-02 0.418D-02 0.674D-02-0.459D-01-0.194D+00-0.316D+00
 Coeff:     -0.123D+01 0.480D+00 0.799D+00 0.226D-01 0.704D+00 0.161D+01
 Coeff:     -0.216D+01 0.804D-01 0.606D+00-0.319D+00 0.473D+00 0.475D+00
 Gap=     0.074 Goal=   None    Shift=    0.000
 Gap=     0.134 Goal=   None    Shift=    0.000
 RMSDP=1.20D-06 MaxDP=3.41D-04 DE= 5.22D-05 OVMax= 6.88D-04

 Cycle  22  Pass 1  IDiag  1:
 RMSU=  1.20D-06    CP:  1.00D+00
 E= -2002.38982450990     Delta-E=        0.000007395693 Rises=F Damp=F
 DIIS: error= 3.36D-04 at cycle  22 NSaved=  19.
 NSaved=19 IEnMin=15 EnMin= -2002.39139012263     IErMin=14 ErrMin= 1.62D-04
 ErrMax= 3.36D-04  0.00D+00 EMaxC= 1.00D-01 BMatC= 2.40D-04 BMatP= 4.33D-05
 IDIUse=3 WtCom= 9.98D-01 WtEn= 1.62D-03
 Rare condition: small coef for last iteration:  0.000D+00
 Coeff-Com:  0.224D-02 0.396D-02 0.682D-02-0.464D-01-0.190D+00-0.321D+00
 Coeff-Com: -0.127D+01 0.661D+00 0.671D+00 0.173D-01 0.710D+00 0.166D+01
 Coeff-Com: -0.223D+01 0.123D+00 0.599D+00-0.320D+00 0.323D+00 0.240D+00
 Coeff-Com:  0.358D+00
 Coeff-En:   0.000D+00 0.000D+00 0.000D+00 0.000D+00 0.000D+00 0.000D+00
 Coeff-En:   0.000D+00 0.000D+00 0.000D+00 0.000D+00 0.000D+00 0.000D+00
 Coeff-En:   0.000D+00 0.000D+00 0.000D+00 0.000D+00 0.000D+00 0.000D+00
 Coeff-En:   0.100D+01
 Coeff:      0.224D-02 0.396D-02 0.682D-02-0.464D-01-0.190D+00-0.321D+00
 Coeff:     -0.127D+01 0.661D+00 0.671D+00 0.173D-01 0.710D+00 0.166D+01
 Coeff:     -0.223D+01 0.123D+00 0.599D+00-0.320D+00 0.323D+00 0.240D+00
 Coeff:      0.358D+00
 Gap=     0.074 Goal=   None    Shift=    0.000
 Gap=     0.134 Goal=   None    Shift=    0.000
 RMSDP=7.25D-07 MaxDP=9.88D-05 DE= 7.40D-06 OVMax= 9.71D-04

 Cycle  23  Pass 1  IDiag  1:
 RMSU=  7.12D-07    CP:  1.00D+00  1.12D+00
 E= -2002.38982915773     Delta-E=       -0.000004647828 Rises=F Damp=F
 DIIS: error= 3.38D-04 at cycle  23 NSaved=  20.
 NSaved=20 IEnMin=15 EnMin= -2002.39139012263     IErMin=14 ErrMin= 1.62D-04
 ErrMax= 3.38D-04  0.00D+00 EMaxC= 1.00D-01 BMatC= 2.42D-04 BMatP= 4.33D-05
 IDIUse=3 WtCom= 9.98D-01 WtEn= 1.62D-03
 Coeff-Com:  0.232D-02 0.269D-02 0.360D-02-0.511D-01-0.178D+00-0.287D+00
 Coeff-Com: -0.107D+01 0.653D+00 0.535D+00-0.272D-01 0.626D+00 0.172D+01
 Coeff-Com: -0.228D+01 0.180D+00 0.598D+00-0.175D+00 0.483D+00-0.870D+00
 Coeff-Com: -0.599D+01 0.713D+01
 Coeff-En:   0.000D+00 0.000D+00 0.000D+00 0.000D+00 0.000D+00 0.000D+00
 Coeff-En:   0.000D+00 0.000D+00 0.000D+00 0.000D+00 0.000D+00 0.000D+00
 Coeff-En:   0.000D+00 0.000D+00 0.000D+00 0.000D+00 0.000D+00 0.000D+00
 Coeff-En:   0.000D+00 0.100D+01
 Coeff:      0.232D-02 0.269D-02 0.359D-02-0.510D-01-0.177D+00-0.286D+00
 Coeff:     -0.107D+01 0.652D+00 0.534D+00-0.271D-01 0.625D+00 0.172D+01
 Coeff:     -0.227D+01 0.179D+00 0.597D+00-0.175D+00 0.482D+00-0.869D+00
 Coeff:     -0.598D+01 0.712D+01
 Gap=     0.074 Goal=   None    Shift=    0.000
 Gap=     0.134 Goal=   None    Shift=    0.000
 RMSDP=2.41D-05 MaxDP=2.83D-03 DE=-4.65D-06 OVMax= 3.37D-02

 Cycle  24  Pass 1  IDiag  1:
 RMSU=  2.25D-05    CP:  1.00D+00 -1.46D+00  3.00D+00
 E= -2002.39003810600     Delta-E=       -0.000208948265 Rises=F Damp=F
 DIIS: error= 3.76D-04 at cycle  24 NSaved=  20.
 NSaved=20 IEnMin=14 EnMin= -2002.39139012263     IErMin=13 ErrMin= 1.62D-04
 ErrMax= 3.76D-04  0.00D+00 EMaxC= 1.00D-01 BMatC= 2.87D-04 BMatP= 4.33D-05
 IDIUse=3 WtCom= 9.98D-01 WtEn= 1.62D-03
 Large coefficients: NSaved= 20 BigCof=   17.01 CofMax=   10.00 Det=-9.89D-10
 Inversion failed.  Reducing to 19 matrices.
 Large coefficients: NSaved= 19 BigCof=   16.71 CofMax=   10.00 Det=-1.02D-09
 Inversion failed.  Reducing to 18 matrices.
 Large coefficients: NSaved= 18 BigCof=   17.21 CofMax=   10.00 Det=-1.19D-09
 Inversion failed.  Reducing to 17 matrices.
 Large coefficients: NSaved= 17 BigCof=   16.81 CofMax=   10.00 Det=-1.19D-09
 Inversion failed.  Reducing to 16 matrices.
 Large coefficients: NSaved= 16 BigCof=   16.55 CofMax=   10.00 Det=-1.20D-09
 Inversion failed.  Reducing to 15 matrices.
 Large coefficients: NSaved= 15 BigCof=   16.35 CofMax=   10.00 Det=-1.20D-09
 Inversion failed.  Reducing to 14 matrices.
 Large coefficients: NSaved= 14 BigCof=   16.32 CofMax=   10.00 Det=-1.20D-09
 Inversion failed.  Reducing to 13 matrices.
 Large coefficients: NSaved= 13 BigCof=   16.63 CofMax=   10.00 Det=-1.20D-09
 Inversion failed.  Reducing to 12 matrices.
 Large coefficients: NSaved= 12 BigCof=   16.69 CofMax=   10.00 Det=-1.20D-09
 Inversion failed.  Reducing to 11 matrices.
 Large coefficients: NSaved= 11 BigCof=   18.42 CofMax=   10.00 Det=-1.43D-09
 Inversion failed.  Reducing to 10 matrices.
 Large coefficients: NSaved= 10 BigCof=   18.38 CofMax=   10.00 Det=-1.43D-09
 Inversion failed.  Reducing to  9 matrices.
 Large coefficients: NSaved=  9 BigCof=   18.61 CofMax=   10.00 Det=-1.44D-09
 Inversion failed.  Reducing to  8 matrices.
 Coeff-Com:  0.813D+00-0.103D+01-0.225D+00 0.731D+00 0.647D+00 0.169D-01
 Coeff-Com: -0.351D+01 0.355D+01
 Coeff-En:   0.000D+00 0.000D+00 0.000D+00 0.000D+00 0.000D+00 0.000D+00
 Coeff-En:   0.000D+00 0.100D+01
 Coeff:      0.812D+00-0.102D+01-0.224D+00 0.730D+00 0.646D+00 0.169D-01
 Coeff:     -0.350D+01 0.355D+01
 Gap=     0.080 Goal=   None    Shift=    0.000
 Gap=     0.133 Goal=   None    Shift=    0.000
 RMSDP=1.88D-04 MaxDP=2.28D-02 DE=-2.09D-04 OVMax= 2.40D-01

 Cycle  25  Pass 1  IDiag  1:
 RMSU=  1.45D-04    CP:  1.00D+00 -3.00D+00  3.00D+00  3.00D+00
 E= -2002.39148361450     Delta-E=       -0.001445508502 Rises=F Damp=F
 DIIS: error= 1.80D-04 at cycle  25 NSaved=   9.
 NSaved= 9 IEnMin= 9 EnMin= -2002.39148361450     IErMin= 3 ErrMin= 1.62D-04
 ErrMax= 1.80D-04  0.00D+00 EMaxC= 1.00D-01 BMatC= 5.36D-05 BMatP= 4.33D-05
 IDIUse=3 WtCom= 9.98D-01 WtEn= 1.62D-03
 Coeff-Com:  0.784D+00-0.872D+00-0.418D+00 0.558D+00-0.123D+00-0.133D+01
 Coeff-Com: -0.709D+00 0.236D+01 0.744D+00
 Coeff-En:   0.000D+00 0.000D+00 0.000D+00 0.000D+00 0.000D+00 0.000D+00
 Coeff-En:   0.000D+00 0.000D+00 0.100D+01
 Coeff:      0.783D+00-0.871D+00-0.418D+00 0.557D+00-0.123D+00-0.132D+01
 Coeff:     -0.708D+00 0.236D+01 0.744D+00
 Gap=     0.094 Goal=   None    Shift=    0.000
 Gap=     0.132 Goal=   None    Shift=    0.000
 RMSDP=5.49D-05 MaxDP=8.80D-03 DE=-1.45D-03 OVMax= 6.48D-02

 Cycle  26  Pass 1  IDiag  1:
 RMSU=  1.53D-05    CP:  1.00D+00 -3.00D+00  3.00D+00  3.00D+00  1.36D+00
 E= -2002.39161386328     Delta-E=       -0.000130248785 Rises=F Damp=F
 DIIS: error= 1.42D-05 at cycle  26 NSaved=  10.
 NSaved=10 IEnMin=10 EnMin= -2002.39161386328     IErMin=10 ErrMin= 1.42D-05
 ErrMax= 1.42D-05  0.00D+00 EMaxC= 1.00D-01 BMatC= 1.39D-06 BMatP= 4.33D-05
 IDIUse=1 WtCom= 1.00D+00 WtEn= 0.00D+00
 Coeff-Com:  0.224D+00-0.248D-01-0.342D+00 0.496D-01 0.352D-01 0.389D+00
 Coeff-Com: -0.354D+00-0.959D-01 0.214D+00 0.904D+00
 Coeff:      0.224D+00-0.248D-01-0.342D+00 0.496D-01 0.352D-01 0.389D+00
 Coeff:     -0.354D+00-0.959D-01 0.214D+00 0.904D+00
 Gap=     0.091 Goal=   None    Shift=    0.000
 Gap=     0.132 Goal=   None    Shift=    0.000
 RMSDP=1.88D-05 MaxDP=3.41D-03 DE=-1.30D-04 OVMax= 1.62D-02

 Cycle  27  Pass 1  IDiag  1:
 RMSU=  5.98D-06    CP:  1.00D+00 -3.00D+00  3.00D+00  3.00D+00  1.24D+00
                    CP:  9.20D-01
 E= -2002.39159327196     Delta-E=        0.000020591324 Rises=F Damp=F
 DIIS: error= 1.16D-04 at cycle  27 NSaved=  11.
 NSaved=11 IEnMin=10 EnMin= -2002.39161386328     IErMin=10 ErrMin= 1.42D-05
 ErrMax= 1.16D-04  0.00D+00 EMaxC= 1.00D-01 BMatC= 2.57D-05 BMatP= 1.39D-06
 IDIUse=1 WtCom= 1.00D+00 WtEn= 0.00D+00
 Coeff-Com: -0.146D+00 0.343D+00-0.209D+00-0.110D+00 0.363D+00 0.908D+00
 Coeff-Com:  0.156D+00-0.156D+01-0.143D+00 0.733D+00 0.661D+00
 Coeff:     -0.146D+00 0.343D+00-0.209D+00-0.110D+00 0.363D+00 0.908D+00
 Coeff:      0.156D+00-0.156D+01-0.143D+00 0.733D+00 0.661D+00
 Gap=     0.091 Goal=   None    Shift=    0.000
 Gap=     0.132 Goal=   None    Shift=    0.000
 RMSDP=3.78D-06 MaxDP=8.86D-04 DE= 2.06D-05 OVMax= 5.16D-03

 Cycle  28  Pass 1  IDiag  1:
 RMSU=  1.03D-06    CP:  1.00D+00 -3.00D+00  3.00D+00  3.00D+00  1.26D+00
                    CP:  1.05D+00  1.33D+00
 E= -2002.39159599392     Delta-E=       -0.000002721963 Rises=F Damp=F
 DIIS: error= 1.25D-04 at cycle  28 NSaved=  12.
 NSaved=12 IEnMin=10 EnMin= -2002.39161386328     IErMin=10 ErrMin= 1.42D-05
 ErrMax= 1.25D-04  0.00D+00 EMaxC= 1.00D-01 BMatC= 3.04D-05 BMatP= 1.39D-06
 IDIUse=1 WtCom= 1.00D+00 WtEn= 0.00D+00
 Coeff-Com:  0.116D+00-0.937D-01 0.103D-01 0.151D-01 0.173D-01-0.118D+00
 Coeff-Com:  0.120D+01-0.125D+01-0.115D+00 0.292D+00-0.499D-01 0.978D+00
 Coeff:      0.116D+00-0.937D-01 0.103D-01 0.151D-01 0.173D-01-0.118D+00
 Coeff:      0.120D+01-0.125D+01-0.115D+00 0.292D+00-0.499D-01 0.978D+00
 Gap=     0.092 Goal=   None    Shift=    0.000
 Gap=     0.132 Goal=   None    Shift=    0.000
 RMSDP=8.92D-06 MaxDP=1.46D-03 DE=-2.72D-06 OVMax= 1.02D-02

 Cycle  29  Pass 1  IDiag  1:
 RMSU=  4.01D-07    CP:  1.00D+00 -3.00D+00  3.00D+00  3.00D+00  1.32D+00
                    CP:  1.19D+00  1.24D+00  1.54D+00
 E= -2002.39160913896     Delta-E=       -0.000013145038 Rises=F Damp=F
 DIIS: error= 9.10D-05 at cycle  29 NSaved=  13.
 NSaved=13 IEnMin=10 EnMin= -2002.39161386328     IErMin=10 ErrMin= 1.42D-05
 ErrMax= 9.10D-05  0.00D+00 EMaxC= 1.00D-01 BMatC= 1.52D-05 BMatP= 1.39D-06
 IDIUse=1 WtCom= 1.00D+00 WtEn= 0.00D+00
 Coeff-Com:  0.149D+00-0.158D+00 0.827D-01 0.381D-01-0.176D+00-0.394D+00
 Coeff-Com:  0.131D+01-0.880D+00-0.909D-01 0.150D+00-0.235D+00 0.530D+00
 Coeff-Com:  0.670D+00
 Coeff:      0.149D+00-0.158D+00 0.827D-01 0.381D-01-0.176D+00-0.394D+00
 Coeff:      0.131D+01-0.880D+00-0.909D-01 0.150D+00-0.235D+00 0.530D+00
 Coeff:      0.670D+00
 Gap=     0.093 Goal=   None    Shift=    0.000
 Gap=     0.132 Goal=   None    Shift=    0.000
 RMSDP=4.35D-06 MaxDP=7.14D-04 DE=-1.31D-05 OVMax= 4.33D-03

 Cycle  30  Pass 1  IDiag  1:
 RMSU=  3.09D-07    CP:  1.00D+00 -3.00D+00  3.00D+00  3.00D+00  1.35D+00
                    CP:  1.23D+00  1.10D+00  1.84D+00  1.35D+00
 E= -2002.39161398558     Delta-E=       -0.000004846623 Rises=F Damp=F
 DIIS: error= 6.25D-05 at cycle  30 NSaved=  14.
 NSaved=14 IEnMin=14 EnMin= -2002.39161398558     IErMin=10 ErrMin= 1.42D-05
 ErrMax= 6.25D-05  0.00D+00 EMaxC= 1.00D-01 BMatC= 7.36D-06 BMatP= 1.39D-06
 IDIUse=1 WtCom= 1.00D+00 WtEn= 0.00D+00
 Coeff-Com: -0.798D-03 0.161D-01 0.202D-01 0.266D-01-0.109D+00-0.138D+00
 Coeff-Com:  0.475D+00-0.270D+00-0.435D-01 0.884D-01-0.628D-01-0.236D+00
 Coeff-Com:  0.503D-02 0.123D+01
 Coeff:     -0.798D-03 0.161D-01 0.202D-01 0.266D-01-0.109D+00-0.138D+00
 Coeff:      0.475D+00-0.270D+00-0.435D-01 0.884D-01-0.628D-01-0.236D+00
 Coeff:      0.503D-02 0.123D+01
 Gap=     0.094 Goal=   None    Shift=    0.000
 Gap=     0.132 Goal=   None    Shift=    0.000
 RMSDP=6.20D-06 MaxDP=9.97D-04 DE=-4.85D-06 OVMax= 5.42D-03

 Cycle  31  Pass 1  IDiag  1:
 RMSU=  2.02D-07    CP:  1.00D+00 -3.00D+00  3.00D+00  3.00D+00  1.39D+00
                    CP:  1.27D+00  7.97D-01  2.16D+00  1.86D+00  2.84D+00
 E= -2002.39161779461     Delta-E=       -0.000003809024 Rises=F Damp=F
 DIIS: error= 1.53D-05 at cycle  31 NSaved=  15.
 NSaved=15 IEnMin=15 EnMin= -2002.39161779461     IErMin=10 ErrMin= 1.42D-05
 ErrMax= 1.53D-05  0.00D+00 EMaxC= 1.00D-01 BMatC= 4.37D-07 BMatP= 1.39D-06
 IDIUse=1 WtCom= 1.00D+00 WtEn= 0.00D+00
 Coeff-Com: -0.129D-01 0.168D-01-0.403D-02 0.715D-02-0.165D-01-0.559D-01
 Coeff-Com:  0.980D-01-0.280D-01-0.419D-02 0.244D-01 0.425D-02-0.560D-01
 Coeff-Com: -0.121D+00 0.133D+00 0.102D+01
 Coeff:     -0.129D-01 0.168D-01-0.403D-02 0.715D-02-0.165D-01-0.559D-01
 Coeff:      0.980D-01-0.280D-01-0.419D-02 0.244D-01 0.425D-02-0.560D-01
 Coeff:     -0.121D+00 0.133D+00 0.102D+01
 Gap=     0.094 Goal=   None    Shift=    0.000
 Gap=     0.132 Goal=   None    Shift=    0.000
 RMSDP=2.02D-06 MaxDP=3.32D-04 DE=-3.81D-06 OVMax= 1.71D-03

 Cycle  32  Pass 1  IDiag  1:
 RMSU=  1.96D-07    CP:  1.00D+00 -3.00D+00  3.00D+00  3.00D+00  1.40D+00
                    CP:  1.28D+00  6.96D-01  2.16D+00  1.97D+00  3.00D+00
                    CP:  1.35D+00
 E= -2002.39161803844     Delta-E=       -0.000000243835 Rises=F Damp=F
 DIIS: error= 1.37D-06 at cycle  32 NSaved=  16.
 NSaved=16 IEnMin=16 EnMin= -2002.39161803844     IErMin=16 ErrMin= 1.37D-06
 ErrMax= 1.37D-06  0.00D+00 EMaxC= 1.00D-01 BMatC= 7.02D-09 BMatP= 4.37D-07
 IDIUse=1 WtCom= 1.00D+00 WtEn= 0.00D+00
 Coeff-Com:  0.221D-01-0.283D-01 0.906D-02-0.167D-01-0.257D-02-0.658D-01
 Coeff-Com:  0.204D-01 0.473D-01 0.127D-01-0.212D-01 0.306D-01 0.170D+00
 Coeff-Com: -0.211D-01-0.695D+00 0.524D+00 0.101D+01
 Coeff:      0.221D-01-0.283D-01 0.906D-02-0.167D-01-0.257D-02-0.658D-01
 Coeff:      0.204D-01 0.473D-01 0.127D-01-0.212D-01 0.306D-01 0.170D+00
 Coeff:     -0.211D-01-0.695D+00 0.524D+00 0.101D+01
 Gap=     0.094 Goal=   None    Shift=    0.000
 Gap=     0.132 Goal=   None    Shift=    0.000
 RMSDP=3.25D-07 MaxDP=4.66D-05 DE=-2.44D-07 OVMax= 2.91D-04

 Cycle  33  Pass 1  IDiag  1:
 RMSU=  1.01D-07    CP:  1.00D+00 -3.00D+00  3.00D+00  3.00D+00  1.40D+00
                    CP:  1.28D+00  6.77D-01  1.97D+00  1.94D+00  3.00D+00
                    CP:  1.43D+00  2.06D+00
 E= -2002.39161806098     Delta-E=       -0.000000022544 Rises=F Damp=F
 DIIS: error= 1.72D-06 at cycle  33 NSaved=  17.
 NSaved=17 IEnMin=17 EnMin= -2002.39161806098     IErMin=16 ErrMin= 1.37D-06
 ErrMax= 1.72D-06  0.00D+00 EMaxC= 1.00D-01 BMatC= 8.03D-09 BMatP= 7.02D-09
 IDIUse=1 WtCom= 1.00D+00 WtEn= 0.00D+00
 Coeff-Com:  0.478D-01-0.555D-01 0.107D-01 0.146D-03-0.205D-02-0.298D-01
 Coeff-Com: -0.875D-02 0.381D-01 0.745D-02-0.255D-01-0.201D-01 0.837D-01
 Coeff-Com:  0.687D-01-0.164D+00-0.362D+00 0.114D+00 0.130D+01
 Coeff:      0.478D-01-0.555D-01 0.107D-01 0.146D-03-0.205D-02-0.298D-01
 Coeff:     -0.875D-02 0.381D-01 0.745D-02-0.255D-01-0.201D-01 0.837D-01
 Coeff:      0.687D-01-0.164D+00-0.362D+00 0.114D+00 0.130D+01
 Gap=     0.094 Goal=   None    Shift=    0.000
 Gap=     0.132 Goal=   None    Shift=    0.000
 RMSDP=8.80D-07 MaxDP=1.44D-04 DE=-2.25D-08 OVMax= 8.16D-04

 Cycle  34  Pass 1  IDiag  1:
 RMSU=  9.33D-08    CP:  1.00D+00 -3.00D+00  3.00D+00  3.00D+00  1.39D+00
                    CP:  1.27D+00  7.08D-01  1.79D+00  1.88D+00  3.00D+00
                    CP:  1.29D+00  2.70D+00  2.29D+00
 E= -2002.39161805258     Delta-E=        0.000000008400 Rises=F Damp=F
 DIIS: error= 4.09D-06 at cycle  34 NSaved=  18.
 NSaved=18 IEnMin=17 EnMin= -2002.39161806098     IErMin=16 ErrMin= 1.37D-06
 ErrMax= 4.09D-06  0.00D+00 EMaxC= 1.00D-01 BMatC= 3.27D-08 BMatP= 7.02D-09
 IDIUse=1 WtCom= 1.00D+00 WtEn= 0.00D+00
 Coeff-Com:  0.317D-01-0.351D-01-0.105D-02 0.116D-01 0.102D-01 0.148D-01
 Coeff-Com: -0.252D-01-0.317D-03 0.242D-02-0.602D-02-0.372D-01-0.248D-01
 Coeff-Com:  0.416D-01 0.191D+00-0.427D+00-0.387D+00 0.662D+00 0.978D+00
 Coeff:      0.317D-01-0.351D-01-0.105D-02 0.116D-01 0.102D-01 0.148D-01
 Coeff:     -0.252D-01-0.317D-03 0.242D-02-0.602D-02-0.372D-01-0.248D-01
 Coeff:      0.416D-01 0.191D+00-0.427D+00-0.387D+00 0.662D+00 0.978D+00
 Gap=     0.094 Goal=   None    Shift=    0.000
 Gap=     0.132 Goal=   None    Shift=    0.000
 RMSDP=3.05D-07 MaxDP=4.09D-05 DE= 8.40D-09 OVMax= 1.99D-04

 Cycle  35  Pass 1  IDiag  1:
 RMSU=  5.51D-08    CP:  1.00D+00 -3.00D+00  3.00D+00  3.00D+00  1.39D+00
                    CP:  1.28D+00  7.21D-01  1.69D+00  1.90D+00  3.00D+00
                    CP:  1.19D+00  3.00D+00  3.00D+00  1.87D+00
 E= -2002.39161803517     Delta-E=        0.000000017414 Rises=F Damp=F
 DIIS: error= 6.09D-06 at cycle  35 NSaved=  19.
 NSaved=19 IEnMin=17 EnMin= -2002.39161806098     IErMin=16 ErrMin= 1.37D-06
 ErrMax= 6.09D-06  0.00D+00 EMaxC= 1.00D-01 BMatC= 6.96D-08 BMatP= 7.02D-09
 IDIUse=1 WtCom= 1.00D+00 WtEn= 0.00D+00
 Coeff-Com:  0.534D-02-0.444D-02-0.482D-02 0.436D-02-0.205D-04 0.739D-02
 Coeff-Com:  0.768D-02-0.170D-01 0.965D-03 0.107D-01-0.573D-02-0.333D-01
 Coeff-Com: -0.337D-01 0.384D-01 0.320D-01-0.896D-01-0.313D+00 0.289D+00
 Coeff-Com:  0.111D+01
 Coeff:      0.534D-02-0.444D-02-0.482D-02 0.436D-02-0.205D-04 0.739D-02
 Coeff:      0.768D-02-0.170D-01 0.965D-03 0.107D-01-0.573D-02-0.333D-01
 Coeff:     -0.337D-01 0.384D-01 0.320D-01-0.896D-01-0.313D+00 0.289D+00
 Coeff:      0.111D+01
 Gap=     0.094 Goal=   None    Shift=    0.000
 Gap=     0.132 Goal=   None    Shift=    0.000
 RMSDP=7.98D-07 MaxDP=1.51D-04 DE= 1.74D-08 OVMax= 7.93D-04

 Cycle  36  Pass 1  IDiag  1:
 RMSU=  4.65D-08    CP:  1.00D+00 -3.00D+00  3.00D+00  3.00D+00  1.40D+00
                    CP:  1.29D+00  6.98D-01  1.65D+00  1.96D+00  3.00D+00
                    CP:  1.19D+00  3.00D+00  3.00D+00  2.34D+00  3.00D+00
 E= -2002.39161808297     Delta-E=       -0.000000047798 Rises=F Damp=F
 DIIS: error= 1.57D-06 at cycle  36 NSaved=  20.
 NSaved=20 IEnMin=20 EnMin= -2002.39161808297     IErMin=16 ErrMin= 1.37D-06
 ErrMax= 1.57D-06  0.00D+00 EMaxC= 1.00D-01 BMatC= 5.25D-09 BMatP= 7.02D-09
 IDIUse=1 WtCom= 1.00D+00 WtEn= 0.00D+00
 Coeff-Com: -0.117D-03-0.966D-05 0.440D-03-0.913D-03-0.561D-02-0.746D-02
 Coeff-Com:  0.151D-01-0.357D-02-0.444D-03 0.473D-02 0.101D-01 0.730D-02
 Coeff-Com: -0.308D-01-0.784D-01 0.147D+00 0.113D+00-0.308D+00-0.217D+00
 Coeff-Com:  0.406D+00 0.948D+00
 Coeff:     -0.117D-03-0.966D-05 0.440D-03-0.913D-03-0.561D-02-0.746D-02
 Coeff:      0.151D-01-0.357D-02-0.444D-03 0.473D-02 0.101D-01 0.730D-02
 Coeff:     -0.308D-01-0.784D-01 0.147D+00 0.113D+00-0.308D+00-0.217D+00
 Coeff:      0.406D+00 0.948D+00
 Gap=     0.094 Goal=   None    Shift=    0.000
 Gap=     0.132 Goal=   None    Shift=    0.000
 RMSDP=3.67D-07 MaxDP=6.90D-05 DE=-4.78D-08 OVMax= 3.37D-04

 Cycle  37  Pass 1  IDiag  1:
 RMSU=  5.37D-08    CP:  1.00D+00 -3.00D+00  3.00D+00  3.00D+00  1.40D+00
                    CP:  1.29D+00  6.83D-01  1.62D+00  1.99D+00  3.00D+00
                    CP:  1.20D+00  3.00D+00  3.00D+00  2.56D+00  3.00D+00
                    CP:  1.56D+00
 E= -2002.39161808542     Delta-E=       -0.000000002456 Rises=F Damp=F
 DIIS: error= 6.85D-07 at cycle  37 NSaved=  20.
 NSaved=20 IEnMin=20 EnMin= -2002.39161808542     IErMin=20 ErrMin= 6.85D-07
 ErrMax= 6.85D-07  0.00D+00 EMaxC= 1.00D-01 BMatC= 8.97D-10 BMatP= 5.25D-09
 IDIUse=1 WtCom= 1.00D+00 WtEn= 0.00D+00
 Coeff-Com: -0.585D-03 0.357D-03 0.224D-02-0.161D-02-0.191D-02-0.240D-02
 Coeff-Com:  0.449D-02-0.153D-02-0.230D-02 0.766D-02 0.157D-01-0.124D-02
 Coeff-Com: -0.351D-01 0.242D-01 0.506D-01 0.780D-02-0.159D+00-0.189D+00
 Coeff-Com:  0.361D+00 0.921D+00
 Coeff:     -0.585D-03 0.357D-03 0.224D-02-0.161D-02-0.191D-02-0.240D-02
 Coeff:      0.449D-02-0.153D-02-0.230D-02 0.766D-02 0.157D-01-0.124D-02
 Coeff:     -0.351D-01 0.242D-01 0.506D-01 0.780D-02-0.159D+00-0.189D+00
 Coeff:      0.361D+00 0.921D+00
 Gap=     0.094 Goal=   None    Shift=    0.000
 Gap=     0.132 Goal=   None    Shift=    0.000
 RMSDP=1.21D-07 MaxDP=2.06D-05 DE=-2.46D-09 OVMax= 1.41D-04

 Cycle  38  Pass 1  IDiag  1:
 RMSU=  6.45D-09    CP:  1.00D+00 -3.00D+00  3.00D+00  3.00D+00  1.40D+00
                    CP:  1.29D+00  6.83D-01  1.60D+00  1.99D+00  3.00D+00
                    CP:  1.19D+00  3.00D+00  3.00D+00  2.68D+00  3.00D+00
                    CP:  1.80D+00  1.46D+00
 E= -2002.39161808629     Delta-E=       -0.000000000870 Rises=F Damp=F
 DIIS: error= 2.70D-07 at cycle  38 NSaved=  20.
 NSaved=20 IEnMin=20 EnMin= -2002.39161808629     IErMin=20 ErrMin= 2.70D-07
 ErrMax= 2.70D-07  0.00D+00 EMaxC= 1.00D-01 BMatC= 1.41D-10 BMatP= 8.97D-10
 IDIUse=1 WtCom= 1.00D+00 WtEn= 0.00D+00
 Coeff-Com: -0.138D-02 0.159D-02 0.156D-03-0.267D-03-0.627D-03 0.773D-03
 Coeff-Com: -0.279D-03-0.733D-03-0.313D-04-0.173D-03 0.554D-02 0.122D-01
 Coeff-Com: -0.140D-01-0.871D-02 0.390D-01-0.110D-01-0.930D-01-0.804D-01
 Coeff-Com:  0.188D+00 0.963D+00
 Coeff:     -0.138D-02 0.159D-02 0.156D-03-0.267D-03-0.627D-03 0.773D-03
 Coeff:     -0.279D-03-0.733D-03-0.313D-04-0.173D-03 0.554D-02 0.122D-01
 Coeff:     -0.140D-01-0.871D-02 0.390D-01-0.110D-01-0.930D-01-0.804D-01
 Coeff:      0.188D+00 0.963D+00
 Gap=     0.094 Goal=   None    Shift=    0.000
 Gap=     0.132 Goal=   None    Shift=    0.000
 RMSDP=1.45D-08 MaxDP=3.45D-06 DE=-8.70D-10 OVMax= 1.11D-05

 Cycle  39  Pass 1  IDiag  1:
 RMSU=  3.34D-09    CP:  1.00D+00 -3.00D+00  3.00D+00  3.00D+00  1.40D+00
                    CP:  1.29D+00  6.84D-01  1.59D+00  1.99D+00  3.00D+00
                    CP:  1.19D+00  3.00D+00  3.00D+00  2.71D+00  3.00D+00
                    CP:  1.82D+00  1.56D+00  1.56D+00
 E= -2002.39161808641     Delta-E=       -0.000000000112 Rises=F Damp=F
 DIIS: error= 1.96D-07 at cycle  39 NSaved=  20.
 NSaved=20 IEnMin=20 EnMin= -2002.39161808641     IErMin=20 ErrMin= 1.96D-07
 ErrMax= 1.96D-07  0.00D+00 EMaxC= 1.00D-01 BMatC= 7.25D-11 BMatP= 1.41D-10
 IDIUse=1 WtCom= 1.00D+00 WtEn= 0.00D+00
 Coeff-Com:  0.110D-03-0.246D-03 0.155D-03-0.400D-03 0.426D-03 0.364D-03
 Coeff-Com: -0.224D-03-0.175D-02-0.308D-02 0.400D-02 0.120D-01-0.124D-01
 Coeff-Com: -0.122D-01 0.217D-01 0.203D-01-0.611D-02-0.105D+00-0.116D+00
 Coeff-Com:  0.398D+00 0.800D+00
 Coeff:      0.110D-03-0.246D-03 0.155D-03-0.400D-03 0.426D-03 0.364D-03
 Coeff:     -0.224D-03-0.175D-02-0.308D-02 0.400D-02 0.120D-01-0.124D-01
 Coeff:     -0.122D-01 0.217D-01 0.203D-01-0.611D-02-0.105D+00-0.116D+00
 Coeff:      0.398D+00 0.800D+00
 Gap=     0.094 Goal=   None    Shift=    0.000
 Gap=     0.132 Goal=   None    Shift=    0.000
 RMSDP=2.38D-08 MaxDP=3.49D-06 DE=-1.12D-10 OVMax= 2.05D-05

 Cycle  40  Pass 1  IDiag  1:
 RMSU=  1.17D-09    CP:  1.00D+00 -3.00D+00  3.00D+00  3.00D+00  1.40D+00
                    CP:  1.29D+00  6.85D-01  1.59D+00  1.99D+00  3.00D+00
                    CP:  1.18D+00  3.00D+00  3.00D+00  2.73D+00  3.00D+00
                    CP:  1.81D+00  1.57D+00  1.90D+00  1.50D+00
 E= -2002.39161808641     Delta-E=       -0.000000000008 Rises=F Damp=F
 DIIS: error= 9.18D-09 at cycle  40 NSaved=  20.
 NSaved=20 IEnMin=20 EnMin= -2002.39161808641     IErMin=20 ErrMin= 9.18D-09
 ErrMax= 9.18D-09  0.00D+00 EMaxC= 1.00D-01 BMatC= 7.52D-13 BMatP= 7.25D-11
 IDIUse=1 WtCom= 1.00D+00 WtEn= 0.00D+00
 Coeff-Com:  0.259D-04-0.135D-03-0.454D-04-0.239D-04 0.225D-03 0.189D-03
 Coeff-Com:  0.508D-04-0.128D-02-0.162D-02-0.188D-02 0.730D-02 0.299D-02
 Coeff-Com: -0.140D-01-0.164D-02 0.309D-01 0.499D-02-0.998D-01-0.158D+00
 Coeff-Com:  0.254D+00 0.977D+00
 Coeff:      0.259D-04-0.135D-03-0.454D-04-0.239D-04 0.225D-03 0.189D-03
 Coeff:      0.508D-04-0.128D-02-0.162D-02-0.188D-02 0.730D-02 0.299D-02
 Coeff:     -0.140D-01-0.164D-02 0.309D-01 0.499D-02-0.998D-01-0.158D+00
 Coeff:      0.254D+00 0.977D+00
 Gap=     0.094 Goal=   None    Shift=    0.000
 Gap=     0.132 Goal=   None    Shift=    0.000
 RMSDP=7.63D-09 MaxDP=1.61D-06 DE=-8.19D-12 OVMax= 7.74D-06

 Cycle  41  Pass 1  IDiag  1:
 Restarting incremental Fock formation.
 E= -2002.39161808631     Delta-E=        0.000000000108 Rises=F Damp=F
 DIIS: error= 2.93D-08 at cycle  41 NSaved=  20.
 NSaved=20 IEnMin=19 EnMin= -2002.39161808641     IErMin=19 ErrMin= 9.18D-09
 ErrMax= 2.93D-08  0.00D+00 EMaxC= 1.00D-01 BMatC= 1.70D-12 BMatP= 7.52D-13
 IDIUse=1 WtCom= 1.00D+00 WtEn= 0.00D+00
 Coeff-Com: -0.577D-04 0.856D-04-0.200D-04-0.196D-04 0.156D-04 0.361D-03
 Coeff-Com:  0.687D-03-0.139D-02-0.386D-02 0.492D-02 0.355D-02-0.831D-02
 Coeff-Com: -0.612D-02 0.105D-01 0.357D-01-0.264D-02-0.174D+00-0.140D+00
 Coeff-Com:  0.341D+00 0.940D+00
 Coeff:     -0.577D-04 0.856D-04-0.200D-04-0.196D-04 0.156D-04 0.361D-03
 Coeff:      0.687D-03-0.139D-02-0.386D-02 0.492D-02 0.355D-02-0.831D-02
 Coeff:     -0.612D-02 0.105D-01 0.357D-01-0.264D-02-0.174D+00-0.140D+00
 Coeff:      0.341D+00 0.940D+00
 Gap=     0.094 Goal=   None    Shift=    0.000
 Gap=     0.132 Goal=   None    Shift=    0.000
 RMSDP=3.91D-09 MaxDP=5.04D-07 DE= 1.08D-10 OVMax= 4.19D-06

 Error on total polarization charges =  0.02402
 SCF Done:  E(UM062X) =  -2002.39161809     A.U. after   41 cycles
            NFock= 41  Conv=0.39D-08     -V/T= 2.0053
 <Sx>= 0.0000 <Sy>= 0.0000 <Sz>= 0.5000 <S**2>= 0.7720 S= 0.5109
 <L.S>= 0.000000000000E+00
 KE= 1.991736594604D+03 PE=-1.460234833212D+04 EE= 5.656693809102D+03
 Annihilation of the first spin contaminant:
 S**2 before annihilation     0.7720,   after     0.7503
 Leave Link  502 at Fri Oct 24 20:41:09 2025, MaxMem= 30870077440 cpu:          241663.9 elap:            3813.2
 (Enter /public/software/gauss/g16/l601.exe)
 Copying SCF densities to generalized density rwf, IOpCl= 1 IROHF=0.

 **********************************************************************

            Population analysis using the SCF density.

 **********************************************************************

 Orbital symmetries:
 Alpha Orbitals:
       Occupied  (A) (A) (A) (A) (A) (A) (A) (A) (A) (A) (A) (A)
                 (A) (A) (A) (A) (A) (A) (A) (A) (A) (A) (A) (A)
                 (A) (A) (A) (A) (A) (A) (A) (A) (A) (A) (A) (A)
                 (A) (A) (A) (A) (A) (A) (A) (A) (A) (A) (A) (A)
                 (A) (A) (A) (A) (A) (A) (A) (A) (A) (A) (A) (A)
                 (A) (A) (A) (A) (A) (A) (A) (A) (A) (A) (A) (A)
                 (A) (A) (A) (A) (A) (A) (A) (A) (A) (A) (A) (A)
                 (A) (A) (A) (A) (A) (A) (A) (A) (A) (A) (A) (A)
                 (A) (A) (A) (A) (A) (A) (A) (A) (A) (A) (A) (A)
                 (A) (A) (A) (A) (A) (A) (A) (A) (A) (A) (A) (A)
                 (A) (A) (A) (A) (A) (A) (A) (A) (A) (A) (A) (A)
                 (A) (A) (A) (A) (A) (A) (A) (A) (A) (A) (A) (A)
                 (A) (A) (A) (A) (A) (A) (A) (A) (A) (A) (A)
       Virtual   (A) (A) (A) (A) (A) (A) (A) (A) (A) (A) (A) (A)
                 (A) (A) (A) (A) (A) (A) (A) (A) (A) (A) (A) (A)
                 (A) (A) (A) (A) (A) (A) (A) (A) (A) (A) (A) (A)
                 (A) (A) (A) (A) (A) (A) (A) (A) (A) (A) (A) (A)
                 (A) (A) (A) (A) (A) (A) (A) (A) (A) (A) (A) (A)
                 (A) (A) (A) (A) (A) (A) (A) (A) (A) (A) (A) (A)
                 (A) (A) (A) (A) (A) (A) (A) (A) (A) (A) (A) (A)
                 (A) (A) (A) (A) (A) (A) (A) (A) (A) (A) (A) (A)
                 (A) (A) (A) (A) (A) (A) (A) (A) (A) (A) (A) (A)
                 (A) (A) (A) (A) (A) (A) (A) (A) (A) (A) (A) (A)
                 (A) (A) (A) (A) (A) (A) (A) (A) (A) (A) (A) (A)
                 (A) (A) (A) (A) (A) (A) (A) (A) (A) (A) (A) (A)
                 (A) (A) (A) (A) (A) (A) (A) (A) (A) (A) (A) (A)
                 (A) (A) (A) (A) (A) (A) (A) (A) (A) (A) (A) (A)
                 (A) (A) (A) (A) (A) (A) (A) (A) (A) (A) (A) (A)
                 (A) (A) (A) (A) (A) (A) (A) (A) (A) (A) (A) (A)
                 (A) (A) (A) (A) (A) (A) (A) (A) (A) (A) (A) (A)
                 (A) (A) (A) (A) (A) (A) (A) (A) (A) (A) (A) (A)
                 (A) (A) (A) (A) (A) (A) (A) (A) (A) (A) (A) (A)
                 (A) (A) (A) (A) (A) (A) (A) (A) (A) (A) (A) (A)
                 (A) (A) (A) (A) (A) (A) (A) (A) (A) (A) (A) (A)
                 (A) (A) (A) (A) (A) (A) (A) (A) (A) (A) (A) (A)
                 (A) (A) (A) (A) (A) (A) (A) (A) (A) (A) (A) (A)
                 (A) (A) (A) (A) (A) (A) (A) (A) (A) (A) (A) (A)
                 (A) (A) (A) (A) (A) (A) (A) (A) (A) (A) (A) (A)
                 (A) (A) (A) (A) (A) (A) (A) (A) (A) (A) (A) (A)
                 (A) (A) (A) (A) (A) (A) (A) (A) (A) (A) (A) (A)
                 (A) (A) (A) (A) (A) (A) (A) (A) (A) (A) (A) (A)
                 (A) (A) (A) (A) (A) (A) (A) (A) (A) (A) (A) (A)
                 (A) (A) (A) (A) (A) (A) (A) (A) (A) (A) (A) (A)
                 (A) (A) (A) (A) (A) (A) (A) (A) (A) (A) (A) (A)
                 (A) (A) (A) (A) (A) (A) (A) (A) (A) (A) (A) (A)
                 (A) (A) (A) (A) (A) (A) (A) (A) (A) (A) (A) (A)
                 (A) (A) (A) (A) (A) (A) (A) (A) (A) (A) (A) (A)
                 (A) (A) (A) (A) (A) (A) (A) (A) (A) (A) (A) (A)
                 (A) (A) (A) (A) (A) (A) (A) (A) (A) (A) (A) (A)
                 (A) (A) (A) (A) (A) (A) (A) (A) (A) (A) (A) (A)
                 (A) (A) (A) (A) (A) (A) (A) (A) (A) (A) (A) (A)
                 (A) (A) (A) (A) (A) (A) (A) (A) (A) (A) (A) (A)
                 (A) (A) (A) (A) (A) (A) (A) (A) (A) (A) (A) (A)
                 (A) (A) (A) (A) (A) (A) (A) (A) (A) (A) (A) (A)
                 (A) (A) (A) (A) (A) (A) (A) (A) (A) (A) (A) (A)
                 (A) (A) (A) (A) (A) (A) (A) (A) (A) (A) (A) (A)
                 (A) (A) (A) (A) (A) (A) (A) (A) (A) (A) (A) (A)
                 (A) (A) (A) (A) (A) (A) (A) (A) (A) (A) (A) (A)
                 (A) (A) (A) (A) (A) (A) (A) (A) (A) (A) (A) (A)
                 (A) (A) (A) (A) (A) (A) (A) (A) (A) (A) (A) (A)
                 (A) (A) (A) (A) (A) (A) (A) (A) (A) (A) (A) (A)
                 (A) (A) (A) (A) (A) (A) (A) (A) (A) (A) (A) (A)
                 (A) (A) (A) (A) (A) (A) (A) (A) (A) (A) (A) (A)
                 (A) (A) (A) (A) (A) (A) (A) (A) (A) (A) (A) (A)
                 (A) (A) (A) (A) (A) (A) (A) (A) (A) (A) (A) (A)
                 (A) (A) (A) (A) (A) (A) (A) (A) (A) (A) (A) (A)
                 (A) (A) (A) (A) (A) (A) (A) (A) (A) (A) (A) (A)
[...]
     7 C(13)  Bbb     0.0068     0.913     0.326     0.304  0.1490  0.9737 -0.1722
              Bcc     0.0079     1.065     0.380     0.355  0.9876 -0.1377  0.0756
 
              Baa    -0.0118    -1.584    -0.565    -0.528 -0.2706  0.9499 -0.1566
     8 C(13)  Bbb    -0.0112    -1.508    -0.538    -0.503  0.9583  0.2813  0.0500
              Bcc     0.0230     3.091     1.103     1.031 -0.0916  0.1365  0.9864
 
              Baa    -0.0154     1.113     0.397     0.371  0.4074  0.9091 -0.0868
     9 O(17)  Bbb    -0.0128     0.925     0.330     0.309  0.9097 -0.3955  0.1268
              Bcc     0.0282    -2.038    -0.727    -0.680 -0.0809  0.1306  0.9881
 
              Baa    -0.0013    -0.181    -0.065    -0.060  0.7022  0.7103 -0.0489
    10 C(13)  Bbb    -0.0009    -0.120    -0.043    -0.040  0.7079 -0.6892  0.1548
              Bcc     0.0022     0.301     0.107     0.100 -0.0763  0.1433  0.9867
 
              Baa    -0.0028    -0.382    -0.136    -0.127 -0.0692  0.1325  0.9888
    11 C(13)  Bbb     0.0014     0.185     0.066     0.062  0.4951  0.8651 -0.0813
              Bcc     0.0015     0.197     0.070     0.066  0.8661 -0.4839  0.1255
 
              Baa    -0.0015    -0.200    -0.071    -0.067  0.2683  0.9565 -0.1146
    12 C(13)  Bbb    -0.0012    -0.167    -0.060    -0.056  0.9601 -0.2557  0.1132
              Bcc     0.0027     0.367     0.131     0.122 -0.0789  0.1404  0.9869
 
              Baa    -0.0015    -0.208    -0.074    -0.069 -0.0733  0.1282  0.9890
    13 C(13)  Bbb     0.0007     0.096     0.034     0.032 -0.0112  0.9915 -0.1293
              Bcc     0.0008     0.111     0.040     0.037  0.9972  0.0206  0.0712
 
              Baa    -0.0016    -0.217    -0.077    -0.072  0.9161  0.4006  0.0156
    14 C(13)  Bbb    -0.0016    -0.210    -0.075    -0.070 -0.3939  0.9067 -0.1510
              Bcc     0.0032     0.426     0.152     0.142 -0.0746  0.1322  0.9884
 
              Baa    -0.0003    -0.043    -0.015    -0.014 -0.1002  0.1072  0.9892
    15 C(13)  Bbb     0.0000     0.005     0.002     0.002  0.7563  0.6542  0.0057
              Bcc     0.0003     0.038     0.014     0.013 -0.6465  0.7487 -0.1466
 
              Baa    -0.0029     0.211     0.075     0.071 -0.0344  0.9899 -0.1377
    16 O(17)  Bbb    -0.0028     0.200     0.071     0.067  0.9972  0.0432  0.0618
              Bcc     0.0057    -0.411    -0.147    -0.137 -0.0671  0.1352  0.9886
 
              Baa    -0.0002    -0.024    -0.009    -0.008  0.8528  0.5005  0.1493
    17 C(13)  Bbb    -0.0001    -0.018    -0.007    -0.006 -0.4704  0.8602 -0.1968
              Bcc     0.0003     0.043     0.015     0.014 -0.2270  0.0976  0.9690
 
              Baa    -0.0079    -1.055    -0.377    -0.352 -0.2680  0.9552 -0.1254
    18 C(13)  Bbb    -0.0070    -0.944    -0.337    -0.315  0.9611  0.2741  0.0335
              Bcc     0.0149     1.999     0.713     0.667 -0.0664  0.1115  0.9915
 
              Baa    -0.0079    -1.065    -0.380    -0.355 -0.0955  0.1089  0.9895
    19 C(13)  Bbb     0.0035     0.473     0.169     0.158  0.1074  0.9893 -0.0985
              Bcc     0.0044     0.592     0.211     0.198  0.9896 -0.0969  0.1062
 
              Baa    -0.0003    -0.043    -0.015    -0.014 -0.0974  0.1621  0.9820
    20 C(13)  Bbb     0.0000     0.002     0.001     0.001  0.7307 -0.6583  0.1811
              Bcc     0.0003     0.041     0.015     0.014  0.6758  0.7351 -0.0543
 
              Baa    -0.0003    -0.042    -0.015    -0.014  0.9398 -0.3172  0.1270
    21 C(13)  Bbb     0.0000     0.004     0.001     0.001 -0.0685  0.1892  0.9795
              Bcc     0.0003     0.039     0.014     0.013  0.3348  0.9293 -0.1561
 
              Baa    -0.0004    -0.060    -0.021    -0.020 -0.0651  0.1901  0.9796
    22 C(13)  Bbb     0.0002     0.025     0.009     0.008  0.9184 -0.3724  0.1334
              Bcc     0.0003     0.035     0.012     0.012  0.3902  0.9084 -0.1504
 
              Baa    -0.0140    -0.539    -0.192    -0.180  0.3742 -0.0874  0.9232
    23 N(14)  Bbb     0.0035     0.136     0.048     0.045 -0.0727  0.9897  0.1232
              Bcc     0.0104     0.403     0.144     0.134  0.9245  0.1133 -0.3640
 
              Baa    -0.0087    -1.174    -0.419    -0.392 -0.1525 -0.4531  0.8783
    24 C(13)  Bbb    -0.0004    -0.051    -0.018    -0.017  0.7089 -0.6694 -0.2222
              Bcc     0.0091     1.225     0.437     0.409  0.6886  0.5888  0.4233
 
              Baa    -0.0223    -2.996    -1.069    -0.999  0.0428  0.9976 -0.0553
    25 C(13)  Bbb    -0.0130    -1.751    -0.625    -0.584  0.9811 -0.0524 -0.1864
              Bcc     0.0354     4.747     1.694     1.583  0.1889  0.0463  0.9809
 
              Baa    -0.0810   -10.873    -3.880    -3.627  0.2118  0.2753  0.9377
    26 C(13)  Bbb    -0.0716    -9.612    -3.430    -3.206  0.9772 -0.0481 -0.2066
              Bcc     0.1527    20.485     7.310     6.833 -0.0117  0.9602 -0.2792
 
              Baa    -0.0392    -5.262    -1.878    -1.755 -0.0217  0.9440 -0.3293
    27 C(13)  Bbb     0.0150     2.013     0.718     0.671  0.3874  0.3115  0.8677
              Bcc     0.0242     3.249     1.159     1.084  0.9216 -0.1087 -0.3725
 
              Baa    -0.0575    -7.713    -2.752    -2.573  0.0684  0.3095  0.9484
    28 C(13)  Bbb    -0.0474    -6.357    -2.268    -2.120  0.9976 -0.0347 -0.0606
              Bcc     0.1048    14.070     5.020     4.693  0.0142  0.9502 -0.3112
 
              Baa    -0.0130    -1.743    -0.622    -0.581  0.2060  0.2855  0.9360
    29 C(13)  Bbb    -0.0041    -0.548    -0.195    -0.183 -0.0078  0.9569 -0.2902
              Bcc     0.0171     2.290     0.817     0.764  0.9785 -0.0525 -0.1994
 
              Baa    -0.3852   -14.856    -5.301    -4.955  0.2053  0.3231  0.9238
    30 N(14)  Bbb    -0.3707   -14.299    -5.102    -4.770  0.9784 -0.0439 -0.2021
              Bcc     0.7559    29.155    10.403     9.725 -0.0247  0.9454 -0.3251
 
              Baa    -0.4666    33.761    12.047    11.262  0.6753  0.2555  0.6919
    31 O(17)  Bbb    -0.4244    30.712    10.959    10.244  0.7370 -0.1967 -0.6467
              Bcc     0.8910   -64.473   -23.006   -21.506 -0.0292  0.9466 -0.3211
 
              Baa    -0.4671    33.798    12.060    11.274 -0.3232  0.3005  0.8974
    32 O(17)  Bbb    -0.4249    30.746    10.971    10.256  0.9462  0.1205  0.3004
              Bcc     0.8920   -64.544   -23.031   -21.530 -0.0179  0.9461 -0.3232
 
              Baa    -0.0581    -7.793    -2.781    -2.600  0.3368  0.2955  0.8940
    33 C(13)  Bbb    -0.0479    -6.430    -2.294    -2.145  0.9403 -0.0573 -0.3354
              Bcc     0.1060    14.224     5.075     4.744 -0.0479  0.9536 -0.2972
 
              Baa    -0.0394    -5.285    -1.886    -1.763 -0.0264  0.9459 -0.3234
    34 C(13)  Bbb     0.0149     2.005     0.715     0.669  0.0229  0.3240  0.9458
              Bcc     0.0244     3.280     1.170     1.094  0.9994  0.0176 -0.0302
 
              Baa    -0.0084    -1.122    -0.400    -0.374 -0.3940  0.6739 -0.6250
    35 C(13)  Bbb    -0.0026    -0.344    -0.123    -0.115  0.8676  0.4971 -0.0110
              Bcc     0.0109     1.466     0.523     0.489 -0.3033  0.5466  0.7806
 
              Baa    -0.0121    -1.628    -0.581    -0.543  0.7341  0.6780 -0.0369
    36 C(13)  Bbb    -0.0102    -1.366    -0.488    -0.456 -0.6425  0.7112  0.2851
              Bcc     0.0223     2.994     1.068     0.999  0.2195 -0.1856  0.9578
 
              Baa    -0.0017    -0.232    -0.083    -0.077  0.0972 -0.2148  0.9718
    37 C(13)  Bbb     0.0003     0.038     0.014     0.013  0.9512  0.3073 -0.0272
              Bcc     0.0014     0.194     0.069     0.065 -0.2928  0.9270  0.2342
 
              Baa    -0.0006    -0.081    -0.029    -0.027  0.8006  0.5829  0.1389
    38 C(13)  Bbb    -0.0003    -0.040    -0.014    -0.013 -0.5712  0.8125 -0.1166
              Bcc     0.0009     0.121     0.043     0.040 -0.1808  0.0140  0.9834
 
              Baa    -0.0140    -1.876    -0.669    -0.626  0.1265  0.9641  0.2333
    39 C(13)  Bbb    -0.0127    -1.710    -0.610    -0.570  0.9445 -0.0453 -0.3253
              Bcc     0.0267     3.586     1.280     1.196  0.3031 -0.2615  0.9164
 
              Baa    -0.0007    -0.089    -0.032    -0.030  0.2883  0.9370  0.1971
    40 C(13)  Bbb    -0.0001    -0.008    -0.003    -0.003 -0.2389 -0.1289  0.9624
              Bcc     0.0007     0.097     0.035     0.032  0.9273 -0.3245  0.1867
 
              Baa    -0.0073    -0.282    -0.100    -0.094 -0.2408  0.0298  0.9701
    41 N(14)  Bbb    -0.0007    -0.025    -0.009    -0.008  0.2883  0.9566  0.0422
              Bcc     0.0080     0.307     0.109     0.102  0.9268 -0.2898  0.2390
 
              Baa    -0.0007    -0.126    -0.045    -0.042  0.1483 -0.1939  0.9698
    42 B(11)  Bbb    -0.0001    -0.022    -0.008    -0.007 -0.1167  0.9703  0.2118
              Bcc     0.0009     0.147     0.053     0.049  0.9820  0.1445 -0.1213
 
              Baa    -0.0004    -0.199    -0.071    -0.066 -0.6152  0.6403 -0.4599
    43 F(19)  Bbb    -0.0003    -0.136    -0.048    -0.045  0.7379  0.2623 -0.6219
              Bcc     0.0007     0.334     0.119     0.111  0.2776  0.7219  0.6339
 
              Baa    -0.0007    -0.367    -0.131    -0.122 -0.2239  0.9432 -0.2457
    44 F(19)  Bbb    -0.0003    -0.172    -0.061    -0.057 -0.0167  0.2483  0.9685
              Bcc     0.0011     0.539     0.192     0.180  0.9745  0.2209 -0.0398
 
              Baa    -0.0019    -1.018    -0.363    -0.340  0.3151 -0.3878  0.8662
    45 H(1)   Bbb    -0.0001    -0.051    -0.018    -0.017 -0.5738  0.6492  0.4993
              Bcc     0.0020     1.070     0.382     0.357  0.7559  0.6544  0.0180
 
              Baa    -0.0022    -1.187    -0.424    -0.396  0.1846  0.2657  0.9462
    46 H(1)   Bbb     0.0002     0.096     0.034     0.032  0.9098 -0.4103 -0.0623
              Bcc     0.0020     1.091     0.389     0.364  0.3717  0.8724 -0.3175
 
              Baa    -0.0009    -0.477    -0.170    -0.159  0.1557  0.0776  0.9848
    47 H(1)   Bbb    -0.0001    -0.046    -0.016    -0.015  0.9208 -0.3724 -0.1162
              Bcc     0.0010     0.523     0.187     0.175  0.3577  0.9248 -0.1294
 
              Baa    -0.0006    -0.337    -0.120    -0.112  0.0697 -0.0377  0.9969
    48 H(1)   Bbb     0.0002     0.111     0.040     0.037  0.9340 -0.3485 -0.0785
              Bcc     0.0004     0.226     0.081     0.075  0.3503  0.9366  0.0109
 
              Baa    -0.0011    -0.604    -0.216    -0.201 -0.0568  0.9907 -0.1234
    49 H(1)   Bbb    -0.0005    -0.293    -0.104    -0.098  0.0044  0.1238  0.9923
              Bcc     0.0017     0.897     0.320     0.299  0.9984  0.0559 -0.0114
 
              Baa    -0.0011    -0.561    -0.200    -0.187  0.9934 -0.0441  0.1059
    50 H(1)   Bbb    -0.0004    -0.226    -0.081    -0.075 -0.0981  0.1511  0.9836
              Bcc     0.0015     0.786     0.281     0.262  0.0594  0.9875 -0.1458
 
              Baa    -0.0002    -0.089    -0.032    -0.030  0.0285  0.9853 -0.1684
    51 H(1)   Bbb    -0.0001    -0.074    -0.026    -0.025 -0.0561  0.1697  0.9839
              Bcc     0.0003     0.162     0.058     0.054  0.9980 -0.0186  0.0601
 
              Baa    -0.0001    -0.059    -0.021    -0.020 -0.0543  0.1087  0.9926
    52 H(1)   Bbb    -0.0000    -0.018    -0.006    -0.006 -0.2006  0.9726 -0.1175
              Bcc     0.0001     0.076     0.027     0.026  0.9782  0.2054  0.0310
 
              Baa    -0.0002    -0.080    -0.029    -0.027 -0.0676  0.1346  0.9886
    53 H(1)   Bbb    -0.0000    -0.001    -0.000    -0.000  0.3237  0.9402 -0.1059
              Bcc     0.0002     0.082     0.029     0.027  0.9437 -0.3129  0.1071
 
              Baa    -0.0003    -0.143    -0.051    -0.048 -0.1098  0.0933  0.9896
    54 H(1)   Bbb     0.0000     0.014     0.005     0.005 -0.0719  0.9922 -0.1015
              Bcc     0.0002     0.129     0.046     0.043  0.9913  0.0823  0.1023
 
              Baa    -0.0011    -0.576    -0.206    -0.192 -0.2939  0.9466 -0.1329
    55 H(1)   Bbb    -0.0001    -0.062    -0.022    -0.021 -0.0764  0.1153  0.9904
              Bcc     0.0012     0.638     0.228     0.213  0.9528  0.3012  0.0384
 
              Baa    -0.0001    -0.064    -0.023    -0.021  0.0423  0.1293  0.9907
    56 H(1)   Bbb    -0.0000    -0.009    -0.003    -0.003  0.8555 -0.5170  0.0309
              Bcc     0.0001     0.073     0.026     0.024  0.5161  0.8462 -0.1325
 
              Baa    -0.0002    -0.094    -0.033    -0.031 -0.0446 -0.0741  0.9962
    57 H(1)   Bbb    -0.0000    -0.014    -0.005    -0.005 -0.6349  0.7720  0.0290
              Bcc     0.0002     0.108     0.038     0.036  0.7713  0.6312  0.0815
 
              Baa    -0.0002    -0.088    -0.032    -0.029 -0.0006  0.4548  0.8906
    58 H(1)   Bbb    -0.0000    -0.018    -0.006    -0.006  0.8414 -0.4811  0.2463
              Bcc     0.0002     0.106     0.038     0.035  0.5404  0.7495 -0.3823
 
              Baa    -0.0001    -0.044    -0.016    -0.015  0.0034  0.2314  0.9729
    59 H(1)   Bbb    -0.0000    -0.016    -0.006    -0.005 -0.6620  0.7297 -0.1712
              Bcc     0.0001     0.060     0.022     0.020  0.7495  0.6435 -0.1556
 
              Baa    -0.0002    -0.086    -0.031    -0.029  0.1393  0.0423  0.9894
    60 H(1)   Bbb    -0.0001    -0.045    -0.016    -0.015 -0.6209  0.7821  0.0540
              Bcc     0.0002     0.131     0.047     0.044  0.7715  0.6218 -0.1351
 
              Baa    -0.0002    -0.104    -0.037    -0.035 -0.1365  0.2107  0.9680
    61 H(1)   Bbb    -0.0000    -0.006    -0.002    -0.002 -0.4593  0.8523 -0.2502
              Bcc     0.0002     0.110     0.039     0.037  0.8777  0.4787  0.0195
 
              Baa    -0.0026    -1.361    -0.486    -0.454 -0.0523  0.9205 -0.3873
    62 H(1)   Bbb    -0.0011    -0.561    -0.200    -0.187  0.3659  0.3785  0.8502
              Bcc     0.0036     1.922     0.686     0.641  0.9292 -0.0972 -0.3566
 
              Baa    -0.0040    -2.157    -0.770    -0.720 -0.0781  0.9407 -0.3302
    63 H(1)   Bbb    -0.0010    -0.539    -0.193    -0.180  0.9762  0.1395  0.1663
              Bcc     0.0051     2.697     0.962     0.899 -0.2025  0.3093  0.9292
 
              Baa    -0.0040    -2.153    -0.768    -0.718  0.0157  0.9380 -0.3462
    64 H(1)   Bbb    -0.0011    -0.588    -0.210    -0.196  0.8144 -0.2129 -0.5399
              Bcc     0.0051     2.742     0.978     0.915  0.5801  0.2735  0.7672
 
              Baa    -0.0026    -1.381    -0.493    -0.461 -0.0175  0.9097 -0.4150
    65 H(1)   Bbb    -0.0011    -0.570    -0.203    -0.190  0.0324  0.4154  0.9091
              Bcc     0.0037     1.951     0.696     0.651  0.9993  0.0024 -0.0368
 
              Baa    -0.0009    -0.467    -0.167    -0.156  0.2330  0.0063  0.9725
    66 H(1)   Bbb    -0.0001    -0.031    -0.011    -0.010  0.9195  0.3242 -0.2224
              Bcc     0.0009     0.498     0.178     0.166 -0.3167  0.9460  0.0697
 
              Baa    -0.0018    -0.966    -0.345    -0.322  0.0342 -0.4212  0.9063
    67 H(1)   Bbb    -0.0001    -0.073    -0.026    -0.024  0.7933  0.5631  0.2317
              Bcc     0.0019     1.039     0.371     0.346 -0.6079  0.7110  0.3534
 
              Baa    -0.0021    -1.145    -0.409    -0.382  0.1744  0.1769  0.9687
    68 H(1)   Bbb     0.0002     0.086     0.031     0.029  0.9029  0.3637 -0.2290
              Bcc     0.0020     1.059     0.378     0.353 -0.3928  0.9146 -0.0963
 
              Baa    -0.0007    -0.353    -0.126    -0.118  0.2700 -0.1394  0.9527
    69 H(1)   Bbb    -0.0001    -0.027    -0.010    -0.009  0.9593  0.1234 -0.2538
              Bcc     0.0007     0.380     0.136     0.127 -0.0822  0.9825  0.1670
 
              Baa    -0.0005    -0.272    -0.097    -0.091 -0.1292 -0.6211  0.7730
    70 H(1)   Bbb    -0.0002    -0.133    -0.047    -0.044  0.1059  0.7664  0.6336
              Bcc     0.0008     0.404     0.144     0.135  0.9859 -0.1637  0.0332
 
              Baa    -0.0005    -0.253    -0.090    -0.084  0.5212  0.0055  0.8534
    71 H(1)   Bbb    -0.0003    -0.178    -0.063    -0.059  0.0112  0.9998 -0.0133
              Bcc     0.0008     0.430     0.154     0.144  0.8533 -0.0165 -0.5211
 
              Baa    -0.0005    -0.248    -0.089    -0.083 -0.1959 -0.6664  0.7195
    72 H(1)   Bbb    -0.0004    -0.206    -0.074    -0.069  0.6290  0.4775  0.6135
              Bcc     0.0009     0.454     0.162     0.152  0.7524 -0.5727 -0.3256
 

 ---------------------------------------------------------------------------------

 No NMR shielding tensors so no spin-rotation constants.
 Leave Link  601 at Fri Oct 24 20:41:12 2025, MaxMem= 30870077440 cpu:             178.6 elap:               3.2
 (Enter /public/software/gauss/g16/l9999.exe)
 1\1\GINC-CU056\SP\UM062X\def2TZVPP\C34H28B1F2N3O4(1-,2)\BAIDING\24-Oct
 -2025\0\\#p M062X/DEF2TZVPP scrf=(solvent=water) em=GD3\\Energy calcul
 ation for BNO_CO_reduced\\-1,2\C,0,4.053543,-3.024367,-0.111029\C,0,2.
 694018,-2.395472,-0.02842\C,0,1.515864,-3.125899,0.013912\C,0,0.424133
 ,-2.244284,0.170648\C,0,-0.935683,-2.705721,0.212555\C,0,-2.089135,-1.
 981578,0.09445\C,0,-3.416282,-2.527961,0.118462\C,0,-4.503183,-1.70499
 1,-0.087301\O,0,-4.242691,-0.349367,-0.252083\C,0,-5.249192,0.560375,-
 0.451831\C,0,-6.59691,0.151988,-0.494697\C,0,-7.584826,1.137142,-0.698
 337\C,0,-7.236811,2.469433,-0.851318\C,0,-5.882931,2.85386,-0.805998\C
 ,0,-5.490602,4.258904,-0.96418\O,0,-6.275419,5.187961,-1.144971\C,0,-4
 .882564,1.88901,-0.606215\C,0,-6.879186,-1.251353,-0.336371\C,0,-5.873
 715,-2.151767,-0.152246\C,0,-6.118106,-3.636395,-0.04393\C,0,-5.074038
 ,-4.307125,0.852558\C,0,-3.656016,-4.007273,0.35461\N,0,0.918286,-0.95
 9407,0.245339\C,0,2.313779,-1.018295,0.102851\C,0,3.118205,0.14418,0.2
 1194\C,0,4.557364,0.072278,-0.079972\C,0,5.023757,-0.349032,-1.347355\
 C,0,6.373837,-0.401233,-1.639338\C,0,7.318489,-0.056281,-0.646615\N,0,
 8.6891,-0.117868,-0.928797\O,0,9.537668,0.213325,-0.028418\O,0,9.08191
 8,-0.506057,-2.084318\C,0,6.874745,0.350805,0.631967\C,0,5.519949,0.42
 5837,0.894496\C,0,2.538518,1.373193,0.62162\C,0,3.052321,2.702759,0.69
 855\C,0,4.392185,3.249939,0.303855\C,0,2.00049,3.497196,1.174952\C,0,0
 .872346,2.69056,1.347708\C,0,-0.489734,3.101682,1.800667\N,0,1.19344,1
 .410901,1.007519\B,0,0.160684,0.293229,0.755144\F,0,-0.536004,-0.00350
 9,1.93715\F,0,-0.768206,0.752536,-0.213231\H,0,4.501499,-2.936399,-1.1
 05987\H,0,4.757115,-2.573427,0.594327\H,0,3.971733,-4.090164,0.121446\
 H,0,1.427858,-4.202218,-0.060763\H,0,-1.000973,-3.787645,0.296265\H,0,
 -2.011362,-0.915635,-0.066772\H,0,-8.625828,0.83056,-0.733368\H,0,-7.9
 96975,3.22742,-1.00642\H,0,-4.401763,4.450072,-0.910048\H,0,-3.832557,
 2.164654,-0.568644\H,0,-7.911748,-1.584574,-0.38038\H,0,-7.135354,-3.8
 1424,0.317778\H,0,-6.058359,-4.072815,-1.051271\H,0,-5.185784,-3.93766
 2,1.879177\H,0,-5.24084,-5.388403,0.877743\H,0,-2.928799,-4.377692,1.0
 84531\H,0,-3.464569,-4.564595,-0.573946\H,0,4.302939,-0.608779,-2.1161
 54\H,0,6.718419,-0.694263,-2.622621\H,0,7.602144,0.592179,1.396008\H,0
 ,5.18587,0.732878,1.880314\H,0,4.310777,4.330239,0.15027\H,0,5.16181,3
 .085018,1.065758\H,0,4.761971,2.801083,-0.622189\H,0,2.03999,4.5628,1.
 360945\H,0,-1.230961,2.954526,1.007698\H,0,-0.820022,2.509716,2.660042
 \H,0,-0.487138,4.157011,2.081268\\Version=ES64L-G16RevA.03\State=2-A\H
 F=-2002.3916181\S2=0.771959\S2-1=0.\S2A=0.75026\RMSD=3.912e-09\Dipole=
 -13.577433,-2.4084204,1.3959085\Quadrupole=-149.1180943,82.3199132,66.
 7981811,39.3674895,25.4161675,6.2392315\PG=C01 [X(C34H28B1F2N3O4)]\\@


 IT MATTERS NOT HOW DEEP YOU PLOW,
 BUT HOW LONG YOU STAY IN THE FURROW.
 Job cpu time:       2 days 19 hours 31 minutes 31.4 seconds.
 Elapsed time:       0 days  1 hours  3 minutes 56.2 seconds.
 File lengths (MBytes):  RWF=   3279 Int=      0 D2E=      0 Chk=    215 Scr=      1
 Normal termination of Gaussian 16 at Fri Oct 24 20:41:13 2025.
