 Entering Gaussian System, Link 0=g16
 Input=BNO_N3_sp.gjf
 Output=BNO_N3_sp.log
 Initial command:
 /public/software/gauss/g16/l1.exe "/public/home/baiding/1024_sp/tmp_BNO_N3_sp_1526250/Gau-2924726.inp" -scrdir="/public/home/baiding/1024_sp/tmp_BNO_N3_sp_1526250/"
 Entering Link 1 = /public/software/gauss/g16/l1.exe PID=   2924727.
  
 Copyright (c) 1988,1990,1992,1993,1995,1998,2003,2009,2016,
            Gaussian, Inc.  All Rights Reserved.
  
 This is part of the Gaussian(R) 16 program.  It is based on
 the Gaussian(R) 09 system (copyright 2009, Gaussian, Inc.),
 the Gaussian(R) 03 system (copyright 2003, Gaussian, Inc.),
 the Gaussian(R) 98 system (copyright 1998, Gaussian, Inc.),
 the Gaussian(R) 94 system (copyright 1995, Gaussian, Inc.),
 the Gaussian 92(TM) system (copyright 1992, Gaussian, Inc.),
 the Gaussian 90(TM) system (copyright 1990, Gaussian, Inc.),
 the Gaussian 88(TM) system (copyright 1988, Gaussian, Inc.),
 the Gaussian 86(TM) system (copyright 1986, Carnegie Mellon
 University), and the Gaussian 82(TM) system (copyright 1983,
 Carnegie Mellon University). Gaussian is a federally registered
 trademark of Gaussian, Inc.
  
 This software contains proprietary and confidential information,
 including trade secrets, belonging to Gaussian, Inc.
  
 This software is provided under written license and may be
 used, copied, transmitted, or stored only in accord with that
 written license.
  
 The following legend is applicable only to US Government
 contracts under FAR:
  
                    RESTRICTED RIGHTS LEGEND
  
 Use, reproduction and disclosure by the US Government is
 subject to restrictions as set forth in subparagraphs (a)
 and (c) of the Commercial Computer Software - Restricted
 Rights clause in FAR 52.227-19.
  
 Gaussian, Inc.
 340 Quinnipiac St., Bldg. 40, Wallingford CT 06492
  
  
 ---------------------------------------------------------------
 Warning -- This program may not be used in any manner that
 competes with the business of Gaussian, Inc. or will provide
 assistance to any competitor of Gaussian, Inc.  The licensee
 of this program is prohibited from giving any competitor of
 Gaussian, Inc. access to this program.  By using this program,
 the user acknowledges that Gaussian, Inc. is engaged in the
 business of creating and licensing software in the field of
 computational chemistry and represents and warrants to the
 licensee that it is not a competitor of Gaussian, Inc. and that
 it will not use this program in any manner prohibited above.
 ---------------------------------------------------------------
  

 Cite this work as:
 Gaussian 16, Revision A.03,
 M. J. Frisch, G. W. Trucks, H. B. Schlegel, G. E. Scuseria, 
 M. A. Robb, J. R. Cheeseman, G. Scalmani, V. Barone, 
 G. A. Petersson, H. Nakatsuji, X. Li, M. Caricato, A. V. Marenich, 
 J. Bloino, B. G. Janesko, R. Gomperts, B. Mennucci, H. P. Hratchian, 
 J. V. Ortiz, A. F. Izmaylov, J. L. Sonnenberg, D. Williams-Young, 
 F. Ding, F. Lipparini, F. Egidi, J. Goings, B. Peng, A. Petrone, 
 T. Henderson, D. Ranasinghe, V. G. Zakrzewski, J. Gao, N. Rega, 
 G. Zheng, W. Liang, M. Hada, M. Ehara, K. Toyota, R. Fukuda, 
 J. Hasegawa, M. Ishida, T. Nakajima, Y. Honda, O. Kitao, H. Nakai, 
 T. Vreven, K. Throssell, J. A. Montgomery, Jr., J. E. Peralta, 
 F. Ogliaro, M. J. Bearpark, J. J. Heyd, E. N. Brothers, K. N. Kudin, 
 V. N. Staroverov, T. A. Keith, R. Kobayashi, J. Normand, 
 K. Raghavachari, A. P. Rendell, J. C. Burant, S. S. Iyengar, 
 J. Tomasi, M. Cossi, J. M. Millam, M. Klene, C. Adamo, R. Cammi, 
 J. W. Ochterski, R. L. Martin, K. Morokuma, O. Farkas, 
 J. B. Foresman, and D. J. Fox, Gaussian, Inc., Wallingford CT, 2016.
 
 ******************************************
 Gaussian 16:  ES64L-G16RevA.03 25-Dec-2016
                24-Oct-2025 
 ******************************************
 %nprocshared=64
 Will use up to   64 processors via shared memory.
 %mem=230GB
 %chk=BNO_N3_sp.chk
 ----------------------------------------------
 #p M062X/DEF2TZVPP scrf=(solvent=water) em=GD3
 ----------------------------------------------
 1/38=1,172=1/1;
 2/12=2,17=6,18=5,40=1/2;
 3/5=44,7=202,11=2,25=1,30=1,70=2201,72=1,74=-55,124=31/1,2,3;
 4//1;
 5/5=2,38=5,53=1/2;
 6/7=2,8=2,9=2,10=2,28=1/1;
 99/5=1,9=1/99;
 Leave Link    1 at Fri Oct 24 21:43:32 2025, MaxMem= 30870077440 cpu:              10.6 elap:               0.2
 (Enter /public/software/gauss/g16/l101.exe)
 -----------------------------
 Energy calculation for BNO_N3
 -----------------------------
 Symbolic Z-matrix:
 Charge =  0 Multiplicity = 1
 C                    -3.61746  -2.98156   0.32944 
 C                    -2.35425  -2.1978    0.14122 
 C                    -1.08995  -2.74955   0.12865 
 C                    -0.13568  -1.70918  -0.05909 
 C                     1.29136  -1.78219  -0.11258 
 C                     1.98639  -2.9653   -0.10578 
 C                     3.40042  -3.20841  -0.13276 
 C                     4.38805  -2.24217  -0.07435 
 O                     3.98151  -0.93006   0.0683 
 C                     4.87186   0.10699   0.16829 
 C                     6.25732  -0.13167   0.12908 
 C                     7.11261   0.97945   0.24119 
 C                     6.60796   2.26396   0.38451 
 C                     5.2163    2.46203   0.41728 
 N                     4.60546   3.73483   0.55886 
 N                     5.33286   4.73177   0.6521 
 N                     5.8742    5.73048   0.74807 
 C                     4.33681   1.38118   0.30964 
 C                     6.6975   -1.49252  -0.02787 
 C                     5.80562  -2.51587  -0.13877 
 C                     6.23353  -3.94821  -0.34762 
 C                     5.24262  -4.91877   0.29974 
 C                     3.83169  -4.66674  -0.23571 
 N                    -0.8101   -0.52478  -0.16166 
 C                    -2.18172  -0.77694  -0.04493 
 C                    -3.10714   0.27068  -0.09722 
 C                    -4.56674  -0.02085   0.0379 
 C                    -5.34308  -0.26991  -1.10407 
 C                    -6.7022   -0.54112  -0.98934 
 C                    -7.27308  -0.55801   0.28325 
 N                    -8.69895  -0.84401   0.41259 
 O                    -9.35218  -1.05862  -0.61387 
 O                    -9.19643  -0.86044   1.54337 
 C                    -6.52786  -0.31152   1.43631 
 C                    -5.16986  -0.04259   1.30451 
 C                    -2.68515   1.60618  -0.27111 
 C                    -3.40371   2.84074  -0.31011 
 C                    -4.87566   3.0955   -0.1795 
 C                    -2.44399   3.83857  -0.49441 
 C                    -1.17854   3.2371   -0.56927 
 C                     0.14301   3.90044  -0.76928 
 N                    -1.32316   1.8948   -0.42917 
 B                    -0.19499   0.84692  -0.53795 
 F                     0.85271   1.17829   0.34852 
 F                     0.32036   0.81191  -1.84388 
 H                    -4.30542  -2.85905  -0.51255 
 H                    -3.37826  -4.04416   0.42046 
 H                    -4.158    -2.6777    1.23115 
 H                    -0.85711  -3.79711   0.26061 
 H                     1.81644  -0.84204  -0.15043 
 H                     1.39399  -3.87907  -0.08907 
 H                     8.18617   0.81996   0.2138 
 H                     7.28545   3.10698   0.46955 
 H                     3.26283   1.52711   0.33496 
 H                     7.76433  -1.69391  -0.06517 
 H                     6.2775   -4.15102  -1.42709 
 H                     7.24693  -4.08543   0.04151 
 H                     5.54169  -5.95227   0.09924 
 H                     5.25369  -4.78097   1.38794 
 H                     3.78028  -4.99081  -1.2855 
 H                     3.10825  -5.28514   0.30682 
 H                    -4.88067  -0.25257  -2.08488 
 H                    -7.30885  -0.73665  -1.86407 
 H                    -7.00195  -0.33123   2.40904 
 H                    -4.57335   0.15141   2.18922 
 H                    -5.45445   2.58614  -0.95641 
 H                    -5.2694    2.75769   0.78445 
 H                    -5.07039   4.16796  -0.26405 
 H                    -2.63338   4.90136  -0.56822 
 H                     0.68001   3.46094  -1.61617 
 H                     0.00037   4.96586  -0.9603 
 H                     0.78354   3.78703   0.11155 
 
 ITRead=  0  0  0  0  0  0  0  0  0  0  0  0  0  0  0  0  0  0  0  0
 ITRead=  0  0  0  0  0  0  0  0  0  0  0  0  0  0  0  0  0  0  0  0
 ITRead=  0  0  0  0  0  0  0  0  0  0  0  0  0  0  0  0  0  0  0  0
 ITRead=  0  0  0  0  0  0  0  0  0  0  0  0
 MicOpt= -1 -1 -1 -1 -1 -1 -1 -1 -1 -1 -1 -1 -1 -1 -1 -1 -1 -1 -1 -1
 MicOpt= -1 -1 -1 -1 -1 -1 -1 -1 -1 -1 -1 -1 -1 -1 -1 -1 -1 -1 -1 -1
 MicOpt= -1 -1 -1 -1 -1 -1 -1 -1 -1 -1 -1 -1 -1 -1 -1 -1 -1 -1 -1 -1
 MicOpt= -1 -1 -1 -1 -1 -1 -1 -1 -1 -1 -1 -1
 NAtoms=     72 NQM=       72 NQMF=       0 NMMI=      0 NMMIF=      0
                NMic=       0 NMicF=      0.
                    Isotopes and Nuclear Properties:
 (Nuclear quadrupole moments (NQMom) in fm**2, nuclear magnetic moments (NMagM)
  in nuclear magnetons)

  Atom         1           2           3           4           5           6           7           8           9          10
 IAtWgt=          12          12          12          12          12          12          12          12          16          12
 AtmWgt=  12.0000000  12.0000000  12.0000000  12.0000000  12.0000000  12.0000000  12.0000000  12.0000000  15.9949146  12.0000000
 NucSpn=           0           0           0           0           0           0           0           0           0           0
 AtZEff=  -0.0000000  -0.0000000  -0.0000000  -0.0000000  -0.0000000  -0.0000000  -0.0000000  -0.0000000  -0.0000000  -0.0000000
 NQMom=    0.0000000   0.0000000   0.0000000   0.0000000   0.0000000   0.0000000   0.0000000   0.0000000   0.0000000   0.0000000
 NMagM=    0.0000000   0.0000000   0.0000000   0.0000000   0.0000000   0.0000000   0.0000000   0.0000000   0.0000000   0.0000000
 AtZNuc=   6.0000000   6.0000000   6.0000000   6.0000000   6.0000000   6.0000000   6.0000000   6.0000000   8.0000000   6.0000000

  Atom        11          12          13          14          15          16          17          18          19          20
 IAtWgt=          12          12          12          12          14          14          14          12          12          12
 AtmWgt=  12.0000000  12.0000000  12.0000000  12.0000000  14.0030740  14.0030740  14.0030740  12.0000000  12.0000000  12.0000000
 NucSpn=           0           0           0           0           2           2           2           0           0           0
 AtZEff=  -0.0000000  -0.0000000  -0.0000000  -0.0000000  -0.0000000  -0.0000000  -0.0000000  -0.0000000  -0.0000000  -0.0000000
 NQMom=    0.0000000   0.0000000   0.0000000   0.0000000   2.0440000   2.0440000   2.0440000   0.0000000   0.0000000   0.0000000
 NMagM=    0.0000000   0.0000000   0.0000000   0.0000000   0.4037610   0.4037610   0.4037610   0.0000000   0.0000000   0.0000000
 AtZNuc=   6.0000000   6.0000000   6.0000000   6.0000000   7.0000000   7.0000000   7.0000000   6.0000000   6.0000000   6.0000000

  Atom        21          22          23          24          25          26          27          28          29          30
 IAtWgt=          12          12          12          14          12          12          12          12          12          12
 AtmWgt=  12.0000000  12.0000000  12.0000000  14.0030740  12.0000000  12.0000000  12.0000000  12.0000000  12.0000000  12.0000000
 NucSpn=           0           0           0           2           0           0           0           0           0           0
 AtZEff=  -0.0000000  -0.0000000  -0.0000000  -0.0000000  -0.0000000  -0.0000000  -0.0000000  -0.0000000  -0.0000000  -0.0000000
 NQMom=    0.0000000   0.0000000   0.0000000   2.0440000   0.0000000   0.0000000   0.0000000   0.0000000   0.0000000   0.0000000
 NMagM=    0.0000000   0.0000000   0.0000000   0.4037610   0.0000000   0.0000000   0.0000000   0.0000000   0.0000000   0.0000000
 AtZNuc=   6.0000000   6.0000000   6.0000000   7.0000000   6.0000000   6.0000000   6.0000000   6.0000000   6.0000000   6.0000000

  Atom        31          32          33          34          35          36          37          38          39          40
 IAtWgt=          14          16          16          12          12          12          12          12          12          12
 AtmWgt=  14.0030740  15.9949146  15.9949146  12.0000000  12.0000000  12.0000000  12.0000000  12.0000000  12.0000000  12.0000000
 NucSpn=           2           0           0           0           0           0           0           0           0           0
 AtZEff=  -0.0000000  -0.0000000  -0.0000000  -0.0000000  -0.0000000  -0.0000000  -0.0000000  -0.0000000  -0.0000000  -0.0000000
 NQMom=    2.0440000   0.0000000   0.0000000   0.0000000   0.0000000   0.0000000   0.0000000   0.0000000   0.0000000   0.0000000
 NMagM=    0.4037610   0.0000000   0.0000000   0.0000000   0.0000000   0.0000000   0.0000000   0.0000000   0.0000000   0.0000000
 AtZNuc=   7.0000000   8.0000000   8.0000000   6.0000000   6.0000000   6.0000000   6.0000000   6.0000000   6.0000000   6.0000000

  Atom        41          42          43          44          45          46          47          48          49          50
 IAtWgt=          12          14          11          19          19           1           1           1           1           1
 AtmWgt=  12.0000000  14.0030740  11.0093053  18.9984033  18.9984033   1.0078250   1.0078250   1.0078250   1.0078250   1.0078250
 NucSpn=           0           2           3           1           1           1           1           1           1           1
 AtZEff=  -0.0000000  -0.0000000  -0.0000000  -0.0000000  -0.0000000  -0.0000000  -0.0000000  -0.0000000  -0.0000000  -0.0000000
 NQMom=    0.0000000   2.0440000   4.0590000   0.0000000   0.0000000   0.0000000   0.0000000   0.0000000   0.0000000   0.0000000
 NMagM=    0.0000000   0.4037610   2.6886370   2.6288670   2.6288670   2.7928460   2.7928460   2.7928460   2.7928460   2.7928460
 AtZNuc=   6.0000000   7.0000000   5.0000000   9.0000000   9.0000000   1.0000000   1.0000000   1.0000000   1.0000000   1.0000000

  Atom        51          52          53          54          55          56          57          58          59          60
 IAtWgt=           1           1           1           1           1           1           1           1           1           1
 AtmWgt=   1.0078250   1.0078250   1.0078250   1.0078250   1.0078250   1.0078250   1.0078250   1.0078250   1.0078250   1.0078250
 NucSpn=           1           1           1           1           1           1           1           1           1           1
 AtZEff=  -0.0000000  -0.0000000  -0.0000000  -0.0000000  -0.0000000  -0.0000000  -0.0000000  -0.0000000  -0.0000000  -0.0000000
 NQMom=    0.0000000   0.0000000   0.0000000   0.0000000   0.0000000   0.0000000   0.0000000   0.0000000   0.0000000   0.0000000
 NMagM=    2.7928460   2.7928460   2.7928460   2.7928460   2.7928460   2.7928460   2.7928460   2.7928460   2.7928460   2.7928460
 AtZNuc=   1.0000000   1.0000000   1.0000000   1.0000000   1.0000000   1.0000000   1.0000000   1.0000000   1.0000000   1.0000000

  Atom        61          62          63          64          65          66          67          68          69          70
 IAtWgt=           1           1           1           1           1           1           1           1           1           1
 AtmWgt=   1.0078250   1.0078250   1.0078250   1.0078250   1.0078250   1.0078250   1.0078250   1.0078250   1.0078250   1.0078250
 NucSpn=           1           1           1           1           1           1           1           1           1           1
 AtZEff=  -0.0000000  -0.0000000  -0.0000000  -0.0000000  -0.0000000  -0.0000000  -0.0000000  -0.0000000  -0.0000000  -0.0000000
 NQMom=    0.0000000   0.0000000   0.0000000   0.0000000   0.0000000   0.0000000   0.0000000   0.0000000   0.0000000   0.0000000
 NMagM=    2.7928460   2.7928460   2.7928460   2.7928460   2.7928460   2.7928460   2.7928460   2.7928460   2.7928460   2.7928460
 AtZNuc=   1.0000000   1.0000000   1.0000000   1.0000000   1.0000000   1.0000000   1.0000000   1.0000000   1.0000000   1.0000000

  Atom        71          72
 IAtWgt=           1           1
 AtmWgt=   1.0078250   1.0078250
 NucSpn=           1           1
 AtZEff=  -0.0000000  -0.0000000
 NQMom=    0.0000000   0.0000000
 NMagM=    2.7928460   2.7928460
 AtZNuc=   1.0000000   1.0000000
 Leave Link  101 at Fri Oct 24 21:43:32 2025, MaxMem= 30870077440 cpu:               4.0 elap:               0.1
 (Enter /public/software/gauss/g16/l202.exe)
 Stoichiometry    C33H27BF2N6O3
 Framework group  C1[X(C33H27BF2N6O3)]
 Deg. of freedom   210
 Full point group                 C1      NOp   1
 Largest Abelian subgroup         C1      NOp   1
 Largest concise Abelian subgroup C1      NOp   1
                         Standard orientation:                         
 ---------------------------------------------------------------------
 Center     Atomic      Atomic             Coordinates (Angstroms)
 Number     Number       Type             X           Y           Z
 ---------------------------------------------------------------------
      1          6           0        3.617463   -2.981564   -0.329436
      2          6           0        2.354247   -2.197798   -0.141223
      3          6           0        1.089951   -2.749554   -0.128650
      4          6           0        0.135683   -1.709182    0.059090
      5          6           0       -1.291359   -1.782191    0.112580
      6          6           0       -1.986387   -2.965297    0.105775
      7          6           0       -3.400424   -3.208414    0.132758
      8          6           0       -4.388047   -2.242169    0.074347
      9          8           0       -3.981505   -0.930060   -0.068301
     10          6           0       -4.871861    0.106985   -0.168289
     11          6           0       -6.257321   -0.131674   -0.129077
     12          6           0       -7.112607    0.979449   -0.241189
     13          6           0       -6.607963    2.263961   -0.384510
     14          6           0       -5.216300    2.462027   -0.417284
     15          7           0       -4.605462    3.734829   -0.558862
     16          7           0       -5.332855    4.731769   -0.652101
     17          7           0       -5.874197    5.730482   -0.748068
     18          6           0       -4.336805    1.381176   -0.309639
     19          6           0       -6.697499   -1.492521    0.027868
     20          6           0       -5.805618   -2.515869    0.138766
     21          6           0       -6.233527   -3.948210    0.347617
     22          6           0       -5.242618   -4.918771   -0.299740
     23          6           0       -3.831686   -4.666736    0.235706
     24          7           0        0.810104   -0.524782    0.161658
     25          6           0        2.181724   -0.776940    0.044928
     26          6           0        3.107142    0.270680    0.097224
     27          6           0        4.566742   -0.020849   -0.037903
     28          6           0        5.343078   -0.269908    1.104068
     29          6           0        6.702200   -0.541115    0.989341
     30          6           0        7.273079   -0.558011   -0.283254
     31          7           0        8.698945   -0.844005   -0.412587
     32          8           0        9.352179   -1.058623    0.613868
     33          8           0        9.196433   -0.860442   -1.543369
     34          6           0        6.527861   -0.311516   -1.436308
     35          6           0        5.169857   -0.042586   -1.304511
     36          6           0        2.685147    1.606183    0.271109
     37          6           0        3.403712    2.840742    0.310114
     38          6           0        4.875658    3.095504    0.179497
     39          6           0        2.443991    3.838567    0.494412
     40          6           0        1.178535    3.237097    0.569274
     41          6           0       -0.143011    3.900440    0.769276
     42          7           0        1.323160    1.894804    0.429168
     43          5           0        0.194985    0.846924    0.537945
     44          9           0       -0.852710    1.178290   -0.348523
     45          9           0       -0.320360    0.811909    1.843879
     46          1           0        4.305423   -2.859046    0.512547
     47          1           0        3.378264   -4.044162   -0.420462
     48          1           0        4.157998   -2.677697   -1.231152
     49          1           0        0.857109   -3.797111   -0.260613
     50          1           0       -1.816438   -0.842044    0.150430
     51          1           0       -1.393988   -3.879073    0.089067
     52          1           0       -8.186171    0.819957   -0.213801
     53          1           0       -7.285448    3.106975   -0.469546
     54          1           0       -3.262830    1.527107   -0.334959
     55          1           0       -7.764333   -1.693911    0.065169
     56          1           0       -6.277503   -4.151022    1.427093
     57          1           0       -7.246934   -4.085434   -0.041514
     58          1           0       -5.541689   -5.952274   -0.099242
     59          1           0       -5.253688   -4.780966   -1.387937
     60          1           0       -3.780281   -4.990812    1.285503
     61          1           0       -3.108245   -5.285143   -0.306817
     62          1           0        4.880671   -0.252567    2.084882
     63          1           0        7.308846   -0.736651    1.864070
     64          1           0        7.001947   -0.331227   -2.409041
     65          1           0        4.573354    0.151413   -2.189218
     66          1           0        5.454452    2.586144    0.956414
     67          1           0        5.269400    2.757689   -0.784449
     68          1           0        5.070390    4.167960    0.264052
     69          1           0        2.633384    4.901364    0.568216
     70          1           0       -0.680005    3.460940    1.616168
     71          1           0       -0.000367    4.965857    0.960299
     72          1           0       -0.783544    3.787032   -0.111553
 ---------------------------------------------------------------------
 Rotational constants (GHZ):           0.1233316           0.0345500           0.0277940
 Leave Link  202 at Fri Oct 24 21:43:32 2025, MaxMem= 30870077440 cpu:               0.5 elap:               0.0
 (Enter /public/software/gauss/g16/l301.exe)
 Standard basis: def2TZVPP (5D, 7F)
 Ernie: Thresh=  0.10000D-02 Tol=  0.10000D-05 Strict=F.
 There are  2025 symmetry adapted cartesian basis functions of A   symmetry.
 There are  1773 symmetry adapted basis functions of A   symmetry.
  1773 basis functions,  2754 primitive gaussians,  2025 cartesian basis functions
   157 alpha electrons      157 beta electrons
       nuclear repulsion energy      5126.7068097306 Hartrees.
 IExCor= 4336 DFT=T Ex+Corr=M062X ExCW=0 ScaHFX=  0.540000
 ScaDFX=  1.000000  1.000000  1.000000  1.000000 ScalE2=  1.000000  1.000000
 IRadAn=      5 IRanWt=     -1 IRanGd=            0 ICorTp=0 IEmpDi=131
 NAtoms=   72 NActive=   72 NUniq=   72 SFac= 1.00D+00 NAtFMM=   60 NAOKFM=T Big=T
 Integral buffers will be    131072 words long.
 Raffenetti 2 integral format.
 Two-electron integral symmetry is turned on.
 R6Disp:  Grimme-D3 Dispersion energy=       -0.0065673567 Hartrees.
 Nuclear repulsion after empirical dispersion term =     5126.7002423739 Hartrees.
 ------------------------------------------------------------------------------
 Polarizable Continuum Model (PCM)
 =================================
 Model                : PCM.
 Atomic radii         : UFF (Universal Force Field).
 Polarization charges : Total charges.
 Charge compensation  : None.
 Solution method      : On-the-fly selection.
 Cavity type          : Scaled VdW (van der Waals Surface) (Alpha=1.100).
 Cavity algorithm     : GePol (No added spheres)
                        Default sphere list used, NSphG=   72.
                        Lebedev-Laikov grids with approx.  5.0 points / Ang**2.
                        Smoothing algorithm: York/Karplus (Gamma=1.0000).
                        Polarization charges: spherical gaussians, with
                                              point-specific exponents (IZeta= 3).
                        Self-potential: point-specific (ISelfS= 7).
                        Self-field    : sphere-specific E.n sum rule (ISelfD= 2).
 Solvent              : Water, Eps=  78.355300 Eps(inf)=   1.777849
 ------------------------------------------------------------------------------
 GePol: Number of generator spheres                  =      72
 GePol: Total number of spheres                      =      72
 GePol: Number of exposed spheres                    =      72 (100.00%)
 GePol: Number of points                             =    5245
 GePol: Average weight of points                     =       0.13
 GePol: Minimum weight of points                     =   0.34D-10
 GePol: Maximum weight of points                     =    0.20577
 GePol: Number of points with low weight             =     381
 GePol: Fraction of low-weight points (<1% of avg)   =       7.26%
 GePol: Cavity surface area                          =    656.054 Ang**2
 GePol: Cavity volume                                =    768.198 Ang**3
 Leave Link  301 at Fri Oct 24 21:43:33 2025, MaxMem= 30870077440 cpu:               3.6 elap:               0.1
 (Enter /public/software/gauss/g16/l302.exe)
 NPDir=0 NMtPBC=     1 NCelOv=     1 NCel=       1 NClECP=     1 NCelD=      1
         NCelK=      1 NCelE2=     1 NClLst=     1 CellRange=     0.0.
 One-electron integrals computed using PRISM.
 One-electron integral symmetry used in STVInt
   1 Symmetry operations used in ECPInt.
 ECPInt:  NShTT=  216153 NPrTT=  624357 LenC2=  142927 LenP2D=  278022.
 LDataN:  DoStor=T MaxTD1= 6 Len=  172
 NBasis=  1773 RedAO= T EigKep=  3.60D-06  NBF=  1773
 NBsUse=  1773 1.00D-06 EigRej= -1.00D+00 NBFU=  1773
 Precomputing XC quadrature grid using
 IXCGrd= 4 IRadAn=           5 IRanWt=          -1 IRanGd=           0 AccXCQ= 0.00D+00.
 Generated NRdTot=       0 NPtTot=           0 NUsed=           0 NTot=          32
 NSgBfM=  1831  1831  1831  1831  1831 MxSgAt=    72 MxSgA2=    72.
 Leave Link  302 at Fri Oct 24 21:43:41 2025, MaxMem= 30870077440 cpu:             536.2 elap:               8.4
 (Enter /public/software/gauss/g16/l303.exe)
 DipDrv:  MaxL=1.
 Leave Link  303 at Fri Oct 24 21:43:41 2025, MaxMem= 30870077440 cpu:              25.5 elap:               0.5
 (Enter /public/software/gauss/g16/l401.exe)
 ExpMin= 6.06D-02 ExpMax= 3.55D+04 ExpMxC= 1.21D+03 IAcc=3 IRadAn=         5 AccDes= 0.00D+00
 Harris functional with IExCor= 1009 and IRadAn=       5 diagonalized for initial guess.
 HarFok:  IExCor= 1009 AccDes= 0.00D+00 IRadAn=         5 IDoV= 1 UseB2=F ITyADJ=14
 ICtDFT=  3500011 ScaDFX=  1.000000  1.000000  1.000000  1.000000
 FoFCou: FMM=F IPFlag=           0 FMFlag=      100000 FMFlg1=        2001
         NFxFlg=           0 DoJE=T BraDBF=F KetDBF=T FulRan=T
         wScrn=  0.000000 ICntrl=       500 IOpCl=  0 I1Cent=   200000004 NGrid=           0
         NMat0=    1 NMatS0=      1 NMatT0=    0 NMatD0=    1 NMtDS0=    0 NMtDT0=    0
 Petite list used in FoFCou.
 Harris En= -2051.48033890302    
 JPrj=0 DoOrth=F DoCkMO=F.
 Leave Link  401 at Fri Oct 24 21:43:52 2025, MaxMem= 30870077440 cpu:             633.4 elap:              10.0
 (Enter /public/software/gauss/g16/l502.exe)
 Integral symmetry usage will be decided dynamically.
 Closed shell SCF:
 Using DIIS extrapolation, IDIIS=  1040.
 NGot= 30870077440 LenX= 30861729606 LenY= 30857626956
 Requested convergence on RMS density matrix=1.00D-08 within 128 cycles.
 Requested convergence on MAX density matrix=1.00D-06.
 Requested convergence on             energy=1.00D-06.
 No special actions if energy rises.
 Fock matrices will be formed incrementally for  20 cycles.

 Cycle   1  Pass 1  IDiag  1:
 FoFJK:  IHMeth= 1 ICntrl=       0 DoSepK=F KAlg= 0 I1Cent=           0 FoldK=F
 IRaf= 630000000 NMat=       1 IRICut=       1 DoRegI=T DoRafI=F ISym2E= 0 IDoP0=0 IntGTp=1.
 FoFCou: FMM=T IPFlag=           0 FMFlag=      100000 FMFlg1=        2001
         NFxFlg=           0 DoJE=F BraDBF=F KetDBF=F FulRan=T
         wScrn=  0.000000 ICntrl=         0 IOpCl=  0 I1Cent=           0 NGrid=           0
         NMat0=    1 NMatS0=      1 NMatT0=    0 NMatD0=    1 NMtDS0=    0 NMtDT0=    0
 Symmetry not used in FoFCou.
 FMM levels:  10  Number of levels for PrismC:   9
 Inv3:  Mode=1 IEnd=    82530075.
 Iteration    1 A*A^-1 deviation from unit magnitude is 1.18D-14 for   5228.
 Iteration    1 A*A^-1 deviation from orthogonality  is 7.32D-15 for   5201    743.
 Iteration    1 A^-1*A deviation from unit magnitude is 1.18D-14 for   5228.
 Iteration    1 A^-1*A deviation from orthogonality  is 2.86D-15 for   5233   1872.
 E= -2051.46499925218    
 DIIS: error= 3.13D-02 at cycle   1 NSaved=   1.
 NSaved= 1 IEnMin= 1 EnMin= -2051.46499925218     IErMin= 1 ErrMin= 3.13D-02
 ErrMax= 3.13D-02  0.00D+00 EMaxC= 1.00D-01 BMatC= 1.40D+00 BMatP= 1.40D+00
 IDIUse=3 WtCom= 6.87D-01 WtEn= 3.13D-01
 Coeff-Com:  0.100D+01
 Coeff-En:   0.100D+01
 Coeff:      0.100D+01
 Gap=     0.133 Goal=   None    Shift=    0.000
 GapD=    0.133 DampG=1.000 DampE=0.500 DampFc=0.5000 IDamp=-1.
 Damping current iteration by 5.00D-01
 RMSDP=1.39D-03 MaxDP=1.24D-01              OVMax= 2.62D-01

 Cycle   2  Pass 1  IDiag  1:
 RMSU=  6.92D-04    CP:  9.83D-01
 E= -2051.97946636105     Delta-E=       -0.514467108864 Rises=F Damp=T
 DIIS: error= 4.93D-03 at cycle   2 NSaved=   2.
 NSaved= 2 IEnMin= 2 EnMin= -2051.97946636105     IErMin= 2 ErrMin= 4.93D-03
 ErrMax= 4.93D-03  0.00D+00 EMaxC= 1.00D-01 BMatC= 1.43D-01 BMatP= 1.40D+00
 IDIUse=3 WtCom= 9.51D-01 WtEn= 4.93D-02
 Coeff-Com: -0.601D-01 0.106D+01
 Coeff-En:   0.000D+00 0.100D+01
 Coeff:     -0.571D-01 0.106D+01
 Gap=     0.158 Goal=   None    Shift=    0.000
 RMSDP=6.36D-04 MaxDP=5.00D-02 DE=-5.14D-01 OVMax= 2.13D-01

 Cycle   3  Pass 1  IDiag  1:
 RMSU=  5.78D-04    CP:  9.63D-01  1.37D+00
 E= -2052.46887450974     Delta-E=       -0.489408148694 Rises=F Damp=F
 DIIS: error= 1.26D-02 at cycle   3 NSaved=   3.
 NSaved= 3 IEnMin= 3 EnMin= -2052.46887450974     IErMin= 2 ErrMin= 4.93D-03
 ErrMax= 1.26D-02  0.00D+00 EMaxC= 1.00D-01 BMatC= 8.11D-02 BMatP= 1.43D-01
 IDIUse=3 WtCom= 8.74D-01 WtEn= 1.26D-01
 Coeff-Com: -0.114D+00 0.485D+00 0.629D+00
 Coeff-En:   0.000D+00 0.000D+00 0.100D+01
 Coeff:     -0.992D-01 0.424D+00 0.676D+00
 Gap=     0.128 Goal=   None    Shift=    0.000
 RMSDP=1.80D-04 MaxDP=2.78D-02 DE=-4.89D-01 OVMax= 7.83D-02

 Cycle   4  Pass 1  IDiag  1:
 RMSU=  1.75D-04    CP:  9.66D-01  1.40D+00  9.37D-01
 E= -2052.51662568545     Delta-E=       -0.047751175707 Rises=F Damp=F
 DIIS: error= 4.91D-03 at cycle   4 NSaved=   4.
 NSaved= 4 IEnMin= 4 EnMin= -2052.51662568545     IErMin= 4 ErrMin= 4.91D-03
 ErrMax= 4.91D-03  0.00D+00 EMaxC= 1.00D-01 BMatC= 1.79D-02 BMatP= 8.11D-02
 IDIUse=3 WtCom= 9.51D-01 WtEn= 4.91D-02
 Coeff-Com: -0.355D-01 0.998D-01 0.361D+00 0.574D+00
 Coeff-En:   0.000D+00 0.000D+00 0.176D+00 0.824D+00
 Coeff:     -0.338D-01 0.949D-01 0.352D+00 0.587D+00
 Gap=     0.130 Goal=   None    Shift=    0.000
 RMSDP=6.99D-05 MaxDP=1.24D-02 DE=-4.78D-02 OVMax= 2.12D-02

 Cycle   5  Pass 1  IDiag  1:
 RMSU=  5.31D-05    CP:  9.65D-01  1.40D+00  9.63D-01  7.57D-01
 E= -2052.52935342624     Delta-E=       -0.012727740793 Rises=F Damp=F
 DIIS: error= 7.77D-04 at cycle   5 NSaved=   5.
 NSaved= 5 IEnMin= 5 EnMin= -2052.52935342624     IErMin= 5 ErrMin= 7.77D-04
 ErrMax= 7.77D-04  0.00D+00 EMaxC= 1.00D-01 BMatC= 1.17D-03 BMatP= 1.79D-02
 IDIUse=3 WtCom= 9.92D-01 WtEn= 7.77D-03
 Coeff-Com: -0.128D-01 0.275D-01 0.163D+00 0.327D+00 0.496D+00
 Coeff-En:   0.000D+00 0.000D+00 0.000D+00 0.000D+00 0.100D+01
 Coeff:     -0.127D-01 0.273D-01 0.161D+00 0.324D+00 0.500D+00
 Gap=     0.131 Goal=   None    Shift=    0.000
 RMSDP=2.10D-05 MaxDP=5.44D-03 DE=-1.27D-02 OVMax= 1.01D-02

 Cycle   6  Pass 1  IDiag  1:
 RMSU=  1.91D-05    CP:  9.65D-01  1.40D+00  9.66D-01  7.70D-01  8.42D-01
 E= -2052.53026376147     Delta-E=       -0.000910335233 Rises=F Damp=F
 DIIS: error= 3.50D-04 at cycle   6 NSaved=   6.
 NSaved= 6 IEnMin= 6 EnMin= -2052.53026376147     IErMin= 6 ErrMin= 3.50D-04
 ErrMax= 3.50D-04  0.00D+00 EMaxC= 1.00D-01 BMatC= 1.48D-04 BMatP= 1.17D-03
 IDIUse=3 WtCom= 9.96D-01 WtEn= 3.50D-03
 Coeff-Com: -0.211D-02 0.144D-02 0.420D-01 0.102D+00 0.291D+00 0.566D+00
 Coeff-En:   0.000D+00 0.000D+00 0.000D+00 0.000D+00 0.482D-01 0.952D+00
 Coeff:     -0.210D-02 0.143D-02 0.418D-01 0.102D+00 0.290D+00 0.567D+00
 Gap=     0.131 Goal=   None    Shift=    0.000
 RMSDP=1.10D-05 MaxDP=1.66D-03 DE=-9.10D-04 OVMax= 4.26D-03

 Cycle   7  Pass 1  IDiag  1:
 RMSU=  9.77D-06    CP:  9.65D-01  1.40D+00  9.69D-01  7.68D-01  9.30D-01
                    CP:  9.92D-01
 E= -2052.53041218504     Delta-E=       -0.000148423567 Rises=F Damp=F
 DIIS: error= 5.73D-05 at cycle   7 NSaved=   7.
 NSaved= 7 IEnMin= 7 EnMin= -2052.53041218504     IErMin= 7 ErrMin= 5.73D-05
 ErrMax= 5.73D-05  0.00D+00 EMaxC= 1.00D-01 BMatC= 1.20D-05 BMatP= 1.48D-04
 IDIUse=1 WtCom= 1.00D+00 WtEn= 0.00D+00
 Coeff-Com:  0.150D-02-0.425D-02-0.129D-01-0.207D-01 0.193D-01 0.217D+00
 Coeff-Com:  0.800D+00
 Coeff:      0.150D-02-0.425D-02-0.129D-01-0.207D-01 0.193D-01 0.217D+00
 Coeff:      0.800D+00
 Gap=     0.131 Goal=   None    Shift=    0.000
 RMSDP=6.19D-06 MaxDP=6.01D-04 DE=-1.48D-04 OVMax= 4.19D-03

 Cycle   8  Pass 1  IDiag  1:
 RMSU=  4.18D-06    CP:  9.65D-01  1.40D+00  9.71D-01  7.69D-01  9.77D-01
                    CP:  1.11D+00  1.29D+00
 E= -2052.53044097857     Delta-E=       -0.000028793528 Rises=F Damp=F
 DIIS: error= 3.35D-05 at cycle   8 NSaved=   8.
 NSaved= 8 IEnMin= 8 EnMin= -2052.53044097857     IErMin= 8 ErrMin= 3.35D-05
 ErrMax= 3.35D-05  0.00D+00 EMaxC= 1.00D-01 BMatC= 2.12D-06 BMatP= 1.20D-05
 IDIUse=1 WtCom= 1.00D+00 WtEn= 0.00D+00
 Coeff-Com:  0.886D-03-0.176D-02-0.112D-01-0.243D-01-0.441D-01-0.175D-01
 Coeff-Com:  0.291D+00 0.807D+00
 Coeff:      0.886D-03-0.176D-02-0.112D-01-0.243D-01-0.441D-01-0.175D-01
 Coeff:      0.291D+00 0.807D+00
 Gap=     0.132 Goal=   None    Shift=    0.000
 RMSDP=3.47D-06 MaxDP=3.44D-04 DE=-2.88D-05 OVMax= 2.86D-03

 Cycle   9  Pass 1  IDiag  1:
 RMSU=  1.89D-06    CP:  9.65D-01  1.40D+00  9.72D-01  7.71D-01  9.96D-01
                    CP:  1.20D+00  1.48D+00  1.22D+00
 E= -2052.53044903876     Delta-E=       -0.000008060188 Rises=F Damp=F
 DIIS: error= 1.23D-05 at cycle   9 NSaved=   9.
 NSaved= 9 IEnMin= 9 EnMin= -2052.53044903876     IErMin= 9 ErrMin= 1.23D-05
 ErrMax= 1.23D-05  0.00D+00 EMaxC= 1.00D-01 BMatC= 5.86D-07 BMatP= 2.12D-06
 IDIUse=1 WtCom= 1.00D+00 WtEn= 0.00D+00
 Coeff-Com:  0.112D-03 0.139D-04-0.230D-02-0.682D-02-0.248D-01-0.493D-01
 Coeff-Com: -0.277D-01 0.336D+00 0.775D+00
 Coeff:      0.112D-03 0.139D-04-0.230D-02-0.682D-02-0.248D-01-0.493D-01
 Coeff:     -0.277D-01 0.336D+00 0.775D+00
 Gap=     0.132 Goal=   None    Shift=    0.000
 RMSDP=2.01D-06 MaxDP=2.08D-04 DE=-8.06D-06 OVMax= 1.68D-03

 Cycle  10  Pass 1  IDiag  1:
 RMSU=  8.87D-07    CP:  9.65D-01  1.40D+00  9.72D-01  7.69D-01  1.00D+00
                    CP:  1.23D+00  1.60D+00  1.45D+00  1.31D+00
 E= -2052.53045134061     Delta-E=       -0.000002301857 Rises=F Damp=F
 DIIS: error= 9.05D-06 at cycle  10 NSaved=  10.
 NSaved=10 IEnMin=10 EnMin= -2052.53045134061     IErMin=10 ErrMin= 9.05D-06
 ErrMax= 9.05D-06  0.00D+00 EMaxC= 1.00D-01 BMatC= 1.63D-07 BMatP= 5.86D-07
 IDIUse=1 WtCom= 1.00D+00 WtEn= 0.00D+00
 Coeff-Com: -0.207D-03 0.515D-03 0.247D-02 0.451D-02 0.169D-02-0.145D-01
 Coeff-Com: -0.962D-01-0.106D+00 0.354D+00 0.854D+00
 Coeff:     -0.207D-03 0.515D-03 0.247D-02 0.451D-02 0.169D-02-0.145D-01
 Coeff:     -0.962D-01-0.106D+00 0.354D+00 0.854D+00
 Gap=     0.132 Goal=   None    Shift=    0.000
 RMSDP=1.21D-06 MaxDP=1.23D-04 DE=-2.30D-06 OVMax= 1.21D-03

 Cycle  11  Pass 1  IDiag  1:
 RMSU=  4.58D-07    CP:  9.65D-01  1.40D+00  9.73D-01  7.69D-01  1.01D+00
                    CP:  1.25D+00  1.66D+00  1.57D+00  1.65D+00  1.28D+00
 E= -2052.53045206619     Delta-E=       -0.000000725579 Rises=F Damp=F
 DIIS: error= 2.88D-06 at cycle  11 NSaved=  11.
 NSaved=11 IEnMin=11 EnMin= -2052.53045206619     IErMin=11 ErrMin= 2.88D-06
 ErrMax= 2.88D-06  0.00D+00 EMaxC= 1.00D-01 BMatC= 3.42D-08 BMatP= 1.63D-07
 IDIUse=1 WtCom= 1.00D+00 WtEn= 0.00D+00
 Coeff-Com: -0.103D-03 0.209D-03 0.150D-02 0.330D-02 0.513D-02 0.380D-02
 Coeff-Com: -0.346D-01-0.115D+00 0.183D-02 0.367D+00 0.767D+00
 Coeff:     -0.103D-03 0.209D-03 0.150D-02 0.330D-02 0.513D-02 0.380D-02
 Coeff:     -0.346D-01-0.115D+00 0.183D-02 0.367D+00 0.767D+00
 Gap=     0.132 Goal=   None    Shift=    0.000
 RMSDP=5.25D-07 MaxDP=4.57D-05 DE=-7.26D-07 OVMax= 4.52D-04

 Cycle  12  Pass 1  IDiag  1:
 RMSU=  2.19D-07    CP:  9.65D-01  1.40D+00  9.73D-01  7.69D-01  1.01D+00
                    CP:  1.26D+00  1.68D+00  1.63D+00  1.78D+00  1.54D+00
                    CP:  1.11D+00
 E= -2052.53045218921     Delta-E=       -0.000000123017 Rises=F Damp=F
 DIIS: error= 1.65D-06 at cycle  12 NSaved=  12.
 NSaved=12 IEnMin=12 EnMin= -2052.53045218921     IErMin=12 ErrMin= 1.65D-06
 ErrMax= 1.65D-06  0.00D+00 EMaxC= 1.00D-01 BMatC= 6.80D-09 BMatP= 3.42D-08
 IDIUse=1 WtCom= 1.00D+00 WtEn= 0.00D+00
 Coeff-Com:  0.564D-05-0.323D-04 0.800D-04 0.396D-03 0.158D-02 0.476D-02
 Coeff-Com:  0.631D-02-0.265D-01-0.738D-01-0.236D-01 0.316D+00 0.795D+00
 Coeff:      0.564D-05-0.323D-04 0.800D-04 0.396D-03 0.158D-02 0.476D-02
 Coeff:      0.631D-02-0.265D-01-0.738D-01-0.236D-01 0.316D+00 0.795D+00
 Gap=     0.132 Goal=   None    Shift=    0.000
 RMSDP=2.21D-07 MaxDP=1.86D-05 DE=-1.23D-07 OVMax= 2.19D-04

 Cycle  13  Pass 1  IDiag  1:
 RMSU=  8.40D-08    CP:  9.65D-01  1.40D+00  9.73D-01  7.69D-01  1.01D+00
                    CP:  1.26D+00  1.68D+00  1.64D+00  1.85D+00  1.64D+00
                    CP:  1.30D+00  1.27D+00
 E= -2052.53045221594     Delta-E=       -0.000000026733 Rises=F Damp=F
 DIIS: error= 5.99D-07 at cycle  13 NSaved=  13.
 NSaved=13 IEnMin=13 EnMin= -2052.53045221594     IErMin=13 ErrMin= 5.99D-07
 ErrMax= 5.99D-07  0.00D+00 EMaxC= 1.00D-01 BMatC= 1.91D-09 BMatP= 6.80D-09
 IDIUse=1 WtCom= 1.00D+00 WtEn= 0.00D+00
 Coeff-Com:  0.273D-04-0.646D-04-0.334D-03-0.642D-03-0.526D-03 0.139D-02
 Coeff-Com:  0.122D-01 0.169D-01-0.347D-01-0.104D+00-0.697D-01 0.359D+00
 Coeff-Com:  0.820D+00
 Coeff:      0.273D-04-0.646D-04-0.334D-03-0.642D-03-0.526D-03 0.139D-02
 Coeff:      0.122D-01 0.169D-01-0.347D-01-0.104D+00-0.697D-01 0.359D+00
 Coeff:      0.820D+00
 Gap=     0.132 Goal=   None    Shift=    0.000
 RMSDP=1.14D-07 MaxDP=1.17D-05 DE=-2.67D-08 OVMax= 9.46D-05

 Cycle  14  Pass 1  IDiag  1:
 RMSU=  4.14D-08    CP:  9.65D-01  1.40D+00  9.73D-01  7.69D-01  1.01D+00
                    CP:  1.26D+00  1.68D+00  1.64D+00  1.87D+00  1.69D+00
                    CP:  1.39D+00  1.51D+00  1.30D+00
 E= -2052.53045222263     Delta-E=       -0.000000006691 Rises=F Damp=F
 DIIS: error= 2.59D-07 at cycle  14 NSaved=  14.
 NSaved=14 IEnMin=14 EnMin= -2052.53045222263     IErMin=14 ErrMin= 2.59D-07
 ErrMax= 2.59D-07  0.00D+00 EMaxC= 1.00D-01 BMatC= 2.89D-10 BMatP= 1.91D-09
 IDIUse=1 WtCom= 1.00D+00 WtEn= 0.00D+00
 Coeff-Com:  0.785D-05-0.159D-04-0.131D-03-0.298D-03-0.425D-03-0.382D-03
 Coeff-Com:  0.325D-02 0.105D-01 0.804D-03-0.303D-01-0.840D-01-0.806D-02
 Coeff-Com:  0.316D+00 0.793D+00
 Coeff:      0.785D-05-0.159D-04-0.131D-03-0.298D-03-0.425D-03-0.382D-03
 Coeff:      0.325D-02 0.105D-01 0.804D-03-0.303D-01-0.840D-01-0.806D-02
 Coeff:      0.316D+00 0.793D+00
 Gap=     0.132 Goal=   None    Shift=    0.000
 RMSDP=3.62D-08 MaxDP=3.93D-06 DE=-6.69D-09 OVMax= 2.59D-05

 Cycle  15  Pass 1  IDiag  1:
 RMSU=  1.53D-08    CP:  9.65D-01  1.40D+00  9.73D-01  7.69D-01  1.01D+00
                    CP:  1.26D+00  1.68D+00  1.65D+00  1.88D+00  1.70D+00
                    CP:  1.42D+00  1.58D+00  1.49D+00  1.24D+00
 E= -2052.53045222387     Delta-E=       -0.000000001235 Rises=F Damp=F
 DIIS: error= 9.38D-08 at cycle  15 NSaved=  15.
 NSaved=15 IEnMin=15 EnMin= -2052.53045222387     IErMin=15 ErrMin= 9.38D-08
 ErrMax= 9.38D-08  0.00D+00 EMaxC= 1.00D-01 BMatC= 5.06D-11 BMatP= 2.89D-10
 IDIUse=1 WtCom= 1.00D+00 WtEn= 0.00D+00
 Coeff-Com: -0.190D-05 0.561D-05 0.569D-05-0.126D-04-0.723D-04-0.443D-03
 Coeff-Com: -0.846D-03 0.124D-02 0.601D-02 0.657D-02-0.226D-01-0.716D-01
 Coeff-Com: -0.186D-01 0.317D+00 0.783D+00
 Coeff:     -0.190D-05 0.561D-05 0.569D-05-0.126D-04-0.723D-04-0.443D-03
 Coeff:     -0.846D-03 0.124D-02 0.601D-02 0.657D-02-0.226D-01-0.716D-01
 Coeff:     -0.186D-01 0.317D+00 0.783D+00
 Gap=     0.132 Goal=   None    Shift=    0.000
 RMSDP=1.55D-08 MaxDP=1.33D-06 DE=-1.24D-09 OVMax= 1.11D-05

 Cycle  16  Pass 1  IDiag  1:
 RMSU=  6.87D-09    CP:  9.65D-01  1.40D+00  9.73D-01  7.69D-01  1.01D+00
                    CP:  1.26D+00  1.68D+00  1.65D+00  1.88D+00  1.71D+00
                    CP:  1.42D+00  1.61D+00  1.57D+00  1.39D+00  1.17D+00
 E= -2052.53045222425     Delta-E=       -0.000000000379 Rises=F Damp=F
 DIIS: error= 4.25D-08 at cycle  16 NSaved=  16.
 NSaved=16 IEnMin=16 EnMin= -2052.53045222425     IErMin=16 ErrMin= 4.25D-08
 ErrMax= 4.25D-08  0.00D+00 EMaxC= 1.00D-01 BMatC= 9.15D-12 BMatP= 5.06D-11
 IDIUse=1 WtCom= 1.00D+00 WtEn= 0.00D+00
 Coeff-Com: -0.178D-05 0.427D-05 0.199D-04 0.343D-04 0.322D-04-0.127D-03
 Coeff-Com: -0.762D-03-0.855D-03 0.229D-02 0.740D-02 0.308D-02-0.276D-01
 Coeff-Com: -0.504D-01-0.463D-03 0.326D+00 0.741D+00
 Coeff:     -0.178D-05 0.427D-05 0.199D-04 0.343D-04 0.322D-04-0.127D-03
 Coeff:     -0.762D-03-0.855D-03 0.229D-02 0.740D-02 0.308D-02-0.276D-01
 Coeff:     -0.504D-01-0.463D-03 0.326D+00 0.741D+00
 Gap=     0.132 Goal=   None    Shift=    0.000
 RMSDP=4.45D-09 MaxDP=3.86D-07 DE=-3.79D-10 OVMax= 2.47D-06

 Error on total polarization charges =  0.02223
 SCF Done:  E(RM062X) =  -2052.53045222     A.U. after   16 cycles
            NFock= 16  Conv=0.45D-08     -V/T= 2.0054
 KE= 2.041571795514D+03 PE=-1.504034218407D+04 EE= 5.819539693955D+03
 Leave Link  502 at Fri Oct 24 22:00:49 2025, MaxMem= 30870077440 cpu:           64093.2 elap:            1017.8
 (Enter /public/software/gauss/g16/l601.exe)
 Copying SCF densities to generalized density rwf, IOpCl= 0 IROHF=0.

 **********************************************************************

            Population analysis using the SCF density.

 **********************************************************************

 Orbital symmetries:
       Occupied  (A) (A) (A) (A) (A) (A) (A) (A) (A) (A) (A) (A)
                 (A) (A) (A) (A) (A) (A) (A) (A) (A) (A) (A) (A)
                 (A) (A) (A) (A) (A) (A) (A) (A) (A) (A) (A) (A)
                 (A) (A) (A) (A) (A) (A) (A) (A) (A) (A) (A) (A)
                 (A) (A) (A) (A) (A) (A) (A) (A) (A) (A) (A) (A)
                 (A) (A) (A) (A) (A) (A) (A) (A) (A) (A) (A) (A)
                 (A) (A) (A) (A) (A) (A) (A) (A) (A) (A) (A) (A)
                 (A) (A) (A) (A) (A) (A) (A) (A) (A) (A) (A) (A)
                 (A) (A) (A) (A) (A) (A) (A) (A) (A) (A) (A) (A)
                 (A) (A) (A) (A) (A) (A) (A) (A) (A) (A) (A) (A)
                 (A) (A) (A) (A) (A) (A) (A) (A) (A) (A) (A) (A)
                 (A) (A) (A) (A) (A) (A) (A) (A) (A) (A) (A) (A)
                 (A) (A) (A) (A) (A) (A) (A) (A) (A) (A) (A) (A)
                 (A)
       Virtual   (A) (A) (A) (A) (A) (A) (A) (A) (A) (A) (A) (A)
                 (A) (A) (A) (A) (A) (A) (A) (A) (A) (A) (A) (A)
                 (A) (A) (A) (A) (A) (A) (A) (A) (A) (A) (A) (A)
                 (A) (A) (A) (A) (A) (A) (A) (A) (A) (A) (A) (A)
                 (A) (A) (A) (A) (A) (A) (A) (A) (A) (A) (A) (A)
                 (A) (A) (A) (A) (A) (A) (A) (A) (A) (A) (A) (A)
                 (A) (A) (A) (A) (A) (A) (A) (A) (A) (A) (A) (A)
                 (A) (A) (A) (A) (A) (A) (A) (A) (A) (A) (A) (A)
                 (A) (A) (A) (A) (A) (A) (A) (A) (A) (A) (A) (A)
                 (A) (A) (A) (A) (A) (A) (A) (A) (A) (A) (A) (A)
                 (A) (A) (A) (A) (A) (A) (A) (A) (A) (A) (A) (A)
                 (A) (A) (A) (A) (A) (A) (A) (A) (A) (A) (A) (A)
                 (A) (A) (A) (A) (A) (A) (A) (A) (A) (A) (A) (A)
                 (A) (A) (A) (A) (A) (A) (A) (A) (A) (A) (A) (A)
                 (A) (A) (A) (A) (A) (A) (A) (A) (A) (A) (A) (A)
                 (A) (A) (A) (A) (A) (A) (A) (A) (A) (A) (A) (A)
                 (A) (A) (A) (A) (A) (A) (A) (A) (A) (A) (A) (A)
                 (A) (A) (A) (A) (A) (A) (A) (A) (A) (A) (A) (A)
                 (A) (A) (A) (A) (A) (A) (A) (A) (A) (A) (A) (A)
                 (A) (A) (A) (A) (A) (A) (A) (A) (A) (A) (A) (A)
                 (A) (A) (A) (A) (A) (A) (A) (A) (A) (A) (A) (A)
                 (A) (A) (A) (A) (A) (A) (A) (A) (A) (A) (A) (A)
                 (A) (A) (A) (A) (A) (A) (A) (A) (A) (A) (A) (A)
                 (A) (A) (A) (A) (A) (A) (A) (A) (A) (A) (A) (A)
                 (A) (A) (A) (A) (A) (A) (A) (A) (A) (A) (A) (A)
                 (A) (A) (A) (A) (A) (A) (A) (A) (A) (A) (A) (A)
                 (A) (A) (A) (A) (A) (A) (A) (A) (A) (A) (A) (A)
                 (A) (A) (A) (A) (A) (A) (A) (A) (A) (A) (A) (A)
                 (A) (A) (A) (A) (A) (A) (A) (A) (A) (A) (A) (A)
                 (A) (A) (A) (A) (A) (A) (A) (A) (A) (A) (A) (A)
                 (A) (A) (A) (A) (A) (A) (A) (A) (A) (A) (A) (A)
                 (A) (A) (A) (A) (A) (A) (A) (A) (A) (A) (A) (A)
                 (A) (A) (A) (A) (A) (A) (A) (A) (A) (A) (A) (A)
                 (A) (A) (A) (A) (A) (A) (A) (A) (A) (A) (A) (A)
                 (A) (A) (A) (A) (A) (A) (A) (A) (A) (A) (A) (A)
                 (A) (A) (A) (A) (A) (A) (A) (A) (A) (A) (A) (A)
                 (A) (A) (A) (A) (A) (A) (A) (A) (A) (A) (A) (A)
                 (A) (A) (A) (A) (A) (A) (A) (A) (A) (A) (A) (A)
                 (A) (A) (A) (A) (A) (A) (A) (A) (A) (A) (A) (A)
                 (A) (A) (A) (A) (A) (A) (A) (A) (A) (A) (A) (A)
                 (A) (A) (A) (A) (A) (A) (A) (A) (A) (A) (A) (A)
                 (A) (A) (A) (A) (A) (A) (A) (A) (A) (A) (A) (A)
                 (A) (A) (A) (A) (A) (A) (A) (A) (A) (A) (A) (A)
                 (A) (A) (A) (A) (A) (A) (A) (A) (A) (A) (A) (A)
                 (A) (A) (A) (A) (A) (A) (A) (A) (A) (A) (A) (A)
                 (A) (A) (A) (A) (A) (A) (A) (A) (A) (A) (A) (A)
                 (A) (A) (A) (A) (A) (A) (A) (A) (A) (A) (A) (A)
                 (A) (A) (A) (A) (A) (A) (A) (A) (A) (A) (A) (A)
                 (A) (A) (A) (A) (A) (A) (A) (A) (A) (A) (A) (A)
                 (A) (A) (A) (A) (A) (A) (A) (A) (A) (A) (A) (A)
                 (A) (A) (A) (A) (A) (A) (A) (A) (A) (A) (A) (A)
                 (A) (A) (A) (A) (A) (A) (A) (A) (A) (A) (A) (A)
                 (A) (A) (A) (A) (A) (A) (A) (A) (A) (A) (A) (A)
                 (A) (A) (A) (A) (A) (A) (A) (A) (A) (A) (A) (A)
                 (A) (A) (A) (A) (A) (A) (A) (A) (A) (A) (A) (A)
                 (A) (A) (A) (A) (A) (A) (A) (A) (A) (A) (A) (A)
                 (A) (A) (A) (A) (A) (A) (A) (A) (A) (A) (A) (A)
                 (A) (A) (A) (A) (A) (A) (A) (A) (A) (A) (A) (A)
                 (A) (A) (A) (A) (A) (A) (A) (A) (A) (A) (A) (A)
                 (A) (A) (A) (A) (A) (A) (A) (A) (A) (A) (A) (A)
                 (A) (A) (A) (A) (A) (A) (A) (A) (A) (A) (A) (A)
                 (A) (A) (A) (A) (A) (A) (A) (A) (A) (A) (A) (A)
                 (A) (A) (A) (A) (A) (A) (A) (A) (A) (A) (A) (A)
                 (A) (A) (A) (A) (A) (A) (A) (A) (A) (A) (A) (A)
                 (A) (A) (A) (A) (A) (A) (A) (A) (A) (A) (A) (A)
                 (A) (A) (A) (A) (A) (A) (A) (A) (A) (A) (A) (A)
                 (A) (A) (A) (A) (A) (A) (A) (A) (A) (A) (A) (A)
                 (A) (A) (A) (A) (A) (A) (A) (A) (A) (A) (A) (A)
                 (A) (A) (A) (A) (A) (A) (A) (A) (A) (A) (A) (A)
                 (A) (A) (A) (A) (A) (A) (A) (A) (A) (A) (A) (A)
                 (A) (A) (A) (A) (A) (A) (A) (A) (A) (A) (A) (A)
                 (A) (A) (A) (A) (A) (A) (A) (A) (A) (A) (A) (A)
                 (A) (A) (A) (A) (A) (A) (A) (A) (A) (A) (A) (A)
                 (A) (A) (A) (A) (A) (A) (A) (A) (A) (A) (A) (A)
                 (A) (A) (A) (A) (A) (A) (A) (A) (A) (A) (A) (A)
                 (A) (A) (A) (A) (A) (A) (A) (A) (A) (A) (A) (A)
                 (A) (A) (A) (A) (A) (A) (A) (A) (A) (A) (A) (A)
                 (A) (A) (A) (A) (A) (A) (A) (A) (A) (A) (A) (A)
                 (A) (A) (A) (A) (A) (A) (A) (A) (A) (A) (A) (A)
                 (A) (A) (A) (A) (A) (A) (A) (A) (A) (A) (A) (A)
                 (A) (A) (A) (A) (A) (A) (A) (A) (A) (A) (A) (A)
                 (A) (A) (A) (A) (A) (A) (A) (A) (A) (A) (A) (A)
                 (A) (A) (A) (A) (A) (A) (A) (A) (A) (A) (A) (A)
                 (A) (A) (A) (A) (A) (A) (A) (A) (A) (A) (A) (A)
                 (A) (A) (A) (A) (A) (A) (A) (A) (A) (A) (A) (A)
                 (A) (A) (A) (A) (A) (A) (A) (A) (A) (A) (A) (A)
                 (A) (A) (A) (A) (A) (A) (A) (A) (A) (A) (A) (A)
                 (A) (A) (A) (A) (A) (A) (A) (A) (A) (A) (A) (A)
                 (A) (A) (A) (A) (A) (A) (A) (A) (A) (A) (A) (A)
                 (A) (A) (A) (A) (A) (A) (A) (A) (A) (A) (A) (A)
                 (A) (A) (A) (A) (A) (A) (A) (A) (A) (A) (A) (A)
                 (A) (A) (A) (A) (A) (A) (A) (A) (A) (A) (A) (A)
                 (A) (A) (A) (A) (A) (A) (A) (A) (A) (A) (A) (A)
                 (A) (A) (A) (A) (A) (A) (A) (A) (A) (A) (A) (A)
                 (A) (A) (A) (A) (A) (A) (A) (A) (A) (A) (A) (A)
                 (A) (A) (A) (A) (A) (A) (A) (A) (A) (A) (A) (A)
                 (A) (A) (A) (A) (A) (A) (A) (A) (A) (A) (A) (A)
                 (A) (A) (A) (A) (A) (A) (A) (A) (A) (A) (A) (A)
                 (A) (A) (A) (A) (A) (A) (A) (A) (A) (A) (A) (A)
                 (A) (A) (A) (A) (A) (A) (A) (A) (A) (A) (A) (A)
                 (A) (A) (A) (A) (A) (A) (A) (A) (A) (A) (A) (A)
                 (A) (A) (A) (A) (A) (A) (A) (A) (A) (A) (A) (A)
                 (A) (A) (A) (A) (A) (A) (A) (A) (A) (A) (A) (A)
                 (A) (A) (A) (A) (A) (A) (A) (A) (A) (A) (A) (A)
                 (A) (A) (A) (A) (A) (A) (A) (A) (A) (A) (A) (A)
                 (A) (A) (A) (A) (A) (A) (A) (A) (A) (A) (A) (A)
                 (A) (A) (A) (A) (A) (A) (A) (A) (A) (A) (A) (A)
                 (A) (A) (A) (A) (A) (A) (A) (A) (A) (A) (A) (A)
                 (A) (A) (A) (A) (A) (A) (A) (A) (A) (A) (A) (A)
                 (A) (A) (A) (A) (A) (A) (A) (A) (A) (A) (A) (A)
                 (A) (A) (A) (A) (A) (A) (A) (A) (A) (A) (A) (A)
                 (A) (A) (A) (A) (A) (A) (A) (A) (A) (A) (A) (A)
                 (A) (A) (A) (A) (A) (A) (A) (A) (A) (A) (A) (A)
                 (A) (A) (A) (A) (A) (A) (A) (A) (A) (A) (A) (A)
                 (A) (A) (A) (A) (A) (A) (A) (A) (A) (A) (A) (A)
                 (A) (A) (A) (A) (A) (A) (A) (A) (A) (A) (A) (A)
                 (A) (A) (A) (A) (A) (A) (A) (A) (A) (A) (A) (A)
                 (A) (A) (A) (A) (A) (A) (A) (A) (A) (A) (A) (A)
                 (A) (A) (A) (A) (A) (A) (A) (A) (A) (A) (A) (A)
                 (A) (A) (A) (A) (A) (A) (A) (A) (A) (A) (A) (A)
                 (A) (A) (A) (A) (A) (A) (A) (A) (A) (A) (A) (A)
                 (A) (A) (A) (A) (A) (A) (A) (A) (A) (A) (A) (A)
                 (A) (A) (A) (A) (A) (A) (A) (A) (A) (A) (A) (A)
                 (A) (A) (A) (A) (A) (A) (A) (A) (A) (A) (A) (A)
                 (A) (A) (A) (A) (A) (A) (A) (A) (A) (A) (A) (A)
                 (A) (A) (A) (A) (A) (A) (A) (A) (A) (A) (A) (A)
                 (A) (A) (A) (A) (A) (A) (A) (A) (A) (A) (A) (A)
                 (A) (A) (A) (A) (A) (A) (A) (A) (A) (A) (A) (A)
                 (A) (A) (A) (A) (A) (A) (A) (A) (A) (A) (A) (A)
                 (A) (A) (A) (A) (A) (A) (A) (A) (A) (A) (A) (A)
                 (A) (A) (A) (A) (A) (A) (A) (A) (A) (A) (A) (A)
                 (A) (A) (A) (A) (A) (A) (A) (A) (A) (A) (A) (A)
                 (A) (A) (A) (A) (A) (A) (A) (A) (A) (A) (A) (A)
                 (A) (A) (A) (A) (A) (A) (A) (A) (A) (A) (A) (A)
                 (A) (A) (A) (A) (A) (A) (A) (A)
 The electronic state is 1-A.
 Alpha  occ. eigenvalues --  -25.20346 -25.20211 -19.70002 -19.68024 -19.68021
 Alpha  occ. eigenvalues --  -15.01498 -14.95349 -14.85539 -14.82140 -14.78259
 Alpha  occ. eigenvalues --  -14.77811 -10.63081 -10.63007 -10.62102 -10.61646
 Alpha  occ. eigenvalues --  -10.60500 -10.60224 -10.59554 -10.59267 -10.59132
 Alpha  occ. eigenvalues --  -10.58491 -10.58186 -10.58184 -10.57462 -10.57459
 Alpha  occ. eigenvalues --  -10.57324 -10.57144 -10.56905 -10.56598 -10.56586
 Alpha  occ. eigenvalues --  -10.56558 -10.56518 -10.55993 -10.55845 -10.55545
 Alpha  occ. eigenvalues --  -10.54884 -10.54720 -10.54445 -10.54358 -10.54201
 Alpha  occ. eigenvalues --  -10.54129 -10.53950 -10.53899 -10.53484  -7.12934
 Alpha  occ. eigenvalues --   -1.37016  -1.32090  -1.28853  -1.28264  -1.23557
 Alpha  occ. eigenvalues --   -1.18527  -1.11184  -1.10367  -1.08398  -1.01118
 Alpha  occ. eigenvalues --   -0.98759  -0.96912  -0.95373  -0.92809  -0.91216
 Alpha  occ. eigenvalues --   -0.90781  -0.90167  -0.89306  -0.87962  -0.87864
 Alpha  occ. eigenvalues --   -0.86646  -0.85599  -0.84409  -0.81169  -0.80295
 Alpha  occ. eigenvalues --   -0.80070  -0.78798  -0.78030  -0.75644  -0.74181
 Alpha  occ. eigenvalues --   -0.72728  -0.71941  -0.71181  -0.69886  -0.69681
 Alpha  occ. eigenvalues --   -0.68215  -0.66893  -0.66344  -0.66190  -0.65061
 Alpha  occ. eigenvalues --   -0.64295  -0.63481  -0.62871  -0.62034  -0.61575
 Alpha  occ. eigenvalues --   -0.61565  -0.61096  -0.60117  -0.59869  -0.59402
 Alpha  occ. eigenvalues --   -0.58208  -0.57514  -0.57119  -0.56215  -0.55872
 Alpha  occ. eigenvalues --   -0.55732  -0.54529  -0.54183  -0.54028  -0.53706
 Alpha  occ. eigenvalues --   -0.52889  -0.52483  -0.52323  -0.52170  -0.51919
 Alpha  occ. eigenvalues --   -0.51642  -0.50846  -0.50443  -0.50072  -0.49416
 Alpha  occ. eigenvalues --   -0.49290  -0.49029  -0.48761  -0.48691  -0.48190
 Alpha  occ. eigenvalues --   -0.47607  -0.47363  -0.47321  -0.47121  -0.46928
 Alpha  occ. eigenvalues --   -0.46532  -0.46413  -0.46233  -0.45433  -0.45158
 Alpha  occ. eigenvalues --   -0.44868  -0.44035  -0.43800  -0.43502  -0.43302
 Alpha  occ. eigenvalues --   -0.42890  -0.42429  -0.41183  -0.40982  -0.40459
 Alpha  occ. eigenvalues --   -0.39971  -0.39860  -0.39816  -0.39328  -0.39039
 Alpha  occ. eigenvalues --   -0.38726  -0.38391  -0.36570  -0.34264  -0.34094
 Alpha  occ. eigenvalues --   -0.33985  -0.32152  -0.32122  -0.30865  -0.29683
 Alpha  occ. eigenvalues --   -0.26438  -0.22343
 Alpha virt. eigenvalues --   -0.09157  -0.07539  -0.04407  -0.01476  -0.00899
 Alpha virt. eigenvalues --   -0.00375   0.01014   0.02043   0.03677   0.05535
 Alpha virt. eigenvalues --    0.05875   0.06518   0.07246   0.07487   0.08299
 Alpha virt. eigenvalues --    0.08504   0.08826   0.09193   0.09425   0.09586
 Alpha virt. eigenvalues --    0.09687   0.10213   0.10406   0.10644   0.10850
 Alpha virt. eigenvalues --    0.11037   0.11203   0.12046   0.12628   0.12814
 Alpha virt. eigenvalues --    0.12933   0.13619   0.13724   0.13841   0.14013
 Alpha virt. eigenvalues --    0.14441   0.14785   0.14998   0.15271   0.15467
 Alpha virt. eigenvalues --    0.15950   0.16274   0.16463   0.16730   0.16804
 Alpha virt. eigenvalues --    0.17462   0.17657   0.17862   0.18115   0.18285
 Alpha virt. eigenvalues --    0.18357   0.18835   0.19021   0.19312   0.19573
 Alpha virt. eigenvalues --    0.19649   0.20087   0.20188   0.20700   0.20992
 Alpha virt. eigenvalues --    0.21272   0.21530   0.21652   0.21830   0.22286
 Alpha virt. eigenvalues --    0.22696   0.22987   0.23037   0.23192   0.23389
 Alpha virt. eigenvalues --    0.23979   0.24130   0.24197   0.24549   0.24854
 Alpha virt. eigenvalues --    0.25415   0.25519   0.25646   0.26184   0.26256
 Alpha virt. eigenvalues --    0.26728   0.26886   0.27045   0.27277   0.27538
 Alpha virt. eigenvalues --    0.27898   0.28202   0.28326   0.28598   0.28834
 Alpha virt. eigenvalues --    0.29021   0.29412   0.29527   0.29623   0.29929
 Alpha virt. eigenvalues --    0.30335   0.30545   0.30849   0.31040   0.31556
 Alpha virt. eigenvalues --    0.31906   0.31953   0.32062   0.32339   0.32586
 Alpha virt. eigenvalues --    0.32725   0.33081   0.33348   0.33453   0.33771
 Alpha virt. eigenvalues --    0.33780   0.33921   0.34445   0.34600   0.34669
 Alpha virt. eigenvalues --    0.34832   0.35300   0.35748   0.35998   0.36154
 Alpha virt. eigenvalues --    0.36317   0.36538   0.36747   0.37165   0.37204
 Alpha virt. eigenvalues --    0.37425   0.37602   0.38095   0.38290   0.38367
 Alpha virt. eigenvalues --    0.38722   0.38886   0.39164   0.39260   0.39663
 Alpha virt. eigenvalues --    0.39960   0.40280   0.40550   0.40819   0.41008
 Alpha virt. eigenvalues --    0.41198   0.41479   0.41646   0.41785   0.42017
 Alpha virt. eigenvalues --    0.42182   0.42389   0.42541   0.42590   0.42610
 Alpha virt. eigenvalues --    0.43044   0.43051   0.43454   0.43535   0.43724
 Alpha virt. eigenvalues --    0.44071   0.44575   0.44762   0.45015   0.45165
 Alpha virt. eigenvalues --    0.45411   0.45589   0.45877   0.46012   0.46554
 Alpha virt. eigenvalues --    0.46736   0.47214   0.47366   0.47525   0.47603
 Alpha virt. eigenvalues --    0.47721   0.47968   0.48107   0.48399   0.48584
 Alpha virt. eigenvalues --    0.48915   0.49085   0.49346   0.49549   0.49768
 Alpha virt. eigenvalues --    0.49861   0.50073   0.50131   0.50605   0.50965
 Alpha virt. eigenvalues --    0.51339   0.51518   0.51739   0.52006   0.52094
 Alpha virt. eigenvalues --    0.52244   0.52423   0.52654   0.52953   0.53068
 Alpha virt. eigenvalues --    0.53326   0.53644   0.53828   0.53981   0.54569
 Alpha virt. eigenvalues --    0.54720   0.55134   0.55499   0.55960   0.56245
 Alpha virt. eigenvalues --    0.56465   0.56759   0.56885   0.57130   0.57193
 Alpha virt. eigenvalues --    0.57647   0.57668   0.58474   0.58709   0.58903
 Alpha virt. eigenvalues --    0.59088   0.59434   0.59583   0.59988   0.60351
 Alpha virt. eigenvalues --    0.60658   0.60821   0.61316   0.61374   0.61786
 Alpha virt. eigenvalues --    0.62107   0.62327   0.62581   0.62831   0.63106
 Alpha virt. eigenvalues --    0.63580   0.63832   0.63961   0.64204   0.64561
 Alpha virt. eigenvalues --    0.65020   0.65470   0.65518   0.66226   0.66360
 Alpha virt. eigenvalues --    0.66640   0.66842   0.67014   0.67243   0.67416
 Alpha virt. eigenvalues --    0.67714   0.68014   0.68203   0.68581   0.68921
 Alpha virt. eigenvalues --    0.69129   0.69595   0.69882   0.70046   0.70307
 Alpha virt. eigenvalues --    0.70534   0.70771   0.71477   0.71521   0.71642
 Alpha virt. eigenvalues --    0.71947   0.72324   0.72535   0.72868   0.73107
 Alpha virt. eigenvalues --    0.73237   0.73506   0.73712   0.74024   0.74198
 Alpha virt. eigenvalues --    0.74730   0.74893   0.75006   0.75655   0.75855
 Alpha virt. eigenvalues --    0.75961   0.76253   0.76620   0.77142   0.77202
 Alpha virt. eigenvalues --    0.77467   0.77702   0.77976   0.78116   0.78545
 Alpha virt. eigenvalues --    0.78693   0.79171   0.79458   0.79858   0.80037
 Alpha virt. eigenvalues --    0.80481   0.80510   0.81352   0.81717   0.82056
 Alpha virt. eigenvalues --    0.82556   0.82839   0.83039   0.83248   0.83820
 Alpha virt. eigenvalues --    0.84089   0.84346   0.84641   0.85219   0.85601
 Alpha virt. eigenvalues --    0.85864   0.86219   0.86301   0.86536   0.86893
 Alpha virt. eigenvalues --    0.87396   0.87437   0.87854   0.88144   0.88333
 Alpha virt. eigenvalues --    0.88794   0.89396   0.89671   0.89727   0.90090
 Alpha virt. eigenvalues --    0.90336   0.90655   0.91019   0.91376   0.91560
 Alpha virt. eigenvalues --    0.92189   0.92621   0.92815   0.93358   0.93541
 Alpha virt. eigenvalues --    0.94063   0.94262   0.94880   0.95382   0.95652
 Alpha virt. eigenvalues --    0.95743   0.95938   0.96172   0.96890   0.97420
 Alpha virt. eigenvalues --    0.97553   0.98163   0.98364   0.98589   0.98670
 Alpha virt. eigenvalues --    0.98979   0.99191   0.99492   0.99774   1.00288
 Alpha virt. eigenvalues --    1.00505   1.00796   1.00837   1.01274   1.01585
 Alpha virt. eigenvalues --    1.01682   1.02078   1.02129   1.02384   1.02524
 Alpha virt. eigenvalues --    1.02884   1.03403   1.03639   1.04176   1.04447
 Alpha virt. eigenvalues --    1.04466   1.04956   1.05365   1.05618   1.06040
 Alpha virt. eigenvalues --    1.06387   1.06944   1.07168   1.07675   1.08018
 Alpha virt. eigenvalues --    1.08599   1.08682   1.09039   1.09308   1.09536
 Alpha virt. eigenvalues --    1.09831   1.10148   1.10455   1.10574   1.10921
 Alpha virt. eigenvalues --    1.11285   1.11421   1.11810   1.11997   1.12282
 Alpha virt. eigenvalues --    1.12693   1.12905   1.13059   1.13313   1.14037
 Alpha virt. eigenvalues --    1.14224   1.14578   1.14899   1.15022   1.15509
 Alpha virt. eigenvalues --    1.16161   1.16381   1.16845   1.17304   1.17828
 Alpha virt. eigenvalues --    1.18197   1.18293   1.18658   1.18926   1.19349
 Alpha virt. eigenvalues --    1.19549   1.19860   1.20357   1.20794   1.20978
 Alpha virt. eigenvalues --    1.21394   1.21566   1.22304   1.22594   1.22916
 Alpha virt. eigenvalues --    1.23262   1.23710   1.23934   1.24044   1.24673
 Alpha virt. eigenvalues --    1.24885   1.25328   1.25497   1.25564   1.25751
 Alpha virt. eigenvalues --    1.26269   1.26503   1.26943   1.27104   1.27755
 Alpha virt. eigenvalues --    1.27888   1.28101   1.28714   1.29129   1.29489
 Alpha virt. eigenvalues --    1.29729   1.29954   1.30385   1.30789   1.31068
 Alpha virt. eigenvalues --    1.31469   1.31547   1.31729   1.32249   1.32326
 Alpha virt. eigenvalues --    1.32902   1.33134   1.33722   1.33808   1.34613
 Alpha virt. eigenvalues --    1.34891   1.35058   1.35274   1.35394   1.36036
 Alpha virt. eigenvalues --    1.36555   1.36663   1.37087   1.37253   1.37452
 Alpha virt. eigenvalues --    1.38487   1.38734   1.38908   1.39250   1.39509
 Alpha virt. eigenvalues --    1.39775   1.40588   1.40617   1.41638   1.41731
 Alpha virt. eigenvalues --    1.42313   1.42520   1.42950   1.43231   1.43741
 Alpha virt. eigenvalues --    1.43999   1.44192   1.44579   1.44851   1.45232
 Alpha virt. eigenvalues --    1.45281   1.45762   1.46125   1.46492   1.46578
 Alpha virt. eigenvalues --    1.46682   1.46970   1.47533   1.47699   1.47897
 Alpha virt. eigenvalues --    1.48307   1.48751   1.49031   1.49159   1.49320
 Alpha virt. eigenvalues --    1.49488   1.50767   1.50843   1.51149   1.51183
 Alpha virt. eigenvalues --    1.51416   1.51936   1.52157   1.52521   1.52799
 Alpha virt. eigenvalues --    1.52983   1.53273   1.53491   1.53613   1.53930
 Alpha virt. eigenvalues --    1.54462   1.54591   1.54808   1.55216   1.55587
 Alpha virt. eigenvalues --    1.55977   1.56199   1.56686   1.56898   1.57446
 Alpha virt. eigenvalues --    1.57541   1.57893   1.58265   1.58915   1.59375
 Alpha virt. eigenvalues --    1.59774   1.59978   1.60269   1.60380   1.60654
 Alpha virt. eigenvalues --    1.61299   1.61789   1.61904   1.62128   1.62191
 Alpha virt. eigenvalues --    1.62484   1.62563   1.62994   1.63654   1.63842
 Alpha virt. eigenvalues --    1.64450   1.64944   1.65559   1.65719   1.65925
 Alpha virt. eigenvalues --    1.66100   1.66196   1.66386   1.66667   1.67554
 Alpha virt. eigenvalues --    1.67638   1.67888   1.68610   1.68645   1.68950
 Alpha virt. eigenvalues --    1.69464   1.69898   1.70192   1.70788   1.71297
 Alpha virt. eigenvalues --    1.71702   1.72125   1.72213   1.72658   1.73038
 Alpha virt. eigenvalues --    1.73186   1.73322   1.73603   1.74326   1.74704
 Alpha virt. eigenvalues --    1.75008   1.75916   1.76002   1.76136   1.76956
 Alpha virt. eigenvalues --    1.77200   1.77724   1.77934   1.79489   1.79914
 Alpha virt. eigenvalues --    1.80252   1.80577   1.80832   1.81270   1.81448
 Alpha virt. eigenvalues --    1.81495   1.82044   1.82689   1.83626   1.83710
 Alpha virt. eigenvalues --    1.84136   1.84408   1.84554   1.84757   1.85062
 Alpha virt. eigenvalues --    1.85289   1.86209   1.86393   1.87113   1.88057
 Alpha virt. eigenvalues --    1.88609   1.88900   1.89713   1.89952   1.90600
 Alpha virt. eigenvalues --    1.91230   1.91825   1.92054   1.92707   1.93087
 Alpha virt. eigenvalues --    1.93965   1.94651   1.95552   1.95988   1.96809
 Alpha virt. eigenvalues --    1.97104   1.97498   1.98242   1.98928   1.99049
 Alpha virt. eigenvalues --    1.99158   1.99722   1.99972   2.00267   2.00658
 Alpha virt. eigenvalues --    2.00949   2.01976   2.02352   2.02955   2.03137
 Alpha virt. eigenvalues --    2.03497   2.03847   2.04650   2.04928   2.05108
 Alpha virt. eigenvalues --    2.06153   2.06216   2.06711   2.07523   2.08100
 Alpha virt. eigenvalues --    2.08708   2.09167   2.09461   2.09764   2.10233
 Alpha virt. eigenvalues --    2.10414   2.10698   2.11151   2.11999   2.12256
 Alpha virt. eigenvalues --    2.12922   2.13271   2.13508   2.14169   2.14983
 Alpha virt. eigenvalues --    2.15770   2.16359   2.16662   2.16921   2.17665
 Alpha virt. eigenvalues --    2.17970   2.18265   2.18700   2.18871   2.19202
 Alpha virt. eigenvalues --    2.20703   2.21066   2.21593   2.21809   2.22582
 Alpha virt. eigenvalues --    2.23194   2.23615   2.24289   2.24490   2.25275
 Alpha virt. eigenvalues --    2.25319   2.26067   2.26998   2.27665   2.28285
 Alpha virt. eigenvalues --    2.28401   2.28737   2.29562   2.30195   2.30492
 Alpha virt. eigenvalues --    2.30654   2.31465   2.31831   2.32653   2.32849
 Alpha virt. eigenvalues --    2.32997   2.33599   2.34045   2.34607   2.34813
 Alpha virt. eigenvalues --    2.34981   2.35160   2.36392   2.36432   2.36847
 Alpha virt. eigenvalues --    2.37619   2.37912   2.38321   2.38787   2.39045
 Alpha virt. eigenvalues --    2.39194   2.40233   2.40798   2.41447   2.41648
 Alpha virt. eigenvalues --    2.42936   2.43566   2.44242   2.44635   2.44989
 Alpha virt. eigenvalues --    2.45857   2.47133   2.47658   2.48801   2.49416
 Alpha virt. eigenvalues --    2.50166   2.50388   2.50761   2.51704   2.52660
 Alpha virt. eigenvalues --    2.53212   2.53579   2.54095   2.54143   2.54924
 Alpha virt. eigenvalues --    2.55095   2.55731   2.56001   2.56560   2.56798
 Alpha virt. eigenvalues --    2.57642   2.57758   2.58643   2.58947   2.59550
 Alpha virt. eigenvalues --    2.60841   2.60937   2.61868   2.62270   2.62369
 Alpha virt. eigenvalues --    2.62839   2.63081   2.63245   2.63692   2.64722
 Alpha virt. eigenvalues --    2.65060   2.65428   2.65911   2.66054   2.67043
 Alpha virt. eigenvalues --    2.68066   2.68334   2.68712   2.69322   2.69610
 Alpha virt. eigenvalues --    2.69985   2.70974   2.71447   2.72096   2.72243
 Alpha virt. eigenvalues --    2.72633   2.73122   2.73305   2.73628   2.73850
 Alpha virt. eigenvalues --    2.74010   2.74479   2.74592   2.74808   2.75283
 Alpha virt. eigenvalues --    2.75407   2.75693   2.75974   2.76498   2.77248
 Alpha virt. eigenvalues --    2.77274   2.77713   2.78138   2.78288   2.78532
 Alpha virt. eigenvalues --    2.78926   2.79112   2.79589   2.79787   2.79957
 Alpha virt. eigenvalues --    2.80706   2.81158   2.81436   2.81734   2.81979
 Alpha virt. eigenvalues --    2.82281   2.82581   2.83416   2.83607   2.83720
 Alpha virt. eigenvalues --    2.83905   2.84255   2.84548   2.84832   2.85117
 Alpha virt. eigenvalues --    2.85632   2.85897   2.86105   2.86522   2.86668
 Alpha virt. eigenvalues --    2.87052   2.87303   2.87973   2.88148   2.88199
 Alpha virt. eigenvalues --    2.88992   2.89497   2.89625   2.89722   2.90038
 Alpha virt. eigenvalues --    2.90457   2.90744   2.91268   2.91452   2.91647
 Alpha virt. eigenvalues --    2.91857   2.92202   2.92473   2.93479   2.93591
 Alpha virt. eigenvalues --    2.93662   2.94061   2.94631   2.94749   2.95317
 Alpha virt. eigenvalues --    2.95482   2.95780   2.96143   2.96351   2.97096
 Alpha virt. eigenvalues --    2.97184   2.97429   2.97482   2.98109   2.98268
 Alpha virt. eigenvalues --    2.98451   2.98749   2.99079   2.99571   2.99984
 Alpha virt. eigenvalues --    3.00208   3.00605   3.00844   3.01210   3.01541
 Alpha virt. eigenvalues --    3.01779   3.02408   3.02605   3.02689   3.02871
 Alpha virt. eigenvalues --    3.03186   3.03551   3.03758   3.04325   3.04589
 Alpha virt. eigenvalues --    3.04858   3.05100   3.05237   3.05462   3.05999
 Alpha virt. eigenvalues --    3.06124   3.06477   3.06934   3.07111   3.07284
 Alpha virt. eigenvalues --    3.07526   3.08012   3.08101   3.08322   3.09109
 Alpha virt. eigenvalues --    3.09333   3.09585   3.09832   3.10015   3.10274
 Alpha virt. eigenvalues --    3.10574   3.11030   3.11159   3.11408   3.11855
 Alpha virt. eigenvalues --    3.12009   3.12350   3.12642   3.13242   3.13296
 Alpha virt. eigenvalues --    3.13691   3.13844   3.14137   3.14625   3.14884
 Alpha virt. eigenvalues --    3.15101   3.15291   3.15776   3.16088   3.16362
 Alpha virt. eigenvalues --    3.16797   3.17240   3.17518   3.17680   3.17981
 Alpha virt. eigenvalues --    3.18195   3.18394   3.19095   3.19243   3.19551
 Alpha virt. eigenvalues --    3.19947   3.20052   3.20213   3.20429   3.20658
 Alpha virt. eigenvalues --    3.20854   3.21258   3.21453   3.21660   3.22170
 Alpha virt. eigenvalues --    3.22337   3.22428   3.22713   3.23041   3.23478
 Alpha virt. eigenvalues --    3.23784   3.24163   3.24456   3.25017   3.25227
 Alpha virt. eigenvalues --    3.25710   3.25856   3.26502   3.26672   3.26811
 Alpha virt. eigenvalues --    3.27058   3.27343   3.27601   3.27717   3.28074
 Alpha virt. eigenvalues --    3.28299   3.28427   3.29045   3.29795   3.29953
 Alpha virt. eigenvalues --    3.30112   3.30628   3.31036   3.31125   3.31839
 Alpha virt. eigenvalues --    3.31977   3.32333   3.32431   3.32803   3.32870
 Alpha virt. eigenvalues --    3.33280   3.33359   3.33687   3.34104   3.34644
 Alpha virt. eigenvalues --    3.34817   3.35101   3.35495   3.35668   3.36146
 Alpha virt. eigenvalues --    3.36412   3.36926   3.37285   3.37334   3.37784
 Alpha virt. eigenvalues --    3.38455   3.38739   3.39125   3.39406   3.39822
 Alpha virt. eigenvalues --    3.40043   3.40337   3.40795   3.41046   3.41397
 Alpha virt. eigenvalues --    3.41635   3.41855   3.42227   3.42496   3.42806
 Alpha virt. eigenvalues --    3.42862   3.43137   3.43638   3.43847   3.44265
 Alpha virt. eigenvalues --    3.44568   3.45203   3.45416   3.46148   3.46312
 Alpha virt. eigenvalues --    3.46517   3.47243   3.47931   3.48235   3.48279
 Alpha virt. eigenvalues --    3.48469   3.49016   3.49259   3.49630   3.49885
 Alpha virt. eigenvalues --    3.50536   3.50841   3.51100   3.51425   3.51652
 Alpha virt. eigenvalues --    3.51925   3.52316   3.52445   3.52887   3.53098
 Alpha virt. eigenvalues --    3.53453   3.54050   3.54193   3.54534   3.54834
 Alpha virt. eigenvalues --    3.55128   3.55672   3.55936   3.56307   3.56563
 Alpha virt. eigenvalues --    3.56692   3.56993   3.57148   3.57501   3.57684
 Alpha virt. eigenvalues --    3.58405   3.58621   3.59320   3.59538   3.59609
 Alpha virt. eigenvalues --    3.59748   3.60055   3.60406   3.61298   3.61739
 Alpha virt. eigenvalues --    3.62134   3.62628   3.62930   3.63147   3.63590
 Alpha virt. eigenvalues --    3.63691   3.63857   3.63965   3.64476   3.65233
 Alpha virt. eigenvalues --    3.65529   3.66147   3.66330   3.66820   3.67047
 Alpha virt. eigenvalues --    3.67338   3.67787   3.67975   3.68280   3.68508
 Alpha virt. eigenvalues --    3.69553   3.69926   3.70341   3.70464   3.70922
 Alpha virt. eigenvalues --    3.71330   3.71471   3.72487   3.72512   3.72697
 Alpha virt. eigenvalues --    3.73013   3.73492   3.74087   3.74360   3.74514
 Alpha virt. eigenvalues --    3.74867   3.75275   3.76104   3.76685   3.77221
 Alpha virt. eigenvalues --    3.77462   3.77760   3.77822   3.78050   3.78584
 Alpha virt. eigenvalues --    3.78974   3.79599   3.79852   3.80226   3.80626
 Alpha virt. eigenvalues --    3.81091   3.81293   3.81698   3.82283   3.82381
 Alpha virt. eigenvalues --    3.83309   3.83724   3.84160   3.84291   3.85093
 Alpha virt. eigenvalues --    3.85361   3.85535   3.85916   3.86224   3.86396
 Alpha virt. eigenvalues --    3.86520   3.87139   3.87604   3.87911   3.88087
 Alpha virt. eigenvalues --    3.88717   3.88893   3.89022   3.89341   3.89964
 Alpha virt. eigenvalues --    3.90397   3.90583   3.90738   3.90950   3.91290
 Alpha virt. eigenvalues --    3.91618   3.92296   3.92500   3.92595   3.93115
 Alpha virt. eigenvalues --    3.93434   3.93681   3.93917   3.93959   3.94364
 Alpha virt. eigenvalues --    3.94657   3.95507   3.96258   3.96447   3.96791
 Alpha virt. eigenvalues --    3.96952   3.97975   3.98585   3.98619   3.99449
 Alpha virt. eigenvalues --    3.99495   3.99868   4.00092   4.00299   4.00659
 Alpha virt. eigenvalues --    4.00985   4.01290   4.01659   4.01755   4.02145
 Alpha virt. eigenvalues --    4.02465   4.02596   4.03219   4.03564   4.04037
 Alpha virt. eigenvalues --    4.04060   4.04201   4.04520   4.04923   4.05312
 Alpha virt. eigenvalues --    4.05625   4.05960   4.06193   4.06341   4.06632
 Alpha virt. eigenvalues --    4.06857   4.07550   4.07673   4.08480   4.08876
 Alpha virt. eigenvalues --    4.08991   4.09218   4.09750   4.10171   4.10433
 Alpha virt. eigenvalues --    4.11020   4.11141   4.11613   4.12198   4.12303
 Alpha virt. eigenvalues --    4.12753   4.13037   4.13519   4.13691   4.13973
 Alpha virt. eigenvalues --    4.14243   4.14590   4.15045   4.15422   4.15635
 Alpha virt. eigenvalues --    4.16243   4.16445   4.16754   4.16966   4.17189
 Alpha virt. eigenvalues --    4.17647   4.17801   4.18330   4.18824   4.19134
 Alpha virt. eigenvalues --    4.19217   4.19657   4.20124   4.20815   4.20962
 Alpha virt. eigenvalues --    4.21121   4.21655   4.22027   4.22289   4.23204
 Alpha virt. eigenvalues --    4.23299   4.23470   4.23939   4.23975   4.24283
 Alpha virt. eigenvalues --    4.24762   4.25126   4.25374   4.25456   4.25627
 Alpha virt. eigenvalues --    4.26426   4.26538   4.26735   4.27266   4.27998
 Alpha virt. eigenvalues --    4.28471   4.29012   4.29296   4.29455   4.29965
 Alpha virt. eigenvalues --    4.30309   4.31118   4.31720   4.32159   4.32754
 Alpha virt. eigenvalues --    4.32872   4.33412   4.33601   4.34388   4.35082
 Alpha virt. eigenvalues --    4.35159   4.35907   4.36287   4.36385   4.37154
 Alpha virt. eigenvalues --    4.37476   4.38008   4.38431   4.38980   4.39076
 Alpha virt. eigenvalues --    4.39746   4.40390   4.40487   4.41052   4.42044
 Alpha virt. eigenvalues --    4.42734   4.43569   4.43845   4.44613   4.45050
 Alpha virt. eigenvalues --    4.45963   4.46488   4.47463   4.47679   4.48419
 Alpha virt. eigenvalues --    4.48738   4.48940   4.49833   4.50156   4.50397
 Alpha virt. eigenvalues --    4.50594   4.50926   4.51549   4.51927   4.52430
 Alpha virt. eigenvalues --    4.52944   4.53454   4.54261   4.54556   4.55513
 Alpha virt. eigenvalues --    4.55988   4.56226   4.57147   4.57787   4.58112
 Alpha virt. eigenvalues --    4.59240   4.59446   4.59856   4.60208   4.60911
 Alpha virt. eigenvalues --    4.61366   4.61911   4.62767   4.63075   4.63476
 Alpha virt. eigenvalues --    4.64191   4.64396   4.64473   4.64882   4.65027
 Alpha virt. eigenvalues --    4.65332   4.65826   4.66173   4.66529   4.67404
 Alpha virt. eigenvalues --    4.68296   4.69554   4.69652   4.69987   4.70635
 Alpha virt. eigenvalues --    4.70962   4.71512   4.71764   4.72388   4.72764
 Alpha virt. eigenvalues --    4.74009   4.74213   4.74823   4.75536   4.76288
 Alpha virt. eigenvalues --    4.76619   4.77612   4.77663   4.78838   4.79638
 Alpha virt. eigenvalues --    4.79765   4.80122   4.80883   4.81226   4.81538
 Alpha virt. eigenvalues --    4.81926   4.82268   4.82577   4.83533   4.84023
 Alpha virt. eigenvalues --    4.84866   4.85435   4.86440   4.86475   4.86773
 Alpha virt. eigenvalues --    4.87567   4.88806   4.89065   4.89298   4.89763
 Alpha virt. eigenvalues --    4.90814   4.91121   4.91254   4.91822   4.93017
 Alpha virt. eigenvalues --    4.93214   4.93491   4.94200   4.94601   4.95113
 Alpha virt. eigenvalues --    4.95848   4.96056   4.96945   4.97486   4.97814
 Alpha virt. eigenvalues --    4.98921   4.99303   4.99446   5.00614   5.01073
 Alpha virt. eigenvalues --    5.02024   5.03064   5.03696   5.03830   5.04181
 Alpha virt. eigenvalues --    5.05466   5.05793   5.06746   5.07372   5.07510
 Alpha virt. eigenvalues --    5.08316   5.08772   5.08944   5.09323   5.09465
 Alpha virt. eigenvalues --    5.10465   5.10689   5.10986   5.11806   5.12026
 Alpha virt. eigenvalues --    5.12043   5.12649   5.13708   5.13965   5.14021
 Alpha virt. eigenvalues --    5.14283   5.15176   5.15542   5.16168   5.16677
 Alpha virt. eigenvalues --    5.17660   5.18998   5.19203   5.19489   5.19640
 Alpha virt. eigenvalues --    5.19901   5.21281   5.21372   5.21970   5.23079
 Alpha virt. eigenvalues --    5.24443   5.25010   5.25694   5.25875   5.26677
 Alpha virt. eigenvalues --    5.27124   5.28004   5.28749   5.29145   5.29960
 Alpha virt. eigenvalues --    5.30107   5.30831   5.31024   5.31370   5.31545
 Alpha virt. eigenvalues --    5.32794   5.32970   5.33229   5.34673   5.35021
 Alpha virt. eigenvalues --    5.35268   5.36000   5.36667   5.37320   5.37700
 Alpha virt. eigenvalues --    5.37878   5.38365   5.38700   5.39338   5.39519
 Alpha virt. eigenvalues --    5.39943   5.40316   5.40381   5.41210   5.41913
 Alpha virt. eigenvalues --    5.42779   5.43568   5.44526   5.44705   5.45616
 Alpha virt. eigenvalues --    5.46092   5.48437   5.49189   5.49651   5.50839
 Alpha virt. eigenvalues --    5.51022   5.51739   5.52126   5.53584   5.54338
 Alpha virt. eigenvalues --    5.55435   5.55506   5.56701   5.56945   5.57126
 Alpha virt. eigenvalues --    5.57527   5.58036   5.58541   5.59844   5.60196
 Alpha virt. eigenvalues --    5.60341   5.61026   5.61225   5.61343   5.62025
 Alpha virt. eigenvalues --    5.63140   5.64144   5.65191   5.65443   5.65677
 Alpha virt. eigenvalues --    5.66223   5.67673   5.67898   5.69615   5.70303
 Alpha virt. eigenvalues --    5.71392   5.71717   5.74291   5.76145   5.76446
 Alpha virt. eigenvalues --    5.77089   5.78021   5.81586   5.82652   5.83664
 Alpha virt. eigenvalues --    5.83889   5.86627   5.87721   5.89067   5.91736
 Alpha virt. eigenvalues --    5.91849   5.93296   5.94033   5.94862   5.96330
 Alpha virt. eigenvalues --    6.00042   6.02303   6.03782   6.06090   6.11599
 Alpha virt. eigenvalues --    6.15463   6.22288   6.22368   6.25278   6.27698
 Alpha virt. eigenvalues --    6.28108   6.36150   6.38046   6.38443   6.40862
 Alpha virt. eigenvalues --    6.43171   6.43940   6.54544   6.58587   6.61414
 Alpha virt. eigenvalues --    6.75492   6.76078   6.80783   6.82749   6.83121
 Alpha virt. eigenvalues --    6.86794   6.87418   6.91765   6.94052   6.94412
 Alpha virt. eigenvalues --    6.95134   6.97428   6.98962   6.99157   6.99863
 Alpha virt. eigenvalues --    7.05335   7.08456   7.11627   7.17478   7.20709
 Alpha virt. eigenvalues --    7.22949   7.23921   7.26702   7.32948   7.33993
 Alpha virt. eigenvalues --    7.34136   7.34679   7.41995   7.45402   7.48009
 Alpha virt. eigenvalues --    7.50925   8.44649   8.47126   8.56719   8.58480
 Alpha virt. eigenvalues --    8.82212   8.86702   8.90478   8.92634   8.97166
 Alpha virt. eigenvalues --    9.03346  15.87196  22.78109  22.89998  22.98678
 Alpha virt. eigenvalues --   22.99217  23.07815  23.10692  23.13944  23.14749
 Alpha virt. eigenvalues --   23.19073  23.21174  23.23328  23.28772  23.29755
 Alpha virt. eigenvalues --   23.31914  23.33656  23.34758  23.35366  23.37627
 Alpha virt. eigenvalues --   23.41211  23.45383  23.49422  23.50263  23.52617
 Alpha virt. eigenvalues --   23.58150  23.60881  23.69093  23.72676  23.76039
 Alpha virt. eigenvalues --   23.78991  23.85978  23.90498  24.04628  24.18917
 Alpha virt. eigenvalues --   31.90431  32.56979  32.59534  33.13822  33.29835
 Alpha virt. eigenvalues --   33.39657  44.20394  44.25117  44.79347  57.33036
 Alpha virt. eigenvalues --   57.58038
          Condensed to atoms (all electrons):
 Mulliken charges:
               1
     1  C   -0.433976
     2  C   -0.014387
     3  C   -0.089573
     4  C    0.044213
     5  C   -0.130206
     6  C   -0.055888
     7  C   -0.036980
     8  C    0.202910
     9  O   -0.268685
    10  C    0.137817
    11  C   -0.026752
    12  C   -0.154946
    13  C   -0.156597
    14  C    0.152206
    15  N   -0.376695
    16  N    0.421684
    17  N   -0.173061
    18  C   -0.172500
    19  C   -0.039953
    20  C   -0.051960
    21  C   -0.262997
    22  C   -0.250358
    23  C   -0.246479
    24  N   -0.096164
    25  C    0.093372
    26  C    0.144258
    27  C   -0.254725
    28  C   -0.161865
    29  C   -0.046796
    30  C   -0.028557
    31  N    0.493241
    32  O   -0.367593
    33  O   -0.367620
    34  C   -0.040600
    35  C   -0.182174
    36  C    0.085349
    37  C    0.014274
    38  C   -0.431899
    39  C   -0.127895
    40  C    0.060089
    41  C   -0.412673
    42  N   -0.107330
    43  B    0.376702
    44  F   -0.374090
    45  F   -0.342464
    46  H    0.160072
    47  H    0.133570
    48  H    0.162968
    49  H    0.169814
    50  H    0.108729
    51  H    0.095906
    52  H    0.154714
    53  H    0.148397
    54  H    0.193389
    55  H    0.138304
    56  H    0.149768
    57  H    0.125536
    58  H    0.123601
    59  H    0.128052
    60  H    0.145075
    61  H    0.118695
    62  H    0.177794
    63  H    0.197611
    64  H    0.198030
    65  H    0.181978
    66  H    0.156723
    67  H    0.159585
    68  H    0.131966
    69  H    0.160977
    70  H    0.150301
    71  H    0.136387
    72  H    0.150380
 Sum of Mulliken charges =  -0.00000
 Mulliken charges with hydrogens summed into heavy atoms:
               1
     1  C    0.022634
     2  C   -0.014387
     3  C    0.080241
     4  C    0.044213
     5  C   -0.021477
     6  C    0.040018
     7  C   -0.036980
     8  C    0.202910
     9  O   -0.268685
    10  C    0.137817
    11  C   -0.026752
    12  C   -0.000232
    13  C   -0.008200
    14  C    0.152206
    15  N   -0.376695
    16  N    0.421684
    17  N   -0.173061
    18  C    0.020889
    19  C    0.098351
    20  C   -0.051960
    21  C    0.012306
    22  C    0.001295
    23  C    0.017291
    24  N   -0.096164
    25  C    0.093372
    26  C    0.144258
    27  C   -0.254725
    28  C    0.015928
    29  C    0.150816
    30  C   -0.028557
    31  N    0.493241
    32  O   -0.367593
    33  O   -0.367620
    34  C    0.157430
    35  C   -0.000196
    36  C    0.085349
    37  C    0.014274
    38  C    0.016374
    39  C    0.033082
    40  C    0.060089
    41  C    0.024396
    42  N   -0.107330
    43  B    0.376702
    44  F   -0.374090
    45  F   -0.342464
 Electronic spatial extent (au):  <R**2>=          35302.1645
 Charge=             -0.0000 electrons
 Dipole moment (field-independent basis, Debye):
    X=             -7.2642    Y=             -3.7924    Z=             -0.7247  Tot=              8.2266
 Quadrupole moment (field-independent basis, Debye-Ang):
   XX=           -260.6163   YY=           -226.0624   ZZ=           -264.3803
   XY=             31.4210   XZ=              3.4480   YZ=             -0.0079
 Traceless Quadrupole moment (field-independent basis, Debye-Ang):
   XX=            -10.2633   YY=             24.2906   ZZ=            -14.0273
   XY=             31.4210   XZ=              3.4480   YZ=             -0.0079
 Octapole moment (field-independent basis, Debye-Ang**2):
  XXX=          -1297.1074  YYY=            -93.4449  ZZZ=             -6.5417  XYY=            -22.1759
  XXY=             26.1596  XXZ=             64.0979  XZZ=             46.7021  YZZ=              1.5670
  YYZ=             19.8844  XYZ=              0.1203
 Hexadecapole moment (field-independent basis, Debye-Ang**3):
 XXXX=         -42822.6182 YYYY=          -9894.4790 ZZZZ=           -917.8557 XXXY=           1835.6580
 XXXZ=            561.3082 YYYX=            696.8348 YYYZ=            100.2470 ZZZX=            -26.8833
 ZZZY=            -26.3456 XXYY=          -7474.7850 XXZZ=          -6378.4214 YYZZ=          -1940.7665
 XXYZ=            -96.8630 YYXZ=            -76.9179 ZZXY=            -31.8505
 N-N= 5.126700242374D+03 E-N=-1.504034217121D+04  KE= 2.041571795514D+03
 No NMR shielding tensors so no spin-rotation constants.
 Leave Link  601 at Fri Oct 24 22:00:52 2025, MaxMem= 30870077440 cpu:             119.7 elap:               2.2
 (Enter /public/software/gauss/g16/l9999.exe)
 1\1\GINC-CU056\SP\RM062X\def2TZVPP\C33H27B1F2N6O3\BAIDING\24-Oct-2025\
 0\\#p M062X/DEF2TZVPP scrf=(solvent=water) em=GD3\\Energy calculation 
 for BNO_N3\\0,1\C,0,-3.617463,-2.981564,0.329436\C,0,-2.354247,-2.1977
 98,0.141223\C,0,-1.089951,-2.749554,0.12865\C,0,-0.135683,-1.709182,-0
 .05909\C,0,1.291359,-1.782191,-0.11258\C,0,1.986387,-2.965297,-0.10577
 5\C,0,3.400424,-3.208414,-0.132758\C,0,4.388047,-2.242169,-0.074347\O,
 0,3.981505,-0.93006,0.068301\C,0,4.871861,0.106985,0.168289\C,0,6.2573
 21,-0.131674,0.129077\C,0,7.112607,0.979449,0.241189\C,0,6.607963,2.26
 3961,0.38451\C,0,5.2163,2.462027,0.417284\N,0,4.605462,3.734829,0.5588
 62\N,0,5.332855,4.731769,0.652101\N,0,5.874197,5.730482,0.748068\C,0,4
 .336805,1.381176,0.309639\C,0,6.697499,-1.492521,-0.027868\C,0,5.80561
 8,-2.515869,-0.138766\C,0,6.233527,-3.94821,-0.347617\C,0,5.242618,-4.
 918771,0.29974\C,0,3.831686,-4.666736,-0.235706\N,0,-0.810104,-0.52478
 2,-0.161658\C,0,-2.181724,-0.77694,-0.044928\C,0,-3.107142,0.27068,-0.
 097224\C,0,-4.566742,-0.020849,0.037903\C,0,-5.343078,-0.269908,-1.104
 068\C,0,-6.7022,-0.541115,-0.989341\C,0,-7.273079,-0.558011,0.283254\N
 ,0,-8.698945,-0.844005,0.412587\O,0,-9.352179,-1.058623,-0.613868\O,0,
 -9.196433,-0.860442,1.543369\C,0,-6.527861,-0.311516,1.436308\C,0,-5.1
 69857,-0.042586,1.304511\C,0,-2.685147,1.606183,-0.271109\C,0,-3.40371
 2,2.840742,-0.310114\C,0,-4.875658,3.095504,-0.179497\C,0,-2.443991,3.
 838567,-0.494412\C,0,-1.178535,3.237097,-0.569274\C,0,0.143011,3.90044
 ,-0.769276\N,0,-1.32316,1.894804,-0.429168\B,0,-0.194985,0.846924,-0.5
 37945\F,0,0.85271,1.17829,0.348523\F,0,0.32036,0.811909,-1.843879\H,0,
 -4.305423,-2.859046,-0.512547\H,0,-3.378264,-4.044162,0.420462\H,0,-4.
 157998,-2.677697,1.231152\H,0,-0.857109,-3.797111,0.260613\H,0,1.81643
 8,-0.842044,-0.15043\H,0,1.393988,-3.879073,-0.089067\H,0,8.186171,0.8
 19957,0.213801\H,0,7.285448,3.106975,0.469546\H,0,3.26283,1.527107,0.3
 34959\H,0,7.764333,-1.693911,-0.065169\H,0,6.277503,-4.151022,-1.42709
 3\H,0,7.246934,-4.085434,0.041514\H,0,5.541689,-5.952274,0.099242\H,0,
 5.253688,-4.780966,1.387937\H,0,3.780281,-4.990812,-1.285503\H,0,3.108
 245,-5.285143,0.306817\H,0,-4.880671,-0.252567,-2.084882\H,0,-7.308846
 ,-0.736651,-1.86407\H,0,-7.001947,-0.331227,2.409041\H,0,-4.573354,0.1
 51413,2.189218\H,0,-5.454452,2.586144,-0.956414\H,0,-5.2694,2.757689,0
 .784449\H,0,-5.07039,4.16796,-0.264052\H,0,-2.633384,4.901364,-0.56821
 6\H,0,0.680005,3.46094,-1.616168\H,0,0.000367,4.965857,-0.960299\H,0,0
 .783544,3.787032,0.111553\\Version=ES64L-G16RevA.03\State=1-A\HF=-2052
 .5304522\RMSD=4.454e-09\Dipole=2.8579591,-1.492063,0.2851159\Quadrupol
 e=-7.6305041,18.0594887,-10.4289846,-23.3607167,2.5635144,0.0058879\PG
 =C01 [X(C33H27B1F2N6O3)]\\@


 FLOATING POINT NUMBERS ARE LIKE SANDPILES:
 EVERY TIME THAT YOU MOVE ONE, YOU LOSE A LITTLE SAND 
 AND YOU PICK UP A LITTLE DIRT.
 Job cpu time:       0 days 18 hours 10 minutes 44.9 seconds.
 Elapsed time:       0 days  0 hours 17 minutes 19.6 seconds.
 File lengths (MBytes):  RWF=   2079 Int=      0 D2E=      0 Chk=    183 Scr=      1
 Normal termination of Gaussian 16 at Fri Oct 24 22:00:52 2025.
