 Entering Gaussian System, Link 0=g16
 Input=BNO_NO2_sp.gjf
 Output=BNO_NO2_sp.log
 Initial command:
 /public/software/gauss/g16/l1.exe "/public/home/baiding/1024_sp/tmp_BNO_NO2_sp_1526250/Gau-2927823.inp" -scrdir="/public/home/baiding/1024_sp/tmp_BNO_NO2_sp_1526250/"
 Entering Link 1 = /public/software/gauss/g16/l1.exe PID=   2927824.
  
 Copyright (c) 1988,1990,1992,1993,1995,1998,2003,2009,2016,
            Gaussian, Inc.  All Rights Reserved.
  
 This is part of the Gaussian(R) 16 program.  It is based on
 the Gaussian(R) 09 system (copyright 2009, Gaussian, Inc.),
 the Gaussian(R) 03 system (copyright 2003, Gaussian, Inc.),
 the Gaussian(R) 98 system (copyright 1998, Gaussian, Inc.),
 the Gaussian(R) 94 system (copyright 1995, Gaussian, Inc.),
 the Gaussian 92(TM) system (copyright 1992, Gaussian, Inc.),
 the Gaussian 90(TM) system (copyright 1990, Gaussian, Inc.),
 the Gaussian 88(TM) system (copyright 1988, Gaussian, Inc.),
 the Gaussian 86(TM) system (copyright 1986, Carnegie Mellon
 University), and the Gaussian 82(TM) system (copyright 1983,
 Carnegie Mellon University). Gaussian is a federally registered
 trademark of Gaussian, Inc.
  
 This software contains proprietary and confidential information,
 including trade secrets, belonging to Gaussian, Inc.
  
 This software is provided under written license and may be
 used, copied, transmitted, or stored only in accord with that
 written license.
  
 The following legend is applicable only to US Government
 contracts under FAR:
  
                    RESTRICTED RIGHTS LEGEND
  
 Use, reproduction and disclosure by the US Government is
 subject to restrictions as set forth in subparagraphs (a)
 and (c) of the Commercial Computer Software - Restricted
 Rights clause in FAR 52.227-19.
  
 Gaussian, Inc.
 340 Quinnipiac St., Bldg. 40, Wallingford CT 06492
  
  
 ---------------------------------------------------------------
 Warning -- This program may not be used in any manner that
 competes with the business of Gaussian, Inc. or will provide
 assistance to any competitor of Gaussian, Inc.  The licensee
 of this program is prohibited from giving any competitor of
 Gaussian, Inc. access to this program.  By using this program,
 the user acknowledges that Gaussian, Inc. is engaged in the
 business of creating and licensing software in the field of
 computational chemistry and represents and warrants to the
 licensee that it is not a competitor of Gaussian, Inc. and that
 it will not use this program in any manner prohibited above.
 ---------------------------------------------------------------
  

 Cite this work as:
 Gaussian 16, Revision A.03,
 M. J. Frisch, G. W. Trucks, H. B. Schlegel, G. E. Scuseria, 
 M. A. Robb, J. R. Cheeseman, G. Scalmani, V. Barone, 
 G. A. Petersson, H. Nakatsuji, X. Li, M. Caricato, A. V. Marenich, 
 J. Bloino, B. G. Janesko, R. Gomperts, B. Mennucci, H. P. Hratchian, 
 J. V. Ortiz, A. F. Izmaylov, J. L. Sonnenberg, D. Williams-Young, 
 F. Ding, F. Lipparini, F. Egidi, J. Goings, B. Peng, A. Petrone, 
 T. Henderson, D. Ranasinghe, V. G. Zakrzewski, J. Gao, N. Rega, 
 G. Zheng, W. Liang, M. Hada, M. Ehara, K. Toyota, R. Fukuda, 
 J. Hasegawa, M. Ishida, T. Nakajima, Y. Honda, O. Kitao, H. Nakai, 
 T. Vreven, K. Throssell, J. A. Montgomery, Jr., J. E. Peralta, 
 F. Ogliaro, M. J. Bearpark, J. J. Heyd, E. N. Brothers, K. N. Kudin, 
 V. N. Staroverov, T. A. Keith, R. Kobayashi, J. Normand, 
 K. Raghavachari, A. P. Rendell, J. C. Burant, S. S. Iyengar, 
 J. Tomasi, M. Cossi, J. M. Millam, M. Klene, C. Adamo, R. Cammi, 
 J. W. Ochterski, R. L. Martin, K. Morokuma, O. Farkas, 
 J. B. Foresman, and D. J. Fox, Gaussian, Inc., Wallingford CT, 2016.
 
 ******************************************
 Gaussian 16:  ES64L-G16RevA.03 25-Dec-2016
                24-Oct-2025 
 ******************************************
 %nprocshared=64
 Will use up to   64 processors via shared memory.
 %mem=230GB
 %chk=BNO_NO2_sp.chk
 ----------------------------------------------
 #p M062X/DEF2TZVPP scrf=(solvent=water) em=GD3
 ----------------------------------------------
 1/38=1,172=1/1;
 2/12=2,17=6,18=5,40=1/2;
 3/5=44,7=202,11=2,25=1,30=1,70=2201,72=1,74=-55,124=31/1,2,3;
 4//1;
 5/5=2,38=5,53=1/2;
 6/7=2,8=2,9=2,10=2,28=1/1;
 99/5=1,9=1/99;
 Leave Link    1 at Fri Oct 24 22:41:02 2025, MaxMem= 30870077440 cpu:              22.9 elap:               0.4
 (Enter /public/software/gauss/g16/l101.exe)
 ------------------------------
 Energy calculation for BNO_NO2
 ------------------------------
 Symbolic Z-matrix:
 Charge =  0 Multiplicity = 1
 C                    -7.21934   5.09353  -1.07547 
 N                    -7.32224   4.1677   -0.16595 
 O                    -8.21495   4.18036   0.77412 
 C                    -6.40064   3.03642  -0.14797 
 C                    -6.01525   2.53208   1.09298 
 C                    -5.13766   1.45231   1.14463 
 C                    -4.6582    0.86652  -0.0353 
 C                    -3.72707  -0.30129   0.02019 
 C                    -2.34098  -0.08788  -0.01926 
 C                    -1.56505   1.12336  -0.10079 
 C                    -2.03034   2.54697  -0.15032 
 C                    -0.23947   0.73491  -0.13474 
 C                    -0.177    -0.68419  -0.07829 
 C                     0.97487  -1.5379   -0.11797 
 C                     2.25847  -1.06822  -0.09567 
 C                     3.4376   -1.88013  -0.17672 
 C                     4.6882   -1.29829  -0.18155 
 O                     4.74784   0.07816  -0.01436 
 C                     5.94019   0.75106   0.0003 
 C                     7.1632    0.06278  -0.14923 
 C                     8.35681   0.80859  -0.11896 
 C                     8.33627   2.18369   0.05344 
 C                     7.09935   2.82166   0.19599 
 N                     7.06671   4.25963   0.37635 
 O                     5.96701   4.81704   0.50093 
 O                     8.13895   4.88042   0.39888 
 C                     5.8879    2.12493   0.17136 
 C                     7.11416  -1.36176  -0.33311 
 C                     5.92364  -2.02328  -0.36094 
 C                     5.82456  -3.50647  -0.61112 
 C                     4.62149  -4.11001   0.11661 
 C                     3.33061  -3.39003  -0.2845 
 N                    -1.452    -1.16648  -0.00492 
 B                    -1.8551   -2.64437   0.23461 
 F                    -1.28457  -3.47135  -0.74755 
 F                    -1.41323  -3.07182   1.49766 
 N                    -3.39714  -2.70977   0.15455 
 C                    -4.14668  -3.83712   0.20637 
 C                    -3.55771  -5.20503   0.28853 
 C                    -5.50581  -3.48179   0.16964 
 C                    -5.6021   -2.09262   0.09889 
 C                    -6.89424  -1.33542   0.03873 
 C                    -4.25621  -1.6035    0.09189 
 C                    -5.07382   1.37746  -1.27155 
 C                    -5.94757   2.46174  -1.33458 
 H                    -6.41539   5.05516  -1.79494 
 H                    -7.94734   5.89336  -1.05985 
 H                    -6.39766   2.98555   1.99903 
 H                    -4.82441   1.06142   2.10707 
 H                    -2.64892   2.80579   0.71415 
 H                    -1.16464   3.21422  -0.16182 
 H                    -2.62833   2.75189  -1.04358 
 H                     0.61101   1.39807  -0.21134 
 H                     0.786    -2.60176  -0.19183 
 H                     2.41314   0.00399  -0.02811 
 H                     9.30209   0.28887  -0.2346 
 H                     9.25127   2.76031   0.07763 
 H                     4.94005   2.63402   0.28348 
 H                     8.04559  -1.90387  -0.46386 
 H                     5.70862  -3.66755  -1.69243 
 H                     6.76107  -3.98937  -0.31716 
 H                     4.54033  -5.1766   -0.11313 
 H                     4.76934  -4.02088   1.19956 
 H                     3.05724  -3.66345  -1.31363 
 H                     2.50895  -3.73758   0.34977 
 H                    -2.87689  -5.28754   1.14214 
 H                    -4.34961  -5.94837   0.39734 
 H                    -2.97648  -5.43886  -0.60932 
 H                    -6.332    -4.18006   0.19201 
 H                    -7.01701  -0.66116   0.89206 
 H                    -6.97075  -0.72206  -0.86447 
 H                    -7.73116  -2.03871   0.04155 
 H                    -4.72377   0.91885  -2.19033 
 H                    -6.28573   2.83299  -2.29532 
 
 ITRead=  0  0  0  0  0  0  0  0  0  0  0  0  0  0  0  0  0  0  0  0
 ITRead=  0  0  0  0  0  0  0  0  0  0  0  0  0  0  0  0  0  0  0  0
 ITRead=  0  0  0  0  0  0  0  0  0  0  0  0  0  0  0  0  0  0  0  0
 ITRead=  0  0  0  0  0  0  0  0  0  0  0  0  0  0
 MicOpt= -1 -1 -1 -1 -1 -1 -1 -1 -1 -1 -1 -1 -1 -1 -1 -1 -1 -1 -1 -1
 MicOpt= -1 -1 -1 -1 -1 -1 -1 -1 -1 -1 -1 -1 -1 -1 -1 -1 -1 -1 -1 -1
 MicOpt= -1 -1 -1 -1 -1 -1 -1 -1 -1 -1 -1 -1 -1 -1 -1 -1 -1 -1 -1 -1
 MicOpt= -1 -1 -1 -1 -1 -1 -1 -1 -1 -1 -1 -1 -1 -1
 NAtoms=     74 NQM=       74 NQMF=       0 NMMI=      0 NMMIF=      0
                NMic=       0 NMicF=      0.
                    Isotopes and Nuclear Properties:
 (Nuclear quadrupole moments (NQMom) in fm**2, nuclear magnetic moments (NMagM)
  in nuclear magnetons)

  Atom         1           2           3           4           5           6           7           8           9          10
 IAtWgt=          12          14          16          12          12          12          12          12          12          12
 AtmWgt=  12.0000000  14.0030740  15.9949146  12.0000000  12.0000000  12.0000000  12.0000000  12.0000000  12.0000000  12.0000000
 NucSpn=           0           2           0           0           0           0           0           0           0           0
 AtZEff=  -0.0000000  -0.0000000  -0.0000000  -0.0000000  -0.0000000  -0.0000000  -0.0000000  -0.0000000  -0.0000000  -0.0000000
 NQMom=    0.0000000   2.0440000   0.0000000   0.0000000   0.0000000   0.0000000   0.0000000   0.0000000   0.0000000   0.0000000
 NMagM=    0.0000000   0.4037610   0.0000000   0.0000000   0.0000000   0.0000000   0.0000000   0.0000000   0.0000000   0.0000000
 AtZNuc=   6.0000000   7.0000000   8.0000000   6.0000000   6.0000000   6.0000000   6.0000000   6.0000000   6.0000000   6.0000000

  Atom        11          12          13          14          15          16          17          18          19          20
 IAtWgt=          12          12          12          12          12          12          12          16          12          12
 AtmWgt=  12.0000000  12.0000000  12.0000000  12.0000000  12.0000000  12.0000000  12.0000000  15.9949146  12.0000000  12.0000000
 NucSpn=           0           0           0           0           0           0           0           0           0           0
 AtZEff=  -0.0000000  -0.0000000  -0.0000000  -0.0000000  -0.0000000  -0.0000000  -0.0000000  -0.0000000  -0.0000000  -0.0000000
 NQMom=    0.0000000   0.0000000   0.0000000   0.0000000   0.0000000   0.0000000   0.0000000   0.0000000   0.0000000   0.0000000
 NMagM=    0.0000000   0.0000000   0.0000000   0.0000000   0.0000000   0.0000000   0.0000000   0.0000000   0.0000000   0.0000000
 AtZNuc=   6.0000000   6.0000000   6.0000000   6.0000000   6.0000000   6.0000000   6.0000000   8.0000000   6.0000000   6.0000000

  Atom        21          22          23          24          25          26          27          28          29          30
 IAtWgt=          12          12          12          14          16          16          12          12          12          12
 AtmWgt=  12.0000000  12.0000000  12.0000000  14.0030740  15.9949146  15.9949146  12.0000000  12.0000000  12.0000000  12.0000000
 NucSpn=           0           0           0           2           0           0           0           0           0           0
 AtZEff=  -0.0000000  -0.0000000  -0.0000000  -0.0000000  -0.0000000  -0.0000000  -0.0000000  -0.0000000  -0.0000000  -0.0000000
 NQMom=    0.0000000   0.0000000   0.0000000   2.0440000   0.0000000   0.0000000   0.0000000   0.0000000   0.0000000   0.0000000
 NMagM=    0.0000000   0.0000000   0.0000000   0.4037610   0.0000000   0.0000000   0.0000000   0.0000000   0.0000000   0.0000000
 AtZNuc=   6.0000000   6.0000000   6.0000000   7.0000000   8.0000000   8.0000000   6.0000000   6.0000000   6.0000000   6.0000000

  Atom        31          32          33          34          35          36          37          38          39          40
 IAtWgt=          12          12          14          11          19          19          14          12          12          12
 AtmWgt=  12.0000000  12.0000000  14.0030740  11.0093053  18.9984033  18.9984033  14.0030740  12.0000000  12.0000000  12.0000000
 NucSpn=           0           0           2           3           1           1           2           0           0           0
 AtZEff=  -0.0000000  -0.0000000  -0.0000000  -0.0000000  -0.0000000  -0.0000000  -0.0000000  -0.0000000  -0.0000000  -0.0000000
 NQMom=    0.0000000   0.0000000   2.0440000   4.0590000   0.0000000   0.0000000   2.0440000   0.0000000   0.0000000   0.0000000
 NMagM=    0.0000000   0.0000000   0.4037610   2.6886370   2.6288670   2.6288670   0.4037610   0.0000000   0.0000000   0.0000000
 AtZNuc=   6.0000000   6.0000000   7.0000000   5.0000000   9.0000000   9.0000000   7.0000000   6.0000000   6.0000000   6.0000000

  Atom        41          42          43          44          45          46          47          48          49          50
 IAtWgt=          12          12          12          12          12           1           1           1           1           1
 AtmWgt=  12.0000000  12.0000000  12.0000000  12.0000000  12.0000000   1.0078250   1.0078250   1.0078250   1.0078250   1.0078250
 NucSpn=           0           0           0           0           0           1           1           1           1           1
 AtZEff=  -0.0000000  -0.0000000  -0.0000000  -0.0000000  -0.0000000  -0.0000000  -0.0000000  -0.0000000  -0.0000000  -0.0000000
 NQMom=    0.0000000   0.0000000   0.0000000   0.0000000   0.0000000   0.0000000   0.0000000   0.0000000   0.0000000   0.0000000
 NMagM=    0.0000000   0.0000000   0.0000000   0.0000000   0.0000000   2.7928460   2.7928460   2.7928460   2.7928460   2.7928460
 AtZNuc=   6.0000000   6.0000000   6.0000000   6.0000000   6.0000000   1.0000000   1.0000000   1.0000000   1.0000000   1.0000000

  Atom        51          52          53          54          55          56          57          58          59          60
 IAtWgt=           1           1           1           1           1           1           1           1           1           1
 AtmWgt=   1.0078250   1.0078250   1.0078250   1.0078250   1.0078250   1.0078250   1.0078250   1.0078250   1.0078250   1.0078250
 NucSpn=           1           1           1           1           1           1           1           1           1           1
 AtZEff=  -0.0000000  -0.0000000  -0.0000000  -0.0000000  -0.0000000  -0.0000000  -0.0000000  -0.0000000  -0.0000000  -0.0000000
 NQMom=    0.0000000   0.0000000   0.0000000   0.0000000   0.0000000   0.0000000   0.0000000   0.0000000   0.0000000   0.0000000
 NMagM=    2.7928460   2.7928460   2.7928460   2.7928460   2.7928460   2.7928460   2.7928460   2.7928460   2.7928460   2.7928460
 AtZNuc=   1.0000000   1.0000000   1.0000000   1.0000000   1.0000000   1.0000000   1.0000000   1.0000000   1.0000000   1.0000000

  Atom        61          62          63          64          65          66          67          68          69          70
 IAtWgt=           1           1           1           1           1           1           1           1           1           1
 AtmWgt=   1.0078250   1.0078250   1.0078250   1.0078250   1.0078250   1.0078250   1.0078250   1.0078250   1.0078250   1.0078250
 NucSpn=           1           1           1           1           1           1           1           1           1           1
 AtZEff=  -0.0000000  -0.0000000  -0.0000000  -0.0000000  -0.0000000  -0.0000000  -0.0000000  -0.0000000  -0.0000000  -0.0000000
 NQMom=    0.0000000   0.0000000   0.0000000   0.0000000   0.0000000   0.0000000   0.0000000   0.0000000   0.0000000   0.0000000
 NMagM=    2.7928460   2.7928460   2.7928460   2.7928460   2.7928460   2.7928460   2.7928460   2.7928460   2.7928460   2.7928460
 AtZNuc=   1.0000000   1.0000000   1.0000000   1.0000000   1.0000000   1.0000000   1.0000000   1.0000000   1.0000000   1.0000000

  Atom        71          72          73          74
 IAtWgt=           1           1           1           1
 AtmWgt=   1.0078250   1.0078250   1.0078250   1.0078250
 NucSpn=           1           1           1           1
 AtZEff=  -0.0000000  -0.0000000  -0.0000000  -0.0000000
 NQMom=    0.0000000   0.0000000   0.0000000   0.0000000
 NMagM=    2.7928460   2.7928460   2.7928460   2.7928460
 AtZNuc=   1.0000000   1.0000000   1.0000000   1.0000000
 Leave Link  101 at Fri Oct 24 22:41:03 2025, MaxMem= 30870077440 cpu:               5.8 elap:               0.1
 (Enter /public/software/gauss/g16/l202.exe)
 Stoichiometry    C34H29BF2N4O4
 Framework group  C1[X(C34H29BF2N4O4)]
 Deg. of freedom   216
 Full point group                 C1      NOp   1
 Largest Abelian subgroup         C1      NOp   1
 Largest concise Abelian subgroup C1      NOp   1
                         Standard orientation:                         
 ---------------------------------------------------------------------
 Center     Atomic      Atomic             Coordinates (Angstroms)
 Number     Number       Type             X           Y           Z
 ---------------------------------------------------------------------
      1          6           0        7.219343    5.093529    1.075475
      2          7           0        7.322236    4.167702    0.165951
      3          8           0        8.214952    4.180361   -0.774117
      4          6           0        6.400644    3.036422    0.147970
      5          6           0        6.015246    2.532078   -1.092984
      6          6           0        5.137658    1.452305   -1.144633
      7          6           0        4.658198    0.866522    0.035304
      8          6           0        3.727066   -0.301289   -0.020191
      9          6           0        2.340981   -0.087880    0.019262
     10          6           0        1.565052    1.123361    0.100787
     11          6           0        2.030344    2.546974    0.150315
     12          6           0        0.239467    0.734910    0.134739
     13          6           0        0.176998   -0.684193    0.078286
     14          6           0       -0.974865   -1.537897    0.117965
     15          6           0       -2.258467   -1.068216    0.095665
     16          6           0       -3.437601   -1.880128    0.176719
     17          6           0       -4.688204   -1.298294    0.181554
     18          8           0       -4.747844    0.078155    0.014358
     19          6           0       -5.940186    0.751060   -0.000296
     20          6           0       -7.163200    0.062778    0.149232
     21          6           0       -8.356808    0.808586    0.118958
     22          6           0       -8.336269    2.183694   -0.053443
     23          6           0       -7.099345    2.821662   -0.195993
     24          7           0       -7.066707    4.259634   -0.376354
     25          8           0       -5.967009    4.817041   -0.500934
     26          8           0       -8.138948    4.880419   -0.398877
     27          6           0       -5.887898    2.124927   -0.171359
     28          6           0       -7.114162   -1.361760    0.333112
     29          6           0       -5.923637   -2.023279    0.360937
     30          6           0       -5.824563   -3.506467    0.611117
     31          6           0       -4.621486   -4.110015   -0.116608
     32          6           0       -3.330612   -3.390027    0.284495
     33          7           0        1.452003   -1.166485    0.004922
     34          5           0        1.855101   -2.644370   -0.234607
     35          9           0        1.284570   -3.471347    0.747554
     36          9           0        1.413231   -3.071822   -1.497658
     37          7           0        3.397136   -2.709774   -0.154551
     38          6           0        4.146679   -3.837121   -0.206365
     39          6           0        3.557710   -5.205033   -0.288534
     40          6           0        5.505808   -3.481789   -0.169638
     41          6           0        5.602099   -2.092625   -0.098890
     42          6           0        6.894242   -1.335423   -0.038727
     43          6           0        4.256210   -1.603503   -0.091889
     44          6           0        5.073824    1.377458    1.271545
     45          6           0        5.947569    2.461737    1.334583
     46          1           0        6.415393    5.055159    1.794937
     47          1           0        7.947335    5.893357    1.059854
     48          1           0        6.397663    2.985550   -1.999031
     49          1           0        4.824413    1.061416   -2.107070
     50          1           0        2.648916    2.805785   -0.714148
     51          1           0        1.164644    3.214223    0.161815
     52          1           0        2.628330    2.751891    1.043581
     53          1           0       -0.611013    1.398073    0.211338
     54          1           0       -0.785995   -2.601759    0.191827
     55          1           0       -2.413143    0.003991    0.028114
     56          1           0       -9.302093    0.288865    0.234601
     57          1           0       -9.251269    2.760311   -0.077627
     58          1           0       -4.940046    2.634021   -0.283476
     59          1           0       -8.045588   -1.903873    0.463858
     60          1           0       -5.708623   -3.667551    1.692428
     61          1           0       -6.761071   -3.989371    0.317161
     62          1           0       -4.540332   -5.176603    0.113134
     63          1           0       -4.769343   -4.020880   -1.199560
     64          1           0       -3.057238   -3.663452    1.313626
     65          1           0       -2.508945   -3.737581   -0.349771
     66          1           0        2.876893   -5.287545   -1.142141
     67          1           0        4.349609   -5.948373   -0.397339
     68          1           0        2.976483   -5.438865    0.609319
     69          1           0        6.332001   -4.180061   -0.192010
     70          1           0        7.017014   -0.661158   -0.892059
     71          1           0        6.970749   -0.722064    0.864471
     72          1           0        7.731159   -2.038709   -0.041546
     73          1           0        4.723768    0.918853    2.190331
     74          1           0        6.285733    2.832992    2.295324
 ---------------------------------------------------------------------
 Rotational constants (GHZ):           0.0998100           0.0297074           0.0233290
 Leave Link  202 at Fri Oct 24 22:41:03 2025, MaxMem= 30870077440 cpu:               0.2 elap:               0.0
 (Enter /public/software/gauss/g16/l301.exe)
 Standard basis: def2TZVPP (5D, 7F)
 Ernie: Thresh=  0.10000D-02 Tol=  0.10000D-05 Strict=F.
 There are  2055 symmetry adapted cartesian basis functions of A   symmetry.
 There are  1801 symmetry adapted basis functions of A   symmetry.
  1801 basis functions,  2788 primitive gaussians,  2055 cartesian basis functions
   158 alpha electrons      158 beta electrons
       nuclear repulsion energy      5000.9691233416 Hartrees.
 IExCor= 4336 DFT=T Ex+Corr=M062X ExCW=0 ScaHFX=  0.540000
 ScaDFX=  1.000000  1.000000  1.000000  1.000000 ScalE2=  1.000000  1.000000
 IRadAn=      5 IRanWt=     -1 IRanGd=            0 ICorTp=0 IEmpDi=131
 NAtoms=   74 NActive=   74 NUniq=   74 SFac= 1.00D+00 NAtFMM=   60 NAOKFM=T Big=T
 Integral buffers will be    131072 words long.
 Raffenetti 2 integral format.
 Two-electron integral symmetry is turned on.
 R6Disp:  Grimme-D3 Dispersion energy=       -0.0060916567 Hartrees.
 Nuclear repulsion after empirical dispersion term =     5000.9630316850 Hartrees.
 ------------------------------------------------------------------------------
 Polarizable Continuum Model (PCM)
 =================================
 Model                : PCM.
 Atomic radii         : UFF (Universal Force Field).
 Polarization charges : Total charges.
 Charge compensation  : None.
 Solution method      : On-the-fly selection.
 Cavity type          : Scaled VdW (van der Waals Surface) (Alpha=1.100).
 Cavity algorithm     : GePol (No added spheres)
                        Default sphere list used, NSphG=   74.
                        Lebedev-Laikov grids with approx.  5.0 points / Ang**2.
                        Smoothing algorithm: York/Karplus (Gamma=1.0000).
                        Polarization charges: spherical gaussians, with
                                              point-specific exponents (IZeta= 3).
                        Self-potential: point-specific (ISelfS= 7).
                        Self-field    : sphere-specific E.n sum rule (ISelfD= 2).
 Solvent              : Water, Eps=  78.355300 Eps(inf)=   1.777849
 ------------------------------------------------------------------------------
 GePol: Number of generator spheres                  =      74
 GePol: Total number of spheres                      =      74
 GePol: Number of exposed spheres                    =      74 (100.00%)
 GePol: Number of points                             =    5327
 GePol: Average weight of points                     =       0.13
 GePol: Minimum weight of points                     =   0.24D-11
 GePol: Maximum weight of points                     =    0.20577
 GePol: Number of points with low weight             =     371
 GePol: Fraction of low-weight points (<1% of avg)   =       6.96%
 GePol: Cavity surface area                          =    672.227 Ang**2
 GePol: Cavity volume                                =    779.243 Ang**3
 Leave Link  301 at Fri Oct 24 22:41:03 2025, MaxMem= 30870077440 cpu:               4.8 elap:               0.1
 (Enter /public/software/gauss/g16/l302.exe)
 NPDir=0 NMtPBC=     1 NCelOv=     1 NCel=       1 NClECP=     1 NCelD=      1
         NCelK=      1 NCelE2=     1 NClLst=     1 CellRange=     0.0.
 One-electron integrals computed using PRISM.
 One-electron integral symmetry used in STVInt
   1 Symmetry operations used in ECPInt.
 ECPInt:  NShTT=  224115 NPrTT=  642355 LenC2=  138914 LenP2D=  269035.
 LDataN:  DoStor=T MaxTD1= 6 Len=  172
 NBasis=  1801 RedAO= T EigKep=  3.59D-06  NBF=  1801
 NBsUse=  1801 1.00D-06 EigRej= -1.00D+00 NBFU=  1801
 Precomputing XC quadrature grid using
 IXCGrd= 4 IRadAn=           5 IRanWt=          -1 IRanGd=           0 AccXCQ= 0.00D+00.
 Generated NRdTot=       0 NPtTot=           0 NUsed=           0 NTot=          32
 NSgBfM=  1917  1911  1912  1916  1917 MxSgAt=    74 MxSgA2=    74.
 Leave Link  302 at Fri Oct 24 22:41:11 2025, MaxMem= 30870077440 cpu:             542.6 elap:               8.5
 (Enter /public/software/gauss/g16/l303.exe)
 DipDrv:  MaxL=1.
 Leave Link  303 at Fri Oct 24 22:41:12 2025, MaxMem= 30870077440 cpu:              26.8 elap:               0.5
 (Enter /public/software/gauss/g16/l401.exe)
 ExpMin= 6.06D-02 ExpMax= 3.55D+04 ExpMxC= 1.21D+03 IAcc=3 IRadAn=         5 AccDes= 0.00D+00
 Harris functional with IExCor= 1009 and IRadAn=       5 diagonalized for initial guess.
 HarFok:  IExCor= 1009 AccDes= 0.00D+00 IRadAn=         5 IDoV= 1 UseB2=F ITyADJ=14
 ICtDFT=  3500011 ScaDFX=  1.000000  1.000000  1.000000  1.000000
 FoFCou: FMM=F IPFlag=           0 FMFlag=      100000 FMFlg1=        2001
         NFxFlg=           0 DoJE=T BraDBF=F KetDBF=T FulRan=T
         wScrn=  0.000000 ICntrl=       500 IOpCl=  0 I1Cent=   200000004 NGrid=           0
         NMat0=    1 NMatS0=      1 NMatT0=    0 NMatD0=    1 NMtDS0=    0 NMtDT0=    0
 Petite list used in FoFCou.
 Harris En= -2056.51892264924    
 JPrj=0 DoOrth=F DoCkMO=F.
 Leave Link  401 at Fri Oct 24 22:41:21 2025, MaxMem= 30870077440 cpu:             615.0 elap:               9.7
 (Enter /public/software/gauss/g16/l502.exe)
 Integral symmetry usage will be decided dynamically.
 Closed shell SCF:
 Using DIIS extrapolation, IDIIS=  1040.
 NGot= 30870077440 LenX= 30861482604 LenY= 30857257524
 Requested convergence on RMS density matrix=1.00D-08 within 128 cycles.
 Requested convergence on MAX density matrix=1.00D-06.
 Requested convergence on             energy=1.00D-06.
 No special actions if energy rises.
 Fock matrices will be formed incrementally for  20 cycles.

 Cycle   1  Pass 1  IDiag  1:
 FoFJK:  IHMeth= 1 ICntrl=       0 DoSepK=F KAlg= 0 I1Cent=           0 FoldK=F
 IRaf= 580000000 NMat=       1 IRICut=       1 DoRegI=T DoRafI=F ISym2E= 0 IDoP0=0 IntGTp=1.
 FoFCou: FMM=T IPFlag=           0 FMFlag=      100000 FMFlg1=        2001
         NFxFlg=           0 DoJE=F BraDBF=F KetDBF=F FulRan=T
         wScrn=  0.000000 ICntrl=         0 IOpCl=  0 I1Cent=           0 NGrid=           0
         NMat0=    1 NMatS0=      1 NMatT0=    0 NMatD0=    1 NMtDS0=    0 NMtDT0=    0
 Symmetry not used in FoFCou.
 FMM levels:  10  Number of levels for PrismC:   9
 Inv3:  Mode=1 IEnd=    85130787.
 Iteration    1 A*A^-1 deviation from unit magnitude is 1.13D-14 for    661.
 Iteration    1 A*A^-1 deviation from orthogonality  is 6.20D-15 for   5316   2873.
 Iteration    1 A^-1*A deviation from unit magnitude is 8.66D-15 for    661.
 Iteration    1 A^-1*A deviation from orthogonality  is 2.10D-15 for   3877   1904.
 E= -2056.46137924670    
 DIIS: error= 2.32D-02 at cycle   1 NSaved=   1.
 NSaved= 1 IEnMin= 1 EnMin= -2056.46137924670     IErMin= 1 ErrMin= 2.32D-02
 ErrMax= 2.32D-02  0.00D+00 EMaxC= 1.00D-01 BMatC= 1.46D+00 BMatP= 1.46D+00
 IDIUse=3 WtCom= 7.68D-01 WtEn= 2.32D-01
 Coeff-Com:  0.100D+01
 Coeff-En:   0.100D+01
 Coeff:      0.100D+01
 Gap=     0.122 Goal=   None    Shift=    0.000
 GapD=    0.122 DampG=1.000 DampE=0.500 DampFc=0.5000 IDamp=-1.
 Damping current iteration by 5.00D-01
 RMSDP=1.48D-03 MaxDP=4.62D-01              OVMax= 2.61D-01

 Cycle   2  Pass 1  IDiag  1:
 RMSU=  7.38D-04    CP:  9.91D-01
 E= -2056.98055348931     Delta-E=       -0.519174242610 Rises=F Damp=T
 DIIS: error= 5.10D-03 at cycle   2 NSaved=   2.
 NSaved= 2 IEnMin= 2 EnMin= -2056.98055348931     IErMin= 2 ErrMin= 5.10D-03
 ErrMax= 5.10D-03  0.00D+00 EMaxC= 1.00D-01 BMatC= 1.47D-01 BMatP= 1.46D+00
 IDIUse=3 WtCom= 9.49D-01 WtEn= 5.10D-02
 Coeff-Com: -0.449D-01 0.104D+01
 Coeff-En:   0.000D+00 0.100D+01
 Coeff:     -0.426D-01 0.104D+01
 Gap=     0.155 Goal=   None    Shift=    0.000
 RMSDP=6.14D-04 MaxDP=5.58D-02 DE=-5.19D-01 OVMax= 2.06D-01

 Cycle   3  Pass 1  IDiag  1:
 RMSU=  5.77D-04    CP:  9.71D-01  1.27D+00
 E= -2057.48565032736     Delta-E=       -0.505096838055 Rises=F Damp=F
 DIIS: error= 1.04D-02 at cycle   3 NSaved=   3.
 NSaved= 3 IEnMin= 3 EnMin= -2057.48565032736     IErMin= 2 ErrMin= 5.10D-03
 ErrMax= 1.04D-02  0.00D+00 EMaxC= 1.00D-01 BMatC= 7.99D-02 BMatP= 1.47D-01
 IDIUse=3 WtCom= 8.96D-01 WtEn= 1.04D-01
 Coeff-Com: -0.107D+00 0.469D+00 0.638D+00
 Coeff-En:   0.000D+00 0.000D+00 0.100D+01
 Coeff:     -0.958D-01 0.421D+00 0.675D+00
 Gap=     0.127 Goal=   None    Shift=    0.000
 RMSDP=1.89D-04 MaxDP=3.39D-02 DE=-5.05D-01 OVMax= 7.46D-02

 Cycle   4  Pass 1  IDiag  1:
 RMSU=  1.74D-04    CP:  9.76D-01  1.34D+00  9.19D-01
 E= -2057.53673300954     Delta-E=       -0.051082682178 Rises=F Damp=F
 DIIS: error= 3.32D-03 at cycle   4 NSaved=   4.
 NSaved= 4 IEnMin= 4 EnMin= -2057.53673300954     IErMin= 4 ErrMin= 3.32D-03
 ErrMax= 3.32D-03  0.00D+00 EMaxC= 1.00D-01 BMatC= 1.31D-02 BMatP= 7.99D-02
 IDIUse=3 WtCom= 9.67D-01 WtEn= 3.32D-02
 Coeff-Com: -0.303D-01 0.829D-01 0.331D+00 0.616D+00
 Coeff-En:   0.000D+00 0.000D+00 0.112D+00 0.888D+00
 Coeff:     -0.293D-01 0.802D-01 0.324D+00 0.625D+00
 Gap=     0.130 Goal=   None    Shift=    0.000
 RMSDP=6.22D-05 MaxDP=9.86D-03 DE=-5.11D-02 OVMax= 1.96D-02

 Cycle   5  Pass 1  IDiag  1:
 RMSU=  4.72D-05    CP:  9.74D-01  1.33D+00  9.49D-01  7.99D-01
 E= -2057.54645948928     Delta-E=       -0.009726479736 Rises=F Damp=F
 DIIS: error= 2.77D-04 at cycle   5 NSaved=   5.
 NSaved= 5 IEnMin= 5 EnMin= -2057.54645948928     IErMin= 5 ErrMin= 2.77D-04
 ErrMax= 2.77D-04  0.00D+00 EMaxC= 1.00D-01 BMatC= 4.17D-04 BMatP= 1.31D-02
 IDIUse=3 WtCom= 9.97D-01 WtEn= 2.77D-03
 Coeff-Com: -0.774D-02 0.140D-01 0.113D+00 0.273D+00 0.608D+00
 Coeff-En:   0.000D+00 0.000D+00 0.000D+00 0.000D+00 0.100D+01
 Coeff:     -0.772D-02 0.139D-01 0.112D+00 0.272D+00 0.609D+00
 Gap=     0.131 Goal=   None    Shift=    0.000
 RMSDP=1.99D-05 MaxDP=7.60D-03 DE=-9.73D-03 OVMax= 4.56D-03

 Cycle   6  Pass 1  IDiag  1:
 RMSU=  1.82D-05    CP:  9.74D-01  1.34D+00  9.48D-01  8.16D-01  9.18D-01
 E= -2057.54681573271     Delta-E=       -0.000356243428 Rises=F Damp=F
 DIIS: error= 9.38D-05 at cycle   6 NSaved=   6.
 NSaved= 6 IEnMin= 6 EnMin= -2057.54681573271     IErMin= 6 ErrMin= 9.38D-05
 ErrMax= 9.38D-05  0.00D+00 EMaxC= 1.00D-01 BMatC= 3.25D-05 BMatP= 4.17D-04
 IDIUse=1 WtCom= 1.00D+00 WtEn= 0.00D+00
 Coeff-Com:  0.287D-04-0.230D-02 0.123D-01 0.435D-01 0.230D+00 0.716D+00
 Coeff:      0.287D-04-0.230D-02 0.123D-01 0.435D-01 0.230D+00 0.716D+00
 Gap=     0.132 Goal=   None    Shift=    0.000
 RMSDP=7.36D-06 MaxDP=1.05D-03 DE=-3.56D-04 OVMax= 4.32D-03

 Cycle   7  Pass 1  IDiag  1:
 RMSU=  6.40D-06    CP:  9.75D-01  1.34D+00  9.50D-01  8.20D-01  9.84D-01
                    CP:  1.02D+00
 E= -2057.54686516973     Delta-E=       -0.000049437024 Rises=F Damp=F
 DIIS: error= 5.20D-05 at cycle   7 NSaved=   7.
 NSaved= 7 IEnMin= 7 EnMin= -2057.54686516973     IErMin= 7 ErrMin= 5.20D-05
 ErrMax= 5.20D-05  0.00D+00 EMaxC= 1.00D-01 BMatC= 8.99D-06 BMatP= 3.25D-05
 IDIUse=1 WtCom= 1.00D+00 WtEn= 0.00D+00
 Coeff-Com:  0.146D-02-0.375D-02-0.148D-01-0.306D-01-0.990D-02 0.347D+00
 Coeff-Com:  0.711D+00
 Coeff:      0.146D-02-0.375D-02-0.148D-01-0.306D-01-0.990D-02 0.347D+00
 Coeff:      0.711D+00
 Gap=     0.132 Goal=   None    Shift=    0.000
 RMSDP=4.73D-06 MaxDP=1.18D-03 DE=-4.94D-05 OVMax= 2.76D-03

 Cycle   8  Pass 1  IDiag  1:
 RMSU=  2.79D-06    CP:  9.75D-01  1.34D+00  9.51D-01  8.26D-01  1.01D+00
                    CP:  1.19D+00  1.18D+00
 E= -2057.54688134766     Delta-E=       -0.000016177934 Rises=F Damp=F
 DIIS: error= 2.32D-05 at cycle   8 NSaved=   8.
 NSaved= 8 IEnMin= 8 EnMin= -2057.54688134766     IErMin= 8 ErrMin= 2.32D-05
 ErrMax= 2.32D-05  0.00D+00 EMaxC= 1.00D-01 BMatC= 1.03D-06 BMatP= 8.99D-06
 IDIUse=1 WtCom= 1.00D+00 WtEn= 0.00D+00
 Coeff-Com:  0.547D-03-0.989D-03-0.754D-02-0.198D-01-0.501D-01 0.142D-01
 Coeff-Com:  0.250D+00 0.813D+00
 Coeff:      0.547D-03-0.989D-03-0.754D-02-0.198D-01-0.501D-01 0.142D-01
 Coeff:      0.250D+00 0.813D+00
 Gap=     0.133 Goal=   None    Shift=    0.000
 RMSDP=2.28D-06 MaxDP=3.01D-04 DE=-1.62D-05 OVMax= 1.94D-03

 Cycle   9  Pass 1  IDiag  1:
 RMSU=  1.41D-06    CP:  9.75D-01  1.34D+00  9.51D-01  8.28D-01  1.02D+00
                    CP:  1.24D+00  1.37D+00  1.13D+00
 E= -2057.54688524643     Delta-E=       -0.000003898762 Rises=F Damp=F
 DIIS: error= 7.81D-06 at cycle   9 NSaved=   9.
 NSaved= 9 IEnMin= 9 EnMin= -2057.54688524643     IErMin= 9 ErrMin= 7.81D-06
 ErrMax= 7.81D-06  0.00D+00 EMaxC= 1.00D-01 BMatC= 2.59D-07 BMatP= 1.03D-06
 IDIUse=1 WtCom= 1.00D+00 WtEn= 0.00D+00
 Coeff-Com: -0.621D-04 0.300D-03 0.380D-04-0.172D-02-0.168D-01-0.459D-01
 Coeff-Com: -0.627D-01 0.268D+00 0.859D+00
 Coeff:     -0.621D-04 0.300D-03 0.380D-04-0.172D-02-0.168D-01-0.459D-01
 Coeff:     -0.627D-01 0.268D+00 0.859D+00
 Gap=     0.133 Goal=   None    Shift=    0.000
 RMSDP=1.32D-06 MaxDP=2.21D-04 DE=-3.90D-06 OVMax= 1.18D-03

 Cycle  10  Pass 1  IDiag  1:
 RMSU=  6.01D-07    CP:  9.75D-01  1.34D+00  9.51D-01  8.28D-01  1.03D+00
                    CP:  1.28D+00  1.46D+00  1.36D+00  1.28D+00
 E= -2057.54688620938     Delta-E=       -0.000000962957 Rises=F Damp=F
 DIIS: error= 4.89D-06 at cycle  10 NSaved=  10.
 NSaved=10 IEnMin=10 EnMin= -2057.54688620938     IErMin=10 ErrMin= 4.89D-06
 ErrMax= 4.89D-06  0.00D+00 EMaxC= 1.00D-01 BMatC= 7.06D-08 BMatP= 2.59D-07
 IDIUse=1 WtCom= 1.00D+00 WtEn= 0.00D+00
 Coeff-Com: -0.155D-03 0.368D-03 0.187D-02 0.411D-02 0.377D-02-0.208D-01
 Coeff-Com: -0.933D-01-0.636D-01 0.403D+00 0.764D+00
 Coeff:     -0.155D-03 0.368D-03 0.187D-02 0.411D-02 0.377D-02-0.208D-01
 Coeff:     -0.933D-01-0.636D-01 0.403D+00 0.764D+00
 Gap=     0.133 Goal=   None    Shift=    0.000
 RMSDP=6.14D-07 MaxDP=1.08D-04 DE=-9.63D-07 OVMax= 5.95D-04

 Cycle  11  Pass 1  IDiag  1:
 RMSU=  2.74D-07    CP:  9.75D-01  1.34D+00  9.51D-01  8.27D-01  1.03D+00
                    CP:  1.29D+00  1.51D+00  1.43D+00  1.55D+00  1.25D+00
 E= -2057.54688644945     Delta-E=       -0.000000240072 Rises=F Damp=F
 DIIS: error= 2.14D-06 at cycle  11 NSaved=  11.
 NSaved=11 IEnMin=11 EnMin= -2057.54688644945     IErMin=11 ErrMin= 2.14D-06
 ErrMax= 2.14D-06  0.00D+00 EMaxC= 1.00D-01 BMatC= 1.28D-08 BMatP= 7.06D-08
 IDIUse=1 WtCom= 1.00D+00 WtEn= 0.00D+00
 Coeff-Com: -0.462D-04 0.834D-04 0.729D-03 0.197D-02 0.439D-02 0.537D-03
 Coeff-Com: -0.261D-01-0.806D-01 0.244D-02 0.305D+00 0.792D+00
 Coeff:     -0.462D-04 0.834D-04 0.729D-03 0.197D-02 0.439D-02 0.537D-03
 Coeff:     -0.261D-01-0.806D-01 0.244D-02 0.305D+00 0.792D+00
 Gap=     0.133 Goal=   None    Shift=    0.000
 RMSDP=2.96D-07 MaxDP=2.60D-05 DE=-2.40D-07 OVMax= 3.02D-04

 Cycle  12  Pass 1  IDiag  1:
 RMSU=  1.30D-07    CP:  9.75D-01  1.34D+00  9.51D-01  8.28D-01  1.03D+00
                    CP:  1.29D+00  1.52D+00  1.46D+00  1.66D+00  1.44D+00
                    CP:  1.21D+00
 E= -2057.54688650087     Delta-E=       -0.000000051413 Rises=F Damp=F
 DIIS: error= 9.32D-07 at cycle  12 NSaved=  12.
 NSaved=12 IEnMin=12 EnMin= -2057.54688650087     IErMin=12 ErrMin= 9.32D-07
 ErrMax= 9.32D-07  0.00D+00 EMaxC= 1.00D-01 BMatC= 3.52D-09 BMatP= 1.28D-08
 IDIUse=1 WtCom= 1.00D+00 WtEn= 0.00D+00
 Coeff-Com:  0.202D-04-0.569D-04-0.163D-03-0.209D-03 0.810D-03 0.534D-02
 Coeff-Com:  0.142D-01-0.197D-01-0.101D+00-0.801D-01 0.336D+00 0.846D+00
 Coeff:      0.202D-04-0.569D-04-0.163D-03-0.209D-03 0.810D-03 0.534D-02
 Coeff:      0.142D-01-0.197D-01-0.101D+00-0.801D-01 0.336D+00 0.846D+00
 Gap=     0.133 Goal=   None    Shift=    0.000
 RMSDP=1.63D-07 MaxDP=1.91D-05 DE=-5.14D-08 OVMax= 1.63D-04

 Cycle  13  Pass 1  IDiag  1:
 RMSU=  6.28D-08    CP:  9.75D-01  1.34D+00  9.51D-01  8.27D-01  1.03D+00
                    CP:  1.29D+00  1.53D+00  1.47D+00  1.72D+00  1.56D+00
                    CP:  1.48D+00  1.27D+00
 E= -2057.54688651494     Delta-E=       -0.000000014072 Rises=F Damp=F
 DIIS: error= 6.49D-07 at cycle  13 NSaved=  13.
 NSaved=13 IEnMin=13 EnMin= -2057.54688651494     IErMin=13 ErrMin= 6.49D-07
 ErrMax= 6.49D-07  0.00D+00 EMaxC= 1.00D-01 BMatC= 8.53D-10 BMatP= 3.52D-09
 IDIUse=1 WtCom= 1.00D+00 WtEn= 0.00D+00
 Coeff-Com:  0.199D-04-0.458D-04-0.237D-03-0.536D-03-0.569D-03 0.254D-02
 Coeff-Com:  0.134D-01 0.812D-02-0.457D-01-0.108D+00-0.196D-01 0.406D+00
 Coeff-Com:  0.744D+00
 Coeff:      0.199D-04-0.458D-04-0.237D-03-0.536D-03-0.569D-03 0.254D-02
 Coeff:      0.134D-01 0.812D-02-0.457D-01-0.108D+00-0.196D-01 0.406D+00
 Coeff:      0.744D+00
 Gap=     0.133 Goal=   None    Shift=    0.000
 RMSDP=6.02D-08 MaxDP=6.65D-06 DE=-1.41D-08 OVMax= 5.54D-05

 Cycle  14  Pass 1  IDiag  1:
 RMSU=  2.92D-08    CP:  9.75D-01  1.34D+00  9.51D-01  8.27D-01  1.03D+00
                    CP:  1.29D+00  1.53D+00  1.47D+00  1.74D+00  1.60D+00
                    CP:  1.57D+00  1.48D+00  1.15D+00
 E= -2057.54688651686     Delta-E=       -0.000000001917 Rises=F Damp=F
 DIIS: error= 3.95D-07 at cycle  14 NSaved=  14.
 NSaved=14 IEnMin=14 EnMin= -2057.54688651686     IErMin=14 ErrMin= 3.95D-07
 ErrMax= 3.95D-07  0.00D+00 EMaxC= 1.00D-01 BMatC= 2.00D-10 BMatP= 8.53D-10
 IDIUse=1 WtCom= 1.00D+00 WtEn= 0.00D+00
 Coeff-Com:  0.584D-05-0.117D-04-0.872D-04-0.234D-03-0.447D-03 0.174D-03
 Coeff-Com:  0.413D-02 0.723D-02-0.337D-02-0.392D-01-0.778D-01 0.455D-01
 Coeff-Com:  0.387D+00 0.677D+00
 Coeff:      0.584D-05-0.117D-04-0.872D-04-0.234D-03-0.447D-03 0.174D-03
 Coeff:      0.413D-02 0.723D-02-0.337D-02-0.392D-01-0.778D-01 0.455D-01
 Coeff:      0.387D+00 0.677D+00
 Gap=     0.133 Goal=   None    Shift=    0.000
 RMSDP=2.39D-08 MaxDP=2.37D-06 DE=-1.92D-09 OVMax= 1.96D-05

 Cycle  15  Pass 1  IDiag  1:
 RMSU=  1.21D-08    CP:  9.75D-01  1.34D+00  9.51D-01  8.28D-01  1.03D+00
                    CP:  1.29D+00  1.53D+00  1.47D+00  1.74D+00  1.61D+00
                    CP:  1.60D+00  1.55D+00  1.34D+00  9.84D-01
 E= -2057.54688651791     Delta-E=       -0.000000001055 Rises=F Damp=F
 DIIS: error= 1.60D-07 at cycle  15 NSaved=  15.
 NSaved=15 IEnMin=15 EnMin= -2057.54688651791     IErMin=15 ErrMin= 1.60D-07
 ErrMax= 1.60D-07  0.00D+00 EMaxC= 1.00D-01 BMatC= 3.72D-11 BMatP= 2.00D-10
 IDIUse=1 WtCom= 1.00D+00 WtEn= 0.00D+00
 Coeff-Com: -0.732D-06 0.256D-05-0.109D-05-0.246D-04-0.131D-03-0.414D-03
 Coeff-Com: -0.281D-03 0.211D-02 0.681D-02 0.288D-03-0.388D-01-0.528D-01
 Coeff-Com:  0.562D-01 0.352D+00 0.675D+00
 Coeff:     -0.732D-06 0.256D-05-0.109D-05-0.246D-04-0.131D-03-0.414D-03
 Coeff:     -0.281D-03 0.211D-02 0.681D-02 0.288D-03-0.388D-01-0.528D-01
 Coeff:      0.562D-01 0.352D+00 0.675D+00
 Gap=     0.133 Goal=   None    Shift=    0.000
 RMSDP=9.41D-09 MaxDP=7.83D-07 DE=-1.06D-09 OVMax= 6.57D-06

 Error on total polarization charges =  0.02246
 SCF Done:  E(RM062X) =  -2057.54688652     A.U. after   15 cycles
            NFock= 15  Conv=0.94D-08     -V/T= 2.0054
 KE= 2.046583254989D+03 PE=-1.480058834438D+04 EE= 5.695495171192D+03
 Leave Link  502 at Fri Oct 24 22:56:30 2025, MaxMem= 30870077440 cpu:           57115.1 elap:             908.5
 (Enter /public/software/gauss/g16/l601.exe)
 Copying SCF densities to generalized density rwf, IOpCl= 0 IROHF=0.

 **********************************************************************

            Population analysis using the SCF density.

 **********************************************************************

 Orbital symmetries:
       Occupied  (A) (A) (A) (A) (A) (A) (A) (A) (A) (A) (A) (A)
                 (A) (A) (A) (A) (A) (A) (A) (A) (A) (A) (A) (A)
                 (A) (A) (A) (A) (A) (A) (A) (A) (A) (A) (A) (A)
                 (A) (A) (A) (A) (A) (A) (A) (A) (A) (A) (A) (A)
                 (A) (A) (A) (A) (A) (A) (A) (A) (A) (A) (A) (A)
                 (A) (A) (A) (A) (A) (A) (A) (A) (A) (A) (A) (A)
                 (A) (A) (A) (A) (A) (A) (A) (A) (A) (A) (A) (A)
                 (A) (A) (A) (A) (A) (A) (A) (A) (A) (A) (A) (A)
                 (A) (A) (A) (A) (A) (A) (A) (A) (A) (A) (A) (A)
                 (A) (A) (A) (A) (A) (A) (A) (A) (A) (A) (A) (A)
                 (A) (A) (A) (A) (A) (A) (A) (A) (A) (A) (A) (A)
                 (A) (A) (A) (A) (A) (A) (A) (A) (A) (A) (A) (A)
                 (A) (A) (A) (A) (A) (A) (A) (A) (A) (A) (A) (A)
                 (A) (A)
       Virtual   (A) (A) (A) (A) (A) (A) (A) (A) (A) (A) (A) (A)
                 (A) (A) (A) (A) (A) (A) (A) (A) (A) (A) (A) (A)
                 (A) (A) (A) (A) (A) (A) (A) (A) (A) (A) (A) (A)
                 (A) (A) (A) (A) (A) (A) (A) (A) (A) (A) (A) (A)
                 (A) (A) (A) (A) (A) (A) (A) (A) (A) (A) (A) (A)
                 (A) (A) (A) (A) (A) (A) (A) (A) (A) (A) (A) (A)
                 (A) (A) (A) (A) (A) (A) (A) (A) (A) (A) (A) (A)
                 (A) (A) (A) (A) (A) (A) (A) (A) (A) (A) (A) (A)
                 (A) (A) (A) (A) (A) (A) (A) (A) (A) (A) (A) (A)
                 (A) (A) (A) (A) (A) (A) (A) (A) (A) (A) (A) (A)
                 (A) (A) (A) (A) (A) (A) (A) (A) (A) (A) (A) (A)
                 (A) (A) (A) (A) (A) (A) (A) (A) (A) (A) (A) (A)
                 (A) (A) (A) (A) (A) (A) (A) (A) (A) (A) (A) (A)
                 (A) (A) (A) (A) (A) (A) (A) (A) (A) (A) (A) (A)
                 (A) (A) (A) (A) (A) (A) (A) (A) (A) (A) (A) (A)
                 (A) (A) (A) (A) (A) (A) (A) (A) (A) (A) (A) (A)
                 (A) (A) (A) (A) (A) (A) (A) (A) (A) (A) (A) (A)
                 (A) (A) (A) (A) (A) (A) (A) (A) (A) (A) (A) (A)
                 (A) (A) (A) (A) (A) (A) (A) (A) (A) (A) (A) (A)
                 (A) (A) (A) (A) (A) (A) (A) (A) (A) (A) (A) (A)
                 (A) (A) (A) (A) (A) (A) (A) (A) (A) (A) (A) (A)
                 (A) (A) (A) (A) (A) (A) (A) (A) (A) (A) (A) (A)
                 (A) (A) (A) (A) (A) (A) (A) (A) (A) (A) (A) (A)
                 (A) (A) (A) (A) (A) (A) (A) (A) (A) (A) (A) (A)
                 (A) (A) (A) (A) (A) (A) (A) (A) (A) (A) (A) (A)
                 (A) (A) (A) (A) (A) (A) (A) (A) (A) (A) (A) (A)
                 (A) (A) (A) (A) (A) (A) (A) (A) (A) (A) (A) (A)
                 (A) (A) (A) (A) (A) (A) (A) (A) (A) (A) (A) (A)
                 (A) (A) (A) (A) (A) (A) (A) (A) (A) (A) (A) (A)
                 (A) (A) (A) (A) (A) (A) (A) (A) (A) (A) (A) (A)
                 (A) (A) (A) (A) (A) (A) (A) (A) (A) (A) (A) (A)
                 (A) (A) (A) (A) (A) (A) (A) (A) (A) (A) (A) (A)
                 (A) (A) (A) (A) (A) (A) (A) (A) (A) (A) (A) (A)
                 (A) (A) (A) (A) (A) (A) (A) (A) (A) (A) (A) (A)
                 (A) (A) (A) (A) (A) (A) (A) (A) (A) (A) (A) (A)
                 (A) (A) (A) (A) (A) (A) (A) (A) (A) (A) (A) (A)
                 (A) (A) (A) (A) (A) (A) (A) (A) (A) (A) (A) (A)
                 (A) (A) (A) (A) (A) (A) (A) (A) (A) (A) (A) (A)
                 (A) (A) (A) (A) (A) (A) (A) (A) (A) (A) (A) (A)
                 (A) (A) (A) (A) (A) (A) (A) (A) (A) (A) (A) (A)
                 (A) (A) (A) (A) (A) (A) (A) (A) (A) (A) (A) (A)
                 (A) (A) (A) (A) (A) (A) (A) (A) (A) (A) (A) (A)
                 (A) (A) (A) (A) (A) (A) (A) (A) (A) (A) (A) (A)
                 (A) (A) (A) (A) (A) (A) (A) (A) (A) (A) (A) (A)
                 (A) (A) (A) (A) (A) (A) (A) (A) (A) (A) (A) (A)
                 (A) (A) (A) (A) (A) (A) (A) (A) (A) (A) (A) (A)
                 (A) (A) (A) (A) (A) (A) (A) (A) (A) (A) (A) (A)
                 (A) (A) (A) (A) (A) (A) (A) (A) (A) (A) (A) (A)
                 (A) (A) (A) (A) (A) (A) (A) (A) (A) (A) (A) (A)
                 (A) (A) (A) (A) (A) (A) (A) (A) (A) (A) (A) (A)
                 (A) (A) (A) (A) (A) (A) (A) (A) (A) (A) (A) (A)
                 (A) (A) (A) (A) (A) (A) (A) (A) (A) (A) (A) (A)
                 (A) (A) (A) (A) (A) (A) (A) (A) (A) (A) (A) (A)
                 (A) (A) (A) (A) (A) (A) (A) (A) (A) (A) (A) (A)
                 (A) (A) (A) (A) (A) (A) (A) (A) (A) (A) (A) (A)
                 (A) (A) (A) (A) (A) (A) (A) (A) (A) (A) (A) (A)
                 (A) (A) (A) (A) (A) (A) (A) (A) (A) (A) (A) (A)
                 (A) (A) (A) (A) (A) (A) (A) (A) (A) (A) (A) (A)
                 (A) (A) (A) (A) (A) (A) (A) (A) (A) (A) (A) (A)
                 (A) (A) (A) (A) (A) (A) (A) (A) (A) (A) (A) (A)
                 (A) (A) (A) (A) (A) (A) (A) (A) (A) (A) (A) (A)
                 (A) (A) (A) (A) (A) (A) (A) (A) (A) (A) (A) (A)
                 (A) (A) (A) (A) (A) (A) (A) (A) (A) (A) (A) (A)
                 (A) (A) (A) (A) (A) (A) (A) (A) (A) (A) (A) (A)
                 (A) (A) (A) (A) (A) (A) (A) (A) (A) (A) (A) (A)
                 (A) (A) (A) (A) (A) (A) (A) (A) (A) (A) (A) (A)
                 (A) (A) (A) (A) (A) (A) (A) (A) (A) (A) (A) (A)
                 (A) (A) (A) (A) (A) (A) (A) (A) (A) (A) (A) (A)
                 (A) (A) (A) (A) (A) (A) (A) (A) (A) (A) (A) (A)
                 (A) (A) (A) (A) (A) (A) (A) (A) (A) (A) (A) (A)
                 (A) (A) (A) (A) (A) (A) (A) (A) (A) (A) (A) (A)
                 (A) (A) (A) (A) (A) (A) (A) (A) (A) (A) (A) (A)
                 (A) (A) (A) (A) (A) (A) (A) (A) (A) (A) (A) (A)
                 (A) (A) (A) (A) (A) (A) (A) (A) (A) (A) (A) (A)
                 (A) (A) (A) (A) (A) (A) (A) (A) (A) (A) (A) (A)
                 (A) (A) (A) (A) (A) (A) (A) (A) (A) (A) (A) (A)
                 (A) (A) (A) (A) (A) (A) (A) (A) (A) (A) (A) (A)
                 (A) (A) (A) (A) (A) (A) (A) (A) (A) (A) (A) (A)
                 (A) (A) (A) (A) (A) (A) (A) (A) (A) (A) (A) (A)
                 (A) (A) (A) (A) (A) (A) (A) (A) (A) (A) (A) (A)
                 (A) (A) (A) (A) (A) (A) (A) (A) (A) (A) (A) (A)
                 (A) (A) (A) (A) (A) (A) (A) (A) (A) (A) (A) (A)
                 (A) (A) (A) (A) (A) (A) (A) (A) (A) (A) (A) (A)
                 (A) (A) (A) (A) (A) (A) (A) (A) (A) (A) (A) (A)
                 (A) (A) (A) (A) (A) (A) (A) (A) (A) (A) (A) (A)
                 (A) (A) (A) (A) (A) (A) (A) (A) (A) (A) (A) (A)
                 (A) (A) (A) (A) (A) (A) (A) (A) (A) (A) (A) (A)
                 (A) (A) (A) (A) (A) (A) (A) (A) (A) (A) (A) (A)
                 (A) (A) (A) (A) (A) (A) (A) (A) (A) (A) (A) (A)
                 (A) (A) (A) (A) (A) (A) (A) (A) (A) (A) (A) (A)
                 (A) (A) (A) (A) (A) (A) (A) (A) (A) (A) (A) (A)
                 (A) (A) (A) (A) (A) (A) (A) (A) (A) (A) (A) (A)
                 (A) (A) (A) (A) (A) (A) (A) (A) (A) (A) (A) (A)
                 (A) (A) (A) (A) (A) (A) (A) (A) (A) (A) (A) (A)
                 (A) (A) (A) (A) (A) (A) (A) (A) (A) (A) (A) (A)
                 (A) (A) (A) (A) (A) (A) (A) (A) (A) (A) (A) (A)
                 (A) (A) (A) (A) (A) (A) (A) (A) (A) (A) (A) (A)
                 (A) (A) (A) (A) (A) (A) (A) (A) (A) (A) (A) (A)
                 (A) (A) (A) (A) (A) (A) (A) (A) (A) (A) (A) (A)
                 (A) (A) (A) (A) (A) (A) (A) (A) (A) (A) (A) (A)
                 (A) (A) (A) (A) (A) (A) (A) (A) (A) (A) (A) (A)
                 (A) (A) (A) (A) (A) (A) (A) (A) (A) (A) (A) (A)
                 (A) (A) (A) (A) (A) (A) (A) (A) (A) (A) (A) (A)
                 (A) (A) (A) (A) (A) (A) (A) (A) (A) (A) (A) (A)
                 (A) (A) (A) (A) (A) (A) (A) (A) (A) (A) (A) (A)
                 (A) (A) (A) (A) (A) (A) (A) (A) (A) (A) (A) (A)
                 (A) (A) (A) (A) (A) (A) (A) (A) (A) (A) (A) (A)
                 (A) (A) (A) (A) (A) (A) (A) (A) (A) (A) (A) (A)
                 (A) (A) (A) (A) (A) (A) (A) (A) (A) (A) (A) (A)
                 (A) (A) (A) (A) (A) (A) (A) (A) (A) (A) (A) (A)
                 (A) (A) (A) (A) (A) (A) (A) (A) (A) (A) (A) (A)
                 (A) (A) (A) (A) (A) (A) (A) (A) (A) (A) (A) (A)
                 (A) (A) (A) (A) (A) (A) (A) (A) (A) (A) (A) (A)
                 (A) (A) (A) (A) (A) (A) (A) (A) (A) (A) (A) (A)
                 (A) (A) (A) (A) (A) (A) (A) (A) (A) (A) (A) (A)
                 (A) (A) (A) (A) (A) (A) (A) (A) (A) (A) (A) (A)
                 (A) (A) (A) (A) (A) (A) (A) (A) (A) (A) (A) (A)
                 (A) (A) (A) (A) (A) (A) (A) (A) (A) (A) (A) (A)
                 (A) (A) (A) (A) (A) (A) (A) (A) (A) (A) (A) (A)
                 (A) (A) (A) (A) (A) (A) (A) (A) (A) (A) (A) (A)
                 (A) (A) (A) (A) (A) (A) (A) (A) (A) (A) (A) (A)
                 (A) (A) (A) (A) (A) (A) (A) (A) (A) (A) (A) (A)
                 (A) (A) (A) (A) (A) (A) (A) (A) (A) (A) (A) (A)
                 (A) (A) (A) (A) (A) (A) (A) (A) (A) (A) (A) (A)
                 (A) (A) (A) (A) (A) (A) (A) (A) (A) (A) (A) (A)
                 (A) (A) (A) (A) (A) (A) (A) (A) (A) (A) (A) (A)
                 (A) (A) (A) (A) (A) (A) (A) (A) (A) (A) (A) (A)
                 (A) (A) (A) (A) (A) (A) (A) (A) (A) (A) (A) (A)
                 (A) (A) (A) (A) (A) (A) (A) (A) (A) (A) (A) (A)
                 (A) (A) (A) (A) (A) (A) (A) (A) (A) (A) (A) (A)
                 (A) (A) (A) (A) (A) (A) (A) (A) (A) (A) (A) (A)
                 (A) (A) (A) (A) (A) (A) (A) (A) (A) (A) (A) (A)
                 (A) (A) (A) (A) (A) (A) (A) (A) (A) (A) (A) (A)
                 (A) (A) (A) (A) (A) (A) (A) (A) (A) (A) (A) (A)
                 (A) (A) (A) (A) (A) (A) (A) (A) (A) (A) (A) (A)
                 (A) (A) (A) (A) (A) (A) (A) (A) (A) (A) (A) (A)
                 (A) (A) (A) (A) (A) (A) (A) (A) (A) (A) (A)
 The electronic state is 1-A.
 Alpha  occ. eigenvalues --  -25.20353 -25.20242 -19.70244 -19.67704 -19.67688
 Alpha  occ. eigenvalues --  -19.60831 -15.01230 -14.91058 -14.78376 -14.77954
 Alpha  occ. eigenvalues --  -10.64076 -10.63300 -10.62067 -10.61008 -10.60483
 Alpha  occ. eigenvalues --  -10.60271 -10.59835 -10.59665 -10.59023 -10.58793
 Alpha  occ. eigenvalues --  -10.58565 -10.58247 -10.58183 -10.57931 -10.57603
 Alpha  occ. eigenvalues --  -10.57324 -10.57294 -10.57203 -10.57013 -10.56878
 Alpha  occ. eigenvalues --  -10.56870 -10.56768 -10.56766 -10.56429 -10.56166
 Alpha  occ. eigenvalues --  -10.55612 -10.55101 -10.54698 -10.54394 -10.54223
 Alpha  occ. eigenvalues --  -10.54213 -10.54096 -10.53934 -10.53639  -7.12956
 Alpha  occ. eigenvalues --   -1.36513  -1.32187  -1.28933  -1.23808  -1.22952
 Alpha  occ. eigenvalues --   -1.18013  -1.10483  -1.08552  -1.00961  -1.00557
 Alpha  occ. eigenvalues --   -0.97644  -0.97403  -0.94809  -0.93527  -0.91597
 Alpha  occ. eigenvalues --   -0.91025  -0.90189  -0.89245  -0.88237  -0.87394
 Alpha  occ. eigenvalues --   -0.86844  -0.85747  -0.83854  -0.82670  -0.81021
 Alpha  occ. eigenvalues --   -0.80261  -0.78661  -0.76694  -0.76574  -0.74421
 Alpha  occ. eigenvalues --   -0.73964  -0.72025  -0.71856  -0.70225  -0.69686
 Alpha  occ. eigenvalues --   -0.67926  -0.67419  -0.66867  -0.66168  -0.65036
 Alpha  occ. eigenvalues --   -0.64253  -0.63281  -0.63167  -0.62688  -0.61832
 Alpha  occ. eigenvalues --   -0.61026  -0.60789  -0.60022  -0.59564  -0.58776
 Alpha  occ. eigenvalues --   -0.58375  -0.58031  -0.56978  -0.56528  -0.56373
 Alpha  occ. eigenvalues --   -0.55777  -0.54590  -0.54163  -0.53622  -0.53425
 Alpha  occ. eigenvalues --   -0.53007  -0.52825  -0.52505  -0.52029  -0.51751
 Alpha  occ. eigenvalues --   -0.51580  -0.51039  -0.50846  -0.50305  -0.49636
 Alpha  occ. eigenvalues --   -0.49304  -0.49269  -0.49086  -0.48890  -0.48591
 Alpha  occ. eigenvalues --   -0.48207  -0.47787  -0.47657  -0.47313  -0.47064
 Alpha  occ. eigenvalues --   -0.46890  -0.46496  -0.46235  -0.45799  -0.45746
 Alpha  occ. eigenvalues --   -0.45164  -0.45074  -0.43991  -0.43466  -0.43314
 Alpha  occ. eigenvalues --   -0.43010  -0.42840  -0.42648  -0.42101  -0.41160
 Alpha  occ. eigenvalues --   -0.40260  -0.39642  -0.39552  -0.39477  -0.39152
 Alpha  occ. eigenvalues --   -0.38763  -0.38728  -0.35969  -0.35217  -0.33445
 Alpha  occ. eigenvalues --   -0.33174  -0.32714  -0.32369  -0.32082  -0.30946
 Alpha  occ. eigenvalues --   -0.30091  -0.27168  -0.22922
 Alpha virt. eigenvalues --   -0.09655  -0.07729  -0.03653  -0.03410  -0.00612
 Alpha virt. eigenvalues --    0.00131   0.01236   0.02329   0.05418   0.05609
 Alpha virt. eigenvalues --    0.05963   0.06594   0.07094   0.07635   0.08240
 Alpha virt. eigenvalues --    0.08639   0.08884   0.09073   0.09390   0.09621
 Alpha virt. eigenvalues --    0.09853   0.10114   0.10487   0.10860   0.10976
 Alpha virt. eigenvalues --    0.11400   0.11886   0.12003   0.12568   0.12907
 Alpha virt. eigenvalues --    0.13054   0.13435   0.13482   0.13744   0.13909
 Alpha virt. eigenvalues --    0.14067   0.14616   0.14723   0.14920   0.15357
 Alpha virt. eigenvalues --    0.15820   0.15945   0.16116   0.16285   0.16581
 Alpha virt. eigenvalues --    0.16754   0.17247   0.17381   0.17788   0.17907
 Alpha virt. eigenvalues --    0.18014   0.18187   0.18501   0.18798   0.19009
 Alpha virt. eigenvalues --    0.19293   0.19571   0.19887   0.19968   0.20063
 Alpha virt. eigenvalues --    0.20834   0.21423   0.21547   0.21807   0.21995
 Alpha virt. eigenvalues --    0.22190   0.22405   0.22582   0.22736   0.22854
 Alpha virt. eigenvalues --    0.23095   0.23581   0.23701   0.24051   0.24192
 Alpha virt. eigenvalues --    0.24492   0.24674   0.24815   0.25069   0.25328
 Alpha virt. eigenvalues --    0.25650   0.25776   0.25951   0.26226   0.26639
 Alpha virt. eigenvalues --    0.26835   0.27204   0.27368   0.27504   0.27918
 Alpha virt. eigenvalues --    0.27951   0.28413   0.28634   0.28846   0.29071
 Alpha virt. eigenvalues --    0.29413   0.29608   0.30055   0.30128   0.30898
 Alpha virt. eigenvalues --    0.31027   0.31167   0.31402   0.31580   0.31779
 Alpha virt. eigenvalues --    0.32374   0.32784   0.32902   0.33099   0.33255
 Alpha virt. eigenvalues --    0.33280   0.33672   0.33705   0.34052   0.34345
 Alpha virt. eigenvalues --    0.34485   0.34686   0.35008   0.35227   0.35453
 Alpha virt. eigenvalues --    0.35734   0.35893   0.35999   0.36307   0.36630
 Alpha virt. eigenvalues --    0.37013   0.37146   0.37397   0.37488   0.37693
 Alpha virt. eigenvalues --    0.38198   0.38319   0.38417   0.38921   0.39007
 Alpha virt. eigenvalues --    0.39193   0.39326   0.39711   0.40125   0.40315
 Alpha virt. eigenvalues --    0.40616   0.40928   0.41092   0.41234   0.41445
 Alpha virt. eigenvalues --    0.41880   0.41971   0.42189   0.42650   0.42764
 Alpha virt. eigenvalues --    0.42914   0.43146   0.43449   0.43539   0.43837
 Alpha virt. eigenvalues --    0.43899   0.44245   0.44326   0.44938   0.45023
 Alpha virt. eigenvalues --    0.45090   0.45350   0.45635   0.45846   0.45963
 Alpha virt. eigenvalues --    0.46359   0.46740   0.46875   0.47354   0.47486
 Alpha virt. eigenvalues --    0.47619   0.47769   0.47820   0.48056   0.48155
 Alpha virt. eigenvalues --    0.48251   0.48790   0.48946   0.49104   0.49291
 Alpha virt. eigenvalues --    0.49339   0.49680   0.49862   0.50078   0.50402
 Alpha virt. eigenvalues --    0.50508   0.50685   0.50950   0.51059   0.51391
 Alpha virt. eigenvalues --    0.51645   0.51997   0.52040   0.52386   0.52516
 Alpha virt. eigenvalues --    0.52783   0.52846   0.53084   0.53389   0.53509
 Alpha virt. eigenvalues --    0.53708   0.54000   0.54185   0.54496   0.54764
 Alpha virt. eigenvalues --    0.55074   0.55131   0.55564   0.55991   0.56267
 Alpha virt. eigenvalues --    0.56514   0.56854   0.57014   0.57382   0.57530
 Alpha virt. eigenvalues --    0.58104   0.58236   0.58368   0.58588   0.58909
 Alpha virt. eigenvalues --    0.59107   0.59449   0.59632   0.59963   0.60349
 Alpha virt. eigenvalues --    0.60685   0.60952   0.61164   0.61343   0.61867
 Alpha virt. eigenvalues --    0.62448   0.62515   0.63004   0.63391   0.63545
 Alpha virt. eigenvalues --    0.63636   0.64123   0.64424   0.64540   0.65053
 Alpha virt. eigenvalues --    0.65241   0.65272   0.65500   0.65869   0.66287
 Alpha virt. eigenvalues --    0.66561   0.66670   0.66791   0.67250   0.67426
 Alpha virt. eigenvalues --    0.67474   0.68019   0.68279   0.68393   0.68555
 Alpha virt. eigenvalues --    0.68800   0.69357   0.69610   0.70040   0.70336
 Alpha virt. eigenvalues --    0.70453   0.70779   0.70926   0.71367   0.71395
 Alpha virt. eigenvalues --    0.71471   0.71885   0.71969   0.72374   0.72613
 Alpha virt. eigenvalues --    0.72945   0.73033   0.73243   0.73334   0.73523
 Alpha virt. eigenvalues --    0.73873   0.73955   0.74242   0.74560   0.74797
 Alpha virt. eigenvalues --    0.75095   0.75537   0.76118   0.76506   0.76808
 Alpha virt. eigenvalues --    0.77229   0.77460   0.77651   0.78033   0.78218
 Alpha virt. eigenvalues --    0.78610   0.78908   0.79376   0.79736   0.79863
 Alpha virt. eigenvalues --    0.80538   0.80765   0.80916   0.81431   0.81786
 Alpha virt. eigenvalues --    0.81872   0.82267   0.82590   0.82823   0.83076
 Alpha virt. eigenvalues --    0.83371   0.84013   0.84359   0.84618   0.85063
 Alpha virt. eigenvalues --    0.85097   0.85601   0.85839   0.85875   0.86299
 Alpha virt. eigenvalues --    0.86681   0.86797   0.87192   0.87646   0.87654
 Alpha virt. eigenvalues --    0.88057   0.88301   0.88853   0.89225   0.89440
 Alpha virt. eigenvalues --    0.89707   0.89958   0.90327   0.90622   0.91290
 Alpha virt. eigenvalues --    0.91696   0.91834   0.92309   0.92657   0.93457
 Alpha virt. eigenvalues --    0.93602   0.93948   0.94084   0.94479   0.94891
 Alpha virt. eigenvalues --    0.95227   0.95846   0.95978   0.96488   0.96880
 Alpha virt. eigenvalues --    0.97277   0.97801   0.98005   0.98179   0.98506
 Alpha virt. eigenvalues --    0.98858   0.99289   0.99323   0.99607   0.99884
 Alpha virt. eigenvalues --    1.00007   1.00364   1.00643   1.00867   1.00928
 Alpha virt. eigenvalues --    1.01170   1.01420   1.01907   1.02219   1.02420
 Alpha virt. eigenvalues --    1.02485   1.02729   1.03646   1.03785   1.04237
 Alpha virt. eigenvalues --    1.04335   1.04728   1.04797   1.05216   1.05926
 Alpha virt. eigenvalues --    1.06215   1.07059   1.07594   1.07694   1.08087
 Alpha virt. eigenvalues --    1.08159   1.08499   1.08796   1.08971   1.09036
 Alpha virt. eigenvalues --    1.09196   1.09459   1.09869   1.10240   1.10524
 Alpha virt. eigenvalues --    1.10710   1.10935   1.11265   1.11524   1.11771
 Alpha virt. eigenvalues --    1.12046   1.12276   1.12743   1.12907   1.13232
 Alpha virt. eigenvalues --    1.13532   1.14130   1.14260   1.14533   1.15003
 Alpha virt. eigenvalues --    1.15548   1.15703   1.16182   1.16278   1.16773
 Alpha virt. eigenvalues --    1.17094   1.17236   1.17326   1.18399   1.18676
 Alpha virt. eigenvalues --    1.18817   1.19169   1.19508   1.19797   1.20134
 Alpha virt. eigenvalues --    1.20372   1.20974   1.21475   1.22128   1.22231
 Alpha virt. eigenvalues --    1.22548   1.22768   1.23254   1.23455   1.23511
 Alpha virt. eigenvalues --    1.23962   1.24313   1.24497   1.24842   1.24867
 Alpha virt. eigenvalues --    1.25434   1.26057   1.26227   1.26652   1.27030
 Alpha virt. eigenvalues --    1.27149   1.27816   1.27995   1.28526   1.28760
 Alpha virt. eigenvalues --    1.28787   1.28805   1.29076   1.29591   1.29980
 Alpha virt. eigenvalues --    1.30418   1.30656   1.30864   1.31425   1.31734
 Alpha virt. eigenvalues --    1.31810   1.32300   1.32379   1.32550   1.32981
 Alpha virt. eigenvalues --    1.33181   1.33721   1.33921   1.34281   1.34523
 Alpha virt. eigenvalues --    1.34755   1.35384   1.35642   1.36311   1.36546
 Alpha virt. eigenvalues --    1.36823   1.36972   1.37338   1.37953   1.38075
 Alpha virt. eigenvalues --    1.38613   1.39016   1.39317   1.39725   1.40210
 Alpha virt. eigenvalues --    1.40427   1.40845   1.41548   1.41890   1.42303
 Alpha virt. eigenvalues --    1.42536   1.42717   1.43207   1.43497   1.43676
 Alpha virt. eigenvalues --    1.44251   1.44720   1.45004   1.45318   1.45730
 Alpha virt. eigenvalues --    1.46035   1.46196   1.46427   1.46642   1.47114
 Alpha virt. eigenvalues --    1.47185   1.47691   1.48011   1.48250   1.48496
 Alpha virt. eigenvalues --    1.48966   1.49177   1.49607   1.49872   1.50021
 Alpha virt. eigenvalues --    1.50369   1.50644   1.51096   1.51153   1.51939
 Alpha virt. eigenvalues --    1.52074   1.52277   1.52301   1.52599   1.53156
 Alpha virt. eigenvalues --    1.53286   1.53798   1.53901   1.54382   1.54425
 Alpha virt. eigenvalues --    1.54672   1.54786   1.55290   1.55544   1.56211
 Alpha virt. eigenvalues --    1.56769   1.57061   1.57372   1.57487   1.57648
 Alpha virt. eigenvalues --    1.57717   1.58297   1.58752   1.59113   1.59503
 Alpha virt. eigenvalues --    1.59802   1.60127   1.60240   1.60611   1.60914
 Alpha virt. eigenvalues --    1.61109   1.61543   1.61813   1.62379   1.62937
 Alpha virt. eigenvalues --    1.63116   1.63348   1.63562   1.63941   1.64080
 Alpha virt. eigenvalues --    1.64487   1.64725   1.65050   1.65539   1.66016
 Alpha virt. eigenvalues --    1.66169   1.66351   1.66696   1.66951   1.67217
 Alpha virt. eigenvalues --    1.67559   1.67796   1.68193   1.68643   1.68979
 Alpha virt. eigenvalues --    1.69174   1.69660   1.70214   1.70624   1.70904
 Alpha virt. eigenvalues --    1.71064   1.71274   1.71784   1.72196   1.72521
 Alpha virt. eigenvalues --    1.72668   1.73151   1.73661   1.74140   1.74835
 Alpha virt. eigenvalues --    1.75121   1.75463   1.75944   1.76751   1.76988
 Alpha virt. eigenvalues --    1.77206   1.77359   1.77374   1.77776   1.78356
 Alpha virt. eigenvalues --    1.79281   1.79713   1.80258   1.80832   1.81083
 Alpha virt. eigenvalues --    1.81254   1.81695   1.82214   1.82996   1.83165
 Alpha virt. eigenvalues --    1.83432   1.83567   1.84552   1.84707   1.84748
 Alpha virt. eigenvalues --    1.85254   1.85832   1.86101   1.86857   1.87266
 Alpha virt. eigenvalues --    1.87968   1.88100   1.88619   1.89148   1.90083
 Alpha virt. eigenvalues --    1.90227   1.91129   1.91994   1.92530   1.93542
 Alpha virt. eigenvalues --    1.93778   1.94463   1.94655   1.95263   1.95694
 Alpha virt. eigenvalues --    1.96505   1.97413   1.97876   1.98183   1.98641
 Alpha virt. eigenvalues --    1.98970   1.99378   1.99481   2.00064   2.00194
 Alpha virt. eigenvalues --    2.00517   2.01059   2.01349   2.01836   2.02204
 Alpha virt. eigenvalues --    2.02394   2.03741   2.04141   2.04631   2.05276
 Alpha virt. eigenvalues --    2.05454   2.06386   2.07277   2.07492   2.08072
 Alpha virt. eigenvalues --    2.08119   2.08555   2.08856   2.09833   2.09878
 Alpha virt. eigenvalues --    2.10233   2.10986   2.11508   2.11630   2.12596
 Alpha virt. eigenvalues --    2.13302   2.13837   2.13951   2.14404   2.14943
 Alpha virt. eigenvalues --    2.15342   2.15871   2.16394   2.17011   2.17511
 Alpha virt. eigenvalues --    2.18199   2.18788   2.19021   2.19554   2.20316
 Alpha virt. eigenvalues --    2.20366   2.21166   2.21495   2.22003   2.22699
 Alpha virt. eigenvalues --    2.22972   2.23513   2.24095   2.24290   2.25052
 Alpha virt. eigenvalues --    2.25965   2.26459   2.27354   2.27634   2.27906
 Alpha virt. eigenvalues --    2.28165   2.28826   2.29094   2.29921   2.30244
 Alpha virt. eigenvalues --    2.31039   2.32286   2.32458   2.33003   2.33263
 Alpha virt. eigenvalues --    2.33783   2.34218   2.34659   2.34900   2.35083
 Alpha virt. eigenvalues --    2.35456   2.36203   2.36382   2.37007   2.37772
 Alpha virt. eigenvalues --    2.38175   2.38304   2.38738   2.39086   2.40001
 Alpha virt. eigenvalues --    2.40346   2.40637   2.41019   2.42001   2.43633
 Alpha virt. eigenvalues --    2.44158   2.44984   2.46278   2.46994   2.47354
 Alpha virt. eigenvalues --    2.47882   2.48929   2.49318   2.49684   2.50510
 Alpha virt. eigenvalues --    2.50853   2.51349   2.51442   2.52308   2.53547
 Alpha virt. eigenvalues --    2.53955   2.54573   2.55388   2.55556   2.55707
 Alpha virt. eigenvalues --    2.56104   2.56483   2.56540   2.57273   2.57562
 Alpha virt. eigenvalues --    2.57910   2.58427   2.59233   2.59318   2.60627
 Alpha virt. eigenvalues --    2.60663   2.61097   2.61455   2.61588   2.62219
 Alpha virt. eigenvalues --    2.62520   2.63525   2.63878   2.64349   2.64497
 Alpha virt. eigenvalues --    2.64956   2.65310   2.66117   2.66312   2.66850
 Alpha virt. eigenvalues --    2.67341   2.67786   2.68469   2.68784   2.69377
 Alpha virt. eigenvalues --    2.69634   2.70038   2.70409   2.70945   2.71357
 Alpha virt. eigenvalues --    2.71887   2.72182   2.72342   2.72997   2.73327
 Alpha virt. eigenvalues --    2.73561   2.74009   2.74104   2.74448   2.74486
 Alpha virt. eigenvalues --    2.74906   2.75252   2.75574   2.75681   2.75883
 Alpha virt. eigenvalues --    2.76023   2.76454   2.76650   2.77040   2.77891
 Alpha virt. eigenvalues --    2.78085   2.78513   2.78654   2.79030   2.79104
 Alpha virt. eigenvalues --    2.79708   2.79977   2.80356   2.80923   2.80994
 Alpha virt. eigenvalues --    2.81305   2.81430   2.81904   2.82280   2.82443
 Alpha virt. eigenvalues --    2.82481   2.82652   2.83278   2.83537   2.83990
 Alpha virt. eigenvalues --    2.84158   2.84360   2.84708   2.85125   2.85552
 Alpha virt. eigenvalues --    2.85631   2.86023   2.86614   2.86734   2.87306
 Alpha virt. eigenvalues --    2.87460   2.87970   2.88195   2.88690   2.89068
 Alpha virt. eigenvalues --    2.89355   2.89425   2.89670   2.89933   2.90349
 Alpha virt. eigenvalues --    2.91267   2.91488   2.91834   2.92308   2.92673
 Alpha virt. eigenvalues --    2.92814   2.93122   2.93378   2.93806   2.94167
 Alpha virt. eigenvalues --    2.94452   2.94502   2.95139   2.95425   2.95612
 Alpha virt. eigenvalues --    2.95868   2.96049   2.96522   2.96567   2.96926
 Alpha virt. eigenvalues --    2.97219   2.97617   2.97809   2.97912   2.98240
 Alpha virt. eigenvalues --    2.98765   2.99110   2.99296   2.99784   3.00228
 Alpha virt. eigenvalues --    3.00703   3.01215   3.01407   3.01581   3.02239
 Alpha virt. eigenvalues --    3.02382   3.02810   3.02977   3.03040   3.03415
 Alpha virt. eigenvalues --    3.03571   3.03622   3.03917   3.04166   3.04383
 Alpha virt. eigenvalues --    3.04574   3.04693   3.04966   3.05338   3.05466
 Alpha virt. eigenvalues --    3.05538   3.05871   3.06124   3.06215   3.06795
 Alpha virt. eigenvalues --    3.07070   3.07442   3.07504   3.07853   3.07876
 Alpha virt. eigenvalues --    3.08234   3.08721   3.09130   3.09381   3.09679
 Alpha virt. eigenvalues --    3.10084   3.10438   3.10544   3.10728   3.10809
 Alpha virt. eigenvalues --    3.11528   3.11841   3.12308   3.12386   3.12621
 Alpha virt. eigenvalues --    3.12893   3.13211   3.13302   3.13856   3.14155
 Alpha virt. eigenvalues --    3.14447   3.14882   3.15218   3.15434   3.15659
 Alpha virt. eigenvalues --    3.16029   3.16387   3.16489   3.16572   3.17109
 Alpha virt. eigenvalues --    3.17178   3.17627   3.17950   3.18237   3.18402
 Alpha virt. eigenvalues --    3.18779   3.18935   3.19394   3.19621   3.19915
 Alpha virt. eigenvalues --    3.20190   3.20602   3.20702   3.20925   3.21305
 Alpha virt. eigenvalues --    3.21416   3.22014   3.22232   3.22288   3.22468
 Alpha virt. eigenvalues --    3.22622   3.22821   3.23228   3.23422   3.23746
 Alpha virt. eigenvalues --    3.24174   3.24483   3.24990   3.25229   3.25398
 Alpha virt. eigenvalues --    3.25959   3.26152   3.26231   3.26387   3.26938
 Alpha virt. eigenvalues --    3.27182   3.27811   3.27940   3.28206   3.28596
 Alpha virt. eigenvalues --    3.28824   3.28894   3.29534   3.29935   3.30403
 Alpha virt. eigenvalues --    3.30777   3.30939   3.31394   3.31547   3.31703
 Alpha virt. eigenvalues --    3.32061   3.32581   3.32716   3.32979   3.33222
 Alpha virt. eigenvalues --    3.33650   3.33682   3.34395   3.34616   3.34848
 Alpha virt. eigenvalues --    3.35171   3.35408   3.35678   3.35914   3.36391
 Alpha virt. eigenvalues --    3.36769   3.37104   3.37391   3.37605   3.38027
 Alpha virt. eigenvalues --    3.38424   3.38781   3.39176   3.39480   3.39986
 Alpha virt. eigenvalues --    3.40093   3.40551   3.40650   3.41116   3.41476
 Alpha virt. eigenvalues --    3.41614   3.42036   3.42169   3.42737   3.42981
 Alpha virt. eigenvalues --    3.43196   3.43495   3.43935   3.44205   3.44572
 Alpha virt. eigenvalues --    3.45089   3.45287   3.45462   3.45795   3.46097
 Alpha virt. eigenvalues --    3.46829   3.46923   3.47275   3.48037   3.48184
 Alpha virt. eigenvalues --    3.48605   3.48905   3.49261   3.49530   3.49618
 Alpha virt. eigenvalues --    3.50055   3.50583   3.50861   3.51229   3.51321
 Alpha virt. eigenvalues --    3.51900   3.51952   3.52230   3.52396   3.52736
 Alpha virt. eigenvalues --    3.53127   3.53281   3.53629   3.53703   3.54296
 Alpha virt. eigenvalues --    3.54376   3.54872   3.55256   3.55557   3.56245
 Alpha virt. eigenvalues --    3.56372   3.56577   3.56989   3.57062   3.57577
 Alpha virt. eigenvalues --    3.58008   3.58411   3.59074   3.59176   3.59604
 Alpha virt. eigenvalues --    3.59888   3.60690   3.60713   3.61117   3.61543
 Alpha virt. eigenvalues --    3.61735   3.62325   3.62551   3.62898   3.63084
 Alpha virt. eigenvalues --    3.63803   3.64170   3.64401   3.65000   3.65139
 Alpha virt. eigenvalues --    3.65761   3.66049   3.66340   3.66476   3.67010
 Alpha virt. eigenvalues --    3.67258   3.67629   3.68100   3.68654   3.69209
 Alpha virt. eigenvalues --    3.69506   3.69858   3.70139   3.71208   3.71369
 Alpha virt. eigenvalues --    3.71878   3.72072   3.72472   3.73008   3.73243
 Alpha virt. eigenvalues --    3.73438   3.73688   3.74184   3.74213   3.74598
 Alpha virt. eigenvalues --    3.75122   3.75423   3.76103   3.76350   3.76730
 Alpha virt. eigenvalues --    3.76950   3.77424   3.77696   3.78170   3.78503
 Alpha virt. eigenvalues --    3.78720   3.79200   3.79532   3.79620   3.80425
 Alpha virt. eigenvalues --    3.80550   3.81177   3.81652   3.82312   3.82516
 Alpha virt. eigenvalues --    3.82705   3.83175   3.83877   3.83982   3.84309
 Alpha virt. eigenvalues --    3.85071   3.85217   3.85668   3.86023   3.86249
 Alpha virt. eigenvalues --    3.86532   3.86777   3.86819   3.87074   3.87431
 Alpha virt. eigenvalues --    3.87884   3.88433   3.88671   3.89099   3.89260
 Alpha virt. eigenvalues --    3.89619   3.89991   3.90429   3.90694   3.90964
 Alpha virt. eigenvalues --    3.91112   3.91440   3.91805   3.92175   3.92451
 Alpha virt. eigenvalues --    3.93260   3.93722   3.93837   3.94290   3.94406
 Alpha virt. eigenvalues --    3.94487   3.94699   3.95724   3.95931   3.96262
 Alpha virt. eigenvalues --    3.96957   3.97085   3.97390   3.98036   3.98135
 Alpha virt. eigenvalues --    3.98615   3.98869   3.99051   3.99673   3.99966
 Alpha virt. eigenvalues --    4.00180   4.00692   4.00701   4.01088   4.01683
 Alpha virt. eigenvalues --    4.01918   4.02247   4.02494   4.02649   4.03401
 Alpha virt. eigenvalues --    4.03452   4.03651   4.04004   4.04347   4.04745
 Alpha virt. eigenvalues --    4.04931   4.05250   4.05422   4.05836   4.06232
 Alpha virt. eigenvalues --    4.06883   4.07148   4.07764   4.07918   4.08194
 Alpha virt. eigenvalues --    4.08367   4.08592   4.09042   4.09367   4.09729
 Alpha virt. eigenvalues --    4.10257   4.10448   4.10802   4.11024   4.11443
 Alpha virt. eigenvalues --    4.12095   4.12393   4.12850   4.13198   4.13601
 Alpha virt. eigenvalues --    4.13920   4.14218   4.14519   4.15549   4.15587
 Alpha virt. eigenvalues --    4.15782   4.15951   4.16471   4.16731   4.16866
 Alpha virt. eigenvalues --    4.17377   4.17604   4.17733   4.18075   4.18536
 Alpha virt. eigenvalues --    4.18590   4.19633   4.20071   4.20674   4.20812
 Alpha virt. eigenvalues --    4.21190   4.21676   4.21814   4.22144   4.22598
 Alpha virt. eigenvalues --    4.22824   4.23171   4.23361   4.23547   4.23677
 Alpha virt. eigenvalues --    4.24189   4.24782   4.25230   4.25373   4.25882
 Alpha virt. eigenvalues --    4.26459   4.26632   4.27214   4.27409   4.27718
 Alpha virt. eigenvalues --    4.28471   4.28869   4.29126   4.29537   4.29735
 Alpha virt. eigenvalues --    4.30658   4.31049   4.31492   4.31924   4.32332
 Alpha virt. eigenvalues --    4.32661   4.33339   4.33558   4.34099   4.34589
 Alpha virt. eigenvalues --    4.35113   4.35535   4.36089   4.36254   4.36812
 Alpha virt. eigenvalues --    4.37236   4.37779   4.38351   4.38516   4.39239
 Alpha virt. eigenvalues --    4.39818   4.39968   4.40818   4.41551   4.42504
 Alpha virt. eigenvalues --    4.42655   4.43760   4.44498   4.45123   4.45847
 Alpha virt. eigenvalues --    4.46322   4.46805   4.47064   4.47507   4.48488
 Alpha virt. eigenvalues --    4.48708   4.49184   4.49867   4.49987   4.50133
 Alpha virt. eigenvalues --    4.50460   4.50797   4.51269   4.52320   4.52708
 Alpha virt. eigenvalues --    4.53518   4.54778   4.55475   4.55854   4.56521
 Alpha virt. eigenvalues --    4.57197   4.57959   4.58554   4.58922   4.59396
 Alpha virt. eigenvalues --    4.60026   4.60805   4.61542   4.61999   4.62707
 Alpha virt. eigenvalues --    4.62948   4.63570   4.63873   4.64179   4.64579
 Alpha virt. eigenvalues --    4.64783   4.65651   4.66641   4.67015   4.67793
 Alpha virt. eigenvalues --    4.68065   4.68248   4.68873   4.69549   4.69707
 Alpha virt. eigenvalues --    4.70060   4.70237   4.71227   4.71821   4.72559
 Alpha virt. eigenvalues --    4.72661   4.73050   4.73468   4.73983   4.74069
 Alpha virt. eigenvalues --    4.75511   4.76016   4.76570   4.77029   4.78087
 Alpha virt. eigenvalues --    4.78372   4.78480   4.79078   4.79718   4.80554
 Alpha virt. eigenvalues --    4.81072   4.81211   4.82102   4.82563   4.83384
 Alpha virt. eigenvalues --    4.83440   4.84868   4.84962   4.85195   4.86030
 Alpha virt. eigenvalues --    4.86452   4.87005   4.87421   4.88420   4.88676
 Alpha virt. eigenvalues --    4.89255   4.89657   4.90328   4.90610   4.91034
 Alpha virt. eigenvalues --    4.91670   4.92056   4.93226   4.93373   4.93588
 Alpha virt. eigenvalues --    4.94507   4.94904   4.95996   4.96854   4.96893
 Alpha virt. eigenvalues --    4.97863   4.98692   4.99079   4.99258   4.99717
 Alpha virt. eigenvalues --    5.00699   5.01382   5.02966   5.03706   5.04023
 Alpha virt. eigenvalues --    5.04329   5.04661   5.05307   5.05985   5.06283
 Alpha virt. eigenvalues --    5.06774   5.07688   5.08095   5.08427   5.08691
 Alpha virt. eigenvalues --    5.09107   5.09555   5.09970   5.10492   5.11019
 Alpha virt. eigenvalues --    5.11531   5.12033   5.12759   5.12909   5.13452
 Alpha virt. eigenvalues --    5.14358   5.14395   5.14502   5.15368   5.16224
 Alpha virt. eigenvalues --    5.16868   5.17533   5.17640   5.18091   5.18611
 Alpha virt. eigenvalues --    5.18953   5.19201   5.19520   5.20169   5.20701
 Alpha virt. eigenvalues --    5.21599   5.21800   5.21973   5.22277   5.23426
 Alpha virt. eigenvalues --    5.24146   5.24412   5.25855   5.26091   5.26820
 Alpha virt. eigenvalues --    5.27285   5.27569   5.28018   5.28266   5.28703
 Alpha virt. eigenvalues --    5.29006   5.29965   5.30144   5.30551   5.30773
 Alpha virt. eigenvalues --    5.32206   5.33089   5.33281   5.34184   5.34378
 Alpha virt. eigenvalues --    5.34992   5.35268   5.35944   5.36182   5.36385
 Alpha virt. eigenvalues --    5.36906   5.37432   5.38098   5.38360   5.38563
 Alpha virt. eigenvalues --    5.38917   5.39328   5.39696   5.40410   5.40684
 Alpha virt. eigenvalues --    5.41173   5.41526   5.42674   5.43370   5.43648
 Alpha virt. eigenvalues --    5.43962   5.45064   5.45655   5.47973   5.48644
 Alpha virt. eigenvalues --    5.49477   5.50326   5.51264   5.51688   5.52452
 Alpha virt. eigenvalues --    5.53517   5.54376   5.54651   5.54893   5.55354
 Alpha virt. eigenvalues --    5.56487   5.56942   5.58211   5.58571   5.58730
 Alpha virt. eigenvalues --    5.58820   5.59215   5.59472   5.59948   5.60316
 Alpha virt. eigenvalues --    5.61823   5.62446   5.62585   5.63931   5.64127
 Alpha virt. eigenvalues --    5.64411   5.64793   5.65989   5.66835   5.67865
 Alpha virt. eigenvalues --    5.68952   5.70068   5.70886   5.72179   5.73389
 Alpha virt. eigenvalues --    5.75275   5.75474   5.77315   5.77590   5.77972
 Alpha virt. eigenvalues --    5.81071   5.82098   5.83658   5.84666   5.85946
 Alpha virt. eigenvalues --    5.86848   5.89707   5.89897   5.91753   5.94267
 Alpha virt. eigenvalues --    5.94830   5.96057   5.99245   6.01720   6.02179
 Alpha virt. eigenvalues --    6.03009   6.03792   6.11743   6.13005   6.18063
 Alpha virt. eigenvalues --    6.19947   6.22205   6.24816   6.27902   6.27977
 Alpha virt. eigenvalues --    6.34575   6.35212   6.37786   6.40918   6.41363
 Alpha virt. eigenvalues --    6.41861   6.43086   6.44361   6.51704   6.60401
 Alpha virt. eigenvalues --    6.72791   6.73212   6.80676   6.82862   6.84076
 Alpha virt. eigenvalues --    6.86244   6.86894   6.89704   6.91044   6.94190
 Alpha virt. eigenvalues --    6.94548   6.97290   6.98586   6.99123   6.99726
 Alpha virt. eigenvalues --    7.01934   7.05304   7.08350   7.08803   7.11613
 Alpha virt. eigenvalues --    7.17569   7.20241   7.22512   7.24132   7.26719
 Alpha virt. eigenvalues --    7.31987   7.33869   7.34819   7.41016   7.45510
 Alpha virt. eigenvalues --    7.47617   7.53686   7.61641   8.44402   8.46091
 Alpha virt. eigenvalues --    8.56326   8.58564   8.81537   8.86842   8.90385
 Alpha virt. eigenvalues --    8.91247   8.92148   9.00046  15.87548  22.78577
 Alpha virt. eigenvalues --   22.89951  22.94678  22.99099  23.08612  23.12281
 Alpha virt. eigenvalues --   23.14242  23.16703  23.20331  23.22372  23.23059
 Alpha virt. eigenvalues --   23.28990  23.29885  23.31234  23.32541  23.33907
 Alpha virt. eigenvalues --   23.35036  23.35542  23.39916  23.45320  23.48562
 Alpha virt. eigenvalues --   23.49923  23.51615  23.58304  23.62273  23.62636
 Alpha virt. eigenvalues --   23.69095  23.72451  23.75447  23.78813  23.86052
 Alpha virt. eigenvalues --   23.90054  24.04536  24.18505  32.57911  32.81809
 Alpha virt. eigenvalues --   33.13649  33.29824  44.20969  44.21239  44.25980
 Alpha virt. eigenvalues --   44.73439  57.31027  57.53994
          Condensed to atoms (all electrons):
 Mulliken charges:
               1
     1  C   -0.131456
     2  N    0.259945
     3  O   -0.582722
     4  C    0.030345
     5  C   -0.082795
     6  C   -0.159116
     7  C   -0.250683
     8  C    0.134646
     9  C    0.093661
    10  C   -0.015704
    11  C   -0.432906
    12  C   -0.095277
    13  C    0.012704
    14  C   -0.114076
    15  C   -0.107904
    16  C    0.036735
    17  C    0.184740
    18  O   -0.263181
    19  C    0.101668
    20  C    0.016981
    21  C   -0.133153
    22  C   -0.100165
    23  C   -0.043923
    24  N    0.492209
    25  O   -0.376336
    26  O   -0.375452
    27  C   -0.098751
    28  C   -0.041133
    29  C   -0.042509
    30  C   -0.262680
    31  C   -0.265258
    32  C   -0.279527
    33  N   -0.093726
    34  B    0.364712
    35  F   -0.362648
    36  F   -0.347814
    37  N   -0.105208
    38  C    0.056963
    39  C   -0.411095
    40  C   -0.123155
    41  C    0.014483
    42  C   -0.432318
    43  C    0.088607
    44  C   -0.190147
    45  C   -0.064860
    46  H    0.148447
    47  H    0.151261
    48  H    0.175968
    49  H    0.173817
    50  H    0.158789
    51  H    0.132262
    52  H    0.162328
    53  H    0.165776
    54  H    0.141270
    55  H    0.137784
    56  H    0.161039
    57  H    0.191681
    58  H    0.205456
    59  H    0.142589
    60  H    0.154332
    61  H    0.129910
    62  H    0.127372
    63  H    0.132184
    64  H    0.163045
    65  H    0.125093
    66  H    0.152901
    67  H    0.135864
    68  H    0.157336
    69  H    0.162296
    70  H    0.160565
    71  H    0.157992
    72  H    0.131752
    73  H    0.176877
    74  H    0.181292
 Sum of Mulliken charges =  -0.00000
 Mulliken charges with hydrogens summed into heavy atoms:
               1
     1  C    0.168252
     2  N    0.259945
     3  O   -0.582722
     4  C    0.030345
     5  C    0.093173
     6  C    0.014702
     7  C   -0.250683
     8  C    0.134646
     9  C    0.093661
    10  C   -0.015704
    11  C    0.020473
    12  C    0.070498
    13  C    0.012704
    14  C    0.027194
    15  C    0.029880
    16  C    0.036735
    17  C    0.184740
    18  O   -0.263181
    19  C    0.101668
    20  C    0.016981
    21  C    0.027886
    22  C    0.091516
    23  C   -0.043923
    24  N    0.492209
    25  O   -0.376336
    26  O   -0.375452
    27  C    0.106705
    28  C    0.101456
    29  C   -0.042509
    30  C    0.021562
    31  C   -0.005702
    32  C    0.008611
    33  N   -0.093726
    34  B    0.364712
    35  F   -0.362648
    36  F   -0.347814
    37  N   -0.105208
    38  C    0.056963
    39  C    0.035007
    40  C    0.039142
    41  C    0.014483
    42  C    0.017991
    43  C    0.088607
    44  C   -0.013270
    45  C    0.116432
 Electronic spatial extent (au):  <R**2>=          41802.9165
 Charge=              0.0000 electrons
 Dipole moment (field-independent basis, Debye):
    X=             -4.5688    Y=             -4.2467    Z=              5.9396  Tot=              8.6132
 Quadrupole moment (field-independent basis, Debye-Ang):
   XX=           -241.9638   YY=           -274.5997   ZZ=           -259.9793
   XY=             48.7786   XZ=             19.8426   YZ=             17.5243
 Traceless Quadrupole moment (field-independent basis, Debye-Ang):
   XX=             16.8838   YY=            -15.7520   ZZ=             -1.1317
   XY=             48.7786   XZ=             19.8426   YZ=             17.5243
 Octapole moment (field-independent basis, Debye-Ang**2):
  XXX=           -768.2762  YYY=           -228.2709  ZZZ=              3.9046  XYY=            229.1976
  XXY=           -626.7844  XXZ=            281.8929  XZZ=             35.9431  YZZ=             42.4193
  YYZ=            111.0356  XYZ=            120.8706
 Hexadecapole moment (field-independent basis, Debye-Ang**3):
 XXXX=         -44497.0904 YYYY=         -12597.8487 ZZZZ=           -763.3120 XXXY=            449.5111
 XXXZ=           1219.0506 YYYX=           1622.0148 YYYZ=            522.2187 ZZZX=             75.7411
 ZZZY=             -1.9934 XXYY=         -10769.1132 XXZZ=          -7310.4853 YYZZ=          -2179.6951
 XXYZ=           1137.2376 YYXZ=            428.4609 ZZXY=            129.0686
 N-N= 5.000963031685D+03 E-N=-1.480058840469D+04  KE= 2.046583254989D+03
 No NMR shielding tensors so no spin-rotation constants.
 Leave Link  601 at Fri Oct 24 22:56:32 2025, MaxMem= 30870077440 cpu:             123.5 elap:               2.3
 (Enter /public/software/gauss/g16/l9999.exe)
 1\1\GINC-CU056\SP\RM062X\def2TZVPP\C34H29B1F2N4O4\BAIDING\24-Oct-2025\
 0\\#p M062X/DEF2TZVPP scrf=(solvent=water) em=GD3\\Energy calculation 
 for BNO_NO2\\0,1\C,0,-7.219343,5.093529,-1.075475\N,0,-7.322236,4.1677
 02,-0.165951\O,0,-8.214952,4.180361,0.774117\C,0,-6.400644,3.036422,-0
 .14797\C,0,-6.015246,2.532078,1.092984\C,0,-5.137658,1.452305,1.144633
 \C,0,-4.658198,0.866522,-0.035304\C,0,-3.727066,-0.301289,0.020191\C,0
 ,-2.340981,-0.08788,-0.019262\C,0,-1.565052,1.123361,-0.100787\C,0,-2.
 030344,2.546974,-0.150315\C,0,-0.239467,0.73491,-0.134739\C,0,-0.17699
 8,-0.684193,-0.078286\C,0,0.974865,-1.537897,-0.117965\C,0,2.258467,-1
 .068216,-0.095665\C,0,3.437601,-1.880128,-0.176719\C,0,4.688204,-1.298
 294,-0.181554\O,0,4.747844,0.078155,-0.014358\C,0,5.940186,0.75106,0.0
 00296\C,0,7.1632,0.062778,-0.149232\C,0,8.356808,0.808586,-0.118958\C,
 0,8.336269,2.183694,0.053443\C,0,7.099345,2.821662,0.195993\N,0,7.0667
 07,4.259634,0.376354\O,0,5.967009,4.817041,0.500934\O,0,8.138948,4.880
 419,0.398877\C,0,5.887898,2.124927,0.171359\C,0,7.114162,-1.36176,-0.3
 33112\C,0,5.923637,-2.023279,-0.360937\C,0,5.824563,-3.506467,-0.61111
 7\C,0,4.621486,-4.110015,0.116608\C,0,3.330612,-3.390027,-0.284495\N,0
 ,-1.452003,-1.166485,-0.004922\B,0,-1.855101,-2.64437,0.234607\F,0,-1.
 28457,-3.471347,-0.747554\F,0,-1.413231,-3.071822,1.497658\N,0,-3.3971
 36,-2.709774,0.154551\C,0,-4.146679,-3.837121,0.206365\C,0,-3.55771,-5
 .205033,0.288534\C,0,-5.505808,-3.481789,0.169638\C,0,-5.602099,-2.092
 625,0.09889\C,0,-6.894242,-1.335423,0.038727\C,0,-4.25621,-1.603503,0.
 091889\C,0,-5.073824,1.377458,-1.271545\C,0,-5.947569,2.461737,-1.3345
 83\H,0,-6.415393,5.055159,-1.794937\H,0,-7.947335,5.893357,-1.059854\H
 ,0,-6.397663,2.98555,1.999031\H,0,-4.824413,1.061416,2.10707\H,0,-2.64
 8916,2.805785,0.714148\H,0,-1.164644,3.214223,-0.161815\H,0,-2.62833,2
 .751891,-1.043581\H,0,0.611013,1.398073,-0.211338\H,0,0.785995,-2.6017
 59,-0.191827\H,0,2.413143,0.003991,-0.028114\H,0,9.302093,0.288865,-0.
 234601\H,0,9.251269,2.760311,0.077627\H,0,4.940046,2.634021,0.283476\H
 ,0,8.045588,-1.903873,-0.463858\H,0,5.708623,-3.667551,-1.692428\H,0,6
 .761071,-3.989371,-0.317161\H,0,4.540332,-5.176603,-0.113134\H,0,4.769
 343,-4.02088,1.19956\H,0,3.057238,-3.663452,-1.313626\H,0,2.508945,-3.
 737581,0.349771\H,0,-2.876893,-5.287545,1.142141\H,0,-4.349609,-5.9483
 73,0.397339\H,0,-2.976483,-5.438865,-0.609319\H,0,-6.332001,-4.180061,
 0.19201\H,0,-7.017014,-0.661158,0.892059\H,0,-6.970749,-0.722064,-0.86
 4471\H,0,-7.731159,-2.038709,0.041546\H,0,-4.723768,0.918853,-2.190331
 \H,0,-6.285733,2.832992,-2.295324\\Version=ES64L-G16RevA.03\State=1-A\
 HF=-2057.5468865\RMSD=9.410e-09\Dipole=1.7974984,-1.6707801,-2.336837\
 Quadrupole=12.5526638,-11.7112619,-0.8414019,-36.2657299,14.7525072,-1
 3.0288528\PG=C01 [X(C34H29B1F2N4O4)]\\@


 THE SCIENTIFIC THEORIST IS NOT TO BE ENVIED. FOR NATURE, OR MORE
 PRECISELY EXPERIMENT, IS AN INEXORABLE AND NOT VERY FRIENDLY JUDGE OF HIS
 WORK.  IT NEVER SAYS "YES" TO A THEORY. IN THE MOST FAVORABLE CASES
 IT SAYS "MAYBE", AND IN THE GREAT MAJORITY OF CASES SIMPLY "NO"...
 PROBABLY EVERY THEORY WILL SOME DAY EXPERIENCE ITS "NO" - MOST
 THEORIES, SOON AFTER CONCEPTION.  -- A.EINSTEIN, NOV 11, 1922.
 Job cpu time:       0 days 16 hours 14 minutes 47.1 seconds.
 Elapsed time:       0 days  0 hours 15 minutes 30.7 seconds.
 File lengths (MBytes):  RWF=   2145 Int=      0 D2E=      0 Chk=    189 Scr=      1
 Normal termination of Gaussian 16 at Fri Oct 24 22:56:33 2025.
