 Entering Gaussian System, Link 0=g16
 Input=BNO_N3_reduced_sp.gjf
 Output=BNO_N3_reduced_sp.log
 Initial command:
 /public/software/gauss/g16/l1.exe "/public/home/baiding/1024_sp/tmp_BNO_N3_reduced_sp_1526250/Gau-2922811.inp" -scrdir="/public/home/baiding/1024_sp/tmp_BNO_N3_reduced_sp_1526250/"
 Entering Link 1 = /public/software/gauss/g16/l1.exe PID=   2922812.
  
 Copyright (c) 1988,1990,1992,1993,1995,1998,2003,2009,2016,
            Gaussian, Inc.  All Rights Reserved.
  
 This is part of the Gaussian(R) 16 program.  It is based on
 the Gaussian(R) 09 system (copyright 2009, Gaussian, Inc.),
 the Gaussian(R) 03 system (copyright 2003, Gaussian, Inc.),
 the Gaussian(R) 98 system (copyright 1998, Gaussian, Inc.),
 the Gaussian(R) 94 system (copyright 1995, Gaussian, Inc.),
 the Gaussian 92(TM) system (copyright 1992, Gaussian, Inc.),
 the Gaussian 90(TM) system (copyright 1990, Gaussian, Inc.),
 the Gaussian 88(TM) system (copyright 1988, Gaussian, Inc.),
 the Gaussian 86(TM) system (copyright 1986, Carnegie Mellon
 University), and the Gaussian 82(TM) system (copyright 1983,
 Carnegie Mellon University). Gaussian is a federally registered
 trademark of Gaussian, Inc.
  
 This software contains proprietary and confidential information,
 including trade secrets, belonging to Gaussian, Inc.
  
 This software is provided under written license and may be
 used, copied, transmitted, or stored only in accord with that
 written license.
  
 The following legend is applicable only to US Government
 contracts under FAR:
  
                    RESTRICTED RIGHTS LEGEND
  
 Use, reproduction and disclosure by the US Government is
 subject to restrictions as set forth in subparagraphs (a)
 and (c) of the Commercial Computer Software - Restricted
 Rights clause in FAR 52.227-19.
  
 Gaussian, Inc.
 340 Quinnipiac St., Bldg. 40, Wallingford CT 06492
  
  
 ---------------------------------------------------------------
 Warning -- This program may not be used in any manner that
 competes with the business of Gaussian, Inc. or will provide
 assistance to any competitor of Gaussian, Inc.  The licensee
 of this program is prohibited from giving any competitor of
 Gaussian, Inc. access to this program.  By using this program,
 the user acknowledges that Gaussian, Inc. is engaged in the
 business of creating and licensing software in the field of
 computational chemistry and represents and warrants to the
 licensee that it is not a competitor of Gaussian, Inc. and that
 it will not use this program in any manner prohibited above.
 ---------------------------------------------------------------
  

 Cite this work as:
 Gaussian 16, Revision A.03,
 M. J. Frisch, G. W. Trucks, H. B. Schlegel, G. E. Scuseria, 
 M. A. Robb, J. R. Cheeseman, G. Scalmani, V. Barone, 
 G. A. Petersson, H. Nakatsuji, X. Li, M. Caricato, A. V. Marenich, 
 J. Bloino, B. G. Janesko, R. Gomperts, B. Mennucci, H. P. Hratchian, 
 J. V. Ortiz, A. F. Izmaylov, J. L. Sonnenberg, D. Williams-Young, 
 F. Ding, F. Lipparini, F. Egidi, J. Goings, B. Peng, A. Petrone, 
 T. Henderson, D. Ranasinghe, V. G. Zakrzewski, J. Gao, N. Rega, 
 G. Zheng, W. Liang, M. Hada, M. Ehara, K. Toyota, R. Fukuda, 
 J. Hasegawa, M. Ishida, T. Nakajima, Y. Honda, O. Kitao, H. Nakai, 
 T. Vreven, K. Throssell, J. A. Montgomery, Jr., J. E. Peralta, 
 F. Ogliaro, M. J. Bearpark, J. J. Heyd, E. N. Brothers, K. N. Kudin, 
 V. N. Staroverov, T. A. Keith, R. Kobayashi, J. Normand, 
 K. Raghavachari, A. P. Rendell, J. C. Burant, S. S. Iyengar, 
 J. Tomasi, M. Cossi, J. M. Millam, M. Klene, C. Adamo, R. Cammi, 
 J. W. Ochterski, R. L. Martin, K. Morokuma, O. Farkas, 
 J. B. Foresman, and D. J. Fox, Gaussian, Inc., Wallingford CT, 2016.
 
 ******************************************
 Gaussian 16:  ES64L-G16RevA.03 25-Dec-2016
                24-Oct-2025 
 ******************************************
 %nprocshared=64
 Will use up to   64 processors via shared memory.
 %mem=230GB
 %chk=BNO_N3_reduced_sp.chk
 ----------------------------------------------
 #p M062X/DEF2TZVPP scrf=(solvent=water) em=GD3
 ----------------------------------------------
 1/38=1,172=1/1;
 2/12=2,17=6,18=5,40=1/2;
 3/5=44,7=202,11=2,25=1,30=1,70=2201,72=1,74=-55,124=31/1,2,3;
 4//1;
 5/5=2,38=5,53=1/2;
 6/7=2,8=2,9=2,10=2,28=1/1;
 99/5=1,9=1/99;
 Leave Link    1 at Fri Oct 24 20:57:06 2025, MaxMem= 30870077440 cpu:               9.3 elap:               0.2
 (Enter /public/software/gauss/g16/l101.exe)
 -------------------------------------
 Energy calculation for BNO_N3_reduced
 -------------------------------------
 Symbolic Z-matrix:
 Charge = -1 Multiplicity = 2
 C                    -3.61122  -3.06605  -0.00716 
 C                    -2.35556  -2.2459   -0.00405 
 C                    -1.08326  -2.79576  -0.00348 
 C                    -0.13226  -1.7496   -0.08365 
 C                     1.29962  -1.80893  -0.10706 
 C                     2.01366  -2.97799  -0.13989 
 C                     3.43585  -3.19704  -0.14698 
 C                     4.40853  -2.22115  -0.06627 
 O                     3.98179  -0.91092   0.08184 
 C                     4.85968   0.13585   0.19441 
 C                     6.24872  -0.08463   0.1709 
 C                     7.08738   1.03666   0.29784 
 C                     6.56561   2.31577   0.43936 
 C                     5.17235   2.4959    0.45372 
 N                     4.54187   3.76084   0.58936 
 N                     5.25375   4.76754   0.69149 
 N                     5.78125   5.77334   0.79414 
 C                     4.30834   1.40344   0.33179 
 C                     6.70928  -1.44011   0.01009 
 C                     5.83156  -2.47269  -0.11852 
 C                     6.28097  -3.89673  -0.33964 
 C                     5.2961   -4.88887   0.28351 
 C                     3.8878   -4.64814  -0.26384 
 N                    -0.81107  -0.55785  -0.12512 
 C                    -2.18434  -0.81767  -0.05807 
 C                    -3.12101   0.23784  -0.10596 
 C                    -4.56325  -0.03486   0.04027 
 C                    -5.4697    0.28119  -0.99674 
 C                    -6.82351   0.02389  -0.87626 
 C                    -7.32752  -0.53845   0.31926 
 N                    -8.6949   -0.7892    0.45619 
 O                    -9.49723  -0.49845  -0.50845 
 O                    -9.14444  -1.30895   1.54564 
 C                    -6.43818  -0.84377   1.37501 
 C                    -5.08387  -0.60594   1.22306 
 C                    -2.67606   1.57447  -0.29133 
 C                    -3.35486   2.82681  -0.20174 
 C                    -4.78457   3.13006   0.13646 
 C                    -2.38615   3.81173  -0.43425 
 C                    -1.15061   3.18741  -0.6334 
 C                     0.17239   3.82966  -0.89344 
 N                    -1.32211   1.8411   -0.53602 
 B                    -0.19878   0.78972  -0.57674 
 F                     0.84736   1.17501   0.29613 
 F                     0.33248   0.67534  -1.87452 
 H                    -4.33887  -2.69416  -0.7338 
 H                    -3.36646  -4.10039  -0.26517 
 H                    -4.11087  -3.07668   0.96657 
 H                    -0.85383  -3.85166   0.04457 
 H                     1.81232  -0.86142  -0.07976 
 H                     1.43769  -3.90203  -0.17296 
 H                     8.16326   0.89104   0.28313 
 H                     7.23201   3.16638   0.53645 
 H                     3.23241   1.53635   0.34122 
 H                     7.779    -1.62711  -0.01808 
 H                     6.33969  -4.08557  -1.42105 
 H                     7.29191  -4.02583   0.05887 
 H                     5.61113  -5.91576   0.0731 
 H                     5.29329  -4.76556   1.37355 
 H                     3.8509   -4.96041  -1.31802 
 H                     3.16743  -5.2831    0.26364 
 H                    -5.09021   0.71234  -1.91797 
 H                    -7.5053    0.24216  -1.68794 
 H                    -6.82935  -1.25627   2.29589 
 H                    -4.40871  -0.83805   2.04079 
 H                    -5.46342   2.96415  -0.70699 
 H                    -5.15083   2.51372   0.96236 
 H                    -4.87392   4.18055   0.42874 
 H                    -2.55263   4.88121  -0.43961 
 H                     0.67602   3.36897  -1.74933 
 H                     0.03447   4.89301  -1.10111 
 H                     0.84403   3.73031  -0.03405 
 
 ITRead=  0  0  0  0  0  0  0  0  0  0  0  0  0  0  0  0  0  0  0  0
 ITRead=  0  0  0  0  0  0  0  0  0  0  0  0  0  0  0  0  0  0  0  0
 ITRead=  0  0  0  0  0  0  0  0  0  0  0  0  0  0  0  0  0  0  0  0
 ITRead=  0  0  0  0  0  0  0  0  0  0  0  0
 MicOpt= -1 -1 -1 -1 -1 -1 -1 -1 -1 -1 -1 -1 -1 -1 -1 -1 -1 -1 -1 -1
 MicOpt= -1 -1 -1 -1 -1 -1 -1 -1 -1 -1 -1 -1 -1 -1 -1 -1 -1 -1 -1 -1
 MicOpt= -1 -1 -1 -1 -1 -1 -1 -1 -1 -1 -1 -1 -1 -1 -1 -1 -1 -1 -1 -1
 MicOpt= -1 -1 -1 -1 -1 -1 -1 -1 -1 -1 -1 -1
 NAtoms=     72 NQM=       72 NQMF=       0 NMMI=      0 NMMIF=      0
                NMic=       0 NMicF=      0.
                    Isotopes and Nuclear Properties:
 (Nuclear quadrupole moments (NQMom) in fm**2, nuclear magnetic moments (NMagM)
  in nuclear magnetons)

  Atom         1           2           3           4           5           6           7           8           9          10
 IAtWgt=          12          12          12          12          12          12          12          12          16          12
 AtmWgt=  12.0000000  12.0000000  12.0000000  12.0000000  12.0000000  12.0000000  12.0000000  12.0000000  15.9949146  12.0000000
 NucSpn=           0           0           0           0           0           0           0           0           0           0
 AtZEff=  -0.0000000  -0.0000000  -0.0000000  -0.0000000  -0.0000000  -0.0000000  -0.0000000  -0.0000000  -0.0000000  -0.0000000
 NQMom=    0.0000000   0.0000000   0.0000000   0.0000000   0.0000000   0.0000000   0.0000000   0.0000000   0.0000000   0.0000000
 NMagM=    0.0000000   0.0000000   0.0000000   0.0000000   0.0000000   0.0000000   0.0000000   0.0000000   0.0000000   0.0000000
 AtZNuc=   6.0000000   6.0000000   6.0000000   6.0000000   6.0000000   6.0000000   6.0000000   6.0000000   8.0000000   6.0000000

  Atom        11          12          13          14          15          16          17          18          19          20
 IAtWgt=          12          12          12          12          14          14          14          12          12          12
 AtmWgt=  12.0000000  12.0000000  12.0000000  12.0000000  14.0030740  14.0030740  14.0030740  12.0000000  12.0000000  12.0000000
 NucSpn=           0           0           0           0           2           2           2           0           0           0
 AtZEff=  -0.0000000  -0.0000000  -0.0000000  -0.0000000  -0.0000000  -0.0000000  -0.0000000  -0.0000000  -0.0000000  -0.0000000
 NQMom=    0.0000000   0.0000000   0.0000000   0.0000000   2.0440000   2.0440000   2.0440000   0.0000000   0.0000000   0.0000000
 NMagM=    0.0000000   0.0000000   0.0000000   0.0000000   0.4037610   0.4037610   0.4037610   0.0000000   0.0000000   0.0000000
 AtZNuc=   6.0000000   6.0000000   6.0000000   6.0000000   7.0000000   7.0000000   7.0000000   6.0000000   6.0000000   6.0000000

  Atom        21          22          23          24          25          26          27          28          29          30
 IAtWgt=          12          12          12          14          12          12          12          12          12          12
 AtmWgt=  12.0000000  12.0000000  12.0000000  14.0030740  12.0000000  12.0000000  12.0000000  12.0000000  12.0000000  12.0000000
 NucSpn=           0           0           0           2           0           0           0           0           0           0
 AtZEff=  -0.0000000  -0.0000000  -0.0000000  -0.0000000  -0.0000000  -0.0000000  -0.0000000  -0.0000000  -0.0000000  -0.0000000
 NQMom=    0.0000000   0.0000000   0.0000000   2.0440000   0.0000000   0.0000000   0.0000000   0.0000000   0.0000000   0.0000000
 NMagM=    0.0000000   0.0000000   0.0000000   0.4037610   0.0000000   0.0000000   0.0000000   0.0000000   0.0000000   0.0000000
 AtZNuc=   6.0000000   6.0000000   6.0000000   7.0000000   6.0000000   6.0000000   6.0000000   6.0000000   6.0000000   6.0000000

  Atom        31          32          33          34          35          36          37          38          39          40
 IAtWgt=          14          16          16          12          12          12          12          12          12          12
 AtmWgt=  14.0030740  15.9949146  15.9949146  12.0000000  12.0000000  12.0000000  12.0000000  12.0000000  12.0000000  12.0000000
 NucSpn=           2           0           0           0           0           0           0           0           0           0
 AtZEff=  -0.0000000  -0.0000000  -0.0000000  -0.0000000  -0.0000000  -0.0000000  -0.0000000  -0.0000000  -0.0000000  -0.0000000
 NQMom=    2.0440000   0.0000000   0.0000000   0.0000000   0.0000000   0.0000000   0.0000000   0.0000000   0.0000000   0.0000000
 NMagM=    0.4037610   0.0000000   0.0000000   0.0000000   0.0000000   0.0000000   0.0000000   0.0000000   0.0000000   0.0000000
 AtZNuc=   7.0000000   8.0000000   8.0000000   6.0000000   6.0000000   6.0000000   6.0000000   6.0000000   6.0000000   6.0000000

  Atom        41          42          43          44          45          46          47          48          49          50
 IAtWgt=          12          14          11          19          19           1           1           1           1           1
 AtmWgt=  12.0000000  14.0030740  11.0093053  18.9984033  18.9984033   1.0078250   1.0078250   1.0078250   1.0078250   1.0078250
 NucSpn=           0           2           3           1           1           1           1           1           1           1
 AtZEff=  -0.0000000  -0.0000000  -0.0000000  -0.0000000  -0.0000000  -0.0000000  -0.0000000  -0.0000000  -0.0000000  -0.0000000
 NQMom=    0.0000000   2.0440000   4.0590000   0.0000000   0.0000000   0.0000000   0.0000000   0.0000000   0.0000000   0.0000000
 NMagM=    0.0000000   0.4037610   2.6886370   2.6288670   2.6288670   2.7928460   2.7928460   2.7928460   2.7928460   2.7928460
 AtZNuc=   6.0000000   7.0000000   5.0000000   9.0000000   9.0000000   1.0000000   1.0000000   1.0000000   1.0000000   1.0000000

  Atom        51          52          53          54          55          56          57          58          59          60
 IAtWgt=           1           1           1           1           1           1           1           1           1           1
 AtmWgt=   1.0078250   1.0078250   1.0078250   1.0078250   1.0078250   1.0078250   1.0078250   1.0078250   1.0078250   1.0078250
 NucSpn=           1           1           1           1           1           1           1           1           1           1
 AtZEff=  -0.0000000  -0.0000000  -0.0000000  -0.0000000  -0.0000000  -0.0000000  -0.0000000  -0.0000000  -0.0000000  -0.0000000
 NQMom=    0.0000000   0.0000000   0.0000000   0.0000000   0.0000000   0.0000000   0.0000000   0.0000000   0.0000000   0.0000000
 NMagM=    2.7928460   2.7928460   2.7928460   2.7928460   2.7928460   2.7928460   2.7928460   2.7928460   2.7928460   2.7928460
 AtZNuc=   1.0000000   1.0000000   1.0000000   1.0000000   1.0000000   1.0000000   1.0000000   1.0000000   1.0000000   1.0000000

  Atom        61          62          63          64          65          66          67          68          69          70
 IAtWgt=           1           1           1           1           1           1           1           1           1           1
 AtmWgt=   1.0078250   1.0078250   1.0078250   1.0078250   1.0078250   1.0078250   1.0078250   1.0078250   1.0078250   1.0078250
 NucSpn=           1           1           1           1           1           1           1           1           1           1
 AtZEff=  -0.0000000  -0.0000000  -0.0000000  -0.0000000  -0.0000000  -0.0000000  -0.0000000  -0.0000000  -0.0000000  -0.0000000
 NQMom=    0.0000000   0.0000000   0.0000000   0.0000000   0.0000000   0.0000000   0.0000000   0.0000000   0.0000000   0.0000000
 NMagM=    2.7928460   2.7928460   2.7928460   2.7928460   2.7928460   2.7928460   2.7928460   2.7928460   2.7928460   2.7928460
 AtZNuc=   1.0000000   1.0000000   1.0000000   1.0000000   1.0000000   1.0000000   1.0000000   1.0000000   1.0000000   1.0000000

  Atom        71          72
 IAtWgt=           1           1
 AtmWgt=   1.0078250   1.0078250
 NucSpn=           1           1
 AtZEff=  -0.0000000  -0.0000000
 NQMom=    0.0000000   0.0000000
 NMagM=    2.7928460   2.7928460
 AtZNuc=   1.0000000   1.0000000
 Leave Link  101 at Fri Oct 24 20:57:06 2025, MaxMem= 30870077440 cpu:               5.7 elap:               0.1
 (Enter /public/software/gauss/g16/l202.exe)
 Stoichiometry    C33H27BF2N6O3(1-,2)
 Framework group  C1[X(C33H27BF2N6O3)]
 Deg. of freedom   210
 Full point group                 C1      NOp   1
 Largest Abelian subgroup         C1      NOp   1
 Largest concise Abelian subgroup C1      NOp   1
                         Standard orientation:                         
 ---------------------------------------------------------------------
 Center     Atomic      Atomic             Coordinates (Angstroms)
 Number     Number       Type             X           Y           Z
 ---------------------------------------------------------------------
      1          6           0        3.611220   -3.066052    0.007157
      2          6           0        2.355555   -2.245897    0.004048
      3          6           0        1.083259   -2.795757    0.003482
      4          6           0        0.132255   -1.749597    0.083652
      5          6           0       -1.299623   -1.808930    0.107064
      6          6           0       -2.013664   -2.977988    0.139889
      7          6           0       -3.435853   -3.197043    0.146979
      8          6           0       -4.408532   -2.221151    0.066272
      9          8           0       -3.981792   -0.910915   -0.081839
     10          6           0       -4.859675    0.135847   -0.194411
     11          6           0       -6.248720   -0.084633   -0.170896
     12          6           0       -7.087377    1.036658   -0.297844
     13          6           0       -6.565611    2.315766   -0.439360
     14          6           0       -5.172353    2.495901   -0.453723
     15          7           0       -4.541870    3.760843   -0.589359
     16          7           0       -5.253748    4.767539   -0.691489
     17          7           0       -5.781250    5.773339   -0.794135
     18          6           0       -4.308344    1.403442   -0.331787
     19          6           0       -6.709282   -1.440110   -0.010094
     20          6           0       -5.831564   -2.472691    0.118523
     21          6           0       -6.280968   -3.896733    0.339637
     22          6           0       -5.296103   -4.888867   -0.283507
     23          6           0       -3.887799   -4.648140    0.263841
     24          7           0        0.811073   -0.557851    0.125115
     25          6           0        2.184342   -0.817673    0.058074
     26          6           0        3.121015    0.237841    0.105961
     27          6           0        4.563253   -0.034861   -0.040265
     28          6           0        5.469699    0.281190    0.996735
     29          6           0        6.823510    0.023893    0.876260
     30          6           0        7.327520   -0.538453   -0.319263
     31          7           0        8.694899   -0.789198   -0.456194
     32          8           0        9.497227   -0.498452    0.508454
     33          8           0        9.144445   -1.308954   -1.545635
     34          6           0        6.438181   -0.843770   -1.375012
     35          6           0        5.083869   -0.605937   -1.223061
     36          6           0        2.676061    1.574465    0.291325
     37          6           0        3.354858    2.826809    0.201736
     38          6           0        4.784568    3.130055   -0.136458
     39          6           0        2.386146    3.811730    0.434254
     40          6           0        1.150607    3.187406    0.633404
     41          6           0       -0.172386    3.829658    0.893438
     42          7           0        1.322108    1.841095    0.536020
     43          5           0        0.198775    0.789723    0.576741
     44          9           0       -0.847364    1.175012   -0.296132
     45          9           0       -0.332484    0.675335    1.874520
     46          1           0        4.338872   -2.694158    0.733804
     47          1           0        3.366462   -4.100395    0.265169
     48          1           0        4.110872   -3.076679   -0.966567
     49          1           0        0.853830   -3.851659   -0.044573
     50          1           0       -1.812323   -0.861418    0.079760
     51          1           0       -1.437690   -3.902031    0.172957
     52          1           0       -8.163263    0.891037   -0.283133
     53          1           0       -7.232014    3.166378   -0.536454
     54          1           0       -3.232409    1.536353   -0.341218
     55          1           0       -7.778999   -1.627111    0.018075
     56          1           0       -6.339695   -4.085574    1.421051
     57          1           0       -7.291911   -4.025834   -0.058870
     58          1           0       -5.611133   -5.915761   -0.073097
     59          1           0       -5.293294   -4.765555   -1.373550
     60          1           0       -3.850895   -4.960406    1.318015
     61          1           0       -3.167434   -5.283097   -0.263640
     62          1           0        5.090207    0.712336    1.917965
     63          1           0        7.505300    0.242163    1.687939
     64          1           0        6.829349   -1.256268   -2.295888
     65          1           0        4.408707   -0.838045   -2.040787
     66          1           0        5.463423    2.964145    0.706985
     67          1           0        5.150834    2.513718   -0.962357
     68          1           0        4.873916    4.180546   -0.428743
     69          1           0        2.552633    4.881207    0.439612
     70          1           0       -0.676015    3.368970    1.749330
     71          1           0       -0.034472    4.893013    1.101108
     72          1           0       -0.844029    3.730314    0.034046
 ---------------------------------------------------------------------
 Rotational constants (GHZ):           0.1231720           0.0345537           0.0277721
 Leave Link  202 at Fri Oct 24 20:57:06 2025, MaxMem= 30870077440 cpu:               0.2 elap:               0.0
 (Enter /public/software/gauss/g16/l301.exe)
 Standard basis: def2TZVPP (5D, 7F)
 Ernie: Thresh=  0.10000D-02 Tol=  0.10000D-05 Strict=F.
 There are  2025 symmetry adapted cartesian basis functions of A   symmetry.
 There are  1773 symmetry adapted basis functions of A   symmetry.
  1773 basis functions,  2754 primitive gaussians,  2025 cartesian basis functions
   158 alpha electrons      157 beta electrons
       nuclear repulsion energy      5124.2185629694 Hartrees.
 IExCor= 4336 DFT=T Ex+Corr=M062X ExCW=0 ScaHFX=  0.540000
 ScaDFX=  1.000000  1.000000  1.000000  1.000000 ScalE2=  1.000000  1.000000
 IRadAn=      5 IRanWt=     -1 IRanGd=            0 ICorTp=0 IEmpDi=131
 NAtoms=   72 NActive=   72 NUniq=   72 SFac= 1.00D+00 NAtFMM=   60 NAOKFM=T Big=T
 Integral buffers will be    131072 words long.
 Raffenetti 2 integral format.
 Two-electron integral symmetry is turned on.
 R6Disp:  Grimme-D3 Dispersion energy=       -0.0065630182 Hartrees.
 Nuclear repulsion after empirical dispersion term =     5124.2119999512 Hartrees.
 ------------------------------------------------------------------------------
 Polarizable Continuum Model (PCM)
 =================================
 Model                : PCM.
 Atomic radii         : UFF (Universal Force Field).
 Polarization charges : Total charges.
 Charge compensation  : None.
 Solution method      : On-the-fly selection.
 Cavity type          : Scaled VdW (van der Waals Surface) (Alpha=1.100).
 Cavity algorithm     : GePol (No added spheres)
                        Default sphere list used, NSphG=   72.
                        Lebedev-Laikov grids with approx.  5.0 points / Ang**2.
                        Smoothing algorithm: York/Karplus (Gamma=1.0000).
                        Polarization charges: spherical gaussians, with
                                              point-specific exponents (IZeta= 3).
                        Self-potential: point-specific (ISelfS= 7).
                        Self-field    : sphere-specific E.n sum rule (ISelfD= 2).
 Solvent              : Water, Eps=  78.355300 Eps(inf)=   1.777849
 ------------------------------------------------------------------------------
 GePol: Number of generator spheres                  =      72
 GePol: Total number of spheres                      =      72
 GePol: Number of exposed spheres                    =      72 (100.00%)
 GePol: Number of points                             =    5196
 GePol: Average weight of points                     =       0.13
 GePol: Minimum weight of points                     =   0.11D-11
 GePol: Maximum weight of points                     =    0.20577
 GePol: Number of points with low weight             =     367
 GePol: Fraction of low-weight points (<1% of avg)   =       7.06%
 GePol: Cavity surface area                          =    655.147 Ang**2
 GePol: Cavity volume                                =    768.641 Ang**3
 Leave Link  301 at Fri Oct 24 20:57:06 2025, MaxMem= 30870077440 cpu:               4.1 elap:               0.1
 (Enter /public/software/gauss/g16/l302.exe)
 NPDir=0 NMtPBC=     1 NCelOv=     1 NCel=       1 NClECP=     1 NCelD=      1
         NCelK=      1 NCelE2=     1 NClLst=     1 CellRange=     0.0.
 One-electron integrals computed using PRISM.
 One-electron integral symmetry used in STVInt
   1 Symmetry operations used in ECPInt.
 ECPInt:  NShTT=  216153 NPrTT=  624357 LenC2=  142874 LenP2D=  277871.
 LDataN:  DoStor=T MaxTD1= 6 Len=  172
 NBasis=  1773 RedAO= T EigKep=  4.75D-06  NBF=  1773
 NBsUse=  1773 1.00D-06 EigRej= -1.00D+00 NBFU=  1773
 Precomputing XC quadrature grid using
 IXCGrd= 4 IRadAn=           5 IRanWt=          -1 IRanGd=           0 AccXCQ= 0.00D+00.
 Generated NRdTot=       0 NPtTot=           0 NUsed=           0 NTot=          32
 NSgBfM=  1832  1832  1832  1832  1832 MxSgAt=    72 MxSgA2=    72.
 Leave Link  302 at Fri Oct 24 20:57:15 2025, MaxMem= 30870077440 cpu:             539.1 elap:               8.5
 (Enter /public/software/gauss/g16/l303.exe)
 DipDrv:  MaxL=1.
 Leave Link  303 at Fri Oct 24 20:57:16 2025, MaxMem= 30870077440 cpu:              27.2 elap:               0.5
 (Enter /public/software/gauss/g16/l401.exe)
 ExpMin= 6.06D-02 ExpMax= 3.55D+04 ExpMxC= 1.21D+03 IAcc=3 IRadAn=         5 AccDes= 0.00D+00
 Harris functional with IExCor= 1009 and IRadAn=       5 diagonalized for initial guess.
 HarFok:  IExCor= 1009 AccDes= 0.00D+00 IRadAn=         5 IDoV= 1 UseB2=F ITyADJ=14
 ICtDFT=  3500011 ScaDFX=  1.000000  1.000000  1.000000  1.000000
 FoFCou: FMM=F IPFlag=           0 FMFlag=      100000 FMFlg1=        2001
         NFxFlg=           0 DoJE=T BraDBF=F KetDBF=T FulRan=T
         wScrn=  0.000000 ICntrl=       500 IOpCl=  0 I1Cent=   200000004 NGrid=           0
         NMat0=    1 NMatS0=      1 NMatT0=    0 NMatD0=    1 NMtDS0=    0 NMtDT0=    0
 Petite list used in FoFCou.
 Harris En= -2051.68907223393    
 JPrj=0 DoOrth=F DoCkMO=F.
 Initial guess <Sx>= 0.0000 <Sy>= 0.0000 <Sz>= 0.5000 <S**2>= 0.7500 S= 0.5000
 Leave Link  401 at Fri Oct 24 20:57:26 2025, MaxMem= 30870077440 cpu:             663.9 elap:              10.4
 (Enter /public/software/gauss/g16/l502.exe)
 Integral symmetry usage will be decided dynamically.
 UHF open shell SCF:
 Using DIIS extrapolation, IDIIS=  1040.
 NGot= 30870077440 LenX= 30861729606 LenY= 30857626956
 Requested convergence on RMS density matrix=1.00D-08 within 128 cycles.
 Requested convergence on MAX density matrix=1.00D-06.
 Requested convergence on             energy=1.00D-06.
 No special actions if energy rises.
 Fock matrices will be formed incrementally for  20 cycles.

 Cycle   1  Pass 1  IDiag  1:
 FoFJK:  IHMeth= 1 ICntrl=       0 DoSepK=F KAlg= 0 I1Cent=           0 FoldK=F
 IRaf= 630000000 NMat=       1 IRICut=       1 DoRegI=T DoRafI=F ISym2E= 0 IDoP0=0 IntGTp=1.
 FoFCou: FMM=T IPFlag=           0 FMFlag=      100000 FMFlg1=        2001
         NFxFlg=           0 DoJE=F BraDBF=F KetDBF=F FulRan=T
         wScrn=  0.000000 ICntrl=         0 IOpCl=  1 I1Cent=           0 NGrid=           0
         NMat0=    1 NMatS0=      1 NMatT0=    0 NMatD0=    1 NMtDS0=    0 NMtDT0=    0
 Symmetry not used in FoFCou.
 FMM levels:  10  Number of levels for PrismC:   9
 Inv3:  Mode=1 IEnd=    80995248.
 Iteration    1 A*A^-1 deviation from unit magnitude is 1.29D-14 for   5182.
 Iteration    1 A*A^-1 deviation from orthogonality  is 3.70D-15 for   5194   1958.
 Iteration    1 A^-1*A deviation from unit magnitude is 1.29D-14 for   5182.
 Iteration    1 A^-1*A deviation from orthogonality  is 1.23D-13 for   4666   4446.
 E= -2051.49454386898    
 DIIS: error= 3.00D-02 at cycle   1 NSaved=   1.
 NSaved= 1 IEnMin= 1 EnMin= -2051.49454386898     IErMin= 1 ErrMin= 3.00D-02
 ErrMax= 3.00D-02  0.00D+00 EMaxC= 1.00D-01 BMatC= 5.85D+00 BMatP= 5.85D+00
 IDIUse=3 WtCom= 7.00D-01 WtEn= 3.00D-01
 Coeff-Com:  0.100D+01
 Coeff-En:   0.100D+01
 Coeff:      0.100D+01
 Gap=     0.042 Goal=   None    Shift=    0.000
 Gap=     0.138 Goal=   None    Shift=    0.000
 GapD=    0.042 DampG=0.250 DampE=0.500 DampFc=0.2500 IDamp=-1.
 Damping current iteration by 2.50D-01
 RMSDP=1.69D-03 MaxDP=3.49D-01              OVMax= 7.65D-01

 Cycle   2  Pass 1  IDiag  1:
 RMSU=  4.22D-04    CP:  9.95D-01
 E= -2051.88948396999     Delta-E=       -0.394940101018 Rises=F Damp=T
 DIIS: error= 1.22D-02 at cycle   2 NSaved=   2.
 NSaved= 2 IEnMin= 2 EnMin= -2051.88948396999     IErMin= 2 ErrMin= 1.22D-02
 ErrMax= 1.22D-02  0.00D+00 EMaxC= 1.00D-01 BMatC= 2.01D+00 BMatP= 5.85D+00
 IDIUse=3 WtCom= 8.78D-01 WtEn= 1.22D-01
 Coeff-Com: -0.106D+01 0.206D+01
 Coeff-En:   0.000D+00 0.100D+01
 Coeff:     -0.932D+00 0.193D+01
 Gap=     0.017 Goal=   None    Shift=    0.000
 Gap=     0.186 Goal=   None    Shift=    0.000
 RMSDP=1.07D-03 MaxDP=2.61D-01 DE=-3.95D-01 OVMax= 7.24D-01

 Cycle   3  Pass 1  IDiag  1:
 RMSU=  7.72D-04    CP:  9.93D-01  2.75D+00
 E= -2052.56713242949     Delta-E=       -0.677648459501 Rises=F Damp=F
 DIIS: error= 1.59D-02 at cycle   3 NSaved=   3.
 NSaved= 3 IEnMin= 3 EnMin= -2052.56713242949     IErMin= 2 ErrMin= 1.22D-02
 ErrMax= 1.59D-02  0.00D+00 EMaxC= 1.00D-01 BMatC= 3.69D-01 BMatP= 2.01D+00
 IDIUse=3 WtCom= 8.41D-01 WtEn= 1.59D-01
 Coeff-Com: -0.543D+00 0.944D+00 0.599D+00
 Coeff-En:   0.000D+00 0.000D+00 0.100D+01
 Coeff:     -0.457D+00 0.794D+00 0.663D+00
 Gap=     0.048 Goal=   None    Shift=    0.000
 Gap=     0.131 Goal=   None    Shift=    0.000
 RMSDP=3.66D-04 MaxDP=9.95D-02 DE=-6.78D-01 OVMax= 3.50D-01

 Cycle   4  Pass 1  IDiag  1:
 RMSU=  3.15D-04    CP:  9.82D-01  2.60D+00  7.81D-01
 E= -2052.62557457608     Delta-E=       -0.058442146581 Rises=F Damp=F
 DIIS: error= 9.36D-03 at cycle   4 NSaved=   4.
 NSaved= 4 IEnMin= 4 EnMin= -2052.62557457608     IErMin= 4 ErrMin= 9.36D-03
 ErrMax= 9.36D-03  0.00D+00 EMaxC= 1.00D-01 BMatC= 1.16D-01 BMatP= 3.69D-01
 IDIUse=3 WtCom= 9.06D-01 WtEn= 9.36D-02
 Coeff-Com: -0.935D-01 0.156D+00 0.372D+00 0.566D+00
 Coeff-En:   0.000D+00 0.000D+00 0.238D+00 0.762D+00
 Coeff:     -0.847D-01 0.141D+00 0.359D+00 0.584D+00
 Gap=     0.070 Goal=   None    Shift=    0.000
 Gap=     0.142 Goal=   None    Shift=    0.000
 RMSDP=1.62D-04 MaxDP=6.85D-02 DE=-5.84D-02 OVMax= 1.04D-01

 Cycle   5  Pass 1  IDiag  1:
 RMSU=  1.09D-04    CP:  9.86D-01  2.66D+00  8.74D-01  7.15D-01
 E= -2052.64970083196     Delta-E=       -0.024126255887 Rises=F Damp=F
 DIIS: error= 5.96D-04 at cycle   5 NSaved=   5.
 NSaved= 5 IEnMin= 5 EnMin= -2052.64970083196     IErMin= 5 ErrMin= 5.96D-04
 ErrMax= 5.96D-04  0.00D+00 EMaxC= 1.00D-01 BMatC= 6.06D-03 BMatP= 1.16D-01
 IDIUse=3 WtCom= 9.94D-01 WtEn= 5.96D-03
 Coeff-Com: -0.112D-01 0.174D-01 0.151D+00 0.294D+00 0.549D+00
 Coeff-En:   0.000D+00 0.000D+00 0.000D+00 0.000D+00 0.100D+01
 Coeff:     -0.112D-01 0.173D-01 0.150D+00 0.292D+00 0.552D+00
 Gap=     0.074 Goal=   None    Shift=    0.000
 Gap=     0.133 Goal=   None    Shift=    0.000
 RMSDP=5.99D-05 MaxDP=2.10D-02 DE=-2.41D-02 OVMax= 4.97D-02

 Cycle   6  Pass 1  IDiag  1:
 RMSU=  4.60D-05    CP:  9.85D-01  2.64D+00  8.48D-01  8.07D-01  9.14D-01
 E= -2052.65173261812     Delta-E=       -0.002031786154 Rises=F Damp=F
 DIIS: error= 6.05D-04 at cycle   6 NSaved=   6.
 NSaved= 6 IEnMin= 6 EnMin= -2052.65173261812     IErMin= 5 ErrMin= 5.96D-04
 ErrMax= 6.05D-04  0.00D+00 EMaxC= 1.00D-01 BMatC= 1.23D-03 BMatP= 6.06D-03
 IDIUse=3 WtCom= 9.94D-01 WtEn= 5.96D-03
 Coeff-Com:  0.753D-02-0.119D-01 0.195D-01 0.284D-01 0.277D+00 0.679D+00
 Coeff-En:   0.000D+00 0.000D+00 0.000D+00 0.000D+00 0.000D+00 0.100D+01
 Coeff:      0.748D-02-0.118D-01 0.194D-01 0.282D-01 0.276D+00 0.681D+00
 Gap=     0.078 Goal=   None    Shift=    0.000
 Gap=     0.134 Goal=   None    Shift=    0.000
 RMSDP=4.08D-05 MaxDP=1.09D-02 DE=-2.03D-03 OVMax= 4.12D-02

 Cycle   7  Pass 1  IDiag  1:
 RMSU=  2.65D-05    CP:  9.85D-01  2.65D+00  8.58D-01  8.09D-01  1.15D+00
                    CP:  1.31D+00
 E= -2052.65259083288     Delta-E=       -0.000858214760 Rises=F Damp=F
 DIIS: error= 6.67D-04 at cycle   7 NSaved=   7.
 NSaved= 7 IEnMin= 7 EnMin= -2052.65259083288     IErMin= 5 ErrMin= 5.96D-04
 ErrMax= 6.67D-04  0.00D+00 EMaxC= 1.00D-01 BMatC= 4.49D-04 BMatP= 1.23D-03
 IDIUse=3 WtCom= 9.94D-01 WtEn= 5.96D-03
 Coeff-Com:  0.567D-02-0.806D-02-0.969D-02-0.495D-01 0.506D-01 0.291D+00
 Coeff-Com:  0.720D+00
 Coeff-En:   0.000D+00 0.000D+00 0.000D+00 0.000D+00 0.000D+00 0.000D+00
 Coeff-En:   0.100D+01
 Coeff:      0.563D-02-0.801D-02-0.963D-02-0.492D-01 0.503D-01 0.290D+00
 Coeff:      0.721D+00
 Gap=     0.081 Goal=   None    Shift=    0.000
 Gap=     0.135 Goal=   None    Shift=    0.000
 RMSDP=3.28D-05 MaxDP=5.09D-03 DE=-8.58D-04 OVMax= 4.29D-02

 Cycle   8  Pass 1  IDiag  1:
 RMSU=  1.27D-05    CP:  9.86D-01  2.66D+00  8.60D-01  8.21D-01  1.27D+00
                    CP:  1.66D+00  1.82D+00
 E= -2052.65320745311     Delta-E=       -0.000616620235 Rises=F Damp=F
 DIIS: error= 6.17D-04 at cycle   8 NSaved=   8.
 NSaved= 8 IEnMin= 8 EnMin= -2052.65320745311     IErMin= 5 ErrMin= 5.96D-04
 ErrMax= 6.17D-04  0.00D+00 EMaxC= 1.00D-01 BMatC= 3.42D-04 BMatP= 4.49D-04
 IDIUse=3 WtCom= 9.94D-01 WtEn= 5.96D-03
 Coeff-Com:  0.258D-02-0.292D-02 0.182D-02-0.327D-01-0.112D-01-0.406D-01
 Coeff-Com:  0.297D+00 0.786D+00
 Coeff-En:   0.000D+00 0.000D+00 0.000D+00 0.000D+00 0.000D+00 0.000D+00
 Coeff-En:   0.000D+00 0.100D+01
 Coeff:      0.257D-02-0.291D-02 0.181D-02-0.325D-01-0.112D-01-0.403D-01
 Coeff:      0.295D+00 0.788D+00
 Gap=     0.083 Goal=   None    Shift=    0.000
 Gap=     0.135 Goal=   None    Shift=    0.000
 RMSDP=3.41D-05 MaxDP=3.59D-03 DE=-6.17D-04 OVMax= 4.79D-02

 Cycle   9  Pass 1  IDiag  1:
 RMSU=  8.35D-06    CP:  9.86D-01  2.66D+00  8.58D-01  8.28D-01  1.34D+00
                    CP:  1.97D+00  2.74D+00  2.14D+00
 E= -2052.65380778454     Delta-E=       -0.000600331430 Rises=F Damp=F
 DIIS: error= 6.46D-04 at cycle   9 NSaved=   9.
 NSaved= 9 IEnMin= 9 EnMin= -2052.65380778454     IErMin= 5 ErrMin= 5.96D-04
 ErrMax= 6.46D-04  0.00D+00 EMaxC= 1.00D-01 BMatC= 3.42D-04 BMatP= 3.42D-04
 IDIUse=3 WtCom= 9.94D-01 WtEn= 5.96D-03
 Coeff-Com:  0.175D-02-0.160D-02 0.134D-01-0.849D-02 0.746D-02-0.111D+00
 Coeff-Com: -0.101D+00 0.580D+00 0.619D+00
 Coeff-En:   0.000D+00 0.000D+00 0.000D+00 0.000D+00 0.000D+00 0.000D+00
 Coeff-En:   0.000D+00 0.000D+00 0.100D+01
 Coeff:      0.174D-02-0.159D-02 0.133D-01-0.844D-02 0.742D-02-0.110D+00
 Coeff:     -0.100D+00 0.577D+00 0.621D+00
 Gap=     0.085 Goal=   None    Shift=    0.000
 Gap=     0.135 Goal=   None    Shift=    0.000
 RMSDP=3.12D-05 MaxDP=3.78D-03 DE=-6.00D-04 OVMax= 4.28D-02

 Cycle  10  Pass 1  IDiag  1:
 RMSU=  1.64D-05    CP:  9.86D-01  2.67D+00  8.58D-01  8.24D-01  1.39D+00
                    CP:  2.19D+00  3.00D+00  3.00D+00  2.05D+00
 E= -2052.65433732350     Delta-E=       -0.000529538955 Rises=F Damp=F
 DIIS: error= 6.18D-04 at cycle  10 NSaved=  10.
 NSaved=10 IEnMin=10 EnMin= -2052.65433732350     IErMin= 5 ErrMin= 5.96D-04
 ErrMax= 6.18D-04  0.00D+00 EMaxC= 1.00D-01 BMatC= 3.12D-04 BMatP= 3.42D-04
 IDIUse=3 WtCom= 9.94D-01 WtEn= 5.96D-03
 Coeff-Com:  0.373D-02-0.487D-02 0.172D-01 0.440D-02 0.719D-01 0.690D-01
 Coeff-Com: -0.226D+00-0.229D+00-0.458D+00 0.175D+01
 Coeff-En:   0.000D+00 0.000D+00 0.000D+00 0.000D+00 0.000D+00 0.000D+00
 Coeff-En:   0.000D+00 0.000D+00 0.000D+00 0.100D+01
 Coeff:      0.371D-02-0.484D-02 0.171D-01 0.438D-02 0.715D-01 0.686D-01
 Coeff:     -0.224D+00-0.228D+00-0.456D+00 0.175D+01
 Gap=     0.087 Goal=   None    Shift=    0.000
 Gap=     0.135 Goal=   None    Shift=    0.000
 RMSDP=6.07D-05 MaxDP=8.86D-03 DE=-5.30D-04 OVMax= 8.28D-02

 Cycle  11  Pass 1  IDiag  1:
 RMSU=  3.03D-05    CP:  9.87D-01  2.69D+00  8.53D-01  8.08D-01  1.43D+00
                    CP:  2.53D+00  3.00D+00  3.00D+00  3.00D+00  3.00D+00
 E= -2052.65529597222     Delta-E=       -0.000958648726 Rises=F Damp=F
 DIIS: error= 5.59D-04 at cycle  11 NSaved=  11.
 NSaved=11 IEnMin=11 EnMin= -2052.65529597222     IErMin=11 ErrMin= 5.59D-04
 ErrMax= 5.59D-04  0.00D+00 EMaxC= 1.00D-01 BMatC= 2.65D-04 BMatP= 3.12D-04
 IDIUse=3 WtCom= 9.94D-01 WtEn= 5.59D-03
 Coeff-Com:  0.554D-02-0.801D-02-0.224D-02-0.266D-01 0.808D-01 0.371D+00
 Coeff-Com:  0.415D+00-0.579D+00-0.250D+01 0.665D+00 0.257D+01
 Coeff-En:   0.000D+00 0.000D+00 0.000D+00 0.000D+00 0.000D+00 0.000D+00
 Coeff-En:   0.000D+00 0.000D+00 0.000D+00 0.000D+00 0.100D+01
 Coeff:      0.551D-02-0.796D-02-0.223D-02-0.265D-01 0.803D-01 0.369D+00
 Coeff:      0.413D+00-0.576D+00-0.248D+01 0.661D+00 0.257D+01
 Gap=     0.095 Goal=   None    Shift=    0.000
 Gap=     0.133 Goal=   None    Shift=    0.000
 RMSDP=1.39D-04 MaxDP=2.65D-02 DE=-9.59D-04 OVMax= 1.71D-01

 Cycle  12  Pass 1  IDiag  1:
 RMSU=  8.27D-05    CP:  9.88D-01  2.72D+00  8.53D-01  7.15D-01  1.45D+00
                    CP:  3.00D+00  3.00D+00  3.00D+00  3.00D+00  3.00D+00
                    CP:  3.00D+00
 E= -2052.65666711791     Delta-E=       -0.001371145690 Rises=F Damp=F
 DIIS: error= 1.64D-04 at cycle  12 NSaved=  12.
 NSaved=12 IEnMin=12 EnMin= -2052.65666711791     IErMin=12 ErrMin= 1.64D-04
 ErrMax= 1.64D-04  0.00D+00 EMaxC= 1.00D-01 BMatC= 7.02D-05 BMatP= 2.65D-04
 IDIUse=3 WtCom= 9.98D-01 WtEn= 1.64D-03
 Coeff-Com:  0.285D-02-0.420D-02-0.578D-02-0.207D-01 0.379D-02 0.126D+00
 Coeff-Com:  0.358D+00 0.182D+00-0.510D+00-0.808D+00 0.104D+01 0.639D+00
 Coeff-En:   0.000D+00 0.000D+00 0.000D+00 0.000D+00 0.000D+00 0.000D+00
 Coeff-En:   0.000D+00 0.000D+00 0.000D+00 0.000D+00 0.000D+00 0.100D+01
 Coeff:      0.285D-02-0.420D-02-0.577D-02-0.207D-01 0.379D-02 0.125D+00
 Coeff:      0.358D+00 0.182D+00-0.509D+00-0.807D+00 0.104D+01 0.639D+00
 Gap=     0.093 Goal=   None    Shift=    0.000
 Gap=     0.133 Goal=   None    Shift=    0.000
 RMSDP=3.88D-05 MaxDP=6.76D-03 DE=-1.37D-03 OVMax= 2.97D-02

 Cycle  13  Pass 1  IDiag  1:
 RMSU=  1.46D-05    CP:  9.88D-01  2.71D+00  8.45D-01  7.48D-01  1.38D+00
                    CP:  2.74D+00  3.00D+00  3.00D+00  3.00D+00  3.00D+00
                    CP:  3.00D+00  6.29D-01
 E= -2052.65650261546     Delta-E=        0.000164502451 Rises=F Damp=F
 DIIS: error= 3.75D-04 at cycle  13 NSaved=  13.
 NSaved=13 IEnMin=12 EnMin= -2052.65666711791     IErMin=12 ErrMin= 1.64D-04
 ErrMax= 3.75D-04  0.00D+00 EMaxC= 1.00D-01 BMatC= 2.25D-04 BMatP= 7.02D-05
 IDIUse=3 WtCom= 9.98D-01 WtEn= 1.64D-03
 Rare condition: small coef for last iteration:  0.000D+00
 Coeff-Com:  0.353D-03-0.472D-03-0.642D-02-0.167D-01-0.259D-01 0.372D-01
 Coeff-Com:  0.290D+00 0.267D+00-0.145D+00-0.119D+01 0.472D+00 0.735D+00
 Coeff-Com:  0.584D+00
 Coeff-En:   0.000D+00 0.000D+00 0.000D+00 0.000D+00 0.000D+00 0.000D+00
 Coeff-En:   0.000D+00 0.000D+00 0.000D+00 0.000D+00 0.000D+00 0.000D+00
 Coeff-En:   0.100D+01
 Coeff:      0.353D-03-0.472D-03-0.642D-02-0.167D-01-0.259D-01 0.372D-01
 Coeff:      0.290D+00 0.267D+00-0.145D+00-0.119D+01 0.472D+00 0.735D+00
 Coeff:      0.584D+00
 Gap=     0.100 Goal=   None    Shift=    0.000
 Gap=     0.132 Goal=   None    Shift=    0.000
 RMSDP=7.34D-05 MaxDP=1.49D-02 DE= 1.65D-04 OVMax= 8.23D-02

 Cycle  14  Pass 1  IDiag  1:
 RMSU=  1.98D-05    CP:  9.89D-01  2.73D+00  8.49D-01  6.81D-01  1.37D+00
                    CP:  2.94D+00  3.00D+00  3.00D+00  3.00D+00  3.00D+00
                    CP:  3.00D+00  1.42D+00  2.33D-01
 E= -2052.65679613465     Delta-E=       -0.000293519191 Rises=F Damp=F
 DIIS: error= 4.37D-05 at cycle  14 NSaved=  14.
 NSaved=14 IEnMin=14 EnMin= -2052.65679613465     IErMin=14 ErrMin= 4.37D-05
 ErrMax= 4.37D-05  0.00D+00 EMaxC= 1.00D-01 BMatC= 8.99D-06 BMatP= 7.02D-05
 IDIUse=1 WtCom= 1.00D+00 WtEn= 0.00D+00
 Coeff-Com: -0.497D-03 0.797D-03 0.375D-02 0.689D-02-0.102D-01-0.758D-01
 Coeff-Com: -0.106D+00 0.128D+00 0.515D+00-0.539D-02-0.583D+00 0.742D-01
 Coeff-Com:  0.184D+00 0.869D+00
 Coeff:     -0.497D-03 0.797D-03 0.375D-02 0.689D-02-0.102D-01-0.758D-01
 Coeff:     -0.106D+00 0.128D+00 0.515D+00-0.539D-02-0.583D+00 0.742D-01
 Coeff:      0.184D+00 0.869D+00
 Gap=     0.097 Goal=   None    Shift=    0.000
 Gap=     0.132 Goal=   None    Shift=    0.000
 RMSDP=2.55D-05 MaxDP=5.60D-03 DE=-2.94D-04 OVMax= 2.41D-02

 Cycle  15  Pass 1  IDiag  1:
 RMSU=  3.37D-06    CP:  9.88D-01  2.73D+00  8.47D-01  7.05D-01  1.36D+00
                    CP:  2.84D+00  3.00D+00  3.00D+00  3.00D+00  3.00D+00
                    CP:  3.00D+00  1.15D+00  7.31D-01  7.72D-01
 E= -2052.65676893352     Delta-E=        0.000027201136 Rises=F Damp=F
 DIIS: error= 1.78D-04 at cycle  15 NSaved=  15.
 NSaved=15 IEnMin=14 EnMin= -2052.65679613465     IErMin=14 ErrMin= 4.37D-05
 ErrMax= 1.78D-04  0.00D+00 EMaxC= 1.00D-01 BMatC= 4.36D-05 BMatP= 8.99D-06
 IDIUse=1 WtCom= 1.00D+00 WtEn= 0.00D+00
 Coeff-Com:  0.242D-04 0.129D-04 0.267D-02 0.445D-02 0.251D-03-0.412D-01
 Coeff-Com: -0.889D-01 0.217D-01 0.215D+00 0.210D+00-0.357D+00-0.480D-01
 Coeff-Com: -0.213D+00 0.616D+00 0.677D+00
 Coeff:      0.242D-04 0.129D-04 0.267D-02 0.445D-02 0.251D-03-0.412D-01
 Coeff:     -0.889D-01 0.217D-01 0.215D+00 0.210D+00-0.357D+00-0.480D-01
 Coeff:     -0.213D+00 0.616D+00 0.677D+00
 Gap=     0.099 Goal=   None    Shift=    0.000
 Gap=     0.132 Goal=   None    Shift=    0.000
 RMSDP=1.60D-05 MaxDP=3.22D-03 DE= 2.72D-05 OVMax= 1.71D-02

 Cycle  16  Pass 1  IDiag  1:
 RMSU=  1.25D-06    CP:  9.89D-01  2.73D+00  8.48D-01  6.90D-01  1.36D+00
                    CP:  2.88D+00  3.00D+00  3.00D+00  3.00D+00  3.00D+00
                    CP:  3.00D+00  1.32D+00  5.64D-01  9.86D-01  1.27D+00
 E= -2052.65680113889     Delta-E=       -0.000032205374 Rises=F Damp=F
 DIIS: error= 5.86D-05 at cycle  16 NSaved=  16.
 NSaved=16 IEnMin=16 EnMin= -2052.65680113889     IErMin=14 ErrMin= 4.37D-05
 ErrMax= 5.86D-05  0.00D+00 EMaxC= 1.00D-01 BMatC= 5.30D-06 BMatP= 8.99D-06
 IDIUse=1 WtCom= 1.00D+00 WtEn= 0.00D+00
 Coeff-Com:  0.204D-03-0.277D-03 0.474D-03 0.579D-04 0.217D-02-0.320D-02
 Coeff-Com: -0.151D-01-0.316D-02-0.143D-01 0.909D-01-0.413D-01-0.987D-02
 Coeff-Com: -0.185D+00 0.845D-01 0.108D+00 0.986D+00
 Coeff:      0.204D-03-0.277D-03 0.474D-03 0.579D-04 0.217D-02-0.320D-02
 Coeff:     -0.151D-01-0.316D-02-0.143D-01 0.909D-01-0.413D-01-0.987D-02
 Coeff:     -0.185D+00 0.845D-01 0.108D+00 0.986D+00
 Gap=     0.100 Goal=   None    Shift=    0.000
 Gap=     0.132 Goal=   None    Shift=    0.000
 RMSDP=7.52D-06 MaxDP=1.68D-03 DE=-3.22D-05 OVMax= 7.31D-03

 Cycle  17  Pass 1  IDiag  1:
 RMSU=  6.75D-07    CP:  9.89D-01  2.73D+00  8.49D-01  6.82D-01  1.36D+00
                    CP:  2.90D+00  3.00D+00  3.00D+00  3.00D+00  3.00D+00
                    CP:  3.00D+00  1.40D+00  4.87D-01  1.08D+00  1.50D+00
                    CP:  1.87D+00
 E= -2052.65680571897     Delta-E=       -0.000004580076 Rises=F Damp=F
 DIIS: error= 6.88D-06 at cycle  17 NSaved=  17.
 NSaved=17 IEnMin=17 EnMin= -2052.65680571897     IErMin=17 ErrMin= 6.88D-06
 ErrMax= 6.88D-06  0.00D+00 EMaxC= 1.00D-01 BMatC= 2.58D-07 BMatP= 5.30D-06
 IDIUse=1 WtCom= 1.00D+00 WtEn= 0.00D+00
 Coeff-Com:  0.171D-04-0.292D-04-0.497D-03-0.927D-03 0.130D-03 0.826D-02
 Coeff-Com:  0.200D-01 0.454D-02-0.329D-01-0.421D-01 0.554D-01 0.206D-01
 Coeff-Com:  0.273D-01-0.152D+00-0.227D+00 0.308D+00 0.101D+01
 Coeff:      0.171D-04-0.292D-04-0.497D-03-0.927D-03 0.130D-03 0.826D-02
 Coeff:      0.200D-01 0.454D-02-0.329D-01-0.421D-01 0.554D-01 0.206D-01
 Coeff:      0.273D-01-0.152D+00-0.227D+00 0.308D+00 0.101D+01
 Gap=     0.100 Goal=   None    Shift=    0.000
 Gap=     0.132 Goal=   None    Shift=    0.000
 RMSDP=1.65D-06 MaxDP=2.05D-04 DE=-4.58D-06 OVMax= 1.38D-03

 Cycle  18  Pass 1  IDiag  1:
 RMSU=  5.04D-07    CP:  9.89D-01  2.73D+00  8.49D-01  6.82D-01  1.36D+00
                    CP:  2.89D+00  3.00D+00  3.00D+00  3.00D+00  3.00D+00
                    CP:  3.00D+00  1.39D+00  5.15D-01  1.08D+00  1.68D+00
                    CP:  2.53D+00  2.03D+00
 E= -2052.65680646017     Delta-E=       -0.000000741201 Rises=F Damp=F
 DIIS: error= 7.94D-06 at cycle  18 NSaved=  18.
 NSaved=18 IEnMin=18 EnMin= -2052.65680646017     IErMin=17 ErrMin= 6.88D-06
 ErrMax= 7.94D-06  0.00D+00 EMaxC= 1.00D-01 BMatC= 2.59D-07 BMatP= 2.58D-07
 IDIUse=1 WtCom= 1.00D+00 WtEn= 0.00D+00
 Coeff-Com: -0.890D-04 0.119D-03-0.321D-03-0.299D-03-0.965D-03 0.297D-02
 Coeff-Com:  0.125D-01 0.489D-02 0.950D-04-0.520D-01 0.302D-01 0.173D-01
 Coeff-Com:  0.798D-01-0.725D-01-0.147D+00-0.331D+00 0.399D+00 0.106D+01
 Coeff:     -0.890D-04 0.119D-03-0.321D-03-0.299D-03-0.965D-03 0.297D-02
 Coeff:      0.125D-01 0.489D-02 0.950D-04-0.520D-01 0.302D-01 0.173D-01
 Coeff:      0.798D-01-0.725D-01-0.147D+00-0.331D+00 0.399D+00 0.106D+01
 Gap=     0.100 Goal=   None    Shift=    0.000
 Gap=     0.132 Goal=   None    Shift=    0.000
 RMSDP=1.42D-06 MaxDP=2.21D-04 DE=-7.41D-07 OVMax= 1.27D-03

 Cycle  19  Pass 1  IDiag  1:
 RMSU=  3.55D-07    CP:  9.89D-01  2.73D+00  8.49D-01  6.82D-01  1.36D+00
                    CP:  2.89D+00  3.00D+00  3.00D+00  3.00D+00  3.00D+00
                    CP:  3.00D+00  1.40D+00  5.18D-01  1.09D+00  1.84D+00
                    CP:  3.00D+00  3.00D+00  2.07D+00
 E= -2052.65680711185     Delta-E=       -0.000000651684 Rises=F Damp=F
 DIIS: error= 5.43D-06 at cycle  19 NSaved=  19.
 NSaved=19 IEnMin=19 EnMin= -2052.65680711185     IErMin=19 ErrMin= 5.43D-06
 ErrMax= 5.43D-06  0.00D+00 EMaxC= 1.00D-01 BMatC= 1.14D-07 BMatP= 2.58D-07
 IDIUse=1 WtCom= 1.00D+00 WtEn= 0.00D+00
 Coeff-Com: -0.502D-04 0.709D-04 0.150D-04 0.126D-03-0.832D-03-0.394D-02
 Coeff-Com: -0.193D-02 0.598D-02 0.248D-01-0.138D-01-0.222D-01 0.565D-03
 Coeff-Com:  0.222D-02 0.790D-01 0.778D-01-0.286D+00-0.483D+00 0.233D+00
 Coeff-Com:  0.139D+01
 Coeff:     -0.502D-04 0.709D-04 0.150D-04 0.126D-03-0.832D-03-0.394D-02
 Coeff:     -0.193D-02 0.598D-02 0.248D-01-0.138D-01-0.222D-01 0.565D-03
 Coeff:      0.222D-02 0.790D-01 0.778D-01-0.286D+00-0.483D+00 0.233D+00
 Coeff:      0.139D+01
 Gap=     0.100 Goal=   None    Shift=    0.000
 Gap=     0.132 Goal=   None    Shift=    0.000
 RMSDP=1.85D-06 MaxDP=2.79D-04 DE=-6.52D-07 OVMax= 1.48D-03

 Cycle  20  Pass 1  IDiag  1:
 RMSU=  9.41D-07    CP:  9.89D-01  2.73D+00  8.49D-01  6.81D-01  1.36D+00
                    CP:  2.90D+00  3.00D+00  3.00D+00  3.00D+00  3.00D+00
                    CP:  3.00D+00  1.41D+00  5.20D-01  1.11D+00  2.00D+00
                    CP:  3.00D+00  3.00D+00  3.00D+00  3.00D+00
 E= -2052.65680765632     Delta-E=       -0.000000544471 Rises=F Damp=F
 DIIS: error= 2.45D-06 at cycle  20 NSaved=  20.
 NSaved=20 IEnMin=20 EnMin= -2052.65680765632     IErMin=20 ErrMin= 2.45D-06
 ErrMax= 2.45D-06  0.00D+00 EMaxC= 1.00D-01 BMatC= 3.36D-08 BMatP= 1.14D-07
 IDIUse=1 WtCom= 1.00D+00 WtEn= 0.00D+00
 Coeff-Com:  0.171D-04-0.211D-04 0.693D-04 0.417D-04-0.936D-04-0.320D-02
 Coeff-Com: -0.454D-02 0.376D-02 0.132D-01 0.685D-02-0.215D-01-0.544D-02
 Coeff-Com: -0.409D-01 0.723D-01 0.110D+00 0.604D-01-0.430D+00-0.552D+00
 Coeff-Com:  0.649D+00 0.114D+01
 Coeff:      0.171D-04-0.211D-04 0.693D-04 0.417D-04-0.936D-04-0.320D-02
 Coeff:     -0.454D-02 0.376D-02 0.132D-01 0.685D-02-0.215D-01-0.544D-02
 Coeff:     -0.409D-01 0.723D-01 0.110D+00 0.604D-01-0.430D+00-0.552D+00
 Coeff:      0.649D+00 0.114D+01
 Gap=     0.100 Goal=   None    Shift=    0.000
 Gap=     0.132 Goal=   None    Shift=    0.000
 RMSDP=1.52D-06 MaxDP=2.32D-04 DE=-5.44D-07 OVMax= 1.21D-03

 Cycle  21  Pass 1  IDiag  1:
 Restarting incremental Fock formation.
 E= -2052.65680787840     Delta-E=       -0.000000222079 Rises=F Damp=F
 DIIS: error= 1.96D-06 at cycle  21 NSaved=  20.
 NSaved=20 IEnMin=20 EnMin= -2052.65680787840     IErMin=20 ErrMin= 1.96D-06
 ErrMax= 1.96D-06  0.00D+00 EMaxC= 1.00D-01 BMatC= 1.18D-08 BMatP= 3.36D-08
 IDIUse=1 WtCom= 1.00D+00 WtEn= 0.00D+00
 Coeff-Com:  0.386D-05 0.895D-05-0.366D-05 0.840D-04 0.218D-04-0.558D-03
 Coeff-Com:  0.736D-03-0.914D-03-0.916D-04 0.215D-02 0.227D-04-0.471D-02
 Coeff-Com: -0.680D-02 0.479D-02 0.895D-01 0.521D-01-0.227D+00-0.279D+00
 Coeff-Com:  0.324D+00 0.105D+01
 Coeff:      0.386D-05 0.895D-05-0.366D-05 0.840D-04 0.218D-04-0.558D-03
 Coeff:      0.736D-03-0.914D-03-0.916D-04 0.215D-02 0.227D-04-0.471D-02
 Coeff:     -0.680D-02 0.479D-02 0.895D-01 0.521D-01-0.227D+00-0.279D+00
 Coeff:      0.324D+00 0.105D+01
 Gap=     0.100 Goal=   None    Shift=    0.000
 Gap=     0.132 Goal=   None    Shift=    0.000
 RMSDP=6.39D-07 MaxDP=1.10D-04 DE=-2.22D-07 OVMax= 5.07D-04

 Cycle  22  Pass 1  IDiag  1:
 RMSU=  6.37D-07    CP:  1.00D+00
 E= -2052.65680792421     Delta-E=       -0.000000045809 Rises=F Damp=F
 DIIS: error= 8.01D-07 at cycle  22 NSaved=  20.
 NSaved=20 IEnMin=20 EnMin= -2052.65680792421     IErMin=20 ErrMin= 8.01D-07
 ErrMax= 8.01D-07  0.00D+00 EMaxC= 1.00D-01 BMatC= 3.16D-09 BMatP= 1.18D-08
 IDIUse=1 WtCom= 1.00D+00 WtEn= 0.00D+00
 Coeff-Com: -0.167D-04-0.141D-04 0.613D-04 0.639D-03 0.548D-03-0.328D-03
 Coeff-Com: -0.255D-02-0.696D-03 0.455D-02 0.572D-03 0.570D-02-0.185D-01
 Coeff-Com: -0.198D-01 0.315D-01 0.129D+00 0.165D-01-0.299D+00-0.127D+00
 Coeff-Com:  0.494D+00 0.784D+00
 Coeff:     -0.167D-04-0.141D-04 0.613D-04 0.639D-03 0.548D-03-0.328D-03
 Coeff:     -0.255D-02-0.696D-03 0.455D-02 0.572D-03 0.570D-02-0.185D-01
 Coeff:     -0.198D-01 0.315D-01 0.129D+00 0.165D-01-0.299D+00-0.127D+00
 Coeff:      0.494D+00 0.784D+00
 Gap=     0.100 Goal=   None    Shift=    0.000
 Gap=     0.132 Goal=   None    Shift=    0.000
 RMSDP=2.64D-07 MaxDP=4.31D-05 DE=-4.58D-08 OVMax= 1.84D-04

 Cycle  23  Pass 1  IDiag  1:
 RMSU=  8.01D-08    CP:  1.00D+00  1.39D+00
 E= -2052.65680793188     Delta-E=       -0.000000007664 Rises=F Damp=F
 DIIS: error= 7.52D-07 at cycle  23 NSaved=  20.
 NSaved=20 IEnMin=20 EnMin= -2052.65680793188     IErMin=20 ErrMin= 7.52D-07
 ErrMax= 7.52D-07  0.00D+00 EMaxC= 1.00D-01 BMatC= 1.80D-09 BMatP= 3.16D-09
 IDIUse=1 WtCom= 1.00D+00 WtEn= 0.00D+00
 Coeff-Com:  0.321D-05-0.570D-04-0.181D-03-0.791D-04 0.722D-05 0.894D-03
 Coeff-Com:  0.104D-02-0.180D-02-0.111D-03 0.315D-03 0.220D-02-0.338D-02
 Coeff-Com: -0.287D-01 0.334D-02 0.761D-01 0.471D-01-0.131D+00-0.275D+00
 Coeff-Com:  0.156D+00 0.115D+01
 Coeff:      0.321D-05-0.570D-04-0.181D-03-0.791D-04 0.722D-05 0.894D-03
 Coeff:      0.104D-02-0.180D-02-0.111D-03 0.315D-03 0.220D-02-0.338D-02
 Coeff:     -0.287D-01 0.334D-02 0.761D-01 0.471D-01-0.131D+00-0.275D+00
 Coeff:      0.156D+00 0.115D+01
 Gap=     0.100 Goal=   None    Shift=    0.000
 Gap=     0.132 Goal=   None    Shift=    0.000
 RMSDP=1.63D-07 MaxDP=3.06D-05 DE=-7.66D-09 OVMax= 1.06D-04

 Cycle  24  Pass 1  IDiag  1:
 RMSU=  9.69D-08    CP:  1.00D+00  1.60D+00  6.85D-01
 E= -2052.65680793576     Delta-E=       -0.000000003888 Rises=F Damp=F
 DIIS: error= 3.92D-07 at cycle  24 NSaved=  20.
 NSaved=20 IEnMin=20 EnMin= -2052.65680793576     IErMin=20 ErrMin= 3.92D-07
 ErrMax= 3.92D-07  0.00D+00 EMaxC= 1.00D-01 BMatC= 5.36D-10 BMatP= 1.80D-09
 IDIUse=1 WtCom= 1.00D+00 WtEn= 0.00D+00
 Coeff-Com: -0.386D-04-0.166D-03-0.109D-04 0.582D-04 0.514D-03 0.781D-04
 Coeff-Com: -0.134D-02 0.375D-03-0.108D-02 0.483D-02 0.217D-02-0.181D-01
 Coeff-Com: -0.278D-01 0.199D-01 0.889D-01-0.131D-01-0.211D+00-0.145D+00
 Coeff-Com:  0.374D+00 0.927D+00
 Coeff:     -0.386D-04-0.166D-03-0.109D-04 0.582D-04 0.514D-03 0.781D-04
 Coeff:     -0.134D-02 0.375D-03-0.108D-02 0.483D-02 0.217D-02-0.181D-01
 Coeff:     -0.278D-01 0.199D-01 0.889D-01-0.131D-01-0.211D+00-0.145D+00
 Coeff:      0.374D+00 0.927D+00
 Gap=     0.100 Goal=   None    Shift=    0.000
 Gap=     0.132 Goal=   None    Shift=    0.000
 RMSDP=1.27D-07 MaxDP=2.23D-05 DE=-3.89D-09 OVMax= 1.06D-04

 Cycle  25  Pass 1  IDiag  1:
 RMSU=  2.06D-08    CP:  1.00D+00  1.65D+00 -1.76D-01  1.99D+00
 E= -2052.65680793646     Delta-E=       -0.000000000694 Rises=F Damp=F
 DIIS: error= 4.24D-07 at cycle  25 NSaved=  20.
 NSaved=20 IEnMin=20 EnMin= -2052.65680793646     IErMin=19 ErrMin= 3.92D-07
 ErrMax= 4.24D-07  0.00D+00 EMaxC= 1.00D-01 BMatC= 3.73D-10 BMatP= 5.36D-10
 IDIUse=1 WtCom= 1.00D+00 WtEn= 0.00D+00
 Coeff-Com: -0.536D-04-0.887D-04 0.212D-04 0.127D-03 0.156D-03-0.322D-03
 Coeff-Com: -0.514D-04-0.429D-03 0.124D-02 0.367D-02 0.501D-02-0.164D-01
 Coeff-Com: -0.246D-01 0.234D-01 0.500D-01 0.207D-01-0.130D+00-0.346D+00
 Coeff-Com:  0.392D+00 0.102D+01
 Coeff:     -0.536D-04-0.887D-04 0.212D-04 0.127D-03 0.156D-03-0.322D-03
 Coeff:     -0.514D-04-0.429D-03 0.124D-02 0.367D-02 0.501D-02-0.164D-01
 Coeff:     -0.246D-01 0.234D-01 0.500D-01 0.207D-01-0.130D+00-0.346D+00
 Coeff:      0.392D+00 0.102D+01
 Gap=     0.100 Goal=   None    Shift=    0.000
 Gap=     0.132 Goal=   None    Shift=    0.000
 RMSDP=6.72D-08 MaxDP=1.45D-05 DE=-6.94D-10 OVMax= 5.00D-05

 Cycle  26  Pass 1  IDiag  1:
 RMSU=  2.55D-08    CP:  1.00D+00  1.72D+00  3.90D-01  1.96D+00  7.64D-01
 E= -2052.65680793715     Delta-E=       -0.000000000688 Rises=F Damp=F
 DIIS: error= 6.78D-08 at cycle  26 NSaved=  20.
 NSaved=20 IEnMin=20 EnMin= -2052.65680793715     IErMin=20 ErrMin= 6.78D-08
 ErrMax= 6.78D-08  0.00D+00 EMaxC= 1.00D-01 BMatC= 4.25D-11 BMatP= 3.73D-10
 IDIUse=1 WtCom= 1.00D+00 WtEn= 0.00D+00
 Coeff-Com: -0.306D-04 0.140D-04 0.283D-04 0.707D-05 0.602D-04-0.145D-03
 Coeff-Com:  0.279D-03-0.512D-03 0.103D-02 0.562D-02-0.123D-02-0.124D-01
 Coeff-Com: -0.987D-02 0.206D-01 0.547D-01-0.194D-01-0.212D+00-0.596D-01
 Coeff-Com:  0.408D+00 0.825D+00
 Coeff:     -0.306D-04 0.140D-04 0.283D-04 0.707D-05 0.602D-04-0.145D-03
 Coeff:      0.279D-03-0.512D-03 0.103D-02 0.562D-02-0.123D-02-0.124D-01
 Coeff:     -0.987D-02 0.206D-01 0.547D-01-0.194D-01-0.212D+00-0.596D-01
 Coeff:      0.408D+00 0.825D+00
 Gap=     0.100 Goal=   None    Shift=    0.000
 Gap=     0.132 Goal=   None    Shift=    0.000
 RMSDP=2.56D-08 MaxDP=5.38D-06 DE=-6.88D-10 OVMax= 1.78D-05

 Cycle  27  Pass 1  IDiag  1:
 RMSU=  4.81D-09    CP:  1.00D+00  1.74D+00  6.22D-01  1.94D+00  6.94D-01
                    CP:  1.38D+00
 E= -2052.65680793721     Delta-E=       -0.000000000066 Rises=F Damp=F
 DIIS: error= 9.73D-08 at cycle  27 NSaved=  20.
 NSaved=20 IEnMin=20 EnMin= -2052.65680793721     IErMin=19 ErrMin= 6.78D-08
 ErrMax= 9.73D-08  0.00D+00 EMaxC= 1.00D-01 BMatC= 1.85D-11 BMatP= 4.25D-11
 IDIUse=1 WtCom= 1.00D+00 WtEn= 0.00D+00
 Coeff-Com:  0.180D-04 0.737D-04-0.600D-04 0.468D-04-0.531D-04 0.250D-03
 Coeff-Com: -0.526D-03-0.123D-02-0.145D-03 0.544D-02 0.510D-02-0.123D-01
 Coeff-Com: -0.111D-01 0.163D-01 0.392D-01 0.451D-01-0.176D+00-0.212D+00
 Coeff-Com:  0.252D+00 0.105D+01
 Coeff:      0.180D-04 0.737D-04-0.600D-04 0.468D-04-0.531D-04 0.250D-03
 Coeff:     -0.526D-03-0.123D-02-0.145D-03 0.544D-02 0.510D-02-0.123D-01
 Coeff:     -0.111D-01 0.163D-01 0.392D-01 0.451D-01-0.176D+00-0.212D+00
 Coeff:      0.252D+00 0.105D+01
 Gap=     0.100 Goal=   None    Shift=    0.000
 Gap=     0.132 Goal=   None    Shift=    0.000
 RMSDP=1.20D-08 MaxDP=2.72D-06 DE=-6.64D-11 OVMax= 7.98D-06

 Cycle  28  Pass 1  IDiag  1:
 RMSU=  3.76D-09    CP:  1.00D+00  1.75D+00  6.56D-01  2.00D+00  7.28D-01
                    CP:  1.54D+00  2.02D+00
 E= -2052.65680793713     Delta-E=        0.000000000082 Rises=F Damp=F
 DIIS: error= 9.03D-08 at cycle  28 NSaved=  20.
 NSaved=20 IEnMin=19 EnMin= -2052.65680793721     IErMin=18 ErrMin= 6.78D-08
 ErrMax= 9.03D-08  0.00D+00 EMaxC= 1.00D-01 BMatC= 1.54D-11 BMatP= 1.85D-11
 IDIUse=1 WtCom= 1.00D+00 WtEn= 0.00D+00
 Coeff-Com:  0.216D-04-0.594D-04 0.505D-04 0.658D-04 0.148D-03-0.165D-03
 Coeff-Com: -0.126D-02-0.182D-02 0.403D-02 0.689D-02-0.548D-02-0.124D-01
 Coeff-Com: -0.386D-02 0.245D-01 0.719D-01-0.715D-01-0.187D+00-0.926D-01
 Coeff-Com:  0.438D+00 0.831D+00
 Coeff:      0.216D-04-0.594D-04 0.505D-04 0.658D-04 0.148D-03-0.165D-03
 Coeff:     -0.126D-02-0.182D-02 0.403D-02 0.689D-02-0.548D-02-0.124D-01
 Coeff:     -0.386D-02 0.245D-01 0.719D-01-0.715D-01-0.187D+00-0.926D-01
 Coeff:      0.438D+00 0.831D+00
 Gap=     0.100 Goal=   None    Shift=    0.000
 Gap=     0.132 Goal=   None    Shift=    0.000
 RMSDP=1.20D-08 MaxDP=2.10D-06 DE= 8.19D-11 OVMax= 1.13D-05

 Cycle  29  Pass 1  IDiag  1:
 RMSU=  1.99D-09    CP:  1.00D+00  1.75D+00  5.71D-01  2.09D+00  8.19D-01
                    CP:  1.54D+00  2.40D+00  1.40D+00
 E= -2052.65680793716     Delta-E=       -0.000000000029 Rises=F Damp=F
 DIIS: error= 1.03D-08 at cycle  29 NSaved=  20.
 NSaved=20 IEnMin=18 EnMin= -2052.65680793721     IErMin=20 ErrMin= 1.03D-08
 ErrMax= 1.03D-08  0.00D+00 EMaxC= 1.00D-01 BMatC= 1.01D-12 BMatP= 1.54D-11
 IDIUse=1 WtCom= 1.00D+00 WtEn= 0.00D+00
 Coeff-Com:  0.189D-05-0.316D-04 0.299D-04-0.900D-04 0.243D-03 0.415D-04
 Coeff-Com: -0.840D-03-0.107D-02 0.100D-02 0.350D-02-0.678D-03-0.913D-02
 Coeff-Com: -0.492D-02 0.162D-01 0.330D-01-0.164D-02-0.136D+00-0.184D+00
 Coeff-Com:  0.381D+00 0.903D+00
 Coeff:      0.189D-05-0.316D-04 0.299D-04-0.900D-04 0.243D-03 0.415D-04
 Coeff:     -0.840D-03-0.107D-02 0.100D-02 0.350D-02-0.678D-03-0.913D-02
 Coeff:     -0.492D-02 0.162D-01 0.330D-01-0.164D-02-0.136D+00-0.184D+00
 Coeff:      0.381D+00 0.903D+00
 Gap=     0.100 Goal=   None    Shift=    0.000
 Gap=     0.132 Goal=   None    Shift=    0.000
 RMSDP=4.57D-09 MaxDP=5.97D-07 DE=-2.91D-11 OVMax= 4.45D-06

 Error on total polarization charges =  0.02413
 SCF Done:  E(UM062X) =  -2052.65680794     A.U. after   29 cycles
            NFock= 29  Conv=0.46D-08     -V/T= 2.0054
 <Sx>= 0.0000 <Sy>= 0.0000 <Sz>= 0.5000 <S**2>= 0.7699 S= 0.5099
 <L.S>= 0.000000000000E+00
 KE= 2.041712655565D+03 PE=-1.506463049567D+04 EE= 5.846049032213D+03
 Annihilation of the first spin contaminant:
 S**2 before annihilation     0.7699,   after     0.7502
 Leave Link  502 at Fri Oct 24 21:43:28 2025, MaxMem= 30870077440 cpu:          175051.1 elap:            2761.6
 (Enter /public/software/gauss/g16/l601.exe)
 Copying SCF densities to generalized density rwf, IOpCl= 1 IROHF=0.

 **********************************************************************

            Population analysis using the SCF density.

 **********************************************************************

 Orbital symmetries:
 Alpha Orbitals:
       Occupied  (A) (A) (A) (A) (A) (A) (A) (A) (A) (A) (A) (A)
                 (A) (A) (A) (A) (A) (A) (A) (A) (A) (A) (A) (A)
                 (A) (A) (A) (A) (A) (A) (A) (A) (A) (A) (A) (A)
                 (A) (A) (A) (A) (A) (A) (A) (A) (A) (A) (A) (A)
                 (A) (A) (A) (A) (A) (A) (A) (A) (A) (A) (A) (A)
                 (A) (A) (A) (A) (A) (A) (A) (A) (A) (A) (A) (A)
                 (A) (A) (A) (A) (A) (A) (A) (A) (A) (A) (A) (A)
                 (A) (A) (A) (A) (A) (A) (A) (A) (A) (A) (A) (A)
                 (A) (A) (A) (A) (A) (A) (A) (A) (A) (A) (A) (A)
                 (A) (A) (A) (A) (A) (A) (A) (A) (A) (A) (A) (A)
                 (A) (A) (A) (A) (A) (A) (A) (A) (A) (A) (A) (A)
                 (A) (A) (A) (A) (A) (A) (A) (A) (A) (A) (A) (A)
                 (A) (A) (A) (A) (A) (A) (A) (A) (A) (A) (A) (A)
                 (A) (A)
       Virtual   (A) (A) (A) (A) (A) (A) (A) (A) (A) (A) (A) (A)
                 (A) (A) (A) (A) (A) (A) (A) (A) (A) (A) (A) (A)
                 (A) (A) (A) (A) (A) (A) (A) (A) (A) (A) (A) (A)
                 (A) (A) (A) (A) (A) (A) (A) (A) (A) (A) (A) (A)
                 (A) (A) (A) (A) (A) (A) (A) (A) (A) (A) (A) (A)
                 (A) (A) (A) (A) (A) (A) (A) (A) (A) (A) (A) (A)
                 (A) (A) (A) (A) (A) (A) (A) (A) (A) (A) (A) (A)
                 (A) (A) (A) (A) (A) (A) (A) (A) (A) (A) (A) (A)
                 (A) (A) (A) (A) (A) (A) (A) (A) (A) (A) (A) (A)
                 (A) (A) (A) (A) (A) (A) (A) (A) (A) (A) (A) (A)
                 (A) (A) (A) (A) (A) (A) (A) (A) (A) (A) (A) (A)
                 (A) (A) (A) (A) (A) (A) (A) (A) (A) (A) (A) (A)
                 (A) (A) (A) (A) (A) (A) (A) (A) (A) (A) (A) (A)
                 (A) (A) (A) (A) (A) (A) (A) (A) (A) (A) (A) (A)
                 (A) (A) (A) (A) (A) (A) (A) (A) (A) (A) (A) (A)
                 (A) (A) (A) (A) (A) (A) (A) (A) (A) (A) (A) (A)
                 (A) (A) (A) (A) (A) (A) (A) (A) (A) (A) (A) (A)
                 (A) (A) (A) (A) (A) (A) (A) (A) (A) (A) (A) (A)
                 (A) (A) (A) (A) (A) (A) (A) (A) (A) (A) (A) (A)
                 (A) (A) (A) (A) (A) (A) (A) (A) (A) (A) (A) (A)
                 (A) (A) (A) (A) (A) (A) (A) (A) (A) (A) (A) (A)
                 (A) (A) (A) (A) (A) (A) (A) (A) (A) (A) (A) (A)
                 (A) (A) (A) (A) (A) (A) (A) (A) (A) (A) (A) (A)
                 (A) (A) (A) (A) (A) (A) (A) (A) (A) (A) (A) (A)
                 (A) (A) (A) (A) (A) (A) (A) (A) (A) (A) (A) (A)
                 (A) (A) (A) (A) (A) (A) (A) (A) (A) (A) (A) (A)
                 (A) (A) (A) (A) (A) (A) (A) (A) (A) (A) (A) (A)
                 (A) (A) (A) (A) (A) (A) (A) (A) (A) (A) (A) (A)
                 (A) (A) (A) (A) (A) (A) (A) (A) (A) (A) (A) (A)
                 (A) (A) (A) (A) (A) (A) (A) (A) (A) (A) (A) (A)
                 (A) (A) (A) (A) (A) (A) (A) (A) (A) (A) (A) (A)
                 (A) (A) (A) (A) (A) (A) (A) (A) (A) (A) (A) (A)
                 (A) (A) (A) (A) (A) (A) (A) (A) (A) (A) (A) (A)
                 (A) (A) (A) (A) (A) (A) (A) (A) (A) (A) (A) (A)
                 (A) (A) (A) (A) (A) (A) (A) (A) (A) (A) (A) (A)
                 (A) (A) (A) (A) (A) (A) (A) (A) (A) (A) (A) (A)
                 (A) (A) (A) (A) (A) (A) (A) (A) (A) (A) (A) (A)
                 (A) (A) (A) (A) (A) (A) (A) (A) (A) (A) (A) (A)
                 (A) (A) (A) (A) (A) (A) (A) (A) (A) (A) (A) (A)
                 (A) (A) (A) (A) (A) (A) (A) (A) (A) (A) (A) (A)
                 (A) (A) (A) (A) (A) (A) (A) (A) (A) (A) (A) (A)
                 (A) (A) (A) (A) (A) (A) (A) (A) (A) (A) (A) (A)
                 (A) (A) (A) (A) (A) (A) (A) (A) (A) (A) (A) (A)
                 (A) (A) (A) (A) (A) (A) (A) (A) (A) (A) (A) (A)
                 (A) (A) (A) (A) (A) (A) (A) (A) (A) (A) (A) (A)
                 (A) (A) (A) (A) (A) (A) (A) (A) (A) (A) (A) (A)
                 (A) (A) (A) (A) (A) (A) (A) (A) (A) (A) (A) (A)
                 (A) (A) (A) (A) (A) (A) (A) (A) (A) (A) (A) (A)
                 (A) (A) (A) (A) (A) (A) (A) (A) (A) (A) (A) (A)
                 (A) (A) (A) (A) (A) (A) (A) (A) (A) (A) (A) (A)
                 (A) (A) (A) (A) (A) (A) (A) (A) (A) (A) (A) (A)
                 (A) (A) (A) (A) (A) (A) (A) (A) (A) (A) (A) (A)
                 (A) (A) (A) (A) (A) (A) (A) (A) (A) (A) (A) (A)
                 (A) (A) (A) (A) (A) (A) (A) (A) (A) (A) (A) (A)
                 (A) (A) (A) (A) (A) (A) (A) (A) (A) (A) (A) (A)
                 (A) (A) (A) (A) (A) (A) (A) (A) (A) (A) (A) (A)
                 (A) (A) (A) (A) (A) (A) (A) (A) (A) (A) (A) (A)
                 (A) (A) (A) (A) (A) (A) (A) (A) (A) (A) (A) (A)
                 (A) (A) (A) (A) (A) (A) (A) (A) (A) (A) (A) (A)
                 (A) (A) (A) (A) (A) (A) (A) (A) (A) (A) (A) (A)
                 (A) (A) (A) (A) (A) (A) (A) (A) (A) (A) (A) (A)
                 (A) (A) (A) (A) (A) (A) (A) (A) (A) (A) (A) (A)
                 (A) (A) (A) (A) (A) (A) (A) (A) (A) (A) (A) (A)
                 (A) (A) (A) (A) (A) (A) (A) (A) (A) (A) (A) (A)
                 (A) (A) (A) (A) (A) (A) (A) (A) (A) (A) (A) (A)
                 (A) (A) (A) (A) (A) (A) (A) (A) (A) (A) (A) (A)
                 (A) (A) (A) (A) (A) (A) (A) (A) (A) (A) (A) (A)
                 (A) (A) (A) (A) (A) (A) (A) (A) (A) (A) (A) (A)
                 (A) (A) (A) (A) (A) (A) (A) (A) (A) (A) (A) (A)
                 (A) (A) (A) (A) (A) (A) (A) (A) (A) (A) (A) (A)
                 (A) (A) (A) (A) (A) (A) (A) (A) (A) (A) (A) (A)
                 (A) (A) (A) (A) (A) (A) (A) (A) (A) (A) (A) (A)
                 (A) (A) (A) (A) (A) (A) (A) (A) (A) (A) (A) (A)
                 (A) (A) (A) (A) (A) (A) (A) (A) (A) (A) (A) (A)
                 (A) (A) (A) (A) (A) (A) (A) (A) (A) (A) (A) (A)
                 (A) (A) (A) (A) (A) (A) (A) (A) (A) (A) (A) (A)
                 (A) (A) (A) (A) (A) (A) (A) (A) (A) (A) (A) (A)
                 (A) (A) (A) (A) (A) (A) (A) (A) (A) (A) (A) (A)
                 (A) (A) (A) (A) (A) (A) (A) (A) (A) (A) (A) (A)
                 (A) (A) (A) (A) (A) (A) (A) (A) (A) (A) (A) (A)
                 (A) (A) (A) (A) (A) (A) (A) (A) (A) (A) (A) (A)
                 (A) (A) (A) (A) (A) (A) (A) (A) (A) (A) (A) (A)
                 (A) (A) (A) (A) (A) (A) (A) (A) (A) (A) (A) (A)
                 (A) (A) (A) (A) (A) (A) (A) (A) (A) (A) (A) (A)
                 (A) (A) (A) (A) (A) (A) (A) (A) (A) (A) (A) (A)
                 (A) (A) (A) (A) (A) (A) (A) (A) (A) (A) (A) (A)
                 (A) (A) (A) (A) (A) (A) (A) (A) (A) (A) (A) (A)
                 (A) (A) (A) (A) (A) (A) (A) (A) (A) (A) (A) (A)
                 (A) (A) (A) (A) (A) (A) (A) (A) (A) (A) (A) (A)
                 (A) (A) (A) (A) (A) (A) (A) (A) (A) (A) (A) (A)
                 (A) (A) (A) (A) (A) (A) (A) (A) (A) (A) (A) (A)
                 (A) (A) (A) (A) (A) (A) (A) (A) (A) (A) (A) (A)
                 (A) (A) (A) (A) (A) (A) (A) (A) (A) (A) (A) (A)
                 (A) (A) (A) (A) (A) (A) (A) (A) (A) (A) (A) (A)
                 (A) (A) (A) (A) (A) (A) (A) (A) (A) (A) (A) (A)
                 (A) (A) (A) (A) (A) (A) (A) (A) (A) (A) (A) (A)
                 (A) (A) (A) (A) (A) (A) (A) (A) (A) (A) (A) (A)
                 (A) (A) (A) (A) (A) (A) (A) (A) (A) (A) (A) (A)
                 (A) (A) (A) (A) (A) (A) (A) (A) (A) (A) (A) (A)
                 (A) (A) (A) (A) (A) (A) (A) (A) (A) (A) (A) (A)
                 (A) (A) (A) (A) (A) (A) (A) (A) (A) (A) (A) (A)
                 (A) (A) (A) (A) (A) (A) (A) (A) (A) (A) (A) (A)
                 (A) (A) (A) (A) (A) (A) (A) (A) (A) (A) (A) (A)
                 (A) (A) (A) (A) (A) (A) (A) (A) (A) (A) (A) (A)
                 (A) (A) (A) (A) (A) (A) (A) (A) (A) (A) (A) (A)
                 (A) (A) (A) (A) (A) (A) (A) (A) (A) (A) (A) (A)
                 (A) (A) (A) (A) (A) (A) (A) (A) (A) (A) (A) (A)
                 (A) (A) (A) (A) (A) (A) (A) (A) (A) (A) (A) (A)
                 (A) (A) (A) (A) (A) (A) (A) (A) (A) (A) (A) (A)
                 (A) (A) (A) (A) (A) (A) (A) (A) (A) (A) (A) (A)
                 (A) (A) (A) (A) (A) (A) (A) (A) (A) (A) (A) (A)
                 (A) (A) (A) (A) (A) (A) (A) (A) (A) (A) (A) (A)
                 (A) (A) (A) (A) (A) (A) (A) (A) (A) (A) (A) (A)
                 (A) (A) (A) (A) (A) (A) (A) (A) (A) (A) (A) (A)
                 (A) (A) (A) (A) (A) (A) (A) (A) (A) (A) (A) (A)
                 (A) (A) (A) (A) (A) (A) (A) (A) (A) (A) (A) (A)
                 (A) (A) (A) (A) (A) (A) (A) (A) (A) (A) (A) (A)
                 (A) (A) (A) (A) (A) (A) (A) (A) (A) (A) (A) (A)
                 (A) (A) (A) (A) (A) (A) (A) (A) (A) (A) (A) (A)
                 (A) (A) (A) (A) (A) (A) (A) (A) (A) (A) (A) (A)
                 (A) (A) (A) (A) (A) (A) (A) (A) (A) (A) (A) (A)
                 (A) (A) (A) (A) (A) (A) (A) (A) (A) (A) (A) (A)
                 (A) (A) (A) (A) (A) (A) (A) (A) (A) (A) (A) (A)
                 (A) (A) (A) (A) (A) (A) (A) (A) (A) (A) (A) (A)
                 (A) (A) (A) (A) (A) (A) (A) (A) (A) (A) (A) (A)
                 (A) (A) (A) (A) (A) (A) (A) (A) (A) (A) (A) (A)
                 (A) (A) (A) (A) (A) (A) (A) (A) (A) (A) (A) (A)
                 (A) (A) (A) (A) (A) (A) (A) (A) (A) (A) (A) (A)
                 (A) (A) (A) (A) (A) (A) (A) (A) (A) (A) (A) (A)
                 (A) (A) (A) (A) (A) (A) (A) (A) (A) (A) (A) (A)
                 (A) (A) (A) (A) (A) (A) (A) (A) (A) (A) (A) (A)
                 (A) (A) (A) (A) (A) (A) (A) (A) (A) (A) (A) (A)
                 (A) (A) (A) (A) (A) (A) (A) (A) (A) (A) (A) (A)
                 (A) (A) (A) (A) (A) (A) (A) (A) (A) (A) (A) (A)
                 (A) (A) (A) (A) (A) (A) (A)
 Beta  Orbitals:
       Occupied  (A) (A) (A) (A) (A) (A) (A) (A) (A) (A) (A) (A)
                 (A) (A) (A) (A) (A) (A) (A) (A) (A) (A) (A) (A)
                 (A) (A) (A) (A) (A) (A) (A) (A) (A) (A) (A) (A)
                 (A) (A) (A) (A) (A) (A) (A) (A) (A) (A) (A) (A)
                 (A) (A) (A) (A) (A) (A) (A) (A) (A) (A) (A) (A)
                 (A) (A) (A) (A) (A) (A) (A) (A) (A) (A) (A) (A)
                 (A) (A) (A) (A) (A) (A) (A) (A) (A) (A) (A) (A)
                 (A) (A) (A) (A) (A) (A) (A) (A) (A) (A) (A) (A)
                 (A) (A) (A) (A) (A) (A) (A) (A) (A) (A) (A) (A)
                 (A) (A) (A) (A) (A) (A) (A) (A) (A) (A) (A) (A)
                 (A) (A) (A) (A) (A) (A) (A) (A) (A) (A) (A) (A)
                 (A) (A) (A) (A) (A) (A) (A) (A) (A) (A) (A) (A)
                 (A) (A) (A) (A) (A) (A) (A) (A) (A) (A) (A) (A)
                 (A)
       Virtual   (A) (A) (A) (A) (A) (A) (A) (A) (A) (A) (A) (A)
                 (A) (A) (A) (A) (A) (A) (A) (A) (A) (A) (A) (A)
                 (A) (A) (A) (A) (A) (A) (A) (A) (A) (A) (A) (A)
                 (A) (A) (A) (A) (A) (A) (A) (A) (A) (A) (A) (A)
                 (A) (A) (A) (A) (A) (A) (A) (A) (A) (A) (A) (A)
                 (A) (A) (A) (A) (A) (A) (A) (A) (A) (A) (A) (A)
                 (A) (A) (A) (A) (A) (A) (A) (A) (A) (A) (A) (A)
                 (A) (A) (A) (A) (A) (A) (A) (A) (A) (A) (A) (A)
                 (A) (A) (A) (A) (A) (A) (A) (A) (A) (A) (A) (A)
                 (A) (A) (A) (A) (A) (A) (A) (A) (A) (A) (A) (A)
                 (A) (A) (A) (A) (A) (A) (A) (A) (A) (A) (A) (A)
                 (A) (A) (A) (A) (A) (A) (A) (A) (A) (A) (A) (A)
                 (A) (A) (A) (A) (A) (A) (A) (A) (A) (A) (A) (A)
                 (A) (A) (A) (A) (A) (A) (A) (A) (A) (A) (A) (A)
                 (A) (A) (A) (A) (A) (A) (A) (A) (A) (A) (A) (A)
                 (A) (A) (A) (A) (A) (A) (A) (A) (A) (A) (A) (A)
                 (A) (A) (A) (A) (A) (A) (A) (A) (A) (A) (A) (A)
                 (A) (A) (A) (A) (A) (A) (A) (A) (A) (A) (A) (A)
                 (A) (A) (A) (A) (A) (A) (A) (A) (A) (A) (A) (A)
                 (A) (A) (A) (A) (A) (A) (A) (A) (A) (A) (A) (A)
                 (A) (A) (A) (A) (A) (A) (A) (A) (A) (A) (A) (A)
                 (A) (A) (A) (A) (A) (A) (A) (A) (A) (A) (A) (A)
                 (A) (A) (A) (A) (A) (A) (A) (A) (A) (A) (A) (A)
                 (A) (A) (A) (A) (A) (A) (A) (A) (A) (A) (A) (A)
                 (A) (A) (A) (A) (A) (A) (A) (A) (A) (A) (A) (A)
                 (A) (A) (A) (A) (A) (A) (A) (A) (A) (A) (A) (A)
                 (A) (A) (A) (A) (A) (A) (A) (A) (A) (A) (A) (A)
                 (A) (A) (A) (A) (A) (A) (A) (A) (A) (A) (A) (A)
                 (A) (A) (A) (A) (A) (A) (A) (A) (A) (A) (A) (A)
                 (A) (A) (A) (A) (A) (A) (A) (A) (A) (A) (A) (A)
                 (A) (A) (A) (A) (A) (A) (A) (A) (A) (A) (A) (A)
                 (A) (A) (A) (A) (A) (A) (A) (A) (A) (A) (A) (A)
                 (A) (A) (A) (A) (A) (A) (A) (A) (A) (A) (A) (A)
                 (A) (A) (A) (A) (A) (A) (A) (A) (A) (A) (A) (A)
                 (A) (A) (A) (A) (A) (A) (A) (A) (A) (A) (A) (A)
                 (A) (A) (A) (A) (A) (A) (A) (A) (A) (A) (A) (A)
                 (A) (A) (A) (A) (A) (A) (A) (A) (A) (A) (A) (A)
                 (A) (A) (A) (A) (A) (A) (A) (A) (A) (A) (A) (A)
                 (A) (A) (A) (A) (A) (A) (A) (A) (A) (A) (A) (A)
                 (A) (A) (A) (A) (A) (A) (A) (A) (A) (A) (A) (A)
                 (A) (A) (A) (A) (A) (A) (A) (A) (A) (A) (A) (A)
                 (A) (A) (A) (A) (A) (A) (A) (A) (A) (A) (A) (A)
                 (A) (A) (A) (A) (A) (A) (A) (A) (A) (A) (A) (A)
                 (A) (A) (A) (A) (A) (A) (A) (A) (A) (A) (A) (A)
                 (A) (A) (A) (A) (A) (A) (A) (A) (A) (A) (A) (A)
                 (A) (A) (A) (A) (A) (A) (A) (A) (A) (A) (A) (A)
                 (A) (A) (A) (A) (A) (A) (A) (A) (A) (A) (A) (A)
                 (A) (A) (A) (A) (A) (A) (A) (A) (A) (A) (A) (A)
                 (A) (A) (A) (A) (A) (A) (A) (A) (A) (A) (A) (A)
                 (A) (A) (A) (A) (A) (A) (A) (A) (A) (A) (A) (A)
                 (A) (A) (A) (A) (A) (A) (A) (A) (A) (A) (A) (A)
                 (A) (A) (A) (A) (A) (A) (A) (A) (A) (A) (A) (A)
                 (A) (A) (A) (A) (A) (A) (A) (A) (A) (A) (A) (A)
                 (A) (A) (A) (A) (A) (A) (A) (A) (A) (A) (A) (A)
                 (A) (A) (A) (A) (A) (A) (A) (A) (A) (A) (A) (A)
                 (A) (A) (A) (A) (A) (A) (A) (A) (A) (A) (A) (A)
                 (A) (A) (A) (A) (A) (A) (A) (A) (A) (A) (A) (A)
                 (A) (A) (A) (A) (A) (A) (A) (A) (A) (A) (A) (A)
                 (A) (A) (A) (A) (A) (A) (A) (A) (A) (A) (A) (A)
                 (A) (A) (A) (A) (A) (A) (A) (A) (A) (A) (A) (A)
                 (A) (A) (A) (A) (A) (A) (A) (A) (A) (A) (A) (A)
                 (A) (A) (A) (A) (A) (A) (A) (A) (A) (A) (A) (A)
                 (A) (A) (A) (A) (A) (A) (A) (A) (A) (A) (A) (A)
                 (A) (A) (A) (A) (A) (A) (A) (A) (A) (A) (A) (A)
                 (A) (A) (A) (A) (A) (A) (A) (A) (A) (A) (A) (A)
                 (A) (A) (A) (A) (A) (A) (A) (A) (A) (A) (A) (A)
                 (A) (A) (A) (A) (A) (A) (A) (A) (A) (A) (A) (A)
                 (A) (A) (A) (A) (A) (A) (A) (A) (A) (A) (A) (A)
                 (A) (A) (A) (A) (A) (A) (A) (A) (A) (A) (A) (A)
                 (A) (A) (A) (A) (A) (A) (A) (A) (A) (A) (A) (A)
                 (A) (A) (A) (A) (A) (A) (A) (A) (A) (A) (A) (A)
                 (A) (A) (A) (A) (A) (A) (A) (A) (A) (A) (A) (A)
                 (A) (A) (A) (A) (A) (A) (A) (A) (A) (A) (A) (A)
                 (A) (A) (A) (A) (A) (A) (A) (A) (A) (A) (A) (A)
                 (A) (A) (A) (A) (A) (A) (A) (A) (A) (A) (A) (A)
                 (A) (A) (A) (A) (A) (A) (A) (A) (A) (A) (A) (A)
                 (A) (A) (A) (A) (A) (A) (A) (A) (A) (A) (A) (A)
                 (A) (A) (A) (A) (A) (A) (A) (A) (A) (A) (A) (A)
                 (A) (A) (A) (A) (A) (A) (A) (A) (A) (A) (A) (A)
                 (A) (A) (A) (A) (A) (A) (A) (A) (A) (A) (A) (A)
                 (A) (A) (A) (A) (A) (A) (A) (A) (A) (A) (A) (A)
                 (A) (A) (A) (A) (A) (A) (A) (A) (A) (A) (A) (A)
                 (A) (A) (A) (A) (A) (A) (A) (A) (A) (A) (A) (A)
                 (A) (A) (A) (A) (A) (A) (A) (A) (A) (A) (A) (A)
                 (A) (A) (A) (A) (A) (A) (A) (A) (A) (A) (A) (A)
                 (A) (A) (A) (A) (A) (A) (A) (A) (A) (A) (A) (A)
                 (A) (A) (A) (A) (A) (A) (A) (A) (A) (A) (A) (A)
                 (A) (A) (A) (A) (A) (A) (A) (A) (A) (A) (A) (A)
                 (A) (A) (A) (A) (A) (A) (A) (A) (A) (A) (A) (A)
                 (A) (A) (A) (A) (A) (A) (A) (A) (A) (A) (A) (A)
                 (A) (A) (A) (A) (A) (A) (A) (A) (A) (A) (A) (A)
                 (A) (A) (A) (A) (A) (A) (A) (A) (A) (A) (A) (A)
                 (A) (A) (A) (A) (A) (A) (A) (A) (A) (A) (A) (A)
                 (A) (A) (A) (A) (A) (A) (A) (A) (A) (A) (A) (A)
                 (A) (A) (A) (A) (A) (A) (A) (A) (A) (A) (A) (A)
                 (A) (A) (A) (A) (A) (A) (A) (A) (A) (A) (A) (A)
                 (A) (A) (A) (A) (A) (A) (A) (A) (A) (A) (A) (A)
                 (A) (A) (A) (A) (A) (A) (A) (A) (A) (A) (A) (A)
                 (A) (A) (A) (A) (A) (A) (A) (A) (A) (A) (A) (A)
                 (A) (A) (A) (A) (A) (A) (A) (A) (A) (A) (A) (A)
                 (A) (A) (A) (A) (A) (A) (A) (A) (A) (A) (A) (A)
                 (A) (A) (A) (A) (A) (A) (A) (A) (A) (A) (A) (A)
                 (A) (A) (A) (A) (A) (A) (A) (A) (A) (A) (A) (A)
                 (A) (A) (A) (A) (A) (A) (A) (A) (A) (A) (A) (A)
                 (A) (A) (A) (A) (A) (A) (A) (A) (A) (A) (A) (A)
                 (A) (A) (A) (A) (A) (A) (A) (A) (A) (A) (A) (A)
                 (A) (A) (A) (A) (A) (A) (A) (A) (A) (A) (A) (A)
                 (A) (A) (A) (A) (A) (A) (A) (A) (A) (A) (A) (A)
                 (A) (A) (A) (A) (A) (A) (A) (A) (A) (A) (A) (A)
                 (A) (A) (A) (A) (A) (A) (A) (A) (A) (A) (A) (A)
                 (A) (A) (A) (A) (A) (A) (A) (A) (A) (A) (A) (A)
                 (A) (A) (A) (A) (A) (A) (A) (A) (A) (A) (A) (A)
                 (A) (A) (A) (A) (A) (A) (A) (A) (A) (A) (A) (A)
                 (A) (A) (A) (A) (A) (A) (A) (A) (A) (A) (A) (A)
                 (A) (A) (A) (A) (A) (A) (A) (A) (A) (A) (A) (A)
                 (A) (A) (A) (A) (A) (A) (A) (A) (A) (A) (A) (A)
                 (A) (A) (A) (A) (A) (A) (A) (A) (A) (A) (A) (A)
                 (A) (A) (A) (A) (A) (A) (A) (A) (A) (A) (A) (A)
                 (A) (A) (A) (A) (A) (A) (A) (A) (A) (A) (A) (A)
                 (A) (A) (A) (A) (A) (A) (A) (A) (A) (A) (A) (A)
                 (A) (A) (A) (A) (A) (A) (A) (A) (A) (A) (A) (A)
                 (A) (A) (A) (A) (A) (A) (A) (A) (A) (A) (A) (A)
                 (A) (A) (A) (A) (A) (A) (A) (A) (A) (A) (A) (A)
                 (A) (A) (A) (A) (A) (A) (A) (A) (A) (A) (A) (A)
                 (A) (A) (A) (A) (A) (A) (A) (A) (A) (A) (A) (A)
                 (A) (A) (A) (A) (A) (A) (A) (A) (A) (A) (A) (A)
                 (A) (A) (A) (A) (A) (A) (A) (A) (A) (A) (A) (A)
                 (A) (A) (A) (A) (A) (A) (A) (A) (A) (A) (A) (A)
                 (A) (A) (A) (A) (A) (A) (A) (A) (A) (A) (A) (A)
                 (A) (A) (A) (A) (A) (A) (A) (A) (A) (A) (A) (A)
                 (A) (A) (A) (A) (A) (A) (A) (A) (A) (A) (A) (A)
                 (A) (A) (A) (A) (A) (A) (A) (A) (A) (A) (A) (A)
                 (A) (A) (A) (A) (A) (A) (A) (A) (A) (A) (A) (A)
                 (A) (A) (A) (A) (A) (A) (A) (A) (A) (A) (A) (A)
                 (A) (A) (A) (A) (A) (A) (A) (A)
 The electronic state is 2-A.
 Alpha  occ. eigenvalues --  -25.19931 -25.19828 -19.69566 -19.59008 -19.59006
 Alpha  occ. eigenvalues --  -14.95235 -14.89859 -14.85401 -14.82026 -14.77536
 Alpha  occ. eigenvalues --  -14.77190 -10.62827 -10.62503 -10.61448 -10.59552
 Alpha  occ. eigenvalues --  -10.59338 -10.58892 -10.58333 -10.58126 -10.57784
 Alpha  occ. eigenvalues --  -10.56927 -10.56690 -10.56556 -10.56398 -10.56248
 Alpha  occ. eigenvalues --  -10.55962 -10.55902 -10.55816 -10.55656 -10.55635
 Alpha  occ. eigenvalues --  -10.55329 -10.55021 -10.55009 -10.54583 -10.54581
 Alpha  occ. eigenvalues --  -10.54353 -10.54344 -10.54213 -10.53843 -10.53783
 Alpha  occ. eigenvalues --  -10.53764 -10.53622 -10.53411 -10.52926  -7.12414
 Alpha  occ. eigenvalues --   -1.31640  -1.28406  -1.28137  -1.25455  -1.23049
 Alpha  occ. eigenvalues --   -1.11051  -1.09591  -1.07860  -1.07666  -0.98525
 Alpha  occ. eigenvalues --   -0.97673  -0.96648  -0.93295  -0.92246  -0.90513
 Alpha  occ. eigenvalues --   -0.89886  -0.89198  -0.87972  -0.87470  -0.86363
[...]
 
              Baa    -0.0086    -1.150    -0.410    -0.384  0.0353  0.9928 -0.1143
     8 C(13)  Bbb    -0.0082    -1.100    -0.392    -0.367  0.9992 -0.0369 -0.0124
              Bcc     0.0168     2.249     0.803     0.750  0.0165  0.1138  0.9934
 
              Baa    -0.0112     0.808     0.288     0.270  0.4932  0.8624 -0.1143
     9 O(17)  Bbb    -0.0094     0.680     0.243     0.227  0.8694 -0.4931  0.0315
              Bcc     0.0206    -1.488    -0.531    -0.496  0.0292  0.1149  0.9929
 
              Baa    -0.0008    -0.104    -0.037    -0.035  0.6276  0.7732 -0.0906
    10 C(13)  Bbb    -0.0004    -0.056    -0.020    -0.019  0.7784 -0.6254  0.0542
              Bcc     0.0012     0.161     0.057     0.054  0.0147  0.1045  0.9944
 
              Baa    -0.0009    -0.115    -0.041    -0.039  0.0193  0.1008  0.9947
    11 C(13)  Bbb     0.0004     0.048     0.017     0.016  0.5144  0.8521 -0.0964
              Bcc     0.0005     0.067     0.024     0.022  0.8574 -0.5135  0.0354
 
              Baa    -0.0010    -0.134    -0.048    -0.045  0.4453  0.8906 -0.0926
    12 C(13)  Bbb    -0.0008    -0.105    -0.037    -0.035  0.8954 -0.4437  0.0383
              Bcc     0.0018     0.239     0.085     0.080  0.0070  0.1000  0.9950
 
              Baa    -0.0001    -0.016    -0.006    -0.005  0.2650  0.9575 -0.1134
    13 C(13)  Bbb     0.0000     0.005     0.002     0.002  0.9362 -0.2837 -0.2074
              Bcc     0.0001     0.012     0.004     0.004  0.2308  0.0512  0.9717
 
              Baa    -0.0010    -0.138    -0.049    -0.046  0.1789  0.9780 -0.1069
    14 C(13)  Bbb    -0.0009    -0.117    -0.042    -0.039  0.9838 -0.1768  0.0289
              Bcc     0.0019     0.255     0.091     0.085 -0.0094  0.1103  0.9939
 
              Baa    -0.0002    -0.010    -0.003    -0.003  0.0458  0.1565  0.9866
    15 N(14)  Bbb     0.0000     0.000     0.000     0.000  0.5704  0.8067 -0.1545
              Bcc     0.0002     0.009     0.003     0.003  0.8201 -0.5698  0.0523
 
              Baa    -0.0002    -0.008    -0.003    -0.003  0.8051  0.5914 -0.0458
    16 N(14)  Bbb     0.0001     0.002     0.001     0.001 -0.5919  0.8060  0.0043
              Bcc     0.0002     0.006     0.002     0.002  0.0395  0.0237  0.9989
 
              Baa    -0.0007    -0.026    -0.009    -0.009 -0.0855  0.9922 -0.0907
    17 N(14)  Bbb    -0.0006    -0.023    -0.008    -0.008  0.9962  0.0865  0.0076
              Bcc     0.0013     0.049     0.018     0.016 -0.0154  0.0897  0.9958
 
              Baa    -0.0005    -0.063    -0.022    -0.021  0.0479  0.1120  0.9926
    18 C(13)  Bbb     0.0002     0.023     0.008     0.008  0.1338  0.9840 -0.1175
              Bcc     0.0003     0.039     0.014     0.013  0.9898 -0.1385 -0.0321
 
              Baa    -0.0056    -0.753    -0.269    -0.251 -0.0780  0.9882 -0.1319
    19 C(13)  Bbb    -0.0050    -0.674    -0.240    -0.225  0.9969  0.0782 -0.0038
              Bcc     0.0106     1.427     0.509     0.476 -0.0066  0.1318  0.9913
 
              Baa    -0.0052    -0.698    -0.249    -0.233  0.0233  0.1336  0.9908
    20 C(13)  Bbb     0.0023     0.304     0.109     0.101  0.2835  0.9495 -0.1347
              Bcc     0.0029     0.393     0.140     0.131  0.9587 -0.2840  0.0158
 
              Baa    -0.0002    -0.033    -0.012    -0.011  0.0289  0.0646  0.9975
    21 C(13)  Bbb     0.0000     0.001     0.000     0.000 -0.6035  0.7967 -0.0341
              Bcc     0.0002     0.032     0.011     0.011  0.7969  0.6010 -0.0621
 
              Baa    -0.0002    -0.032    -0.011    -0.011  0.8729 -0.4454  0.1989
    22 C(13)  Bbb     0.0000     0.002     0.001     0.001 -0.1451  0.1521  0.9777
              Bcc     0.0002     0.030     0.011     0.010  0.4657  0.8823 -0.0681
 
              Baa    -0.0004    -0.058    -0.021    -0.019 -0.0858  0.1164  0.9895
    23 C(13)  Bbb     0.0001     0.018     0.006     0.006 -0.6552  0.7416 -0.1440
              Bcc     0.0003     0.040     0.014     0.013  0.7506  0.6607 -0.0127
 
              Baa    -0.0151    -0.582    -0.208    -0.194  0.2487 -0.0914  0.9643
    24 N(14)  Bbb     0.0051     0.197     0.070     0.066  0.0644  0.9949  0.0777
              Bcc     0.0100     0.385     0.137     0.128  0.9664 -0.0427 -0.2533
 
              Baa    -0.0060    -0.802    -0.286    -0.267  0.1770  0.7248 -0.6659
    25 C(13)  Bbb    -0.0036    -0.482    -0.172    -0.161  0.7629 -0.5285 -0.3725
              Bcc     0.0096     1.283     0.458     0.428  0.6219  0.4421  0.6464
 
              Baa    -0.0127    -1.705    -0.608    -0.569  0.1335  0.9158 -0.3788
    26 C(13)  Bbb    -0.0025    -0.342    -0.122    -0.114  0.9797 -0.1796 -0.0891
              Bcc     0.0153     2.047     0.730     0.683  0.1496  0.3593  0.9212
 
              Baa    -0.0864   -11.593    -4.137    -3.867  0.1577  0.3370  0.9282
    27 C(13)  Bbb    -0.0781   -10.486    -3.742    -3.498  0.9783 -0.1814 -0.1004
              Bcc     0.1645    22.079     7.878     7.365  0.1345  0.9239 -0.3582
 
              Baa    -0.0468    -6.283    -2.242    -2.096  0.1349  0.9144 -0.3817
    28 C(13)  Bbb     0.0189     2.534     0.904     0.845 -0.0119  0.3867  0.9221
              Bcc     0.0279     3.749     1.338     1.250  0.9908 -0.1198  0.0631
 
              Baa    -0.0633    -8.495    -3.031    -2.834  0.2944  0.3243  0.8990
    29 C(13)  Bbb    -0.0533    -7.154    -2.553    -2.386  0.9491 -0.2097 -0.2351
              Bcc     0.1166    15.650     5.584     5.220  0.1122  0.9224 -0.3695
 
              Baa    -0.0240    -3.222    -1.150    -1.075  0.1296  0.9160 -0.3796
    30 C(13)  Bbb    -0.0039    -0.528    -0.188    -0.176  0.1575  0.3589  0.9200
              Bcc     0.0279     3.750     1.338     1.251  0.9790 -0.1790 -0.0978
 
              Baa    -0.4414   -17.024    -6.075    -5.679  0.1580  0.3623  0.9186
    31 N(14)  Bbb    -0.4271   -16.474    -5.878    -5.495  0.9789 -0.1795 -0.0976
              Bcc     0.8685    33.498    11.953    11.174  0.1295  0.9146 -0.3830
 
              Baa    -0.5008    36.236    12.930    12.087  0.6324  0.2211  0.7424
    32 O(17)  Bbb    -0.4530    32.777    11.696    10.933  0.7642 -0.3347 -0.5513
              Bcc     0.9537   -69.012   -24.625   -23.020  0.1267  0.9160 -0.3806
 
              Baa    -0.5006    36.225    12.926    12.083 -0.3605  0.4030  0.8412
    33 O(17)  Bbb    -0.4528    32.762    11.690    10.928  0.9233  0.0259  0.3832
              Bcc     0.9534   -68.987   -24.616   -23.011  0.1326  0.9148 -0.3814
 
              Baa    -0.0632    -8.485    -3.028    -2.830  0.0158  0.3739  0.9274
    34 C(13)  Bbb    -0.0533    -7.149    -2.551    -2.385  0.9888 -0.1436  0.0411
              Bcc     0.1165    15.634     5.579     5.215  0.1486  0.9163 -0.3719
 
              Baa    -0.0468    -6.285    -2.243    -2.097  0.1214  0.9189 -0.3753
    35 C(13)  Bbb     0.0190     2.556     0.912     0.852  0.3278  0.3197  0.8890
              Bcc     0.0278     3.730     1.331     1.244  0.9369 -0.2310 -0.2624
 
              Baa    -0.0069    -0.921    -0.329    -0.307  0.2142 -0.5882  0.7799
    36 C(13)  Bbb    -0.0025    -0.336    -0.120    -0.112  0.9143  0.4017  0.0518
              Bcc     0.0094     1.257     0.448     0.419 -0.3437  0.7019  0.6238
 
              Baa    -0.0053    -0.717    -0.256    -0.239  0.8278  0.5606  0.0246
    37 C(13)  Bbb    -0.0027    -0.366    -0.131    -0.122 -0.5609  0.8278  0.0095
              Bcc     0.0081     1.084     0.387     0.361 -0.0151 -0.0217  0.9997
 
              Baa    -0.0018    -0.238    -0.085    -0.080  0.0132 -0.1401  0.9900
    38 C(13)  Bbb     0.0000     0.000     0.000     0.000  0.9678  0.2505  0.0225
              Bcc     0.0018     0.238     0.085     0.079 -0.2512  0.9579  0.1389
 
              Baa    -0.0008    -0.106    -0.038    -0.035  0.8255  0.5455  0.1446
    39 C(13)  Bbb    -0.0001    -0.020    -0.007    -0.007 -0.4366  0.7796 -0.4490
              Bcc     0.0009     0.126     0.045     0.042 -0.3577  0.3075  0.8817
 
              Baa    -0.0058    -0.782    -0.279    -0.261  0.3692  0.9244  0.0958
    40 C(13)  Bbb    -0.0049    -0.658    -0.235    -0.219  0.8967 -0.3273 -0.2979
              Bcc     0.0107     1.440     0.514     0.480  0.2440 -0.1959  0.9498
 
              Baa    -0.0004    -0.058    -0.021    -0.019  0.4350  0.8911  0.1290
    41 C(13)  Bbb    -0.0002    -0.025    -0.009    -0.008 -0.2360 -0.0254  0.9714
              Bcc     0.0006     0.083     0.030     0.028  0.8689 -0.4531  0.1993
 
              Baa    -0.0048    -0.186    -0.066    -0.062 -0.2684  0.2547  0.9290
    42 N(14)  Bbb    -0.0011    -0.041    -0.015    -0.014  0.4478  0.8869 -0.1137
              Bcc     0.0059     0.227     0.081     0.076  0.8529 -0.3855  0.3521
 
              Baa    -0.0006    -0.095    -0.034    -0.032  0.0903 -0.1469  0.9850
    43 B(11)  Bbb    -0.0003    -0.044    -0.016    -0.015  0.1149  0.9840  0.1362
              Bcc     0.0008     0.139     0.050     0.046  0.9893 -0.1009 -0.1057
 
              Baa    -0.0004    -0.193    -0.069    -0.064 -0.3433  0.5142  0.7859
    44 F(19)  Bbb    -0.0002    -0.103    -0.037    -0.034 -0.3691  0.6956 -0.6163
              Bcc     0.0006     0.296     0.106     0.099  0.8637  0.5017  0.0491
 
              Baa    -0.0004    -0.225    -0.080    -0.075 -0.1708  0.5418  0.8230
    45 F(19)  Bbb     0.0001     0.028     0.010     0.009  0.2491  0.8319 -0.4960
              Bcc     0.0004     0.196     0.070     0.066  0.9533 -0.1203  0.2770
 
              Baa    -0.0021    -1.139    -0.406    -0.380  0.1524  0.2523  0.9556
    46 H(1)   Bbb    -0.0000    -0.023    -0.008    -0.008  0.7974 -0.6027  0.0320
              Bcc     0.0022     1.162     0.415     0.388  0.5839  0.7571 -0.2931
 
              Baa    -0.0008    -0.446    -0.159    -0.149  0.0836  0.0913  0.9923
    47 H(1)   Bbb    -0.0002    -0.100    -0.036    -0.033  0.7806 -0.6249 -0.0083
              Bcc     0.0010     0.545     0.195     0.182  0.6194  0.7753 -0.1235
 
              Baa    -0.0018    -0.959    -0.342    -0.320  0.1679 -0.4166  0.8934
    48 H(1)   Bbb    -0.0002    -0.124    -0.044    -0.041 -0.5401  0.7193  0.4369
              Bcc     0.0020     1.083     0.387     0.361  0.8247  0.5559  0.1043
 
              Baa    -0.0006    -0.334    -0.119    -0.112  0.0365  0.0061  0.9993
    49 H(1)   Bbb     0.0001     0.058     0.021     0.019  0.8369 -0.5467 -0.0273
              Bcc     0.0005     0.277     0.099     0.092  0.5462  0.8373 -0.0251
 
              Baa    -0.0008    -0.438    -0.156    -0.146 -0.3585  0.9293 -0.0885
    50 H(1)   Bbb    -0.0005    -0.263    -0.094    -0.088 -0.0138  0.0895  0.9959
              Bcc     0.0013     0.700     0.250     0.234  0.9334  0.3582 -0.0193
 
              Baa    -0.0008    -0.438    -0.156    -0.146  0.8588  0.5120  0.0145
    51 H(1)   Bbb    -0.0004    -0.193    -0.069    -0.064 -0.0073 -0.0160  0.9998
              Bcc     0.0012     0.631     0.225     0.210 -0.5122  0.8588  0.0100
 
              Baa    -0.0001    -0.068    -0.024    -0.023  0.1711  0.9814 -0.0874
    52 H(1)   Bbb    -0.0001    -0.064    -0.023    -0.021 -0.0054  0.0896  0.9960
              Bcc     0.0002     0.132     0.047     0.044  0.9852 -0.1699  0.0207
 
              Baa    -0.0001    -0.049    -0.017    -0.016 -0.0025  0.1049  0.9945
    53 H(1)   Bbb    -0.0001    -0.030    -0.011    -0.010  0.4585  0.8839 -0.0921
              Bcc     0.0001     0.078     0.028     0.026  0.8887 -0.4557  0.0503
 
              Baa    -0.0002    -0.117    -0.042    -0.039 -0.0242  0.0744  0.9969
    54 H(1)   Bbb     0.0000     0.003     0.001     0.001  0.0211  0.9970 -0.0739
              Bcc     0.0002     0.114     0.041     0.038  0.9995 -0.0192  0.0257
 
              Baa    -0.0008    -0.416    -0.148    -0.139 -0.1526  0.9803 -0.1251
    55 H(1)   Bbb    -0.0001    -0.057    -0.020    -0.019  0.0095  0.1280  0.9917
              Bcc     0.0009     0.473     0.169     0.158  0.9882  0.1501 -0.0289
 
              Baa    -0.0001    -0.076    -0.027    -0.025  0.0421  0.3148  0.9482
    56 H(1)   Bbb    -0.0000    -0.016    -0.006    -0.005 -0.5310  0.8110 -0.2456
              Bcc     0.0002     0.092     0.033     0.031  0.8463  0.4932 -0.2014
 
              Baa    -0.0001    -0.055    -0.020    -0.019 -0.0430  0.0914  0.9949
    57 H(1)   Bbb    -0.0000    -0.014    -0.005    -0.005  0.7440 -0.6617  0.0930
              Bcc     0.0001     0.069     0.025     0.023  0.6668  0.7442 -0.0395
 
              Baa    -0.0001    -0.040    -0.014    -0.013  0.0534 -0.0574  0.9969
    58 H(1)   Bbb    -0.0000    -0.018    -0.007    -0.006 -0.5828  0.8089  0.0778
              Bcc     0.0001     0.058     0.021     0.019  0.8109  0.5851 -0.0097
 
              Baa    -0.0001    -0.076    -0.027    -0.025 -0.0369 -0.2565  0.9659
    59 H(1)   Bbb    -0.0000    -0.017    -0.006    -0.006  0.7239 -0.6732 -0.1511
              Bcc     0.0002     0.092     0.033     0.031  0.6890  0.6936  0.2105
 
              Baa    -0.0002    -0.104    -0.037    -0.035  0.1622  0.0270  0.9864
    60 H(1)   Bbb    -0.0000    -0.016    -0.006    -0.005 -0.4343  0.8996  0.0468
              Bcc     0.0002     0.120     0.043     0.040  0.8861  0.4360 -0.1576
 
              Baa    -0.0002    -0.085    -0.030    -0.028 -0.2960  0.3422  0.8918
    61 H(1)   Bbb    -0.0001    -0.075    -0.027    -0.025 -0.5411  0.7093 -0.4518
              Bcc     0.0003     0.160     0.057     0.053  0.7871  0.6163  0.0248
 
              Baa    -0.0026    -1.407    -0.502    -0.469  0.1306  0.8861 -0.4448
    62 H(1)   Bbb    -0.0012    -0.645    -0.230    -0.215 -0.0389  0.4529  0.8907
              Bcc     0.0038     2.052     0.732     0.685  0.9907 -0.0990  0.0936
 
              Baa    -0.0042    -2.266    -0.809    -0.756  0.1576  0.9046 -0.3961
    63 H(1)   Bbb    -0.0014    -0.733    -0.261    -0.244  0.8480 -0.3295 -0.4151
              Bcc     0.0056     2.998     1.070     1.000  0.5060  0.2705  0.8190
 
              Baa    -0.0042    -2.261    -0.807    -0.754  0.0963  0.9169 -0.3874
    64 H(1)   Bbb    -0.0014    -0.735    -0.262    -0.245  0.9727 -0.0042  0.2319
              Bcc     0.0056     2.997     1.069     1.000 -0.2110  0.3992  0.8923
 
              Baa    -0.0026    -1.375    -0.491    -0.459  0.1057  0.9042 -0.4138
    65 H(1)   Bbb    -0.0013    -0.683    -0.244    -0.228  0.3561  0.3541  0.8648
              Bcc     0.0039     2.059     0.735     0.687  0.9285 -0.2388 -0.2845
 
              Baa    -0.0017    -0.925    -0.330    -0.308 -0.1105 -0.3101  0.9443
    66 H(1)   Bbb    -0.0004    -0.206    -0.073    -0.069  0.8636  0.4403  0.2456
              Bcc     0.0021     1.130     0.403     0.377 -0.4919  0.8426  0.2191
 
              Baa    -0.0021    -1.122    -0.400    -0.374  0.1105  0.3006  0.9473
    67 H(1)   Bbb    -0.0001    -0.070    -0.025    -0.023  0.9475  0.2560 -0.1917
              Bcc     0.0022     1.193     0.426     0.398 -0.3002  0.9187 -0.2565
 
              Baa    -0.0008    -0.416    -0.148    -0.139  0.1427  0.1206  0.9824
    68 H(1)   Bbb    -0.0003    -0.160    -0.057    -0.053  0.9211  0.3470 -0.1764
              Bcc     0.0011     0.576     0.205     0.192 -0.3621  0.9301 -0.0616
 
              Baa    -0.0005    -0.253    -0.090    -0.084  0.2079  0.0105  0.9781
    69 H(1)   Bbb    -0.0001    -0.053    -0.019    -0.018  0.9145  0.3527 -0.1982
              Bcc     0.0006     0.306     0.109     0.102 -0.3470  0.9357  0.0637
 
              Baa    -0.0003    -0.166    -0.059    -0.055  0.3975  0.0884  0.9133
    70 H(1)   Bbb    -0.0002    -0.118    -0.042    -0.039  0.2226  0.9563 -0.1895
              Bcc     0.0005     0.284     0.101     0.095  0.8902 -0.2786 -0.3604
 
              Baa    -0.0003    -0.158    -0.056    -0.053 -0.2327 -0.4634  0.8550
    71 H(1)   Bbb    -0.0002    -0.133    -0.047    -0.044  0.6617  0.5689  0.4884
              Bcc     0.0005     0.291     0.104     0.097  0.7127 -0.6794 -0.1743
 
              Baa    -0.0003    -0.163    -0.058    -0.055 -0.3162 -0.5873  0.7450
    72 H(1)   Bbb    -0.0002    -0.097    -0.035    -0.032  0.2452  0.7080  0.6622
              Bcc     0.0005     0.260     0.093     0.087  0.9165 -0.3921  0.0799
 

 ---------------------------------------------------------------------------------

 No NMR shielding tensors so no spin-rotation constants.
 Leave Link  601 at Fri Oct 24 21:43:31 2025, MaxMem= 30870077440 cpu:             186.1 elap:               3.3
 (Enter /public/software/gauss/g16/l9999.exe)
 1\1\GINC-CU056\SP\UM062X\def2TZVPP\C33H27B1F2N6O3(1-,2)\BAIDING\24-Oct
 -2025\0\\#p M062X/DEF2TZVPP scrf=(solvent=water) em=GD3\\Energy calcul
 ation for BNO_N3_reduced\\-1,2\C,0,-3.61122,-3.066052,-0.007157\C,0,-2
 .355555,-2.245897,-0.004048\C,0,-1.083259,-2.795757,-0.003482\C,0,-0.1
 32255,-1.749597,-0.083652\C,0,1.299623,-1.80893,-0.107064\C,0,2.013664
 ,-2.977988,-0.139889\C,0,3.435853,-3.197043,-0.146979\C,0,4.408532,-2.
 221151,-0.066272\O,0,3.981792,-0.910915,0.081839\C,0,4.859675,0.135847
 ,0.194411\C,0,6.24872,-0.084633,0.170896\C,0,7.087377,1.036658,0.29784
 4\C,0,6.565611,2.315766,0.43936\C,0,5.172353,2.495901,0.453723\N,0,4.5
 4187,3.760843,0.589359\N,0,5.253748,4.767539,0.691489\N,0,5.78125,5.77
 3339,0.794135\C,0,4.308344,1.403442,0.331787\C,0,6.709282,-1.44011,0.0
 10094\C,0,5.831564,-2.472691,-0.118523\C,0,6.280968,-3.896733,-0.33963
 7\C,0,5.296103,-4.888867,0.283507\C,0,3.887799,-4.64814,-0.263841\N,0,
 -0.811073,-0.557851,-0.125115\C,0,-2.184342,-0.817673,-0.058074\C,0,-3
 .121015,0.237841,-0.105961\C,0,-4.563253,-0.034861,0.040265\C,0,-5.469
 699,0.28119,-0.996735\C,0,-6.82351,0.023893,-0.87626\C,0,-7.32752,-0.5
 38453,0.319263\N,0,-8.694899,-0.789198,0.456194\O,0,-9.497227,-0.49845
 2,-0.508454\O,0,-9.144445,-1.308954,1.545635\C,0,-6.438181,-0.84377,1.
 375012\C,0,-5.083869,-0.605937,1.223061\C,0,-2.676061,1.574465,-0.2913
 25\C,0,-3.354858,2.826809,-0.201736\C,0,-4.784568,3.130055,0.136458\C,
 0,-2.386146,3.81173,-0.434254\C,0,-1.150607,3.187406,-0.633404\C,0,0.1
 72386,3.829658,-0.893438\N,0,-1.322108,1.841095,-0.53602\B,0,-0.198775
 ,0.789723,-0.576741\F,0,0.847364,1.175012,0.296132\F,0,0.332484,0.6753
 35,-1.87452\H,0,-4.338872,-2.694158,-0.733804\H,0,-3.366462,-4.100395,
 -0.265169\H,0,-4.110872,-3.076679,0.966567\H,0,-0.85383,-3.851659,0.04
 4573\H,0,1.812323,-0.861418,-0.07976\H,0,1.43769,-3.902031,-0.172957\H
 ,0,8.163263,0.891037,0.283133\H,0,7.232014,3.166378,0.536454\H,0,3.232
 409,1.536353,0.341218\H,0,7.778999,-1.627111,-0.018075\H,0,6.339695,-4
 .085574,-1.421051\H,0,7.291911,-4.025834,0.05887\H,0,5.611133,-5.91576
 1,0.073097\H,0,5.293294,-4.765555,1.37355\H,0,3.850895,-4.960406,-1.31
 8015\H,0,3.167434,-5.283097,0.26364\H,0,-5.090207,0.712336,-1.917965\H
 ,0,-7.5053,0.242163,-1.687939\H,0,-6.829349,-1.256268,2.295888\H,0,-4.
 408707,-0.838045,2.040787\H,0,-5.463423,2.964145,-0.706985\H,0,-5.1508
 34,2.513718,0.962357\H,0,-4.873916,4.180546,0.428743\H,0,-2.552633,4.8
 81207,-0.439612\H,0,0.676015,3.36897,-1.74933\H,0,0.034472,4.893013,-1
 .101108\H,0,0.844029,3.730314,-0.034046\\Version=ES64L-G16RevA.03\Stat
 e=2-A\HF=-2052.6568079\S2=0.769871\S2-1=0.\S2A=0.750233\RMSD=4.570e-09
 \Dipole=15.8959256,-0.3222854,-0.3458559\Quadrupole=-149.6643402,88.75
 36172,60.910723,-40.1804661,13.5548476,1.5531256\PG=C01 [X(C33H27B1F2N
 6O3)]\\@


       THE DEATH-KNELL OF THE ATOM

 SO THE ATOMS IN TURN, WE NOW CLEARLY DISCERN,
 FLY TO BITS WITH THE UTMOST FACILITY;
 THEY WEND ON THEIR WAY, AND, IN SPLITTING, DISPLAY
 AN ABSOLUTE LACK OF STABILITY.

          SIR WM. RAMSAY, 1905
 Job cpu time:       2 days  1 hours  1 minutes 46.8 seconds.
 Elapsed time:       0 days  0 hours 46 minutes 25.1 seconds.
 File lengths (MBytes):  RWF=   3343 Int=      0 D2E=      0 Chk=    219 Scr=      1
 Normal termination of Gaussian 16 at Fri Oct 24 21:43:32 2025.
