 Entering Gaussian System, Link 0=g16
 Input=BNO_NO2_reduced_sp.gjf
 Output=BNO_NO2_reduced_sp.log
 Initial command:
 /public/software/gauss/g16/l1.exe "/public/home/baiding/1024_sp/tmp_BNO_NO2_reduced_sp_1526250/Gau-2926167.inp" -scrdir="/public/home/baiding/1024_sp/tmp_BNO_NO2_reduced_sp_1526250/"
 Entering Link 1 = /public/software/gauss/g16/l1.exe PID=   2926168.
  
 Copyright (c) 1988,1990,1992,1993,1995,1998,2003,2009,2016,
            Gaussian, Inc.  All Rights Reserved.
  
 This is part of the Gaussian(R) 16 program.  It is based on
 the Gaussian(R) 09 system (copyright 2009, Gaussian, Inc.),
 the Gaussian(R) 03 system (copyright 2003, Gaussian, Inc.),
 the Gaussian(R) 98 system (copyright 1998, Gaussian, Inc.),
 the Gaussian(R) 94 system (copyright 1995, Gaussian, Inc.),
 the Gaussian 92(TM) system (copyright 1992, Gaussian, Inc.),
 the Gaussian 90(TM) system (copyright 1990, Gaussian, Inc.),
 the Gaussian 88(TM) system (copyright 1988, Gaussian, Inc.),
 the Gaussian 86(TM) system (copyright 1986, Carnegie Mellon
 University), and the Gaussian 82(TM) system (copyright 1983,
 Carnegie Mellon University). Gaussian is a federally registered
 trademark of Gaussian, Inc.
  
 This software contains proprietary and confidential information,
 including trade secrets, belonging to Gaussian, Inc.
  
 This software is provided under written license and may be
 used, copied, transmitted, or stored only in accord with that
 written license.
  
 The following legend is applicable only to US Government
 contracts under FAR:
  
                    RESTRICTED RIGHTS LEGEND
  
 Use, reproduction and disclosure by the US Government is
 subject to restrictions as set forth in subparagraphs (a)
 and (c) of the Commercial Computer Software - Restricted
 Rights clause in FAR 52.227-19.
  
 Gaussian, Inc.
 340 Quinnipiac St., Bldg. 40, Wallingford CT 06492
  
  
 ---------------------------------------------------------------
 Warning -- This program may not be used in any manner that
 competes with the business of Gaussian, Inc. or will provide
 assistance to any competitor of Gaussian, Inc.  The licensee
 of this program is prohibited from giving any competitor of
 Gaussian, Inc. access to this program.  By using this program,
 the user acknowledges that Gaussian, Inc. is engaged in the
 business of creating and licensing software in the field of
 computational chemistry and represents and warrants to the
 licensee that it is not a competitor of Gaussian, Inc. and that
 it will not use this program in any manner prohibited above.
 ---------------------------------------------------------------
  

 Cite this work as:
 Gaussian 16, Revision A.03,
 M. J. Frisch, G. W. Trucks, H. B. Schlegel, G. E. Scuseria, 
 M. A. Robb, J. R. Cheeseman, G. Scalmani, V. Barone, 
 G. A. Petersson, H. Nakatsuji, X. Li, M. Caricato, A. V. Marenich, 
 J. Bloino, B. G. Janesko, R. Gomperts, B. Mennucci, H. P. Hratchian, 
 J. V. Ortiz, A. F. Izmaylov, J. L. Sonnenberg, D. Williams-Young, 
 F. Ding, F. Lipparini, F. Egidi, J. Goings, B. Peng, A. Petrone, 
 T. Henderson, D. Ranasinghe, V. G. Zakrzewski, J. Gao, N. Rega, 
 G. Zheng, W. Liang, M. Hada, M. Ehara, K. Toyota, R. Fukuda, 
 J. Hasegawa, M. Ishida, T. Nakajima, Y. Honda, O. Kitao, H. Nakai, 
 T. Vreven, K. Throssell, J. A. Montgomery, Jr., J. E. Peralta, 
 F. Ogliaro, M. J. Bearpark, J. J. Heyd, E. N. Brothers, K. N. Kudin, 
 V. N. Staroverov, T. A. Keith, R. Kobayashi, J. Normand, 
 K. Raghavachari, A. P. Rendell, J. C. Burant, S. S. Iyengar, 
 J. Tomasi, M. Cossi, J. M. Millam, M. Klene, C. Adamo, R. Cammi, 
 J. W. Ochterski, R. L. Martin, K. Morokuma, O. Farkas, 
 J. B. Foresman, and D. J. Fox, Gaussian, Inc., Wallingford CT, 2016.
 
 ******************************************
 Gaussian 16:  ES64L-G16RevA.03 25-Dec-2016
                24-Oct-2025 
 ******************************************
 %nprocshared=64
 Will use up to   64 processors via shared memory.
 %mem=230GB
 %chk=BNO_NO2_reduced_sp.chk
 ----------------------------------------------
 #p M062X/DEF2TZVPP scrf=(solvent=water) em=GD3
 ----------------------------------------------
 1/38=1,172=1/1;
 2/12=2,17=6,18=5,40=1/2;
 3/5=44,7=202,11=2,25=1,30=1,70=2201,72=1,74=-55,124=31/1,2,3;
 4//1;
 5/5=2,38=5,53=1/2;
 6/7=2,8=2,9=2,10=2,28=1/1;
 99/5=1,9=1/99;
 Leave Link    1 at Fri Oct 24 22:00:53 2025, MaxMem= 30870077440 cpu:              13.6 elap:               0.2
 (Enter /public/software/gauss/g16/l101.exe)
 --------------------------------------
 Energy calculation for BNO_NO2_reduced
 --------------------------------------
 Symbolic Z-matrix:
 Charge = -1 Multiplicity = 2
 C                    -7.16252   5.15208  -0.98884 
 N                    -7.278     4.20411  -0.10386 
 O                    -8.1783    4.20049   0.82925 
 C                    -6.36415   3.0664   -0.10664 
 C                    -5.99982   2.52234   1.12396 
 C                    -5.13005   1.43535   1.15527 
 C                    -4.63435   0.88018  -0.03334 
 C                    -3.71432  -0.29732   0.00285 
 C                    -2.33229  -0.10683  -0.01565 
 C                    -1.53253   1.09795  -0.06265 
 C                    -1.98169   2.52749  -0.09001 
 C                    -0.21689   0.69465  -0.08492 
 C                    -0.16687  -0.73323  -0.05505 
 C                     0.97114  -1.58416  -0.0907 
 C                     2.26882  -1.11446  -0.0724 
 C                     3.44     -1.91037  -0.13388 
 C                     4.70394  -1.31985  -0.14066 
 O                     4.74365   0.05724   0.00158 
 C                     5.93035   0.75789  -0.00185 
 C                     7.16169   0.06701  -0.13652 
 C                     8.34673   0.84743  -0.12329 
 C                     8.30415   2.21698   0.01404 
 C                     7.05503   2.87585   0.14521 
 N                     7.00852   4.26028   0.28516 
 O                     5.87123   4.85126   0.39344 
 O                     8.10042   4.93983   0.30593 
 C                     5.85307   2.1276    0.1353 
 C                     7.1233   -1.34444  -0.2778 
 C                     5.93005  -2.03245  -0.2897 
 C                     5.85904  -3.52821  -0.48516 
 C                     4.6426   -4.12096   0.23021 
 C                     3.35439  -3.42431  -0.22139 
 N                    -1.4547   -1.19828  -0.00853 
 B                    -1.88039  -2.66958   0.20287 
 F                    -1.29936  -3.49462  -0.7799 
 F                    -1.46178  -3.12709   1.46793 
 N                    -3.41853  -2.71788   0.09678 
 C                    -4.18184  -3.8445    0.1185 
 C                    -3.60341  -5.21923   0.18861 
 C                    -5.53008  -3.47356   0.06722 
 C                    -5.60939  -2.07525   0.01824 
 C                    -6.89591  -1.30545  -0.05093 
 C                    -4.26496  -1.60407   0.04103 
 C                    -5.03042   1.43249  -1.25872 
 C                    -5.89645   2.524    -1.30287 
 H                    -6.35322   5.12794  -1.70286 
 H                    -7.88606   5.95548  -0.95834 
 H                    -6.39204   2.95159   2.03763 
 H                    -4.83415   1.014     2.11045 
 H                    -2.61049   2.77582   0.77036 
 H                    -1.10923   3.18606  -0.07556 
 H                    -2.56474   2.75718  -0.98722 
 H                     0.64245   1.34914  -0.13401 
 H                     0.78314  -2.64871  -0.15637 
 H                     2.4167   -0.04013  -0.01863 
 H                     9.30183   0.3408   -0.22615 
 H                     9.2118    2.80588   0.02211 
 H                     4.89506   2.61851   0.23727 
 H                     8.05866  -1.88686  -0.38618 
 H                     5.78598  -3.74814  -1.56011 
 H                     6.78965  -3.98607  -0.1348 
 H                     4.57435  -5.19542   0.03272 
 H                     4.76364  -3.99733   1.31342 
 H                     3.1186   -3.72253  -1.25341 
 H                     2.51822  -3.77537   0.39231 
 H                    -2.94697  -5.32766   1.05878 
 H                    -4.40385  -5.95839   0.26229 
 H                    -2.99967  -5.44453  -0.69667 
 H                    -6.36677  -4.16023   0.06436 
 H                    -7.03615  -0.64986   0.81463 
 H                    -6.95401  -0.67115  -0.94124 
 H                    -7.73814  -2.00238  -0.08125 
 H                    -4.6701    0.99967  -2.18611 
 H                    -6.21762   2.92554  -2.25728 
 
 ITRead=  0  0  0  0  0  0  0  0  0  0  0  0  0  0  0  0  0  0  0  0
 ITRead=  0  0  0  0  0  0  0  0  0  0  0  0  0  0  0  0  0  0  0  0
 ITRead=  0  0  0  0  0  0  0  0  0  0  0  0  0  0  0  0  0  0  0  0
 ITRead=  0  0  0  0  0  0  0  0  0  0  0  0  0  0
 MicOpt= -1 -1 -1 -1 -1 -1 -1 -1 -1 -1 -1 -1 -1 -1 -1 -1 -1 -1 -1 -1
 MicOpt= -1 -1 -1 -1 -1 -1 -1 -1 -1 -1 -1 -1 -1 -1 -1 -1 -1 -1 -1 -1
 MicOpt= -1 -1 -1 -1 -1 -1 -1 -1 -1 -1 -1 -1 -1 -1 -1 -1 -1 -1 -1 -1
 MicOpt= -1 -1 -1 -1 -1 -1 -1 -1 -1 -1 -1 -1 -1 -1
 NAtoms=     74 NQM=       74 NQMF=       0 NMMI=      0 NMMIF=      0
                NMic=       0 NMicF=      0.
                    Isotopes and Nuclear Properties:
 (Nuclear quadrupole moments (NQMom) in fm**2, nuclear magnetic moments (NMagM)
  in nuclear magnetons)

  Atom         1           2           3           4           5           6           7           8           9          10
 IAtWgt=          12          14          16          12          12          12          12          12          12          12
 AtmWgt=  12.0000000  14.0030740  15.9949146  12.0000000  12.0000000  12.0000000  12.0000000  12.0000000  12.0000000  12.0000000
 NucSpn=           0           2           0           0           0           0           0           0           0           0
 AtZEff=  -0.0000000  -0.0000000  -0.0000000  -0.0000000  -0.0000000  -0.0000000  -0.0000000  -0.0000000  -0.0000000  -0.0000000
 NQMom=    0.0000000   2.0440000   0.0000000   0.0000000   0.0000000   0.0000000   0.0000000   0.0000000   0.0000000   0.0000000
 NMagM=    0.0000000   0.4037610   0.0000000   0.0000000   0.0000000   0.0000000   0.0000000   0.0000000   0.0000000   0.0000000
 AtZNuc=   6.0000000   7.0000000   8.0000000   6.0000000   6.0000000   6.0000000   6.0000000   6.0000000   6.0000000   6.0000000

  Atom        11          12          13          14          15          16          17          18          19          20
 IAtWgt=          12          12          12          12          12          12          12          16          12          12
 AtmWgt=  12.0000000  12.0000000  12.0000000  12.0000000  12.0000000  12.0000000  12.0000000  15.9949146  12.0000000  12.0000000
 NucSpn=           0           0           0           0           0           0           0           0           0           0
 AtZEff=  -0.0000000  -0.0000000  -0.0000000  -0.0000000  -0.0000000  -0.0000000  -0.0000000  -0.0000000  -0.0000000  -0.0000000
 NQMom=    0.0000000   0.0000000   0.0000000   0.0000000   0.0000000   0.0000000   0.0000000   0.0000000   0.0000000   0.0000000
 NMagM=    0.0000000   0.0000000   0.0000000   0.0000000   0.0000000   0.0000000   0.0000000   0.0000000   0.0000000   0.0000000
 AtZNuc=   6.0000000   6.0000000   6.0000000   6.0000000   6.0000000   6.0000000   6.0000000   8.0000000   6.0000000   6.0000000

  Atom        21          22          23          24          25          26          27          28          29          30
 IAtWgt=          12          12          12          14          16          16          12          12          12          12
 AtmWgt=  12.0000000  12.0000000  12.0000000  14.0030740  15.9949146  15.9949146  12.0000000  12.0000000  12.0000000  12.0000000
 NucSpn=           0           0           0           2           0           0           0           0           0           0
 AtZEff=  -0.0000000  -0.0000000  -0.0000000  -0.0000000  -0.0000000  -0.0000000  -0.0000000  -0.0000000  -0.0000000  -0.0000000
 NQMom=    0.0000000   0.0000000   0.0000000   2.0440000   0.0000000   0.0000000   0.0000000   0.0000000   0.0000000   0.0000000
 NMagM=    0.0000000   0.0000000   0.0000000   0.4037610   0.0000000   0.0000000   0.0000000   0.0000000   0.0000000   0.0000000
 AtZNuc=   6.0000000   6.0000000   6.0000000   7.0000000   8.0000000   8.0000000   6.0000000   6.0000000   6.0000000   6.0000000

  Atom        31          32          33          34          35          36          37          38          39          40
 IAtWgt=          12          12          14          11          19          19          14          12          12          12
 AtmWgt=  12.0000000  12.0000000  14.0030740  11.0093053  18.9984033  18.9984033  14.0030740  12.0000000  12.0000000  12.0000000
 NucSpn=           0           0           2           3           1           1           2           0           0           0
 AtZEff=  -0.0000000  -0.0000000  -0.0000000  -0.0000000  -0.0000000  -0.0000000  -0.0000000  -0.0000000  -0.0000000  -0.0000000
 NQMom=    0.0000000   0.0000000   2.0440000   4.0590000   0.0000000   0.0000000   2.0440000   0.0000000   0.0000000   0.0000000
 NMagM=    0.0000000   0.0000000   0.4037610   2.6886370   2.6288670   2.6288670   0.4037610   0.0000000   0.0000000   0.0000000
 AtZNuc=   6.0000000   6.0000000   7.0000000   5.0000000   9.0000000   9.0000000   7.0000000   6.0000000   6.0000000   6.0000000

  Atom        41          42          43          44          45          46          47          48          49          50
 IAtWgt=          12          12          12          12          12           1           1           1           1           1
 AtmWgt=  12.0000000  12.0000000  12.0000000  12.0000000  12.0000000   1.0078250   1.0078250   1.0078250   1.0078250   1.0078250
 NucSpn=           0           0           0           0           0           1           1           1           1           1
 AtZEff=  -0.0000000  -0.0000000  -0.0000000  -0.0000000  -0.0000000  -0.0000000  -0.0000000  -0.0000000  -0.0000000  -0.0000000
 NQMom=    0.0000000   0.0000000   0.0000000   0.0000000   0.0000000   0.0000000   0.0000000   0.0000000   0.0000000   0.0000000
 NMagM=    0.0000000   0.0000000   0.0000000   0.0000000   0.0000000   2.7928460   2.7928460   2.7928460   2.7928460   2.7928460
 AtZNuc=   6.0000000   6.0000000   6.0000000   6.0000000   6.0000000   1.0000000   1.0000000   1.0000000   1.0000000   1.0000000

  Atom        51          52          53          54          55          56          57          58          59          60
 IAtWgt=           1           1           1           1           1           1           1           1           1           1
 AtmWgt=   1.0078250   1.0078250   1.0078250   1.0078250   1.0078250   1.0078250   1.0078250   1.0078250   1.0078250   1.0078250
 NucSpn=           1           1           1           1           1           1           1           1           1           1
 AtZEff=  -0.0000000  -0.0000000  -0.0000000  -0.0000000  -0.0000000  -0.0000000  -0.0000000  -0.0000000  -0.0000000  -0.0000000
 NQMom=    0.0000000   0.0000000   0.0000000   0.0000000   0.0000000   0.0000000   0.0000000   0.0000000   0.0000000   0.0000000
 NMagM=    2.7928460   2.7928460   2.7928460   2.7928460   2.7928460   2.7928460   2.7928460   2.7928460   2.7928460   2.7928460
 AtZNuc=   1.0000000   1.0000000   1.0000000   1.0000000   1.0000000   1.0000000   1.0000000   1.0000000   1.0000000   1.0000000

  Atom        61          62          63          64          65          66          67          68          69          70
 IAtWgt=           1           1           1           1           1           1           1           1           1           1
 AtmWgt=   1.0078250   1.0078250   1.0078250   1.0078250   1.0078250   1.0078250   1.0078250   1.0078250   1.0078250   1.0078250
 NucSpn=           1           1           1           1           1           1           1           1           1           1
 AtZEff=  -0.0000000  -0.0000000  -0.0000000  -0.0000000  -0.0000000  -0.0000000  -0.0000000  -0.0000000  -0.0000000  -0.0000000
 NQMom=    0.0000000   0.0000000   0.0000000   0.0000000   0.0000000   0.0000000   0.0000000   0.0000000   0.0000000   0.0000000
 NMagM=    2.7928460   2.7928460   2.7928460   2.7928460   2.7928460   2.7928460   2.7928460   2.7928460   2.7928460   2.7928460
 AtZNuc=   1.0000000   1.0000000   1.0000000   1.0000000   1.0000000   1.0000000   1.0000000   1.0000000   1.0000000   1.0000000

  Atom        71          72          73          74
 IAtWgt=           1           1           1           1
 AtmWgt=   1.0078250   1.0078250   1.0078250   1.0078250
 NucSpn=           1           1           1           1
 AtZEff=  -0.0000000  -0.0000000  -0.0000000  -0.0000000
 NQMom=    0.0000000   0.0000000   0.0000000   0.0000000
 NMagM=    2.7928460   2.7928460   2.7928460   2.7928460
 AtZNuc=   1.0000000   1.0000000   1.0000000   1.0000000
 Leave Link  101 at Fri Oct 24 22:00:53 2025, MaxMem= 30870077440 cpu:               4.8 elap:               0.1
 (Enter /public/software/gauss/g16/l202.exe)
 Stoichiometry    C34H29BF2N4O4(1-,2)
 Framework group  C1[X(C34H29BF2N4O4)]
 Deg. of freedom   216
 Full point group                 C1      NOp   1
 Largest Abelian subgroup         C1      NOp   1
 Largest concise Abelian subgroup C1      NOp   1
                         Standard orientation:                         
 ---------------------------------------------------------------------
 Center     Atomic      Atomic             Coordinates (Angstroms)
 Number     Number       Type             X           Y           Z
 ---------------------------------------------------------------------
      1          6           0       -7.162521    5.152079   -0.988841
      2          7           0       -7.277998    4.204105   -0.103856
      3          8           0       -8.178297    4.200493    0.829254
      4          6           0       -6.364153    3.066398   -0.106635
      5          6           0       -5.999819    2.522344    1.123958
      6          6           0       -5.130048    1.435351    1.155271
      7          6           0       -4.634347    0.880184   -0.033343
      8          6           0       -3.714321   -0.297321    0.002848
      9          6           0       -2.332291   -0.106828   -0.015654
     10          6           0       -1.532531    1.097954   -0.062645
     11          6           0       -1.981685    2.527489   -0.090007
     12          6           0       -0.216894    0.694649   -0.084923
     13          6           0       -0.166865   -0.733230   -0.055047
     14          6           0        0.971141   -1.584158   -0.090700
     15          6           0        2.268822   -1.114464   -0.072401
     16          6           0        3.439995   -1.910365   -0.133880
     17          6           0        4.703944   -1.319849   -0.140658
     18          8           0        4.743645    0.057236    0.001580
     19          6           0        5.930351    0.757887   -0.001846
     20          6           0        7.161685    0.067009   -0.136522
     21          6           0        8.346729    0.847434   -0.123294
     22          6           0        8.304147    2.216981    0.014036
     23          6           0        7.055028    2.875851    0.145213
     24          7           0        7.008522    4.260279    0.285156
     25          8           0        5.871230    4.851258    0.393439
     26          8           0        8.100425    4.939825    0.305932
     27          6           0        5.853068    2.127604    0.135297
     28          6           0        7.123304   -1.344439   -0.277800
     29          6           0        5.930054   -2.032451   -0.289696
     30          6           0        5.859035   -3.528214   -0.485160
     31          6           0        4.642597   -4.120965    0.230206
     32          6           0        3.354391   -3.424307   -0.221393
     33          7           0       -1.454696   -1.198275   -0.008526
     34          5           0       -1.880389   -2.669580    0.202872
     35          9           0       -1.299358   -3.494624   -0.779903
     36          9           0       -1.461778   -3.127086    1.467926
     37          7           0       -3.418526   -2.717881    0.096781
     38          6           0       -4.181842   -3.844504    0.118498
     39          6           0       -3.603405   -5.219233    0.188607
     40          6           0       -5.530082   -3.473556    0.067215
     41          6           0       -5.609394   -2.075252    0.018243
     42          6           0       -6.895906   -1.305445   -0.050927
     43          6           0       -4.264960   -1.604067    0.041034
     44          6           0       -5.030421    1.432494   -1.258724
     45          6           0       -5.896446    2.523995   -1.302871
     46          1           0       -6.353216    5.127939   -1.702861
     47          1           0       -7.886058    5.955482   -0.958340
     48          1           0       -6.392036    2.951590    2.037625
     49          1           0       -4.834150    1.014002    2.110450
     50          1           0       -2.610492    2.775820    0.770362
     51          1           0       -1.109226    3.186059   -0.075557
     52          1           0       -2.564741    2.757181   -0.987217
     53          1           0        0.642445    1.349140   -0.134006
     54          1           0        0.783142   -2.648708   -0.156374
     55          1           0        2.416701   -0.040128   -0.018630
     56          1           0        9.301828    0.340796   -0.226151
     57          1           0        9.211804    2.805880    0.022113
     58          1           0        4.895057    2.618507    0.237270
     59          1           0        8.058662   -1.886855   -0.386176
     60          1           0        5.785983   -3.748144   -1.560113
     61          1           0        6.789654   -3.986073   -0.134803
     62          1           0        4.574352   -5.195417    0.032720
     63          1           0        4.763638   -3.997325    1.313418
     64          1           0        3.118601   -3.722529   -1.253412
     65          1           0        2.518218   -3.775371    0.392310
     66          1           0       -2.946970   -5.327658    1.058781
     67          1           0       -4.403851   -5.958387    0.262292
     68          1           0       -2.999671   -5.444525   -0.696667
     69          1           0       -6.366769   -4.160225    0.064363
     70          1           0       -7.036149   -0.649856    0.814626
     71          1           0       -6.954006   -0.671148   -0.941237
     72          1           0       -7.738139   -2.002382   -0.081253
     73          1           0       -4.670100    0.999669   -2.186110
     74          1           0       -6.217620    2.925536   -2.257284
 ---------------------------------------------------------------------
 Rotational constants (GHZ):           0.0987424           0.0298840           0.0233517
 Leave Link  202 at Fri Oct 24 22:00:53 2025, MaxMem= 30870077440 cpu:               0.2 elap:               0.0
 (Enter /public/software/gauss/g16/l301.exe)
 Standard basis: def2TZVPP (5D, 7F)
 Ernie: Thresh=  0.10000D-02 Tol=  0.10000D-05 Strict=F.
 There are  2055 symmetry adapted cartesian basis functions of A   symmetry.
 There are  1801 symmetry adapted basis functions of A   symmetry.
  1801 basis functions,  2788 primitive gaussians,  2055 cartesian basis functions
   159 alpha electrons      158 beta electrons
       nuclear repulsion energy      4996.4085150655 Hartrees.
 IExCor= 4336 DFT=T Ex+Corr=M062X ExCW=0 ScaHFX=  0.540000
 ScaDFX=  1.000000  1.000000  1.000000  1.000000 ScalE2=  1.000000  1.000000
 IRadAn=      5 IRanWt=     -1 IRanGd=            0 ICorTp=0 IEmpDi=131
 NAtoms=   74 NActive=   74 NUniq=   74 SFac= 1.00D+00 NAtFMM=   60 NAOKFM=T Big=T
 Integral buffers will be    131072 words long.
 Raffenetti 2 integral format.
 Two-electron integral symmetry is turned on.
 R6Disp:  Grimme-D3 Dispersion energy=       -0.0060900502 Hartrees.
 Nuclear repulsion after empirical dispersion term =     4996.4024250154 Hartrees.
 ------------------------------------------------------------------------------
 Polarizable Continuum Model (PCM)
 =================================
 Model                : PCM.
 Atomic radii         : UFF (Universal Force Field).
 Polarization charges : Total charges.
 Charge compensation  : None.
 Solution method      : On-the-fly selection.
 Cavity type          : Scaled VdW (van der Waals Surface) (Alpha=1.100).
 Cavity algorithm     : GePol (No added spheres)
                        Default sphere list used, NSphG=   74.
                        Lebedev-Laikov grids with approx.  5.0 points / Ang**2.
                        Smoothing algorithm: York/Karplus (Gamma=1.0000).
                        Polarization charges: spherical gaussians, with
                                              point-specific exponents (IZeta= 3).
                        Self-potential: point-specific (ISelfS= 7).
                        Self-field    : sphere-specific E.n sum rule (ISelfD= 2).
 Solvent              : Water, Eps=  78.355300 Eps(inf)=   1.777849
 ------------------------------------------------------------------------------
 GePol: Number of generator spheres                  =      74
 GePol: Total number of spheres                      =      74
 GePol: Number of exposed spheres                    =      74 (100.00%)
 GePol: Number of points                             =    5335
 GePol: Average weight of points                     =       0.13
 GePol: Minimum weight of points                     =   0.12D-10
 GePol: Maximum weight of points                     =    0.20577
 GePol: Number of points with low weight             =     367
 GePol: Fraction of low-weight points (<1% of avg)   =       6.88%
 GePol: Cavity surface area                          =    674.468 Ang**2
 GePol: Cavity volume                                =    781.128 Ang**3
 Leave Link  301 at Fri Oct 24 22:00:53 2025, MaxMem= 30870077440 cpu:               4.2 elap:               0.1
 (Enter /public/software/gauss/g16/l302.exe)
 NPDir=0 NMtPBC=     1 NCelOv=     1 NCel=       1 NClECP=     1 NCelD=      1
         NCelK=      1 NCelE2=     1 NClLst=     1 CellRange=     0.0.
 One-electron integrals computed using PRISM.
 One-electron integral symmetry used in STVInt
   1 Symmetry operations used in ECPInt.
 ECPInt:  NShTT=  224115 NPrTT=  642355 LenC2=  138873 LenP2D=  268910.
 LDataN:  DoStor=T MaxTD1= 6 Len=  172
 NBasis=  1801 RedAO= T EigKep=  3.63D-06  NBF=  1801
 NBsUse=  1801 1.00D-06 EigRej= -1.00D+00 NBFU=  1801
 Precomputing XC quadrature grid using
 IXCGrd= 4 IRadAn=           5 IRanWt=          -1 IRanGd=           0 AccXCQ= 0.00D+00.
 Generated NRdTot=       0 NPtTot=           0 NUsed=           0 NTot=          32
 NSgBfM=  1911  1902  1903  1910  1911 MxSgAt=    74 MxSgA2=    74.
 Leave Link  302 at Fri Oct 24 22:01:02 2025, MaxMem= 30870077440 cpu:             555.5 elap:               8.7
 (Enter /public/software/gauss/g16/l303.exe)
 DipDrv:  MaxL=1.
 Leave Link  303 at Fri Oct 24 22:01:02 2025, MaxMem= 30870077440 cpu:              26.2 elap:               0.5
 (Enter /public/software/gauss/g16/l401.exe)
 ExpMin= 6.06D-02 ExpMax= 3.55D+04 ExpMxC= 1.21D+03 IAcc=3 IRadAn=         5 AccDes= 0.00D+00
 Harris functional with IExCor= 1009 and IRadAn=       5 diagonalized for initial guess.
 HarFok:  IExCor= 1009 AccDes= 0.00D+00 IRadAn=         5 IDoV= 1 UseB2=F ITyADJ=14
 ICtDFT=  3500011 ScaDFX=  1.000000  1.000000  1.000000  1.000000
 FoFCou: FMM=F IPFlag=           0 FMFlag=      100000 FMFlg1=        2001
         NFxFlg=           0 DoJE=T BraDBF=F KetDBF=T FulRan=T
         wScrn=  0.000000 ICntrl=       500 IOpCl=  0 I1Cent=   200000004 NGrid=           0
         NMat0=    1 NMatS0=      1 NMatT0=    0 NMatD0=    1 NMtDS0=    0 NMtDT0=    0
 Petite list used in FoFCou.
 Harris En= -2056.73131581591    
 JPrj=0 DoOrth=F DoCkMO=F.
 Initial guess <Sx>= 0.0000 <Sy>= 0.0000 <Sz>= 0.5000 <S**2>= 0.7500 S= 0.5000
 Leave Link  401 at Fri Oct 24 22:01:12 2025, MaxMem= 30870077440 cpu:             649.2 elap:              10.2
 (Enter /public/software/gauss/g16/l502.exe)
 Integral symmetry usage will be decided dynamically.
 UHF open shell SCF:
 Using DIIS extrapolation, IDIIS=  1040.
 NGot= 30870077440 LenX= 30861482604 LenY= 30857257524
 Requested convergence on RMS density matrix=1.00D-08 within 128 cycles.
 Requested convergence on MAX density matrix=1.00D-06.
 Requested convergence on             energy=1.00D-06.
 No special actions if energy rises.
 Fock matrices will be formed incrementally for  20 cycles.

 Cycle   1  Pass 1  IDiag  1:
 FoFJK:  IHMeth= 1 ICntrl=       0 DoSepK=F KAlg= 0 I1Cent=           0 FoldK=F
 IRaf= 590000000 NMat=       1 IRICut=       1 DoRegI=T DoRafI=F ISym2E= 0 IDoP0=0 IntGTp=1.
 FoFCou: FMM=T IPFlag=           0 FMFlag=      100000 FMFlg1=        2001
         NFxFlg=           0 DoJE=F BraDBF=F KetDBF=F FulRan=T
         wScrn=  0.000000 ICntrl=         0 IOpCl=  1 I1Cent=           0 NGrid=           0
         NMat0=    1 NMatS0=      1 NMatT0=    0 NMatD0=    1 NMtDS0=    0 NMtDT0=    0
 Symmetry not used in FoFCou.
 FMM levels:  10  Number of levels for PrismC:   9
 Inv3:  Mode=1 IEnd=    85386675.
 Iteration    1 A*A^-1 deviation from unit magnitude is 7.44D-15 for   3114.
 Iteration    1 A*A^-1 deviation from orthogonality  is 4.76D-15 for   3547   3488.
 Iteration    1 A^-1*A deviation from unit magnitude is 6.88D-15 for   5325.
 Iteration    1 A^-1*A deviation from orthogonality  is 2.42D-15 for   4004   3397.
 E= -2056.50300196926    
 DIIS: error= 1.83D-02 at cycle   1 NSaved=   1.
 NSaved= 1 IEnMin= 1 EnMin= -2056.50300196926     IErMin= 1 ErrMin= 1.83D-02
 ErrMax= 1.83D-02  0.00D+00 EMaxC= 1.00D-01 BMatC= 6.04D+00 BMatP= 6.04D+00
 IDIUse=3 WtCom= 8.17D-01 WtEn= 1.83D-01
 Coeff-Com:  0.100D+01
 Coeff-En:   0.100D+01
 Coeff:      0.100D+01
 Gap=     0.057 Goal=   None    Shift=    0.000
 Gap=     0.107 Goal=   None    Shift=    0.000
 GapD=    0.057 DampG=0.500 DampE=0.500 DampFc=0.2500 IDamp=-1.
 Damping current iteration by 2.50D-01
 RMSDP=1.58D-03 MaxDP=4.68D-01              OVMax= 6.65D-01

 Cycle   2  Pass 1  IDiag  1:
 RMSU=  3.96D-04    CP:  9.94D-01
 E= -2056.90177903951     Delta-E=       -0.398777070243 Rises=F Damp=T
 DIIS: error= 1.12D-02 at cycle   2 NSaved=   2.
 NSaved= 2 IEnMin= 2 EnMin= -2056.90177903951     IErMin= 2 ErrMin= 1.12D-02
 ErrMax= 1.12D-02  0.00D+00 EMaxC= 1.00D-01 BMatC= 2.05D+00 BMatP= 6.04D+00
 IDIUse=3 WtCom= 8.88D-01 WtEn= 1.12D-01
 Coeff-Com: -0.105D+01 0.205D+01
 Coeff-En:   0.000D+00 0.100D+01
 Coeff:     -0.936D+00 0.194D+01
 Gap=     0.039 Goal=   None    Shift=    0.000
 Gap=     0.152 Goal=   None    Shift=    0.000
 RMSDP=9.02D-04 MaxDP=9.18D-02 DE=-3.99D-01 OVMax= 6.60D-01

 Cycle   3  Pass 1  IDiag  1:
 RMSU=  6.71D-04    CP:  9.78D-01  2.52D+00
 E= -2057.59154727767     Delta-E=       -0.689768238162 Rises=F Damp=F
 DIIS: error= 1.06D-02 at cycle   3 NSaved=   3.
 NSaved= 3 IEnMin= 3 EnMin= -2057.59154727767     IErMin= 3 ErrMin= 1.06D-02
 ErrMax= 1.06D-02  0.00D+00 EMaxC= 1.00D-01 BMatC= 3.41D-01 BMatP= 2.05D+00
 IDIUse=3 WtCom= 8.94D-01 WtEn= 1.06D-01
 Coeff-Com: -0.523D+00 0.911D+00 0.612D+00
 Coeff-En:   0.000D+00 0.000D+00 0.100D+01
 Coeff:     -0.467D+00 0.815D+00 0.653D+00
 Gap=     0.055 Goal=   None    Shift=    0.000
 Gap=     0.121 Goal=   None    Shift=    0.000
 RMSDP=2.86D-04 MaxDP=6.34D-02 DE=-6.90D-01 OVMax= 3.01D-01

 Cycle   4  Pass 1  IDiag  1:
 RMSU=  2.65D-04    CP:  9.75D-01  2.52D+00  8.41D-01
 E= -2057.65323879214     Delta-E=       -0.061691514475 Rises=F Damp=F
 DIIS: error= 4.89D-03 at cycle   4 NSaved=   4.
 NSaved= 4 IEnMin= 4 EnMin= -2057.65323879214     IErMin= 4 ErrMin= 4.89D-03
 ErrMax= 4.89D-03  0.00D+00 EMaxC= 1.00D-01 BMatC= 7.56D-02 BMatP= 3.41D-01
 IDIUse=3 WtCom= 9.51D-01 WtEn= 4.89D-02
 Coeff-Com: -0.963D-01 0.158D+00 0.338D+00 0.601D+00
 Coeff-En:   0.000D+00 0.000D+00 0.147D+00 0.853D+00
 Coeff:     -0.916D-01 0.150D+00 0.329D+00 0.613D+00
 Gap=     0.069 Goal=   None    Shift=    0.000
 Gap=     0.133 Goal=   None    Shift=    0.000
 RMSDP=8.72D-05 MaxDP=1.83D-02 DE=-6.17D-02 OVMax= 7.42D-02

 Cycle   5  Pass 1  IDiag  1:
 RMSU=  7.04D-05    CP:  9.76D-01  2.53D+00  8.65D-01  8.15D-01
 E= -2057.66957533183     Delta-E=       -0.016336539684 Rises=F Damp=F
 DIIS: error= 6.49D-04 at cycle   5 NSaved=   5.
 NSaved= 5 IEnMin= 5 EnMin= -2057.66957533183     IErMin= 5 ErrMin= 6.49D-04
 ErrMax= 6.49D-04  0.00D+00 EMaxC= 1.00D-01 BMatC= 4.40D-03 BMatP= 7.56D-02
 IDIUse=3 WtCom= 9.94D-01 WtEn= 6.49D-03
 Coeff-Com: -0.138D-01 0.206D-01 0.131D+00 0.291D+00 0.571D+00
 Coeff-En:   0.000D+00 0.000D+00 0.000D+00 0.000D+00 0.100D+01
 Coeff:     -0.137D-01 0.205D-01 0.130D+00 0.290D+00 0.574D+00
 Gap=     0.073 Goal=   None    Shift=    0.000
 Gap=     0.128 Goal=   None    Shift=    0.000
 RMSDP=3.89D-05 MaxDP=4.95D-03 DE=-1.63D-02 OVMax= 5.27D-02

 Cycle   6  Pass 1  IDiag  1:
 RMSU=  3.63D-05    CP:  9.76D-01  2.54D+00  8.57D-01  8.55D-01  1.08D+00
 E= -2057.67154249177     Delta-E=       -0.001967159947 Rises=F Damp=F
 DIIS: error= 6.12D-04 at cycle   6 NSaved=   6.
 NSaved= 6 IEnMin= 6 EnMin= -2057.67154249177     IErMin= 6 ErrMin= 6.12D-04
 ErrMax= 6.12D-04  0.00D+00 EMaxC= 1.00D-01 BMatC= 1.03D-03 BMatP= 4.40D-03
 IDIUse=3 WtCom= 9.94D-01 WtEn= 6.12D-03
 Coeff-Com:  0.581D-02-0.888D-02 0.140D-01 0.116D-01 0.262D+00 0.716D+00
 Coeff-En:   0.000D+00 0.000D+00 0.000D+00 0.000D+00 0.000D+00 0.100D+01
 Coeff:      0.578D-02-0.882D-02 0.140D-01 0.115D-01 0.260D+00 0.717D+00
 Gap=     0.079 Goal=   None    Shift=    0.000
 Gap=     0.130 Goal=   None    Shift=    0.000
 RMSDP=3.34D-05 MaxDP=4.56D-03 DE=-1.97D-03 OVMax= 4.53D-02

 Cycle   7  Pass 1  IDiag  1:
 RMSU=  2.10D-05    CP:  9.76D-01  2.55D+00  8.55D-01  8.69D-01  1.31D+00
                    CP:  1.54D+00
 E= -2057.67267860283     Delta-E=       -0.001136111056 Rises=F Damp=F
 DIIS: error= 5.41D-04 at cycle   7 NSaved=   7.
 NSaved= 7 IEnMin= 7 EnMin= -2057.67267860283     IErMin= 7 ErrMin= 5.41D-04
 ErrMax= 5.41D-04  0.00D+00 EMaxC= 1.00D-01 BMatC= 4.34D-04 BMatP= 1.03D-03
 IDIUse=3 WtCom= 9.95D-01 WtEn= 5.41D-03
 Coeff-Com:  0.385D-02-0.494D-02-0.111D-01-0.684D-01 0.346D-02 0.167D+00
 Coeff-Com:  0.911D+00
 Coeff-En:   0.000D+00 0.000D+00 0.000D+00 0.000D+00 0.000D+00 0.000D+00
 Coeff-En:   0.100D+01
 Coeff:      0.382D-02-0.492D-02-0.110D-01-0.680D-01 0.344D-02 0.166D+00
 Coeff:      0.911D+00
 Gap=     0.083 Goal=   None    Shift=    0.000
 Gap=     0.131 Goal=   None    Shift=    0.000
 RMSDP=3.63D-05 MaxDP=4.90D-03 DE=-1.14D-03 OVMax= 5.26D-02

 Cycle   8  Pass 1  IDiag  1:
 RMSU=  1.17D-05    CP:  9.76D-01  2.56D+00  8.52D-01  8.76D-01  1.50D+00
                    CP:  2.18D+00  1.99D+00
 E= -2057.67361304688     Delta-E=       -0.000934444057 Rises=F Damp=F
 DIIS: error= 5.12D-04 at cycle   8 NSaved=   8.
 NSaved= 8 IEnMin= 8 EnMin= -2057.67361304688     IErMin= 8 ErrMin= 5.12D-04
 ErrMax= 5.12D-04  0.00D+00 EMaxC= 1.00D-01 BMatC= 2.97D-04 BMatP= 4.34D-04
 IDIUse=3 WtCom= 9.95D-01 WtEn= 5.12D-03
 Coeff-Com: -0.165D-02 0.346D-02 0.127D-01-0.835D-02-0.261D-01-0.355D+00
 Coeff-Com:  0.165D+00 0.121D+01
 Coeff-En:   0.000D+00 0.000D+00 0.000D+00 0.000D+00 0.000D+00 0.000D+00
 Coeff-En:   0.000D+00 0.100D+01
 Coeff:     -0.164D-02 0.345D-02 0.126D-01-0.831D-02-0.259D-01-0.353D+00
 Coeff:      0.165D+00 0.121D+01
 Gap=     0.089 Goal=   None    Shift=    0.000
 Gap=     0.132 Goal=   None    Shift=    0.000
 RMSDP=4.48D-05 MaxDP=5.86D-03 DE=-9.34D-04 OVMax= 6.51D-02

 Cycle   9  Pass 1  IDiag  1:
 RMSU=  1.20D-05    CP:  9.76D-01  2.57D+00  8.48D-01  8.75D-01  1.66D+00
                    CP:  2.92D+00  3.00D+00  2.27D+00
 E= -2057.67450913731     Delta-E=       -0.000896090422 Rises=F Damp=F
 DIIS: error= 3.85D-04 at cycle   9 NSaved=   9.
 NSaved= 9 IEnMin= 9 EnMin= -2057.67450913731     IErMin= 9 ErrMin= 3.85D-04
 ErrMax= 3.85D-04  0.00D+00 EMaxC= 1.00D-01 BMatC= 2.00D-04 BMatP= 2.97D-04
 IDIUse=3 WtCom= 9.96D-01 WtEn= 3.85D-03
 Coeff-Com: -0.924D-03 0.190D-02 0.249D-01 0.377D-01 0.760D-01-0.166D+00
 Coeff-Com: -0.448D+00 0.323D+00 0.115D+01
 Coeff-En:   0.000D+00 0.000D+00 0.000D+00 0.000D+00 0.000D+00 0.000D+00
 Coeff-En:   0.000D+00 0.000D+00 0.100D+01
 Coeff:     -0.920D-03 0.189D-02 0.248D-01 0.376D-01 0.757D-01-0.165D+00
 Coeff:     -0.446D+00 0.322D+00 0.115D+01
 Gap=     0.092 Goal=   None    Shift=    0.000
 Gap=     0.131 Goal=   None    Shift=    0.000
 RMSDP=3.82D-05 MaxDP=5.61D-03 DE=-8.96D-04 OVMax= 5.65D-02

 Cycle  10  Pass 1  IDiag  1:
 RMSU=  2.31D-05    CP:  9.76D-01  2.58D+00  8.44D-01  8.64D-01  1.74D+00
                    CP:  3.00D+00  3.00D+00  3.00D+00  2.89D+00
 E= -2057.67511069691     Delta-E=       -0.000601559607 Rises=F Damp=F
 DIIS: error= 2.79D-04 at cycle  10 NSaved=  10.
 NSaved=10 IEnMin=10 EnMin= -2057.67511069691     IErMin=10 ErrMin= 2.79D-04
 ErrMax= 2.79D-04  0.00D+00 EMaxC= 1.00D-01 BMatC= 1.47D-04 BMatP= 2.00D-04
 IDIUse=3 WtCom= 9.97D-01 WtEn= 2.79D-03
 Coeff-Com:  0.193D-02-0.266D-02 0.149D-01 0.213D-01 0.102D+00 0.135D+00
 Coeff-Com: -0.324D+00-0.607D+00 0.613D+00 0.104D+01
 Coeff-En:   0.000D+00 0.000D+00 0.000D+00 0.000D+00 0.000D+00 0.000D+00
 Coeff-En:   0.000D+00 0.000D+00 0.000D+00 0.100D+01
 Coeff:      0.193D-02-0.265D-02 0.149D-01 0.213D-01 0.102D+00 0.135D+00
 Coeff:     -0.323D+00-0.605D+00 0.612D+00 0.104D+01
 Gap=     0.095 Goal=   None    Shift=    0.000
 Gap=     0.130 Goal=   None    Shift=    0.000
 RMSDP=3.52D-05 MaxDP=5.36D-03 DE=-6.02D-04 OVMax= 5.11D-02

 Cycle  11  Pass 1  IDiag  1:
 RMSU=  2.45D-05    CP:  9.76D-01  2.60D+00  8.42D-01  8.46D-01  1.78D+00
                    CP:  3.00D+00  3.00D+00  3.00D+00  3.00D+00  2.00D+00
 E= -2057.67554164473     Delta-E=       -0.000430947820 Rises=F Damp=F
 DIIS: error= 1.93D-04 at cycle  11 NSaved=  11.
 NSaved=11 IEnMin=11 EnMin= -2057.67554164473     IErMin=11 ErrMin= 1.93D-04
 ErrMax= 1.93D-04  0.00D+00 EMaxC= 1.00D-01 BMatC= 7.96D-05 BMatP= 1.47D-04
 IDIUse=3 WtCom= 9.98D-01 WtEn= 1.93D-03
 Coeff-Com:  0.380D-02-0.547D-02-0.573D-02-0.278D-01 0.197D-01 0.229D+00
 Coeff-Com:  0.269D+00-0.584D+00-0.758D+00 0.373D+00 0.149D+01
 Coeff-En:   0.000D+00 0.000D+00 0.000D+00 0.000D+00 0.000D+00 0.000D+00
 Coeff-En:   0.000D+00 0.000D+00 0.000D+00 0.000D+00 0.100D+01
 Coeff:      0.379D-02-0.546D-02-0.572D-02-0.278D-01 0.197D-01 0.228D+00
 Coeff:      0.269D+00-0.583D+00-0.756D+00 0.373D+00 0.148D+01
 Gap=     0.097 Goal=   None    Shift=    0.000
 Gap=     0.129 Goal=   None    Shift=    0.000
 RMSDP=4.24D-05 MaxDP=6.62D-03 DE=-4.31D-04 OVMax= 6.13D-02

 Cycle  12  Pass 1  IDiag  1:
 RMSU=  7.75D-06    CP:  9.76D-01  2.61D+00  8.40D-01  8.21D-01  1.79D+00
                    CP:  3.00D+00  3.00D+00  3.00D+00  3.00D+00  3.00D+00
                    CP:  2.32D+00
 E= -2057.67586998011     Delta-E=       -0.000328335379 Rises=F Damp=F
 DIIS: error= 7.45D-05 at cycle  12 NSaved=  12.
 NSaved=12 IEnMin=12 EnMin= -2057.67586998011     IErMin=12 ErrMin= 7.45D-05
 ErrMax= 7.45D-05  0.00D+00 EMaxC= 1.00D-01 BMatC= 2.51D-05 BMatP= 7.96D-05
 IDIUse=1 WtCom= 1.00D+00 WtEn= 0.00D+00
 Coeff-Com:  0.977D-03-0.127D-02-0.313D-02-0.176D-01-0.265D-01 0.146D-01
 Coeff-Com:  0.200D+00 0.771D-01-0.452D+00-0.406D+00 0.648D+00 0.966D+00
 Coeff:      0.977D-03-0.127D-02-0.313D-02-0.176D-01-0.265D-01 0.146D-01
 Coeff:      0.200D+00 0.771D-01-0.452D+00-0.406D+00 0.648D+00 0.966D+00
 Gap=     0.099 Goal=   None    Shift=    0.000
 Gap=     0.128 Goal=   None    Shift=    0.000
 RMSDP=1.93D-05 MaxDP=3.31D-03 DE=-3.28D-04 OVMax= 2.66D-02

 Cycle  13  Pass 1  IDiag  1:
 RMSU=  9.72D-06    CP:  9.76D-01  2.61D+00  8.41D-01  8.03D-01  1.79D+00
                    CP:  3.00D+00  3.00D+00  3.00D+00  3.00D+00  3.00D+00
                    CP:  2.91D+00  1.83D+00
 E= -2057.67593905129     Delta-E=       -0.000069071179 Rises=F Damp=F
 DIIS: error= 3.70D-05 at cycle  13 NSaved=  13.
 NSaved=13 IEnMin=13 EnMin= -2057.67593905129     IErMin=13 ErrMin= 3.70D-05
 ErrMax= 3.70D-05  0.00D+00 EMaxC= 1.00D-01 BMatC= 5.54D-06 BMatP= 2.51D-05
 IDIUse=1 WtCom= 1.00D+00 WtEn= 0.00D+00
 Coeff-Com: -0.554D-03 0.871D-03 0.249D-02 0.448D-02-0.934D-02-0.574D-01
 Coeff-Com: -0.321D-01 0.195D+00 0.140D+00-0.311D+00-0.222D+00 0.357D+00
 Coeff-Com:  0.933D+00
 Coeff:     -0.554D-03 0.871D-03 0.249D-02 0.448D-02-0.934D-02-0.574D-01
 Coeff:     -0.321D-01 0.195D+00 0.140D+00-0.311D+00-0.222D+00 0.357D+00
 Coeff:      0.933D+00
 Gap=     0.099 Goal=   None    Shift=    0.000
 Gap=     0.128 Goal=   None    Shift=    0.000
 RMSDP=6.58D-06 MaxDP=9.63D-04 DE=-6.91D-05 OVMax= 9.43D-03

 Cycle  14  Pass 1  IDiag  1:
 RMSU=  2.96D-06    CP:  9.76D-01  2.62D+00  8.41D-01  7.99D-01  1.78D+00
                    CP:  3.00D+00  3.00D+00  3.00D+00  3.00D+00  3.00D+00
                    CP:  3.00D+00  2.24D+00  1.27D+00
 E= -2057.67595400386     Delta-E=       -0.000014952567 Rises=F Damp=F
 DIIS: error= 1.98D-05 at cycle  14 NSaved=  14.
 NSaved=14 IEnMin=14 EnMin= -2057.67595400386     IErMin=14 ErrMin= 1.98D-05
 ErrMax= 1.98D-05  0.00D+00 EMaxC= 1.00D-01 BMatC= 2.19D-06 BMatP= 5.54D-06
 IDIUse=1 WtCom= 1.00D+00 WtEn= 0.00D+00
 Coeff-Com: -0.452D-03 0.672D-03 0.231D-02 0.626D-02 0.365D-02-0.319D-01
 Coeff-Com: -0.622D-01 0.690D-01 0.179D+00-0.684D-01-0.241D+00-0.736D-01
 Coeff-Com:  0.388D+00 0.829D+00
 Coeff:     -0.452D-03 0.672D-03 0.231D-02 0.626D-02 0.365D-02-0.319D-01
 Coeff:     -0.622D-01 0.690D-01 0.179D+00-0.684D-01-0.241D+00-0.736D-01
 Coeff:      0.388D+00 0.829D+00
 Gap=     0.099 Goal=   None    Shift=    0.000
 Gap=     0.128 Goal=   None    Shift=    0.000
 RMSDP=4.01D-06 MaxDP=6.13D-04 DE=-1.50D-05 OVMax= 5.43D-03

 Cycle  15  Pass 1  IDiag  1:
 RMSU=  1.19D-06    CP:  9.76D-01  2.62D+00  8.41D-01  7.95D-01  1.77D+00
                    CP:  3.00D+00  3.00D+00  3.00D+00  3.00D+00  3.00D+00
                    CP:  3.00D+00  2.44D+00  1.44D+00  1.96D+00
 E= -2057.67596014158     Delta-E=       -0.000006137722 Rises=F Damp=F
 DIIS: error= 1.31D-05 at cycle  15 NSaved=  15.
 NSaved=15 IEnMin=15 EnMin= -2057.67596014158     IErMin=15 ErrMin= 1.31D-05
 ErrMax= 1.31D-05  0.00D+00 EMaxC= 1.00D-01 BMatC= 8.50D-07 BMatP= 2.19D-06
 IDIUse=1 WtCom= 1.00D+00 WtEn= 0.00D+00
 Coeff-Com:  0.112D-03-0.171D-03 0.645D-04 0.205D-03 0.639D-02 0.848D-02
 Coeff-Com: -0.215D-02-0.414D-01 0.991D-02 0.679D-01-0.221D-03-0.147D+00
 Coeff-Com: -0.199D+00 0.215D+00 0.108D+01
 Coeff:      0.112D-03-0.171D-03 0.645D-04 0.205D-03 0.639D-02 0.848D-02
 Coeff:     -0.215D-02-0.414D-01 0.991D-02 0.679D-01-0.221D-03-0.147D+00
 Coeff:     -0.199D+00 0.215D+00 0.108D+01
 Gap=     0.099 Goal=   None    Shift=    0.000
 Gap=     0.128 Goal=   None    Shift=    0.000
 RMSDP=2.78D-06 MaxDP=3.09D-04 DE=-6.14D-06 OVMax= 3.28D-03

 Cycle  16  Pass 1  IDiag  1:
 RMSU=  1.07D-06    CP:  9.76D-01  2.62D+00  8.41D-01  7.94D-01  1.77D+00
                    CP:  3.00D+00  3.00D+00  3.00D+00  3.00D+00  3.00D+00
                    CP:  3.00D+00  2.60D+00  1.50D+00  2.67D+00  1.29D+00
 E= -2057.67596412814     Delta-E=       -0.000003986555 Rises=F Damp=F
 DIIS: error= 1.01D-05 at cycle  16 NSaved=  16.
 NSaved=16 IEnMin=16 EnMin= -2057.67596412814     IErMin=16 ErrMin= 1.01D-05
 ErrMax= 1.01D-05  0.00D+00 EMaxC= 1.00D-01 BMatC= 5.98D-07 BMatP= 8.50D-07
 IDIUse=1 WtCom= 1.00D+00 WtEn= 0.00D+00
 Coeff-Com:  0.205D-03-0.296D-03-0.707D-03-0.261D-02 0.238D-02 0.143D-01
 Coeff-Com:  0.271D-01-0.425D-01-0.833D-01 0.418D-01 0.116D+00-0.523D-02
 Coeff-Com: -0.243D+00-0.381D+00 0.477D+00 0.108D+01
 Coeff:      0.205D-03-0.296D-03-0.707D-03-0.261D-02 0.238D-02 0.143D-01
 Coeff:      0.271D-01-0.425D-01-0.833D-01 0.418D-01 0.116D+00-0.523D-02
 Coeff:     -0.243D+00-0.381D+00 0.477D+00 0.108D+01
 Gap=     0.099 Goal=   None    Shift=    0.000
 Gap=     0.128 Goal=   None    Shift=    0.000
 RMSDP=3.20D-06 MaxDP=3.89D-04 DE=-3.99D-06 OVMax= 4.07D-03

 Cycle  17  Pass 1  IDiag  1:
 RMSU=  1.43D-06    CP:  9.76D-01  2.62D+00  8.41D-01  7.91D-01  1.76D+00
                    CP:  3.00D+00  3.00D+00  3.00D+00  3.00D+00  3.00D+00
                    CP:  3.00D+00  2.75D+00  1.61D+00  3.00D+00  1.97D+00
                    CP:  1.85D+00
 E= -2057.67596713959     Delta-E=       -0.000003011450 Rises=F Damp=F
 DIIS: error= 7.78D-06 at cycle  17 NSaved=  17.
 NSaved=17 IEnMin=17 EnMin= -2057.67596713959     IErMin=17 ErrMin= 7.78D-06
 ErrMax= 7.78D-06  0.00D+00 EMaxC= 1.00D-01 BMatC= 2.43D-07 BMatP= 5.98D-07
 IDIUse=1 WtCom= 1.00D+00 WtEn= 0.00D+00
 Coeff-Com:  0.760D-04-0.117D-03-0.172D-03-0.991D-03 0.355D-04 0.230D-02
 Coeff-Com:  0.126D-01 0.460D-02-0.352D-01-0.103D-01 0.475D-01 0.733D-01
 Coeff-Com:  0.244D-02-0.304D+00-0.376D+00 0.365D+00 0.122D+01
 Coeff:      0.760D-04-0.117D-03-0.172D-03-0.991D-03 0.355D-04 0.230D-02
 Coeff:      0.126D-01 0.460D-02-0.352D-01-0.103D-01 0.475D-01 0.733D-01
 Coeff:      0.244D-02-0.304D+00-0.376D+00 0.365D+00 0.122D+01
 Gap=     0.099 Goal=   None    Shift=    0.000
 Gap=     0.128 Goal=   None    Shift=    0.000
 RMSDP=2.46D-06 MaxDP=3.43D-04 DE=-3.01D-06 OVMax= 3.11D-03

 Cycle  18  Pass 1  IDiag  1:
 RMSU=  9.85D-07    CP:  9.76D-01  2.62D+00  8.40D-01  7.92D-01  1.75D+00
                    CP:  3.00D+00  3.00D+00  3.00D+00  3.00D+00  3.00D+00
                    CP:  3.00D+00  2.81D+00  1.57D+00  3.00D+00  1.83D+00
                    CP:  3.00D+00  1.72D+00
 E= -2057.67596896975     Delta-E=       -0.000001830160 Rises=F Damp=F
 DIIS: error= 6.74D-06 at cycle  18 NSaved=  18.
 NSaved=18 IEnMin=18 EnMin= -2057.67596896975     IErMin=18 ErrMin= 6.74D-06
 ErrMax= 6.74D-06  0.00D+00 EMaxC= 1.00D-01 BMatC= 2.11D-07 BMatP= 2.43D-07
 IDIUse=1 WtCom= 1.00D+00 WtEn= 0.00D+00
 Coeff-Com: -0.113D-03 0.168D-03 0.228D-03 0.441D-03-0.159D-02-0.797D-02
 Coeff-Com: -0.445D-02 0.278D-01 0.636D-02-0.378D-01-0.210D-01 0.670D-01
 Coeff-Com:  0.133D+00-0.735D-02-0.516D+00-0.453D+00 0.799D+00 0.102D+01
 Coeff:     -0.113D-03 0.168D-03 0.228D-03 0.441D-03-0.159D-02-0.797D-02
 Coeff:     -0.445D-02 0.278D-01 0.636D-02-0.378D-01-0.210D-01 0.670D-01
 Coeff:      0.133D+00-0.735D-02-0.516D+00-0.453D+00 0.799D+00 0.102D+01
 Gap=     0.099 Goal=   None    Shift=    0.000
 Gap=     0.128 Goal=   None    Shift=    0.000
 RMSDP=2.88D-06 MaxDP=3.16D-04 DE=-1.83D-06 OVMax= 3.42D-03

 Cycle  19  Pass 1  IDiag  1:
 RMSU=  7.17D-07    CP:  9.76D-01  2.62D+00  8.40D-01  7.90D-01  1.75D+00
                    CP:  3.00D+00  3.00D+00  3.00D+00  3.00D+00  3.00D+00
                    CP:  3.00D+00  2.94D+00  1.66D+00  3.00D+00  2.43D+00
                    CP:  3.00D+00  3.00D+00  1.99D+00
 E= -2057.67597010450     Delta-E=       -0.000001134755 Rises=F Damp=F
 DIIS: error= 3.51D-06 at cycle  19 NSaved=  19.
 NSaved=19 IEnMin=19 EnMin= -2057.67597010450     IErMin=19 ErrMin= 3.51D-06
 ErrMax= 3.51D-06  0.00D+00 EMaxC= 1.00D-01 BMatC= 6.08D-08 BMatP= 2.11D-07
 IDIUse=1 WtCom= 1.00D+00 WtEn= 0.00D+00
 Coeff-Com: -0.237D-04 0.300D-04 0.205D-03 0.729D-03 0.405D-03-0.254D-02
 Coeff-Com: -0.797D-02 0.104D-01 0.223D-01-0.717D-02-0.349D-01-0.429D-02
 Coeff-Com:  0.699D-01 0.157D+00-0.906D-01-0.456D+00-0.802D-01 0.550D+00
 Coeff-Com:  0.873D+00
 Coeff:     -0.237D-04 0.300D-04 0.205D-03 0.729D-03 0.405D-03-0.254D-02
 Coeff:     -0.797D-02 0.104D-01 0.223D-01-0.717D-02-0.349D-01-0.429D-02
 Coeff:      0.699D-01 0.157D+00-0.906D-01-0.456D+00-0.802D-01 0.550D+00
 Coeff:      0.873D+00
 Gap=     0.099 Goal=   None    Shift=    0.000
 Gap=     0.128 Goal=   None    Shift=    0.000
 RMSDP=1.27D-06 MaxDP=1.80D-04 DE=-1.13D-06 OVMax= 1.49D-03

 Cycle  20  Pass 1  IDiag  1:
 RMSU=  3.04D-07    CP:  9.76D-01  2.62D+00  8.40D-01  7.91D-01  1.75D+00
                    CP:  3.00D+00  3.00D+00  3.00D+00  3.00D+00  3.00D+00
                    CP:  3.00D+00  2.94D+00  1.61D+00  3.00D+00  2.20D+00
                    CP:  3.00D+00  3.00D+00  2.97D+00  1.56D+00
 E= -2057.67597030633     Delta-E=       -0.000000201831 Rises=F Damp=F
 DIIS: error= 3.09D-06 at cycle  20 NSaved=  20.
 NSaved=20 IEnMin=20 EnMin= -2057.67597030633     IErMin=20 ErrMin= 3.09D-06
 ErrMax= 3.09D-06  0.00D+00 EMaxC= 1.00D-01 BMatC= 3.27D-08 BMatP= 6.08D-08
 IDIUse=1 WtCom= 1.00D+00 WtEn= 0.00D+00
 Coeff-Com:  0.746D-05-0.970D-05 0.158D-04 0.105D-03 0.264D-03 0.454D-03
 Coeff-Com: -0.235D-02-0.814D-03 0.479D-02 0.410D-02-0.909D-02-0.184D-01
 Coeff-Com: -0.246D-02 0.727D-01 0.887D-01-0.101D+00-0.275D+00-0.406D-01
 Coeff-Com:  0.547D+00 0.731D+00
 Coeff:      0.746D-05-0.970D-05 0.158D-04 0.105D-03 0.264D-03 0.454D-03
 Coeff:     -0.235D-02-0.814D-03 0.479D-02 0.410D-02-0.909D-02-0.184D-01
 Coeff:     -0.246D-02 0.727D-01 0.887D-01-0.101D+00-0.275D+00-0.406D-01
 Coeff:      0.547D+00 0.731D+00
 Gap=     0.099 Goal=   None    Shift=    0.000
 Gap=     0.128 Goal=   None    Shift=    0.000
 RMSDP=8.13D-07 MaxDP=9.93D-05 DE=-2.02D-07 OVMax= 1.03D-03

 Cycle  21  Pass 1  IDiag  1:
 Restarting incremental Fock formation.
 E= -2057.67597038318     Delta-E=       -0.000000076843 Rises=F Damp=F
 DIIS: error= 6.81D-07 at cycle  21 NSaved=  20.
 NSaved=20 IEnMin=20 EnMin= -2057.67597038318     IErMin=20 ErrMin= 6.81D-07
 ErrMax= 6.81D-07  0.00D+00 EMaxC= 1.00D-01 BMatC= 2.12D-09 BMatP= 3.27D-08
 IDIUse=1 WtCom= 1.00D+00 WtEn= 0.00D+00
 Coeff-Com:  0.330D-05 0.162D-04 0.756D-06 0.141D-03 0.820D-03-0.134D-03
 Coeff-Com: -0.209D-02-0.947D-03 0.342D-02 0.216D-02-0.828D-02-0.133D-01
 Coeff-Com:  0.585D-03 0.543D-01 0.573D-01-0.995D-01-0.152D+00 0.642D-01
 Coeff-Com:  0.237D+00 0.856D+00
 Coeff:      0.330D-05 0.162D-04 0.756D-06 0.141D-03 0.820D-03-0.134D-03
 Coeff:     -0.209D-02-0.947D-03 0.342D-02 0.216D-02-0.828D-02-0.133D-01
 Coeff:      0.585D-03 0.543D-01 0.573D-01-0.995D-01-0.152D+00 0.642D-01
 Coeff:      0.237D+00 0.856D+00
 Gap=     0.099 Goal=   None    Shift=    0.000
 Gap=     0.128 Goal=   None    Shift=    0.000
 RMSDP=1.87D-07 MaxDP=2.53D-05 DE=-7.68D-08 OVMax= 2.39D-04

 Cycle  22  Pass 1  IDiag  1:
 RMSU=  1.87D-07    CP:  1.00D+00
 E= -2057.67597038928     Delta-E=       -0.000000006104 Rises=F Damp=F
 DIIS: error= 3.84D-07 at cycle  22 NSaved=  20.
 NSaved=20 IEnMin=20 EnMin= -2057.67597038928     IErMin=20 ErrMin= 3.84D-07
 ErrMax= 3.84D-07  0.00D+00 EMaxC= 1.00D-01 BMatC= 8.16D-10 BMatP= 2.12D-09
 IDIUse=1 WtCom= 1.00D+00 WtEn= 0.00D+00
 Coeff-Com: -0.142D-06-0.290D-04-0.986D-05 0.289D-03 0.352D-03-0.758D-03
 Coeff-Com: -0.138D-02 0.557D-03 0.292D-02-0.226D-03-0.577D-02-0.155D-01
 Coeff-Com:  0.467D-02 0.501D-01 0.945D-02-0.634D-01-0.729D-01-0.594D-01
 Coeff-Com:  0.406D+00 0.745D+00
 Coeff:     -0.142D-06-0.290D-04-0.986D-05 0.289D-03 0.352D-03-0.758D-03
 Coeff:     -0.138D-02 0.557D-03 0.292D-02-0.226D-03-0.577D-02-0.155D-01
 Coeff:      0.467D-02 0.501D-01 0.945D-02-0.634D-01-0.729D-01-0.594D-01
 Coeff:      0.406D+00 0.745D+00
 Gap=     0.099 Goal=   None    Shift=    0.000
 Gap=     0.128 Goal=   None    Shift=    0.000
 RMSDP=8.93D-08 MaxDP=1.07D-05 DE=-6.10D-09 OVMax= 1.12D-04

 Cycle  23  Pass 1  IDiag  1:
 RMSU=  5.47D-08    CP:  1.00D+00  1.38D+00
 E= -2057.67597039007     Delta-E=       -0.000000000789 Rises=F Damp=F
 DIIS: error= 3.38D-07 at cycle  23 NSaved=  20.
 NSaved=20 IEnMin=20 EnMin= -2057.67597039007     IErMin=20 ErrMin= 3.38D-07
 ErrMax= 3.38D-07  0.00D+00 EMaxC= 1.00D-01 BMatC= 1.55D-10 BMatP= 8.16D-10
 IDIUse=1 WtCom= 1.00D+00 WtEn= 0.00D+00
 Coeff-Com: -0.200D-05 0.340D-05-0.101D-04 0.156D-03 0.273D-04-0.153D-03
 Coeff-Com: -0.457D-03 0.673D-03 0.179D-02 0.808D-03-0.525D-02-0.112D-01
 Coeff-Com:  0.469D-02 0.273D-01 0.158D-01-0.406D-01-0.911D-01-0.671D-01
 Coeff-Com:  0.265D+00 0.900D+00
 Coeff:     -0.200D-05 0.340D-05-0.101D-04 0.156D-03 0.273D-04-0.153D-03
 Coeff:     -0.457D-03 0.673D-03 0.179D-02 0.808D-03-0.525D-02-0.112D-01
 Coeff:      0.469D-02 0.273D-01 0.158D-01-0.406D-01-0.911D-01-0.671D-01
 Coeff:      0.265D+00 0.900D+00
 Gap=     0.099 Goal=   None    Shift=    0.000
 Gap=     0.128 Goal=   None    Shift=    0.000
 RMSDP=2.21D-08 MaxDP=2.83D-06 DE=-7.89D-10 OVMax= 1.58D-05

 Cycle  24  Pass 1  IDiag  1:
 RMSU=  1.47D-08    CP:  1.00D+00  1.43D+00  7.79D-01
 E= -2057.67597039056     Delta-E=       -0.000000000495 Rises=F Damp=F
 DIIS: error= 1.76D-07 at cycle  24 NSaved=  20.
 NSaved=20 IEnMin=20 EnMin= -2057.67597039056     IErMin=20 ErrMin= 1.76D-07
 ErrMax= 1.76D-07  0.00D+00 EMaxC= 1.00D-01 BMatC= 7.44D-11 BMatP= 1.55D-10
 IDIUse=1 WtCom= 1.00D+00 WtEn= 0.00D+00
 Coeff-Com: -0.242D-05-0.884D-04 0.395D-04 0.185D-03 0.151D-03-0.398D-03
 Coeff-Com: -0.321D-03 0.932D-03 0.160D-02 0.178D-02-0.516D-02-0.115D-01
 Coeff-Com:  0.810D-02 0.204D-01 0.812D-02-0.209D-01-0.131D+00-0.135D+00
 Coeff-Com:  0.371D+00 0.892D+00
 Coeff:     -0.242D-05-0.884D-04 0.395D-04 0.185D-03 0.151D-03-0.398D-03
 Coeff:     -0.321D-03 0.932D-03 0.160D-02 0.178D-02-0.516D-02-0.115D-01
 Coeff:      0.810D-02 0.204D-01 0.812D-02-0.209D-01-0.131D+00-0.135D+00
 Coeff:      0.371D+00 0.892D+00
 Gap=     0.099 Goal=   None    Shift=    0.000
 Gap=     0.128 Goal=   None    Shift=    0.000
 RMSDP=1.76D-08 MaxDP=2.61D-06 DE=-4.95D-10 OVMax= 2.03D-05

 Cycle  25  Pass 1  IDiag  1:
 RMSU=  5.84D-09    CP:  1.00D+00  1.48D+00  1.02D+00  1.31D+00
 E= -2057.67597039052     Delta-E=        0.000000000047 Rises=F Damp=F
 DIIS: error= 1.18D-07 at cycle  25 NSaved=  20.
 NSaved=20 IEnMin=19 EnMin= -2057.67597039056     IErMin=20 ErrMin= 1.18D-07
 ErrMax= 1.18D-07  0.00D+00 EMaxC= 1.00D-01 BMatC= 1.34D-11 BMatP= 7.44D-11
 IDIUse=1 WtCom= 1.00D+00 WtEn= 0.00D+00
 Coeff-Com: -0.362D-04-0.424D-04 0.600D-04 0.128D-03-0.117D-04-0.394D-03
 Coeff-Com: -0.226D-03 0.286D-03 0.264D-02 0.200D-02-0.596D-02-0.628D-02
 Coeff-Com:  0.140D-02 0.176D-01 0.262D-01-0.204D-01-0.149D+00-0.184D+00
 Coeff-Com:  0.283D+00 0.103D+01
 Coeff:     -0.362D-04-0.424D-04 0.600D-04 0.128D-03-0.117D-04-0.394D-03
 Coeff:     -0.226D-03 0.286D-03 0.264D-02 0.200D-02-0.596D-02-0.628D-02
 Coeff:      0.140D-02 0.176D-01 0.262D-01-0.204D-01-0.149D+00-0.184D+00
 Coeff:      0.283D+00 0.103D+01
 Gap=     0.099 Goal=   None    Shift=    0.000
 Gap=     0.128 Goal=   None    Shift=    0.000
 RMSDP=9.39D-09 MaxDP=1.48D-06 DE= 4.73D-11 OVMax= 8.57D-06

 Cycle  26  Pass 1  IDiag  1:
 RMSU=  2.86D-09    CP:  1.00D+00  1.49D+00  1.15D+00  1.54D+00  1.62D+00
 E= -2057.67597039060     Delta-E=       -0.000000000087 Rises=F Damp=F
 DIIS: error= 3.90D-08 at cycle  26 NSaved=  20.
 NSaved=20 IEnMin=20 EnMin= -2057.67597039060     IErMin=20 ErrMin= 3.90D-08
 ErrMax= 3.90D-08  0.00D+00 EMaxC= 1.00D-01 BMatC= 6.09D-12 BMatP= 1.34D-11
 IDIUse=1 WtCom= 1.00D+00 WtEn= 0.00D+00
 Coeff-Com: -0.104D-04-0.162D-04 0.120D-04 0.887D-04-0.846D-04-0.202D-03
 Coeff-Com: -0.192D-03 0.684D-03 0.168D-02-0.265D-03-0.394D-02-0.242D-02
 Coeff-Com:  0.439D-02 0.163D-01 0.124D-01-0.385D-01-0.141D+00-0.533D-01
 Coeff-Com:  0.458D+00 0.746D+00
 Coeff:     -0.104D-04-0.162D-04 0.120D-04 0.887D-04-0.846D-04-0.202D-03
 Coeff:     -0.192D-03 0.684D-03 0.168D-02-0.265D-03-0.394D-02-0.242D-02
 Coeff:      0.439D-02 0.163D-01 0.124D-01-0.385D-01-0.141D+00-0.533D-01
 Coeff:      0.458D+00 0.746D+00
 Gap=     0.099 Goal=   None    Shift=    0.000
 Gap=     0.128 Goal=   None    Shift=    0.000
 RMSDP=5.95D-09 MaxDP=9.07D-07 DE=-8.73D-11 OVMax= 7.31D-06

 Error on total polarization charges =  0.02458
 SCF Done:  E(UM062X) =  -2057.67597039     A.U. after   26 cycles
            NFock= 26  Conv=0.59D-08     -V/T= 2.0054
 <Sx>= 0.0000 <Sy>= 0.0000 <Sz>= 0.5000 <S**2>= 0.8235 S= 0.5361
 <L.S>= 0.000000000000E+00
 KE= 2.046720145803D+03 PE=-1.482057258999D+04 EE= 5.719774048783D+03
 Annihilation of the first spin contaminant:
 S**2 before annihilation     0.8235,   after     0.7529
 Leave Link  502 at Fri Oct 24 22:40:58 2025, MaxMem= 30870077440 cpu:          151047.5 elap:            2385.2
 (Enter /public/software/gauss/g16/l601.exe)
 Copying SCF densities to generalized density rwf, IOpCl= 1 IROHF=0.

 **********************************************************************

            Population analysis using the SCF density.

 **********************************************************************

 Orbital symmetries:
 Alpha Orbitals:
       Occupied  (A) (A) (A) (A) (A) (A) (A) (A) (A) (A) (A) (A)
                 (A) (A) (A) (A) (A) (A) (A) (A) (A) (A) (A) (A)
                 (A) (A) (A) (A) (A) (A) (A) (A) (A) (A) (A) (A)
                 (A) (A) (A) (A) (A) (A) (A) (A) (A) (A) (A) (A)
                 (A) (A) (A) (A) (A) (A) (A) (A) (A) (A) (A) (A)
                 (A) (A) (A) (A) (A) (A) (A) (A) (A) (A) (A) (A)
                 (A) (A) (A) (A) (A) (A) (A) (A) (A) (A) (A) (A)
                 (A) (A) (A) (A) (A) (A) (A) (A) (A) (A) (A) (A)
                 (A) (A) (A) (A) (A) (A) (A) (A) (A) (A) (A) (A)
                 (A) (A) (A) (A) (A) (A) (A) (A) (A) (A) (A) (A)
                 (A) (A) (A) (A) (A) (A) (A) (A) (A) (A) (A) (A)
                 (A) (A) (A) (A) (A) (A) (A) (A) (A) (A) (A) (A)
                 (A) (A) (A) (A) (A) (A) (A) (A) (A) (A) (A) (A)
                 (A) (A) (A)
       Virtual   (A) (A) (A) (A) (A) (A) (A) (A) (A) (A) (A) (A)
                 (A) (A) (A) (A) (A) (A) (A) (A) (A) (A) (A) (A)
                 (A) (A) (A) (A) (A) (A) (A) (A) (A) (A) (A) (A)
                 (A) (A) (A) (A) (A) (A) (A) (A) (A) (A) (A) (A)
                 (A) (A) (A) (A) (A) (A) (A) (A) (A) (A) (A) (A)
                 (A) (A) (A) (A) (A) (A) (A) (A) (A) (A) (A) (A)
                 (A) (A) (A) (A) (A) (A) (A) (A) (A) (A) (A) (A)
                 (A) (A) (A) (A) (A) (A) (A) (A) (A) (A) (A) (A)
                 (A) (A) (A) (A) (A) (A) (A) (A) (A) (A) (A) (A)
                 (A) (A) (A) (A) (A) (A) (A) (A) (A) (A) (A) (A)
                 (A) (A) (A) (A) (A) (A) (A) (A) (A) (A) (A) (A)
                 (A) (A) (A) (A) (A) (A) (A) (A) (A) (A) (A) (A)
                 (A) (A) (A) (A) (A) (A) (A) (A) (A) (A) (A) (A)
                 (A) (A) (A) (A) (A) (A) (A) (A) (A) (A) (A) (A)
                 (A) (A) (A) (A) (A) (A) (A) (A) (A) (A) (A) (A)
                 (A) (A) (A) (A) (A) (A) (A) (A) (A) (A) (A) (A)
                 (A) (A) (A) (A) (A) (A) (A) (A) (A) (A) (A) (A)
                 (A) (A) (A) (A) (A) (A) (A) (A) (A) (A) (A) (A)
                 (A) (A) (A) (A) (A) (A) (A) (A) (A) (A) (A) (A)
                 (A) (A) (A) (A) (A) (A) (A) (A) (A) (A) (A) (A)
                 (A) (A) (A) (A) (A) (A) (A) (A) (A) (A) (A) (A)
                 (A) (A) (A) (A) (A) (A) (A) (A) (A) (A) (A) (A)
                 (A) (A) (A) (A) (A) (A) (A) (A) (A) (A) (A) (A)
                 (A) (A) (A) (A) (A) (A) (A) (A) (A) (A) (A) (A)
                 (A) (A) (A) (A) (A) (A) (A) (A) (A) (A) (A) (A)
                 (A) (A) (A) (A) (A) (A) (A) (A) (A) (A) (A) (A)
                 (A) (A) (A) (A) (A) (A) (A) (A) (A) (A) (A) (A)
                 (A) (A) (A) (A) (A) (A) (A) (A) (A) (A) (A) (A)
                 (A) (A) (A) (A) (A) (A) (A) (A) (A) (A) (A) (A)
                 (A) (A) (A) (A) (A) (A) (A) (A) (A) (A) (A) (A)
                 (A) (A) (A) (A) (A) (A) (A) (A) (A) (A) (A) (A)
                 (A) (A) (A) (A) (A) (A) (A) (A) (A) (A) (A) (A)
                 (A) (A) (A) (A) (A) (A) (A) (A) (A) (A) (A) (A)
                 (A) (A) (A) (A) (A) (A) (A) (A) (A) (A) (A) (A)
                 (A) (A) (A) (A) (A) (A) (A) (A) (A) (A) (A) (A)
                 (A) (A) (A) (A) (A) (A) (A) (A) (A) (A) (A) (A)
                 (A) (A) (A) (A) (A) (A) (A) (A) (A) (A) (A) (A)
                 (A) (A) (A) (A) (A) (A) (A) (A) (A) (A) (A) (A)
                 (A) (A) (A) (A) (A) (A) (A) (A) (A) (A) (A) (A)
                 (A) (A) (A) (A) (A) (A) (A) (A) (A) (A) (A) (A)
                 (A) (A) (A) (A) (A) (A) (A) (A) (A) (A) (A) (A)
                 (A) (A) (A) (A) (A) (A) (A) (A) (A) (A) (A) (A)
                 (A) (A) (A) (A) (A) (A) (A) (A) (A) (A) (A) (A)
                 (A) (A) (A) (A) (A) (A) (A) (A) (A) (A) (A) (A)
                 (A) (A) (A) (A) (A) (A) (A) (A) (A) (A) (A) (A)
                 (A) (A) (A) (A) (A) (A) (A) (A) (A) (A) (A) (A)
                 (A) (A) (A) (A) (A) (A) (A) (A) (A) (A) (A) (A)
                 (A) (A) (A) (A) (A) (A) (A) (A) (A) (A) (A) (A)
                 (A) (A) (A) (A) (A) (A) (A) (A) (A) (A) (A) (A)
                 (A) (A) (A) (A) (A) (A) (A) (A) (A) (A) (A) (A)
                 (A) (A) (A) (A) (A) (A) (A) (A) (A) (A) (A) (A)
                 (A) (A) (A) (A) (A) (A) (A) (A) (A) (A) (A) (A)
                 (A) (A) (A) (A) (A) (A) (A) (A) (A) (A) (A) (A)
                 (A) (A) (A) (A) (A) (A) (A) (A) (A) (A) (A) (A)
                 (A) (A) (A) (A) (A) (A) (A) (A) (A) (A) (A) (A)
                 (A) (A) (A) (A) (A) (A) (A) (A) (A) (A) (A) (A)
                 (A) (A) (A) (A) (A) (A) (A) (A) (A) (A) (A) (A)
                 (A) (A) (A) (A) (A) (A) (A) (A) (A) (A) (A) (A)
                 (A) (A) (A) (A) (A) (A) (A) (A) (A) (A) (A) (A)
                 (A) (A) (A) (A) (A) (A) (A) (A) (A) (A) (A) (A)
                 (A) (A) (A) (A) (A) (A) (A) (A) (A) (A) (A) (A)
                 (A) (A) (A) (A) (A) (A) (A) (A) (A) (A) (A) (A)
                 (A) (A) (A) (A) (A) (A) (A) (A) (A) (A) (A) (A)
                 (A) (A) (A) (A) (A) (A) (A) (A) (A) (A) (A) (A)
                 (A) (A) (A) (A) (A) (A) (A) (A) (A) (A) (A) (A)
                 (A) (A) (A) (A) (A) (A) (A) (A) (A) (A) (A) (A)
                 (A) (A) (A) (A) (A) (A) (A) (A) (A) (A) (A) (A)
                 (A) (A) (A) (A) (A) (A) (A) (A) (A) (A) (A) (A)
                 (A) (A) (A) (A) (A) (A) (A) (A) (A) (A) (A) (A)
                 (A) (A) (A) (A) (A) (A) (A) (A) (A) (A) (A) (A)
                 (A) (A) (A) (A) (A) (A) (A) (A) (A) (A) (A) (A)
                 (A) (A) (A) (A) (A) (A) (A) (A) (A) (A) (A) (A)
                 (A) (A) (A) (A) (A) (A) (A) (A) (A) (A) (A) (A)
                 (A) (A) (A) (A) (A) (A) (A) (A) (A) (A) (A) (A)
                 (A) (A) (A) (A) (A) (A) (A) (A) (A) (A) (A) (A)
                 (A) (A) (A) (A) (A) (A) (A) (A) (A) (A) (A) (A)
                 (A) (A) (A) (A) (A) (A) (A) (A) (A) (A) (A) (A)
                 (A) (A) (A) (A) (A) (A) (A) (A) (A) (A) (A) (A)
                 (A) (A) (A) (A) (A) (A) (A) (A) (A) (A) (A) (A)
                 (A) (A) (A) (A) (A) (A) (A) (A) (A) (A) (A) (A)
                 (A) (A) (A) (A) (A) (A) (A) (A) (A) (A) (A) (A)
                 (A) (A) (A) (A) (A) (A) (A) (A) (A) (A) (A) (A)
                 (A) (A) (A) (A) (A) (A) (A) (A) (A) (A) (A) (A)
                 (A) (A) (A) (A) (A) (A) (A) (A) (A) (A) (A) (A)
                 (A) (A) (A) (A) (A) (A) (A) (A) (A) (A) (A) (A)
                 (A) (A) (A) (A) (A) (A) (A) (A) (A) (A) (A) (A)
                 (A) (A) (A) (A) (A) (A) (A) (A) (A) (A) (A) (A)
                 (A) (A) (A) (A) (A) (A) (A) (A) (A) (A) (A) (A)
                 (A) (A) (A) (A) (A) (A) (A) (A) (A) (A) (A) (A)
                 (A) (A) (A) (A) (A) (A) (A) (A) (A) (A) (A) (A)
                 (A) (A) (A) (A) (A) (A) (A) (A) (A) (A) (A) (A)
                 (A) (A) (A) (A) (A) (A) (A) (A) (A) (A) (A) (A)
                 (A) (A) (A) (A) (A) (A) (A) (A) (A) (A) (A) (A)
                 (A) (A) (A) (A) (A) (A) (A) (A) (A) (A) (A) (A)
                 (A) (A) (A) (A) (A) (A) (A) (A) (A) (A) (A) (A)
                 (A) (A) (A) (A) (A) (A) (A) (A) (A) (A) (A) (A)
                 (A) (A) (A) (A) (A) (A) (A) (A) (A) (A) (A) (A)
                 (A) (A) (A) (A) (A) (A) (A) (A) (A) (A) (A) (A)
                 (A) (A) (A) (A) (A) (A) (A) (A) (A) (A) (A) (A)
                 (A) (A) (A) (A) (A) (A) (A) (A) (A) (A) (A) (A)
                 (A) (A) (A) (A) (A) (A) (A) (A) (A) (A) (A) (A)
                 (A) (A) (A) (A) (A) (A) (A) (A) (A) (A) (A) (A)
                 (A) (A) (A) (A) (A) (A) (A) (A) (A) (A) (A) (A)
                 (A) (A) (A) (A) (A) (A) (A) (A) (A) (A) (A) (A)
                 (A) (A) (A) (A) (A) (A) (A) (A) (A) (A) (A) (A)
                 (A) (A) (A) (A) (A) (A) (A) (A) (A) (A) (A) (A)
                 (A) (A) (A) (A) (A) (A) (A) (A) (A) (A) (A) (A)
                 (A) (A) (A) (A) (A) (A) (A) (A) (A) (A) (A) (A)
                 (A) (A) (A) (A) (A) (A) (A) (A) (A) (A) (A) (A)
                 (A) (A) (A) (A) (A) (A) (A) (A) (A) (A) (A) (A)
                 (A) (A) (A) (A) (A) (A) (A) (A) (A) (A) (A) (A)
                 (A) (A) (A) (A) (A) (A) (A) (A) (A) (A) (A) (A)
                 (A) (A) (A) (A) (A) (A) (A) (A) (A) (A) (A) (A)
                 (A) (A) (A) (A) (A) (A) (A) (A) (A) (A) (A) (A)
                 (A) (A) (A) (A) (A) (A) (A) (A) (A) (A) (A) (A)
                 (A) (A) (A) (A) (A) (A) (A) (A) (A) (A) (A) (A)
                 (A) (A) (A) (A) (A) (A) (A) (A) (A) (A) (A) (A)
                 (A) (A) (A) (A) (A) (A) (A) (A) (A) (A) (A) (A)
                 (A) (A) (A) (A) (A) (A) (A) (A) (A) (A) (A) (A)
                 (A) (A) (A) (A) (A) (A) (A) (A) (A) (A) (A) (A)
                 (A) (A) (A) (A) (A) (A) (A) (A) (A) (A) (A) (A)
                 (A) (A) (A) (A) (A) (A) (A) (A) (A) (A) (A) (A)
                 (A) (A) (A) (A) (A) (A) (A) (A) (A) (A) (A) (A)
                 (A) (A) (A) (A) (A) (A) (A) (A) (A) (A) (A) (A)
                 (A) (A) (A) (A) (A) (A) (A) (A) (A) (A) (A) (A)
                 (A) (A) (A) (A) (A) (A) (A) (A) (A) (A) (A) (A)
                 (A) (A) (A) (A) (A) (A) (A) (A) (A) (A) (A) (A)
                 (A) (A) (A) (A) (A) (A) (A) (A) (A) (A) (A) (A)
                 (A) (A) (A) (A) (A) (A) (A) (A) (A) (A) (A) (A)
                 (A) (A) (A) (A) (A) (A) (A) (A) (A) (A) (A) (A)
                 (A) (A) (A) (A) (A) (A) (A) (A) (A) (A) (A) (A)
                 (A) (A) (A) (A) (A) (A) (A) (A) (A) (A) (A) (A)
                 (A) (A) (A) (A) (A) (A) (A) (A) (A) (A) (A) (A)
                 (A) (A) (A) (A) (A) (A) (A) (A) (A) (A) (A) (A)
                 (A) (A) (A) (A) (A) (A) (A) (A) (A) (A) (A) (A)
                 (A) (A) (A) (A) (A) (A) (A) (A) (A) (A) (A) (A)
                 (A) (A) (A) (A) (A) (A) (A) (A) (A) (A)
 Beta  Orbitals:
       Occupied  (A) (A) (A) (A) (A) (A) (A) (A) (A) (A) (A) (A)
                 (A) (A) (A) (A) (A) (A) (A) (A) (A) (A) (A) (A)
                 (A) (A) (A) (A) (A) (A) (A) (A) (A) (A) (A) (A)
                 (A) (A) (A) (A) (A) (A) (A) (A) (A) (A) (A) (A)
                 (A) (A) (A) (A) (A) (A) (A) (A) (A) (A) (A) (A)
                 (A) (A) (A) (A) (A) (A) (A) (A) (A) (A) (A) (A)
                 (A) (A) (A) (A) (A) (A) (A) (A) (A) (A) (A) (A)
                 (A) (A) (A) (A) (A) (A) (A) (A) (A) (A) (A) (A)
                 (A) (A) (A) (A) (A) (A) (A) (A) (A) (A) (A) (A)
                 (A) (A) (A) (A) (A) (A) (A) (A) (A) (A) (A) (A)
                 (A) (A) (A) (A) (A) (A) (A) (A) (A) (A) (A) (A)
                 (A) (A) (A) (A) (A) (A) (A) (A) (A) (A) (A) (A)
                 (A) (A) (A) (A) (A) (A) (A) (A) (A) (A) (A) (A)
                 (A) (A)
       Virtual   (A) (A) (A) (A) (A) (A) (A) (A) (A) (A) (A) (A)
                 (A) (A) (A) (A) (A) (A) (A) (A) (A) (A) (A) (A)
                 (A) (A) (A) (A) (A) (A) (A) (A) (A) (A) (A) (A)
                 (A) (A) (A) (A) (A) (A) (A) (A) (A) (A) (A) (A)
                 (A) (A) (A) (A) (A) (A) (A) (A) (A) (A) (A) (A)
                 (A) (A) (A) (A) (A) (A) (A) (A) (A) (A) (A) (A)
                 (A) (A) (A) (A) (A) (A) (A) (A) (A) (A) (A) (A)
                 (A) (A) (A) (A) (A) (A) (A) (A) (A) (A) (A) (A)
                 (A) (A) (A) (A) (A) (A) (A) (A) (A) (A) (A) (A)
                 (A) (A) (A) (A) (A) (A) (A) (A) (A) (A) (A) (A)
                 (A) (A) (A) (A) (A) (A) (A) (A) (A) (A) (A) (A)
                 (A) (A) (A) (A) (A) (A) (A) (A) (A) (A) (A) (A)
                 (A) (A) (A) (A) (A) (A) (A) (A) (A) (A) (A) (A)
                 (A) (A) (A) (A) (A) (A) (A) (A) (A) (A) (A) (A)
                 (A) (A) (A) (A) (A) (A) (A) (A) (A) (A) (A) (A)
                 (A) (A) (A) (A) (A) (A) (A) (A) (A) (A) (A) (A)
                 (A) (A) (A) (A) (A) (A) (A) (A) (A) (A) (A) (A)
                 (A) (A) (A) (A) (A) (A) (A) (A) (A) (A) (A) (A)
                 (A) (A) (A) (A) (A) (A) (A) (A) (A) (A) (A) (A)
                 (A) (A) (A) (A) (A) (A) (A) (A) (A) (A) (A) (A)
                 (A) (A) (A) (A) (A) (A) (A) (A) (A) (A) (A) (A)
                 (A) (A) (A) (A) (A) (A) (A) (A) (A) (A) (A) (A)
                 (A) (A) (A) (A) (A) (A) (A) (A) (A) (A) (A) (A)
                 (A) (A) (A) (A) (A) (A) (A) (A) (A) (A) (A) (A)
                 (A) (A) (A) (A) (A) (A) (A) (A) (A) (A) (A) (A)
                 (A) (A) (A) (A) (A) (A) (A) (A) (A) (A) (A) (A)
                 (A) (A) (A) (A) (A) (A) (A) (A) (A) (A) (A) (A)
                 (A) (A) (A) (A) (A) (A) (A) (A) (A) (A) (A) (A)
                 (A) (A) (A) (A) (A) (A) (A) (A) (A) (A) (A) (A)
                 (A) (A) (A) (A) (A) (A) (A) (A) (A) (A) (A) (A)
                 (A) (A) (A) (A) (A) (A) (A) (A) (A) (A) (A) (A)
                 (A) (A) (A) (A) (A) (A) (A) (A) (A) (A) (A) (A)
                 (A) (A) (A) (A) (A) (A) (A) (A) (A) (A) (A) (A)
                 (A) (A) (A) (A) (A) (A) (A) (A) (A) (A) (A) (A)
                 (A) (A) (A) (A) (A) (A) (A) (A) (A) (A) (A) (A)
                 (A) (A) (A) (A) (A) (A) (A) (A) (A) (A) (A) (A)
                 (A) (A) (A) (A) (A) (A) (A) (A) (A) (A) (A) (A)
                 (A) (A) (A) (A) (A) (A) (A) (A) (A) (A) (A) (A)
                 (A) (A) (A) (A) (A) (A) (A) (A) (A) (A) (A) (A)
                 (A) (A) (A) (A) (A) (A) (A) (A) (A) (A) (A) (A)
                 (A) (A) (A) (A) (A) (A) (A) (A) (A) (A) (A) (A)
                 (A) (A) (A) (A) (A) (A) (A) (A) (A) (A) (A) (A)
                 (A) (A) (A) (A) (A) (A) (A) (A) (A) (A) (A) (A)
                 (A) (A) (A) (A) (A) (A) (A) (A) (A) (A) (A) (A)
                 (A) (A) (A) (A) (A) (A) (A) (A) (A) (A) (A) (A)
                 (A) (A) (A) (A) (A) (A) (A) (A) (A) (A) (A) (A)
                 (A) (A) (A) (A) (A) (A) (A) (A) (A) (A) (A) (A)
                 (A) (A) (A) (A) (A) (A) (A) (A) (A) (A) (A) (A)
                 (A) (A) (A) (A) (A) (A) (A) (A) (A) (A) (A) (A)
                 (A) (A) (A) (A) (A) (A) (A) (A) (A) (A) (A) (A)
                 (A) (A) (A) (A) (A) (A) (A) (A) (A) (A) (A) (A)
                 (A) (A) (A) (A) (A) (A) (A) (A) (A) (A) (A) (A)
                 (A) (A) (A) (A) (A) (A) (A) (A) (A) (A) (A) (A)
                 (A) (A) (A) (A) (A) (A) (A) (A) (A) (A) (A) (A)
                 (A) (A) (A) (A) (A) (A) (A) (A) (A) (A) (A) (A)
                 (A) (A) (A) (A) (A) (A) (A) (A) (A) (A) (A) (A)
                 (A) (A) (A) (A) (A) (A) (A) (A) (A) (A) (A) (A)
                 (A) (A) (A) (A) (A) (A) (A) (A) (A) (A) (A) (A)
                 (A) (A) (A) (A) (A) (A) (A) (A) (A) (A) (A) (A)
                 (A) (A) (A) (A) (A) (A) (A) (A) (A) (A) (A) (A)
                 (A) (A) (A) (A) (A) (A) (A) (A) (A) (A) (A) (A)
                 (A) (A) (A) (A) (A) (A) (A) (A) (A) (A) (A) (A)
                 (A) (A) (A) (A) (A) (A) (A) (A) (A) (A) (A) (A)
                 (A) (A) (A) (A) (A) (A) (A) (A) (A) (A) (A) (A)
                 (A) (A) (A) (A) (A) (A) (A) (A) (A) (A) (A) (A)
                 (A) (A) (A) (A) (A) (A) (A) (A) (A) (A) (A) (A)
                 (A) (A) (A) (A) (A) (A) (A) (A) (A) (A) (A) (A)
                 (A) (A) (A) (A) (A) (A) (A) (A) (A) (A) (A) (A)
                 (A) (A) (A) (A) (A) (A) (A) (A) (A) (A) (A) (A)
                 (A) (A) (A) (A) (A) (A) (A) (A) (A) (A) (A) (A)
                 (A) (A) (A) (A) (A) (A) (A) (A) (A) (A) (A) (A)
                 (A) (A) (A) (A) (A) (A) (A) (A) (A) (A) (A) (A)
                 (A) (A) (A) (A) (A) (A) (A) (A) (A) (A) (A) (A)
                 (A) (A) (A) (A) (A) (A) (A) (A) (A) (A) (A) (A)
                 (A) (A) (A) (A) (A) (A) (A) (A) (A) (A) (A) (A)
                 (A) (A) (A) (A) (A) (A) (A) (A) (A) (A) (A) (A)
                 (A) (A) (A) (A) (A) (A) (A) (A) (A) (A) (A) (A)
                 (A) (A) (A) (A) (A) (A) (A) (A) (A) (A) (A) (A)
                 (A) (A) (A) (A) (A) (A) (A) (A) (A) (A) (A) (A)
                 (A) (A) (A) (A) (A) (A) (A) (A) (A) (A) (A) (A)
                 (A) (A) (A) (A) (A) (A) (A) (A) (A) (A) (A) (A)
                 (A) (A) (A) (A) (A) (A) (A) (A) (A) (A) (A) (A)
                 (A) (A) (A) (A) (A) (A) (A) (A) (A) (A) (A) (A)
                 (A) (A) (A) (A) (A) (A) (A) (A) (A) (A) (A) (A)
                 (A) (A) (A) (A) (A) (A) (A) (A) (A) (A) (A) (A)
                 (A) (A) (A) (A) (A) (A) (A) (A) (A) (A) (A) (A)
                 (A) (A) (A) (A) (A) (A) (A) (A) (A) (A) (A) (A)
                 (A) (A) (A) (A) (A) (A) (A) (A) (A) (A) (A) (A)
                 (A) (A) (A) (A) (A) (A) (A) (A) (A) (A) (A) (A)
                 (A) (A) (A) (A) (A) (A) (A) (A) (A) (A) (A) (A)
                 (A) (A) (A) (A) (A) (A) (A) (A) (A) (A) (A) (A)
                 (A) (A) (A) (A) (A) (A) (A) (A) (A) (A) (A) (A)
                 (A) (A) (A) (A) (A) (A) (A) (A) (A) (A) (A) (A)
                 (A) (A) (A) (A) (A) (A) (A) (A) (A) (A) (A) (A)
                 (A) (A) (A) (A) (A) (A) (A) (A) (A) (A) (A) (A)
                 (A) (A) (A) (A) (A) (A) (A) (A) (A) (A) (A) (A)
                 (A) (A) (A) (A) (A) (A) (A) (A) (A) (A) (A) (A)
                 (A) (A) (A) (A) (A) (A) (A) (A) (A) (A) (A) (A)
                 (A) (A) (A) (A) (A) (A) (A) (A) (A) (A) (A) (A)
                 (A) (A) (A) (A) (A) (A) (A) (A) (A) (A) (A) (A)
                 (A) (A) (A) (A) (A) (A) (A) (A) (A) (A) (A) (A)
                 (A) (A) (A) (A) (A) (A) (A) (A) (A) (A) (A) (A)
                 (A) (A) (A) (A) (A) (A) (A) (A) (A) (A) (A) (A)
                 (A) (A) (A) (A) (A) (A) (A) (A) (A) (A) (A) (A)
                 (A) (A) (A) (A) (A) (A) (A) (A) (A) (A) (A) (A)
                 (A) (A) (A) (A) (A) (A) (A) (A) (A) (A) (A) (A)
                 (A) (A) (A) (A) (A) (A) (A) (A) (A) (A) (A) (A)
                 (A) (A) (A) (A) (A) (A) (A) (A) (A) (A) (A) (A)
                 (A) (A) (A) (A) (A) (A) (A) (A) (A) (A) (A) (A)
                 (A) (A) (A) (A) (A) (A) (A) (A) (A) (A) (A) (A)
                 (A) (A) (A) (A) (A) (A) (A) (A) (A) (A) (A) (A)
                 (A) (A) (A) (A) (A) (A) (A) (A) (A) (A) (A) (A)
                 (A) (A) (A) (A) (A) (A) (A) (A) (A) (A) (A) (A)
                 (A) (A) (A) (A) (A) (A) (A) (A) (A) (A) (A) (A)
                 (A) (A) (A) (A) (A) (A) (A) (A) (A) (A) (A) (A)
                 (A) (A) (A) (A) (A) (A) (A) (A) (A) (A) (A) (A)
                 (A) (A) (A) (A) (A) (A) (A) (A) (A) (A) (A) (A)
                 (A) (A) (A) (A) (A) (A) (A) (A) (A) (A) (A) (A)
                 (A) (A) (A) (A) (A) (A) (A) (A) (A) (A) (A) (A)
                 (A) (A) (A) (A) (A) (A) (A) (A) (A) (A) (A) (A)
                 (A) (A) (A) (A) (A) (A) (A) (A) (A) (A) (A) (A)
                 (A) (A) (A) (A) (A) (A) (A) (A) (A) (A) (A) (A)
                 (A) (A) (A) (A) (A) (A) (A) (A) (A) (A) (A) (A)
                 (A) (A) (A) (A) (A) (A) (A) (A) (A) (A) (A) (A)
                 (A) (A) (A) (A) (A) (A) (A) (A) (A) (A) (A) (A)
                 (A) (A) (A) (A) (A) (A) (A) (A) (A) (A) (A) (A)
                 (A) (A) (A) (A) (A) (A) (A) (A) (A) (A) (A) (A)
                 (A) (A) (A) (A) (A) (A) (A) (A) (A) (A) (A) (A)
                 (A) (A) (A) (A) (A) (A) (A) (A) (A) (A) (A) (A)
                 (A) (A) (A) (A) (A) (A) (A) (A) (A) (A) (A) (A)
                 (A) (A) (A) (A) (A) (A) (A) (A) (A) (A) (A) (A)
                 (A) (A) (A) (A) (A) (A) (A) (A) (A) (A) (A) (A)
                 (A) (A) (A) (A) (A) (A) (A) (A) (A) (A) (A) (A)
                 (A) (A) (A) (A) (A) (A) (A) (A) (A) (A) (A) (A)
                 (A) (A) (A) (A) (A) (A) (A) (A) (A) (A) (A) (A)
                 (A) (A) (A) (A) (A) (A) (A) (A) (A) (A) (A) (A)
                 (A) (A) (A) (A) (A) (A) (A) (A) (A) (A) (A)
 The electronic state is 2-A.
 Alpha  occ. eigenvalues --  -25.19794 -25.19693 -19.69206 -19.60731 -19.59642
 Alpha  occ. eigenvalues --  -19.59633 -14.90991 -14.90952 -14.77524 -14.77059
 Alpha  occ. eigenvalues --  -10.62672 -10.62082 -10.60804 -10.60144 -10.59558
 Alpha  occ. eigenvalues --  -10.59152 -10.58684 -10.58643 -10.58609 -10.57826
 Alpha  occ. eigenvalues --  -10.57707 -10.57082 -10.56934 -10.56654 -10.56579
 Alpha  occ. eigenvalues --  -10.56483 -10.56295 -10.56188 -10.56004 -10.55882
 Alpha  occ. eigenvalues --  -10.55682 -10.55411 -10.54888 -10.54720 -10.54561
 Alpha  occ. eigenvalues --  -10.54443 -10.54375 -10.54165 -10.54086 -10.53932
 Alpha  occ. eigenvalues --  -10.53748 -10.53685 -10.53512 -10.52830  -7.12263
 Alpha  occ. eigenvalues --   -1.31569  -1.28311  -1.26249  -1.22839  -1.22440
 Alpha  occ. eigenvalues --   -1.09685  -1.08545  -1.07672  -1.00318  -0.98083
 Alpha  occ. eigenvalues --   -0.97135  -0.96501  -0.93250  -0.92437  -0.90797
 Alpha  occ. eigenvalues --   -0.90147  -0.89254  -0.87795  -0.87203  -0.86619
 Alpha  occ. eigenvalues --   -0.86372  -0.84624  -0.82989  -0.80813  -0.80483
 Alpha  occ. eigenvalues --   -0.79635  -0.78035  -0.76164  -0.74931  -0.73741
 Alpha  occ. eigenvalues --   -0.72040  -0.71638  -0.70194  -0.69492  -0.68756
 Alpha  occ. eigenvalues --   -0.67064  -0.66539  -0.65275  -0.64477  -0.63655
 Alpha  occ. eigenvalues --   -0.63017  -0.62179  -0.61689  -0.59985  -0.59484
 Alpha  occ. eigenvalues --   -0.58898  -0.58151  -0.58105  -0.57548  -0.56983
 Alpha  occ. eigenvalues --   -0.56910  -0.56528  -0.56347  -0.55433  -0.54924
 Alpha  occ. eigenvalues --   -0.54413  -0.53402  -0.53013  -0.52616  -0.52468
 Alpha  occ. eigenvalues --   -0.52300  -0.51952  -0.51705  -0.51338  -0.50990
 Alpha  occ. eigenvalues --   -0.50727  -0.50184  -0.49952  -0.49359  -0.49224
 Alpha  occ. eigenvalues --   -0.48840  -0.48623  -0.48374  -0.48238  -0.47810
 Alpha  occ. eigenvalues --   -0.47693  -0.46955  -0.46843  -0.46528  -0.46445
 Alpha  occ. eigenvalues --   -0.46021  -0.45815  -0.45309  -0.44922  -0.44623
 Alpha  occ. eigenvalues --   -0.44063  -0.43984  -0.43255  -0.42927  -0.42725
 Alpha  occ. eigenvalues --   -0.42475  -0.42120  -0.41550  -0.40957  -0.39662
 Alpha  occ. eigenvalues --   -0.38784  -0.38374  -0.38140  -0.37545  -0.36304
 Alpha  occ. eigenvalues --   -0.35519  -0.35096  -0.34950  -0.33208  -0.32609
 Alpha  occ. eigenvalues --   -0.32538  -0.32190  -0.31834  -0.30994  -0.30275
 Alpha  occ. eigenvalues --   -0.29956  -0.26637  -0.22233  -0.18404
 Alpha virt. eigenvalues --   -0.08522  -0.03600  -0.03386  -0.00390   0.01531
 Alpha virt. eigenvalues --    0.02388   0.02539   0.05759   0.06151   0.06420
 Alpha virt. eigenvalues --    0.07052   0.07494   0.07909   0.08738   0.08841
 Alpha virt. eigenvalues --    0.09130   0.09537   0.09734   0.09992   0.10296
 Alpha virt. eigenvalues --    0.10506   0.10967   0.11160   0.11446   0.11756
 Alpha virt. eigenvalues --    0.12156   0.12535   0.12830   0.13206   0.13428
 Alpha virt. eigenvalues --    0.13720   0.13910   0.14142   0.14344   0.14408
 Alpha virt. eigenvalues --    0.15006   0.15279   0.15493   0.15682   0.16101
 Alpha virt. eigenvalues --    0.16314   0.16464   0.16691   0.16878   0.17097
 Alpha virt. eigenvalues --    0.17543   0.17772   0.18102   0.18181   0.18473
 Alpha virt. eigenvalues --    0.18710   0.18827   0.19180   0.19447   0.19995
 Alpha virt. eigenvalues --    0.20200   0.20281   0.20469   0.20674   0.21485
 Alpha virt. eigenvalues --    0.21735   0.21867   0.22361   0.22493   0.22766
 Alpha virt. eigenvalues --    0.22933   0.23080   0.23163   0.23440   0.23810
 Alpha virt. eigenvalues --    0.23994   0.24494   0.24711   0.24849   0.25029
 Alpha virt. eigenvalues --    0.25264   0.25590   0.25848   0.25944   0.26062
 Alpha virt. eigenvalues --    0.26201   0.26647   0.26982   0.27158   0.27548
 Alpha virt. eigenvalues --    0.27652   0.28037   0.28225   0.28655   0.28757
 Alpha virt. eigenvalues --    0.28931   0.29002   0.29362   0.29760   0.29951
[...]
              Bcc     0.0151     2.022     0.722     0.675  0.9804 -0.1971  0.0014
 
              Baa    -0.0111    -1.489    -0.531    -0.497 -0.0091  0.0167  0.9998
    10 C(13)  Bbb     0.0046     0.622     0.222     0.207 -0.0481  0.9987 -0.0171
              Bcc     0.0065     0.867     0.309     0.289  0.9988  0.0483  0.0083
 
              Baa    -0.0009    -0.127    -0.045    -0.042 -0.0311  0.0266  0.9992
    11 C(13)  Bbb     0.0001     0.018     0.006     0.006 -0.3964  0.9173 -0.0367
              Bcc     0.0008     0.109     0.039     0.036  0.9175  0.3973  0.0180
 
              Baa    -0.0072    -0.960    -0.343    -0.320  0.0070 -0.0092  0.9999
    12 C(13)  Bbb     0.0029     0.389     0.139     0.130  0.1964  0.9805  0.0077
              Bcc     0.0043     0.571     0.204     0.191  0.9805 -0.1964 -0.0087
 
              Baa    -0.0273    -3.665    -1.308    -1.222  0.0292 -0.0071  0.9995
    13 C(13)  Bbb     0.0117     1.569     0.560     0.523  0.3194  0.9476 -0.0026
              Bcc     0.0156     2.096     0.748     0.699  0.9472 -0.3193 -0.0299
 
              Baa    -0.0334    -4.482    -1.599    -1.495  0.8426  0.5378  0.0304
    14 C(13)  Bbb    -0.0302    -4.055    -1.447    -1.353 -0.5386  0.8415  0.0429
              Bcc     0.0636     8.537     3.046     2.848 -0.0025 -0.0525  0.9986
 
              Baa    -0.0296    -3.968    -1.416    -1.324  0.0054 -0.0440  0.9990
    15 C(13)  Bbb     0.0128     1.711     0.611     0.571  0.4477  0.8934  0.0369
              Bcc     0.0168     2.257     0.805     0.753  0.8942 -0.4471 -0.0245
 
              Baa    -0.0302    -4.058    -1.448    -1.353  0.7825  0.6225 -0.0132
    16 C(13)  Bbb    -0.0263    -3.527    -1.259    -1.176 -0.6214  0.7821  0.0469
              Bcc     0.0565     7.585     2.706     2.530  0.0396 -0.0285  0.9988
 
              Baa    -0.0472    -6.336    -2.261    -2.113  0.0729 -0.1008  0.9922
    17 C(13)  Bbb     0.0209     2.802     1.000     0.935  0.6100  0.7916  0.0356
              Bcc     0.0263     3.534     1.261     1.179  0.7891 -0.6026 -0.1192
 
              Baa    -0.0656     4.747     1.694     1.583  0.0739 -0.1520  0.9856
    18 O(17)  Bbb     0.0302    -2.189    -0.781    -0.730  0.8571 -0.4955 -0.1407
              Bcc     0.0353    -2.558    -0.913    -0.853  0.5098  0.8552  0.0936
 
              Baa    -0.0527    -7.078    -2.526    -2.361  0.0513 -0.0982  0.9938
    19 C(13)  Bbb     0.0206     2.762     0.986     0.921  0.9986 -0.0032 -0.0519
              Bcc     0.0322     4.316     1.540     1.440  0.0083  0.9952  0.0979
 
              Baa    -0.0646    -8.673    -3.095    -2.893  0.9976  0.0465 -0.0517
    20 C(13)  Bbb    -0.0565    -7.585    -2.706    -2.530 -0.0412  0.9943  0.0983
              Bcc     0.1212    16.258     5.801     5.423  0.0560 -0.0960  0.9938
 
              Baa    -0.0406    -5.443    -1.942    -1.815  0.0541 -0.0985  0.9937
    21 C(13)  Bbb     0.0162     2.168     0.774     0.723  0.9985  0.0086 -0.0535
              Bcc     0.0244     3.275     1.169     1.092 -0.0033  0.9951  0.0989
 
              Baa    -0.0413    -5.539    -1.976    -1.848  0.9759  0.2157 -0.0346
    22 C(13)  Bbb    -0.0311    -4.176    -1.490    -1.393 -0.2108  0.9713  0.1102
              Bcc     0.0724     9.715     3.466     3.240  0.0574 -0.1003  0.9933
 
              Baa    -0.0140    -1.882    -0.672    -0.628  0.0133 -0.0977  0.9951
    23 C(13)  Bbb    -0.0082    -1.096    -0.391    -0.366  0.9999 -0.0085 -0.0142
              Bcc     0.0222     2.978     1.063     0.993  0.0099  0.9952  0.0976
 
              Baa    -0.3777   -14.566    -5.198    -4.859  0.9990 -0.0048 -0.0437
    24 N(14)  Bbb    -0.3639   -14.035    -5.008    -4.682  0.0091  0.9951  0.0989
              Bcc     0.7416    28.601    10.206     9.540  0.0430 -0.0992  0.9941
 
              Baa    -0.4585    33.174    11.837    11.066  0.8774 -0.4724 -0.0841
    25 O(17)  Bbb    -0.4164    30.128    10.750    10.049  0.4779  0.8759  0.0658
              Bcc     0.8748   -63.301   -22.587   -21.115  0.0426 -0.0979  0.9943
 
              Baa    -0.4808    34.792    12.415    11.605  0.8313  0.5554  0.0204
    26 O(17)  Bbb    -0.4378    31.678    11.304    10.567 -0.5541  0.8255  0.1073
              Bcc     0.9186   -66.470   -23.718   -22.172  0.0428 -0.1005  0.9940
 
              Baa    -0.0769   -10.319    -3.682    -3.442  0.9923 -0.1044 -0.0665
    27 C(13)  Bbb    -0.0672    -9.013    -3.216    -3.006  0.1102  0.9898  0.0904
              Bcc     0.1441    19.332     6.898     6.448  0.0563 -0.0970  0.9937
 
              Baa    -0.0741    -9.938    -3.546    -3.315  0.0458 -0.1089  0.9930
    28 C(13)  Bbb     0.0332     4.453     1.589     1.485  0.9784 -0.1959 -0.0667
              Bcc     0.0409     5.485     1.957     1.830  0.2018  0.9746  0.0976
 
              Baa    -0.0712    -9.551    -3.408    -3.186  0.9597  0.2801 -0.0240
    29 C(13)  Bbb    -0.0646    -8.665    -3.092    -2.890 -0.2743  0.9516  0.1388
              Bcc     0.1357    18.216     6.500     6.076  0.0617 -0.1266  0.9900
 
              Baa    -0.0017    -0.235    -0.084    -0.078  0.9207  0.3879  0.0428
    30 C(13)  Bbb    -0.0001    -0.007    -0.003    -0.002 -0.3842  0.9202 -0.0749
              Bcc     0.0018     0.242     0.086     0.081 -0.0685  0.0525  0.9963
 
              Baa    -0.0027    -0.360    -0.129    -0.120 -0.0377  0.1711  0.9845
    31 C(13)  Bbb    -0.0011    -0.143    -0.051    -0.048 -0.4189  0.8918 -0.1710
              Bcc     0.0038     0.503     0.180     0.168  0.9073  0.4189 -0.0381
 
              Baa    -0.0003    -0.036    -0.013    -0.012  0.3825  0.8675  0.3179
    32 C(13)  Bbb    -0.0002    -0.026    -0.009    -0.009  0.4395 -0.4735  0.7633
              Bcc     0.0005     0.062     0.022     0.021  0.8127 -0.1522 -0.5624
 
              Baa    -0.0456    -1.760    -0.628    -0.587  0.2822  0.9567 -0.0714
    33 N(14)  Bbb    -0.0424    -1.637    -0.584    -0.546  0.9578 -0.2853 -0.0362
              Bcc     0.0881     3.397     1.212     1.133  0.0550  0.0582  0.9968
 
              Baa    -0.0008    -0.141    -0.050    -0.047  0.0037  0.0200  0.9998
    34 B(11)  Bbb    -0.0004    -0.066    -0.024    -0.022  0.8914 -0.4532  0.0058
              Bcc     0.0012     0.207     0.074     0.069  0.4532  0.8912 -0.0195
 
              Baa    -0.0024    -1.188    -0.424    -0.396  0.4761  0.0645  0.8770
    35 F(19)  Bbb    -0.0015    -0.749    -0.267    -0.250  0.7032  0.5709 -0.4237
              Bcc     0.0039     1.937     0.691     0.646 -0.5280  0.8185  0.2265
 
              Baa    -0.0041    -2.043    -0.729    -0.682  0.0283  0.5263  0.8498
    36 F(19)  Bbb    -0.0028    -1.401    -0.500    -0.467  0.8505  0.4340 -0.2971
              Bcc     0.0069     3.444     1.229     1.149 -0.5252  0.7312 -0.4353
 
              Baa    -0.0062    -0.237    -0.085    -0.079 -0.0783  0.0059  0.9969
    37 N(14)  Bbb     0.0023     0.087     0.031     0.029  0.3319  0.9431  0.0205
              Bcc     0.0039     0.150     0.054     0.050  0.9401 -0.3324  0.0758
 
              Baa    -0.0237    -3.180    -1.135    -1.061  0.5119  0.8588 -0.0215
    38 C(13)  Bbb    -0.0225    -3.014    -1.075    -1.005  0.8587 -0.5108  0.0421
              Bcc     0.0462     6.194     2.210     2.066 -0.0252  0.0400  0.9989
 
              Baa    -0.0006    -0.079    -0.028    -0.027  0.8736  0.4854  0.0357
    39 C(13)  Bbb     0.0001     0.019     0.007     0.007 -0.4796  0.8710 -0.1067
              Bcc     0.0004     0.060     0.021     0.020 -0.0829  0.0761  0.9937
 
              Baa    -0.0011    -0.154    -0.055    -0.051 -0.0184  0.1509  0.9884
    40 C(13)  Bbb     0.0001     0.011     0.004     0.004 -0.0456  0.9874 -0.1516
              Bcc     0.0011     0.143     0.051     0.048  0.9988  0.0479  0.0113
 
              Baa    -0.0208    -2.795    -0.997    -0.932 -0.0149  0.9995 -0.0270
    41 C(13)  Bbb    -0.0193    -2.588    -0.923    -0.863  0.9991  0.0159  0.0381
              Bcc     0.0401     5.383     1.921     1.796 -0.0385  0.0264  0.9989
 
              Baa    -0.0008    -0.104    -0.037    -0.035  0.1659  0.9861 -0.0007
    42 C(13)  Bbb     0.0001     0.020     0.007     0.007  0.9853 -0.1657  0.0417
              Bcc     0.0006     0.084     0.030     0.028 -0.0410  0.0076  0.9991
 
              Baa    -0.0016    -0.209    -0.075    -0.070 -0.4771  0.8788 -0.0027
    43 C(13)  Bbb     0.0003     0.043     0.015     0.014  0.8622  0.4675 -0.1953
              Bcc     0.0012     0.166     0.059     0.055  0.1703  0.0955  0.9807
 
              Baa    -0.0013    -0.174    -0.062    -0.058 -0.3256  0.4844  0.8120
    44 C(13)  Bbb    -0.0011    -0.143    -0.051    -0.048  0.8883  0.4510  0.0871
              Bcc     0.0024     0.317     0.113     0.106 -0.3240  0.7496 -0.5771
 
              Baa    -0.0005    -0.065    -0.023    -0.022  0.9270  0.3553  0.1199
    45 C(13)  Bbb    -0.0003    -0.044    -0.016    -0.015 -0.1859  0.1577  0.9698
              Bcc     0.0008     0.109     0.039     0.036 -0.3257  0.9214 -0.2122
 
              Baa    -0.0001    -0.051    -0.018    -0.017 -0.1072  0.1981  0.9743
    46 H(1)   Bbb    -0.0000    -0.007    -0.002    -0.002  0.6383  0.7651 -0.0853
              Bcc     0.0001     0.057     0.020     0.019  0.7623 -0.6127  0.2084
 
              Baa    -0.0001    -0.036    -0.013    -0.012 -0.0730  0.0775  0.9943
    47 H(1)   Bbb    -0.0000    -0.013    -0.004    -0.004  0.5479  0.8362 -0.0249
              Bcc     0.0001     0.049     0.017     0.016  0.8334 -0.5429  0.1035
 
              Baa    -0.0002    -0.083    -0.030    -0.028  0.2665 -0.2915  0.9187
    48 H(1)   Bbb    -0.0001    -0.035    -0.013    -0.012  0.7433  0.6689 -0.0033
              Bcc     0.0002     0.118     0.042     0.039 -0.6136  0.6838  0.3949
 
              Baa    -0.0004    -0.227    -0.081    -0.076  0.3628  0.8420 -0.3993
    49 H(1)   Bbb    -0.0003    -0.170    -0.061    -0.057  0.8449 -0.1165  0.5221
              Bcc     0.0007     0.396     0.141     0.132 -0.3931  0.5268  0.7536
 
              Baa    -0.0004    -0.194    -0.069    -0.065 -0.4696  0.4112  0.7813
    50 H(1)   Bbb    -0.0002    -0.087    -0.031    -0.029 -0.4566  0.6443 -0.6135
              Bcc     0.0005     0.282     0.100     0.094  0.7557  0.6448  0.1149
 
              Baa    -0.0003    -0.153    -0.055    -0.051 -0.0380 -0.0212  0.9991
    51 H(1)   Bbb    -0.0002    -0.103    -0.037    -0.034 -0.1010  0.9947  0.0173
              Bcc     0.0005     0.256     0.091     0.085  0.9942  0.1002  0.0399
 
              Baa    -0.0003    -0.181    -0.064    -0.060  0.4413 -0.3937  0.8064
    52 H(1)   Bbb    -0.0002    -0.086    -0.031    -0.029 -0.4591  0.6731  0.5798
              Bcc     0.0005     0.267     0.095     0.089  0.7710  0.6261 -0.1164
 
              Baa    -0.0005    -0.257    -0.092    -0.086 -0.0962 -0.3066  0.9470
    53 H(1)   Bbb    -0.0003    -0.152    -0.054    -0.051  0.2674  0.9085  0.3213
              Bcc     0.0008     0.409     0.146     0.137  0.9588 -0.2841  0.0054
 
              Baa    -0.0034    -1.818    -0.649    -0.606  0.9987 -0.0508 -0.0050
    54 H(1)   Bbb    -0.0007    -0.370    -0.132    -0.123  0.0033 -0.0338  0.9994
              Bcc     0.0041     2.188     0.781     0.730  0.0510  0.9981  0.0336
 
              Baa    -0.0010    -0.542    -0.193    -0.181 -0.1233 -0.4811  0.8679
    55 H(1)   Bbb    -0.0007    -0.383    -0.137    -0.128  0.2642  0.8271  0.4960
              Bcc     0.0017     0.926     0.330     0.309  0.9565 -0.2905 -0.0252
 
              Baa    -0.0019    -1.033    -0.369    -0.345  0.0382 -0.0989  0.9944
    56 H(1)   Bbb    -0.0016    -0.846    -0.302    -0.282  0.9968 -0.0662 -0.0449
              Bcc     0.0035     1.879     0.670     0.627  0.0702  0.9929  0.0961
 
              Baa    -0.0040    -2.123    -0.758    -0.708  0.0529 -0.0976  0.9938
    57 H(1)   Bbb     0.0011     0.563     0.201     0.188 -0.0725  0.9922  0.1013
              Bcc     0.0029     1.560     0.557     0.520  0.9960  0.0774 -0.0454
 
              Baa    -0.0038    -2.033    -0.725    -0.678 -0.0298 -0.2969  0.9544
    58 H(1)   Bbb    -0.0037    -1.964    -0.701    -0.655  0.3751  0.8818  0.2860
              Bcc     0.0075     3.997     1.426     1.333  0.9265 -0.3665 -0.0851
 
              Baa    -0.0039    -2.082    -0.743    -0.695  0.9547 -0.2730 -0.1187
    59 H(1)   Bbb    -0.0015    -0.824    -0.294    -0.275  0.0919 -0.1089  0.9898
              Bcc     0.0054     2.906     1.037     0.969  0.2832  0.9558  0.0789
 
              Baa    -0.0014    -0.738    -0.263    -0.246  0.9996  0.0148  0.0244
    60 H(1)   Bbb    -0.0007    -0.393    -0.140    -0.131 -0.0120 -0.5573  0.8302
              Bcc     0.0021     1.130     0.403     0.377 -0.0259  0.8302  0.5569
 
              Baa    -0.0011    -0.602    -0.215    -0.201  0.6683  0.4185  0.6151
    61 H(1)   Bbb    -0.0008    -0.409    -0.146    -0.136 -0.5151 -0.3362  0.7884
              Bcc     0.0019     1.011     0.361     0.337 -0.5367  0.8437  0.0091
 
              Baa    -0.0006    -0.340    -0.121    -0.113  0.1474 -0.0054  0.9891
    62 H(1)   Bbb    -0.0003    -0.155    -0.055    -0.052  0.9706 -0.1919 -0.1456
              Bcc     0.0009     0.494     0.176     0.165  0.1905  0.9814 -0.0230
 
              Baa    -0.0007    -0.385    -0.137    -0.128  0.7730  0.0861  0.6285
    63 H(1)   Bbb    -0.0005    -0.284    -0.101    -0.095 -0.5171  0.6595  0.5456
              Bcc     0.0013     0.669     0.239     0.223  0.3676  0.7468 -0.5543
 
              Baa    -0.0008    -0.451    -0.161    -0.150 -0.0888 -0.4492  0.8890
    64 H(1)   Bbb    -0.0001    -0.070    -0.025    -0.023  0.9204 -0.3782 -0.0992
              Bcc     0.0010     0.521     0.186     0.174  0.3808  0.8095  0.4470
 
              Baa    -0.0009    -0.497    -0.177    -0.166  0.0168  0.1874  0.9821
    65 H(1)   Bbb    -0.0000    -0.021    -0.008    -0.007  0.9068 -0.4167  0.0640
              Bcc     0.0010     0.518     0.185     0.173  0.4213  0.8895 -0.1770
 
              Baa    -0.0006    -0.329    -0.117    -0.110 -0.3146  0.2662  0.9111
    66 H(1)   Bbb    -0.0002    -0.095    -0.034    -0.032  0.7212  0.6912  0.0471
              Bcc     0.0008     0.424     0.151     0.141 -0.6172  0.6719 -0.4094
 
              Baa    -0.0005    -0.265    -0.095    -0.089 -0.2359  0.0707  0.9692
    67 H(1)   Bbb    -0.0004    -0.240    -0.086    -0.080  0.9701 -0.0412  0.2392
              Bcc     0.0009     0.506     0.180     0.169  0.0568  0.9966 -0.0588
 
              Baa    -0.0006    -0.318    -0.113    -0.106  0.3522 -0.1781  0.9188
    68 H(1)   Bbb    -0.0002    -0.118    -0.042    -0.039  0.7330  0.6629 -0.1525
              Bcc     0.0008     0.436     0.156     0.145 -0.5820  0.7272  0.3640
 
              Baa    -0.0006    -0.336    -0.120    -0.112 -0.0333  0.0225  0.9992
    69 H(1)   Bbb    -0.0004    -0.213    -0.076    -0.071 -0.2868  0.9575 -0.0311
              Bcc     0.0010     0.549     0.196     0.183  0.9574  0.2876  0.0254
 
              Baa    -0.0006    -0.325    -0.116    -0.108  0.0895 -0.4257  0.9004
    70 H(1)   Bbb    -0.0003    -0.139    -0.050    -0.046  0.6073  0.7399  0.2894
              Bcc     0.0009     0.464     0.165     0.155  0.7894 -0.5210 -0.3248
 
              Baa    -0.0006    -0.330    -0.118    -0.110 -0.1369  0.4676  0.8733
    71 H(1)   Bbb    -0.0002    -0.130    -0.047    -0.043  0.6288  0.7222 -0.2881
              Bcc     0.0009     0.460     0.164     0.154  0.7654 -0.5097  0.3929
 
              Baa    -0.0004    -0.229    -0.082    -0.076 -0.0320  0.9738  0.2253
    72 H(1)   Bbb    -0.0004    -0.218    -0.078    -0.073 -0.0292 -0.2263  0.9736
              Bcc     0.0008     0.446     0.159     0.149  0.9991  0.0246  0.0357
 
              Baa    -0.0005    -0.252    -0.090    -0.084  0.3984  0.8248  0.4013
    73 H(1)   Bbb    -0.0003    -0.154    -0.055    -0.051  0.8643 -0.1911 -0.4652
              Bcc     0.0008     0.406     0.145     0.135  0.3070 -0.5322  0.7890
 
              Baa    -0.0001    -0.080    -0.028    -0.027 -0.3102  0.3137  0.8974
    74 H(1)   Bbb    -0.0001    -0.036    -0.013    -0.012  0.7560  0.6538  0.0327
              Bcc     0.0002     0.115     0.041     0.039 -0.5764  0.6886 -0.4400
 

 ---------------------------------------------------------------------------------

 No NMR shielding tensors so no spin-rotation constants.
 Leave Link  601 at Fri Oct 24 22:41:01 2025, MaxMem= 30870077440 cpu:             182.7 elap:               3.2
 (Enter /public/software/gauss/g16/l9999.exe)
 1\1\GINC-CU056\SP\UM062X\def2TZVPP\C34H29B1F2N4O4(1-,2)\BAIDING\24-Oct
 -2025\0\\#p M062X/DEF2TZVPP scrf=(solvent=water) em=GD3\\Energy calcul
 ation for BNO_NO2_reduced\\-1,2\C,0,-7.162521,5.152079,-0.988841\N,0,-
 7.277998,4.204105,-0.103856\O,0,-8.178297,4.200493,0.829254\C,0,-6.364
 153,3.066398,-0.106635\C,0,-5.999819,2.522344,1.123958\C,0,-5.130048,1
 .435351,1.155271\C,0,-4.634347,0.880184,-0.033343\C,0,-3.714321,-0.297
 321,0.002848\C,0,-2.332291,-0.106828,-0.015654\C,0,-1.532531,1.097954,
 -0.062645\C,0,-1.981685,2.527489,-0.090007\C,0,-0.216894,0.694649,-0.0
 84923\C,0,-0.166865,-0.73323,-0.055047\C,0,0.971141,-1.584158,-0.0907\
 C,0,2.268822,-1.114464,-0.072401\C,0,3.439995,-1.910365,-0.13388\C,0,4
 .703944,-1.319849,-0.140658\O,0,4.743645,0.057236,0.00158\C,0,5.930351
 ,0.757887,-0.001846\C,0,7.161685,0.067009,-0.136522\C,0,8.346729,0.847
 434,-0.123294\C,0,8.304147,2.216981,0.014036\C,0,7.055028,2.875851,0.1
 45213\N,0,7.008522,4.260279,0.285156\O,0,5.87123,4.851258,0.393439\O,0
 ,8.100425,4.939825,0.305932\C,0,5.853068,2.127604,0.135297\C,0,7.12330
 4,-1.344439,-0.2778\C,0,5.930054,-2.032451,-0.289696\C,0,5.859035,-3.5
 28214,-0.48516\C,0,4.642597,-4.120965,0.230206\C,0,3.354391,-3.424307,
 -0.221393\N,0,-1.454696,-1.198275,-0.008526\B,0,-1.880389,-2.66958,0.2
 02872\F,0,-1.299358,-3.494624,-0.779903\F,0,-1.461778,-3.127086,1.4679
 26\N,0,-3.418526,-2.717881,0.096781\C,0,-4.181842,-3.844504,0.118498\C
 ,0,-3.603405,-5.219233,0.188607\C,0,-5.530082,-3.473556,0.067215\C,0,-
 5.609394,-2.075252,0.018243\C,0,-6.895906,-1.305445,-0.050927\C,0,-4.2
 6496,-1.604067,0.041034\C,0,-5.030421,1.432494,-1.258724\C,0,-5.896446
 ,2.523995,-1.302871\H,0,-6.353216,5.127939,-1.702861\H,0,-7.886058,5.9
 55482,-0.95834\H,0,-6.392036,2.95159,2.037625\H,0,-4.83415,1.014002,2.
 11045\H,0,-2.610492,2.77582,0.770362\H,0,-1.109226,3.186059,-0.075557\
 H,0,-2.564741,2.757181,-0.987217\H,0,0.642445,1.34914,-0.134006\H,0,0.
 783142,-2.648708,-0.156374\H,0,2.416701,-0.040128,-0.01863\H,0,9.30182
 8,0.340796,-0.226151\H,0,9.211804,2.80588,0.022113\H,0,4.895057,2.6185
 07,0.23727\H,0,8.058662,-1.886855,-0.386176\H,0,5.785983,-3.748144,-1.
 560113\H,0,6.789654,-3.986073,-0.134803\H,0,4.574352,-5.195417,0.03272
 \H,0,4.763638,-3.997325,1.313418\H,0,3.118601,-3.722529,-1.253412\H,0,
 2.518218,-3.775371,0.39231\H,0,-2.94697,-5.327658,1.058781\H,0,-4.4038
 51,-5.958387,0.262292\H,0,-2.999671,-5.444525,-0.696667\H,0,-6.366769,
 -4.160225,0.064363\H,0,-7.036149,-0.649856,0.814626\H,0,-6.954006,-0.6
 71148,-0.941237\H,0,-7.738139,-2.002382,-0.081253\H,0,-4.6701,0.999669
 ,-2.18611\H,0,-6.21762,2.925536,-2.257284\\Version=ES64L-G16RevA.03\St
 ate=2-A\HF=-2057.6759704\S2=0.823542\S2-1=0.\S2A=0.752888\RMSD=5.946e-
 09\Dipole=-7.5182972,-5.760009,-2.5100995\Quadrupole=-70.5243176,3.665
 6181,66.8586995,-106.3202236,12.3791326,-15.8590077\PG=C01 [X(C34H29B1
 F2N4O4)]\\@


 IF YOU GET CONFUSED, LOGIC OUT YOUR DILEMMA

           --  PICKER X-RAY CORP.    DIGITAL PRINTER MANUAL CA. 1964
 Job cpu time:       1 days 18 hours 21 minutes 48.7 seconds.
 Elapsed time:       0 days  0 hours 40 minutes  8.7 seconds.
 File lengths (MBytes):  RWF=   3459 Int=      0 D2E=      0 Chk=    226 Scr=      1
 Normal termination of Gaussian 16 at Fri Oct 24 22:41:02 2025.
