 Entering Gaussian System, Link 0=g16
 Input=BNP_24NO2_24NO2_sp.gjf
 Output=BNP_24NO2_24NO2_sp.log
 Initial command:
 /public/software/gauss/g16/l1.exe "/public/home/baiding/1024_sp/tmp_BNP_24NO2_24NO2_sp_1526250/Gau-2939557.inp" -scrdir="/public/home/baiding/1024_sp/tmp_BNP_24NO2_24NO2_sp_1526250/"
 Entering Link 1 = /public/software/gauss/g16/l1.exe PID=   2939558.
  
 Copyright (c) 1988,1990,1992,1993,1995,1998,2003,2009,2016,
            Gaussian, Inc.  All Rights Reserved.
  
 This is part of the Gaussian(R) 16 program.  It is based on
 the Gaussian(R) 09 system (copyright 2009, Gaussian, Inc.),
 the Gaussian(R) 03 system (copyright 2003, Gaussian, Inc.),
 the Gaussian(R) 98 system (copyright 1998, Gaussian, Inc.),
 the Gaussian(R) 94 system (copyright 1995, Gaussian, Inc.),
 the Gaussian 92(TM) system (copyright 1992, Gaussian, Inc.),
 the Gaussian 90(TM) system (copyright 1990, Gaussian, Inc.),
 the Gaussian 88(TM) system (copyright 1988, Gaussian, Inc.),
 the Gaussian 86(TM) system (copyright 1986, Carnegie Mellon
 University), and the Gaussian 82(TM) system (copyright 1983,
 Carnegie Mellon University). Gaussian is a federally registered
 trademark of Gaussian, Inc.
  
 This software contains proprietary and confidential information,
 including trade secrets, belonging to Gaussian, Inc.
  
 This software is provided under written license and may be
 used, copied, transmitted, or stored only in accord with that
 written license.
  
 The following legend is applicable only to US Government
 contracts under FAR:
  
                    RESTRICTED RIGHTS LEGEND
  
 Use, reproduction and disclosure by the US Government is
 subject to restrictions as set forth in subparagraphs (a)
 and (c) of the Commercial Computer Software - Restricted
 Rights clause in FAR 52.227-19.
  
 Gaussian, Inc.
 340 Quinnipiac St., Bldg. 40, Wallingford CT 06492
  
  
 ---------------------------------------------------------------
 Warning -- This program may not be used in any manner that
 competes with the business of Gaussian, Inc. or will provide
 assistance to any competitor of Gaussian, Inc.  The licensee
 of this program is prohibited from giving any competitor of
 Gaussian, Inc. access to this program.  By using this program,
 the user acknowledges that Gaussian, Inc. is engaged in the
 business of creating and licensing software in the field of
 computational chemistry and represents and warrants to the
 licensee that it is not a competitor of Gaussian, Inc. and that
 it will not use this program in any manner prohibited above.
 ---------------------------------------------------------------
  

 Cite this work as:
 Gaussian 16, Revision A.03,
 M. J. Frisch, G. W. Trucks, H. B. Schlegel, G. E. Scuseria, 
 M. A. Robb, J. R. Cheeseman, G. Scalmani, V. Barone, 
 G. A. Petersson, H. Nakatsuji, X. Li, M. Caricato, A. V. Marenich, 
 J. Bloino, B. G. Janesko, R. Gomperts, B. Mennucci, H. P. Hratchian, 
 J. V. Ortiz, A. F. Izmaylov, J. L. Sonnenberg, D. Williams-Young, 
 F. Ding, F. Lipparini, F. Egidi, J. Goings, B. Peng, A. Petrone, 
 T. Henderson, D. Ranasinghe, V. G. Zakrzewski, J. Gao, N. Rega, 
 G. Zheng, W. Liang, M. Hada, M. Ehara, K. Toyota, R. Fukuda, 
 J. Hasegawa, M. Ishida, T. Nakajima, Y. Honda, O. Kitao, H. Nakai, 
 T. Vreven, K. Throssell, J. A. Montgomery, Jr., J. E. Peralta, 
 F. Ogliaro, M. J. Bearpark, J. J. Heyd, E. N. Brothers, K. N. Kudin, 
 V. N. Staroverov, T. A. Keith, R. Kobayashi, J. Normand, 
 K. Raghavachari, A. P. Rendell, J. C. Burant, S. S. Iyengar, 
 J. Tomasi, M. Cossi, J. M. Millam, M. Klene, C. Adamo, R. Cammi, 
 J. W. Ochterski, R. L. Martin, K. Morokuma, O. Farkas, 
 J. B. Foresman, and D. J. Fox, Gaussian, Inc., Wallingford CT, 2016.
 
 ******************************************
 Gaussian 16:  ES64L-G16RevA.03 25-Dec-2016
                25-Oct-2025 
 ******************************************
 %nprocshared=64
 Will use up to   64 processors via shared memory.
 %mem=230GB
 %chk=BNP_24NO2_24NO2_sp.chk
 ----------------------------------------------
 #p M062X/DEF2TZVPP scrf=(solvent=water) em=GD3
 ----------------------------------------------
 1/38=1,172=1/1;
 2/12=2,17=6,18=5,40=1/2;
 3/5=44,7=202,11=2,25=1,30=1,70=2201,72=1,74=-55,124=31/1,2,3;
 4//1;
 5/5=2,38=5,53=1/2;
 6/7=2,8=2,9=2,10=2,28=1/1;
 99/5=1,9=1/99;
 Leave Link    1 at Sat Oct 25 02:20:45 2025, MaxMem= 30870077440 cpu:              16.3 elap:               0.3
 (Enter /public/software/gauss/g16/l101.exe)
 --------------------------------------
 Energy calculation for BNP_24NO2_24NO2
 --------------------------------------
 Symbolic Z-matrix:
 Charge =  0 Multiplicity = 1
 C                    -4.73784   3.28872  -0.11895 
 C                    -3.32598   2.79044  -0.12349 
 C                    -2.20811   3.60497  -0.15704 
 C                    -1.05351   2.78408  -0.16428 
 C                     0.33683   3.16075  -0.17812 
 C                     0.76871   4.4267    0.02959 
 C                     2.15272   4.88717   0.00792 
 C                     2.37202   6.22535  -0.38691 
 C                     3.64067   6.76046  -0.54204 
 C                     4.74531   5.9442   -0.29703 
 N                     6.08826   6.4809   -0.464 
 O                     7.04985   5.73711  -0.24423 
 O                     6.20534   7.65756  -0.82054 
 C                     4.59924   4.62667   0.12239 
 C                     3.31614   4.12849   0.29437 
 N                     3.25841   2.77944   0.87972 
 O                     4.06952   1.94665   0.46981 
 O                     2.44173   2.56185   1.77413 
 N                    -1.44301   1.47885  -0.14518 
 C                    -2.83455   1.43552  -0.10719 
 C                    -3.50518   0.20127  -0.05972 
 C                    -4.99801   0.1744   -0.00457 
 C                    -5.74934   0.18851  -1.1886 
 C                    -7.13897   0.15971  -1.1402 
 C                    -7.76143   0.11838   0.10705 
 N                    -9.22122   0.08737   0.16543 
 O                    -9.85231   0.0995   -0.89606 
 O                    -9.76521   0.05017   1.27358 
 C                    -7.03972   0.10549   1.30027 
 C                    -5.65076   0.13305   1.23654 
 C                    -2.79069  -1.01029  -0.05995 
 C                    -3.23891  -2.37982  -0.06235 
 C                    -4.63378  -2.92421  -0.0638 
 C                    -2.09585  -3.15832  -0.08159 
 C                    -0.96641  -2.30242  -0.09287 
 C                     0.43164  -2.64585  -0.12008 
 C                     0.88838  -3.91737   0.00168 
 C                     2.30128  -4.27259   0.01671 
 C                     2.78588  -5.58152  -0.24714 
 N                     1.90162  -6.65469  -0.70679 
 O                     0.87777  -6.35531  -1.32751 
 O                     2.23726  -7.81938  -0.47455 
 C                     4.12659  -5.92806  -0.13201 
 C                     5.03231  -4.94058   0.22587 
 N                     6.442    -5.28719   0.33281 
 O                     6.78055  -6.45244   0.10082 
 O                     7.23769  -4.39792   0.65186 
 C                     4.62125  -3.62986   0.48507 
 C                     3.27676  -3.31943   0.39223 
 N                    -1.39826  -1.00931  -0.08622 
 B                    -0.50933   0.25482   0.05526 
 F                     0.49359   0.24799  -0.92612 
 F                     0.08446   0.30104   1.32043 
 H                    -5.28877   2.96091  -1.00569 
 H                    -5.29345   2.9345    0.75436 
 H                    -4.73864   4.3813   -0.10349 
 H                    -2.20964   4.68543  -0.19366 
 H                     1.03894   2.36121  -0.37732 
 H                     0.03904   5.22136   0.16209 
 H                     1.50696   6.84327  -0.60092 
 H                     3.77688   7.78745  -0.85515 
 H                     5.46302   4.01453   0.34329 
 H                    -5.24543   0.22041  -2.14823 
 H                    -7.73002   0.16864  -2.0468 
 H                    -7.55446   0.0742    2.25174 
 H                    -5.07038   0.12275   2.15245 
 H                    -5.20429  -2.58372  -0.93304 
 H                    -4.59828  -4.01609  -0.08651 
 H                    -5.19202  -2.62045   0.82677 
 H                    -2.06498  -4.23857  -0.1075 
 H                     1.12421  -1.82727  -0.2765 
 H                     0.17674  -4.72752   0.09776 
 H                     4.45397  -6.93694  -0.33973 
 H                     5.3444   -2.87791   0.77293 
 H                     2.95842  -2.31671   0.64904 
 
 ITRead=  0  0  0  0  0  0  0  0  0  0  0  0  0  0  0  0  0  0  0  0
 ITRead=  0  0  0  0  0  0  0  0  0  0  0  0  0  0  0  0  0  0  0  0
 ITRead=  0  0  0  0  0  0  0  0  0  0  0  0  0  0  0  0  0  0  0  0
 ITRead=  0  0  0  0  0  0  0  0  0  0  0  0  0  0  0
 MicOpt= -1 -1 -1 -1 -1 -1 -1 -1 -1 -1 -1 -1 -1 -1 -1 -1 -1 -1 -1 -1
 MicOpt= -1 -1 -1 -1 -1 -1 -1 -1 -1 -1 -1 -1 -1 -1 -1 -1 -1 -1 -1 -1
 MicOpt= -1 -1 -1 -1 -1 -1 -1 -1 -1 -1 -1 -1 -1 -1 -1 -1 -1 -1 -1 -1
 MicOpt= -1 -1 -1 -1 -1 -1 -1 -1 -1 -1 -1 -1 -1 -1 -1
 NAtoms=     75 NQM=       75 NQMF=       0 NMMI=      0 NMMIF=      0
                NMic=       0 NMicF=      0.
                    Isotopes and Nuclear Properties:
 (Nuclear quadrupole moments (NQMom) in fm**2, nuclear magnetic moments (NMagM)
  in nuclear magnetons)

  Atom         1           2           3           4           5           6           7           8           9          10
 IAtWgt=          12          12          12          12          12          12          12          12          12          12
 AtmWgt=  12.0000000  12.0000000  12.0000000  12.0000000  12.0000000  12.0000000  12.0000000  12.0000000  12.0000000  12.0000000
 NucSpn=           0           0           0           0           0           0           0           0           0           0
 AtZEff=  -0.0000000  -0.0000000  -0.0000000  -0.0000000  -0.0000000  -0.0000000  -0.0000000  -0.0000000  -0.0000000  -0.0000000
 NQMom=    0.0000000   0.0000000   0.0000000   0.0000000   0.0000000   0.0000000   0.0000000   0.0000000   0.0000000   0.0000000
 NMagM=    0.0000000   0.0000000   0.0000000   0.0000000   0.0000000   0.0000000   0.0000000   0.0000000   0.0000000   0.0000000
 AtZNuc=   6.0000000   6.0000000   6.0000000   6.0000000   6.0000000   6.0000000   6.0000000   6.0000000   6.0000000   6.0000000

  Atom        11          12          13          14          15          16          17          18          19          20
 IAtWgt=          14          16          16          12          12          14          16          16          14          12
 AtmWgt=  14.0030740  15.9949146  15.9949146  12.0000000  12.0000000  14.0030740  15.9949146  15.9949146  14.0030740  12.0000000
 NucSpn=           2           0           0           0           0           2           0           0           2           0
 AtZEff=  -0.0000000  -0.0000000  -0.0000000  -0.0000000  -0.0000000  -0.0000000  -0.0000000  -0.0000000  -0.0000000  -0.0000000
 NQMom=    2.0440000   0.0000000   0.0000000   0.0000000   0.0000000   2.0440000   0.0000000   0.0000000   2.0440000   0.0000000
 NMagM=    0.4037610   0.0000000   0.0000000   0.0000000   0.0000000   0.4037610   0.0000000   0.0000000   0.4037610   0.0000000
 AtZNuc=   7.0000000   8.0000000   8.0000000   6.0000000   6.0000000   7.0000000   8.0000000   8.0000000   7.0000000   6.0000000

  Atom        21          22          23          24          25          26          27          28          29          30
 IAtWgt=          12          12          12          12          12          14          16          16          12          12
 AtmWgt=  12.0000000  12.0000000  12.0000000  12.0000000  12.0000000  14.0030740  15.9949146  15.9949146  12.0000000  12.0000000
 NucSpn=           0           0           0           0           0           2           0           0           0           0
 AtZEff=  -0.0000000  -0.0000000  -0.0000000  -0.0000000  -0.0000000  -0.0000000  -0.0000000  -0.0000000  -0.0000000  -0.0000000
 NQMom=    0.0000000   0.0000000   0.0000000   0.0000000   0.0000000   2.0440000   0.0000000   0.0000000   0.0000000   0.0000000
 NMagM=    0.0000000   0.0000000   0.0000000   0.0000000   0.0000000   0.4037610   0.0000000   0.0000000   0.0000000   0.0000000
 AtZNuc=   6.0000000   6.0000000   6.0000000   6.0000000   6.0000000   7.0000000   8.0000000   8.0000000   6.0000000   6.0000000

  Atom        31          32          33          34          35          36          37          38          39          40
 IAtWgt=          12          12          12          12          12          12          12          12          12          14
 AtmWgt=  12.0000000  12.0000000  12.0000000  12.0000000  12.0000000  12.0000000  12.0000000  12.0000000  12.0000000  14.0030740
 NucSpn=           0           0           0           0           0           0           0           0           0           2
 AtZEff=  -0.0000000  -0.0000000  -0.0000000  -0.0000000  -0.0000000  -0.0000000  -0.0000000  -0.0000000  -0.0000000  -0.0000000
 NQMom=    0.0000000   0.0000000   0.0000000   0.0000000   0.0000000   0.0000000   0.0000000   0.0000000   0.0000000   2.0440000
 NMagM=    0.0000000   0.0000000   0.0000000   0.0000000   0.0000000   0.0000000   0.0000000   0.0000000   0.0000000   0.4037610
 AtZNuc=   6.0000000   6.0000000   6.0000000   6.0000000   6.0000000   6.0000000   6.0000000   6.0000000   6.0000000   7.0000000

  Atom        41          42          43          44          45          46          47          48          49          50
 IAtWgt=          16          16          12          12          14          16          16          12          12          14
 AtmWgt=  15.9949146  15.9949146  12.0000000  12.0000000  14.0030740  15.9949146  15.9949146  12.0000000  12.0000000  14.0030740
 NucSpn=           0           0           0           0           2           0           0           0           0           2
 AtZEff=  -0.0000000  -0.0000000  -0.0000000  -0.0000000  -0.0000000  -0.0000000  -0.0000000  -0.0000000  -0.0000000  -0.0000000
 NQMom=    0.0000000   0.0000000   0.0000000   0.0000000   2.0440000   0.0000000   0.0000000   0.0000000   0.0000000   2.0440000
 NMagM=    0.0000000   0.0000000   0.0000000   0.0000000   0.4037610   0.0000000   0.0000000   0.0000000   0.0000000   0.4037610
 AtZNuc=   8.0000000   8.0000000   6.0000000   6.0000000   7.0000000   8.0000000   8.0000000   6.0000000   6.0000000   7.0000000

  Atom        51          52          53          54          55          56          57          58          59          60
 IAtWgt=          11          19          19           1           1           1           1           1           1           1
 AtmWgt=  11.0093053  18.9984033  18.9984033   1.0078250   1.0078250   1.0078250   1.0078250   1.0078250   1.0078250   1.0078250
 NucSpn=           3           1           1           1           1           1           1           1           1           1
 AtZEff=  -0.0000000  -0.0000000  -0.0000000  -0.0000000  -0.0000000  -0.0000000  -0.0000000  -0.0000000  -0.0000000  -0.0000000
 NQMom=    4.0590000   0.0000000   0.0000000   0.0000000   0.0000000   0.0000000   0.0000000   0.0000000   0.0000000   0.0000000
 NMagM=    2.6886370   2.6288670   2.6288670   2.7928460   2.7928460   2.7928460   2.7928460   2.7928460   2.7928460   2.7928460
 AtZNuc=   5.0000000   9.0000000   9.0000000   1.0000000   1.0000000   1.0000000   1.0000000   1.0000000   1.0000000   1.0000000

  Atom        61          62          63          64          65          66          67          68          69          70
 IAtWgt=           1           1           1           1           1           1           1           1           1           1
 AtmWgt=   1.0078250   1.0078250   1.0078250   1.0078250   1.0078250   1.0078250   1.0078250   1.0078250   1.0078250   1.0078250
 NucSpn=           1           1           1           1           1           1           1           1           1           1
 AtZEff=  -0.0000000  -0.0000000  -0.0000000  -0.0000000  -0.0000000  -0.0000000  -0.0000000  -0.0000000  -0.0000000  -0.0000000
 NQMom=    0.0000000   0.0000000   0.0000000   0.0000000   0.0000000   0.0000000   0.0000000   0.0000000   0.0000000   0.0000000
 NMagM=    2.7928460   2.7928460   2.7928460   2.7928460   2.7928460   2.7928460   2.7928460   2.7928460   2.7928460   2.7928460
 AtZNuc=   1.0000000   1.0000000   1.0000000   1.0000000   1.0000000   1.0000000   1.0000000   1.0000000   1.0000000   1.0000000

  Atom        71          72          73          74          75
 IAtWgt=           1           1           1           1           1
 AtmWgt=   1.0078250   1.0078250   1.0078250   1.0078250   1.0078250
 NucSpn=           1           1           1           1           1
 AtZEff=  -0.0000000  -0.0000000  -0.0000000  -0.0000000  -0.0000000
 NQMom=    0.0000000   0.0000000   0.0000000   0.0000000   0.0000000
 NMagM=    2.7928460   2.7928460   2.7928460   2.7928460   2.7928460
 AtZNuc=   1.0000000   1.0000000   1.0000000   1.0000000   1.0000000
 Leave Link  101 at Sat Oct 25 02:20:45 2025, MaxMem= 30870077440 cpu:               4.0 elap:               0.1
 (Enter /public/software/gauss/g16/l202.exe)
 Stoichiometry    C33H22BF2N7O10
 Framework group  C1[X(C33H22BF2N7O10)]
 Deg. of freedom   219
 Full point group                 C1      NOp   1
 Largest Abelian subgroup         C1      NOp   1
 Largest concise Abelian subgroup C1      NOp   1
                         Standard orientation:                         
 ---------------------------------------------------------------------
 Center     Atomic      Atomic             Coordinates (Angstroms)
 Number     Number       Type             X           Y           Z
 ---------------------------------------------------------------------
      1          6           0        4.737840   -3.288722   -0.118953
      2          6           0        3.325983   -2.790443   -0.123490
      3          6           0        2.208112   -3.604966   -0.157042
      4          6           0        1.053512   -2.784077   -0.164284
      5          6           0       -0.336825   -3.160748   -0.178116
      6          6           0       -0.768709   -4.426699    0.029593
      7          6           0       -2.152717   -4.887166    0.007917
      8          6           0       -2.372019   -6.225349   -0.386913
      9          6           0       -3.640671   -6.760464   -0.542035
     10          6           0       -4.745311   -5.944198   -0.297029
     11          7           0       -6.088263   -6.480896   -0.463999
     12          8           0       -7.049847   -5.737108   -0.244232
     13          8           0       -6.205344   -7.657564   -0.820540
     14          6           0       -4.599238   -4.626667    0.122387
     15          6           0       -3.316141   -4.128494    0.294371
     16          7           0       -3.258407   -2.779435    0.879719
     17          8           0       -4.069523   -1.946645    0.469807
     18          8           0       -2.441728   -2.561848    1.774125
     19          7           0        1.443005   -1.478853   -0.145184
     20          6           0        2.834552   -1.435518   -0.107187
     21          6           0        3.505182   -0.201273   -0.059724
     22          6           0        4.998010   -0.174404   -0.004569
     23          6           0        5.749345   -0.188506   -1.188602
     24          6           0        7.138972   -0.159710   -1.140204
     25          6           0        7.761428   -0.118381    0.107045
     26          7           0        9.221219   -0.087371    0.165427
     27          8           0        9.852314   -0.099501   -0.896064
     28          8           0        9.765212   -0.050165    1.273576
     29          6           0        7.039723   -0.105493    1.300265
     30          6           0        5.650756   -0.133046    1.236538
     31          6           0        2.790686    1.010285   -0.059952
     32          6           0        3.238914    2.379823   -0.062345
     33          6           0        4.633784    2.924210   -0.063797
     34          6           0        2.095845    3.158323   -0.081590
     35          6           0        0.966411    2.302417   -0.092873
     36          6           0       -0.431637    2.645848   -0.120083
     37          6           0       -0.888380    3.917374    0.001676
     38          6           0       -2.301284    4.272587    0.016710
     39          6           0       -2.785880    5.581517   -0.247138
     40          7           0       -1.901620    6.654687   -0.706791
     41          8           0       -0.877767    6.355309   -1.327512
     42          8           0       -2.237262    7.819379   -0.474549
     43          6           0       -4.126587    5.928057   -0.132007
     44          6           0       -5.032312    4.940579    0.225871
     45          7           0       -6.441997    5.287191    0.332806
     46          8           0       -6.780546    6.452439    0.100815
     47          8           0       -7.237686    4.397925    0.651864
     48          6           0       -4.621247    3.629862    0.485072
     49          6           0       -3.276756    3.319429    0.392230
     50          7           0        1.398260    1.009307   -0.086223
     51          5           0        0.509332   -0.254824    0.055263
     52          9           0       -0.493589   -0.247988   -0.926121
     53          9           0       -0.084460   -0.301035    1.320425
     54          1           0        5.288771   -2.960912   -1.005692
     55          1           0        5.293455   -2.934495    0.754363
     56          1           0        4.738644   -4.381300   -0.103487
     57          1           0        2.209643   -4.685434   -0.193659
     58          1           0       -1.038940   -2.361208   -0.377324
     59          1           0       -0.039036   -5.221358    0.162094
     60          1           0       -1.506960   -6.843270   -0.600924
     61          1           0       -3.776875   -7.787447   -0.855152
     62          1           0       -5.463024   -4.014528    0.343287
     63          1           0        5.245431   -0.220407   -2.148229
     64          1           0        7.730015   -0.168635   -2.046803
     65          1           0        7.554458   -0.074203    2.251743
     66          1           0        5.070376   -0.122748    2.152454
     67          1           0        5.204286    2.583716   -0.933040
     68          1           0        4.598281    4.016090   -0.086507
     69          1           0        5.192019    2.620450    0.826767
     70          1           0        2.064981    4.238570   -0.107504
     71          1           0       -1.124207    1.827273   -0.276498
     72          1           0       -0.176743    4.727525    0.097759
     73          1           0       -4.453971    6.936935   -0.339727
     74          1           0       -5.344400    2.877914    0.772929
     75          1           0       -2.958418    2.316707    0.649039
 ---------------------------------------------------------------------
 Rotational constants (GHZ):           0.0423339           0.0313650           0.0184473
 Leave Link  202 at Sat Oct 25 02:20:45 2025, MaxMem= 30870077440 cpu:               0.2 elap:               0.0
 (Enter /public/software/gauss/g16/l301.exe)
 Standard basis: def2TZVPP (5D, 7F)
 Ernie: Thresh=  0.10000D-02 Tol=  0.10000D-05 Strict=F.
 There are  2238 symmetry adapted cartesian basis functions of A   symmetry.
 There are  1951 symmetry adapted basis functions of A   symmetry.
  1951 basis functions,  3077 primitive gaussians,  2238 cartesian basis functions
   186 alpha electrons      186 beta electrons
       nuclear repulsion energy      6519.2509703600 Hartrees.
 IExCor= 4336 DFT=T Ex+Corr=M062X ExCW=0 ScaHFX=  0.540000
 ScaDFX=  1.000000  1.000000  1.000000  1.000000 ScalE2=  1.000000  1.000000
 IRadAn=      5 IRanWt=     -1 IRanGd=            0 ICorTp=0 IEmpDi=131
 NAtoms=   75 NActive=   75 NUniq=   75 SFac= 1.00D+00 NAtFMM=   60 NAOKFM=T Big=T
 Integral buffers will be    131072 words long.
 Raffenetti 2 integral format.
 Two-electron integral symmetry is turned on.
 R6Disp:  Grimme-D3 Dispersion energy=       -0.0068839583 Hartrees.
 Nuclear repulsion after empirical dispersion term =     6519.2440864017 Hartrees.
 ------------------------------------------------------------------------------
 Polarizable Continuum Model (PCM)
 =================================
 Model                : PCM.
 Atomic radii         : UFF (Universal Force Field).
 Polarization charges : Total charges.
 Charge compensation  : None.
 Solution method      : On-the-fly selection.
 Cavity type          : Scaled VdW (van der Waals Surface) (Alpha=1.100).
 Cavity algorithm     : GePol (No added spheres)
                        Default sphere list used, NSphG=   75.
                        Lebedev-Laikov grids with approx.  5.0 points / Ang**2.
                        Smoothing algorithm: York/Karplus (Gamma=1.0000).
                        Polarization charges: spherical gaussians, with
                                              point-specific exponents (IZeta= 3).
                        Self-potential: point-specific (ISelfS= 7).
                        Self-field    : sphere-specific E.n sum rule (ISelfD= 2).
 Solvent              : Water, Eps=  78.355300 Eps(inf)=   1.777849
 ------------------------------------------------------------------------------
 GePol: Number of generator spheres                  =      75
 GePol: Total number of spheres                      =      75
 GePol: Number of exposed spheres                    =      75 (100.00%)
 GePol: Number of points                             =    5833
 GePol: Average weight of points                     =       0.13
 GePol: Minimum weight of points                     =   0.74D-10
 GePol: Maximum weight of points                     =    0.20577
 GePol: Number of points with low weight             =     339
 GePol: Fraction of low-weight points (<1% of avg)   =       5.81%
 GePol: Cavity surface area                          =    736.948 Ang**2
 GePol: Cavity volume                                =    858.421 Ang**3
 Leave Link  301 at Sat Oct 25 02:20:45 2025, MaxMem= 30870077440 cpu:               3.9 elap:               0.1
 (Enter /public/software/gauss/g16/l302.exe)
 NPDir=0 NMtPBC=     1 NCelOv=     1 NCel=       1 NClECP=     1 NCelD=      1
         NCelK=      1 NCelE2=     1 NClLst=     1 CellRange=     0.0.
 One-electron integrals computed using PRISM.
 One-electron integral symmetry used in STVInt
   1 Symmetry operations used in ECPInt.
 ECPInt:  NShTT=  255970 NPrTT=  765698 LenC2=  153008 LenP2D=  298815.
 LDataN:  DoStor=T MaxTD1= 6 Len=  172
 NBasis=  1951 RedAO= T EigKep=  3.61D-06  NBF=  1951
 NBsUse=  1951 1.00D-06 EigRej= -1.00D+00 NBFU=  1951
 Precomputing XC quadrature grid using
 IXCGrd= 4 IRadAn=           5 IRanWt=          -1 IRanGd=           0 AccXCQ= 0.00D+00.
 Generated NRdTot=       0 NPtTot=           0 NUsed=           0 NTot=          32
 NSgBfM=  1911  1911  1911  1911  1911 MxSgAt=    75 MxSgA2=    75.
 Leave Link  302 at Sat Oct 25 02:20:55 2025, MaxMem= 30870077440 cpu:             671.0 elap:              10.5
 (Enter /public/software/gauss/g16/l303.exe)
 DipDrv:  MaxL=1.
 Leave Link  303 at Sat Oct 25 02:20:56 2025, MaxMem= 30870077440 cpu:              30.0 elap:               0.5
 (Enter /public/software/gauss/g16/l401.exe)
 ExpMin= 6.06D-02 ExpMax= 3.55D+04 ExpMxC= 1.21D+03 IAcc=3 IRadAn=         5 AccDes= 0.00D+00
 Harris functional with IExCor= 1009 and IRadAn=       5 diagonalized for initial guess.
 HarFok:  IExCor= 1009 AccDes= 0.00D+00 IRadAn=         5 IDoV= 1 UseB2=F ITyADJ=14
 ICtDFT=  3500011 ScaDFX=  1.000000  1.000000  1.000000  1.000000
 FoFCou: FMM=F IPFlag=           0 FMFlag=      100000 FMFlg1=        2001
         NFxFlg=           0 DoJE=T BraDBF=F KetDBF=T FulRan=T
         wScrn=  0.000000 ICntrl=       500 IOpCl=  0 I1Cent=   200000004 NGrid=           0
         NMat0=    1 NMatS0=      1 NMatT0=    0 NMatD0=    1 NMtDS0=    0 NMtDT0=    0
 Petite list used in FoFCou.
 Harris En= -2629.22973113622    
 JPrj=0 DoOrth=F DoCkMO=F.
 Leave Link  401 at Sat Oct 25 02:21:07 2025, MaxMem= 30870077440 cpu:             704.8 elap:              11.1
 (Enter /public/software/gauss/g16/l502.exe)
 Integral symmetry usage will be decided dynamically.
 Closed shell SCF:
 Using DIIS extrapolation, IDIIS=  1040.
 NGot= 30870077440 LenX= 30859898329 LenY= 30854887447
 Requested convergence on RMS density matrix=1.00D-08 within 128 cycles.
 Requested convergence on MAX density matrix=1.00D-06.
 Requested convergence on             energy=1.00D-06.
 No special actions if energy rises.
 Fock matrices will be formed incrementally for  20 cycles.

 Cycle   1  Pass 1  IDiag  1:
 FoFJK:  IHMeth= 1 ICntrl=       0 DoSepK=F KAlg= 0 I1Cent=           0 FoldK=F
 IRaf= 560000000 NMat=       1 IRICut=       1 DoRegI=T DoRafI=F ISym2E= 0 IDoP0=0 IntGTp=1.
 FoFCou: FMM=T IPFlag=           0 FMFlag=      100000 FMFlg1=        2001
         NFxFlg=           0 DoJE=F BraDBF=F KetDBF=F FulRan=T
         wScrn=  0.000000 ICntrl=         0 IOpCl=  0 I1Cent=           0 NGrid=           0
         NMat0=    1 NMatS0=      1 NMatT0=    0 NMatD0=    1 NMtDS0=    0 NMtDT0=    0
 Symmetry not used in FoFCou.
 FMM levels:  10  Number of levels for PrismC:   9
 Inv3:  Mode=1 IEnd=   102071667.
 Iteration    1 A*A^-1 deviation from unit magnitude is 9.10D-15 for   5827.
 Iteration    1 A*A^-1 deviation from orthogonality  is 4.58D-15 for   5816   3578.
 Iteration    1 A^-1*A deviation from unit magnitude is 8.88D-15 for   5827.
 Iteration    1 A^-1*A deviation from orthogonality  is 2.42D-15 for   5810   5803.
 E= -2629.13571131858    
 DIIS: error= 2.37D-02 at cycle   1 NSaved=   1.
 NSaved= 1 IEnMin= 1 EnMin= -2629.13571131858     IErMin= 1 ErrMin= 2.37D-02
 ErrMax= 2.37D-02  0.00D+00 EMaxC= 1.00D-01 BMatC= 2.08D+00 BMatP= 2.08D+00
 IDIUse=3 WtCom= 7.63D-01 WtEn= 2.37D-01
 Coeff-Com:  0.100D+01
 Coeff-En:   0.100D+01
 Coeff:      0.100D+01
 Gap=     0.125 Goal=   None    Shift=    0.000
 GapD=    0.125 DampG=1.000 DampE=0.500 DampFc=0.5000 IDamp=-1.
 Damping current iteration by 5.00D-01
 RMSDP=1.42D-03 MaxDP=1.96D-01              OVMax= 2.61D-01

 Cycle   2  Pass 1  IDiag  1:
 RMSU=  7.10D-04    CP:  9.98D-01
 E= -2629.72041315040     Delta-E=       -0.584701831818 Rises=F Damp=T
 DIIS: error= 5.71D-03 at cycle   2 NSaved=   2.
 NSaved= 2 IEnMin= 2 EnMin= -2629.72041315040     IErMin= 2 ErrMin= 5.71D-03
 ErrMax= 5.71D-03  0.00D+00 EMaxC= 1.00D-01 BMatC= 2.25D-01 BMatP= 2.08D+00
 IDIUse=3 WtCom= 9.43D-01 WtEn= 5.71D-02
 Coeff-Com:  0.686D-01 0.931D+00
 Coeff-En:   0.145D+00 0.855D+00
 Coeff:      0.730D-01 0.927D+00
 Gap=     0.169 Goal=   None    Shift=    0.000
 RMSDP=5.53D-04 MaxDP=5.30D-02 DE=-5.85D-01 OVMax= 1.87D-01

 Cycle   3  Pass 1  IDiag  1:
 RMSU=  5.22D-04    CP:  9.82D-01  1.24D+00
 E= -2630.47660865351     Delta-E=       -0.756195503116 Rises=F Damp=F
 DIIS: error= 5.00D-03 at cycle   3 NSaved=   3.
 NSaved= 3 IEnMin= 3 EnMin= -2630.47660865351     IErMin= 3 ErrMin= 5.00D-03
 ErrMax= 5.00D-03  0.00D+00 EMaxC= 1.00D-01 BMatC= 7.60D-02 BMatP= 2.25D-01
 IDIUse=3 WtCom= 9.50D-01 WtEn= 5.00D-02
 Coeff-Com: -0.638D-01 0.349D+00 0.715D+00
 Coeff-En:   0.000D+00 0.000D+00 0.100D+01
 Coeff:     -0.606D-01 0.331D+00 0.729D+00
 Gap=     0.131 Goal=   None    Shift=    0.000
 RMSDP=1.75D-04 MaxDP=2.22D-02 DE=-7.56D-01 OVMax= 3.83D-02

 Cycle   4  Pass 1  IDiag  1:
 RMSU=  1.74D-04    CP:  9.84D-01  1.26D+00  9.72D-01
 E= -2630.52653392210     Delta-E=       -0.049925268590 Rises=F Damp=F
 DIIS: error= 1.42D-03 at cycle   4 NSaved=   4.
 NSaved= 4 IEnMin= 4 EnMin= -2630.52653392210     IErMin= 4 ErrMin= 1.42D-03
 ErrMax= 1.42D-03  0.00D+00 EMaxC= 1.00D-01 BMatC= 9.30D-03 BMatP= 7.60D-02
 IDIUse=3 WtCom= 9.86D-01 WtEn= 1.42D-02
 Coeff-Com: -0.239D-01 0.655D-01 0.317D+00 0.642D+00
 Coeff-En:   0.000D+00 0.000D+00 0.377D-01 0.962D+00
 Coeff:     -0.236D-01 0.645D-01 0.313D+00 0.646D+00
 Gap=     0.132 Goal=   None    Shift=    0.000
 RMSDP=5.41D-05 MaxDP=5.10D-03 DE=-4.99D-02 OVMax= 1.05D-02

 Cycle   5  Pass 1  IDiag  1:
 RMSU=  4.23D-05    CP:  9.83D-01  1.26D+00  9.94D-01  8.19D-01
 E= -2630.53378142406     Delta-E=       -0.007247501955 Rises=F Damp=F
 DIIS: error= 3.68D-04 at cycle   5 NSaved=   5.
 NSaved= 5 IEnMin= 5 EnMin= -2630.53378142406     IErMin= 5 ErrMin= 3.68D-04
 ErrMax= 3.68D-04  0.00D+00 EMaxC= 1.00D-01 BMatC= 4.56D-04 BMatP= 9.30D-03
 IDIUse=3 WtCom= 9.96D-01 WtEn= 3.68D-03
 Coeff-Com: -0.714D-02 0.119D-01 0.104D+00 0.279D+00 0.612D+00
 Coeff-En:   0.000D+00 0.000D+00 0.000D+00 0.000D+00 0.100D+01
 Coeff:     -0.711D-02 0.118D-01 0.103D+00 0.278D+00 0.614D+00
 Gap=     0.133 Goal=   None    Shift=    0.000
 RMSDP=1.61D-05 MaxDP=1.42D-03 DE=-7.25D-03 OVMax= 4.47D-03

 Cycle   6  Pass 1  IDiag  1:
 RMSU=  1.47D-05    CP:  9.83D-01  1.26D+00  9.92D-01  8.44D-01  8.87D-01
 E= -2630.53414599737     Delta-E=       -0.000364573307 Rises=F Damp=F
 DIIS: error= 9.23D-05 at cycle   6 NSaved=   6.
 NSaved= 6 IEnMin= 6 EnMin= -2630.53414599737     IErMin= 6 ErrMin= 9.23D-05
 ErrMax= 9.23D-05  0.00D+00 EMaxC= 1.00D-01 BMatC= 4.55D-05 BMatP= 4.56D-04
 IDIUse=1 WtCom= 1.00D+00 WtEn= 0.00D+00
 Coeff-Com: -0.117D-02 0.550D-04 0.203D-01 0.676D-01 0.270D+00 0.643D+00
 Coeff:     -0.117D-02 0.550D-04 0.203D-01 0.676D-01 0.270D+00 0.643D+00
 Gap=     0.133 Goal=   None    Shift=    0.000
 RMSDP=6.78D-06 MaxDP=9.86D-04 DE=-3.65D-04 OVMax= 2.09D-03

 Cycle   7  Pass 1  IDiag  1:
 RMSU=  6.22D-06    CP:  9.83D-01  1.26D+00  9.94D-01  8.45D-01  9.33D-01
                    CP:  9.13D-01
 E= -2630.53418546386     Delta-E=       -0.000039466497 Rises=F Damp=F
 DIIS: error= 6.18D-05 at cycle   7 NSaved=   7.
 NSaved= 7 IEnMin= 7 EnMin= -2630.53418546386     IErMin= 7 ErrMin= 6.18D-05
 ErrMax= 6.18D-05  0.00D+00 EMaxC= 1.00D-01 BMatC= 1.20D-05 BMatP= 4.55D-05
 IDIUse=1 WtCom= 1.00D+00 WtEn= 0.00D+00
 Coeff-Com:  0.867D-03-0.260D-02-0.101D-01-0.201D-01 0.271D-01 0.360D+00
 Coeff-Com:  0.645D+00
 Coeff:      0.867D-03-0.260D-02-0.101D-01-0.201D-01 0.271D-01 0.360D+00
 Coeff:      0.645D+00
 Gap=     0.134 Goal=   None    Shift=    0.000
 RMSDP=3.31D-06 MaxDP=3.01D-04 DE=-3.95D-05 OVMax= 1.26D-03

 Cycle   8  Pass 1  IDiag  1:
 RMSU=  2.56D-06    CP:  9.83D-01  1.26D+00  9.95D-01  8.50D-01  9.58D-01
                    CP:  1.01D+00  9.39D-01
 E= -2630.53419709394     Delta-E=       -0.000011630074 Rises=F Damp=F
 DIIS: error= 1.97D-05 at cycle   8 NSaved=   8.
 NSaved= 8 IEnMin= 8 EnMin= -2630.53419709394     IErMin= 8 ErrMin= 1.97D-05
 ErrMax= 1.97D-05  0.00D+00 EMaxC= 1.00D-01 BMatC= 1.63D-06 BMatP= 1.20D-05
 IDIUse=1 WtCom= 1.00D+00 WtEn= 0.00D+00
 Coeff-Com:  0.599D-03-0.127D-02-0.765D-02-0.200D-01-0.304D-01 0.664D-01
 Coeff-Com:  0.319D+00 0.673D+00
 Coeff:      0.599D-03-0.127D-02-0.765D-02-0.200D-01-0.304D-01 0.664D-01
 Coeff:      0.319D+00 0.673D+00
 Gap=     0.134 Goal=   None    Shift=    0.000
 RMSDP=1.33D-06 MaxDP=1.02D-04 DE=-1.16D-05 OVMax= 5.93D-04

 Cycle   9  Pass 1  IDiag  1:
 RMSU=  9.24D-07    CP:  9.83D-01  1.26D+00  9.95D-01  8.52D-01  9.69D-01
                    CP:  1.04D+00  1.04D+00  9.53D-01
 E= -2630.53419896300     Delta-E=       -0.000001869066 Rises=F Damp=F
 DIIS: error= 7.06D-06 at cycle   9 NSaved=   9.
 NSaved= 9 IEnMin= 9 EnMin= -2630.53419896300     IErMin= 9 ErrMin= 7.06D-06
 ErrMax= 7.06D-06  0.00D+00 EMaxC= 1.00D-01 BMatC= 2.12D-07 BMatP= 1.63D-06
 IDIUse=1 WtCom= 1.00D+00 WtEn= 0.00D+00
 Coeff-Com:  0.180D-03-0.284D-03-0.218D-02-0.692D-02-0.177D-01-0.140D-01
 Coeff-Com:  0.705D-01 0.307D+00 0.663D+00
 Coeff:      0.180D-03-0.284D-03-0.218D-02-0.692D-02-0.177D-01-0.140D-01
 Coeff:      0.705D-01 0.307D+00 0.663D+00
 Gap=     0.134 Goal=   None    Shift=    0.000
 RMSDP=5.07D-07 MaxDP=5.94D-05 DE=-1.87D-06 OVMax= 2.61D-04

 Cycle  10  Pass 1  IDiag  1:
 RMSU=  3.62D-07    CP:  9.83D-01  1.26D+00  9.95D-01  8.52D-01  9.70D-01
                    CP:  1.05D+00  1.07D+00  1.04D+00  9.81D-01
 E= -2630.53419925144     Delta-E=       -0.000000288439 Rises=F Damp=F
 DIIS: error= 3.29D-06 at cycle  10 NSaved=  10.
 NSaved=10 IEnMin=10 EnMin= -2630.53419925144     IErMin=10 ErrMin= 3.29D-06
 ErrMax= 3.29D-06  0.00D+00 EMaxC= 1.00D-01 BMatC= 3.45D-08 BMatP= 2.12D-07
 IDIUse=1 WtCom= 1.00D+00 WtEn= 0.00D+00
 Coeff-Com: -0.237D-04 0.943D-04 0.447D-03 0.568D-03-0.205D-02-0.177D-01
 Coeff-Com: -0.261D-01 0.452D-02 0.291D+00 0.750D+00
 Coeff:     -0.237D-04 0.943D-04 0.447D-03 0.568D-03-0.205D-02-0.177D-01
 Coeff:     -0.261D-01 0.452D-02 0.291D+00 0.750D+00
 Gap=     0.134 Goal=   None    Shift=    0.000
 RMSDP=2.40D-07 MaxDP=2.65D-05 DE=-2.88D-07 OVMax= 1.57D-04

 Cycle  11  Pass 1  IDiag  1:
 RMSU=  1.77D-07    CP:  9.83D-01  1.26D+00  9.95D-01  8.52D-01  9.71D-01
                    CP:  1.05D+00  1.08D+00  1.07D+00  1.10D+00  1.05D+00
 E= -2630.53419931208     Delta-E=       -0.000000060640 Rises=F Damp=F
 DIIS: error= 1.22D-06 at cycle  11 NSaved=  11.
 NSaved=11 IEnMin=11 EnMin= -2630.53419931208     IErMin=11 ErrMin= 1.22D-06
 ErrMax= 1.22D-06  0.00D+00 EMaxC= 1.00D-01 BMatC= 7.84D-09 BMatP= 3.45D-08
 IDIUse=1 WtCom= 1.00D+00 WtEn= 0.00D+00
 Coeff-Com: -0.382D-04 0.858D-04 0.525D-03 0.133D-02 0.188D-02-0.582D-02
 Coeff-Com: -0.232D-01-0.514D-01 0.214D-01 0.372D+00 0.683D+00
 Coeff:     -0.382D-04 0.858D-04 0.525D-03 0.133D-02 0.188D-02-0.582D-02
 Coeff:     -0.232D-01-0.514D-01 0.214D-01 0.372D+00 0.683D+00
 Gap=     0.134 Goal=   None    Shift=    0.000
 RMSDP=1.07D-07 MaxDP=1.50D-05 DE=-6.06D-08 OVMax= 6.46D-05

 Cycle  12  Pass 1  IDiag  1:
 RMSU=  6.61D-08    CP:  9.83D-01  1.26D+00  9.95D-01  8.52D-01  9.71D-01
                    CP:  1.05D+00  1.09D+00  1.09D+00  1.14D+00  1.20D+00
                    CP:  9.77D-01
 E= -2630.53419932429     Delta-E=       -0.000000012207 Rises=F Damp=F
 DIIS: error= 4.41D-07 at cycle  12 NSaved=  12.
 NSaved=12 IEnMin=12 EnMin= -2630.53419932429     IErMin=12 ErrMin= 4.41D-07
 ErrMax= 4.41D-07  0.00D+00 EMaxC= 1.00D-01 BMatC= 9.78D-10 BMatP= 7.84D-09
 IDIUse=1 WtCom= 1.00D+00 WtEn= 0.00D+00
 Coeff-Com: -0.148D-04 0.274D-04 0.170D-03 0.529D-03 0.116D-02-0.283D-03
 Coeff-Com: -0.704D-02-0.252D-01-0.333D-01 0.610D-01 0.290D+00 0.713D+00
 Coeff:     -0.148D-04 0.274D-04 0.170D-03 0.529D-03 0.116D-02-0.283D-03
 Coeff:     -0.704D-02-0.252D-01-0.333D-01 0.610D-01 0.290D+00 0.713D+00
 Gap=     0.134 Goal=   None    Shift=    0.000
 RMSDP=4.18D-08 MaxDP=3.96D-06 DE=-1.22D-08 OVMax= 2.45D-05

 Cycle  13  Pass 1  IDiag  1:
 RMSU=  2.69D-08    CP:  9.83D-01  1.26D+00  9.95D-01  8.52D-01  9.71D-01
                    CP:  1.05D+00  1.09D+00  1.09D+00  1.15D+00  1.25D+00
                    CP:  1.09D+00  1.06D+00
 E= -2630.53419932640     Delta-E=       -0.000000002108 Rises=F Damp=F
 DIIS: error= 2.47D-07 at cycle  13 NSaved=  13.
 NSaved=13 IEnMin=13 EnMin= -2630.53419932640     IErMin=13 ErrMin= 2.47D-07
 ErrMax= 2.47D-07  0.00D+00 EMaxC= 1.00D-01 BMatC= 2.31D-10 BMatP= 9.78D-10
 IDIUse=1 WtCom= 1.00D+00 WtEn= 0.00D+00
 Coeff-Com: -0.508D-07-0.237D-05-0.215D-04-0.481D-05 0.208D-03 0.100D-02
 Coeff-Com:  0.129D-02-0.169D-02-0.180D-01-0.415D-01-0.938D-02 0.333D+00
 Coeff-Com:  0.735D+00
 Coeff:     -0.508D-07-0.237D-05-0.215D-04-0.481D-05 0.208D-03 0.100D-02
 Coeff:      0.129D-02-0.169D-02-0.180D-01-0.415D-01-0.938D-02 0.333D+00
 Coeff:      0.735D+00
 Gap=     0.134 Goal=   None    Shift=    0.000
 RMSDP=2.04D-08 MaxDP=2.14D-06 DE=-2.11D-09 OVMax= 1.09D-05

 Cycle  14  Pass 1  IDiag  1:
 RMSU=  1.21D-08    CP:  9.83D-01  1.26D+00  9.95D-01  8.52D-01  9.71D-01
                    CP:  1.05D+00  1.09D+00  1.09D+00  1.16D+00  1.27D+00
                    CP:  1.13D+00  1.24D+00  1.05D+00
 E= -2630.53419932722     Delta-E=       -0.000000000820 Rises=F Damp=F
 DIIS: error= 1.28D-07 at cycle  14 NSaved=  14.
 NSaved=14 IEnMin=14 EnMin= -2630.53419932722     IErMin=14 ErrMin= 1.28D-07
 ErrMax= 1.28D-07  0.00D+00 EMaxC= 1.00D-01 BMatC= 5.49D-11 BMatP= 2.31D-10
 IDIUse=1 WtCom= 1.00D+00 WtEn= 0.00D+00
 Coeff-Com:  0.278D-05-0.641D-05-0.443D-04-0.106D-03-0.120D-03 0.571D-03
 Coeff-Com:  0.209D-02 0.430D-02-0.158D-02-0.328D-01-0.682D-01 0.205D-01
 Coeff-Com:  0.366D+00 0.709D+00
 Coeff:      0.278D-05-0.641D-05-0.443D-04-0.106D-03-0.120D-03 0.571D-03
 Coeff:      0.209D-02 0.430D-02-0.158D-02-0.328D-01-0.682D-01 0.205D-01
 Coeff:      0.366D+00 0.709D+00
 Gap=     0.134 Goal=   None    Shift=    0.000
 RMSDP=1.02D-08 MaxDP=1.08D-06 DE=-8.20D-10 OVMax= 4.77D-06

 Cycle  15  Pass 1  IDiag  1:
 RMSU=  6.31D-09    CP:  9.83D-01  1.26D+00  9.95D-01  8.52D-01  9.71D-01
                    CP:  1.05D+00  1.09D+00  1.09D+00  1.16D+00  1.27D+00
                    CP:  1.15D+00  1.30D+00  1.22D+00  1.15D+00
 E= -2630.53419932706     Delta-E=        0.000000000162 Rises=F Damp=F
 DIIS: error= 5.62D-08 at cycle  15 NSaved=  15.
 NSaved=15 IEnMin=14 EnMin= -2630.53419932722     IErMin=15 ErrMin= 5.62D-08
 ErrMax= 5.62D-08  0.00D+00 EMaxC= 1.00D-01 BMatC= 1.26D-11 BMatP= 5.49D-11
 IDIUse=1 WtCom= 1.00D+00 WtEn= 0.00D+00
 Coeff-Com:  0.136D-05-0.249D-05-0.158D-04-0.509D-04-0.120D-03-0.786D-05
 Coeff-Com:  0.659D-03 0.257D-02 0.418D-02-0.547D-02-0.324D-01-0.803D-01
 Coeff-Com: -0.136D-01 0.356D+00 0.769D+00
 Coeff:      0.136D-05-0.249D-05-0.158D-04-0.509D-04-0.120D-03-0.786D-05
 Coeff:      0.659D-03 0.257D-02 0.418D-02-0.547D-02-0.324D-01-0.803D-01
 Coeff:     -0.136D-01 0.356D+00 0.769D+00
 Gap=     0.134 Goal=   None    Shift=    0.000
 RMSDP=5.61D-09 MaxDP=7.67D-07 DE= 1.62D-10 OVMax= 3.14D-06

 Error on total polarization charges =  0.02029
 SCF Done:  E(RM062X) =  -2630.53419933     A.U. after   15 cycles
            NFock= 15  Conv=0.56D-08     -V/T= 2.0051
 KE= 2.617123227685D+03 PE=-1.918179319323D+04 EE= 7.414891679818D+03
 Leave Link  502 at Sat Oct 25 02:38:27 2025, MaxMem= 30870077440 cpu:           65405.7 elap:            1040.3
 (Enter /public/software/gauss/g16/l601.exe)
 Copying SCF densities to generalized density rwf, IOpCl= 0 IROHF=0.

 **********************************************************************

            Population analysis using the SCF density.

 **********************************************************************

 Orbital symmetries:
       Occupied  (A) (A) (A) (A) (A) (A) (A) (A) (A) (A) (A) (A)
                 (A) (A) (A) (A) (A) (A) (A) (A) (A) (A) (A) (A)
                 (A) (A) (A) (A) (A) (A) (A) (A) (A) (A) (A) (A)
                 (A) (A) (A) (A) (A) (A) (A) (A) (A) (A) (A) (A)
                 (A) (A) (A) (A) (A) (A) (A) (A) (A) (A) (A) (A)
                 (A) (A) (A) (A) (A) (A) (A) (A) (A) (A) (A) (A)
                 (A) (A) (A) (A) (A) (A) (A) (A) (A) (A) (A) (A)
                 (A) (A) (A) (A) (A) (A) (A) (A) (A) (A) (A) (A)
                 (A) (A) (A) (A) (A) (A) (A) (A) (A) (A) (A) (A)
                 (A) (A) (A) (A) (A) (A) (A) (A) (A) (A) (A) (A)
                 (A) (A) (A) (A) (A) (A) (A) (A) (A) (A) (A) (A)
                 (A) (A) (A) (A) (A) (A) (A) (A) (A) (A) (A) (A)
                 (A) (A) (A) (A) (A) (A) (A) (A) (A) (A) (A) (A)
                 (A) (A) (A) (A) (A) (A) (A) (A) (A) (A) (A) (A)
                 (A) (A) (A) (A) (A) (A) (A) (A) (A) (A) (A) (A)
                 (A) (A) (A) (A) (A) (A)
       Virtual   (A) (A) (A) (A) (A) (A) (A) (A) (A) (A) (A) (A)
                 (A) (A) (A) (A) (A) (A) (A) (A) (A) (A) (A) (A)
                 (A) (A) (A) (A) (A) (A) (A) (A) (A) (A) (A) (A)
                 (A) (A) (A) (A) (A) (A) (A) (A) (A) (A) (A) (A)
                 (A) (A) (A) (A) (A) (A) (A) (A) (A) (A) (A) (A)
                 (A) (A) (A) (A) (A) (A) (A) (A) (A) (A) (A) (A)
                 (A) (A) (A) (A) (A) (A) (A) (A) (A) (A) (A) (A)
                 (A) (A) (A) (A) (A) (A) (A) (A) (A) (A) (A) (A)
                 (A) (A) (A) (A) (A) (A) (A) (A) (A) (A) (A) (A)
                 (A) (A) (A) (A) (A) (A) (A) (A) (A) (A) (A) (A)
                 (A) (A) (A) (A) (A) (A) (A) (A) (A) (A) (A) (A)
                 (A) (A) (A) (A) (A) (A) (A) (A) (A) (A) (A) (A)
                 (A) (A) (A) (A) (A) (A) (A) (A) (A) (A) (A) (A)
                 (A) (A) (A) (A) (A) (A) (A) (A) (A) (A) (A) (A)
                 (A) (A) (A) (A) (A) (A) (A) (A) (A) (A) (A) (A)
                 (A) (A) (A) (A) (A) (A) (A) (A) (A) (A) (A) (A)
                 (A) (A) (A) (A) (A) (A) (A) (A) (A) (A) (A) (A)
                 (A) (A) (A) (A) (A) (A) (A) (A) (A) (A) (A) (A)
                 (A) (A) (A) (A) (A) (A) (A) (A) (A) (A) (A) (A)
                 (A) (A) (A) (A) (A) (A) (A) (A) (A) (A) (A) (A)
                 (A) (A) (A) (A) (A) (A) (A) (A) (A) (A) (A) (A)
                 (A) (A) (A) (A) (A) (A) (A) (A) (A) (A) (A) (A)
                 (A) (A) (A) (A) (A) (A) (A) (A) (A) (A) (A) (A)
                 (A) (A) (A) (A) (A) (A) (A) (A) (A) (A) (A) (A)
                 (A) (A) (A) (A) (A) (A) (A) (A) (A) (A) (A) (A)
                 (A) (A) (A) (A) (A) (A) (A) (A) (A) (A) (A) (A)
                 (A) (A) (A) (A) (A) (A) (A) (A) (A) (A) (A) (A)
                 (A) (A) (A) (A) (A) (A) (A) (A) (A) (A) (A) (A)
                 (A) (A) (A) (A) (A) (A) (A) (A) (A) (A) (A) (A)
                 (A) (A) (A) (A) (A) (A) (A) (A) (A) (A) (A) (A)
                 (A) (A) (A) (A) (A) (A) (A) (A) (A) (A) (A) (A)
                 (A) (A) (A) (A) (A) (A) (A) (A) (A) (A) (A) (A)
                 (A) (A) (A) (A) (A) (A) (A) (A) (A) (A) (A) (A)
                 (A) (A) (A) (A) (A) (A) (A) (A) (A) (A) (A) (A)
                 (A) (A) (A) (A) (A) (A) (A) (A) (A) (A) (A) (A)
                 (A) (A) (A) (A) (A) (A) (A) (A) (A) (A) (A) (A)
                 (A) (A) (A) (A) (A) (A) (A) (A) (A) (A) (A) (A)
                 (A) (A) (A) (A) (A) (A) (A) (A) (A) (A) (A) (A)
                 (A) (A) (A) (A) (A) (A) (A) (A) (A) (A) (A) (A)
                 (A) (A) (A) (A) (A) (A) (A) (A) (A) (A) (A) (A)
                 (A) (A) (A) (A) (A) (A) (A) (A) (A) (A) (A) (A)
                 (A) (A) (A) (A) (A) (A) (A) (A) (A) (A) (A) (A)
                 (A) (A) (A) (A) (A) (A) (A) (A) (A) (A) (A) (A)
                 (A) (A) (A) (A) (A) (A) (A) (A) (A) (A) (A) (A)
                 (A) (A) (A) (A) (A) (A) (A) (A) (A) (A) (A) (A)
                 (A) (A) (A) (A) (A) (A) (A) (A) (A) (A) (A) (A)
                 (A) (A) (A) (A) (A) (A) (A) (A) (A) (A) (A) (A)
                 (A) (A) (A) (A) (A) (A) (A) (A) (A) (A) (A) (A)
                 (A) (A) (A) (A) (A) (A) (A) (A) (A) (A) (A) (A)
                 (A) (A) (A) (A) (A) (A) (A) (A) (A) (A) (A) (A)
                 (A) (A) (A) (A) (A) (A) (A) (A) (A) (A) (A) (A)
                 (A) (A) (A) (A) (A) (A) (A) (A) (A) (A) (A) (A)
                 (A) (A) (A) (A) (A) (A) (A) (A) (A) (A) (A) (A)
                 (A) (A) (A) (A) (A) (A) (A) (A) (A) (A) (A) (A)
                 (A) (A) (A) (A) (A) (A) (A) (A) (A) (A) (A) (A)
                 (A) (A) (A) (A) (A) (A) (A) (A) (A) (A) (A) (A)
                 (A) (A) (A) (A) (A) (A) (A) (A) (A) (A) (A) (A)
                 (A) (A) (A) (A) (A) (A) (A) (A) (A) (A) (A) (A)
                 (A) (A) (A) (A) (A) (A) (A) (A) (A) (A) (A) (A)
                 (A) (A) (A) (A) (A) (A) (A) (A) (A) (A) (A) (A)
                 (A) (A) (A) (A) (A) (A) (A) (A) (A) (A) (A) (A)
                 (A) (A) (A) (A) (A) (A) (A) (A) (A) (A) (A) (A)
                 (A) (A) (A) (A) (A) (A) (A) (A) (A) (A) (A) (A)
                 (A) (A) (A) (A) (A) (A) (A) (A) (A) (A) (A) (A)
                 (A) (A) (A) (A) (A) (A) (A) (A) (A) (A) (A) (A)
                 (A) (A) (A) (A) (A) (A) (A) (A) (A) (A) (A) (A)
                 (A) (A) (A) (A) (A) (A) (A) (A) (A) (A) (A) (A)
                 (A) (A) (A) (A) (A) (A) (A) (A) (A) (A) (A) (A)
                 (A) (A) (A) (A) (A) (A) (A) (A) (A) (A) (A) (A)
                 (A) (A) (A) (A) (A) (A) (A) (A) (A) (A) (A) (A)
                 (A) (A) (A) (A) (A) (A) (A) (A) (A) (A) (A) (A)
                 (A) (A) (A) (A) (A) (A) (A) (A) (A) (A) (A) (A)
                 (A) (A) (A) (A) (A) (A) (A) (A) (A) (A) (A) (A)
                 (A) (A) (A) (A) (A) (A) (A) (A) (A) (A) (A) (A)
                 (A) (A) (A) (A) (A) (A) (A) (A) (A) (A) (A) (A)
                 (A) (A) (A) (A) (A) (A) (A) (A) (A) (A) (A) (A)
                 (A) (A) (A) (A) (A) (A) (A) (A) (A) (A) (A) (A)
                 (A) (A) (A) (A) (A) (A) (A) (A) (A) (A) (A) (A)
                 (A) (A) (A) (A) (A) (A) (A) (A) (A) (A) (A) (A)
                 (A) (A) (A) (A) (A) (A) (A) (A) (A) (A) (A) (A)
                 (A) (A) (A) (A) (A) (A) (A) (A) (A) (A) (A) (A)
                 (A) (A) (A) (A) (A) (A) (A) (A) (A) (A) (A) (A)
                 (A) (A) (A) (A) (A) (A) (A) (A) (A) (A) (A) (A)
                 (A) (A) (A) (A) (A) (A) (A) (A) (A) (A) (A) (A)
                 (A) (A) (A) (A) (A) (A) (A) (A) (A) (A) (A) (A)
                 (A) (A) (A) (A) (A) (A) (A) (A) (A) (A) (A) (A)
                 (A) (A) (A) (A) (A) (A) (A) (A) (A) (A) (A) (A)
                 (A) (A) (A) (A) (A) (A) (A) (A) (A) (A) (A) (A)
                 (A) (A) (A) (A) (A) (A) (A) (A) (A) (A) (A) (A)
                 (A) (A) (A) (A) (A) (A) (A) (A) (A) (A) (A) (A)
                 (A) (A) (A) (A) (A) (A) (A) (A) (A) (A) (A) (A)
                 (A) (A) (A) (A) (A) (A) (A) (A) (A) (A) (A) (A)
                 (A) (A) (A) (A) (A) (A) (A) (A) (A) (A) (A) (A)
                 (A) (A) (A) (A) (A) (A) (A) (A) (A) (A) (A) (A)
                 (A) (A) (A) (A) (A) (A) (A) (A) (A) (A) (A) (A)
                 (A) (A) (A) (A) (A) (A) (A) (A) (A) (A) (A) (A)
                 (A) (A) (A) (A) (A) (A) (A) (A) (A) (A) (A) (A)
                 (A) (A) (A) (A) (A) (A) (A) (A) (A) (A) (A) (A)
                 (A) (A) (A) (A) (A) (A) (A) (A) (A) (A) (A) (A)
                 (A) (A) (A) (A) (A) (A) (A) (A) (A) (A) (A) (A)
                 (A) (A) (A) (A) (A) (A) (A) (A) (A) (A) (A) (A)
                 (A) (A) (A) (A) (A) (A) (A) (A) (A) (A) (A) (A)
                 (A) (A) (A) (A) (A) (A) (A) (A) (A) (A) (A) (A)
                 (A) (A) (A) (A) (A) (A) (A) (A) (A) (A) (A) (A)
                 (A) (A) (A) (A) (A) (A) (A) (A) (A) (A) (A) (A)
                 (A) (A) (A) (A) (A) (A) (A) (A) (A) (A) (A) (A)
                 (A) (A) (A) (A) (A) (A) (A) (A) (A) (A) (A) (A)
                 (A) (A) (A) (A) (A) (A) (A) (A) (A) (A) (A) (A)
                 (A) (A) (A) (A) (A) (A) (A) (A) (A) (A) (A) (A)
                 (A) (A) (A) (A) (A) (A) (A) (A) (A) (A) (A) (A)
                 (A) (A) (A) (A) (A) (A) (A) (A) (A) (A) (A) (A)
                 (A) (A) (A) (A) (A) (A) (A) (A) (A) (A) (A) (A)
                 (A) (A) (A) (A) (A) (A) (A) (A) (A) (A) (A) (A)
                 (A) (A) (A) (A) (A) (A) (A) (A) (A) (A) (A) (A)
                 (A) (A) (A) (A) (A) (A) (A) (A) (A) (A) (A) (A)
                 (A) (A) (A) (A) (A) (A) (A) (A) (A) (A) (A) (A)
                 (A) (A) (A) (A) (A) (A) (A) (A) (A) (A) (A) (A)
                 (A) (A) (A) (A) (A) (A) (A) (A) (A) (A) (A) (A)
                 (A) (A) (A) (A) (A) (A) (A) (A) (A) (A) (A) (A)
                 (A) (A) (A) (A) (A) (A) (A) (A) (A) (A) (A) (A)
                 (A) (A) (A) (A) (A) (A) (A) (A) (A) (A) (A) (A)
                 (A) (A) (A) (A) (A) (A) (A) (A) (A) (A) (A) (A)
                 (A) (A) (A) (A) (A) (A) (A) (A) (A) (A) (A) (A)
                 (A) (A) (A) (A) (A) (A) (A) (A) (A) (A) (A) (A)
                 (A) (A) (A) (A) (A) (A) (A) (A) (A) (A) (A) (A)
                 (A) (A) (A) (A) (A) (A) (A) (A) (A) (A) (A) (A)
                 (A) (A) (A) (A) (A) (A) (A) (A) (A) (A) (A) (A)
                 (A) (A) (A) (A) (A) (A) (A) (A) (A) (A) (A) (A)
                 (A) (A) (A) (A) (A) (A) (A) (A) (A) (A) (A) (A)
                 (A) (A) (A) (A) (A) (A) (A) (A) (A) (A) (A) (A)
                 (A) (A) (A) (A) (A) (A) (A) (A) (A) (A) (A) (A)
                 (A) (A) (A) (A) (A) (A) (A) (A) (A) (A) (A) (A)
                 (A) (A) (A) (A) (A) (A) (A) (A) (A) (A) (A) (A)
                 (A) (A) (A) (A) (A) (A) (A) (A) (A) (A) (A) (A)
                 (A) (A) (A) (A) (A) (A) (A) (A) (A) (A) (A) (A)
                 (A) (A) (A) (A) (A) (A) (A) (A) (A) (A) (A) (A)
                 (A) (A) (A) (A) (A) (A) (A) (A) (A) (A) (A) (A)
                 (A) (A) (A) (A) (A) (A) (A) (A) (A) (A) (A) (A)
                 (A) (A) (A) (A) (A) (A) (A) (A) (A) (A) (A) (A)
                 (A) (A) (A) (A) (A) (A) (A) (A) (A) (A) (A) (A)
                 (A) (A) (A) (A) (A) (A) (A) (A) (A) (A) (A) (A)
                 (A) (A) (A) (A) (A) (A) (A) (A) (A) (A) (A) (A)
                 (A) (A) (A) (A) (A) (A) (A) (A) (A) (A) (A) (A)
                 (A) (A) (A) (A) (A) (A) (A) (A) (A) (A) (A) (A)
                 (A) (A) (A) (A) (A) (A) (A) (A) (A) (A) (A) (A)
                 (A) (A) (A) (A) (A) (A) (A) (A) (A) (A) (A) (A)
                 (A) (A) (A) (A) (A) (A) (A) (A) (A) (A) (A) (A)
                 (A)
 The electronic state is 1-A.
 Alpha  occ. eigenvalues --  -25.21410 -25.21060 -19.69061 -19.69047 -19.68920
 Alpha  occ. eigenvalues --  -19.68754 -19.68566 -19.68552 -19.68540 -19.68509
 Alpha  occ. eigenvalues --  -19.68161 -19.68158 -15.02417 -15.02369 -15.02136
 Alpha  occ. eigenvalues --  -15.02101 -15.01634 -14.79740 -14.79715 -10.64085
 Alpha  occ. eigenvalues --  -10.63952 -10.63358 -10.63293 -10.62360 -10.61802
 Alpha  occ. eigenvalues --  -10.61697 -10.61670 -10.61539 -10.61506 -10.60484
 Alpha  occ. eigenvalues --  -10.60396 -10.60283 -10.60279 -10.59721 -10.59584
 Alpha  occ. eigenvalues --  -10.59550 -10.58728 -10.58718 -10.58436 -10.58434
 Alpha  occ. eigenvalues --  -10.58323 -10.58236 -10.58073 -10.58067 -10.58064
 Alpha  occ. eigenvalues --  -10.58006 -10.57826 -10.57822 -10.55360 -10.55324
 Alpha  occ. eigenvalues --  -10.54529 -10.54504  -7.14153  -1.38165  -1.37930
 Alpha  occ. eigenvalues --   -1.37582  -1.37544  -1.37172  -1.33236  -1.29946
 Alpha  occ. eigenvalues --   -1.19737  -1.19462  -1.19131  -1.19092  -1.18691
 Alpha  occ. eigenvalues --   -1.11957  -1.10056  -1.03476  -1.03455  -1.01485
 Alpha  occ. eigenvalues --   -0.96847  -0.96536  -0.96020  -0.93937  -0.93678
 Alpha  occ. eigenvalues --   -0.92261  -0.91580  -0.91396  -0.90590  -0.89120
 Alpha  occ. eigenvalues --   -0.88165  -0.85126  -0.84216  -0.83290  -0.83174
 Alpha  occ. eigenvalues --   -0.81472  -0.81204  -0.80654  -0.79250  -0.75540
 Alpha  occ. eigenvalues --   -0.73839  -0.73163  -0.73057  -0.72207  -0.71156
 Alpha  occ. eigenvalues --   -0.70718  -0.69919  -0.69713  -0.68392  -0.67881
 Alpha  occ. eigenvalues --   -0.67587  -0.66408  -0.66194  -0.65759  -0.64794
 Alpha  occ. eigenvalues --   -0.64702  -0.64093  -0.64052  -0.63993  -0.63621
 Alpha  occ. eigenvalues --   -0.63417  -0.63278  -0.62697  -0.62197  -0.62185
 Alpha  occ. eigenvalues --   -0.62104  -0.62032  -0.61550  -0.61289  -0.59893
 Alpha  occ. eigenvalues --   -0.59254  -0.59167  -0.58785  -0.56910  -0.56723
 Alpha  occ. eigenvalues --   -0.56146  -0.55830  -0.54896  -0.54482  -0.54162
 Alpha  occ. eigenvalues --   -0.54058  -0.53355  -0.53090  -0.52891  -0.52425
 Alpha  occ. eigenvalues --   -0.52248  -0.51048  -0.50908  -0.50169  -0.49904
 Alpha  occ. eigenvalues --   -0.49561  -0.49181  -0.48900  -0.48825  -0.48516
 Alpha  occ. eigenvalues --   -0.48008  -0.47820  -0.47353  -0.47308  -0.47167
 Alpha  occ. eigenvalues --   -0.46995  -0.46788  -0.46019  -0.45015  -0.44573
 Alpha  occ. eigenvalues --   -0.44287  -0.44071  -0.43404  -0.42650  -0.42355
 Alpha  occ. eigenvalues --   -0.41893  -0.41778  -0.41595  -0.41365  -0.41325
 Alpha  occ. eigenvalues --   -0.41268  -0.40692  -0.40423  -0.40372  -0.40299
 Alpha  occ. eigenvalues --   -0.40255  -0.40241  -0.40141  -0.39928  -0.39922
 Alpha  occ. eigenvalues --   -0.39512  -0.37273  -0.35886  -0.35698  -0.34426
 Alpha  occ. eigenvalues --   -0.34377  -0.34251  -0.33072  -0.32122  -0.31311
 Alpha  occ. eigenvalues --   -0.25331
 Alpha virt. eigenvalues --   -0.11935  -0.09369  -0.07733  -0.07495  -0.07392
 Alpha virt. eigenvalues --   -0.06917  -0.02650  -0.01382  -0.01100  -0.00759
 Alpha virt. eigenvalues --    0.00389   0.01757   0.03842   0.04192   0.05387
 Alpha virt. eigenvalues --    0.06142   0.06950   0.07732   0.08053   0.08408
 Alpha virt. eigenvalues --    0.08635   0.08887   0.09219   0.09506   0.09630
 Alpha virt. eigenvalues --    0.10044   0.10473   0.10733   0.11423   0.11698
 Alpha virt. eigenvalues --    0.12005   0.12159   0.12262   0.12721   0.13090
 Alpha virt. eigenvalues --    0.13345   0.13641   0.14145   0.14743   0.14986
 Alpha virt. eigenvalues --    0.15057   0.15394   0.15514   0.15656   0.16158
 Alpha virt. eigenvalues --    0.16395   0.16772   0.16814   0.17243   0.17521
 Alpha virt. eigenvalues --    0.17632   0.17694   0.18233   0.18301   0.18769
 Alpha virt. eigenvalues --    0.19047   0.19183   0.19611   0.19702   0.19910
 Alpha virt. eigenvalues --    0.20155   0.20611   0.20934   0.21142   0.21208
 Alpha virt. eigenvalues --    0.21483   0.21658   0.22054   0.22322   0.22467
 Alpha virt. eigenvalues --    0.22666   0.23025   0.23219   0.23434   0.23794
 Alpha virt. eigenvalues --    0.24082   0.24221   0.24733   0.24953   0.25149
 Alpha virt. eigenvalues --    0.25443   0.25888   0.26062   0.26177   0.26398
 Alpha virt. eigenvalues --    0.26527   0.26702   0.26858   0.26998   0.27203
 Alpha virt. eigenvalues --    0.27584   0.27853   0.27953   0.28160   0.28333
 Alpha virt. eigenvalues --    0.28683   0.28814   0.29081   0.29386   0.29491
 Alpha virt. eigenvalues --    0.29706   0.30101   0.30278   0.30674   0.30851
 Alpha virt. eigenvalues --    0.31010   0.31334   0.31731   0.31866   0.32358
 Alpha virt. eigenvalues --    0.32508   0.32627   0.32823   0.33119   0.33244
 Alpha virt. eigenvalues --    0.33627   0.33967   0.34065   0.34133   0.34258
 Alpha virt. eigenvalues --    0.34467   0.34506   0.34808   0.34912   0.35201
 Alpha virt. eigenvalues --    0.35319   0.35345   0.35692   0.35991   0.36220
 Alpha virt. eigenvalues --    0.36457   0.36703   0.36797   0.36927   0.37176
 Alpha virt. eigenvalues --    0.37286   0.37550   0.37917   0.38272   0.38420
 Alpha virt. eigenvalues --    0.38560   0.38841   0.38951   0.39110   0.39386
 Alpha virt. eigenvalues --    0.39659   0.39859   0.40034   0.40331   0.40523
 Alpha virt. eigenvalues --    0.40686   0.40902   0.41138   0.41169   0.41439
 Alpha virt. eigenvalues --    0.41698   0.41971   0.42191   0.42380   0.42658
 Alpha virt. eigenvalues --    0.42818   0.43029   0.43166   0.43430   0.43580
 Alpha virt. eigenvalues --    0.43739   0.43884   0.44317   0.44474   0.44561
 Alpha virt. eigenvalues --    0.44938   0.45450   0.45836   0.46032   0.46330
 Alpha virt. eigenvalues --    0.46605   0.46780   0.47094   0.47251   0.47337
 Alpha virt. eigenvalues --    0.47488   0.47556   0.48032   0.48099   0.48239
 Alpha virt. eigenvalues --    0.48455   0.48783   0.48856   0.48990   0.49148
 Alpha virt. eigenvalues --    0.49209   0.49714   0.49789   0.49953   0.50117
 Alpha virt. eigenvalues --    0.50302   0.50677   0.50829   0.50947   0.51318
 Alpha virt. eigenvalues --    0.51424   0.51856   0.51977   0.52179   0.52398
 Alpha virt. eigenvalues --    0.52460   0.52640   0.52751   0.52941   0.53106
 Alpha virt. eigenvalues --    0.53307   0.53436   0.53864   0.54137   0.54364
 Alpha virt. eigenvalues --    0.54664   0.55202   0.55510   0.55641   0.55749
 Alpha virt. eigenvalues --    0.56104   0.56233   0.56586   0.56734   0.56947
 Alpha virt. eigenvalues --    0.57162   0.57508   0.57739   0.58133   0.58363
 Alpha virt. eigenvalues --    0.58705   0.58763   0.58934   0.59122   0.59306
 Alpha virt. eigenvalues --    0.59858   0.59931   0.60289   0.60491   0.60967
 Alpha virt. eigenvalues --    0.61422   0.61614   0.61765   0.61901   0.61973
 Alpha virt. eigenvalues --    0.62124   0.62277   0.62440   0.62736   0.62805
 Alpha virt. eigenvalues --    0.63080   0.63305   0.63493   0.63710   0.64011
 Alpha virt. eigenvalues --    0.64229   0.64445   0.64644   0.64858   0.65123
 Alpha virt. eigenvalues --    0.65590   0.65642   0.66175   0.66184   0.66454
 Alpha virt. eigenvalues --    0.66709   0.66755   0.67033   0.67269   0.67404
 Alpha virt. eigenvalues --    0.67661   0.67795   0.68031   0.68177   0.68419
 Alpha virt. eigenvalues --    0.68554   0.68759   0.68942   0.69178   0.69463
 Alpha virt. eigenvalues --    0.69875   0.69948   0.70375   0.70763   0.70844
 Alpha virt. eigenvalues --    0.71068   0.71370   0.71574   0.71880   0.72126
 Alpha virt. eigenvalues --    0.72229   0.72639   0.72941   0.73016   0.73140
 Alpha virt. eigenvalues --    0.73524   0.74449   0.74528   0.74755   0.74915
 Alpha virt. eigenvalues --    0.75035   0.75303   0.75400   0.75661   0.75688
 Alpha virt. eigenvalues --    0.76154   0.76297   0.76735   0.76860   0.77147
 Alpha virt. eigenvalues --    0.77472   0.77847   0.78431   0.78514   0.78590
 Alpha virt. eigenvalues --    0.79037   0.79659   0.79785   0.80225   0.80424
 Alpha virt. eigenvalues --    0.80466   0.80770   0.81096   0.81590   0.82299
 Alpha virt. eigenvalues --    0.82690   0.82869   0.83013   0.83673   0.83949
 Alpha virt. eigenvalues --    0.84050   0.84229   0.84547   0.84986   0.85081
 Alpha virt. eigenvalues --    0.85257   0.85996   0.86120   0.86536   0.86718
 Alpha virt. eigenvalues --    0.87017   0.87170   0.87747   0.88162   0.88578
 Alpha virt. eigenvalues --    0.89245   0.89387   0.89919   0.90188   0.90245
 Alpha virt. eigenvalues --    0.90884   0.91394   0.91543   0.91709   0.92000
 Alpha virt. eigenvalues --    0.92240   0.92648   0.92723   0.93222   0.93730
 Alpha virt. eigenvalues --    0.93850   0.94262   0.94654   0.94731   0.95235
 Alpha virt. eigenvalues --    0.95484   0.95600   0.95996   0.96426   0.96725
 Alpha virt. eigenvalues --    0.96813   0.97143   0.97385   0.97975   0.98355
 Alpha virt. eigenvalues --    0.98467   0.98679   0.99167   0.99294   0.99618
 Alpha virt. eigenvalues --    1.00093   1.00534   1.00632   1.00988   1.01206
 Alpha virt. eigenvalues --    1.01217   1.01835   1.02217   1.02277   1.02485
 Alpha virt. eigenvalues --    1.02654   1.03284   1.03949   1.04194   1.04404
 Alpha virt. eigenvalues --    1.04623   1.05018   1.05178   1.05808   1.05995
 Alpha virt. eigenvalues --    1.06590   1.06772   1.07136   1.07288   1.07669
 Alpha virt. eigenvalues --    1.07876   1.08270   1.08406   1.08563   1.08940
 Alpha virt. eigenvalues --    1.09265   1.09572   1.09785   1.09913   1.10084
 Alpha virt. eigenvalues --    1.10704   1.11037   1.11361   1.11580   1.12200
 Alpha virt. eigenvalues --    1.12322   1.12486   1.12658   1.12793   1.13312
 Alpha virt. eigenvalues --    1.13765   1.13957   1.14224   1.14347   1.15021
 Alpha virt. eigenvalues --    1.15790   1.15954   1.16172   1.16783   1.17123
 Alpha virt. eigenvalues --    1.17379   1.17512   1.17999   1.18401   1.18600
 Alpha virt. eigenvalues --    1.18743   1.19456   1.19608   1.19682   1.20141
 Alpha virt. eigenvalues --    1.20571   1.20777   1.21063   1.21095   1.21282
 Alpha virt. eigenvalues --    1.21637   1.22077   1.22727   1.22834   1.23219
 Alpha virt. eigenvalues --    1.23451   1.23622   1.23917   1.24168   1.24783
 Alpha virt. eigenvalues --    1.25041   1.25095   1.25555   1.25830   1.26145
 Alpha virt. eigenvalues --    1.26309   1.26899   1.27110   1.27539   1.27718
 Alpha virt. eigenvalues --    1.28262   1.29223   1.29649   1.29740   1.30036
 Alpha virt. eigenvalues --    1.30313   1.30625   1.30833   1.31499   1.31535
 Alpha virt. eigenvalues --    1.32063   1.32213   1.32676   1.32867   1.33173
 Alpha virt. eigenvalues --    1.33487   1.33831   1.34203   1.34250   1.34764
 Alpha virt. eigenvalues --    1.35135   1.35477   1.35981   1.36178   1.36481
 Alpha virt. eigenvalues --    1.36848   1.37441   1.37696   1.38201   1.38506
 Alpha virt. eigenvalues --    1.38827   1.39215   1.39291   1.39435   1.40147
 Alpha virt. eigenvalues --    1.40977   1.41347   1.42101   1.42536   1.43087
 Alpha virt. eigenvalues --    1.43230   1.43538   1.43596   1.44179   1.44418
 Alpha virt. eigenvalues --    1.44588   1.44786   1.45085   1.45372   1.45570
 Alpha virt. eigenvalues --    1.45880   1.46077   1.46270   1.46612   1.47032
 Alpha virt. eigenvalues --    1.47282   1.47616   1.48398   1.48513   1.48631
 Alpha virt. eigenvalues --    1.49019   1.49506   1.49833   1.50245   1.50695
 Alpha virt. eigenvalues --    1.51245   1.51557   1.51708   1.51989   1.52130
 Alpha virt. eigenvalues --    1.52540   1.52982   1.53120   1.53500   1.53828
 Alpha virt. eigenvalues --    1.54173   1.54443   1.54526   1.54645   1.54909
 Alpha virt. eigenvalues --    1.55002   1.55494   1.55743   1.56067   1.56475
 Alpha virt. eigenvalues --    1.56558   1.57140   1.57471   1.57747   1.57979
 Alpha virt. eigenvalues --    1.58363   1.58497   1.58852   1.59159   1.59565
 Alpha virt. eigenvalues --    1.59647   1.59918   1.60204   1.60339   1.60740
 Alpha virt. eigenvalues --    1.61282   1.61738   1.62305   1.62487   1.62726
 Alpha virt. eigenvalues --    1.62832   1.63111   1.63338   1.63937   1.64114
 Alpha virt. eigenvalues --    1.64468   1.65159   1.65216   1.65557   1.65667
 Alpha virt. eigenvalues --    1.66146   1.66453   1.66764   1.66882   1.67121
 Alpha virt. eigenvalues --    1.67514   1.67698   1.68238   1.68402   1.68596
 Alpha virt. eigenvalues --    1.68758   1.69433   1.69928   1.70503   1.70873
 Alpha virt. eigenvalues --    1.71132   1.71291   1.71671   1.71791   1.71927
 Alpha virt. eigenvalues --    1.72701   1.72813   1.73514   1.73630   1.74011
 Alpha virt. eigenvalues --    1.74753   1.75008   1.75410   1.75609   1.76115
 Alpha virt. eigenvalues --    1.76466   1.76853   1.77338   1.77597   1.77834
 Alpha virt. eigenvalues --    1.77899   1.78486   1.78688   1.78944   1.79165
 Alpha virt. eigenvalues --    1.79542   1.79988   1.80125   1.80473   1.80541
 Alpha virt. eigenvalues --    1.80897   1.81222   1.81959   1.82397   1.82680
 Alpha virt. eigenvalues --    1.82766   1.83617   1.83782   1.84070   1.84638
 Alpha virt. eigenvalues --    1.85094   1.85368   1.86418   1.86750   1.86932
 Alpha virt. eigenvalues --    1.87519   1.87806   1.89019   1.89357   1.89795
 Alpha virt. eigenvalues --    1.90302   1.90385   1.90667   1.91001   1.91366
 Alpha virt. eigenvalues --    1.92189   1.93215   1.93726   1.94090   1.95452
 Alpha virt. eigenvalues --    1.96089   1.96720   1.96998   1.97071   1.97374
 Alpha virt. eigenvalues --    1.97656   1.98026   1.98501   1.99082   1.99343
 Alpha virt. eigenvalues --    1.99692   1.99979   2.00050   2.00355   2.00676
 Alpha virt. eigenvalues --    2.00851   2.01150   2.01667   2.01871   2.02184
 Alpha virt. eigenvalues --    2.02395   2.02796   2.02886   2.03442   2.03961
 Alpha virt. eigenvalues --    2.04409   2.04677   2.04984   2.05267   2.05541
 Alpha virt. eigenvalues --    2.05926   2.06159   2.06434   2.06986   2.07250
 Alpha virt. eigenvalues --    2.07615   2.07889   2.08530   2.09050   2.09410
 Alpha virt. eigenvalues --    2.09784   2.10604   2.10810   2.11005   2.11450
 Alpha virt. eigenvalues --    2.11510   2.11912   2.12517   2.12617   2.13501
 Alpha virt. eigenvalues --    2.13752   2.14001   2.14526   2.14890   2.15389
 Alpha virt. eigenvalues --    2.15720   2.15958   2.16305   2.16773   2.17087
 Alpha virt. eigenvalues --    2.17446   2.17830   2.18104   2.19079   2.19199
 Alpha virt. eigenvalues --    2.20053   2.20208   2.20765   2.21556   2.21764
 Alpha virt. eigenvalues --    2.22246   2.22755   2.23055   2.23288   2.23480
 Alpha virt. eigenvalues --    2.24381   2.25118   2.25488   2.26256   2.26343
 Alpha virt. eigenvalues --    2.26488   2.26808   2.27120   2.28129   2.29013
 Alpha virt. eigenvalues --    2.29202   2.29417   2.29973   2.30060   2.30554
 Alpha virt. eigenvalues --    2.31053   2.31186   2.32082   2.32433   2.33116
 Alpha virt. eigenvalues --    2.33533   2.33929   2.34428   2.35104   2.35684
 Alpha virt. eigenvalues --    2.35915   2.36377   2.36449   2.37119   2.37450
 Alpha virt. eigenvalues --    2.37635   2.37802   2.38310   2.38428   2.38846
 Alpha virt. eigenvalues --    2.39243   2.39495   2.39888   2.40742   2.41509
 Alpha virt. eigenvalues --    2.42456   2.43929   2.44627   2.45395   2.46100
 Alpha virt. eigenvalues --    2.46969   2.48147   2.48308   2.48614   2.49934
 Alpha virt. eigenvalues --    2.50328   2.50385   2.51763   2.52758   2.53193
 Alpha virt. eigenvalues --    2.53728   2.54209   2.54665   2.55037   2.55239
 Alpha virt. eigenvalues --    2.55769   2.56061   2.56897   2.57197   2.57723
 Alpha virt. eigenvalues --    2.58167   2.58620   2.58882   2.59312   2.59964
 Alpha virt. eigenvalues --    2.60217   2.60431   2.60958   2.61169   2.62101
 Alpha virt. eigenvalues --    2.62525   2.62937   2.63762   2.64251   2.64451
 Alpha virt. eigenvalues --    2.64659   2.65124   2.65555   2.66246   2.67176
 Alpha virt. eigenvalues --    2.67292   2.67764   2.68043   2.68504   2.68759
 Alpha virt. eigenvalues --    2.69412   2.70070   2.70294   2.70456   2.70913
 Alpha virt. eigenvalues --    2.71227   2.72109   2.72216   2.72509   2.72659
 Alpha virt. eigenvalues --    2.72897   2.73301   2.73597   2.73814   2.74180
 Alpha virt. eigenvalues --    2.74244   2.74449   2.74734   2.75385   2.75505
 Alpha virt. eigenvalues --    2.75854   2.76044   2.76190   2.76628   2.76726
 Alpha virt. eigenvalues --    2.76994   2.77281   2.77782   2.78221   2.78252
 Alpha virt. eigenvalues --    2.78379   2.78579   2.78980   2.79087   2.79251
 Alpha virt. eigenvalues --    2.79616   2.79801   2.80013   2.80909   2.81028
 Alpha virt. eigenvalues --    2.81194   2.81285   2.81858   2.81888   2.82216
 Alpha virt. eigenvalues --    2.82568   2.82870   2.83339   2.83489   2.83693
 Alpha virt. eigenvalues --    2.83962   2.84391   2.84649   2.85103   2.85679
 Alpha virt. eigenvalues --    2.85874   2.86318   2.86559   2.86939   2.87007
 Alpha virt. eigenvalues --    2.87357   2.87903   2.88182   2.88525   2.88738
 Alpha virt. eigenvalues --    2.89261   2.89581   2.89835   2.90081   2.90372
 Alpha virt. eigenvalues --    2.90705   2.91013   2.91287   2.91470   2.91827
 Alpha virt. eigenvalues --    2.91957   2.92133   2.92487   2.92693   2.92864
 Alpha virt. eigenvalues --    2.92978   2.93396   2.93621   2.94032   2.94321
 Alpha virt. eigenvalues --    2.94543   2.95065   2.95235   2.95827   2.95978
 Alpha virt. eigenvalues --    2.96479   2.96765   2.96892   2.97228   2.97463
 Alpha virt. eigenvalues --    2.97882   2.98031   2.98342   2.98849   2.98965
 Alpha virt. eigenvalues --    2.99067   2.99364   2.99785   3.00240   3.00586
 Alpha virt. eigenvalues --    3.01025   3.01482   3.01676   3.01908   3.02190
 Alpha virt. eigenvalues --    3.02596   3.02623   3.02824   3.03089   3.03260
 Alpha virt. eigenvalues --    3.03546   3.03932   3.04416   3.04755   3.05057
 Alpha virt. eigenvalues --    3.05236   3.05453   3.05617   3.05786   3.06294
 Alpha virt. eigenvalues --    3.06678   3.06807   3.07248   3.07258   3.07521
 Alpha virt. eigenvalues --    3.07662   3.08202   3.08325   3.08743   3.09028
 Alpha virt. eigenvalues --    3.09134   3.09572   3.09828   3.10096   3.10325
 Alpha virt. eigenvalues --    3.10633   3.11143   3.11399   3.11434   3.11720
 Alpha virt. eigenvalues --    3.12048   3.12206   3.12281   3.12612   3.12826
 Alpha virt. eigenvalues --    3.12936   3.13282   3.13707   3.13876   3.14577
 Alpha virt. eigenvalues --    3.14775   3.14810   3.15258   3.15580   3.15836
 Alpha virt. eigenvalues --    3.16177   3.16254   3.16496   3.16812   3.17101
 Alpha virt. eigenvalues --    3.17609   3.17827   3.18110   3.18191   3.18366
 Alpha virt. eigenvalues --    3.18794   3.18980   3.19563   3.19868   3.20055
 Alpha virt. eigenvalues --    3.20175   3.20331   3.20864   3.21292   3.21378
 Alpha virt. eigenvalues --    3.21503   3.21812   3.21978   3.22339   3.22642
 Alpha virt. eigenvalues --    3.23068   3.23321   3.23777   3.23943   3.24379
 Alpha virt. eigenvalues --    3.24685   3.25099   3.25520   3.25660   3.25744
 Alpha virt. eigenvalues --    3.26123   3.26318   3.26629   3.27031   3.27180
 Alpha virt. eigenvalues --    3.27317   3.27756   3.27954   3.28272   3.28659
 Alpha virt. eigenvalues --    3.28873   3.29412   3.29479   3.29909   3.30157
 Alpha virt. eigenvalues --    3.30330   3.30765   3.30876   3.31506   3.31628
 Alpha virt. eigenvalues --    3.31793   3.31907   3.32206   3.32484   3.32718
 Alpha virt. eigenvalues --    3.33160   3.33519   3.34117   3.34410   3.34905
 Alpha virt. eigenvalues --    3.35085   3.35481   3.35587   3.36183   3.36350
 Alpha virt. eigenvalues --    3.36758   3.37065   3.37207   3.37292   3.37944
 Alpha virt. eigenvalues --    3.38306   3.38488   3.38558   3.39496   3.40076
 Alpha virt. eigenvalues --    3.40142   3.40825   3.40895   3.41508   3.41667
 Alpha virt. eigenvalues --    3.42357   3.42453   3.42713   3.43448   3.43692
 Alpha virt. eigenvalues --    3.43858   3.44192   3.44735   3.44981   3.45037
 Alpha virt. eigenvalues --    3.45808   3.46256   3.46885   3.47091   3.48162
 Alpha virt. eigenvalues --    3.48283   3.48702   3.48881   3.49031   3.49247
 Alpha virt. eigenvalues --    3.49730   3.50150   3.50344   3.50409   3.50606
 Alpha virt. eigenvalues --    3.51028   3.51262   3.51617   3.51703   3.52019
 Alpha virt. eigenvalues --    3.52440   3.52845   3.53450   3.53711   3.54248
 Alpha virt. eigenvalues --    3.54611   3.54892   3.55359   3.55669   3.55864
 Alpha virt. eigenvalues --    3.56643   3.56761   3.57529   3.57810   3.58154
 Alpha virt. eigenvalues --    3.58621   3.59028   3.59296   3.59717   3.60038
 Alpha virt. eigenvalues --    3.60520   3.60863   3.61407   3.61784   3.62282
 Alpha virt. eigenvalues --    3.62637   3.63531   3.63907   3.64325   3.64752
 Alpha virt. eigenvalues --    3.65013   3.65409   3.65756   3.66144   3.66350
 Alpha virt. eigenvalues --    3.66757   3.67073   3.67172   3.67776   3.68287
 Alpha virt. eigenvalues --    3.68470   3.68967   3.69363   3.70065   3.70189
 Alpha virt. eigenvalues --    3.70615   3.70863   3.71456   3.71626   3.71991
 Alpha virt. eigenvalues --    3.72223   3.72519   3.72841   3.73178   3.73620
 Alpha virt. eigenvalues --    3.74080   3.74296   3.75316   3.75591   3.76002
 Alpha virt. eigenvalues --    3.76194   3.76594   3.76718   3.77028   3.77409
 Alpha virt. eigenvalues --    3.78061   3.78508   3.79213   3.79397   3.79924
 Alpha virt. eigenvalues --    3.80462   3.80530   3.80739   3.81293   3.81408
 Alpha virt. eigenvalues --    3.81783   3.82231   3.83383   3.83590   3.83910
 Alpha virt. eigenvalues --    3.84274   3.84534   3.85515   3.85748   3.86090
 Alpha virt. eigenvalues --    3.86218   3.86624   3.86924   3.87537   3.88134
 Alpha virt. eigenvalues --    3.88228   3.88630   3.89243   3.89496   3.89710
 Alpha virt. eigenvalues --    3.89914   3.90085   3.90328   3.90807   3.91451
 Alpha virt. eigenvalues --    3.91593   3.91926   3.91974   3.92964   3.93020
 Alpha virt. eigenvalues --    3.93354   3.93876   3.93939   3.94345   3.95128
 Alpha virt. eigenvalues --    3.95256   3.95632   3.95760   3.96365   3.96850
 Alpha virt. eigenvalues --    3.97290   3.98059   3.98495   3.99153   3.99311
 Alpha virt. eigenvalues --    3.99753   4.00007   4.00388   4.00574   4.01019
 Alpha virt. eigenvalues --    4.01197   4.01646   4.01907   4.02021   4.02296
 Alpha virt. eigenvalues --    4.02813   4.03091   4.03534   4.03720   4.04103
 Alpha virt. eigenvalues --    4.04422   4.04552   4.04744   4.05134   4.05287
 Alpha virt. eigenvalues --    4.05472   4.05792   4.06196   4.06430   4.06837
 Alpha virt. eigenvalues --    4.06897   4.07278   4.07833   4.08148   4.08561
 Alpha virt. eigenvalues --    4.08891   4.09195   4.09556   4.09764   4.10031
 Alpha virt. eigenvalues --    4.10700   4.10956   4.11538   4.11661   4.11920
 Alpha virt. eigenvalues --    4.12277   4.12507   4.12888   4.13202   4.13397
 Alpha virt. eigenvalues --    4.13894   4.14519   4.14654   4.15128   4.15839
 Alpha virt. eigenvalues --    4.16002   4.16229   4.16378   4.16979   4.17615
 Alpha virt. eigenvalues --    4.17966   4.18153   4.18591   4.18657   4.19023
 Alpha virt. eigenvalues --    4.19531   4.19816   4.20166   4.20549   4.20918
 Alpha virt. eigenvalues --    4.21240   4.21611   4.22428   4.22554   4.23033
 Alpha virt. eigenvalues --    4.23226   4.23328   4.23535   4.24125   4.24626
 Alpha virt. eigenvalues --    4.24885   4.25133   4.25310   4.25488   4.26228
 Alpha virt. eigenvalues --    4.26325   4.27006   4.27801   4.28209   4.28455
 Alpha virt. eigenvalues --    4.28635   4.29477   4.29567   4.30247   4.30780
 Alpha virt. eigenvalues --    4.30870   4.31129   4.31707   4.32117   4.32568
 Alpha virt. eigenvalues --    4.33139   4.34385   4.35141   4.36081   4.36236
 Alpha virt. eigenvalues --    4.36834   4.37256   4.37661   4.38626   4.40332
 Alpha virt. eigenvalues --    4.41397   4.41727   4.42061   4.42355   4.43195
 Alpha virt. eigenvalues --    4.43494   4.44066   4.44573   4.45692   4.45946
 Alpha virt. eigenvalues --    4.46772   4.46935   4.47252   4.47511   4.47760
 Alpha virt. eigenvalues --    4.48547   4.48771   4.48950   4.49709   4.49978
 Alpha virt. eigenvalues --    4.51022   4.51383   4.52154   4.53009   4.53404
 Alpha virt. eigenvalues --    4.53633   4.54778   4.55064   4.55923   4.56185
 Alpha virt. eigenvalues --    4.56555   4.57075   4.57306   4.58240   4.58674
 Alpha virt. eigenvalues --    4.59188   4.59891   4.59940   4.60560   4.60869
 Alpha virt. eigenvalues --    4.61307   4.61678   4.62354   4.62594   4.62689
 Alpha virt. eigenvalues --    4.62763   4.63618   4.64062   4.64129   4.64533
 Alpha virt. eigenvalues --    4.65023   4.65481   4.65794   4.66216   4.67423
 Alpha virt. eigenvalues --    4.67684   4.68285   4.69188   4.69442   4.69765
 Alpha virt. eigenvalues --    4.69956   4.70522   4.70826   4.70918   4.71776
 Alpha virt. eigenvalues --    4.72203   4.72638   4.73102   4.73172   4.73964
 Alpha virt. eigenvalues --    4.74158   4.74430   4.75459   4.75849   4.76394
 Alpha virt. eigenvalues --    4.76459   4.77223   4.78239   4.78477   4.79088
 Alpha virt. eigenvalues --    4.79444   4.79867   4.80896   4.81323   4.81800
 Alpha virt. eigenvalues --    4.82096   4.82514   4.83237   4.83941   4.85127
 Alpha virt. eigenvalues --    4.85247   4.85492   4.85931   4.86681   4.87020
 Alpha virt. eigenvalues --    4.87548   4.88181   4.88726   4.89716   4.89910
 Alpha virt. eigenvalues --    4.90662   4.90871   4.91063   4.91503   4.92214
 Alpha virt. eigenvalues --    4.92642   4.92961   4.93163   4.93440   4.93662
 Alpha virt. eigenvalues --    4.94998   4.95516   4.95869   4.96206   4.96697
 Alpha virt. eigenvalues --    4.97133   4.98312   4.99098   4.99981   5.01209
 Alpha virt. eigenvalues --    5.01744   5.02560   5.03530   5.03660   5.03959
 Alpha virt. eigenvalues --    5.04903   5.05208   5.05385   5.05622   5.06049
 Alpha virt. eigenvalues --    5.06474   5.06606   5.07562   5.08099   5.08600
 Alpha virt. eigenvalues --    5.09307   5.09602   5.09987   5.10272   5.10398
 Alpha virt. eigenvalues --    5.10431   5.10852   5.10969   5.11818   5.12055
 Alpha virt. eigenvalues --    5.12741   5.13057   5.13152   5.13590   5.13629
 Alpha virt. eigenvalues --    5.13876   5.13896   5.14386   5.14819   5.15263
 Alpha virt. eigenvalues --    5.15389   5.15719   5.16319   5.16501   5.16570
 Alpha virt. eigenvalues --    5.16938   5.17313   5.17815   5.18293   5.18822
 Alpha virt. eigenvalues --    5.19341   5.19884   5.19957   5.20254   5.20561
 Alpha virt. eigenvalues --    5.21084   5.22034   5.22502   5.22873   5.24193
 Alpha virt. eigenvalues --    5.24516   5.25504   5.25761   5.27318   5.27479
 Alpha virt. eigenvalues --    5.27591   5.27906   5.28329   5.28438   5.28655
 Alpha virt. eigenvalues --    5.28753   5.29017   5.29054   5.29479   5.29708
 Alpha virt. eigenvalues --    5.30104   5.30932   5.31792   5.32590   5.33174
 Alpha virt. eigenvalues --    5.33725   5.34108   5.35184   5.35505   5.35776
 Alpha virt. eigenvalues --    5.36626   5.36725   5.37564   5.37996   5.38454
 Alpha virt. eigenvalues --    5.38749   5.39671   5.39972   5.40266   5.40448
 Alpha virt. eigenvalues --    5.40590   5.41516   5.42848   5.43080   5.43648
 Alpha virt. eigenvalues --    5.43790   5.44532   5.45342   5.48781   5.48928
 Alpha virt. eigenvalues --    5.49375   5.50162   5.50760   5.51184   5.51692
 Alpha virt. eigenvalues --    5.51963   5.52369   5.54631   5.54770   5.56236
 Alpha virt. eigenvalues --    5.56681   5.57120   5.57477   5.57946   5.58301
 Alpha virt. eigenvalues --    5.58855   5.59107   5.59133   5.60181   5.60626
 Alpha virt. eigenvalues --    5.60945   5.61191   5.61324   5.62126   5.63653
 Alpha virt. eigenvalues --    5.63973   5.64716   5.65480   5.65565   5.66674
 Alpha virt. eigenvalues --    5.68236   5.68618   5.69417   5.69991   5.71139
 Alpha virt. eigenvalues --    5.72123   5.73010   5.73941   5.74551   5.78404
 Alpha virt. eigenvalues --    5.78702   5.82648   5.83683   5.84680   5.85010
 Alpha virt. eigenvalues --    5.85457   5.86213   5.87671   5.91004   5.91469
 Alpha virt. eigenvalues --    5.91547   5.91645   5.91990   5.92955   5.94713
 Alpha virt. eigenvalues --    5.96262   6.00046   6.01913   6.03912   6.05224
 Alpha virt. eigenvalues --    6.06852   6.14225   6.15237   6.21652   6.21674
 Alpha virt. eigenvalues --    6.22186   6.24367   6.24970   6.25054   6.25262
 Alpha virt. eigenvalues --    6.25529   6.27748   6.27778   6.28038   6.28679
 Alpha virt. eigenvalues --    6.29748   6.30391   6.31947   6.33828   6.34560
 Alpha virt. eigenvalues --    6.35777   6.35824   6.36202   6.37775   6.38412
 Alpha virt. eigenvalues --    6.38666   6.39293   6.39688   6.40773   6.41492
 Alpha virt. eigenvalues --    6.41768   6.41888   6.42233   6.43087   6.43640
 Alpha virt. eigenvalues --    6.43660   6.45216   6.45490   6.68124   6.69725
 Alpha virt. eigenvalues --    6.75399   6.75690   6.76063   6.80369   6.80393
 Alpha virt. eigenvalues --    6.80714   6.81980   6.82745   6.82812   6.83064
 Alpha virt. eigenvalues --    6.83477   6.84667   6.85479   6.86904   6.87114
 Alpha virt. eigenvalues --    6.87236   6.87399   6.88825   6.93566   6.94029
 Alpha virt. eigenvalues --    6.96611   6.98242   6.98505   6.99318   7.04622
 Alpha virt. eigenvalues --    7.05877   7.06283   7.08060   7.08202   7.08354
 Alpha virt. eigenvalues --    7.10590   7.16647   7.20183   7.20229   7.20293
 Alpha virt. eigenvalues --    7.20692   7.21097   7.22272   7.23423   7.25135
 Alpha virt. eigenvalues --    7.26849   7.28208   7.32967   7.33039   7.33109
 Alpha virt. eigenvalues --    7.33682   7.34302   7.35410   7.37089   7.39783
 Alpha virt. eigenvalues --    7.42824   7.45237   7.45325   7.45948   7.50634
 Alpha virt. eigenvalues --    7.50705   7.51058   8.45771   8.46057   8.55666
 Alpha virt. eigenvalues --    8.58058   8.82284   8.86402   8.90502   8.91521
 Alpha virt. eigenvalues --    8.92716   9.00025  15.85798  22.79037  22.83445
 Alpha virt. eigenvalues --   22.94304  22.97901  23.00058  23.06328  23.07516
 Alpha virt. eigenvalues --   23.10893  23.13565  23.14471  23.19017  23.20962
 Alpha virt. eigenvalues --   23.22155  23.24225  23.24615  23.28421  23.29600
 Alpha virt. eigenvalues --   23.31887  23.32915  23.33073  23.34500  23.36441
 Alpha virt. eigenvalues --   23.46093  23.51817  23.53081  23.60220  23.72694
 Alpha virt. eigenvalues --   23.77967  23.86407  23.88455  23.99312  24.00254
 Alpha virt. eigenvalues --   24.18614  32.56973  32.57446  32.58701  32.59600
 Alpha virt. eigenvalues --   32.60362  33.12886  33.28111  44.14175  44.14479
 Alpha virt. eigenvalues --   44.17629  44.20125  44.20408  44.20966  44.21296
 Alpha virt. eigenvalues --   44.25027  44.25529  44.26624  57.35559  57.55402
          Condensed to atoms (all electrons):
 Mulliken charges:
               1
     1  C   -0.428250
     2  C   -0.023356
     3  C   -0.061811
     4  C    0.076057
     5  C   -0.155983
     6  C   -0.083654
     7  C    0.049171
     8  C   -0.095024
     9  C   -0.086809
    10  C   -0.047289
    11  N    0.495680
    12  O   -0.362594
    13  O   -0.360596
    14  C   -0.007934
    15  C   -0.008322
    16  N    0.421035
    17  O   -0.336308
    18  O   -0.309074
    19  N   -0.093902
    20  C    0.124784
    21  C    0.151214
    22  C   -0.270608
    23  C   -0.177878
    24  C   -0.035099
    25  C   -0.026804
    26  N    0.494017
    27  O   -0.365516
    28  O   -0.365435
    29  C   -0.043627
    30  C   -0.155138
    31  C    0.115073
    32  C   -0.021317
    33  C   -0.430362
    34  C   -0.065194
    35  C    0.024805
    36  C   -0.101344
    37  C   -0.088076
    38  C    0.078315
    39  C   -0.040704
    40  N    0.472542
    41  O   -0.343982
    42  O   -0.350631
    43  C    0.019973
    44  C   -0.059106
    45  N    0.497020
    46  O   -0.363506
    47  O   -0.360600
    48  C   -0.090391
    49  C   -0.107085
    50  N   -0.082409
    51  B    0.330013
    52  F   -0.353034
    53  F   -0.323480
    54  H    0.167303
    55  H    0.159970
    56  H    0.135667
    57  H    0.174785
    58  H    0.162496
    59  H    0.125996
    60  H    0.153386
    61  H    0.200558
    62  H    0.207510
    63  H    0.185084
    64  H    0.199660
    65  H    0.199084
    66  H    0.180518
    67  H    0.164073
    68  H    0.135583
    69  H    0.163910
    70  H    0.169055
    71  H    0.149064
    72  H    0.136689
    73  H    0.211208
    74  H    0.199340
    75  H    0.151594
 Sum of Mulliken charges =  -0.00000
 Mulliken charges with hydrogens summed into heavy atoms:
               1
     1  C    0.034689
     2  C   -0.023356
     3  C    0.112974
     4  C    0.076057
     5  C    0.006514
     6  C    0.042342
     7  C    0.049171
     8  C    0.058362
     9  C    0.113749
    10  C   -0.047289
    11  N    0.495680
    12  O   -0.362594
    13  O   -0.360596
    14  C    0.199576
    15  C   -0.008322
    16  N    0.421035
    17  O   -0.336308
    18  O   -0.309074
    19  N   -0.093902
    20  C    0.124784
    21  C    0.151214
    22  C   -0.270608
    23  C    0.007207
    24  C    0.164560
    25  C   -0.026804
    26  N    0.494017
    27  O   -0.365516
    28  O   -0.365435
    29  C    0.155457
    30  C    0.025380
    31  C    0.115073
    32  C   -0.021317
    33  C    0.033204
    34  C    0.103861
    35  C    0.024805
    36  C    0.047721
    37  C    0.048614
    38  C    0.078315
    39  C   -0.040704
    40  N    0.472542
    41  O   -0.343982
    42  O   -0.350631
    43  C    0.231181
    44  C   -0.059106
    45  N    0.497020
    46  O   -0.363506
    47  O   -0.360600
    48  C    0.108948
    49  C    0.044508
    50  N   -0.082409
    51  B    0.330013
    52  F   -0.353034
    53  F   -0.323480
 Electronic spatial extent (au):  <R**2>=          51728.6924
 Charge=             -0.0000 electrons
 Dipole moment (field-independent basis, Debye):
    X=             10.9220    Y=             -8.7399    Z=             -0.9791  Tot=             14.0226
 Quadrupole moment (field-independent basis, Debye-Ang):
   XX=           -435.5510   YY=           -316.6036   ZZ=           -304.5588
   XY=             -1.0136   XZ=             -2.4911   YZ=              9.7815
 Traceless Quadrupole moment (field-independent basis, Debye-Ang):
   XX=            -83.3132   YY=             35.6342   ZZ=             47.6790
   XY=             -1.0136   XZ=             -2.4911   YZ=              9.7815
 Octapole moment (field-independent basis, Debye-Ang**2):
  XXX=           -168.6554  YYY=           -583.1684  ZZZ=             -1.9234  XYY=            479.5370
  XXY=             33.2394  XXZ=            -23.8778  XZZ=              1.4046  YZZ=              9.6838
  YYZ=             55.5856  XYZ=             41.4004
 Hexadecapole moment (field-independent basis, Debye-Ang**3):
 XXXX=         -56441.2310 YYYY=         -32065.5841 ZZZZ=          -1025.6670 XXXY=           -158.3121
 XXXZ=           -331.2182 YYYX=            -30.0755 YYYZ=            283.8558 ZZZX=              8.5290
 ZZZY=             -0.6361 XXYY=         -14707.7446 XXZZ=          -6437.3958 YYZZ=          -5039.1243
 XXYZ=           -408.0627 YYXZ=           -157.7760 ZZXY=            -32.9063
 N-N= 6.519244086402D+03 E-N=-1.918179321065D+04  KE= 2.617123227685D+03
 No NMR shielding tensors so no spin-rotation constants.
 Leave Link  601 at Sat Oct 25 02:38:30 2025, MaxMem= 30870077440 cpu:             129.8 elap:               2.5
 (Enter /public/software/gauss/g16/l9999.exe)
 1\1\GINC-CU056\SP\RM062X\def2TZVPP\C33H22B1F2N7O10\BAIDING\25-Oct-2025
 \0\\#p M062X/DEF2TZVPP scrf=(solvent=water) em=GD3\\Energy calculation
  for BNP_24NO2_24NO2\\0,1\C,0,-4.73784,3.288722,-0.118953\C,0,-3.32598
 3,2.790443,-0.12349\C,0,-2.208112,3.604966,-0.157042\C,0,-1.053512,2.7
 84077,-0.164284\C,0,0.336825,3.160748,-0.178116\C,0,0.768709,4.426699,
 0.029593\C,0,2.152717,4.887166,0.007917\C,0,2.372019,6.225349,-0.38691
 3\C,0,3.640671,6.760464,-0.542035\C,0,4.745311,5.944198,-0.297029\N,0,
 6.088263,6.480896,-0.463999\O,0,7.049847,5.737108,-0.244232\O,0,6.2053
 44,7.657564,-0.82054\C,0,4.599238,4.626667,0.122387\C,0,3.316141,4.128
 494,0.294371\N,0,3.258407,2.779435,0.879719\O,0,4.069523,1.946645,0.46
 9807\O,0,2.441728,2.561848,1.774125\N,0,-1.443005,1.478853,-0.145184\C
 ,0,-2.834552,1.435518,-0.107187\C,0,-3.505182,0.201273,-0.059724\C,0,-
 4.99801,0.174404,-0.004569\C,0,-5.749345,0.188506,-1.188602\C,0,-7.138
 972,0.15971,-1.140204\C,0,-7.761428,0.118381,0.107045\N,0,-9.221219,0.
 087371,0.165427\O,0,-9.852314,0.099501,-0.896064\O,0,-9.765212,0.05016
 5,1.273576\C,0,-7.039723,0.105493,1.300265\C,0,-5.650756,0.133046,1.23
 6538\C,0,-2.790686,-1.010285,-0.059952\C,0,-3.238914,-2.379823,-0.0623
 45\C,0,-4.633784,-2.92421,-0.063797\C,0,-2.095845,-3.158323,-0.08159\C
 ,0,-0.966411,-2.302417,-0.092873\C,0,0.431637,-2.645848,-0.120083\C,0,
 0.88838,-3.917374,0.001676\C,0,2.301284,-4.272587,0.01671\C,0,2.78588,
 -5.581517,-0.247138\N,0,1.90162,-6.654687,-0.706791\O,0,0.877767,-6.35
 5309,-1.327512\O,0,2.237262,-7.819379,-0.474549\C,0,4.126587,-5.928057
 ,-0.132007\C,0,5.032312,-4.940579,0.225871\N,0,6.441997,-5.287191,0.33
 2806\O,0,6.780546,-6.452439,0.100815\O,0,7.237686,-4.397925,0.651864\C
 ,0,4.621247,-3.629862,0.485072\C,0,3.276756,-3.319429,0.39223\N,0,-1.3
 9826,-1.009307,-0.086223\B,0,-0.509332,0.254824,0.055263\F,0,0.493589,
 0.247988,-0.926121\F,0,0.08446,0.301035,1.320425\H,0,-5.288771,2.96091
 2,-1.005692\H,0,-5.293455,2.934495,0.754363\H,0,-4.738644,4.3813,-0.10
 3487\H,0,-2.209643,4.685434,-0.193659\H,0,1.03894,2.361208,-0.377324\H
 ,0,0.039036,5.221358,0.162094\H,0,1.50696,6.84327,-0.600924\H,0,3.7768
 75,7.787447,-0.855152\H,0,5.463024,4.014528,0.343287\H,0,-5.245431,0.2
 20407,-2.148229\H,0,-7.730015,0.168635,-2.046803\H,0,-7.554458,0.07420
 3,2.251743\H,0,-5.070376,0.122748,2.152454\H,0,-5.204286,-2.583716,-0.
 93304\H,0,-4.598281,-4.01609,-0.086507\H,0,-5.192019,-2.62045,0.826767
 \H,0,-2.064981,-4.23857,-0.107504\H,0,1.124207,-1.827273,-0.276498\H,0
 ,0.176743,-4.727525,0.097759\H,0,4.453971,-6.936935,-0.339727\H,0,5.34
 44,-2.877914,0.772929\H,0,2.958418,-2.316707,0.649039\\Version=ES64L-G
 16RevA.03\State=1-A\HF=-2630.5341993\RMSD=5.607e-09\Dipole=-4.297044,3
 .4385454,-0.3852154\Quadrupole=-61.9413161,26.4931601,35.448156,-0.753
 6212,1.852055,-7.2723304\PG=C01 [X(C33H22B1F2N7O10)]\\@


 THEREFORE SHALL EVIL COME UPON THEE...
 THOU SHALT NOT KNOW FROM WHENCE IT RISETH...
 AND MISCHIEF SHALL FALL UPON THEE...
 THOU SHALT NOT BE ABLE TO PUT IT OFF...
 AND DESOLATION SHALL COME UPON THEE SUDDENLY...
 WHICH THOU SHALT NOT KNOW...

                                         ISAIAH 47.11
 Job cpu time:       0 days 18 hours 36 minutes 37.4 seconds.
 Elapsed time:       0 days  0 hours 17 minutes 45.9 seconds.
 File lengths (MBytes):  RWF=   2528 Int=      0 D2E=      0 Chk=    222 Scr=      1
 Normal termination of Gaussian 16 at Sat Oct 25 02:38:31 2025.
