 Entering Gaussian System, Link 0=g16
 Input=BNP_N3_N3_reduced_sp.gjf
 Output=BNP_N3_N3_reduced_sp.log
 Initial command:
 /public/software/gauss/g16/l1.exe "/public/home/baiding/1028_sp/tmp_BNP_N3_N3_reduced_sp_1538822/Gau-44477.inp" -scrdir="/public/home/baiding/1028_sp/tmp_BNP_N3_N3_reduced_sp_1538822/"
 Entering Link 1 = /public/software/gauss/g16/l1.exe PID=     44478.
  
 Copyright (c) 1988,1990,1992,1993,1995,1998,2003,2009,2016,
            Gaussian, Inc.  All Rights Reserved.
  
 This is part of the Gaussian(R) 16 program.  It is based on
 the Gaussian(R) 09 system (copyright 2009, Gaussian, Inc.),
 the Gaussian(R) 03 system (copyright 2003, Gaussian, Inc.),
 the Gaussian(R) 98 system (copyright 1998, Gaussian, Inc.),
 the Gaussian(R) 94 system (copyright 1995, Gaussian, Inc.),
 the Gaussian 92(TM) system (copyright 1992, Gaussian, Inc.),
 the Gaussian 90(TM) system (copyright 1990, Gaussian, Inc.),
 the Gaussian 88(TM) system (copyright 1988, Gaussian, Inc.),
 the Gaussian 86(TM) system (copyright 1986, Carnegie Mellon
 University), and the Gaussian 82(TM) system (copyright 1983,
 Carnegie Mellon University). Gaussian is a federally registered
 trademark of Gaussian, Inc.
  
 This software contains proprietary and confidential information,
 including trade secrets, belonging to Gaussian, Inc.
  
 This software is provided under written license and may be
 used, copied, transmitted, or stored only in accord with that
 written license.
  
 The following legend is applicable only to US Government
 contracts under FAR:
  
                    RESTRICTED RIGHTS LEGEND
  
 Use, reproduction and disclosure by the US Government is
 subject to restrictions as set forth in subparagraphs (a)
 and (c) of the Commercial Computer Software - Restricted
 Rights clause in FAR 52.227-19.
  
 Gaussian, Inc.
 340 Quinnipiac St., Bldg. 40, Wallingford CT 06492
  
  
 ---------------------------------------------------------------
 Warning -- This program may not be used in any manner that
 competes with the business of Gaussian, Inc. or will provide
 assistance to any competitor of Gaussian, Inc.  The licensee
 of this program is prohibited from giving any competitor of
 Gaussian, Inc. access to this program.  By using this program,
 the user acknowledges that Gaussian, Inc. is engaged in the
 business of creating and licensing software in the field of
 computational chemistry and represents and warrants to the
 licensee that it is not a competitor of Gaussian, Inc. and that
 it will not use this program in any manner prohibited above.
 ---------------------------------------------------------------
  

 Cite this work as:
 Gaussian 16, Revision A.03,
 M. J. Frisch, G. W. Trucks, H. B. Schlegel, G. E. Scuseria, 
 M. A. Robb, J. R. Cheeseman, G. Scalmani, V. Barone, 
 G. A. Petersson, H. Nakatsuji, X. Li, M. Caricato, A. V. Marenich, 
 J. Bloino, B. G. Janesko, R. Gomperts, B. Mennucci, H. P. Hratchian, 
 J. V. Ortiz, A. F. Izmaylov, J. L. Sonnenberg, D. Williams-Young, 
 F. Ding, F. Lipparini, F. Egidi, J. Goings, B. Peng, A. Petrone, 
 T. Henderson, D. Ranasinghe, V. G. Zakrzewski, J. Gao, N. Rega, 
 G. Zheng, W. Liang, M. Hada, M. Ehara, K. Toyota, R. Fukuda, 
 J. Hasegawa, M. Ishida, T. Nakajima, Y. Honda, O. Kitao, H. Nakai, 
 T. Vreven, K. Throssell, J. A. Montgomery, Jr., J. E. Peralta, 
 F. Ogliaro, M. J. Bearpark, J. J. Heyd, E. N. Brothers, K. N. Kudin, 
 V. N. Staroverov, T. A. Keith, R. Kobayashi, J. Normand, 
 K. Raghavachari, A. P. Rendell, J. C. Burant, S. S. Iyengar, 
 J. Tomasi, M. Cossi, J. M. Millam, M. Klene, C. Adamo, R. Cammi, 
 J. W. Ochterski, R. L. Martin, K. Morokuma, O. Farkas, 
 J. B. Foresman, and D. J. Fox, Gaussian, Inc., Wallingford CT, 2016.
 
 ******************************************
 Gaussian 16:  ES64L-G16RevA.03 25-Dec-2016
                28-Oct-2025 
 ******************************************
 %nprocshared=64
 Will use up to   64 processors via shared memory.
 %mem=230GB
 %chk=BNP_N3_N3_reduced_sp.chk
 ----------------------------------------------
 #p M062X/DEF2TZVPP scrf=(solvent=water) em=GD3
 ----------------------------------------------
 1/38=1,172=1/1;
 2/12=2,17=6,18=5,40=1/2;
 3/5=44,7=202,11=2,25=1,30=1,70=2201,72=1,74=-55,124=31/1,2,3;
 4//1;
 5/5=2,38=5,53=1/2;
 6/7=2,8=2,9=2,10=2,28=1/1;
 99/5=1,9=1/99;
 Leave Link    1 at Tue Oct 28 18:34:08 2025, MaxMem= 30870077440 cpu:              11.2 elap:               0.2
 (Enter /public/software/gauss/g16/l101.exe)
 ----------------------------------------
 Energy calculation for BNP_N3_N3_reduced
 ----------------------------------------
 Symbolic Z-matrix:
 Charge = -1 Multiplicity = 2
 C                     4.45515   2.98951  -0.43143 
 C                     3.04619   2.52867  -0.19936 
 C                     1.95351   3.39062  -0.18739 
 C                     0.77596   2.63146  -0.04242 
 C                    -0.59319   3.07488   0.01387 
 C                    -0.98818   4.36041  -0.17523 
 C                    -2.35223   4.86833  -0.10345 
 C                    -3.47537   4.06176   0.18637 
 C                    -4.75421   4.59608   0.24485 
 C                    -4.95193   5.96666   0.01471 
 N                    -6.22154   6.60223   0.05687 
 N                    -7.2192    5.92053   0.3193 
 N                    -8.21791   5.41729   0.54722 
 C                    -3.85697   6.78785  -0.27609 
 C                    -2.58125   6.24154  -0.3328 
 N                     1.12968   1.30541   0.0529 
 C                     2.52003   1.20598  -0.02077 
 C                     3.15156  -0.0668    0.02323 
 C                     4.61707  -0.17054   0.02555 
 C                     5.29633  -0.90134  -0.97795 
 C                     6.675    -0.99816  -0.99209 
 C                     7.42627  -0.38267   0.03159 
 N                     8.82993  -0.48548   0.03287 
 O                     9.49973   0.08241   0.9535 
 O                     9.41119  -1.14457  -0.88697 
 C                     6.77105   0.33541   1.05441 
 C                     5.39369   0.44615   1.03489 
 C                     2.36062  -1.247     0.07841 
 C                     2.71326  -2.61335   0.33972 
 C                     4.04684  -3.22326   0.65737 
 C                     1.52274  -3.3322    0.34053 
 C                     0.45192  -2.44212   0.11901 
 C                    -0.95999  -2.72379   0.05973 
 C                    -1.48353  -3.97686   0.06329 
 C                    -2.89735  -4.32752   0.0169 
 C                    -3.94126  -3.37772  -0.04721 
 C                    -5.27022  -3.77144  -0.09064 
 C                    -5.60295  -5.13349  -0.07052 
 N                    -6.98959  -5.43895  -0.11743 
 N                    -7.33599  -6.62578  -0.10142 
 N                    -7.79337  -7.67135  -0.09324 
 C                    -4.58851  -6.0972   -0.00698 
 C                    -3.26047  -5.69085   0.035 
 N                     0.97208  -1.17811  -0.02242 
 B                     0.16683   0.12442  -0.21013 
 F                    -0.35659   0.20642  -1.51407 
 F                    -0.9088    0.16099   0.70292 
 H                     5.05207   3.01837   0.48595 
 H                     4.9859    2.34278  -1.1358 
 H                     4.43914   4.00214  -0.84502 
 H                     2.00079   4.46736  -0.28071 
 H                    -1.32971   2.31168   0.2388 
 H                    -0.23513   5.11213  -0.40428 
 H                    -3.35046   2.9997    0.36985 
 H                    -5.59735   3.94998   0.46946 
 H                    -4.01611   7.84623  -0.45389 
 H                    -1.73711   6.88674  -0.55896 
 H                     4.72205  -1.37013  -1.77042 
 H                     7.18626  -1.53166  -1.78292 
 H                     7.35255   0.78391   1.8494 
 H                     4.89301   0.98969   1.82929 
 H                     4.62446  -2.60586   1.35124 
 H                     3.89542  -4.20351   1.11883 
 H                     4.67017  -3.36961  -0.23093 
 H                     1.42821  -4.39358   0.5266 
 H                    -1.62026  -1.86527   0.01863 
 H                    -0.80505  -4.82702   0.10197 
 H                    -3.71304  -2.31723  -0.0643 
 H                    -6.06376  -3.03307  -0.14037 
 H                    -4.83171  -7.15526   0.00947 
 H                    -2.47942  -6.44441   0.08387 
 
 ITRead=  0  0  0  0  0  0  0  0  0  0  0  0  0  0  0  0  0  0  0  0
 ITRead=  0  0  0  0  0  0  0  0  0  0  0  0  0  0  0  0  0  0  0  0
 ITRead=  0  0  0  0  0  0  0  0  0  0  0  0  0  0  0  0  0  0  0  0
 ITRead=  0  0  0  0  0  0  0  0  0  0  0
 MicOpt= -1 -1 -1 -1 -1 -1 -1 -1 -1 -1 -1 -1 -1 -1 -1 -1 -1 -1 -1 -1
 MicOpt= -1 -1 -1 -1 -1 -1 -1 -1 -1 -1 -1 -1 -1 -1 -1 -1 -1 -1 -1 -1
 MicOpt= -1 -1 -1 -1 -1 -1 -1 -1 -1 -1 -1 -1 -1 -1 -1 -1 -1 -1 -1 -1
 MicOpt= -1 -1 -1 -1 -1 -1 -1 -1 -1 -1 -1
 NAtoms=     71 NQM=       71 NQMF=       0 NMMI=      0 NMMIF=      0
                NMic=       0 NMicF=      0.
                    Isotopes and Nuclear Properties:
 (Nuclear quadrupole moments (NQMom) in fm**2, nuclear magnetic moments (NMagM)
  in nuclear magnetons)

  Atom         1           2           3           4           5           6           7           8           9          10
 IAtWgt=          12          12          12          12          12          12          12          12          12          12
 AtmWgt=  12.0000000  12.0000000  12.0000000  12.0000000  12.0000000  12.0000000  12.0000000  12.0000000  12.0000000  12.0000000
 NucSpn=           0           0           0           0           0           0           0           0           0           0
 AtZEff=  -0.0000000  -0.0000000  -0.0000000  -0.0000000  -0.0000000  -0.0000000  -0.0000000  -0.0000000  -0.0000000  -0.0000000
 NQMom=    0.0000000   0.0000000   0.0000000   0.0000000   0.0000000   0.0000000   0.0000000   0.0000000   0.0000000   0.0000000
 NMagM=    0.0000000   0.0000000   0.0000000   0.0000000   0.0000000   0.0000000   0.0000000   0.0000000   0.0000000   0.0000000
 AtZNuc=   6.0000000   6.0000000   6.0000000   6.0000000   6.0000000   6.0000000   6.0000000   6.0000000   6.0000000   6.0000000

  Atom        11          12          13          14          15          16          17          18          19          20
 IAtWgt=          14          14          14          12          12          14          12          12          12          12
 AtmWgt=  14.0030740  14.0030740  14.0030740  12.0000000  12.0000000  14.0030740  12.0000000  12.0000000  12.0000000  12.0000000
 NucSpn=           2           2           2           0           0           2           0           0           0           0
 AtZEff=  -0.0000000  -0.0000000  -0.0000000  -0.0000000  -0.0000000  -0.0000000  -0.0000000  -0.0000000  -0.0000000  -0.0000000
 NQMom=    2.0440000   2.0440000   2.0440000   0.0000000   0.0000000   2.0440000   0.0000000   0.0000000   0.0000000   0.0000000
 NMagM=    0.4037610   0.4037610   0.4037610   0.0000000   0.0000000   0.4037610   0.0000000   0.0000000   0.0000000   0.0000000
 AtZNuc=   7.0000000   7.0000000   7.0000000   6.0000000   6.0000000   7.0000000   6.0000000   6.0000000   6.0000000   6.0000000

  Atom        21          22          23          24          25          26          27          28          29          30
 IAtWgt=          12          12          14          16          16          12          12          12          12          12
 AtmWgt=  12.0000000  12.0000000  14.0030740  15.9949146  15.9949146  12.0000000  12.0000000  12.0000000  12.0000000  12.0000000
 NucSpn=           0           0           2           0           0           0           0           0           0           0
 AtZEff=  -0.0000000  -0.0000000  -0.0000000  -0.0000000  -0.0000000  -0.0000000  -0.0000000  -0.0000000  -0.0000000  -0.0000000
 NQMom=    0.0000000   0.0000000   2.0440000   0.0000000   0.0000000   0.0000000   0.0000000   0.0000000   0.0000000   0.0000000
 NMagM=    0.0000000   0.0000000   0.4037610   0.0000000   0.0000000   0.0000000   0.0000000   0.0000000   0.0000000   0.0000000
 AtZNuc=   6.0000000   6.0000000   7.0000000   8.0000000   8.0000000   6.0000000   6.0000000   6.0000000   6.0000000   6.0000000

  Atom        31          32          33          34          35          36          37          38          39          40
 IAtWgt=          12          12          12          12          12          12          12          12          14          14
 AtmWgt=  12.0000000  12.0000000  12.0000000  12.0000000  12.0000000  12.0000000  12.0000000  12.0000000  14.0030740  14.0030740
 NucSpn=           0           0           0           0           0           0           0           0           2           2
 AtZEff=  -0.0000000  -0.0000000  -0.0000000  -0.0000000  -0.0000000  -0.0000000  -0.0000000  -0.0000000  -0.0000000  -0.0000000
 NQMom=    0.0000000   0.0000000   0.0000000   0.0000000   0.0000000   0.0000000   0.0000000   0.0000000   2.0440000   2.0440000
 NMagM=    0.0000000   0.0000000   0.0000000   0.0000000   0.0000000   0.0000000   0.0000000   0.0000000   0.4037610   0.4037610
 AtZNuc=   6.0000000   6.0000000   6.0000000   6.0000000   6.0000000   6.0000000   6.0000000   6.0000000   7.0000000   7.0000000

  Atom        41          42          43          44          45          46          47          48          49          50
 IAtWgt=          14          12          12          14          11          19          19           1           1           1
 AtmWgt=  14.0030740  12.0000000  12.0000000  14.0030740  11.0093053  18.9984033  18.9984033   1.0078250   1.0078250   1.0078250
 NucSpn=           2           0           0           2           3           1           1           1           1           1
 AtZEff=  -0.0000000  -0.0000000  -0.0000000  -0.0000000  -0.0000000  -0.0000000  -0.0000000  -0.0000000  -0.0000000  -0.0000000
 NQMom=    2.0440000   0.0000000   0.0000000   2.0440000   4.0590000   0.0000000   0.0000000   0.0000000   0.0000000   0.0000000
 NMagM=    0.4037610   0.0000000   0.0000000   0.4037610   2.6886370   2.6288670   2.6288670   2.7928460   2.7928460   2.7928460
 AtZNuc=   7.0000000   6.0000000   6.0000000   7.0000000   5.0000000   9.0000000   9.0000000   1.0000000   1.0000000   1.0000000

  Atom        51          52          53          54          55          56          57          58          59          60
 IAtWgt=           1           1           1           1           1           1           1           1           1           1
 AtmWgt=   1.0078250   1.0078250   1.0078250   1.0078250   1.0078250   1.0078250   1.0078250   1.0078250   1.0078250   1.0078250
 NucSpn=           1           1           1           1           1           1           1           1           1           1
 AtZEff=  -0.0000000  -0.0000000  -0.0000000  -0.0000000  -0.0000000  -0.0000000  -0.0000000  -0.0000000  -0.0000000  -0.0000000
 NQMom=    0.0000000   0.0000000   0.0000000   0.0000000   0.0000000   0.0000000   0.0000000   0.0000000   0.0000000   0.0000000
 NMagM=    2.7928460   2.7928460   2.7928460   2.7928460   2.7928460   2.7928460   2.7928460   2.7928460   2.7928460   2.7928460
 AtZNuc=   1.0000000   1.0000000   1.0000000   1.0000000   1.0000000   1.0000000   1.0000000   1.0000000   1.0000000   1.0000000

  Atom        61          62          63          64          65          66          67          68          69          70
 IAtWgt=           1           1           1           1           1           1           1           1           1           1
 AtmWgt=   1.0078250   1.0078250   1.0078250   1.0078250   1.0078250   1.0078250   1.0078250   1.0078250   1.0078250   1.0078250
 NucSpn=           1           1           1           1           1           1           1           1           1           1
 AtZEff=  -0.0000000  -0.0000000  -0.0000000  -0.0000000  -0.0000000  -0.0000000  -0.0000000  -0.0000000  -0.0000000  -0.0000000
 NQMom=    0.0000000   0.0000000   0.0000000   0.0000000   0.0000000   0.0000000   0.0000000   0.0000000   0.0000000   0.0000000
 NMagM=    2.7928460   2.7928460   2.7928460   2.7928460   2.7928460   2.7928460   2.7928460   2.7928460   2.7928460   2.7928460
 AtZNuc=   1.0000000   1.0000000   1.0000000   1.0000000   1.0000000   1.0000000   1.0000000   1.0000000   1.0000000   1.0000000

  Atom        71
 IAtWgt=           1
 AtmWgt=   1.0078250
 NucSpn=           1
 AtZEff=  -0.0000000
 NQMom=    0.0000000
 NMagM=    2.7928460
 AtZNuc=   1.0000000
 Leave Link  101 at Tue Oct 28 18:34:09 2025, MaxMem= 30870077440 cpu:               4.0 elap:               0.1
 (Enter /public/software/gauss/g16/l202.exe)
 Stoichiometry    C33H24BF2N9O2(1-,2)
 Framework group  C1[X(C33H24BF2N9O2)]
 Deg. of freedom   207
 Full point group                 C1      NOp   1
 Largest Abelian subgroup         C1      NOp   1
 Largest concise Abelian subgroup C1      NOp   1
                         Standard orientation:                         
 ---------------------------------------------------------------------
 Center     Atomic      Atomic             Coordinates (Angstroms)
 Number     Number       Type             X           Y           Z
 ---------------------------------------------------------------------
      1          6           0       -4.455152    2.989505    0.431428
      2          6           0       -3.046193    2.528665    0.199360
      3          6           0       -1.953507    3.390622    0.187389
      4          6           0       -0.775958    2.631459    0.042416
      5          6           0        0.593194    3.074880   -0.013871
      6          6           0        0.988178    4.360411    0.175226
      7          6           0        2.352225    4.868329    0.103452
      8          6           0        3.475366    4.061759   -0.186371
      9          6           0        4.754209    4.596077   -0.244846
     10          6           0        4.951925    5.966661   -0.014708
     11          7           0        6.221538    6.602229   -0.056871
     12          7           0        7.219197    5.920526   -0.319300
     13          7           0        8.217911    5.417285   -0.547219
     14          6           0        3.856968    6.787848    0.276086
     15          6           0        2.581246    6.241540    0.332803
     16          7           0       -1.129678    1.305406   -0.052897
     17          6           0       -2.520031    1.205978    0.020768
     18          6           0       -3.151555   -0.066797   -0.023227
     19          6           0       -4.617067   -0.170543   -0.025548
     20          6           0       -5.296327   -0.901335    0.977948
     21          6           0       -6.674996   -0.998159    0.992092
     22          6           0       -7.426272   -0.382671   -0.031594
     23          7           0       -8.829926   -0.485478   -0.032869
     24          8           0       -9.499730    0.082414   -0.953500
     25          8           0       -9.411186   -1.144573    0.886970
     26          6           0       -6.771046    0.335409   -1.054410
     27          6           0       -5.393691    0.446154   -1.034889
     28          6           0       -2.360615   -1.247003   -0.078411
     29          6           0       -2.713258   -2.613349   -0.339721
     30          6           0       -4.046839   -3.223262   -0.657366
     31          6           0       -1.522735   -3.332195   -0.340525
     32          6           0       -0.451924   -2.442122   -0.119008
     33          6           0        0.959985   -2.723793   -0.059733
     34          6           0        1.483528   -3.976857   -0.063289
     35          6           0        2.897348   -4.327519   -0.016899
     36          6           0        3.941258   -3.377716    0.047214
     37          6           0        5.270224   -3.771443    0.090641
     38          6           0        5.602953   -5.133493    0.070519
     39          7           0        6.989590   -5.438947    0.117433
     40          7           0        7.335989   -6.625780    0.101423
     41          7           0        7.793366   -7.671348    0.093243
     42          6           0        4.588508   -6.097196    0.006984
     43          6           0        3.260470   -5.690847   -0.034997
     44          7           0       -0.972083   -1.178111    0.022421
     45          5           0       -0.166832    0.124419    0.210130
     46          9           0        0.356592    0.206417    1.514068
     47          9           0        0.908802    0.160988   -0.702921
     48          1           0       -5.052066    3.018366   -0.485952
     49          1           0       -4.985895    2.342783    1.135796
     50          1           0       -4.439142    4.002144    0.845023
     51          1           0       -2.000792    4.467361    0.280706
     52          1           0        1.329705    2.311675   -0.238799
     53          1           0        0.235133    5.112129    0.404283
     54          1           0        3.350457    2.999701   -0.369846
     55          1           0        5.597346    3.949976   -0.469457
     56          1           0        4.016114    7.846229    0.453887
     57          1           0        1.737106    6.886738    0.558955
     58          1           0       -4.722052   -1.370128    1.770418
     59          1           0       -7.186263   -1.531661    1.782923
     60          1           0       -7.352545    0.783910   -1.849404
     61          1           0       -4.893005    0.989688   -1.829288
     62          1           0       -4.624455   -2.605861   -1.351242
     63          1           0       -3.895421   -4.203507   -1.118829
     64          1           0       -4.670171   -3.369613    0.230931
     65          1           0       -1.428213   -4.393584   -0.526604
     66          1           0        1.620255   -1.865274   -0.018625
     67          1           0        0.805052   -4.827017   -0.101971
     68          1           0        3.713043   -2.317228    0.064299
     69          1           0        6.063762   -3.033072    0.140373
     70          1           0        4.831709   -7.155264   -0.009465
     71          1           0        2.479419   -6.444414   -0.083869
 ---------------------------------------------------------------------
 Rotational constants (GHZ):           0.0538354           0.0331413           0.0208035
 Leave Link  202 at Tue Oct 28 18:34:09 2025, MaxMem= 30870077440 cpu:               0.2 elap:               0.0
 (Enter /public/software/gauss/g16/l301.exe)
 Standard basis: def2TZVPP (5D, 7F)
 Ernie: Thresh=  0.10000D-02 Tol=  0.10000D-05 Strict=F.
 There are  2052 symmetry adapted cartesian basis functions of A   symmetry.
 There are  1793 symmetry adapted basis functions of A   symmetry.
  1793 basis functions,  2805 primitive gaussians,  2052 cartesian basis functions
   163 alpha electrons      162 beta electrons
       nuclear repulsion energy      5057.2547490904 Hartrees.
 IExCor= 4336 DFT=T Ex+Corr=M062X ExCW=0 ScaHFX=  0.540000
 ScaDFX=  1.000000  1.000000  1.000000  1.000000 ScalE2=  1.000000  1.000000
 IRadAn=      5 IRanWt=     -1 IRanGd=            0 ICorTp=0 IEmpDi=131
 NAtoms=   71 NActive=   71 NUniq=   71 SFac= 1.00D+00 NAtFMM=   60 NAOKFM=T Big=T
 Integral buffers will be    131072 words long.
 Raffenetti 2 integral format.
 Two-electron integral symmetry is turned on.
 R6Disp:  Grimme-D3 Dispersion energy=       -0.0057372079 Hartrees.
 Nuclear repulsion after empirical dispersion term =     5057.2490118825 Hartrees.
 ------------------------------------------------------------------------------
 Polarizable Continuum Model (PCM)
 =================================
 Model                : PCM.
 Atomic radii         : UFF (Universal Force Field).
 Polarization charges : Total charges.
 Charge compensation  : None.
 Solution method      : On-the-fly selection.
 Cavity type          : Scaled VdW (van der Waals Surface) (Alpha=1.100).
 Cavity algorithm     : GePol (No added spheres)
                        Default sphere list used, NSphG=   71.
                        Lebedev-Laikov grids with approx.  5.0 points / Ang**2.
                        Smoothing algorithm: York/Karplus (Gamma=1.0000).
                        Polarization charges: spherical gaussians, with
                                              point-specific exponents (IZeta= 3).
                        Self-potential: point-specific (ISelfS= 7).
                        Self-field    : sphere-specific E.n sum rule (ISelfD= 2).
 Solvent              : Water, Eps=  78.355300 Eps(inf)=   1.777849
 ------------------------------------------------------------------------------
 GePol: Number of generator spheres                  =      71
 GePol: Total number of spheres                      =      71
 GePol: Number of exposed spheres                    =      71 (100.00%)
 GePol: Number of points                             =    5497
 GePol: Average weight of points                     =       0.13
 GePol: Minimum weight of points                     =   0.22D-11
 GePol: Maximum weight of points                     =    0.20577
 GePol: Number of points with low weight             =     350
 GePol: Fraction of low-weight points (<1% of avg)   =       6.37%
 GePol: Cavity surface area                          =    697.903 Ang**2
 GePol: Cavity volume                                =    801.372 Ang**3
 Leave Link  301 at Tue Oct 28 18:34:09 2025, MaxMem= 30870077440 cpu:               3.6 elap:               0.1
 (Enter /public/software/gauss/g16/l302.exe)
 NPDir=0 NMtPBC=     1 NCelOv=     1 NCel=       1 NClECP=     1 NCelD=      1
         NCelK=      1 NCelE2=     1 NClLst=     1 CellRange=     0.0.
 One-electron integrals computed using PRISM.
 One-electron integral symmetry used in STVInt
   1 Symmetry operations used in ECPInt.
 ECPInt:  NShTT=  218791 NPrTT=  642384 LenC2=  133614 LenP2D=  260237.
 LDataN:  DoStor=T MaxTD1= 6 Len=  172
 NBasis=  1793 RedAO= T EigKep=  5.36D-06  NBF=  1793
 NBsUse=  1793 1.00D-06 EigRej= -1.00D+00 NBFU=  1793
 Precomputing XC quadrature grid using
 IXCGrd= 4 IRadAn=           5 IRanWt=          -1 IRanGd=           0 AccXCQ= 0.00D+00.
 Generated NRdTot=       0 NPtTot=           0 NUsed=           0 NTot=          32
 NSgBfM=  1797  1797  1797  1797  1797 MxSgAt=    71 MxSgA2=    71.
 Leave Link  302 at Tue Oct 28 18:34:17 2025, MaxMem= 30870077440 cpu:             546.9 elap:               8.6
 (Enter /public/software/gauss/g16/l303.exe)
 DipDrv:  MaxL=1.
 Leave Link  303 at Tue Oct 28 18:34:18 2025, MaxMem= 30870077440 cpu:              25.6 elap:               0.5
 (Enter /public/software/gauss/g16/l401.exe)
 ExpMin= 6.06D-02 ExpMax= 3.55D+04 ExpMxC= 1.21D+03 IAcc=3 IRadAn=         5 AccDes= 0.00D+00
 Harris functional with IExCor= 1009 and IRadAn=       5 diagonalized for initial guess.
 HarFok:  IExCor= 1009 AccDes= 0.00D+00 IRadAn=         5 IDoV= 1 UseB2=F ITyADJ=14
 ICtDFT=  3500011 ScaDFX=  1.000000  1.000000  1.000000  1.000000
 FoFCou: FMM=F IPFlag=           0 FMFlag=      100000 FMFlg1=        2001
         NFxFlg=           0 DoJE=T BraDBF=F KetDBF=T FulRan=T
         wScrn=  0.000000 ICntrl=       500 IOpCl=  0 I1Cent=   200000004 NGrid=           0
         NMat0=    1 NMatS0=      1 NMatT0=    0 NMatD0=    1 NMtDS0=    0 NMtDT0=    0
 Petite list used in FoFCou.
 Harris En= -2138.76748225761    
 JPrj=0 DoOrth=F DoCkMO=F.
 Initial guess <Sx>= 0.0000 <Sy>= 0.0000 <Sz>= 0.5000 <S**2>= 0.7500 S= 0.5000
 Leave Link  401 at Tue Oct 28 18:34:28 2025, MaxMem= 30870077440 cpu:             626.4 elap:               9.9
 (Enter /public/software/gauss/g16/l502.exe)
 Integral symmetry usage will be decided dynamically.
 UHF open shell SCF:
 Using DIIS extrapolation, IDIIS=  1040.
 NGot= 30870077440 LenX= 30861507565 LenY= 30857294809
 Requested convergence on RMS density matrix=1.00D-08 within 128 cycles.
 Requested convergence on MAX density matrix=1.00D-06.
 Requested convergence on             energy=1.00D-06.
 No special actions if energy rises.
 Fock matrices will be formed incrementally for  20 cycles.

 Cycle   1  Pass 1  IDiag  1:
 FoFJK:  IHMeth= 1 ICntrl=       0 DoSepK=F KAlg= 0 I1Cent=           0 FoldK=F
 IRaf= 570000000 NMat=       1 IRICut=       1 DoRegI=T DoRafI=F ISym2E= 0 IDoP0=0 IntGTp=1.
 FoFCou: FMM=T IPFlag=           0 FMFlag=      100000 FMFlg1=        2001
         NFxFlg=           0 DoJE=F BraDBF=F KetDBF=F FulRan=T
         wScrn=  0.000000 ICntrl=         0 IOpCl=  1 I1Cent=           0 NGrid=           0
         NMat0=    1 NMatS0=      1 NMatT0=    0 NMatD0=    1 NMtDS0=    0 NMtDT0=    0
 Symmetry not used in FoFCou.
 FMM levels:  10  Number of levels for PrismC:   9
 Inv3:  Mode=1 IEnd=    90651027.
 Iteration    1 A*A^-1 deviation from unit magnitude is 1.13D-14 for   1667.
 Iteration    1 A*A^-1 deviation from orthogonality  is 3.63D-15 for   3739   2069.
 Iteration    1 A^-1*A deviation from unit magnitude is 9.33D-15 for   1667.
 Iteration    1 A^-1*A deviation from orthogonality  is 3.10D-12 for   2934   2854.
 E= -2138.64528482554    
 DIIS: error= 2.18D-02 at cycle   1 NSaved=   1.
 NSaved= 1 IEnMin= 1 EnMin= -2138.64528482554     IErMin= 1 ErrMin= 2.18D-02
 ErrMax= 2.18D-02  0.00D+00 EMaxC= 1.00D-01 BMatC= 5.93D+00 BMatP= 5.93D+00
 IDIUse=3 WtCom= 7.82D-01 WtEn= 2.18D-01
 Coeff-Com:  0.100D+01
 Coeff-En:   0.100D+01
 Coeff:      0.100D+01
 Gap=     0.041 Goal=   None    Shift=    0.000
 Gap=     0.163 Goal=   None    Shift=    0.000
 GapD=    0.041 DampG=0.250 DampE=0.500 DampFc=0.2500 IDamp=-1.
 Damping current iteration by 2.50D-01
 RMSDP=1.56D-03 MaxDP=2.96D-01              OVMax= 7.72D-01

 Cycle   2  Pass 1  IDiag  1:
 RMSU=  3.89D-04    CP:  9.94D-01
 E= -2139.04433850148     Delta-E=       -0.399053675932 Rises=F Damp=T
 DIIS: error= 1.18D-02 at cycle   2 NSaved=   2.
 NSaved= 2 IEnMin= 2 EnMin= -2139.04433850148     IErMin= 2 ErrMin= 1.18D-02
 ErrMax= 1.18D-02  0.00D+00 EMaxC= 1.00D-01 BMatC= 2.04D+00 BMatP= 5.93D+00
 IDIUse=3 WtCom= 8.82D-01 WtEn= 1.18D-01
 Coeff-Com: -0.106D+01 0.206D+01
 Coeff-En:   0.000D+00 0.100D+01
 Coeff:     -0.936D+00 0.194D+01
 Gap=     0.017 Goal=   None    Shift=    0.000
 Gap=     0.207 Goal=   None    Shift=    0.000
 RMSDP=9.88D-04 MaxDP=1.83D-01 DE=-3.99D-01 OVMax= 7.11D-01

 Cycle   3  Pass 1  IDiag  1:
 RMSU=  6.98D-04    CP:  9.88D-01  2.80D+00
 E= -2139.73947398752     Delta-E=       -0.695135486041 Rises=F Damp=F
 DIIS: error= 1.11D-02 at cycle   3 NSaved=   3.
 NSaved= 3 IEnMin= 3 EnMin= -2139.73947398752     IErMin= 3 ErrMin= 1.11D-02
 ErrMax= 1.11D-02  0.00D+00 EMaxC= 1.00D-01 BMatC= 3.50D-01 BMatP= 2.04D+00
 IDIUse=3 WtCom= 8.89D-01 WtEn= 1.11D-01
 Coeff-Com: -0.537D+00 0.924D+00 0.613D+00
 Coeff-En:   0.000D+00 0.000D+00 0.100D+01
 Coeff:     -0.478D+00 0.822D+00 0.656D+00
 Gap=     0.056 Goal=   None    Shift=    0.000
 Gap=     0.131 Goal=   None    Shift=    0.000
 RMSDP=3.06D-04 MaxDP=7.54D-02 DE=-6.95D-01 OVMax= 2.36D-01

 Cycle   4  Pass 1  IDiag  1:
 RMSU=  2.71D-04    CP:  9.78D-01  2.62D+00  8.27D-01
 E= -2139.79742776143     Delta-E=       -0.057953773914 Rises=F Damp=F
 DIIS: error= 4.68D-03 at cycle   4 NSaved=   4.
 NSaved= 4 IEnMin= 4 EnMin= -2139.79742776143     IErMin= 4 ErrMin= 4.68D-03
 ErrMax= 4.68D-03  0.00D+00 EMaxC= 1.00D-01 BMatC= 7.94D-02 BMatP= 3.50D-01
 IDIUse=3 WtCom= 9.53D-01 WtEn= 4.68D-02
 Coeff-Com: -0.115D+00 0.184D+00 0.345D+00 0.587D+00
 Coeff-En:   0.000D+00 0.000D+00 0.178D+00 0.822D+00
 Coeff:     -0.110D+00 0.175D+00 0.337D+00 0.598D+00
 Gap=     0.075 Goal=   None    Shift=    0.000
 Gap=     0.134 Goal=   None    Shift=    0.000
 RMSDP=1.25D-04 MaxDP=5.20D-02 DE=-5.80D-02 OVMax= 8.92D-02

 Cycle   5  Pass 1  IDiag  1:
 RMSU=  9.62D-05    CP:  9.80D-01  2.68D+00  8.81D-01  7.53D-01
 E= -2139.81375053183     Delta-E=       -0.016322770395 Rises=F Damp=F
 DIIS: error= 7.55D-04 at cycle   5 NSaved=   5.
 NSaved= 5 IEnMin= 5 EnMin= -2139.81375053183     IErMin= 5 ErrMin= 7.55D-04
 ErrMax= 7.55D-04  0.00D+00 EMaxC= 1.00D-01 BMatC= 7.38D-03 BMatP= 7.94D-02
 IDIUse=3 WtCom= 9.92D-01 WtEn= 7.55D-03
 Coeff-Com: -0.294D-01 0.420D-01 0.139D+00 0.328D+00 0.520D+00
 Coeff-En:   0.000D+00 0.000D+00 0.000D+00 0.000D+00 0.100D+01
 Coeff:     -0.291D-01 0.417D-01 0.138D+00 0.325D+00 0.524D+00
 Gap=     0.079 Goal=   None    Shift=    0.000
 Gap=     0.132 Goal=   None    Shift=    0.000
 RMSDP=4.44D-05 MaxDP=1.54D-02 DE=-1.63D-02 OVMax= 1.50D-02

 Cycle   6  Pass 1  IDiag  1:
 RMSU=  3.67D-05    CP:  9.79D-01  2.66D+00  8.66D-01  8.21D-01  9.02D-01
 E= -2139.81559921608     Delta-E=       -0.001848684255 Rises=F Damp=F
 DIIS: error= 2.95D-04 at cycle   6 NSaved=   6.
 NSaved= 6 IEnMin= 6 EnMin= -2139.81559921608     IErMin= 6 ErrMin= 2.95D-04
 ErrMax= 2.95D-04  0.00D+00 EMaxC= 1.00D-01 BMatC= 7.64D-04 BMatP= 7.38D-03
 IDIUse=3 WtCom= 9.97D-01 WtEn= 2.95D-03
 Coeff-Com: -0.118D-02-0.322D-03 0.213D-01 0.779D-01 0.265D+00 0.638D+00
 Coeff-En:   0.000D+00 0.000D+00 0.000D+00 0.000D+00 0.000D+00 0.100D+01
 Coeff:     -0.118D-02-0.321D-03 0.213D-01 0.777D-01 0.264D+00 0.639D+00
 Gap=     0.081 Goal=   None    Shift=    0.000
 Gap=     0.133 Goal=   None    Shift=    0.000
 RMSDP=2.31D-05 MaxDP=7.72D-03 DE=-1.85D-03 OVMax= 1.12D-02

 Cycle   7  Pass 1  IDiag  1:
 RMSU=  1.48D-05    CP:  9.80D-01  2.67D+00  8.71D-01  8.27D-01  1.06D+00
                    CP:  1.20D+00
 E= -2139.81587670849     Delta-E=       -0.000277492411 Rises=F Damp=F
 DIIS: error= 1.03D-04 at cycle   7 NSaved=   7.
 NSaved= 7 IEnMin= 7 EnMin= -2139.81587670849     IErMin= 7 ErrMin= 1.03D-04
 ErrMax= 1.03D-04  0.00D+00 EMaxC= 1.00D-01 BMatC= 1.46D-04 BMatP= 7.64D-04
 IDIUse=3 WtCom= 9.99D-01 WtEn= 1.03D-03
 Coeff-Com:  0.454D-02-0.724D-02-0.229D-01-0.398D-01 0.108D-01 0.300D+00
 Coeff-Com:  0.755D+00
 Coeff-En:   0.000D+00 0.000D+00 0.000D+00 0.000D+00 0.000D+00 0.000D+00
 Coeff-En:   0.100D+01
 Coeff:      0.454D-02-0.723D-02-0.229D-01-0.398D-01 0.108D-01 0.300D+00
 Coeff:      0.755D+00
 Gap=     0.083 Goal=   None    Shift=    0.000
 Gap=     0.134 Goal=   None    Shift=    0.000
 RMSDP=1.68D-05 MaxDP=6.23D-03 DE=-2.77D-04 OVMax= 9.60D-03

 Cycle   8  Pass 1  IDiag  1:
 RMSU=  8.53D-06    CP:  9.80D-01  2.67D+00  8.76D-01  8.35D-01  1.17D+00
                    CP:  1.38D+00  1.40D+00
 E= -2139.81596782053     Delta-E=       -0.000091112034 Rises=F Damp=F
 DIIS: error= 7.37D-05 at cycle   8 NSaved=   8.
 NSaved= 8 IEnMin= 8 EnMin= -2139.81596782053     IErMin= 8 ErrMin= 7.37D-05
 ErrMax= 7.37D-05  0.00D+00 EMaxC= 1.00D-01 BMatC= 4.76D-05 BMatP= 1.46D-04
 IDIUse=1 WtCom= 1.00D+00 WtEn= 0.00D+00
 Coeff-Com:  0.209D-02-0.294D-02-0.161D-01-0.359D-01-0.521D-01 0.238D-02
 Coeff-Com:  0.418D+00 0.684D+00
 Coeff:      0.209D-02-0.294D-02-0.161D-01-0.359D-01-0.521D-01 0.238D-02
 Coeff:      0.418D+00 0.684D+00
 Gap=     0.084 Goal=   None    Shift=    0.000
 Gap=     0.135 Goal=   None    Shift=    0.000
 RMSDP=8.74D-06 MaxDP=2.83D-03 DE=-9.11D-05 OVMax= 4.16D-03

 Cycle   9  Pass 1  IDiag  1:
 RMSU=  3.54D-06    CP:  9.80D-01  2.67D+00  8.77D-01  8.45D-01  1.21D+00
                    CP:  1.51D+00  1.68D+00  1.28D+00
 E= -2139.81599606777     Delta-E=       -0.000028247241 Rises=F Damp=F
 DIIS: error= 2.50D-05 at cycle   9 NSaved=   9.
 NSaved= 9 IEnMin= 9 EnMin= -2139.81599606777     IErMin= 9 ErrMin= 2.50D-05
 ErrMax= 2.50D-05  0.00D+00 EMaxC= 1.00D-01 BMatC= 9.40D-06 BMatP= 4.76D-05
 IDIUse=1 WtCom= 1.00D+00 WtEn= 0.00D+00
 Coeff-Com: -0.496D-03 0.928D-03-0.102D-02-0.478D-02-0.262D-01-0.824D-01
 Coeff-Com: -0.488D-02 0.306D+00 0.813D+00
 Coeff:     -0.496D-03 0.928D-03-0.102D-02-0.478D-02-0.262D-01-0.824D-01
 Coeff:     -0.488D-02 0.306D+00 0.813D+00
 Gap=     0.084 Goal=   None    Shift=    0.000
 Gap=     0.135 Goal=   None    Shift=    0.000
 RMSDP=5.79D-06 MaxDP=2.34D-03 DE=-2.82D-05 OVMax= 2.45D-03

 Cycle  10  Pass 1  IDiag  1:
 RMSU=  1.97D-06    CP:  9.80D-01  2.67D+00  8.78D-01  8.45D-01  1.24D+00
                    CP:  1.56D+00  1.86D+00  1.61D+00  1.35D+00
 E= -2139.81600382740     Delta-E=       -0.000007759633 Rises=F Damp=F
 DIIS: error= 1.55D-05 at cycle  10 NSaved=  10.
 NSaved=10 IEnMin=10 EnMin= -2139.81600382740     IErMin=10 ErrMin= 1.55D-05
 ErrMax= 1.55D-05  0.00D+00 EMaxC= 1.00D-01 BMatC= 2.09D-06 BMatP= 9.40D-06
 IDIUse=1 WtCom= 1.00D+00 WtEn= 0.00D+00
 Coeff-Com: -0.503D-03 0.753D-03 0.333D-02 0.698D-02 0.304D-02-0.307D-01
 Coeff-Com: -0.104D+00-0.564D-01 0.320D+00 0.858D+00
 Coeff:     -0.503D-03 0.753D-03 0.333D-02 0.698D-02 0.304D-02-0.307D-01
 Coeff:     -0.104D+00-0.564D-01 0.320D+00 0.858D+00
 Gap=     0.084 Goal=   None    Shift=    0.000
 Gap=     0.135 Goal=   None    Shift=    0.000
 RMSDP=2.78D-06 MaxDP=8.21D-04 DE=-7.76D-06 OVMax= 8.45D-04

 Cycle  11  Pass 1  IDiag  1:
 RMSU=  1.01D-06    CP:  9.80D-01  2.67D+00  8.79D-01  8.46D-01  1.24D+00
                    CP:  1.59D+00  1.94D+00  1.75D+00  1.65D+00  1.28D+00
 E= -2139.81600588698     Delta-E=       -0.000002059577 Rises=F Damp=F
 DIIS: error= 6.98D-06 at cycle  11 NSaved=  11.
 NSaved=11 IEnMin=11 EnMin= -2139.81600588698     IErMin=11 ErrMin= 6.98D-06
 ErrMax= 6.98D-06  0.00D+00 EMaxC= 1.00D-01 BMatC= 6.03D-07 BMatP= 2.09D-06
 IDIUse=1 WtCom= 1.00D+00 WtEn= 0.00D+00
 Coeff-Com: -0.159D-03 0.212D-03 0.169D-02 0.406D-02 0.711D-02 0.789D-02
 Coeff-Com: -0.407D-01-0.901D-01-0.530D-01 0.338D+00 0.825D+00
 Coeff:     -0.159D-03 0.212D-03 0.169D-02 0.406D-02 0.711D-02 0.789D-02
 Coeff:     -0.407D-01-0.901D-01-0.530D-01 0.338D+00 0.825D+00
 Gap=     0.084 Goal=   None    Shift=    0.000
 Gap=     0.135 Goal=   None    Shift=    0.000
 RMSDP=1.37D-06 MaxDP=5.48D-04 DE=-2.06D-06 OVMax= 4.82D-04

 Cycle  12  Pass 1  IDiag  1:
 RMSU=  4.94D-07    CP:  9.80D-01  2.67D+00  8.79D-01  8.46D-01  1.25D+00
                    CP:  1.60D+00  1.96D+00  1.84D+00  1.77D+00  1.62D+00
                    CP:  1.44D+00
 E= -2139.81600652817     Delta-E=       -0.000000641190 Rises=F Damp=F
 DIIS: error= 4.12D-06 at cycle  12 NSaved=  12.
 NSaved=12 IEnMin=12 EnMin= -2139.81600652817     IErMin=12 ErrMin= 4.12D-06
 ErrMax= 4.12D-06  0.00D+00 EMaxC= 1.00D-01 BMatC= 1.99D-07 BMatP= 6.03D-07
 IDIUse=1 WtCom= 1.00D+00 WtEn= 0.00D+00
 Coeff-Com:  0.177D-03-0.277D-03-0.730D-03-0.126D-02 0.957D-03 0.142D-01
 Coeff-Com:  0.215D-01-0.141D-01-0.123D+00-0.197D+00 0.324D+00 0.975D+00
 Coeff:      0.177D-03-0.277D-03-0.730D-03-0.126D-02 0.957D-03 0.142D-01
 Coeff:      0.215D-01-0.141D-01-0.123D+00-0.197D+00 0.324D+00 0.975D+00
 Gap=     0.084 Goal=   None    Shift=    0.000
 Gap=     0.135 Goal=   None    Shift=    0.000
 RMSDP=1.01D-06 MaxDP=3.30D-04 DE=-6.41D-07 OVMax= 4.98D-04

 Cycle  13  Pass 1  IDiag  1:
 RMSU=  3.02D-07    CP:  9.80D-01  2.67D+00  8.79D-01  8.46D-01  1.25D+00
                    CP:  1.60D+00  1.97D+00  1.87D+00  1.85D+00  1.83D+00
                    CP:  2.01D+00  1.76D+00
 E= -2139.81600686136     Delta-E=       -0.000000333188 Rises=F Damp=F
 DIIS: error= 2.55D-06 at cycle  13 NSaved=  13.
 NSaved=13 IEnMin=13 EnMin= -2139.81600686136     IErMin=13 ErrMin= 2.55D-06
 ErrMax= 2.55D-06  0.00D+00 EMaxC= 1.00D-01 BMatC= 5.75D-08 BMatP= 1.99D-07
 IDIUse=1 WtCom= 1.00D+00 WtEn= 0.00D+00
 Coeff-Com:  0.788D-04-0.120D-03-0.719D-03-0.143D-02-0.155D-02 0.296D-02
 Coeff-Com:  0.184D-01 0.171D-01-0.209D-01-0.179D+00-0.917D-01 0.283D+00
 Coeff-Com:  0.974D+00
 Coeff:      0.788D-04-0.120D-03-0.719D-03-0.143D-02-0.155D-02 0.296D-02
 Coeff:      0.184D-01 0.171D-01-0.209D-01-0.179D+00-0.917D-01 0.283D+00
 Coeff:      0.974D+00
 Gap=     0.084 Goal=   None    Shift=    0.000
 Gap=     0.135 Goal=   None    Shift=    0.000
 RMSDP=6.65D-07 MaxDP=2.22D-04 DE=-3.33D-07 OVMax= 5.34D-04

 Cycle  14  Pass 1  IDiag  1:
 RMSU=  1.79D-07    CP:  9.80D-01  2.67D+00  8.79D-01  8.46D-01  1.25D+00
                    CP:  1.61D+00  1.97D+00  1.89D+00  1.89D+00  1.94D+00
                    CP:  2.41D+00  2.33D+00  1.74D+00
 E= -2139.81600699763     Delta-E=       -0.000000136276 Rises=F Damp=F
 DIIS: error= 3.04D-06 at cycle  14 NSaved=  14.
 NSaved=14 IEnMin=14 EnMin= -2139.81600699763     IErMin=13 ErrMin= 2.55D-06
 ErrMax= 3.04D-06  0.00D+00 EMaxC= 1.00D-01 BMatC= 2.72D-08 BMatP= 5.75D-08
 IDIUse=1 WtCom= 1.00D+00 WtEn= 0.00D+00
 Coeff-Com: -0.316D-04 0.459D-04-0.151D-03-0.173D-03-0.794D-03-0.269D-02
 Coeff-Com:  0.193D-02 0.848D-02 0.260D-01-0.283D-01-0.788D-01-0.181D+00
 Coeff-Com:  0.287D+00 0.968D+00
 Coeff:     -0.316D-04 0.459D-04-0.151D-03-0.173D-03-0.794D-03-0.269D-02
 Coeff:      0.193D-02 0.848D-02 0.260D-01-0.283D-01-0.788D-01-0.181D+00
 Coeff:      0.287D+00 0.968D+00
 Gap=     0.084 Goal=   None    Shift=    0.000
 Gap=     0.135 Goal=   None    Shift=    0.000
 RMSDP=4.47D-07 MaxDP=1.05D-04 DE=-1.36D-07 OVMax= 5.15D-04

 Cycle  15  Pass 1  IDiag  1:
 RMSU=  1.18D-07    CP:  9.80D-01  2.67D+00  8.79D-01  8.46D-01  1.25D+00
                    CP:  1.61D+00  1.97D+00  1.89D+00  1.91D+00  1.99D+00
                    CP:  2.65D+00  2.70D+00  2.46D+00  1.88D+00
 E= -2139.81600707042     Delta-E=       -0.000000072786 Rises=F Damp=F
 DIIS: error= 3.42D-06 at cycle  15 NSaved=  15.
 NSaved=15 IEnMin=15 EnMin= -2139.81600707042     IErMin=13 ErrMin= 2.55D-06
 ErrMax= 3.42D-06  0.00D+00 EMaxC= 1.00D-01 BMatC= 2.01D-08 BMatP= 2.72D-08
 IDIUse=1 WtCom= 1.00D+00 WtEn= 0.00D+00
 Coeff-Com: -0.401D-04 0.561D-04 0.174D-04 0.267D-03 0.575D-05-0.182D-02
 Coeff-Com: -0.265D-02-0.115D-02 0.156D-01 0.147D-01 0.150D-01-0.154D+00
 Coeff-Com: -0.132D+00 0.458D+00 0.789D+00
 Coeff:     -0.401D-04 0.561D-04 0.174D-04 0.267D-03 0.575D-05-0.182D-02
 Coeff:     -0.265D-02-0.115D-02 0.156D-01 0.147D-01 0.150D-01-0.154D+00
 Coeff:     -0.132D+00 0.458D+00 0.789D+00
 Gap=     0.084 Goal=   None    Shift=    0.000
 Gap=     0.135 Goal=   None    Shift=    0.000
 RMSDP=3.12D-07 MaxDP=6.45D-05 DE=-7.28D-08 OVMax= 4.17D-04

 Cycle  16  Pass 1  IDiag  1:
 RMSU=  5.39D-08    CP:  9.80D-01  2.67D+00  8.79D-01  8.46D-01  1.25D+00
                    CP:  1.61D+00  1.97D+00  1.90D+00  1.92D+00  2.01D+00
                    CP:  2.80D+00  2.87D+00  2.97D+00  2.69D+00  1.98D+00
 E= -2139.81600711512     Delta-E=       -0.000000044704 Rises=F Damp=F
 DIIS: error= 3.37D-06 at cycle  16 NSaved=  16.
 NSaved=16 IEnMin=16 EnMin= -2139.81600711512     IErMin=13 ErrMin= 2.55D-06
 ErrMax= 3.37D-06  0.00D+00 EMaxC= 1.00D-01 BMatC= 1.52D-08 BMatP= 2.01D-08
 IDIUse=1 WtCom= 1.00D+00 WtEn= 0.00D+00
 Coeff-Com: -0.160D-04 0.194D-04-0.707D-04 0.101D-03 0.195D-03 0.595D-03
 Coeff-Com:  0.495D-03-0.339D-02-0.606D-02-0.761D-02 0.618D-01 0.170D-01
 Coeff-Com: -0.171D+00-0.168D+00 0.672D-01 0.121D+01
 Coeff:     -0.160D-04 0.194D-04-0.707D-04 0.101D-03 0.195D-03 0.595D-03
 Coeff:      0.495D-03-0.339D-02-0.606D-02-0.761D-02 0.618D-01 0.170D-01
 Coeff:     -0.171D+00-0.168D+00 0.672D-01 0.121D+01
 Gap=     0.084 Goal=   None    Shift=    0.000
 Gap=     0.135 Goal=   None    Shift=    0.000
 RMSDP=4.09D-07 MaxDP=5.28D-05 DE=-4.47D-08 OVMax= 5.94D-04

 Cycle  17  Pass 1  IDiag  1:
 RMSU=  2.48D-07    CP:  9.80D-01  2.67D+00  8.79D-01  8.46D-01  1.25D+00
                    CP:  1.61D+00  1.97D+00  1.90D+00  1.93D+00  2.02D+00
                    CP:  2.97D+00  3.00D+00  3.00D+00  3.00D+00  3.00D+00
                    CP:  2.52D+00
 E= -2139.81600717004     Delta-E=       -0.000000054914 Rises=F Damp=F
 DIIS: error= 3.35D-06 at cycle  17 NSaved=  17.
 NSaved=17 IEnMin=17 EnMin= -2139.81600717004     IErMin=13 ErrMin= 2.55D-06
 ErrMax= 3.35D-06  0.00D+00 EMaxC= 1.00D-01 BMatC= 1.53D-08 BMatP= 1.52D-08
 IDIUse=1 WtCom= 1.00D+00 WtEn= 0.00D+00
 Coeff-Com:  0.187D-05-0.725D-05-0.180D-03-0.158D-03 0.128D-05 0.157D-02
 Coeff-Com:  0.395D-02-0.834D-03-0.130D-01-0.367D-01 0.442D-01 0.997D-01
 Coeff-Com: -0.238D-02-0.289D+00-0.691D+00 0.105D+01 0.831D+00
 Coeff:      0.187D-05-0.725D-05-0.180D-03-0.158D-03 0.128D-05 0.157D-02
 Coeff:      0.395D-02-0.834D-03-0.130D-01-0.367D-01 0.442D-01 0.997D-01
 Coeff:     -0.238D-02-0.289D+00-0.691D+00 0.105D+01 0.831D+00
 Gap=     0.084 Goal=   None    Shift=    0.000
 Gap=     0.135 Goal=   None    Shift=    0.000
 RMSDP=4.18D-07 MaxDP=5.29D-05 DE=-5.49D-08 OVMax= 6.14D-04

 Cycle  18  Pass 1  IDiag  1:
 RMSU=  2.08D-07    CP:  9.80D-01  2.67D+00  8.79D-01  8.46D-01  1.25D+00
                    CP:  1.61D+00  1.97D+00  1.90D+00  1.94D+00  2.03D+00
                    CP:  3.00D+00  3.00D+00  3.00D+00  3.00D+00  3.00D+00
                    CP:  3.00D+00  2.33D+00
 E= -2139.81600722287     Delta-E=       -0.000000052838 Rises=F Damp=F
 DIIS: error= 3.12D-06 at cycle  18 NSaved=  18.
 NSaved=18 IEnMin=18 EnMin= -2139.81600722287     IErMin=13 ErrMin= 2.55D-06
 ErrMax= 3.12D-06  0.00D+00 EMaxC= 1.00D-01 BMatC= 1.27D-08 BMatP= 1.52D-08
 IDIUse=1 WtCom= 1.00D+00 WtEn= 0.00D+00
 Coeff-Com:  0.295D-05-0.869D-05-0.205D-03-0.255D-03-0.229D-03 0.958D-03
 Coeff-Com:  0.460D-02 0.215D-02-0.596D-02-0.457D-01 0.405D-02 0.676D-01
 Coeff-Com:  0.154D+00-0.319D-01-0.848D+00 0.219D+00 0.505D+00 0.975D+00
 Coeff:      0.295D-05-0.869D-05-0.205D-03-0.255D-03-0.229D-03 0.958D-03
 Coeff:      0.460D-02 0.215D-02-0.596D-02-0.457D-01 0.405D-02 0.676D-01
 Coeff:      0.154D+00-0.319D-01-0.848D+00 0.219D+00 0.505D+00 0.975D+00
 Gap=     0.084 Goal=   None    Shift=    0.000
 Gap=     0.135 Goal=   None    Shift=    0.000
 RMSDP=4.81D-07 MaxDP=6.25D-05 DE=-5.28D-08 OVMax= 7.09D-04

 Cycle  19  Pass 1  IDiag  1:
 RMSU=  2.16D-07    CP:  9.80D-01  2.67D+00  8.79D-01  8.46D-01  1.25D+00
                    CP:  1.61D+00  1.97D+00  1.91D+00  1.95D+00  2.04D+00
                    CP:  3.00D+00  3.00D+00  3.00D+00  3.00D+00  3.00D+00
                    CP:  3.00D+00  3.00D+00  2.34D+00
 E= -2139.81600727900     Delta-E=       -0.000000056130 Rises=F Damp=F
 DIIS: error= 2.83D-06 at cycle  19 NSaved=  19.
 NSaved=19 IEnMin=19 EnMin= -2139.81600727900     IErMin=13 ErrMin= 2.55D-06
 ErrMax= 2.83D-06  0.00D+00 EMaxC= 1.00D-01 BMatC= 1.04D-08 BMatP= 1.27D-08
 IDIUse=1 WtCom= 1.00D+00 WtEn= 0.00D+00
 Coeff-Com: -0.197D-04 0.268D-04-0.978D-04-0.911D-04-0.329D-03-0.107D-02
 Coeff-Com:  0.118D-02 0.341D-02 0.119D-01-0.187D-01-0.234D-01-0.778D-01
 Coeff-Com:  0.122D+00 0.400D+00-0.340D-01-0.609D+00-0.875D+00-0.213D+00
 Coeff-Com:  0.231D+01
 Coeff:     -0.197D-04 0.268D-04-0.978D-04-0.911D-04-0.329D-03-0.107D-02
 Coeff:      0.118D-02 0.341D-02 0.119D-01-0.187D-01-0.234D-01-0.778D-01
 Coeff:      0.122D+00 0.400D+00-0.340D-01-0.609D+00-0.875D+00-0.213D+00
 Coeff:      0.231D+01
 Gap=     0.084 Goal=   None    Shift=    0.000
 Gap=     0.135 Goal=   None    Shift=    0.000
 RMSDP=1.13D-06 MaxDP=1.50D-04 DE=-5.61D-08 OVMax= 1.68D-03

 Cycle  20  Pass 1  IDiag  1:
 RMSU=  7.01D-07    CP:  9.80D-01  2.67D+00  8.79D-01  8.46D-01  1.26D+00
                    CP:  1.61D+00  1.97D+00  1.92D+00  1.98D+00  2.06D+00
                    CP:  3.00D+00  3.00D+00  3.00D+00  3.00D+00  3.00D+00
                    CP:  3.00D+00  3.00D+00  3.00D+00  3.00D+00
 E= -2139.81600739453     Delta-E=       -0.000000115520 Rises=F Damp=F
 DIIS: error= 2.40D-06 at cycle  20 NSaved=  20.
 NSaved=20 IEnMin=20 EnMin= -2139.81600739453     IErMin=20 ErrMin= 2.40D-06
 ErrMax= 2.40D-06  0.00D+00 EMaxC= 1.00D-01 BMatC= 8.41D-09 BMatP= 1.04D-08
 IDIUse=1 WtCom= 1.00D+00 WtEn= 0.00D+00
 Coeff-Com: -0.263D-04 0.380D-04 0.437D-04 0.194D-03 0.299D-04-0.140D-02
 Coeff-Com: -0.262D-02-0.773D-03 0.122D-01 0.191D-01 0.190D-01-0.126D+00
 Coeff-Com: -0.149D+00 0.247D+00 0.798D+00 0.102D+00-0.122D+01-0.241D+01
 Coeff-Com:  0.222D+01 0.149D+01
 Coeff:     -0.263D-04 0.380D-04 0.437D-04 0.194D-03 0.299D-04-0.140D-02
 Coeff:     -0.262D-02-0.773D-03 0.122D-01 0.191D-01 0.190D-01-0.126D+00
 Coeff:     -0.149D+00 0.247D+00 0.798D+00 0.102D+00-0.122D+01-0.241D+01
 Coeff:      0.222D+01 0.149D+01
 Gap=     0.084 Goal=   None    Shift=    0.000
 Gap=     0.135 Goal=   None    Shift=    0.000
 RMSDP=1.60D-06 MaxDP=2.12D-04 DE=-1.16D-07 OVMax= 2.36D-03

 Cycle  21  Pass 1  IDiag  1:
 Restarting incremental Fock formation.
 E= -2139.81600751947     Delta-E=       -0.000000124943 Rises=F Damp=F
 DIIS: error= 1.40D-06 at cycle  21 NSaved=  20.
 NSaved=20 IEnMin=20 EnMin= -2139.81600751947     IErMin=20 ErrMin= 1.40D-06
 ErrMax= 1.40D-06  0.00D+00 EMaxC= 1.00D-01 BMatC= 4.20D-09 BMatP= 8.41D-09
 IDIUse=1 WtCom= 1.00D+00 WtEn= 0.00D+00
 Coeff-Com: -0.720D-06 0.271D-04 0.151D-03 0.253D-03 0.251D-03-0.131D-02
 Coeff-Com: -0.345D-02-0.413D-02 0.127D-01 0.503D-01-0.113D-01-0.197D+00
 Coeff-Com: -0.167D+00 0.436D+00 0.818D+00-0.130D+00-0.178D+01-0.529D-01
 Coeff-Com:  0.684D+00 0.134D+01
 Coeff:     -0.720D-06 0.271D-04 0.151D-03 0.253D-03 0.251D-03-0.131D-02
 Coeff:     -0.345D-02-0.413D-02 0.127D-01 0.503D-01-0.113D-01-0.197D+00
 Coeff:     -0.167D+00 0.436D+00 0.818D+00-0.130D+00-0.178D+01-0.529D-01
 Coeff:      0.684D+00 0.134D+01
 Gap=     0.084 Goal=   None    Shift=    0.000
 Gap=     0.135 Goal=   None    Shift=    0.000
 RMSDP=1.66D-06 MaxDP=2.19D-04 DE=-1.25D-07 OVMax= 2.44D-03

 Cycle  22  Pass 1  IDiag  1:
 RMSU=  1.66D-06    CP:  1.00D+00
 E= -2139.81600760154     Delta-E=       -0.000000082076 Rises=F Damp=F
 DIIS: error= 7.86D-07 at cycle  22 NSaved=  20.
 NSaved=20 IEnMin=20 EnMin= -2139.81600760154     IErMin=20 ErrMin= 7.86D-07
 ErrMax= 7.86D-07  0.00D+00 EMaxC= 1.00D-01 BMatC= 1.45D-09 BMatP= 4.20D-09
 IDIUse=1 WtCom= 1.00D+00 WtEn= 0.00D+00
 Coeff-Com: -0.348D-04-0.416D-04 0.606D-04 0.896D-03 0.170D-02-0.662D-03
 Coeff-Com: -0.869D-02-0.127D-01 0.147D-01 0.628D-01 0.111D-01-0.197D+00
 Coeff-Com: -0.408D+00 0.402D+00 0.756D+00 0.717D+00-0.129D+01-0.850D+00
 Coeff-Com:  0.563D+00 0.124D+01
 Coeff:     -0.348D-04-0.416D-04 0.606D-04 0.896D-03 0.170D-02-0.662D-03
 Coeff:     -0.869D-02-0.127D-01 0.147D-01 0.628D-01 0.111D-01-0.197D+00
 Coeff:     -0.408D+00 0.402D+00 0.756D+00 0.717D+00-0.129D+01-0.850D+00
 Coeff:      0.563D+00 0.124D+01
 Gap=     0.085 Goal=   None    Shift=    0.000
 Gap=     0.135 Goal=   None    Shift=    0.000
 RMSDP=9.80D-07 MaxDP=1.29D-04 DE=-8.21D-08 OVMax= 1.45D-03

 Cycle  23  Pass 1  IDiag  1:
 RMSU=  4.09D-08    CP:  1.00D+00  1.59D+00
 E= -2139.81600762642     Delta-E=       -0.000000024881 Rises=F Damp=F
 DIIS: error= 3.91D-07 at cycle  23 NSaved=  20.
 NSaved=20 IEnMin=20 EnMin= -2139.81600762642     IErMin=20 ErrMin= 3.91D-07
 ErrMax= 3.91D-07  0.00D+00 EMaxC= 1.00D-01 BMatC= 5.09D-10 BMatP= 1.45D-09
 IDIUse=1 WtCom= 1.00D+00 WtEn= 0.00D+00
 Coeff-Com:  0.161D-04 0.369D-04 0.102D-03 0.181D-03-0.117D-03-0.912D-03
 Coeff-Com: -0.220D-02-0.376D-02 0.110D-01 0.299D-01 0.493D-02-0.166D+00
 Coeff-Com: -0.827D-01 0.163D+00 0.481D+00-0.197D+00-0.376D+00-0.316D+00
 Coeff-Com:  0.365D+00 0.109D+01
 Coeff:      0.161D-04 0.369D-04 0.102D-03 0.181D-03-0.117D-03-0.912D-03
 Coeff:     -0.220D-02-0.376D-02 0.110D-01 0.299D-01 0.493D-02-0.166D+00
 Coeff:     -0.827D-01 0.163D+00 0.481D+00-0.197D+00-0.376D+00-0.316D+00
 Coeff:      0.365D+00 0.109D+01
 Gap=     0.085 Goal=   None    Shift=    0.000
 Gap=     0.135 Goal=   None    Shift=    0.000
 RMSDP=7.01D-07 MaxDP=9.24D-05 DE=-2.49D-08 OVMax= 1.03D-03

 Cycle  24  Pass 1  IDiag  1:
 RMSU=  1.71D-08    CP:  1.00D+00  2.01D+00  1.47D+00
 E= -2139.81600763266     Delta-E=       -0.000000006240 Rises=F Damp=F
 DIIS: error= 1.43D-07 at cycle  24 NSaved=  20.
 NSaved=20 IEnMin=20 EnMin= -2139.81600763266     IErMin=20 ErrMin= 1.43D-07
 ErrMax= 1.43D-07  0.00D+00 EMaxC= 1.00D-01 BMatC= 1.15D-10 BMatP= 5.09D-10
 IDIUse=1 WtCom= 1.00D+00 WtEn= 0.00D+00
 Coeff-Com: -0.512D-04-0.302D-03-0.190D-03 0.740D-03 0.303D-02 0.505D-03
 Coeff-Com: -0.110D-01-0.167D-01 0.262D-01 0.894D-01 0.200D-01-0.208D+00
 Coeff-Com: -0.181D+00 0.533D-01 0.416D+00 0.842D-01-0.410D+00-0.237D+00
 Coeff-Com:  0.486D+00 0.885D+00
 Coeff:     -0.512D-04-0.302D-03-0.190D-03 0.740D-03 0.303D-02 0.505D-03
 Coeff:     -0.110D-01-0.167D-01 0.262D-01 0.894D-01 0.200D-01-0.208D+00
 Coeff:     -0.181D+00 0.533D-01 0.416D+00 0.842D-01-0.410D+00-0.237D+00
 Coeff:      0.486D+00 0.885D+00
 Gap=     0.085 Goal=   None    Shift=    0.000
 Gap=     0.135 Goal=   None    Shift=    0.000
 RMSDP=5.36D-08 MaxDP=6.46D-06 DE=-6.24D-09 OVMax= 7.49D-05

 Cycle  25  Pass 1  IDiag  1:
 RMSU=  7.04D-09    CP:  1.00D+00  2.04D+00  1.78D+00  1.51D+00
 E= -2139.81600763310     Delta-E=       -0.000000000432 Rises=F Damp=F
 DIIS: error= 8.38D-08 at cycle  25 NSaved=  20.
 NSaved=20 IEnMin=20 EnMin= -2139.81600763310     IErMin=20 ErrMin= 8.38D-08
 ErrMax= 8.38D-08  0.00D+00 EMaxC= 1.00D-01 BMatC= 3.53D-11 BMatP= 1.15D-10
 IDIUse=1 WtCom= 1.00D+00 WtEn= 0.00D+00
 Coeff-Com: -0.267D-04-0.806D-04 0.737D-04 0.480D-03 0.239D-03-0.102D-02
 Coeff-Com: -0.408D-02-0.153D-03 0.186D-01 0.359D-01-0.312D-01-0.837D-01
 Coeff-Com: -0.102D+00 0.169D+00 0.114D+00-0.598D-01-0.155D+00-0.110D+00
 Coeff-Com:  0.336D+00 0.872D+00
 Coeff:     -0.267D-04-0.806D-04 0.737D-04 0.480D-03 0.239D-03-0.102D-02
 Coeff:     -0.408D-02-0.153D-03 0.186D-01 0.359D-01-0.312D-01-0.837D-01
 Coeff:     -0.102D+00 0.169D+00 0.114D+00-0.598D-01-0.155D+00-0.110D+00
 Coeff:      0.336D+00 0.872D+00
 Gap=     0.085 Goal=   None    Shift=    0.000
 Gap=     0.135 Goal=   None    Shift=    0.000
 RMSDP=3.55D-08 MaxDP=4.57D-06 DE=-4.32D-10 OVMax= 5.19D-05

 Cycle  26  Pass 1  IDiag  1:
 RMSU=  4.56D-09    CP:  1.00D+00  2.06D+00  1.85D+00  1.76D+00  1.19D+00
 E= -2139.81600763287     Delta-E=        0.000000000223 Rises=F Damp=F
 DIIS: error= 7.72D-08 at cycle  26 NSaved=  20.
 NSaved=20 IEnMin=19 EnMin= -2139.81600763310     IErMin=20 ErrMin= 7.72D-08
 ErrMax= 7.72D-08  0.00D+00 EMaxC= 1.00D-01 BMatC= 1.91D-11 BMatP= 3.53D-11
 IDIUse=1 WtCom= 1.00D+00 WtEn= 0.00D+00
 Coeff-Com: -0.747D-04-0.997D-04-0.825D-04 0.611D-03 0.237D-02-0.259D-03
 Coeff-Com: -0.103D-01-0.118D-01 0.313D-01 0.461D-01-0.108D-01-0.112D+00
 Coeff-Com: -0.939D-02 0.613D-01 0.105D+00-0.291D-01-0.255D+00-0.951D-01
 Coeff-Com:  0.579D+00 0.709D+00
 Coeff:     -0.747D-04-0.997D-04-0.825D-04 0.611D-03 0.237D-02-0.259D-03
 Coeff:     -0.103D-01-0.118D-01 0.313D-01 0.461D-01-0.108D-01-0.112D+00
 Coeff:     -0.939D-02 0.613D-01 0.105D+00-0.291D-01-0.255D+00-0.951D-01
 Coeff:      0.579D+00 0.709D+00
 Gap=     0.085 Goal=   None    Shift=    0.000
 Gap=     0.135 Goal=   None    Shift=    0.000
 RMSDP=2.60D-08 MaxDP=3.44D-06 DE= 2.23D-10 OVMax= 3.80D-05

 Cycle  27  Pass 1  IDiag  1:
 RMSU=  2.48D-09    CP:  1.00D+00  2.08D+00  1.86D+00  1.87D+00  1.53D+00
                    CP:  1.24D+00
 E= -2139.81600763293     Delta-E=       -0.000000000056 Rises=F Damp=F
 DIIS: error= 2.14D-08 at cycle  27 NSaved=  20.
 NSaved=20 IEnMin=18 EnMin= -2139.81600763310     IErMin=20 ErrMin= 2.14D-08
 ErrMax= 2.14D-08  0.00D+00 EMaxC= 1.00D-01 BMatC= 2.95D-12 BMatP= 1.91D-11
 IDIUse=1 WtCom= 1.00D+00 WtEn= 0.00D+00
 Coeff-Com: -0.365D-04-0.161D-04 0.974D-04 0.608D-03 0.113D-03-0.219D-02
 Coeff-Com: -0.500D-02 0.341D-02 0.148D-01 0.824D-02-0.127D-01-0.290D-01
 Coeff-Com: -0.609D-02 0.441D-01 0.213D-01-0.515D-01-0.108D+00-0.306D-01
 Coeff-Com:  0.216D+00 0.936D+00
 Coeff:     -0.365D-04-0.161D-04 0.974D-04 0.608D-03 0.113D-03-0.219D-02
 Coeff:     -0.500D-02 0.341D-02 0.148D-01 0.824D-02-0.127D-01-0.290D-01
 Coeff:     -0.609D-02 0.441D-01 0.213D-01-0.515D-01-0.108D+00-0.306D-01
 Coeff:      0.216D+00 0.936D+00
 Gap=     0.085 Goal=   None    Shift=    0.000
 Gap=     0.135 Goal=   None    Shift=    0.000
 RMSDP=1.11D-08 MaxDP=1.42D-06 DE=-5.64D-11 OVMax= 1.59D-05

 Cycle  28  Pass 1  IDiag  1:
 RMSU=  1.53D-09    CP:  1.00D+00  2.09D+00  1.86D+00  1.88D+00  1.60D+00
                    CP:  1.49D+00  1.31D+00
 E= -2139.81600763277     Delta-E=        0.000000000158 Rises=F Damp=F
 DIIS: error= 1.71D-08 at cycle  28 NSaved=  20.
 NSaved=20 IEnMin=17 EnMin= -2139.81600763310     IErMin=20 ErrMin= 1.71D-08
 ErrMax= 1.71D-08  0.00D+00 EMaxC= 1.00D-01 BMatC= 1.47D-12 BMatP= 2.95D-12
 IDIUse=1 WtCom= 1.00D+00 WtEn= 0.00D+00
 Coeff-Com:  0.264D-04-0.752D-04-0.342D-04 0.352D-03 0.691D-03-0.128D-02
 Coeff-Com: -0.593D-02 0.609D-03 0.804D-02 0.187D-01-0.133D-01-0.183D-01
 Coeff-Com: -0.705D-04 0.182D-01 0.347D-01-0.348D-01-0.165D+00-0.731D-01
 Coeff-Com:  0.490D+00 0.740D+00
 Coeff:      0.264D-04-0.752D-04-0.342D-04 0.352D-03 0.691D-03-0.128D-02
 Coeff:     -0.593D-02 0.609D-03 0.804D-02 0.187D-01-0.133D-01-0.183D-01
 Coeff:     -0.705D-04 0.182D-01 0.347D-01-0.348D-01-0.165D+00-0.731D-01
 Coeff:      0.490D+00 0.740D+00
 Gap=     0.085 Goal=   None    Shift=    0.000
 Gap=     0.135 Goal=   None    Shift=    0.000
 RMSDP=1.10D-08 MaxDP=1.46D-06 DE= 1.58D-10 OVMax= 1.60D-05

 Cycle  29  Pass 1  IDiag  1:
 RMSU=  6.74D-10    CP:  1.00D+00  2.08D+00  1.85D+00  1.86D+00  1.62D+00
                    CP:  1.56D+00  1.58D+00  1.42D+00
 E= -2139.81600763276     Delta-E=        0.000000000014 Rises=F Damp=F
 DIIS: error= 1.25D-08 at cycle  29 NSaved=  20.
 NSaved=20 IEnMin=16 EnMin= -2139.81600763310     IErMin=20 ErrMin= 1.25D-08
 ErrMax= 1.25D-08  0.00D+00 EMaxC= 1.00D-01 BMatC= 6.18D-13 BMatP= 1.47D-12
 IDIUse=1 WtCom= 1.00D+00 WtEn= 0.00D+00
 Coeff-Com: -0.454D-04-0.199D-03 0.231D-04 0.106D-02 0.134D-02-0.420D-02
 Coeff-Com: -0.550D-02 0.204D-02 0.173D-01-0.304D-03-0.125D-01-0.135D-01
 Coeff-Com:  0.786D-02 0.441D-01 0.666D-02-0.116D+00-0.125D+00 0.441D-01
 Coeff-Com:  0.458D+00 0.694D+00
 Coeff:     -0.454D-04-0.199D-03 0.231D-04 0.106D-02 0.134D-02-0.420D-02
 Coeff:     -0.550D-02 0.204D-02 0.173D-01-0.304D-03-0.125D-01-0.135D-01
 Coeff:      0.786D-02 0.441D-01 0.666D-02-0.116D+00-0.125D+00 0.441D-01
 Coeff:      0.458D+00 0.694D+00
 Gap=     0.085 Goal=   None    Shift=    0.000
 Gap=     0.135 Goal=   None    Shift=    0.000
 RMSDP=2.35D-09 MaxDP=3.18D-07 DE= 1.36D-11 OVMax= 3.18D-06

 Error on total polarization charges =  0.02539
 SCF Done:  E(UM062X) =  -2139.81600763     A.U. after   29 cycles
            NFock= 29  Conv=0.23D-08     -V/T= 2.0054
 <Sx>= 0.0000 <Sy>= 0.0000 <Sz>= 0.5000 <S**2>= 0.7826 S= 0.5162
 <L.S>= 0.000000000000E+00
 KE= 2.128395617448D+03 PE=-1.513279515884D+04 EE= 5.807334521875D+03
 Annihilation of the first spin contaminant:
 S**2 before annihilation     0.7826,   after     0.7509
 Leave Link  502 at Tue Oct 28 19:15:05 2025, MaxMem= 30870077440 cpu:          154098.7 elap:            2437.2
 (Enter /public/software/gauss/g16/l601.exe)
 Copying SCF densities to generalized density rwf, IOpCl= 1 IROHF=0.

 **********************************************************************

            Population analysis using the SCF density.

 **********************************************************************

 Orbital symmetries:
 Alpha Orbitals:
       Occupied  (A) (A) (A) (A) (A) (A) (A) (A) (A) (A) (A) (A)
                 (A) (A) (A) (A) (A) (A) (A) (A) (A) (A) (A) (A)
                 (A) (A) (A) (A) (A) (A) (A) (A) (A) (A) (A) (A)
                 (A) (A) (A) (A) (A) (A) (A) (A) (A) (A) (A) (A)
                 (A) (A) (A) (A) (A) (A) (A) (A) (A) (A) (A) (A)
                 (A) (A) (A) (A) (A) (A) (A) (A) (A) (A) (A) (A)
                 (A) (A) (A) (A) (A) (A) (A) (A) (A) (A) (A) (A)
                 (A) (A) (A) (A) (A) (A) (A) (A) (A) (A) (A) (A)
                 (A) (A) (A) (A) (A) (A) (A) (A) (A) (A) (A) (A)
                 (A) (A) (A) (A) (A) (A) (A) (A) (A) (A) (A) (A)
                 (A) (A) (A) (A) (A) (A) (A) (A) (A) (A) (A) (A)
                 (A) (A) (A) (A) (A) (A) (A) (A) (A) (A) (A) (A)
                 (A) (A) (A) (A) (A) (A) (A) (A) (A) (A) (A) (A)
                 (A) (A) (A) (A) (A) (A) (A)
       Virtual   (A) (A) (A) (A) (A) (A) (A) (A) (A) (A) (A) (A)
                 (A) (A) (A) (A) (A) (A) (A) (A) (A) (A) (A) (A)
                 (A) (A) (A) (A) (A) (A) (A) (A) (A) (A) (A) (A)
                 (A) (A) (A) (A) (A) (A) (A) (A) (A) (A) (A) (A)
                 (A) (A) (A) (A) (A) (A) (A) (A) (A) (A) (A) (A)
                 (A) (A) (A) (A) (A) (A) (A) (A) (A) (A) (A) (A)
                 (A) (A) (A) (A) (A) (A) (A) (A) (A) (A) (A) (A)
                 (A) (A) (A) (A) (A) (A) (A) (A) (A) (A) (A) (A)
                 (A) (A) (A) (A) (A) (A) (A) (A) (A) (A) (A) (A)
                 (A) (A) (A) (A) (A) (A) (A) (A) (A) (A) (A) (A)
                 (A) (A) (A) (A) (A) (A) (A) (A) (A) (A) (A) (A)
                 (A) (A) (A) (A) (A) (A) (A) (A) (A) (A) (A) (A)
                 (A) (A) (A) (A) (A) (A) (A) (A) (A) (A) (A) (A)
                 (A) (A) (A) (A) (A) (A) (A) (A) (A) (A) (A) (A)
                 (A) (A) (A) (A) (A) (A) (A) (A) (A) (A) (A) (A)
                 (A) (A) (A) (A) (A) (A) (A) (A) (A) (A) (A) (A)
                 (A) (A) (A) (A) (A) (A) (A) (A) (A) (A) (A) (A)
                 (A) (A) (A) (A) (A) (A) (A) (A) (A) (A) (A) (A)
                 (A) (A) (A) (A) (A) (A) (A) (A) (A) (A) (A) (A)
                 (A) (A) (A) (A) (A) (A) (A) (A) (A) (A) (A) (A)
                 (A) (A) (A) (A) (A) (A) (A) (A) (A) (A) (A) (A)
                 (A) (A) (A) (A) (A) (A) (A) (A) (A) (A) (A) (A)
                 (A) (A) (A) (A) (A) (A) (A) (A) (A) (A) (A) (A)
                 (A) (A) (A) (A) (A) (A) (A) (A) (A) (A) (A) (A)
                 (A) (A) (A) (A) (A) (A) (A) (A) (A) (A) (A) (A)
                 (A) (A) (A) (A) (A) (A) (A) (A) (A) (A) (A) (A)
                 (A) (A) (A) (A) (A) (A) (A) (A) (A) (A) (A) (A)
                 (A) (A) (A) (A) (A) (A) (A) (A) (A) (A) (A) (A)
                 (A) (A) (A) (A) (A) (A) (A) (A) (A) (A) (A) (A)
                 (A) (A) (A) (A) (A) (A) (A) (A) (A) (A) (A) (A)
                 (A) (A) (A) (A) (A) (A) (A) (A) (A) (A) (A) (A)
                 (A) (A) (A) (A) (A) (A) (A) (A) (A) (A) (A) (A)
                 (A) (A) (A) (A) (A) (A) (A) (A) (A) (A) (A) (A)
                 (A) (A) (A) (A) (A) (A) (A) (A) (A) (A) (A) (A)
                 (A) (A) (A) (A) (A) (A) (A) (A) (A) (A) (A) (A)
                 (A) (A) (A) (A) (A) (A) (A) (A) (A) (A) (A) (A)
                 (A) (A) (A) (A) (A) (A) (A) (A) (A) (A) (A) (A)
                 (A) (A) (A) (A) (A) (A) (A) (A) (A) (A) (A) (A)
                 (A) (A) (A) (A) (A) (A) (A) (A) (A) (A) (A) (A)
                 (A) (A) (A) (A) (A) (A) (A) (A) (A) (A) (A) (A)
                 (A) (A) (A) (A) (A) (A) (A) (A) (A) (A) (A) (A)
                 (A) (A) (A) (A) (A) (A) (A) (A) (A) (A) (A) (A)
                 (A) (A) (A) (A) (A) (A) (A) (A) (A) (A) (A) (A)
                 (A) (A) (A) (A) (A) (A) (A) (A) (A) (A) (A) (A)
                 (A) (A) (A) (A) (A) (A) (A) (A) (A) (A) (A) (A)
                 (A) (A) (A) (A) (A) (A) (A) (A) (A) (A) (A) (A)
                 (A) (A) (A) (A) (A) (A) (A) (A) (A) (A) (A) (A)
                 (A) (A) (A) (A) (A) (A) (A) (A) (A) (A) (A) (A)
                 (A) (A) (A) (A) (A) (A) (A) (A) (A) (A) (A) (A)
                 (A) (A) (A) (A) (A) (A) (A) (A) (A) (A) (A) (A)
                 (A) (A) (A) (A) (A) (A) (A) (A) (A) (A) (A) (A)
                 (A) (A) (A) (A) (A) (A) (A) (A) (A) (A) (A) (A)
                 (A) (A) (A) (A) (A) (A) (A) (A) (A) (A) (A) (A)
                 (A) (A) (A) (A) (A) (A) (A) (A) (A) (A) (A) (A)
                 (A) (A) (A) (A) (A) (A) (A) (A) (A) (A) (A) (A)
                 (A) (A) (A) (A) (A) (A) (A) (A) (A) (A) (A) (A)
                 (A) (A) (A) (A) (A) (A) (A) (A) (A) (A) (A) (A)
                 (A) (A) (A) (A) (A) (A) (A) (A) (A) (A) (A) (A)
                 (A) (A) (A) (A) (A) (A) (A) (A) (A) (A) (A) (A)
                 (A) (A) (A) (A) (A) (A) (A) (A) (A) (A) (A) (A)
                 (A) (A) (A) (A) (A) (A) (A) (A) (A) (A) (A) (A)
                 (A) (A) (A) (A) (A) (A) (A) (A) (A) (A) (A) (A)
                 (A) (A) (A) (A) (A) (A) (A) (A) (A) (A) (A) (A)
                 (A) (A) (A) (A) (A) (A) (A) (A) (A) (A) (A) (A)
                 (A) (A) (A) (A) (A) (A) (A) (A) (A) (A) (A) (A)
                 (A) (A) (A) (A) (A) (A) (A) (A) (A) (A) (A) (A)
                 (A) (A) (A) (A) (A) (A) (A) (A) (A) (A) (A) (A)
                 (A) (A) (A) (A) (A) (A) (A) (A) (A) (A) (A) (A)
                 (A) (A) (A) (A) (A) (A) (A) (A) (A) (A) (A) (A)
                 (A) (A) (A) (A) (A) (A) (A) (A) (A) (A) (A) (A)
                 (A) (A) (A) (A) (A) (A) (A) (A) (A) (A) (A) (A)
                 (A) (A) (A) (A) (A) (A) (A) (A) (A) (A) (A) (A)
                 (A) (A) (A) (A) (A) (A) (A) (A) (A) (A) (A) (A)
                 (A) (A) (A) (A) (A) (A) (A) (A) (A) (A) (A) (A)
                 (A) (A) (A) (A) (A) (A) (A) (A) (A) (A) (A) (A)
                 (A) (A) (A) (A) (A) (A) (A) (A) (A) (A) (A) (A)
                 (A) (A) (A) (A) (A) (A) (A) (A) (A) (A) (A) (A)
                 (A) (A) (A) (A) (A) (A) (A) (A) (A) (A) (A) (A)
                 (A) (A) (A) (A) (A) (A) (A) (A) (A) (A) (A) (A)
                 (A) (A) (A) (A) (A) (A) (A) (A) (A) (A) (A) (A)
                 (A) (A) (A) (A) (A) (A) (A) (A) (A) (A) (A) (A)
                 (A) (A) (A) (A) (A) (A) (A) (A) (A) (A) (A) (A)
                 (A) (A) (A) (A) (A) (A) (A) (A) (A) (A) (A) (A)
                 (A) (A) (A) (A) (A) (A) (A) (A) (A) (A) (A) (A)
                 (A) (A) (A) (A) (A) (A) (A) (A) (A) (A) (A) (A)
                 (A) (A) (A) (A) (A) (A) (A) (A) (A) (A) (A) (A)
                 (A) (A) (A) (A) (A) (A) (A) (A) (A) (A) (A) (A)
                 (A) (A) (A) (A) (A) (A) (A) (A) (A) (A) (A) (A)
                 (A) (A) (A) (A) (A) (A) (A) (A) (A) (A) (A) (A)
                 (A) (A) (A) (A) (A) (A) (A) (A) (A) (A) (A) (A)
                 (A) (A) (A) (A) (A) (A) (A) (A) (A) (A) (A) (A)
                 (A) (A) (A) (A) (A) (A) (A) (A) (A) (A) (A) (A)
                 (A) (A) (A) (A) (A) (A) (A) (A) (A) (A) (A) (A)
                 (A) (A) (A) (A) (A) (A) (A) (A) (A) (A) (A) (A)
                 (A) (A) (A) (A) (A) (A) (A) (A) (A) (A) (A) (A)
                 (A) (A) (A) (A) (A) (A) (A) (A) (A) (A) (A) (A)
                 (A) (A) (A) (A) (A) (A) (A) (A) (A) (A) (A) (A)
                 (A) (A) (A) (A) (A) (A) (A) (A) (A) (A) (A) (A)
                 (A) (A) (A) (A) (A) (A) (A) (A) (A) (A) (A) (A)
                 (A) (A) (A) (A) (A) (A) (A) (A) (A) (A) (A) (A)
                 (A) (A) (A) (A) (A) (A) (A) (A) (A) (A) (A) (A)
                 (A) (A) (A) (A) (A) (A) (A) (A) (A) (A) (A) (A)
                 (A) (A) (A) (A) (A) (A) (A) (A) (A) (A) (A) (A)
                 (A) (A) (A) (A) (A) (A) (A) (A) (A) (A) (A) (A)
                 (A) (A) (A) (A) (A) (A) (A) (A) (A) (A) (A) (A)
                 (A) (A) (A) (A) (A) (A) (A) (A) (A) (A) (A) (A)
                 (A) (A) (A) (A) (A) (A) (A) (A) (A) (A) (A) (A)
                 (A) (A) (A) (A) (A) (A) (A) (A) (A) (A) (A) (A)
                 (A) (A) (A) (A) (A) (A) (A) (A) (A) (A) (A) (A)
                 (A) (A) (A) (A) (A) (A) (A) (A) (A) (A) (A) (A)
                 (A) (A) (A) (A) (A) (A) (A) (A) (A) (A) (A) (A)
                 (A) (A) (A) (A) (A) (A) (A) (A) (A) (A) (A) (A)
                 (A) (A) (A) (A) (A) (A) (A) (A) (A) (A) (A) (A)
                 (A) (A) (A) (A) (A) (A) (A) (A) (A) (A) (A) (A)
                 (A) (A) (A) (A) (A) (A) (A) (A) (A) (A) (A) (A)
                 (A) (A) (A) (A) (A) (A) (A) (A) (A) (A) (A) (A)
                 (A) (A) (A) (A) (A) (A) (A) (A) (A) (A) (A) (A)
                 (A) (A) (A) (A) (A) (A) (A) (A) (A) (A) (A) (A)
                 (A) (A) (A) (A) (A) (A) (A) (A) (A) (A) (A) (A)
                 (A) (A) (A) (A) (A) (A) (A) (A) (A) (A) (A) (A)
                 (A) (A) (A) (A) (A) (A) (A) (A) (A) (A) (A) (A)
                 (A) (A) (A) (A) (A) (A) (A) (A) (A) (A) (A) (A)
                 (A) (A) (A) (A) (A) (A) (A) (A) (A) (A) (A) (A)
                 (A) (A) (A) (A) (A) (A) (A) (A) (A) (A) (A) (A)
                 (A) (A) (A) (A) (A) (A) (A) (A) (A) (A) (A) (A)
                 (A) (A) (A) (A) (A) (A) (A) (A) (A) (A) (A) (A)
                 (A) (A) (A) (A) (A) (A) (A) (A) (A) (A) (A) (A)
                 (A) (A) (A) (A) (A) (A) (A) (A) (A) (A) (A) (A)
                 (A) (A) (A) (A) (A) (A) (A) (A) (A) (A) (A) (A)
                 (A) (A) (A) (A) (A) (A) (A) (A) (A) (A) (A) (A)
                 (A) (A) (A) (A) (A) (A) (A) (A) (A) (A) (A) (A)
                 (A) (A) (A) (A) (A) (A) (A) (A) (A) (A) (A) (A)
                 (A) (A) (A) (A) (A) (A) (A) (A) (A) (A) (A) (A)
                 (A) (A) (A) (A) (A) (A) (A) (A) (A) (A) (A) (A)
                 (A) (A) (A) (A) (A) (A) (A) (A) (A) (A) (A) (A)
                 (A) (A) (A) (A) (A) (A) (A) (A) (A) (A)
 Beta  Orbitals:
       Occupied  (A) (A) (A) (A) (A) (A) (A) (A) (A) (A) (A) (A)
                 (A) (A) (A) (A) (A) (A) (A) (A) (A) (A) (A) (A)
                 (A) (A) (A) (A) (A) (A) (A) (A) (A) (A) (A) (A)
                 (A) (A) (A) (A) (A) (A) (A) (A) (A) (A) (A) (A)
                 (A) (A) (A) (A) (A) (A) (A) (A) (A) (A) (A) (A)
                 (A) (A) (A) (A) (A) (A) (A) (A) (A) (A) (A) (A)
                 (A) (A) (A) (A) (A) (A) (A) (A) (A) (A) (A) (A)
                 (A) (A) (A) (A) (A) (A) (A) (A) (A) (A) (A) (A)
                 (A) (A) (A) (A) (A) (A) (A) (A) (A) (A) (A) (A)
                 (A) (A) (A) (A) (A) (A) (A) (A) (A) (A) (A) (A)
                 (A) (A) (A) (A) (A) (A) (A) (A) (A) (A) (A) (A)
                 (A) (A) (A) (A) (A) (A) (A) (A) (A) (A) (A) (A)
                 (A) (A) (A) (A) (A) (A) (A) (A) (A) (A) (A) (A)
                 (A) (A) (A) (A) (A) (A)
       Virtual   (A) (A) (A) (A) (A) (A) (A) (A) (A) (A) (A) (A)
                 (A) (A) (A) (A) (A) (A) (A) (A) (A) (A) (A) (A)
                 (A) (A) (A) (A) (A) (A) (A) (A) (A) (A) (A) (A)
                 (A) (A) (A) (A) (A) (A) (A) (A) (A) (A) (A) (A)
                 (A) (A) (A) (A) (A) (A) (A) (A) (A) (A) (A) (A)
                 (A) (A) (A) (A) (A) (A) (A) (A) (A) (A) (A) (A)
                 (A) (A) (A) (A) (A) (A) (A) (A) (A) (A) (A) (A)
                 (A) (A) (A) (A) (A) (A) (A) (A) (A) (A) (A) (A)
                 (A) (A) (A) (A) (A) (A) (A) (A) (A) (A) (A) (A)
                 (A) (A) (A) (A) (A) (A) (A) (A) (A) (A) (A) (A)
                 (A) (A) (A) (A) (A) (A) (A) (A) (A) (A) (A) (A)
                 (A) (A) (A) (A) (A) (A) (A) (A) (A) (A) (A) (A)
                 (A) (A) (A) (A) (A) (A) (A) (A) (A) (A) (A) (A)
                 (A) (A) (A) (A) (A) (A) (A) (A) (A) (A) (A) (A)
                 (A) (A) (A) (A) (A) (A) (A) (A) (A) (A) (A) (A)
                 (A) (A) (A) (A) (A) (A) (A) (A) (A) (A) (A) (A)
                 (A) (A) (A) (A) (A) (A) (A) (A) (A) (A) (A) (A)
                 (A) (A) (A) (A) (A) (A) (A) (A) (A) (A) (A) (A)
                 (A) (A) (A) (A) (A) (A) (A) (A) (A) (A) (A) (A)
                 (A) (A) (A) (A) (A) (A) (A) (A) (A) (A) (A) (A)
                 (A) (A) (A) (A) (A) (A) (A) (A) (A) (A) (A) (A)
                 (A) (A) (A) (A) (A) (A) (A) (A) (A) (A) (A) (A)
                 (A) (A) (A) (A) (A) (A) (A) (A) (A) (A) (A) (A)
                 (A) (A) (A) (A) (A) (A) (A) (A) (A) (A) (A) (A)
                 (A) (A) (A) (A) (A) (A) (A) (A) (A) (A) (A) (A)
                 (A) (A) (A) (A) (A) (A) (A) (A) (A) (A) (A) (A)
                 (A) (A) (A) (A) (A) (A) (A) (A) (A) (A) (A) (A)
                 (A) (A) (A) (A) (A) (A) (A) (A) (A) (A) (A) (A)
                 (A) (A) (A) (A) (A) (A) (A) (A) (A) (A) (A) (A)
                 (A) (A) (A) (A) (A) (A) (A) (A) (A) (A) (A) (A)
                 (A) (A) (A) (A) (A) (A) (A) (A) (A) (A) (A) (A)
                 (A) (A) (A) (A) (A) (A) (A) (A) (A) (A) (A) (A)
                 (A) (A) (A) (A) (A) (A) (A) (A) (A) (A) (A) (A)
                 (A) (A) (A) (A) (A) (A) (A) (A) (A) (A) (A) (A)
                 (A) (A) (A) (A) (A) (A) (A) (A) (A) (A) (A) (A)
                 (A) (A) (A) (A) (A) (A) (A) (A) (A) (A) (A) (A)
                 (A) (A) (A) (A) (A) (A) (A) (A) (A) (A) (A) (A)
                 (A) (A) (A) (A) (A) (A) (A) (A) (A) (A) (A) (A)
                 (A) (A) (A) (A) (A) (A) (A) (A) (A) (A) (A) (A)
                 (A) (A) (A) (A) (A) (A) (A) (A) (A) (A) (A) (A)
                 (A) (A) (A) (A) (A) (A) (A) (A) (A) (A) (A) (A)
                 (A) (A) (A) (A) (A) (A) (A) (A) (A) (A) (A) (A)
                 (A) (A) (A) (A) (A) (A) (A) (A) (A) (A) (A) (A)
                 (A) (A) (A) (A) (A) (A) (A) (A) (A) (A) (A) (A)
                 (A) (A) (A) (A) (A) (A) (A) (A) (A) (A) (A) (A)
                 (A) (A) (A) (A) (A) (A) (A) (A) (A) (A) (A) (A)
                 (A) (A) (A) (A) (A) (A) (A) (A) (A) (A) (A) (A)
                 (A) (A) (A) (A) (A) (A) (A) (A) (A) (A) (A) (A)
                 (A) (A) (A) (A) (A) (A) (A) (A) (A) (A) (A) (A)
                 (A) (A) (A) (A) (A) (A) (A) (A) (A) (A) (A) (A)
                 (A) (A) (A) (A) (A) (A) (A) (A) (A) (A) (A) (A)
                 (A) (A) (A) (A) (A) (A) (A) (A) (A) (A) (A) (A)
                 (A) (A) (A) (A) (A) (A) (A) (A) (A) (A) (A) (A)
                 (A) (A) (A) (A) (A) (A) (A) (A) (A) (A) (A) (A)
                 (A) (A) (A) (A) (A) (A) (A) (A) (A) (A) (A) (A)
                 (A) (A) (A) (A) (A) (A) (A) (A) (A) (A) (A) (A)
                 (A) (A) (A) (A) (A) (A) (A) (A) (A) (A) (A) (A)
                 (A) (A) (A) (A) (A) (A) (A) (A) (A) (A) (A) (A)
                 (A) (A) (A) (A) (A) (A) (A) (A) (A) (A) (A) (A)
                 (A) (A) (A) (A) (A) (A) (A) (A) (A) (A) (A) (A)
                 (A) (A) (A) (A) (A) (A) (A) (A) (A) (A) (A) (A)
                 (A) (A) (A) (A) (A) (A) (A) (A) (A) (A) (A) (A)
                 (A) (A) (A) (A) (A) (A) (A) (A) (A) (A) (A) (A)
                 (A) (A) (A) (A) (A) (A) (A) (A) (A) (A) (A) (A)
                 (A) (A) (A) (A) (A) (A) (A) (A) (A) (A) (A) (A)
                 (A) (A) (A) (A) (A) (A) (A) (A) (A) (A) (A) (A)
                 (A) (A) (A) (A) (A) (A) (A) (A) (A) (A) (A) (A)
                 (A) (A) (A) (A) (A) (A) (A) (A) (A) (A) (A) (A)
                 (A) (A) (A) (A) (A) (A) (A) (A) (A) (A) (A) (A)
                 (A) (A) (A) (A) (A) (A) (A) (A) (A) (A) (A) (A)
                 (A) (A) (A) (A) (A) (A) (A) (A) (A) (A) (A) (A)
                 (A) (A) (A) (A) (A) (A) (A) (A) (A) (A) (A) (A)
                 (A) (A) (A) (A) (A) (A) (A) (A) (A) (A) (A) (A)
                 (A) (A) (A) (A) (A) (A) (A) (A) (A) (A) (A) (A)
                 (A) (A) (A) (A) (A) (A) (A) (A) (A) (A) (A) (A)
                 (A) (A) (A) (A) (A) (A) (A) (A) (A) (A) (A) (A)
                 (A) (A) (A) (A) (A) (A) (A) (A) (A) (A) (A) (A)
                 (A) (A) (A) (A) (A) (A) (A) (A) (A) (A) (A) (A)
                 (A) (A) (A) (A) (A) (A) (A) (A) (A) (A) (A) (A)
                 (A) (A) (A) (A) (A) (A) (A) (A) (A) (A) (A) (A)
                 (A) (A) (A) (A) (A) (A) (A) (A) (A) (A) (A) (A)
                 (A) (A) (A) (A) (A) (A) (A) (A) (A) (A) (A) (A)
                 (A) (A) (A) (A) (A) (A) (A) (A) (A) (A) (A) (A)
                 (A) (A) (A) (A) (A) (A) (A) (A) (A) (A) (A) (A)
                 (A) (A) (A) (A) (A) (A) (A) (A) (A) (A) (A) (A)
                 (A) (A) (A) (A) (A) (A) (A) (A) (A) (A) (A) (A)
                 (A) (A) (A) (A) (A) (A) (A) (A) (A) (A) (A) (A)
                 (A) (A) (A) (A) (A) (A) (A) (A) (A) (A) (A) (A)
                 (A) (A) (A) (A) (A) (A) (A) (A) (A) (A) (A) (A)
                 (A) (A) (A) (A) (A) (A) (A) (A) (A) (A) (A) (A)
                 (A) (A) (A) (A) (A) (A) (A) (A) (A) (A) (A) (A)
                 (A) (A) (A) (A) (A) (A) (A) (A) (A) (A) (A) (A)
                 (A) (A) (A) (A) (A) (A) (A) (A) (A) (A) (A) (A)
                 (A) (A) (A) (A) (A) (A) (A) (A) (A) (A) (A) (A)
                 (A) (A) (A) (A) (A) (A) (A) (A) (A) (A) (A) (A)
                 (A) (A) (A) (A) (A) (A) (A) (A) (A) (A) (A) (A)
                 (A) (A) (A) (A) (A) (A) (A) (A) (A) (A) (A) (A)
                 (A) (A) (A) (A) (A) (A) (A) (A) (A) (A) (A) (A)
                 (A) (A) (A) (A) (A) (A) (A) (A) (A) (A) (A) (A)
                 (A) (A) (A) (A) (A) (A) (A) (A) (A) (A) (A) (A)
                 (A) (A) (A) (A) (A) (A) (A) (A) (A) (A) (A) (A)
                 (A) (A) (A) (A) (A) (A) (A) (A) (A) (A) (A) (A)
                 (A) (A) (A) (A) (A) (A) (A) (A) (A) (A) (A) (A)
                 (A) (A) (A) (A) (A) (A) (A) (A) (A) (A) (A) (A)
                 (A) (A) (A) (A) (A) (A) (A) (A) (A) (A) (A) (A)
                 (A) (A) (A) (A) (A) (A) (A) (A) (A) (A) (A) (A)
                 (A) (A) (A) (A) (A) (A) (A) (A) (A) (A) (A) (A)
                 (A) (A) (A) (A) (A) (A) (A) (A) (A) (A) (A) (A)
                 (A) (A) (A) (A) (A) (A) (A) (A) (A) (A) (A) (A)
                 (A) (A) (A) (A) (A) (A) (A) (A) (A) (A) (A) (A)
                 (A) (A) (A) (A) (A) (A) (A) (A) (A) (A) (A) (A)
                 (A) (A) (A) (A) (A) (A) (A) (A) (A) (A) (A) (A)
                 (A) (A) (A) (A) (A) (A) (A) (A) (A) (A) (A) (A)
                 (A) (A) (A) (A) (A) (A) (A) (A) (A) (A) (A) (A)
                 (A) (A) (A) (A) (A) (A) (A) (A) (A) (A) (A) (A)
                 (A) (A) (A) (A) (A) (A) (A) (A) (A) (A) (A) (A)
                 (A) (A) (A) (A) (A) (A) (A) (A) (A) (A) (A) (A)
                 (A) (A) (A) (A) (A) (A) (A) (A) (A) (A) (A) (A)
                 (A) (A) (A) (A) (A) (A) (A) (A) (A) (A) (A) (A)
                 (A) (A) (A) (A) (A) (A) (A) (A) (A) (A) (A) (A)
                 (A) (A) (A) (A) (A) (A) (A) (A) (A) (A) (A) (A)
                 (A) (A) (A) (A) (A) (A) (A) (A) (A) (A) (A) (A)
                 (A) (A) (A) (A) (A) (A) (A) (A) (A) (A) (A) (A)
                 (A) (A) (A) (A) (A) (A) (A) (A) (A) (A) (A) (A)
                 (A) (A) (A) (A) (A) (A) (A) (A) (A) (A) (A) (A)
                 (A) (A) (A) (A) (A) (A) (A) (A) (A) (A) (A) (A)
                 (A) (A) (A) (A) (A) (A) (A) (A) (A) (A) (A) (A)
                 (A) (A) (A) (A) (A) (A) (A) (A) (A) (A) (A) (A)
                 (A) (A) (A) (A) (A) (A) (A) (A) (A) (A) (A) (A)
                 (A) (A) (A) (A) (A) (A) (A) (A) (A) (A) (A) (A)
                 (A) (A) (A) (A) (A) (A) (A) (A) (A) (A) (A) (A)
                 (A) (A) (A) (A) (A) (A) (A) (A) (A) (A) (A) (A)
                 (A) (A) (A) (A) (A) (A) (A) (A) (A) (A) (A) (A)
                 (A) (A) (A) (A) (A) (A) (A) (A) (A) (A) (A) (A)
                 (A) (A) (A) (A) (A) (A) (A) (A) (A) (A) (A) (A)
                 (A) (A) (A) (A) (A) (A) (A) (A) (A) (A) (A)
 The electronic state is 2-A.
 Alpha  occ. eigenvalues --  -25.19641 -25.19462 -19.64733 -19.64731 -14.97786
 Alpha  occ. eigenvalues --  -14.94934 -14.94930 -14.85032 -14.85015 -14.81741
 Alpha  occ. eigenvalues --  -14.81739 -14.76621 -14.76435 -10.60535 -10.60533
 Alpha  occ. eigenvalues --  -10.59882 -10.57718 -10.57669 -10.57520 -10.57488
 Alpha  occ. eigenvalues --  -10.57273 -10.56935 -10.56413 -10.56411 -10.56101
 Alpha  occ. eigenvalues --  -10.56101 -10.55724 -10.55716 -10.55710 -10.55634
 Alpha  occ. eigenvalues --  -10.55544 -10.55472 -10.55458 -10.55390 -10.55376
 Alpha  occ. eigenvalues --  -10.55301 -10.55013 -10.55009 -10.54907 -10.54884
 Alpha  occ. eigenvalues --  -10.54855 -10.54773 -10.53195 -10.53160 -10.52807
 Alpha  occ. eigenvalues --  -10.52740  -7.11806  -1.31527  -1.31416  -1.28167
 Alpha  occ. eigenvalues --   -1.27813  -1.27803  -1.13480  -1.10702  -1.10693
 Alpha  occ. eigenvalues --   -1.08673  -1.06743  -0.99183  -0.97644  -0.97635
 Alpha  occ. eigenvalues --   -0.93736  -0.91336  -0.91160  -0.89474  -0.88815
 Alpha  occ. eigenvalues --   -0.88492  -0.86369  -0.86184  -0.85735  -0.85653
 Alpha  occ. eigenvalues --   -0.84949  -0.80518  -0.80392  -0.78914  -0.78222
 Alpha  occ. eigenvalues --   -0.76216  -0.74502  -0.71701  -0.71324  -0.70796
 Alpha  occ. eigenvalues --   -0.70430  -0.68642  -0.67850  -0.67491  -0.65581
 Alpha  occ. eigenvalues --   -0.64730  -0.64658  -0.63803  -0.63357  -0.62915
 Alpha  occ. eigenvalues --   -0.61424  -0.61182  -0.61175  -0.61153  -0.60920
 Alpha  occ. eigenvalues --   -0.60078  -0.59472  -0.59225  -0.58810  -0.57571
 Alpha  occ. eigenvalues --   -0.57152  -0.56529  -0.56396  -0.55678  -0.55527
 Alpha  occ. eigenvalues --   -0.53907  -0.53444  -0.53304  -0.53008  -0.52585
 Alpha  occ. eigenvalues --   -0.52153  -0.51797  -0.51590  -0.50913  -0.50593
 Alpha  occ. eigenvalues --   -0.50510  -0.50020  -0.49825  -0.49667  -0.48986
[...]
     7 C(13)  Bbb     0.0074     0.993     0.354     0.331 -0.2512  0.9450  0.2094
              Bcc     0.0106     1.417     0.506     0.473  0.9612  0.2691 -0.0614
 
              Baa    -0.0119    -1.598    -0.570    -0.533 -0.4119  0.8860  0.2127
     8 C(13)  Bbb    -0.0113    -1.512    -0.539    -0.504  0.9022  0.4293 -0.0408
              Bcc     0.0232     3.109     1.109     1.037  0.1275 -0.1751  0.9763
 
              Baa    -0.0100    -1.345    -0.480    -0.449  0.1217 -0.1797  0.9762
     9 C(13)  Bbb     0.0044     0.587     0.210     0.196 -0.5884  0.7789  0.2168
              Bcc     0.0056     0.757     0.270     0.253  0.7993  0.6008  0.0109
 
              Baa    -0.0144    -1.932    -0.689    -0.644 -0.2748  0.9379  0.2115
    10 C(13)  Bbb    -0.0139    -1.859    -0.663    -0.620  0.9534  0.2943 -0.0664
              Bcc     0.0282     3.791     1.353     1.264  0.1245 -0.1834  0.9751
 
              Baa    -0.0056    -0.217    -0.077    -0.072  0.1272 -0.1907  0.9734
    11 N(14)  Bbb     0.0017     0.066     0.024     0.022  0.2913  0.9452  0.1471
              Bcc     0.0039     0.151     0.054     0.050  0.9481 -0.2649 -0.1758
 
              Baa    -0.0036    -0.138    -0.049    -0.046  0.3274  0.9344  0.1401
    12 N(14)  Bbb    -0.0001    -0.004    -0.002    -0.001  0.9347 -0.2985 -0.1930
              Bcc     0.0037     0.142     0.051     0.047  0.1385 -0.1942  0.9711
 
              Baa    -0.0125    -0.481    -0.172    -0.160  0.7960 -0.5659 -0.2147
    13 N(14)  Bbb    -0.0098    -0.377    -0.135    -0.126  0.5916  0.8024  0.0785
              Bcc     0.0222     0.858     0.306     0.286  0.1279 -0.1895  0.9735
 
              Baa    -0.0107    -1.442    -0.514    -0.481  0.1225 -0.1818  0.9757
    14 C(13)  Bbb     0.0048     0.648     0.231     0.216 -0.2057  0.9571  0.2041
              Bcc     0.0059     0.794     0.283     0.265  0.9709  0.2257 -0.0798
 
              Baa    -0.0123    -1.645    -0.587    -0.549 -0.5259  0.8233  0.2137
    15 C(13)  Bbb    -0.0112    -1.500    -0.535    -0.500  0.8416  0.5400 -0.0088
              Bcc     0.0234     3.145     1.122     1.049  0.1226 -0.1752  0.9769
 
              Baa    -0.0223    -0.859    -0.306    -0.286  0.2471  0.9601 -0.1310
    16 N(14)  Bbb    -0.0174    -0.672    -0.240    -0.224  0.9134 -0.2759 -0.2994
              Bcc     0.0397     1.530     0.546     0.510  0.3236  0.0456  0.9451
 
              Baa    -0.0549    -7.366    -2.628    -2.457  0.0805 -0.0373  0.9961
    17 C(13)  Bbb     0.0229     3.074     1.097     1.025  0.8527 -0.5149 -0.0882
              Bcc     0.0320     4.292     1.531     1.432  0.5162  0.8564 -0.0096
 
              Baa    -0.1423   -19.092    -6.813    -6.369 -0.0719  0.9939  0.0840
    18 C(13)  Bbb    -0.1346   -18.058    -6.443    -6.023  0.9974  0.0720  0.0012
              Bcc     0.2768    37.150    13.256    12.392  0.0048 -0.0839  0.9965
 
              Baa    -0.0258    -3.459    -1.234    -1.154 -0.0011 -0.2272  0.9738
    19 C(13)  Bbb    -0.0095    -1.268    -0.452    -0.423  0.9982  0.0580  0.0146
              Bcc     0.0352     4.727     1.687     1.577 -0.0598  0.9721  0.2267
 
              Baa    -0.0159    -2.137    -0.763    -0.713  0.2451 -0.2915  0.9246
    20 C(13)  Bbb    -0.0087    -1.164    -0.415    -0.388  0.9282 -0.2049 -0.3107
              Bcc     0.0246     3.301     1.178     1.101  0.2800  0.9344  0.2204
 
              Baa    -0.0125    -1.684    -0.601    -0.562  0.2499  0.6968 -0.6723
    21 C(13)  Bbb    -0.0077    -1.039    -0.371    -0.347  0.8454  0.1815  0.5024
              Bcc     0.0203     2.723     0.972     0.908 -0.4721  0.6939  0.5437
 
              Baa    -0.0381    -5.107    -1.822    -1.703  0.0405 -0.5610  0.8269
    22 C(13)  Bbb    -0.0243    -3.267    -1.166    -1.090  0.9973  0.0734  0.0010
              Bcc     0.0624     8.374     2.988     2.793 -0.0612  0.8246  0.5624
 
              Baa    -0.0835    -3.222    -1.150    -1.075  0.0398 -0.5528  0.8324
    23 N(14)  Bbb    -0.0768    -2.964    -1.057    -0.989  0.9974  0.0723  0.0003
              Bcc     0.1604     6.186     2.207     2.063 -0.0603  0.8302  0.5542
 
              Baa    -0.1793    12.977     4.631     4.329  0.5645 -0.4262  0.7069
    24 O(17)  Bbb    -0.1676    12.125     4.326     4.044  0.8246  0.3290 -0.4602
              Bcc     0.3469   -25.102    -8.957    -8.373 -0.0364  0.8427  0.5371
 
              Baa    -0.1793    12.975     4.630     4.328 -0.4976 -0.5033  0.7064
    25 O(17)  Bbb    -0.1675    12.122     4.325     4.043  0.8630 -0.2059  0.4613
              Bcc     0.3468   -25.097    -8.955    -8.372 -0.0867  0.8392  0.5368
 
              Baa    -0.0125    -1.675    -0.598    -0.559  0.3487 -0.6513  0.6739
    26 C(13)  Bbb    -0.0076    -1.015    -0.362    -0.339  0.8656 -0.0519 -0.4980
              Bcc     0.0200     2.690     0.960     0.897  0.3594  0.7570  0.5457
 
              Baa    -0.0161    -2.155    -0.769    -0.719 -0.1950 -0.3255  0.9252
    27 C(13)  Bbb    -0.0088    -1.185    -0.423    -0.395  0.8892  0.3394  0.3068
              Bcc     0.0249     3.340     1.192     1.114 -0.4138  0.8826  0.2232
 
              Baa    -0.0527    -7.069    -2.522    -2.358 -0.1056 -0.0920  0.9901
    28 C(13)  Bbb     0.0223     2.990     1.067     0.997  0.7616  0.6328  0.1400
              Bcc     0.0304     4.079     1.456     1.361 -0.6394  0.7689  0.0032
 
              Baa    -0.0566    -7.590    -2.708    -2.532  0.9952 -0.0343  0.0917
    29 C(13)  Bbb    -0.0555    -7.448    -2.658    -2.484  0.0143  0.9776  0.2100
              Bcc     0.1121    15.038     5.366     5.016 -0.0969 -0.2077  0.9734
 
              Baa    -0.0020    -0.268    -0.096    -0.089  0.1982 -0.4138  0.8885
    30 C(13)  Bbb     0.0001     0.013     0.004     0.004  0.7986 -0.4574 -0.3911
              Bcc     0.0019     0.256     0.091     0.085  0.5682  0.7871  0.2399
 
              Baa    -0.0306    -4.111    -1.467    -1.371 -0.1236 -0.1663  0.9783
    31 C(13)  Bbb     0.0148     1.980     0.707     0.660 -0.1255  0.9806  0.1508
              Bcc     0.0159     2.131     0.760     0.711  0.9844  0.1041  0.1421
 
              Baa    -0.0669    -8.982    -3.205    -2.996 -0.0105  0.9934  0.1141
    32 C(13)  Bbb    -0.0655    -8.789    -3.136    -2.932  0.9968  0.0013  0.0802
              Bcc     0.1324    17.771     6.341     5.928 -0.0795 -0.1145  0.9902
 
              Baa    -0.0477    -6.400    -2.284    -2.135 -0.0548 -0.0243  0.9982
    33 C(13)  Bbb     0.0204     2.738     0.977     0.913  0.5684  0.8212  0.0512
              Bcc     0.0273     3.662     1.307     1.222  0.8209 -0.5702  0.0312
 
              Baa    -0.0510    -6.838    -2.440    -2.281 -0.1665  0.9860  0.0091
    34 C(13)  Bbb    -0.0483    -6.478    -2.311    -2.161  0.9847  0.1658  0.0543
              Bcc     0.0992    13.316     4.751     4.442 -0.0520 -0.0180  0.9985
 
              Baa    -0.0176    -2.361    -0.843    -0.788 -0.0435 -0.0225  0.9988
    35 C(13)  Bbb     0.0073     0.974     0.348     0.325  0.1586  0.9869  0.0291
              Bcc     0.0103     1.387     0.495     0.463  0.9864 -0.1596  0.0394
 
              Baa    -0.0116    -1.550    -0.553    -0.517  0.3367  0.9407  0.0406
    36 C(13)  Bbb    -0.0110    -1.473    -0.526    -0.491  0.9410 -0.3377  0.0202
              Bcc     0.0225     3.024     1.079     1.009 -0.0327 -0.0314  0.9990
 
              Baa    -0.0099    -1.329    -0.474    -0.443 -0.0389 -0.0250  0.9989
    37 C(13)  Bbb     0.0044     0.587     0.210     0.196  0.5570  0.8294  0.0425
              Bcc     0.0055     0.742     0.265     0.247  0.8296 -0.5581  0.0184
 
              Baa    -0.0142    -1.906    -0.680    -0.636  0.5803  0.8133  0.0413
    38 C(13)  Bbb    -0.0135    -1.817    -0.648    -0.606  0.8134 -0.5813  0.0186
              Bcc     0.0277     3.723     1.329     1.242 -0.0391 -0.0228  0.9990
 
              Baa    -0.0057    -0.220    -0.078    -0.073 -0.0381 -0.0256  0.9989
    39 N(14)  Bbb     0.0017     0.065     0.023     0.022  0.8247  0.5638  0.0459
              Bcc     0.0040     0.155     0.055     0.052 -0.5643  0.8255 -0.0003
 
              Baa    -0.0036    -0.139    -0.050    -0.046  0.8472  0.5291  0.0480
    40 N(14)  Bbb    -0.0000    -0.001    -0.000    -0.000 -0.5300  0.8480  0.0057
              Bcc     0.0036     0.140     0.050     0.047 -0.0377 -0.0303  0.9988
 
              Baa    -0.0123    -0.476    -0.170    -0.159 -0.2614  0.9651  0.0145
    41 N(14)  Bbb    -0.0098    -0.377    -0.135    -0.126  0.9644  0.2605  0.0451
              Bcc     0.0221     0.853     0.304     0.285 -0.0398 -0.0258  0.9989
 
              Baa    -0.0105    -1.408    -0.502    -0.470 -0.0384 -0.0249  0.9990
    42 C(13)  Bbb     0.0047     0.624     0.223     0.208  0.1566  0.9872  0.0306
              Bcc     0.0058     0.784     0.280     0.261  0.9869 -0.1576  0.0340
 
              Baa    -0.0121    -1.628    -0.581    -0.543  0.4385  0.8978  0.0405
    43 C(13)  Bbb    -0.0110    -1.476    -0.527    -0.492  0.8979 -0.4395  0.0226
              Bcc     0.0231     3.104     1.108     1.035 -0.0380 -0.0264  0.9989
 
              Baa    -0.0236    -0.911    -0.325    -0.304 -0.4106  0.9057 -0.1051
    44 N(14)  Bbb    -0.0182    -0.703    -0.251    -0.235  0.8312  0.4192  0.3652
              Bcc     0.0418     1.614     0.576     0.538 -0.3748 -0.0626  0.9250
 
              Baa    -0.0021    -0.356    -0.127    -0.119  0.0576 -0.2333  0.9707
    45 B(11)  Bbb     0.0006     0.107     0.038     0.036  0.8724  0.4845  0.0647
              Bcc     0.0015     0.249     0.089     0.083 -0.4854  0.8431  0.2315
 
              Baa    -0.0082    -4.094    -1.461    -1.366  0.0722  0.9512 -0.3000
    46 F(19)  Bbb    -0.0061    -3.071    -1.096    -1.024 -0.4503  0.2995  0.8412
              Bcc     0.0143     7.166     2.557     2.390  0.8900  0.0744  0.4499
 
              Baa    -0.0040    -2.001    -0.714    -0.668  0.2188 -0.0135  0.9757
    47 F(19)  Bbb    -0.0024    -1.196    -0.427    -0.399 -0.1183  0.9922  0.0402
              Bcc     0.0064     3.197     1.141     1.066  0.9686  0.1242 -0.2154
 
              Baa    -0.0023    -1.239    -0.442    -0.413 -0.1984  0.0387  0.9793
    48 H(1)   Bbb     0.0004     0.222     0.079     0.074  0.3638  0.9307  0.0369
              Bcc     0.0019     1.018     0.363     0.339  0.9101 -0.3636  0.1988
 
              Baa    -0.0023    -1.208    -0.431    -0.403  0.1747 -0.4071  0.8965
    49 H(1)   Bbb     0.0001     0.040     0.014     0.013  0.6150  0.7562  0.2235
              Bcc     0.0022     1.168     0.417     0.390  0.7689 -0.5124 -0.3825
 
              Baa    -0.0014    -0.766    -0.273    -0.255  0.1680 -0.1647  0.9719
    50 H(1)   Bbb    -0.0008    -0.431    -0.154    -0.144  0.8165  0.5757 -0.0435
              Bcc     0.0022     1.196     0.427     0.399 -0.5524  0.8009  0.2312
 
              Baa    -0.0020    -1.063    -0.379    -0.355  0.0568 -0.1556  0.9862
    51 H(1)   Bbb    -0.0004    -0.203    -0.072    -0.068  0.2059  0.9684  0.1409
              Bcc     0.0024     1.265     0.452     0.422  0.9769 -0.1950 -0.0870
 
              Baa    -0.0022    -1.162    -0.415    -0.388 -0.5779  0.8140  0.0590
    52 H(1)   Bbb    -0.0019    -1.037    -0.370    -0.346  0.0264 -0.0537  0.9982
              Bcc     0.0041     2.200     0.785     0.734  0.8157  0.5784  0.0095
 
              Baa    -0.0050    -2.669    -0.952    -0.890  0.7146  0.6977  0.0505
    53 H(1)   Bbb    -0.0015    -0.820    -0.292    -0.273  0.0844 -0.1577  0.9839
              Bcc     0.0065     3.489     1.245     1.164 -0.6944  0.6988  0.1716
 
              Baa    -0.0009    -0.463    -0.165    -0.155  0.9967 -0.0748  0.0305
    54 H(1)   Bbb    -0.0007    -0.400    -0.143    -0.133 -0.0403 -0.1338  0.9902
              Bcc     0.0016     0.863     0.308     0.288  0.0700  0.9882  0.1364
 
              Baa    -0.0005    -0.283    -0.101    -0.094  0.1116 -0.1592  0.9809
    55 H(1)   Bbb    -0.0003    -0.179    -0.064    -0.060 -0.6362  0.7469  0.1936
              Bcc     0.0009     0.462     0.165     0.154  0.7634  0.6456  0.0179
 
              Baa    -0.0005    -0.244    -0.087    -0.081  0.1194 -0.1646  0.9791
    56 H(1)   Bbb    -0.0002    -0.129    -0.046    -0.043 -0.1035  0.9787  0.1771
              Bcc     0.0007     0.372     0.133     0.124  0.9874  0.1224 -0.0998
 
              Baa    -0.0008    -0.422    -0.151    -0.141  0.1319 -0.1757  0.9756
    57 H(1)   Bbb    -0.0005    -0.288    -0.103    -0.096  0.7645  0.6445  0.0127
              Bcc     0.0013     0.710     0.253     0.237 -0.6309  0.7442  0.2193
 
              Baa    -0.0026    -1.378    -0.492    -0.460 -0.0211  0.6982  0.7156
    58 H(1)   Bbb     0.0010     0.525     0.187     0.175  0.9950  0.0842 -0.0528
              Bcc     0.0016     0.853     0.305     0.285 -0.0971  0.7109 -0.6966
 
              Baa    -0.0023    -1.239    -0.442    -0.413  0.0063  0.7401  0.6725
    59 H(1)   Bbb     0.0003     0.183     0.065     0.061  0.3404 -0.6339  0.6945
              Bcc     0.0020     1.056     0.377     0.352  0.9403  0.2245 -0.2559
 
              Baa    -0.0023    -1.244    -0.444    -0.415 -0.1126  0.7319  0.6721
    60 H(1)   Bbb     0.0003     0.182     0.065     0.061 -0.2367 -0.6767  0.6972
              Bcc     0.0020     1.062     0.379     0.354  0.9650 -0.0805  0.2495
 
              Baa    -0.0026    -1.366    -0.487    -0.456 -0.0956  0.6880  0.7194
    61 H(1)   Bbb     0.0010     0.518     0.185     0.173  0.9910 -0.0024  0.1341
              Bcc     0.0016     0.848     0.303     0.283  0.0940  0.7257 -0.6815
 
              Baa    -0.0023    -1.205    -0.430    -0.402 -0.1351 -0.4762  0.8689
    62 H(1)   Bbb     0.0000     0.017     0.006     0.006  0.7368 -0.6346 -0.2332
              Bcc     0.0022     1.188     0.424     0.396  0.6625  0.6087  0.4366
 
              Baa    -0.0014    -0.748    -0.267    -0.250 -0.1601 -0.2448  0.9563
    63 H(1)   Bbb    -0.0008    -0.412    -0.147    -0.137  0.8835 -0.4675  0.0282
              Bcc     0.0022     1.160     0.414     0.387  0.4402  0.8494  0.2911
 
              Baa    -0.0023    -1.224    -0.437    -0.408  0.1768 -0.0073  0.9842
    64 H(1)   Bbb     0.0005     0.244     0.087     0.081 -0.4633  0.8817  0.0897
              Bcc     0.0018     0.980     0.350     0.327  0.8684  0.4718 -0.1525
 
              Baa    -0.0019    -1.040    -0.371    -0.347 -0.1203 -0.1500  0.9813
    65 H(1)   Bbb    -0.0003    -0.160    -0.057    -0.053 -0.3386  0.9354  0.1014
              Bcc     0.0022     1.200     0.428     0.400  0.9332  0.3201  0.1634
 
              Baa    -0.0021    -1.142    -0.408    -0.381  0.4717  0.8453  0.2510
    66 H(1)   Bbb    -0.0019    -1.013    -0.362    -0.338 -0.1462 -0.2057  0.9676
              Bcc     0.0040     2.156     0.769     0.719  0.8695 -0.4932  0.0266
 
              Baa    -0.0049    -2.596    -0.926    -0.866  0.7813 -0.6240  0.0119
    67 H(1)   Bbb    -0.0015    -0.813    -0.290    -0.271 -0.0601 -0.0563  0.9966
              Bcc     0.0064     3.409     1.216     1.137  0.6212  0.7794  0.0815
 
              Baa    -0.0009    -0.454    -0.162    -0.152  0.9661  0.1516  0.2092
    68 H(1)   Bbb    -0.0007    -0.392    -0.140    -0.131 -0.1996 -0.0762  0.9769
              Bcc     0.0016     0.846     0.302     0.282 -0.1640  0.9855  0.0434
 
              Baa    -0.0005    -0.253    -0.090    -0.084 -0.0306 -0.0143  0.9994
    69 H(1)   Bbb    -0.0003    -0.145    -0.052    -0.049  0.6119  0.7904  0.0300
              Bcc     0.0007     0.398     0.142     0.133  0.7904 -0.6124  0.0154
 
              Baa    -0.0005    -0.267    -0.095    -0.089 -0.0382 -0.0320  0.9988
    70 H(1)   Bbb    -0.0003    -0.160    -0.057    -0.053  0.0601  0.9976  0.0343
              Bcc     0.0008     0.427     0.152     0.142  0.9975 -0.0614  0.0362
 
              Baa    -0.0008    -0.419    -0.150    -0.140 -0.0103 -0.0412  0.9991
    71 H(1)   Bbb    -0.0005    -0.274    -0.098    -0.091  0.8239 -0.5665 -0.0149
              Bcc     0.0013     0.693     0.247     0.231  0.5666  0.8230  0.0398
 

 ---------------------------------------------------------------------------------

 No NMR shielding tensors so no spin-rotation constants.
 Leave Link  601 at Tue Oct 28 19:15:08 2025, MaxMem= 30870077440 cpu:             170.4 elap:               3.0
 (Enter /public/software/gauss/g16/l9999.exe)
 1\1\GINC-CU031\SP\UM062X\def2TZVPP\C33H24B1F2N9O2(1-,2)\BAIDING\28-Oct
 -2025\0\\#p M062X/DEF2TZVPP scrf=(solvent=water) em=GD3\\Energy calcul
 ation for BNP_N3_N3_reduced\\-1,2\C,0,4.455152,2.989505,-0.431428\C,0,
 3.046193,2.528665,-0.19936\C,0,1.953507,3.390622,-0.187389\C,0,0.77595
 8,2.631459,-0.042416\C,0,-0.593194,3.07488,0.013871\C,0,-0.988178,4.36
 0411,-0.175226\C,0,-2.352225,4.868329,-0.103452\C,0,-3.475366,4.061759
 ,0.186371\C,0,-4.754209,4.596077,0.244846\C,0,-4.951925,5.966661,0.014
 708\N,0,-6.221538,6.602229,0.056871\N,0,-7.219197,5.920526,0.3193\N,0,
 -8.217911,5.417285,0.547219\C,0,-3.856968,6.787848,-0.276086\C,0,-2.58
 1246,6.24154,-0.332803\N,0,1.129678,1.305406,0.052897\C,0,2.520031,1.2
 05978,-0.020768\C,0,3.151555,-0.066797,0.023227\C,0,4.617067,-0.170543
 ,0.025548\C,0,5.296327,-0.901335,-0.977948\C,0,6.674996,-0.998159,-0.9
 92092\C,0,7.426272,-0.382671,0.031594\N,0,8.829926,-0.485478,0.032869\
 O,0,9.49973,0.082414,0.9535\O,0,9.411186,-1.144573,-0.88697\C,0,6.7710
 46,0.335409,1.05441\C,0,5.393691,0.446154,1.034889\C,0,2.360615,-1.247
 003,0.078411\C,0,2.713258,-2.613349,0.339721\C,0,4.046839,-3.223262,0.
 657366\C,0,1.522735,-3.332195,0.340525\C,0,0.451924,-2.442122,0.119008
 \C,0,-0.959985,-2.723793,0.059733\C,0,-1.483528,-3.976857,0.063289\C,0
 ,-2.897348,-4.327519,0.016899\C,0,-3.941258,-3.377716,-0.047214\C,0,-5
 .270224,-3.771443,-0.090641\C,0,-5.602953,-5.133493,-0.070519\N,0,-6.9
 8959,-5.438947,-0.117433\N,0,-7.335989,-6.62578,-0.101423\N,0,-7.79336
 6,-7.671348,-0.093243\C,0,-4.588508,-6.097196,-0.006984\C,0,-3.26047,-
 5.690847,0.034997\N,0,0.972083,-1.178111,-0.022421\B,0,0.166832,0.1244
 19,-0.21013\F,0,-0.356592,0.206417,-1.514068\F,0,-0.908802,0.160988,0.
 702921\H,0,5.052066,3.018366,0.485952\H,0,4.985895,2.342783,-1.135796\
 H,0,4.439142,4.002144,-0.845023\H,0,2.000792,4.467361,-0.280706\H,0,-1
 .329705,2.311675,0.238799\H,0,-0.235133,5.112129,-0.404283\H,0,-3.3504
 57,2.999701,0.369846\H,0,-5.597346,3.949976,0.469457\H,0,-4.016114,7.8
 46229,-0.453887\H,0,-1.737106,6.886738,-0.558955\H,0,4.722052,-1.37012
 8,-1.770418\H,0,7.186263,-1.531661,-1.782923\H,0,7.352545,0.78391,1.84
 9404\H,0,4.893005,0.989688,1.829288\H,0,4.624455,-2.605861,1.351242\H,
 0,3.895421,-4.203507,1.118829\H,0,4.670171,-3.369613,-0.230931\H,0,1.4
 28213,-4.393584,0.526604\H,0,-1.620255,-1.865274,0.018625\H,0,-0.80505
 2,-4.827017,0.101971\H,0,-3.713043,-2.317228,-0.064299\H,0,-6.063762,-
 3.033072,-0.140373\H,0,-4.831709,-7.155264,0.009465\H,0,-2.479419,-6.4
 44414,0.083869\\Version=ES64L-G16RevA.03\State=2-A\HF=-2139.8160076\S2
 =0.782574\S2-1=0.\S2A=0.750893\RMSD=2.346e-09\Dipole=-5.2661197,0.0788
 721,0.4063994\Quadrupole=-107.1639928,57.938636,49.2253568,8.7083717,-
 0.561955,-2.096526\PG=C01 [X(C33H24B1F2N9O2)]\\@


      TO SUSPECT YOUR OWN MORTALITY IS TO KNOW THE BEGINNING OF TERROR.
      TO LEARN IRREFUTABLY THAT YOU ARE MORTAL IS TO KNOW THE END
      OF TERROR.

                                                  -- JESSICA
                                                     CHILDREN OF DUNE
                                                     BY FRANK HERBERT
 Job cpu time:       1 days 19 hours 12 minutes  9.2 seconds.
 Elapsed time:       0 days  0 hours 41 minutes  0.2 seconds.
 File lengths (MBytes):  RWF=   3462 Int=      0 D2E=      0 Chk=    224 Scr=      1
 Normal termination of Gaussian 16 at Tue Oct 28 19:15:10 2025.
