 Entering Gaussian System, Link 0=g16
 Input=BNP_23NO2_sp.gjf
 Output=BNP_23NO2_sp.log
 Initial command:
 /public/software/gauss/g16/l1.exe "/public/home/baiding/1024_sp/tmp_BNP_23NO2_sp_1526250/Gau-2936880.inp" -scrdir="/public/home/baiding/1024_sp/tmp_BNP_23NO2_sp_1526250/"
 Entering Link 1 = /public/software/gauss/g16/l1.exe PID=   2936881.
  
 Copyright (c) 1988,1990,1992,1993,1995,1998,2003,2009,2016,
            Gaussian, Inc.  All Rights Reserved.
  
 This is part of the Gaussian(R) 16 program.  It is based on
 the Gaussian(R) 09 system (copyright 2009, Gaussian, Inc.),
 the Gaussian(R) 03 system (copyright 2003, Gaussian, Inc.),
 the Gaussian(R) 98 system (copyright 1998, Gaussian, Inc.),
 the Gaussian(R) 94 system (copyright 1995, Gaussian, Inc.),
 the Gaussian 92(TM) system (copyright 1992, Gaussian, Inc.),
 the Gaussian 90(TM) system (copyright 1990, Gaussian, Inc.),
 the Gaussian 88(TM) system (copyright 1988, Gaussian, Inc.),
 the Gaussian 86(TM) system (copyright 1986, Carnegie Mellon
 University), and the Gaussian 82(TM) system (copyright 1983,
 Carnegie Mellon University). Gaussian is a federally registered
 trademark of Gaussian, Inc.
  
 This software contains proprietary and confidential information,
 including trade secrets, belonging to Gaussian, Inc.
  
 This software is provided under written license and may be
 used, copied, transmitted, or stored only in accord with that
 written license.
  
 The following legend is applicable only to US Government
 contracts under FAR:
  
                    RESTRICTED RIGHTS LEGEND
  
 Use, reproduction and disclosure by the US Government is
 subject to restrictions as set forth in subparagraphs (a)
 and (c) of the Commercial Computer Software - Restricted
 Rights clause in FAR 52.227-19.
  
 Gaussian, Inc.
 340 Quinnipiac St., Bldg. 40, Wallingford CT 06492
  
  
 ---------------------------------------------------------------
 Warning -- This program may not be used in any manner that
 competes with the business of Gaussian, Inc. or will provide
 assistance to any competitor of Gaussian, Inc.  The licensee
 of this program is prohibited from giving any competitor of
 Gaussian, Inc. access to this program.  By using this program,
 the user acknowledges that Gaussian, Inc. is engaged in the
 business of creating and licensing software in the field of
 computational chemistry and represents and warrants to the
 licensee that it is not a competitor of Gaussian, Inc. and that
 it will not use this program in any manner prohibited above.
 ---------------------------------------------------------------
  

 Cite this work as:
 Gaussian 16, Revision A.03,
 M. J. Frisch, G. W. Trucks, H. B. Schlegel, G. E. Scuseria, 
 M. A. Robb, J. R. Cheeseman, G. Scalmani, V. Barone, 
 G. A. Petersson, H. Nakatsuji, X. Li, M. Caricato, A. V. Marenich, 
 J. Bloino, B. G. Janesko, R. Gomperts, B. Mennucci, H. P. Hratchian, 
 J. V. Ortiz, A. F. Izmaylov, J. L. Sonnenberg, D. Williams-Young, 
 F. Ding, F. Lipparini, F. Egidi, J. Goings, B. Peng, A. Petrone, 
 T. Henderson, D. Ranasinghe, V. G. Zakrzewski, J. Gao, N. Rega, 
 G. Zheng, W. Liang, M. Hada, M. Ehara, K. Toyota, R. Fukuda, 
 J. Hasegawa, M. Ishida, T. Nakajima, Y. Honda, O. Kitao, H. Nakai, 
 T. Vreven, K. Throssell, J. A. Montgomery, Jr., J. E. Peralta, 
 F. Ogliaro, M. J. Bearpark, J. J. Heyd, E. N. Brothers, K. N. Kudin, 
 V. N. Staroverov, T. A. Keith, R. Kobayashi, J. Normand, 
 K. Raghavachari, A. P. Rendell, J. C. Burant, S. S. Iyengar, 
 J. Tomasi, M. Cossi, J. M. Millam, M. Klene, C. Adamo, R. Cammi, 
 J. W. Ochterski, R. L. Martin, K. Morokuma, O. Farkas, 
 J. B. Foresman, and D. J. Fox, Gaussian, Inc., Wallingford CT, 2016.
 
 ******************************************
 Gaussian 16:  ES64L-G16RevA.03 25-Dec-2016
                25-Oct-2025 
 ******************************************
 %nprocshared=64
 Will use up to   64 processors via shared memory.
 %mem=230GB
 %chk=BNP_23NO2_sp.chk
 ----------------------------------------------
 #p M062X/DEF2TZVPP scrf=(solvent=water) em=GD3
 ----------------------------------------------
 1/38=1,172=1/1;
 2/12=2,17=6,18=5,40=1/2;
 3/5=44,7=202,11=2,25=1,30=1,70=2201,72=1,74=-55,124=31/1,2,3;
 4//1;
 5/5=2,38=5,53=1/2;
 6/7=2,8=2,9=2,10=2,28=1/1;
 99/5=1,9=1/99;
 Leave Link    1 at Sat Oct 25 01:26:12 2025, MaxMem= 30870077440 cpu:              13.1 elap:               0.2
 (Enter /public/software/gauss/g16/l101.exe)
 --------------------------------
 Energy calculation for BNP_23NO2
 --------------------------------
 Symbolic Z-matrix:
 Charge =  0 Multiplicity = 1
 C                    -2.89144  -3.65625   0.15819 
 C                    -1.88269  -2.55107   0.07783 
 C                    -0.511    -2.74513   0.05276 
 C                     0.12284  -1.48246  -0.0321 
 C                     1.52679  -1.17604  -0.10572 
 C                     2.50503  -2.10593   0.03819 
 C                     3.93411  -1.85236  -0.03969 
 C                     4.50349  -0.576    -0.23004 
 C                     5.87791  -0.40796  -0.30635 
 C                     6.73086  -1.50524  -0.18407 
 N                     8.14947  -1.2952   -0.40608 
 O                     8.61795  -0.1839   -0.13949 
 O                     8.81076  -2.22443  -0.88028 
 C                     6.18015  -2.77918   0.02898 
 N                     7.00481  -3.95884   0.32249 
 O                     7.92312  -3.83108   1.12974 
 O                     6.69052  -5.01814  -0.21849 
 C                     4.81058  -2.95266   0.09449 
 N                    -0.84201  -0.51487  -0.05862 
 C                    -2.08476  -1.12946   0.00721 
 C                    -3.25978  -0.34945  -0.02539 
 C                    -4.58723  -1.0357   -0.00208 
 C                    -5.16552  -1.49501  -1.19469 
 C                    -6.39693  -2.14089  -1.17779 
 C                    -7.03627  -2.32388   0.04811 
 N                    -8.32821  -3.00554   0.07477 
 O                    -8.88778  -3.1635    1.1645 
 O                    -8.80921  -3.39682  -0.99348 
 C                    -6.48482  -1.87949   1.24956 
 C                    -5.25476  -1.23135   1.21609 
 C                    -3.19955   1.04712  -0.0955 
 C                    -4.24869   2.02292  -0.25273 
 C                    -5.73137   1.82818  -0.33233 
 C                    -3.61695   3.24639  -0.33524 
 C                    -2.21614   3.05866  -0.20186 
 C                    -1.29424   4.16787  -0.20757 
 C                    -0.0089    4.21237   0.22427 
 C                     0.8623    5.38448   0.20126 
 C                     0.50794   6.61523  -0.39204 
 C                     1.38822   7.692    -0.37185 
 C                     2.64332   7.5712    0.23635 
 C                     3.01261   6.3591    0.82346 
 C                     2.13285   5.27901   0.80375 
 N                    -1.96876   1.72219  -0.06918 
 B                    -0.59117   1.01368   0.02276 
 F                     0.23801   1.41758  -1.02999 
 F                     0.03667   1.30747   1.24639 
 H                    -3.51077  -3.71221  -0.74234 
 H                    -2.37508  -4.61275   0.27194 
 H                    -3.56969  -3.5327    1.00747 
 H                    -0.00688  -3.70125   0.0745 
 H                     1.78296  -0.14145  -0.3031 
 H                     2.23102  -3.14034   0.22707 
 H                     3.87092   0.2975   -0.33345 
 H                     6.30559   0.56934  -0.49302 
 H                     4.41388  -3.94397   0.28193 
 H                    -4.65096  -1.34452  -2.13734 
 H                    -6.85352  -2.49742  -2.09197 
 H                    -7.00767  -2.03827   2.18382 
 H                    -4.80917  -0.87734   2.13917 
 H                    -6.01579   1.18385  -1.16951 
 H                    -6.13418   1.37098   0.5763 
 H                    -6.21752   2.79729  -0.46921 
 H                    -4.09442   4.20921  -0.45881 
 H                    -1.76062   5.08173  -0.5668 
 H                     0.43206   3.32641   0.66582 
 H                    -0.45607   6.72945  -0.87713 
 H                     1.09846   8.63062  -0.8348 
 H                     3.32645   8.4151    0.24791 
 H                     3.98509   6.25469   1.29511 
 H                     2.42211   4.33658   1.26076 
 
 ITRead=  0  0  0  0  0  0  0  0  0  0  0  0  0  0  0  0  0  0  0  0
 ITRead=  0  0  0  0  0  0  0  0  0  0  0  0  0  0  0  0  0  0  0  0
 ITRead=  0  0  0  0  0  0  0  0  0  0  0  0  0  0  0  0  0  0  0  0
 ITRead=  0  0  0  0  0  0  0  0  0  0  0
 MicOpt= -1 -1 -1 -1 -1 -1 -1 -1 -1 -1 -1 -1 -1 -1 -1 -1 -1 -1 -1 -1
 MicOpt= -1 -1 -1 -1 -1 -1 -1 -1 -1 -1 -1 -1 -1 -1 -1 -1 -1 -1 -1 -1
 MicOpt= -1 -1 -1 -1 -1 -1 -1 -1 -1 -1 -1 -1 -1 -1 -1 -1 -1 -1 -1 -1
 MicOpt= -1 -1 -1 -1 -1 -1 -1 -1 -1 -1 -1
 NAtoms=     71 NQM=       71 NQMF=       0 NMMI=      0 NMMIF=      0
                NMic=       0 NMicF=      0.
                    Isotopes and Nuclear Properties:
 (Nuclear quadrupole moments (NQMom) in fm**2, nuclear magnetic moments (NMagM)
  in nuclear magnetons)

  Atom         1           2           3           4           5           6           7           8           9          10
 IAtWgt=          12          12          12          12          12          12          12          12          12          12
 AtmWgt=  12.0000000  12.0000000  12.0000000  12.0000000  12.0000000  12.0000000  12.0000000  12.0000000  12.0000000  12.0000000
 NucSpn=           0           0           0           0           0           0           0           0           0           0
 AtZEff=  -0.0000000  -0.0000000  -0.0000000  -0.0000000  -0.0000000  -0.0000000  -0.0000000  -0.0000000  -0.0000000  -0.0000000
 NQMom=    0.0000000   0.0000000   0.0000000   0.0000000   0.0000000   0.0000000   0.0000000   0.0000000   0.0000000   0.0000000
 NMagM=    0.0000000   0.0000000   0.0000000   0.0000000   0.0000000   0.0000000   0.0000000   0.0000000   0.0000000   0.0000000
 AtZNuc=   6.0000000   6.0000000   6.0000000   6.0000000   6.0000000   6.0000000   6.0000000   6.0000000   6.0000000   6.0000000

  Atom        11          12          13          14          15          16          17          18          19          20
 IAtWgt=          14          16          16          12          14          16          16          12          14          12
 AtmWgt=  14.0030740  15.9949146  15.9949146  12.0000000  14.0030740  15.9949146  15.9949146  12.0000000  14.0030740  12.0000000
 NucSpn=           2           0           0           0           2           0           0           0           2           0
 AtZEff=  -0.0000000  -0.0000000  -0.0000000  -0.0000000  -0.0000000  -0.0000000  -0.0000000  -0.0000000  -0.0000000  -0.0000000
 NQMom=    2.0440000   0.0000000   0.0000000   0.0000000   2.0440000   0.0000000   0.0000000   0.0000000   2.0440000   0.0000000
 NMagM=    0.4037610   0.0000000   0.0000000   0.0000000   0.4037610   0.0000000   0.0000000   0.0000000   0.4037610   0.0000000
 AtZNuc=   7.0000000   8.0000000   8.0000000   6.0000000   7.0000000   8.0000000   8.0000000   6.0000000   7.0000000   6.0000000

  Atom        21          22          23          24          25          26          27          28          29          30
 IAtWgt=          12          12          12          12          12          14          16          16          12          12
 AtmWgt=  12.0000000  12.0000000  12.0000000  12.0000000  12.0000000  14.0030740  15.9949146  15.9949146  12.0000000  12.0000000
 NucSpn=           0           0           0           0           0           2           0           0           0           0
 AtZEff=  -0.0000000  -0.0000000  -0.0000000  -0.0000000  -0.0000000  -0.0000000  -0.0000000  -0.0000000  -0.0000000  -0.0000000
 NQMom=    0.0000000   0.0000000   0.0000000   0.0000000   0.0000000   2.0440000   0.0000000   0.0000000   0.0000000   0.0000000
 NMagM=    0.0000000   0.0000000   0.0000000   0.0000000   0.0000000   0.4037610   0.0000000   0.0000000   0.0000000   0.0000000
 AtZNuc=   6.0000000   6.0000000   6.0000000   6.0000000   6.0000000   7.0000000   8.0000000   8.0000000   6.0000000   6.0000000

  Atom        31          32          33          34          35          36          37          38          39          40
 IAtWgt=          12          12          12          12          12          12          12          12          12          12
 AtmWgt=  12.0000000  12.0000000  12.0000000  12.0000000  12.0000000  12.0000000  12.0000000  12.0000000  12.0000000  12.0000000
 NucSpn=           0           0           0           0           0           0           0           0           0           0
 AtZEff=  -0.0000000  -0.0000000  -0.0000000  -0.0000000  -0.0000000  -0.0000000  -0.0000000  -0.0000000  -0.0000000  -0.0000000
 NQMom=    0.0000000   0.0000000   0.0000000   0.0000000   0.0000000   0.0000000   0.0000000   0.0000000   0.0000000   0.0000000
 NMagM=    0.0000000   0.0000000   0.0000000   0.0000000   0.0000000   0.0000000   0.0000000   0.0000000   0.0000000   0.0000000
 AtZNuc=   6.0000000   6.0000000   6.0000000   6.0000000   6.0000000   6.0000000   6.0000000   6.0000000   6.0000000   6.0000000

  Atom        41          42          43          44          45          46          47          48          49          50
 IAtWgt=          12          12          12          14          11          19          19           1           1           1
 AtmWgt=  12.0000000  12.0000000  12.0000000  14.0030740  11.0093053  18.9984033  18.9984033   1.0078250   1.0078250   1.0078250
 NucSpn=           0           0           0           2           3           1           1           1           1           1
 AtZEff=  -0.0000000  -0.0000000  -0.0000000  -0.0000000  -0.0000000  -0.0000000  -0.0000000  -0.0000000  -0.0000000  -0.0000000
 NQMom=    0.0000000   0.0000000   0.0000000   2.0440000   4.0590000   0.0000000   0.0000000   0.0000000   0.0000000   0.0000000
 NMagM=    0.0000000   0.0000000   0.0000000   0.4037610   2.6886370   2.6288670   2.6288670   2.7928460   2.7928460   2.7928460
 AtZNuc=   6.0000000   6.0000000   6.0000000   7.0000000   5.0000000   9.0000000   9.0000000   1.0000000   1.0000000   1.0000000

  Atom        51          52          53          54          55          56          57          58          59          60
 IAtWgt=           1           1           1           1           1           1           1           1           1           1
 AtmWgt=   1.0078250   1.0078250   1.0078250   1.0078250   1.0078250   1.0078250   1.0078250   1.0078250   1.0078250   1.0078250
 NucSpn=           1           1           1           1           1           1           1           1           1           1
 AtZEff=  -0.0000000  -0.0000000  -0.0000000  -0.0000000  -0.0000000  -0.0000000  -0.0000000  -0.0000000  -0.0000000  -0.0000000
 NQMom=    0.0000000   0.0000000   0.0000000   0.0000000   0.0000000   0.0000000   0.0000000   0.0000000   0.0000000   0.0000000
 NMagM=    2.7928460   2.7928460   2.7928460   2.7928460   2.7928460   2.7928460   2.7928460   2.7928460   2.7928460   2.7928460
 AtZNuc=   1.0000000   1.0000000   1.0000000   1.0000000   1.0000000   1.0000000   1.0000000   1.0000000   1.0000000   1.0000000

  Atom        61          62          63          64          65          66          67          68          69          70
 IAtWgt=           1           1           1           1           1           1           1           1           1           1
 AtmWgt=   1.0078250   1.0078250   1.0078250   1.0078250   1.0078250   1.0078250   1.0078250   1.0078250   1.0078250   1.0078250
 NucSpn=           1           1           1           1           1           1           1           1           1           1
 AtZEff=  -0.0000000  -0.0000000  -0.0000000  -0.0000000  -0.0000000  -0.0000000  -0.0000000  -0.0000000  -0.0000000  -0.0000000
 NQMom=    0.0000000   0.0000000   0.0000000   0.0000000   0.0000000   0.0000000   0.0000000   0.0000000   0.0000000   0.0000000
 NMagM=    2.7928460   2.7928460   2.7928460   2.7928460   2.7928460   2.7928460   2.7928460   2.7928460   2.7928460   2.7928460
 AtZNuc=   1.0000000   1.0000000   1.0000000   1.0000000   1.0000000   1.0000000   1.0000000   1.0000000   1.0000000   1.0000000

  Atom        71
 IAtWgt=           1
 AtmWgt=   1.0078250
 NucSpn=           1
 AtZEff=  -0.0000000
 NQMom=    0.0000000
 NMagM=    2.7928460
 AtZNuc=   1.0000000
 Leave Link  101 at Sat Oct 25 01:26:12 2025, MaxMem= 30870077440 cpu:               4.0 elap:               0.1
 (Enter /public/software/gauss/g16/l202.exe)
 Stoichiometry    C33H24BF2N5O6
 Framework group  C1[X(C33H24BF2N5O6)]
 Deg. of freedom   207
 Full point group                 C1      NOp   1
 Largest Abelian subgroup         C1      NOp   1
 Largest concise Abelian subgroup C1      NOp   1
                         Standard orientation:                         
 ---------------------------------------------------------------------
 Center     Atomic      Atomic             Coordinates (Angstroms)
 Number     Number       Type             X           Y           Z
 ---------------------------------------------------------------------
      1          6           0       -2.891440   -3.656247    0.158189
      2          6           0       -1.882691   -2.551072    0.077828
      3          6           0       -0.510995   -2.745133    0.052760
      4          6           0        0.122843   -1.482461   -0.032101
      5          6           0        1.526791   -1.176035   -0.105717
      6          6           0        2.505028   -2.105925    0.038193
      7          6           0        3.934113   -1.852356   -0.039690
      8          6           0        4.503486   -0.576002   -0.230036
      9          6           0        5.877909   -0.407955   -0.306346
     10          6           0        6.730860   -1.505239   -0.184074
     11          7           0        8.149469   -1.295202   -0.406084
     12          8           0        8.617947   -0.183897   -0.139492
     13          8           0        8.810760   -2.224426   -0.880282
     14          6           0        6.180150   -2.779176    0.028984
     15          7           0        7.004807   -3.958843    0.322491
     16          8           0        7.923117   -3.831077    1.129737
     17          8           0        6.690518   -5.018142   -0.218492
     18          6           0        4.810579   -2.952655    0.094491
     19          7           0       -0.842013   -0.514867   -0.058617
     20          6           0       -2.084763   -1.129455    0.007205
     21          6           0       -3.259781   -0.349454   -0.025390
     22          6           0       -4.587225   -1.035701   -0.002079
     23          6           0       -5.165520   -1.495008   -1.194687
     24          6           0       -6.396930   -2.140893   -1.177791
     25          6           0       -7.036275   -2.323880    0.048112
     26          7           0       -8.328213   -3.005539    0.074767
     27          8           0       -8.887780   -3.163497    1.164496
     28          8           0       -8.809208   -3.396819   -0.993479
     29          6           0       -6.484823   -1.879494    1.249560
     30          6           0       -5.254763   -1.231347    1.216088
     31          6           0       -3.199546    1.047121   -0.095496
     32          6           0       -4.248690    2.022924   -0.252728
     33          6           0       -5.731374    1.828176   -0.332331
     34          6           0       -3.616945    3.246394   -0.335242
     35          6           0       -2.216143    3.058665   -0.201862
     36          6           0       -1.294241    4.167867   -0.207571
     37          6           0       -0.008900    4.212370    0.224272
     38          6           0        0.862296    5.384476    0.201257
     39          6           0        0.507935    6.615227   -0.392038
     40          6           0        1.388222    7.692004   -0.371854
     41          6           0        2.643322    7.571203    0.236346
     42          6           0        3.012613    6.359104    0.823463
     43          6           0        2.132847    5.279013    0.803748
     44          7           0       -1.968761    1.722192   -0.069184
     45          5           0       -0.591174    1.013679    0.022755
     46          9           0        0.238010    1.417576   -1.029992
     47          9           0        0.036667    1.307472    1.246393
     48          1           0       -3.510765   -3.712209   -0.742341
     49          1           0       -2.375079   -4.612753    0.271935
     50          1           0       -3.569693   -3.532702    1.007465
     51          1           0       -0.006881   -3.701250    0.074500
     52          1           0        1.782958   -0.141446   -0.303101
     53          1           0        2.231023   -3.140342    0.227067
     54          1           0        3.870922    0.297497   -0.333450
     55          1           0        6.305587    0.569336   -0.493018
     56          1           0        4.413879   -3.943971    0.281927
     57          1           0       -4.650961   -1.344518   -2.137339
     58          1           0       -6.853517   -2.497421   -2.091966
     59          1           0       -7.007674   -2.038266    2.183824
     60          1           0       -4.809171   -0.877342    2.139172
     61          1           0       -6.015790    1.183848   -1.169507
     62          1           0       -6.134181    1.370979    0.576301
     63          1           0       -6.217522    2.797286   -0.469211
     64          1           0       -4.094417    4.209206   -0.458813
     65          1           0       -1.760615    5.081727   -0.566799
     66          1           0        0.432060    3.326414    0.665819
     67          1           0       -0.456068    6.729448   -0.877126
     68          1           0        1.098458    8.630619   -0.834799
     69          1           0        3.326453    8.415095    0.247913
     70          1           0        3.985090    6.254695    1.295108
     71          1           0        2.422114    4.336579    1.260764
 ---------------------------------------------------------------------
 Rotational constants (GHZ):           0.0720538           0.0310314           0.0221702
 Leave Link  202 at Sat Oct 25 01:26:12 2025, MaxMem= 30870077440 cpu:               0.2 elap:               0.0
 (Enter /public/software/gauss/g16/l301.exe)
 Standard basis: def2TZVPP (5D, 7F)
 Ernie: Thresh=  0.10000D-02 Tol=  0.10000D-05 Strict=F.
 There are  2052 symmetry adapted cartesian basis functions of A   symmetry.
 There are  1793 symmetry adapted basis functions of A   symmetry.
  1793 basis functions,  2805 primitive gaussians,  2052 cartesian basis functions
   164 alpha electrons      164 beta electrons
       nuclear repulsion energy      5296.1763124481 Hartrees.
 IExCor= 4336 DFT=T Ex+Corr=M062X ExCW=0 ScaHFX=  0.540000
 ScaDFX=  1.000000  1.000000  1.000000  1.000000 ScalE2=  1.000000  1.000000
 IRadAn=      5 IRanWt=     -1 IRanGd=            0 ICorTp=0 IEmpDi=131
 NAtoms=   71 NActive=   71 NUniq=   71 SFac= 1.00D+00 NAtFMM=   60 NAOKFM=T Big=T
 Integral buffers will be    131072 words long.
 Raffenetti 2 integral format.
 Two-electron integral symmetry is turned on.
 R6Disp:  Grimme-D3 Dispersion energy=       -0.0060287909 Hartrees.
 Nuclear repulsion after empirical dispersion term =     5296.1702836572 Hartrees.
 ------------------------------------------------------------------------------
 Polarizable Continuum Model (PCM)
 =================================
 Model                : PCM.
 Atomic radii         : UFF (Universal Force Field).
 Polarization charges : Total charges.
 Charge compensation  : None.
 Solution method      : On-the-fly selection.
 Cavity type          : Scaled VdW (van der Waals Surface) (Alpha=1.100).
 Cavity algorithm     : GePol (No added spheres)
                        Default sphere list used, NSphG=   71.
                        Lebedev-Laikov grids with approx.  5.0 points / Ang**2.
                        Smoothing algorithm: York/Karplus (Gamma=1.0000).
                        Polarization charges: spherical gaussians, with
                                              point-specific exponents (IZeta= 3).
                        Self-potential: point-specific (ISelfS= 7).
                        Self-field    : sphere-specific E.n sum rule (ISelfD= 2).
 Solvent              : Water, Eps=  78.355300 Eps(inf)=   1.777849
 ------------------------------------------------------------------------------
 GePol: Number of generator spheres                  =      71
 GePol: Total number of spheres                      =      71
 GePol: Number of exposed spheres                    =      71 (100.00%)
 GePol: Number of points                             =    5384
 GePol: Average weight of points                     =       0.13
 GePol: Minimum weight of points                     =   0.21D-11
 GePol: Maximum weight of points                     =    0.20577
 GePol: Number of points with low weight             =     363
 GePol: Fraction of low-weight points (<1% of avg)   =       6.74%
 GePol: Cavity surface area                          =    680.826 Ang**2
 GePol: Cavity volume                                =    788.068 Ang**3
 Leave Link  301 at Sat Oct 25 01:26:12 2025, MaxMem= 30870077440 cpu:               3.6 elap:               0.1
 (Enter /public/software/gauss/g16/l302.exe)
 NPDir=0 NMtPBC=     1 NCelOv=     1 NCel=       1 NClECP=     1 NCelD=      1
         NCelK=      1 NCelE2=     1 NClLst=     1 CellRange=     0.0.
 One-electron integrals computed using PRISM.
 One-electron integral symmetry used in STVInt
   1 Symmetry operations used in ECPInt.
 ECPInt:  NShTT=  218791 NPrTT=  642384 LenC2=  136910 LenP2D=  266964.
 LDataN:  DoStor=T MaxTD1= 6 Len=  172
 NBasis=  1793 RedAO= T EigKep=  3.68D-06  NBF=  1793
 NBsUse=  1793 1.00D-06 EigRej= -1.00D+00 NBFU=  1793
 Precomputing XC quadrature grid using
 IXCGrd= 4 IRadAn=           5 IRanWt=          -1 IRanGd=           0 AccXCQ= 0.00D+00.
 Generated NRdTot=       0 NPtTot=           0 NUsed=           0 NTot=          32
 NSgBfM=  1814  1814  1814  1814  1814 MxSgAt=    71 MxSgA2=    71.
 Leave Link  302 at Sat Oct 25 01:26:20 2025, MaxMem= 30870077440 cpu:             544.6 elap:               8.6
 (Enter /public/software/gauss/g16/l303.exe)
 DipDrv:  MaxL=1.
 Leave Link  303 at Sat Oct 25 01:26:21 2025, MaxMem= 30870077440 cpu:              25.8 elap:               0.5
 (Enter /public/software/gauss/g16/l401.exe)
 ExpMin= 6.06D-02 ExpMax= 3.55D+04 ExpMxC= 1.21D+03 IAcc=3 IRadAn=         5 AccDes= 0.00D+00
 Harris functional with IExCor= 1009 and IRadAn=       5 diagonalized for initial guess.
 HarFok:  IExCor= 1009 AccDes= 0.00D+00 IRadAn=         5 IDoV= 1 UseB2=F ITyADJ=14
 ICtDFT=  3500011 ScaDFX=  1.000000  1.000000  1.000000  1.000000
 FoFCou: FMM=F IPFlag=           0 FMFlag=      100000 FMFlg1=        2001
         NFxFlg=           0 DoJE=T BraDBF=F KetDBF=T FulRan=T
         wScrn=  0.000000 ICntrl=       500 IOpCl=  0 I1Cent=   200000004 NGrid=           0
         NMat0=    1 NMatS0=      1 NMatT0=    0 NMatD0=    1 NMtDS0=    0 NMtDT0=    0
 Petite list used in FoFCou.
 Harris En= -2220.40373667609    
 JPrj=0 DoOrth=F DoCkMO=F.
 Leave Link  401 at Sat Oct 25 01:26:31 2025, MaxMem= 30870077440 cpu:             603.7 elap:               9.5
 (Enter /public/software/gauss/g16/l502.exe)
 Integral symmetry usage will be decided dynamically.
 Closed shell SCF:
 Using DIIS extrapolation, IDIIS=  1040.
 NGot= 30870077440 LenX= 30861507565 LenY= 30857294809
 Requested convergence on RMS density matrix=1.00D-08 within 128 cycles.
 Requested convergence on MAX density matrix=1.00D-06.
 Requested convergence on             energy=1.00D-06.
 No special actions if energy rises.
 Fock matrices will be formed incrementally for  20 cycles.

 Cycle   1  Pass 1  IDiag  1:
 FoFJK:  IHMeth= 1 ICntrl=       0 DoSepK=F KAlg= 0 I1Cent=           0 FoldK=F
 IRaf= 590000000 NMat=       1 IRICut=       1 DoRegI=T DoRafI=F ISym2E= 0 IDoP0=0 IntGTp=1.
 FoFCou: FMM=T IPFlag=           0 FMFlag=      100000 FMFlg1=        2001
         NFxFlg=           0 DoJE=F BraDBF=F KetDBF=F FulRan=T
         wScrn=  0.000000 ICntrl=         0 IOpCl=  0 I1Cent=           0 NGrid=           0
         NMat0=    1 NMatS0=      1 NMatT0=    0 NMatD0=    1 NMtDS0=    0 NMtDT0=    0
 Symmetry not used in FoFCou.
 FMM levels:  10  Number of levels for PrismC:   9
 Inv3:  Mode=1 IEnd=    86962368.
 Iteration    1 A*A^-1 deviation from unit magnitude is 1.81D-14 for   5371.
 Iteration    1 A*A^-1 deviation from orthogonality  is 7.35D-15 for   5255    143.
 Iteration    1 A^-1*A deviation from unit magnitude is 1.81D-14 for   5371.
 Iteration    1 A^-1*A deviation from orthogonality  is 6.05D-15 for   3950    241.
 E= -2220.31376286827    
 DIIS: error= 2.99D-02 at cycle   1 NSaved=   1.
 NSaved= 1 IEnMin= 1 EnMin= -2220.31376286827     IErMin= 1 ErrMin= 2.99D-02
 ErrMax= 2.99D-02  0.00D+00 EMaxC= 1.00D-01 BMatC= 1.67D+00 BMatP= 1.67D+00
 IDIUse=3 WtCom= 7.01D-01 WtEn= 2.99D-01
 Coeff-Com:  0.100D+01
 Coeff-En:   0.100D+01
 Coeff:      0.100D+01
 Gap=     0.130 Goal=   None    Shift=    0.000
 GapD=    0.130 DampG=1.000 DampE=0.500 DampFc=0.5000 IDamp=-1.
 Damping current iteration by 5.00D-01
 RMSDP=1.47D-03 MaxDP=2.23D-01              OVMax= 2.62D-01

 Cycle   2  Pass 1  IDiag  1:
 RMSU=  7.34D-04    CP:  9.90D-01
 E= -2220.83268696625     Delta-E=       -0.518924097981 Rises=F Damp=T
 DIIS: error= 5.30D-03 at cycle   2 NSaved=   2.
 NSaved= 2 IEnMin= 2 EnMin= -2220.83268696625     IErMin= 2 ErrMin= 5.30D-03
 ErrMax= 5.30D-03  0.00D+00 EMaxC= 1.00D-01 BMatC= 1.82D-01 BMatP= 1.67D+00
 IDIUse=3 WtCom= 9.47D-01 WtEn= 5.30D-02
 Coeff-Com:  0.368D-01 0.963D+00
 Coeff-En:   0.872D-01 0.913D+00
 Coeff:      0.394D-01 0.961D+00
 Gap=     0.153 Goal=   None    Shift=    0.000
 RMSDP=6.17D-04 MaxDP=6.50D-02 DE=-5.19D-01 OVMax= 1.87D-01

 Cycle   3  Pass 1  IDiag  1:
 RMSU=  5.93D-04    CP:  9.73D-01  1.21D+00
 E= -2221.43401467618     Delta-E=       -0.601327709929 Rises=F Damp=F
 DIIS: error= 7.77D-03 at cycle   3 NSaved=   3.
 NSaved= 3 IEnMin= 3 EnMin= -2221.43401467618     IErMin= 2 ErrMin= 5.30D-03
 ErrMax= 7.77D-03  0.00D+00 EMaxC= 1.00D-01 BMatC= 9.04D-02 BMatP= 1.82D-01
 IDIUse=3 WtCom= 9.22D-01 WtEn= 7.77D-02
 Coeff-Com: -0.813D-01 0.420D+00 0.662D+00
 Coeff-En:   0.000D+00 0.000D+00 0.100D+01
 Coeff:     -0.750D-01 0.387D+00 0.688D+00
 Gap=     0.129 Goal=   None    Shift=    0.000
 RMSDP=2.16D-04 MaxDP=2.87D-02 DE=-6.01D-01 OVMax= 5.00D-02

 Cycle   4  Pass 1  IDiag  1:
 RMSU=  1.96D-04    CP:  9.75D-01  1.30D+00  8.97D-01
 E= -2221.49353272557     Delta-E=       -0.059518049387 Rises=F Damp=F
 DIIS: error= 1.77D-03 at cycle   4 NSaved=   4.
 NSaved= 4 IEnMin= 4 EnMin= -2221.49353272557     IErMin= 4 ErrMin= 1.77D-03
 ErrMax= 1.77D-03  0.00D+00 EMaxC= 1.00D-01 BMatC= 1.25D-02 BMatP= 9.04D-02
 IDIUse=3 WtCom= 9.82D-01 WtEn= 1.77D-02
 Coeff-Com: -0.282D-01 0.818D-01 0.324D+00 0.622D+00
 Coeff-En:   0.000D+00 0.000D+00 0.864D-01 0.914D+00
 Coeff:     -0.277D-01 0.803D-01 0.320D+00 0.627D+00
 Gap=     0.131 Goal=   None    Shift=    0.000
 RMSDP=7.07D-05 MaxDP=1.28D-02 DE=-5.95D-02 OVMax= 1.78D-02

 Cycle   5  Pass 1  IDiag  1:
 RMSU=  5.14D-05    CP:  9.75D-01  1.28D+00  9.36D-01  7.99D-01
 E= -2221.50318234945     Delta-E=       -0.009649623874 Rises=F Damp=F
 DIIS: error= 4.93D-04 at cycle   5 NSaved=   5.
 NSaved= 5 IEnMin= 5 EnMin= -2221.50318234945     IErMin= 5 ErrMin= 4.93D-04
 ErrMax= 4.93D-04  0.00D+00 EMaxC= 1.00D-01 BMatC= 7.80D-04 BMatP= 1.25D-02
 IDIUse=3 WtCom= 9.95D-01 WtEn= 4.93D-03
 Coeff-Com: -0.930D-02 0.177D-01 0.125D+00 0.312D+00 0.554D+00
 Coeff-En:   0.000D+00 0.000D+00 0.000D+00 0.000D+00 0.100D+01
 Coeff:     -0.925D-02 0.176D-01 0.125D+00 0.311D+00 0.556D+00
 Gap=     0.131 Goal=   None    Shift=    0.000
 RMSDP=2.14D-05 MaxDP=4.99D-03 DE=-9.65D-03 OVMax= 6.33D-03

 Cycle   6  Pass 1  IDiag  1:
 RMSU=  1.83D-05    CP:  9.75D-01  1.29D+00  9.31D-01  8.22D-01  8.38D-01
 E= -2221.50377368472     Delta-E=       -0.000591335273 Rises=F Damp=F
 DIIS: error= 2.39D-04 at cycle   6 NSaved=   6.
 NSaved= 6 IEnMin= 6 EnMin= -2221.50377368472     IErMin= 6 ErrMin= 2.39D-04
 ErrMax= 2.39D-04  0.00D+00 EMaxC= 1.00D-01 BMatC= 1.00D-04 BMatP= 7.80D-04
 IDIUse=3 WtCom= 9.98D-01 WtEn= 2.39D-03
 Coeff-Com: -0.209D-02 0.152D-02 0.344D-01 0.100D+00 0.300D+00 0.566D+00
 Coeff-En:   0.000D+00 0.000D+00 0.000D+00 0.000D+00 0.000D+00 0.100D+01
 Coeff:     -0.209D-02 0.151D-02 0.344D-01 0.999D-01 0.299D+00 0.567D+00
 Gap=     0.132 Goal=   None    Shift=    0.000
 RMSDP=7.98D-06 MaxDP=1.30D-03 DE=-5.91D-04 OVMax= 2.96D-03

 Cycle   7  Pass 1  IDiag  1:
 RMSU=  7.12D-06    CP:  9.75D-01  1.29D+00  9.33D-01  8.23D-01  9.01D-01
                    CP:  9.44D-01
 E= -2221.50385350947     Delta-E=       -0.000079824751 Rises=F Damp=F
 DIIS: error= 8.14D-05 at cycle   7 NSaved=   7.
 NSaved= 7 IEnMin= 7 EnMin= -2221.50385350947     IErMin= 7 ErrMin= 8.14D-05
 ErrMax= 8.14D-05  0.00D+00 EMaxC= 1.00D-01 BMatC= 1.33D-05 BMatP= 1.00D-04
 IDIUse=1 WtCom= 1.00D+00 WtEn= 0.00D+00
 Coeff-Com:  0.827D-03-0.280D-02-0.739D-02-0.126D-01 0.402D-01 0.281D+00
 Coeff-Com:  0.700D+00
 Coeff:      0.827D-03-0.280D-02-0.739D-02-0.126D-01 0.402D-01 0.281D+00
 Coeff:      0.700D+00
 Gap=     0.132 Goal=   None    Shift=    0.000
 RMSDP=4.55D-06 MaxDP=9.88D-04 DE=-7.98D-05 OVMax= 2.43D-03

 Cycle   8  Pass 1  IDiag  1:
 RMSU=  3.49D-06    CP:  9.75D-01  1.29D+00  9.34D-01  8.28D-01  9.33D-01
                    CP:  1.06D+00  1.08D+00
 E= -2221.50386916762     Delta-E=       -0.000015658151 Rises=F Damp=F
 DIIS: error= 2.18D-05 at cycle   8 NSaved=   8.
 NSaved= 8 IEnMin= 8 EnMin= -2221.50386916762     IErMin= 8 ErrMin= 2.18D-05
 ErrMax= 2.18D-05  0.00D+00 EMaxC= 1.00D-01 BMatC= 1.81D-06 BMatP= 1.33D-05
 IDIUse=1 WtCom= 1.00D+00 WtEn= 0.00D+00
 Coeff-Com:  0.712D-03-0.154D-02-0.874D-02-0.220D-01-0.317D-01 0.325D-01
 Coeff-Com:  0.310D+00 0.721D+00
 Coeff:      0.712D-03-0.154D-02-0.874D-02-0.220D-01-0.317D-01 0.325D-01
 Coeff:      0.310D+00 0.721D+00
 Gap=     0.132 Goal=   None    Shift=    0.000
 RMSDP=2.10D-06 MaxDP=3.33D-04 DE=-1.57D-05 OVMax= 1.35D-03

 Cycle   9  Pass 1  IDiag  1:
 RMSU=  1.28D-06    CP:  9.75D-01  1.29D+00  9.33D-01  8.31D-01  9.50D-01
                    CP:  1.09D+00  1.22D+00  1.10D+00
 E= -2221.50387249851     Delta-E=       -0.000003330894 Rises=F Damp=F
 DIIS: error= 1.60D-05 at cycle   9 NSaved=   9.
 NSaved= 9 IEnMin= 9 EnMin= -2221.50387249851     IErMin= 9 ErrMin= 1.60D-05
 ErrMax= 1.60D-05  0.00D+00 EMaxC= 1.00D-01 BMatC= 3.43D-07 BMatP= 1.81D-06
 IDIUse=1 WtCom= 1.00D+00 WtEn= 0.00D+00
 Coeff-Com:  0.189D-03-0.258D-03-0.258D-02-0.781D-02-0.200D-01-0.254D-01
 Coeff-Com:  0.331D-01 0.322D+00 0.701D+00
 Coeff:      0.189D-03-0.258D-03-0.258D-02-0.781D-02-0.200D-01-0.254D-01
 Coeff:      0.331D-01 0.322D+00 0.701D+00
 Gap=     0.132 Goal=   None    Shift=    0.000
 RMSDP=9.57D-07 MaxDP=2.11D-04 DE=-3.33D-06 OVMax= 7.11D-04

 Cycle  10  Pass 1  IDiag  1:
 RMSU=  5.57D-07    CP:  9.75D-01  1.29D+00  9.34D-01  8.31D-01  9.54D-01
                    CP:  1.11D+00  1.28D+00  1.23D+00  1.19D+00
 E= -2221.50387322866     Delta-E=       -0.000000730149 Rises=F Damp=F
 DIIS: error= 5.97D-06 at cycle  10 NSaved=  10.
 NSaved=10 IEnMin=10 EnMin= -2221.50387322866     IErMin=10 ErrMin= 5.97D-06
 ErrMax= 5.97D-06  0.00D+00 EMaxC= 1.00D-01 BMatC= 5.96D-08 BMatP= 3.43D-07
 IDIUse=1 WtCom= 1.00D+00 WtEn= 0.00D+00
 Coeff-Com: -0.873D-04 0.252D-03 0.103D-02 0.200D-02-0.599D-03-0.168D-01
 Coeff-Com: -0.605D-01-0.429D-01 0.260D+00 0.857D+00
 Coeff:     -0.873D-04 0.252D-03 0.103D-02 0.200D-02-0.599D-03-0.168D-01
 Coeff:     -0.605D-01-0.429D-01 0.260D+00 0.857D+00
 Gap=     0.132 Goal=   None    Shift=    0.000
 RMSDP=6.08D-07 MaxDP=8.63D-05 DE=-7.30D-07 OVMax= 5.31D-04

 Cycle  11  Pass 1  IDiag  1:
 RMSU=  2.97D-07    CP:  9.75D-01  1.29D+00  9.34D-01  8.31D-01  9.56D-01
                    CP:  1.12D+00  1.30D+00  1.32D+00  1.40D+00  1.37D+00
 E= -2221.50387344817     Delta-E=       -0.000000219506 Rises=F Damp=F
 DIIS: error= 2.71D-06 at cycle  11 NSaved=  11.
 NSaved=11 IEnMin=11 EnMin= -2221.50387344817     IErMin=11 ErrMin= 2.71D-06
 ErrMax= 2.71D-06  0.00D+00 EMaxC= 1.00D-01 BMatC= 1.37D-08 BMatP= 5.96D-08
 IDIUse=1 WtCom= 1.00D+00 WtEn= 0.00D+00
 Coeff-Com: -0.668D-04 0.143D-03 0.835D-03 0.222D-02 0.328D-02-0.217D-02
 Coeff-Com: -0.302D-01-0.759D-01-0.370D-01 0.343D+00 0.796D+00
 Coeff:     -0.668D-04 0.143D-03 0.835D-03 0.222D-02 0.328D-02-0.217D-02
 Coeff:     -0.302D-01-0.759D-01-0.370D-01 0.343D+00 0.796D+00
 Gap=     0.132 Goal=   None    Shift=    0.000
 RMSDP=2.97D-07 MaxDP=3.96D-05 DE=-2.20D-07 OVMax= 2.76D-04

 Cycle  12  Pass 1  IDiag  1:
 RMSU=  1.26D-07    CP:  9.75D-01  1.29D+00  9.34D-01  8.31D-01  9.57D-01
                    CP:  1.12D+00  1.31D+00  1.35D+00  1.51D+00  1.63D+00
                    CP:  1.27D+00
 E= -2221.50387349794     Delta-E=       -0.000000049772 Rises=F Damp=F
 DIIS: error= 1.24D-06 at cycle  12 NSaved=  12.
 NSaved=12 IEnMin=12 EnMin= -2221.50387349794     IErMin=12 ErrMin= 1.24D-06
 ErrMax= 1.24D-06  0.00D+00 EMaxC= 1.00D-01 BMatC= 3.06D-09 BMatP= 1.37D-08
 IDIUse=1 WtCom= 1.00D+00 WtEn= 0.00D+00
 Coeff-Com: -0.930D-05 0.794D-05 0.116D-03 0.499D-03 0.134D-02 0.206D-02
 Coeff-Com:  0.743D-04-0.195D-01-0.676D-01-0.418D-01 0.326D+00 0.798D+00
 Coeff:     -0.930D-05 0.794D-05 0.116D-03 0.499D-03 0.134D-02 0.206D-02
 Coeff:      0.743D-04-0.195D-01-0.676D-01-0.418D-01 0.326D+00 0.798D+00
 Gap=     0.132 Goal=   None    Shift=    0.000
 RMSDP=1.45D-07 MaxDP=1.72D-05 DE=-4.98D-08 OVMax= 1.41D-04

 Cycle  13  Pass 1  IDiag  1:
 RMSU=  6.16D-08    CP:  9.75D-01  1.29D+00  9.34D-01  8.31D-01  9.57D-01
                    CP:  1.12D+00  1.32D+00  1.36D+00  1.56D+00  1.77D+00
                    CP:  1.52D+00  1.27D+00
 E= -2221.50387350955     Delta-E=       -0.000000011612 Rises=F Damp=F
 DIIS: error= 4.70D-07 at cycle  13 NSaved=  13.
 NSaved=13 IEnMin=13 EnMin= -2221.50387350955     IErMin=13 ErrMin= 4.70D-07
 ErrMax= 4.70D-07  0.00D+00 EMaxC= 1.00D-01 BMatC= 8.23D-10 BMatP= 3.06D-09
 IDIUse=1 WtCom= 1.00D+00 WtEn= 0.00D+00
 Coeff-Com:  0.110D-04-0.288D-04-0.141D-03-0.271D-03-0.124D-03 0.143D-02
 Coeff-Com:  0.763D-02 0.959D-02-0.244D-01-0.109D+00-0.280D-01 0.370D+00
 Coeff-Com:  0.774D+00
 Coeff:      0.110D-04-0.288D-04-0.141D-03-0.271D-03-0.124D-03 0.143D-02
 Coeff:      0.763D-02 0.959D-02-0.244D-01-0.109D+00-0.280D-01 0.370D+00
 Coeff:      0.774D+00
 Gap=     0.132 Goal=   None    Shift=    0.000
 RMSDP=7.48D-08 MaxDP=9.02D-06 DE=-1.16D-08 OVMax= 7.34D-05

 Cycle  14  Pass 1  IDiag  1:
 RMSU=  2.72D-08    CP:  9.75D-01  1.29D+00  9.34D-01  8.31D-01  9.57D-01
                    CP:  1.12D+00  1.32D+00  1.37D+00  1.57D+00  1.83D+00
                    CP:  1.65D+00  1.53D+00  1.24D+00
 E= -2221.50387351239     Delta-E=       -0.000000002836 Rises=F Damp=F
 DIIS: error= 2.62D-07 at cycle  14 NSaved=  14.
 NSaved=14 IEnMin=14 EnMin= -2221.50387351239     IErMin=14 ErrMin= 2.62D-07
 ErrMax= 2.62D-07  0.00D+00 EMaxC= 1.00D-01 BMatC= 2.34D-10 BMatP= 8.23D-10
 IDIUse=1 WtCom= 1.00D+00 WtEn= 0.00D+00
 Coeff-Com:  0.804D-05-0.175D-04-0.102D-03-0.257D-03-0.382D-03 0.227D-03
 Coeff-Com:  0.422D-02 0.100D-01 0.246D-02-0.523D-01-0.888D-01 0.400D-02
 Coeff-Com:  0.412D+00 0.709D+00
 Coeff:      0.804D-05-0.175D-04-0.102D-03-0.257D-03-0.382D-03 0.227D-03
 Coeff:      0.422D-02 0.100D-01 0.246D-02-0.523D-01-0.888D-01 0.400D-02
 Coeff:      0.412D+00 0.709D+00
 Gap=     0.132 Goal=   None    Shift=    0.000
 RMSDP=3.65D-08 MaxDP=3.58D-06 DE=-2.84D-09 OVMax= 3.41D-05

 Cycle  15  Pass 1  IDiag  1:
 RMSU=  1.27D-08    CP:  9.75D-01  1.29D+00  9.34D-01  8.31D-01  9.57D-01
                    CP:  1.12D+00  1.32D+00  1.37D+00  1.58D+00  1.85D+00
                    CP:  1.73D+00  1.63D+00  1.49D+00  1.21D+00
 E= -2221.50387351339     Delta-E=       -0.000000001001 Rises=F Damp=F
 DIIS: error= 1.20D-07 at cycle  15 NSaved=  15.
 NSaved=15 IEnMin=15 EnMin= -2221.50387351339     IErMin=15 ErrMin= 1.20D-07
 ErrMax= 1.20D-07  0.00D+00 EMaxC= 1.00D-01 BMatC= 4.91D-11 BMatP= 2.34D-10
 IDIUse=1 WtCom= 1.00D+00 WtEn= 0.00D+00
 Coeff-Com:  0.132D-05-0.181D-05-0.149D-04-0.586D-04-0.164D-03-0.285D-03
 Coeff-Com:  0.223D-03 0.265D-02 0.683D-02-0.285D-03-0.314D-01-0.893D-01
 Coeff-Com:  0.119D-01 0.366D+00 0.734D+00
 Coeff:      0.132D-05-0.181D-05-0.149D-04-0.586D-04-0.164D-03-0.285D-03
 Coeff:      0.223D-03 0.265D-02 0.683D-02-0.285D-03-0.314D-01-0.893D-01
 Coeff:      0.119D-01 0.366D+00 0.734D+00
 Gap=     0.132 Goal=   None    Shift=    0.000
 RMSDP=1.49D-08 MaxDP=1.27D-06 DE=-1.00D-09 OVMax= 1.46D-05

 Cycle  16  Pass 1  IDiag  1:
 RMSU=  5.56D-09    CP:  9.75D-01  1.29D+00  9.34D-01  8.31D-01  9.57D-01
                    CP:  1.12D+00  1.32D+00  1.37D+00  1.58D+00  1.86D+00
                    CP:  1.75D+00  1.67D+00  1.61D+00  1.42D+00  1.10D+00
 E= -2221.50387351365     Delta-E=       -0.000000000261 Rises=F Damp=F
 DIIS: error= 3.32D-08 at cycle  16 NSaved=  16.
 NSaved=16 IEnMin=16 EnMin= -2221.50387351365     IErMin=16 ErrMin= 3.32D-08
 ErrMax= 3.32D-08  0.00D+00 EMaxC= 1.00D-01 BMatC= 6.55D-12 BMatP= 4.91D-11
 IDIUse=1 WtCom= 1.00D+00 WtEn= 0.00D+00
 Coeff-Com: -0.529D-06 0.163D-05 0.890D-05 0.116D-04-0.184D-04-0.169D-03
 Coeff-Com: -0.531D-03-0.293D-03 0.253D-02 0.773D-02 0.235D-02-0.411D-01
 Coeff-Com: -0.643D-01 0.459D-01 0.315D+00 0.733D+00
 Coeff:     -0.529D-06 0.163D-05 0.890D-05 0.116D-04-0.184D-04-0.169D-03
 Coeff:     -0.531D-03-0.293D-03 0.253D-02 0.773D-02 0.235D-02-0.411D-01
 Coeff:     -0.643D-01 0.459D-01 0.315D+00 0.733D+00
 Gap=     0.132 Goal=   None    Shift=    0.000
 RMSDP=4.73D-09 MaxDP=4.24D-07 DE=-2.61D-10 OVMax= 4.11D-06

 Error on total polarization charges =  0.02199
 SCF Done:  E(RM062X) =  -2221.50387351     A.U. after   16 cycles
            NFock= 16  Conv=0.47D-08     -V/T= 2.0052
 KE= 2.209924390070D+03 PE=-1.577490517242D+04 EE= 6.047306625181D+03
 Leave Link  502 at Sat Oct 25 01:42:14 2025, MaxMem= 30870077440 cpu:           59351.1 elap:             943.4
 (Enter /public/software/gauss/g16/l601.exe)
 Copying SCF densities to generalized density rwf, IOpCl= 0 IROHF=0.

 **********************************************************************

            Population analysis using the SCF density.

 **********************************************************************

 Orbital symmetries:
       Occupied  (A) (A) (A) (A) (A) (A) (A) (A) (A) (A) (A) (A)
                 (A) (A) (A) (A) (A) (A) (A) (A) (A) (A) (A) (A)
                 (A) (A) (A) (A) (A) (A) (A) (A) (A) (A) (A) (A)
                 (A) (A) (A) (A) (A) (A) (A) (A) (A) (A) (A) (A)
                 (A) (A) (A) (A) (A) (A) (A) (A) (A) (A) (A) (A)
                 (A) (A) (A) (A) (A) (A) (A) (A) (A) (A) (A) (A)
                 (A) (A) (A) (A) (A) (A) (A) (A) (A) (A) (A) (A)
                 (A) (A) (A) (A) (A) (A) (A) (A) (A) (A) (A) (A)
                 (A) (A) (A) (A) (A) (A) (A) (A) (A) (A) (A) (A)
                 (A) (A) (A) (A) (A) (A) (A) (A) (A) (A) (A) (A)
                 (A) (A) (A) (A) (A) (A) (A) (A) (A) (A) (A) (A)
                 (A) (A) (A) (A) (A) (A) (A) (A) (A) (A) (A) (A)
                 (A) (A) (A) (A) (A) (A) (A) (A) (A) (A) (A) (A)
                 (A) (A) (A) (A) (A) (A) (A) (A)
       Virtual   (A) (A) (A) (A) (A) (A) (A) (A) (A) (A) (A) (A)
                 (A) (A) (A) (A) (A) (A) (A) (A) (A) (A) (A) (A)
                 (A) (A) (A) (A) (A) (A) (A) (A) (A) (A) (A) (A)
                 (A) (A) (A) (A) (A) (A) (A) (A) (A) (A) (A) (A)
                 (A) (A) (A) (A) (A) (A) (A) (A) (A) (A) (A) (A)
                 (A) (A) (A) (A) (A) (A) (A) (A) (A) (A) (A) (A)
                 (A) (A) (A) (A) (A) (A) (A) (A) (A) (A) (A) (A)
                 (A) (A) (A) (A) (A) (A) (A) (A) (A) (A) (A) (A)
                 (A) (A) (A) (A) (A) (A) (A) (A) (A) (A) (A) (A)
                 (A) (A) (A) (A) (A) (A) (A) (A) (A) (A) (A) (A)
                 (A) (A) (A) (A) (A) (A) (A) (A) (A) (A) (A) (A)
                 (A) (A) (A) (A) (A) (A) (A) (A) (A) (A) (A) (A)
                 (A) (A) (A) (A) (A) (A) (A) (A) (A) (A) (A) (A)
                 (A) (A) (A) (A) (A) (A) (A) (A) (A) (A) (A) (A)
                 (A) (A) (A) (A) (A) (A) (A) (A) (A) (A) (A) (A)
                 (A) (A) (A) (A) (A) (A) (A) (A) (A) (A) (A) (A)
                 (A) (A) (A) (A) (A) (A) (A) (A) (A) (A) (A) (A)
                 (A) (A) (A) (A) (A) (A) (A) (A) (A) (A) (A) (A)
                 (A) (A) (A) (A) (A) (A) (A) (A) (A) (A) (A) (A)
                 (A) (A) (A) (A) (A) (A) (A) (A) (A) (A) (A) (A)
                 (A) (A) (A) (A) (A) (A) (A) (A) (A) (A) (A) (A)
                 (A) (A) (A) (A) (A) (A) (A) (A) (A) (A) (A) (A)
                 (A) (A) (A) (A) (A) (A) (A) (A) (A) (A) (A) (A)
                 (A) (A) (A) (A) (A) (A) (A) (A) (A) (A) (A) (A)
                 (A) (A) (A) (A) (A) (A) (A) (A) (A) (A) (A) (A)
                 (A) (A) (A) (A) (A) (A) (A) (A) (A) (A) (A) (A)
                 (A) (A) (A) (A) (A) (A) (A) (A) (A) (A) (A) (A)
                 (A) (A) (A) (A) (A) (A) (A) (A) (A) (A) (A) (A)
                 (A) (A) (A) (A) (A) (A) (A) (A) (A) (A) (A) (A)
                 (A) (A) (A) (A) (A) (A) (A) (A) (A) (A) (A) (A)
                 (A) (A) (A) (A) (A) (A) (A) (A) (A) (A) (A) (A)
                 (A) (A) (A) (A) (A) (A) (A) (A) (A) (A) (A) (A)
                 (A) (A) (A) (A) (A) (A) (A) (A) (A) (A) (A) (A)
                 (A) (A) (A) (A) (A) (A) (A) (A) (A) (A) (A) (A)
                 (A) (A) (A) (A) (A) (A) (A) (A) (A) (A) (A) (A)
                 (A) (A) (A) (A) (A) (A) (A) (A) (A) (A) (A) (A)
                 (A) (A) (A) (A) (A) (A) (A) (A) (A) (A) (A) (A)
                 (A) (A) (A) (A) (A) (A) (A) (A) (A) (A) (A) (A)
                 (A) (A) (A) (A) (A) (A) (A) (A) (A) (A) (A) (A)
                 (A) (A) (A) (A) (A) (A) (A) (A) (A) (A) (A) (A)
                 (A) (A) (A) (A) (A) (A) (A) (A) (A) (A) (A) (A)
                 (A) (A) (A) (A) (A) (A) (A) (A) (A) (A) (A) (A)
                 (A) (A) (A) (A) (A) (A) (A) (A) (A) (A) (A) (A)
                 (A) (A) (A) (A) (A) (A) (A) (A) (A) (A) (A) (A)
                 (A) (A) (A) (A) (A) (A) (A) (A) (A) (A) (A) (A)
                 (A) (A) (A) (A) (A) (A) (A) (A) (A) (A) (A) (A)
                 (A) (A) (A) (A) (A) (A) (A) (A) (A) (A) (A) (A)
                 (A) (A) (A) (A) (A) (A) (A) (A) (A) (A) (A) (A)
                 (A) (A) (A) (A) (A) (A) (A) (A) (A) (A) (A) (A)
                 (A) (A) (A) (A) (A) (A) (A) (A) (A) (A) (A) (A)
                 (A) (A) (A) (A) (A) (A) (A) (A) (A) (A) (A) (A)
                 (A) (A) (A) (A) (A) (A) (A) (A) (A) (A) (A) (A)
                 (A) (A) (A) (A) (A) (A) (A) (A) (A) (A) (A) (A)
                 (A) (A) (A) (A) (A) (A) (A) (A) (A) (A) (A) (A)
                 (A) (A) (A) (A) (A) (A) (A) (A) (A) (A) (A) (A)
                 (A) (A) (A) (A) (A) (A) (A) (A) (A) (A) (A) (A)
                 (A) (A) (A) (A) (A) (A) (A) (A) (A) (A) (A) (A)
                 (A) (A) (A) (A) (A) (A) (A) (A) (A) (A) (A) (A)
                 (A) (A) (A) (A) (A) (A) (A) (A) (A) (A) (A) (A)
                 (A) (A) (A) (A) (A) (A) (A) (A) (A) (A) (A) (A)
                 (A) (A) (A) (A) (A) (A) (A) (A) (A) (A) (A) (A)
                 (A) (A) (A) (A) (A) (A) (A) (A) (A) (A) (A) (A)
                 (A) (A) (A) (A) (A) (A) (A) (A) (A) (A) (A) (A)
                 (A) (A) (A) (A) (A) (A) (A) (A) (A) (A) (A) (A)
                 (A) (A) (A) (A) (A) (A) (A) (A) (A) (A) (A) (A)
                 (A) (A) (A) (A) (A) (A) (A) (A) (A) (A) (A) (A)
                 (A) (A) (A) (A) (A) (A) (A) (A) (A) (A) (A) (A)
                 (A) (A) (A) (A) (A) (A) (A) (A) (A) (A) (A) (A)
                 (A) (A) (A) (A) (A) (A) (A) (A) (A) (A) (A) (A)
                 (A) (A) (A) (A) (A) (A) (A) (A) (A) (A) (A) (A)
                 (A) (A) (A) (A) (A) (A) (A) (A) (A) (A) (A) (A)
                 (A) (A) (A) (A) (A) (A) (A) (A) (A) (A) (A) (A)
                 (A) (A) (A) (A) (A) (A) (A) (A) (A) (A) (A) (A)
                 (A) (A) (A) (A) (A) (A) (A) (A) (A) (A) (A) (A)
                 (A) (A) (A) (A) (A) (A) (A) (A) (A) (A) (A) (A)
                 (A) (A) (A) (A) (A) (A) (A) (A) (A) (A) (A) (A)
                 (A) (A) (A) (A) (A) (A) (A) (A) (A) (A) (A) (A)
                 (A) (A) (A) (A) (A) (A) (A) (A) (A) (A) (A) (A)
                 (A) (A) (A) (A) (A) (A) (A) (A) (A) (A) (A) (A)
                 (A) (A) (A) (A) (A) (A) (A) (A) (A) (A) (A) (A)
                 (A) (A) (A) (A) (A) (A) (A) (A) (A) (A) (A) (A)
                 (A) (A) (A) (A) (A) (A) (A) (A) (A) (A) (A) (A)
                 (A) (A) (A) (A) (A) (A) (A) (A) (A) (A) (A) (A)
                 (A) (A) (A) (A) (A) (A) (A) (A) (A) (A) (A) (A)
                 (A) (A) (A) (A) (A) (A) (A) (A) (A) (A) (A) (A)
                 (A) (A) (A) (A) (A) (A) (A) (A) (A) (A) (A) (A)
                 (A) (A) (A) (A) (A) (A) (A) (A) (A) (A) (A) (A)
                 (A) (A) (A) (A) (A) (A) (A) (A) (A) (A) (A) (A)
                 (A) (A) (A) (A) (A) (A) (A) (A) (A) (A) (A) (A)
                 (A) (A) (A) (A) (A) (A) (A) (A) (A) (A) (A) (A)
                 (A) (A) (A) (A) (A) (A) (A) (A) (A) (A) (A) (A)
                 (A) (A) (A) (A) (A) (A) (A) (A) (A) (A) (A) (A)
                 (A) (A) (A) (A) (A) (A) (A) (A) (A) (A) (A) (A)
                 (A) (A) (A) (A) (A) (A) (A) (A) (A) (A) (A) (A)
                 (A) (A) (A) (A) (A) (A) (A) (A) (A) (A) (A) (A)
                 (A) (A) (A) (A) (A) (A) (A) (A) (A) (A) (A) (A)
                 (A) (A) (A) (A) (A) (A) (A) (A) (A) (A) (A) (A)
                 (A) (A) (A) (A) (A) (A) (A) (A) (A) (A) (A) (A)
                 (A) (A) (A) (A) (A) (A) (A) (A) (A) (A) (A) (A)
                 (A) (A) (A) (A) (A) (A) (A) (A) (A) (A) (A) (A)
                 (A) (A) (A) (A) (A) (A) (A) (A) (A) (A) (A) (A)
                 (A) (A) (A) (A) (A) (A) (A) (A) (A) (A) (A) (A)
                 (A) (A) (A) (A) (A) (A) (A) (A) (A) (A) (A) (A)
                 (A) (A) (A) (A) (A) (A) (A) (A) (A) (A) (A) (A)
                 (A) (A) (A) (A) (A) (A) (A) (A) (A) (A) (A) (A)
                 (A) (A) (A) (A) (A) (A) (A) (A) (A) (A) (A) (A)
                 (A) (A) (A) (A) (A) (A) (A) (A) (A) (A) (A) (A)
                 (A) (A) (A) (A) (A) (A) (A) (A) (A) (A) (A) (A)
                 (A) (A) (A) (A) (A) (A) (A) (A) (A) (A) (A) (A)
                 (A) (A) (A) (A) (A) (A) (A) (A) (A) (A) (A) (A)
                 (A) (A) (A) (A) (A) (A) (A) (A) (A) (A) (A) (A)
                 (A) (A) (A) (A) (A) (A) (A) (A) (A) (A) (A) (A)
                 (A) (A) (A) (A) (A) (A) (A) (A) (A) (A) (A) (A)
                 (A) (A) (A) (A) (A) (A) (A) (A) (A) (A) (A) (A)
                 (A) (A) (A) (A) (A) (A) (A) (A) (A) (A) (A) (A)
                 (A) (A) (A) (A) (A) (A) (A) (A) (A) (A) (A) (A)
                 (A) (A) (A) (A) (A) (A) (A) (A) (A) (A) (A) (A)
                 (A) (A) (A) (A) (A) (A) (A) (A) (A) (A) (A) (A)
                 (A) (A) (A) (A) (A) (A) (A) (A) (A) (A) (A) (A)
                 (A) (A) (A) (A) (A) (A) (A) (A) (A) (A) (A) (A)
                 (A) (A) (A) (A) (A) (A) (A) (A) (A) (A) (A) (A)
                 (A) (A) (A) (A) (A) (A) (A) (A) (A) (A) (A) (A)
                 (A) (A) (A) (A) (A) (A) (A) (A) (A) (A) (A) (A)
                 (A) (A) (A) (A) (A) (A) (A) (A) (A) (A) (A) (A)
                 (A) (A) (A) (A) (A) (A) (A) (A) (A) (A) (A) (A)
                 (A) (A) (A) (A) (A) (A) (A) (A) (A) (A) (A) (A)
                 (A) (A) (A) (A) (A) (A) (A) (A) (A) (A) (A) (A)
                 (A) (A) (A) (A) (A) (A) (A) (A) (A) (A) (A) (A)
                 (A) (A) (A) (A) (A) (A) (A) (A) (A) (A) (A) (A)
                 (A) (A) (A) (A) (A) (A) (A) (A) (A) (A) (A) (A)
                 (A) (A) (A) (A) (A) (A) (A) (A) (A) (A) (A) (A)
                 (A) (A) (A) (A) (A) (A) (A) (A) (A) (A) (A) (A)
                 (A) (A) (A) (A) (A) (A) (A) (A) (A) (A) (A) (A)
                 (A) (A) (A) (A) (A) (A) (A) (A) (A) (A) (A) (A)
                 (A) (A) (A) (A) (A) (A) (A) (A) (A) (A) (A) (A)
                 (A) (A) (A) (A) (A) (A) (A) (A) (A)
 The electronic state is 1-A.
 Alpha  occ. eigenvalues --  -25.20983 -25.20921 -19.69341 -19.69287 -19.68946
 Alpha  occ. eigenvalues --  -19.68882 -19.68123 -19.68120 -15.02789 -15.02566
 Alpha  occ. eigenvalues --  -15.01596 -14.79326 -14.79234 -10.64826 -10.64391
 Alpha  occ. eigenvalues --  -10.62284 -10.61399 -10.61116 -10.60829 -10.60320
 Alpha  occ. eigenvalues --  -10.60069 -10.59789 -10.59606 -10.59566 -10.59515
 Alpha  occ. eigenvalues --  -10.58667 -10.58359 -10.58353 -10.57798 -10.57762
 Alpha  occ. eigenvalues --  -10.57703 -10.57702 -10.57626 -10.57489 -10.56715
 Alpha  occ. eigenvalues --  -10.56572 -10.56283 -10.55526 -10.55484 -10.55384
 Alpha  occ. eigenvalues --  -10.55234 -10.55163 -10.54942 -10.54845 -10.54449
 Alpha  occ. eigenvalues --  -10.54319  -7.13841  -1.38626  -1.37815  -1.37128
 Alpha  occ. eigenvalues --   -1.32938  -1.29691  -1.20218  -1.19447  -1.18646
 Alpha  occ. eigenvalues --   -1.11340  -1.09418  -1.03660  -1.01365  -0.97512
 Alpha  occ. eigenvalues --   -0.96368  -0.95635  -0.93699  -0.92372  -0.91756
 Alpha  occ. eigenvalues --   -0.91311  -0.90687  -0.89282  -0.88071  -0.86050
 Alpha  occ. eigenvalues --   -0.85256  -0.85055  -0.82622  -0.81749  -0.80706
 Alpha  occ. eigenvalues --   -0.80165  -0.78820  -0.75734  -0.73655  -0.73485
 Alpha  occ. eigenvalues --   -0.72946  -0.71334  -0.70646  -0.69854  -0.69533
 Alpha  occ. eigenvalues --   -0.68520  -0.67924  -0.66829  -0.66344  -0.65963
 Alpha  occ. eigenvalues --   -0.64962  -0.64670  -0.63963  -0.63739  -0.63579
 Alpha  occ. eigenvalues --   -0.63433  -0.63161  -0.62382  -0.62138  -0.61340
 Alpha  occ. eigenvalues --   -0.60819  -0.59816  -0.59055  -0.58825  -0.58051
 Alpha  occ. eigenvalues --   -0.56245  -0.56025  -0.55781  -0.55081  -0.54721
 Alpha  occ. eigenvalues --   -0.54267  -0.53625  -0.53424  -0.52702  -0.52599
 Alpha  occ. eigenvalues --   -0.52340  -0.52066  -0.51432  -0.50982  -0.49982
 Alpha  occ. eigenvalues --   -0.49853  -0.49666  -0.49594  -0.49307  -0.49211
 Alpha  occ. eigenvalues --   -0.48357  -0.48162  -0.47972  -0.47200  -0.47145
 Alpha  occ. eigenvalues --   -0.47044  -0.46765  -0.45942  -0.45796  -0.45140
 Alpha  occ. eigenvalues --   -0.44596  -0.44207  -0.44089  -0.43681  -0.43102
 Alpha  occ. eigenvalues --   -0.42546  -0.42395  -0.41990  -0.41702  -0.41603
 Alpha  occ. eigenvalues --   -0.41285  -0.41048  -0.40855  -0.40475  -0.40357
 Alpha  occ. eigenvalues --   -0.39929  -0.39898  -0.39424  -0.39064  -0.36354
 Alpha  occ. eigenvalues --   -0.35712  -0.34294  -0.34245  -0.32861  -0.32754
 Alpha  occ. eigenvalues --   -0.31969  -0.31793  -0.29398  -0.24489
 Alpha virt. eigenvalues --   -0.11255  -0.08766  -0.07647  -0.05697  -0.03446
 Alpha virt. eigenvalues --   -0.01684  -0.01136  -0.00985   0.01117   0.01837
 Alpha virt. eigenvalues --    0.03855   0.04788   0.05461   0.06221   0.07158
 Alpha virt. eigenvalues --    0.07770   0.08079   0.08446   0.09006   0.09224
 Alpha virt. eigenvalues --    0.09375   0.09752   0.09944   0.10227   0.10439
 Alpha virt. eigenvalues --    0.10844   0.11204   0.11461   0.12313   0.12433
 Alpha virt. eigenvalues --    0.12541   0.13041   0.13341   0.13810   0.14274
 Alpha virt. eigenvalues --    0.14481   0.14825   0.14898   0.15507   0.15653
 Alpha virt. eigenvalues --    0.15784   0.16159   0.16370   0.16696   0.16806
 Alpha virt. eigenvalues --    0.17113   0.17487   0.17765   0.17901   0.18186
 Alpha virt. eigenvalues --    0.18239   0.18993   0.19294   0.19538   0.19719
 Alpha virt. eigenvalues --    0.19832   0.20102   0.20651   0.20984   0.21328
 Alpha virt. eigenvalues --    0.21606   0.21817   0.22068   0.22397   0.22581
 Alpha virt. eigenvalues --    0.22821   0.22922   0.23061   0.23273   0.23621
 Alpha virt. eigenvalues --    0.23882   0.24204   0.24633   0.24660   0.24794
 Alpha virt. eigenvalues --    0.25308   0.25573   0.26015   0.26120   0.26310
 Alpha virt. eigenvalues --    0.26482   0.26605   0.26782   0.26871   0.27283
 Alpha virt. eigenvalues --    0.27403   0.27517   0.27739   0.28501   0.28566
 Alpha virt. eigenvalues --    0.28746   0.29143   0.29412   0.29586   0.29788
 Alpha virt. eigenvalues --    0.29872   0.30171   0.30452   0.30668   0.30836
 Alpha virt. eigenvalues --    0.31325   0.31600   0.31955   0.32124   0.32317
 Alpha virt. eigenvalues --    0.32548   0.32759   0.32980   0.33261   0.33324
 Alpha virt. eigenvalues --    0.33748   0.33892   0.34068   0.34504   0.34618
 Alpha virt. eigenvalues --    0.34844   0.35205   0.35346   0.35529   0.35820
 Alpha virt. eigenvalues --    0.36017   0.36172   0.36350   0.36748   0.36877
 Alpha virt. eigenvalues --    0.37015   0.37283   0.37734   0.37815   0.38104
 Alpha virt. eigenvalues --    0.38309   0.38480   0.38751   0.38988   0.39163
 Alpha virt. eigenvalues --    0.39296   0.39488   0.39973   0.40092   0.40230
 Alpha virt. eigenvalues --    0.40706   0.40812   0.41029   0.41058   0.41501
 Alpha virt. eigenvalues --    0.41860   0.41931   0.42106   0.42417   0.42529
 Alpha virt. eigenvalues --    0.42693   0.42806   0.43026   0.43052   0.43354
 Alpha virt. eigenvalues --    0.43457   0.44041   0.44211   0.44448   0.44500
 Alpha virt. eigenvalues --    0.44998   0.45290   0.45549   0.45772   0.46245
 Alpha virt. eigenvalues --    0.46777   0.46902   0.47098   0.47359   0.47471
 Alpha virt. eigenvalues --    0.47551   0.47905   0.48148   0.48325   0.48702
 Alpha virt. eigenvalues --    0.48898   0.49005   0.49063   0.49266   0.49414
 Alpha virt. eigenvalues --    0.49779   0.50012   0.50256   0.50494   0.50657
 Alpha virt. eigenvalues --    0.50942   0.51038   0.51165   0.51531   0.51597
 Alpha virt. eigenvalues --    0.52022   0.52179   0.52285   0.52552   0.52633
 Alpha virt. eigenvalues --    0.52688   0.52830   0.53024   0.53354   0.53460
 Alpha virt. eigenvalues --    0.53652   0.53924   0.54404   0.54711   0.54765
 Alpha virt. eigenvalues --    0.54940   0.55496   0.55977   0.56132   0.56549
 Alpha virt. eigenvalues --    0.56668   0.56789   0.57066   0.57299   0.57688
 Alpha virt. eigenvalues --    0.57990   0.58191   0.58542   0.58880   0.59344
 Alpha virt. eigenvalues --    0.59893   0.60140   0.60584   0.61016   0.61129
 Alpha virt. eigenvalues --    0.61364   0.61605   0.62146   0.62190   0.62506
 Alpha virt. eigenvalues --    0.62638   0.62803   0.63016   0.63273   0.63741
 Alpha virt. eigenvalues --    0.63855   0.64031   0.64299   0.64433   0.64686
 Alpha virt. eigenvalues --    0.65389   0.65521   0.65827   0.66210   0.66400
 Alpha virt. eigenvalues --    0.66750   0.66855   0.66956   0.67259   0.67374
 Alpha virt. eigenvalues --    0.67730   0.67949   0.68165   0.68217   0.68449
 Alpha virt. eigenvalues --    0.69215   0.69256   0.69555   0.69776   0.70060
 Alpha virt. eigenvalues --    0.70110   0.70370   0.70635   0.70856   0.71018
 Alpha virt. eigenvalues --    0.71274   0.71496   0.71868   0.72296   0.72501
 Alpha virt. eigenvalues --    0.72540   0.72722   0.73280   0.73353   0.73781
 Alpha virt. eigenvalues --    0.73887   0.74356   0.74440   0.74721   0.74972
 Alpha virt. eigenvalues --    0.75076   0.75307   0.75526   0.75862   0.76025
 Alpha virt. eigenvalues --    0.76649   0.76752   0.76946   0.77253   0.77732
 Alpha virt. eigenvalues --    0.77945   0.78179   0.78633   0.79026   0.79233
 Alpha virt. eigenvalues --    0.79402   0.79882   0.80308   0.80746   0.81198
 Alpha virt. eigenvalues --    0.81388   0.81395   0.81901   0.82465   0.82691
 Alpha virt. eigenvalues --    0.83005   0.83388   0.83652   0.83808   0.84273
 Alpha virt. eigenvalues --    0.84673   0.84975   0.85245   0.85786   0.85996
 Alpha virt. eigenvalues --    0.86115   0.86428   0.86791   0.87027   0.87255
 Alpha virt. eigenvalues --    0.88468   0.88919   0.88968   0.89426   0.89589
 Alpha virt. eigenvalues --    0.89970   0.90217   0.90706   0.91070   0.91206
 Alpha virt. eigenvalues --    0.91896   0.92129   0.92505   0.93239   0.93572
 Alpha virt. eigenvalues --    0.93772   0.94297   0.94731   0.94916   0.95141
 Alpha virt. eigenvalues --    0.95189   0.95805   0.96414   0.96793   0.97019
 Alpha virt. eigenvalues --    0.97552   0.97858   0.98375   0.98540   0.98725
 Alpha virt. eigenvalues --    0.98955   0.99245   0.99297   0.99711   0.99969
 Alpha virt. eigenvalues --    1.00105   1.00534   1.00886   1.01014   1.01355
 Alpha virt. eigenvalues --    1.01742   1.01944   1.02336   1.02484   1.02816
 Alpha virt. eigenvalues --    1.03481   1.03533   1.03812   1.04117   1.04590
 Alpha virt. eigenvalues --    1.04806   1.05159   1.05191   1.05509   1.05785
 Alpha virt. eigenvalues --    1.06425   1.06449   1.06998   1.07167   1.07572
 Alpha virt. eigenvalues --    1.07690   1.08153   1.08415   1.08642   1.08928
 Alpha virt. eigenvalues --    1.09190   1.10000   1.10204   1.10487   1.10668
 Alpha virt. eigenvalues --    1.11121   1.11397   1.11664   1.12129   1.12318
 Alpha virt. eigenvalues --    1.12523   1.12896   1.13266   1.13788   1.14352
 Alpha virt. eigenvalues --    1.14468   1.14985   1.15121   1.15673   1.16278
 Alpha virt. eigenvalues --    1.16637   1.16960   1.17367   1.17797   1.17876
 Alpha virt. eigenvalues --    1.18046   1.18631   1.19009   1.19285   1.19782
 Alpha virt. eigenvalues --    1.19903   1.20093   1.20607   1.21040   1.21497
 Alpha virt. eigenvalues --    1.21669   1.22188   1.22915   1.23068   1.23119
 Alpha virt. eigenvalues --    1.23656   1.23916   1.24136   1.24384   1.24924
 Alpha virt. eigenvalues --    1.25100   1.25428   1.25986   1.26155   1.26441
 Alpha virt. eigenvalues --    1.26843   1.26988   1.27168   1.27691   1.28150
 Alpha virt. eigenvalues --    1.28401   1.28738   1.29780   1.29941   1.30085
 Alpha virt. eigenvalues --    1.30287   1.30461   1.30708   1.30962   1.31246
 Alpha virt. eigenvalues --    1.31626   1.31997   1.32683   1.32904   1.32975
 Alpha virt. eigenvalues --    1.33471   1.33927   1.34192   1.34569   1.34965
 Alpha virt. eigenvalues --    1.35272   1.35475   1.35966   1.36161   1.36480
 Alpha virt. eigenvalues --    1.36644   1.37169   1.37544   1.38037   1.38568
 Alpha virt. eigenvalues --    1.38977   1.39129   1.39271   1.39688   1.39945
 Alpha virt. eigenvalues --    1.40300   1.40875   1.41312   1.41966   1.42427
 Alpha virt. eigenvalues --    1.42555   1.42813   1.43225   1.43676   1.43777
 Alpha virt. eigenvalues --    1.44352   1.44753   1.45043   1.45373   1.45765
 Alpha virt. eigenvalues --    1.45885   1.45963   1.46054   1.46541   1.47019
 Alpha virt. eigenvalues --    1.47388   1.47913   1.48428   1.48487   1.49076
 Alpha virt. eigenvalues --    1.49393   1.49655   1.50008   1.50201   1.50599
 Alpha virt. eigenvalues --    1.50883   1.51100   1.51865   1.52350   1.52531
 Alpha virt. eigenvalues --    1.52901   1.53113   1.53398   1.53555   1.53964
 Alpha virt. eigenvalues --    1.54128   1.54435   1.54645   1.55153   1.55296
 Alpha virt. eigenvalues --    1.55736   1.55973   1.56333   1.56712   1.56796
 Alpha virt. eigenvalues --    1.56963   1.57582   1.57699   1.58199   1.58623
 Alpha virt. eigenvalues --    1.59091   1.59190   1.59415   1.59644   1.60063
 Alpha virt. eigenvalues --    1.60395   1.60949   1.61121   1.61195   1.61761
 Alpha virt. eigenvalues --    1.62274   1.62424   1.62448   1.63156   1.63316
 Alpha virt. eigenvalues --    1.63575   1.64133   1.64255   1.64765   1.64918
 Alpha virt. eigenvalues --    1.65419   1.65679   1.65989   1.66118   1.66276
 Alpha virt. eigenvalues --    1.66685   1.67079   1.67522   1.67594   1.67962
 Alpha virt. eigenvalues --    1.68685   1.69041   1.69221   1.69926   1.70421
 Alpha virt. eigenvalues --    1.70512   1.71312   1.71598   1.71939   1.72478
 Alpha virt. eigenvalues --    1.72799   1.73360   1.73680   1.74032   1.74170
 Alpha virt. eigenvalues --    1.74913   1.75112   1.75586   1.76020   1.76332
 Alpha virt. eigenvalues --    1.76733   1.77268   1.77462   1.77823   1.78261
 Alpha virt. eigenvalues --    1.78422   1.78953   1.79641   1.80452   1.80651
 Alpha virt. eigenvalues --    1.80748   1.81005   1.81427   1.81911   1.82384
 Alpha virt. eigenvalues --    1.83108   1.83287   1.83820   1.84336   1.84623
 Alpha virt. eigenvalues --    1.85181   1.86100   1.86398   1.86709   1.87239
 Alpha virt. eigenvalues --    1.87466   1.87909   1.88125   1.88850   1.89258
 Alpha virt. eigenvalues --    1.89565   1.89681   1.90450   1.90868   1.91769
 Alpha virt. eigenvalues --    1.92826   1.93201   1.93973   1.94783   1.94905
 Alpha virt. eigenvalues --    1.95198   1.95460   1.95765   1.96232   1.96904
 Alpha virt. eigenvalues --    1.97037   1.97521   1.98213   1.98681   1.98946
 Alpha virt. eigenvalues --    1.99340   1.99615   1.99698   2.00423   2.00720
 Alpha virt. eigenvalues --    2.00982   2.01259   2.01697   2.02028   2.02668
 Alpha virt. eigenvalues --    2.03034   2.03280   2.03718   2.03981   2.04978
 Alpha virt. eigenvalues --    2.05283   2.05575   2.05940   2.06523   2.06863
 Alpha virt. eigenvalues --    2.07322   2.07421   2.07657   2.08141   2.08457
 Alpha virt. eigenvalues --    2.09027   2.09117   2.10025   2.10413   2.10718
 Alpha virt. eigenvalues --    2.11365   2.11582   2.13068   2.13490   2.13618
 Alpha virt. eigenvalues --    2.13880   2.14337   2.14427   2.15646   2.16212
 Alpha virt. eigenvalues --    2.16904   2.17161   2.17280   2.17833   2.18062
 Alpha virt. eigenvalues --    2.18617   2.19777   2.20138   2.20557   2.21374
 Alpha virt. eigenvalues --    2.22488   2.22982   2.23722   2.24300   2.25203
 Alpha virt. eigenvalues --    2.25653   2.26168   2.26714   2.27308   2.27800
 Alpha virt. eigenvalues --    2.28180   2.28312   2.28815   2.29158   2.29759
 Alpha virt. eigenvalues --    2.29931   2.30430   2.30721   2.31143   2.31620
 Alpha virt. eigenvalues --    2.31673   2.31993   2.32763   2.33420   2.33877
 Alpha virt. eigenvalues --    2.34603   2.35165   2.35865   2.35975   2.36378
 Alpha virt. eigenvalues --    2.36443   2.37120   2.37221   2.37734   2.38117
 Alpha virt. eigenvalues --    2.38556   2.39315   2.39663   2.39989   2.40566
 Alpha virt. eigenvalues --    2.41558   2.42610   2.43199   2.43914   2.44912
 Alpha virt. eigenvalues --    2.45166   2.45602   2.46431   2.47126   2.47499
 Alpha virt. eigenvalues --    2.47878   2.48734   2.49853   2.50306   2.50534
 Alpha virt. eigenvalues --    2.50630   2.52142   2.52797   2.53778   2.54090
 Alpha virt. eigenvalues --    2.54928   2.55180   2.55710   2.55812   2.56003
 Alpha virt. eigenvalues --    2.57831   2.58096   2.58402   2.59536   2.59965
 Alpha virt. eigenvalues --    2.60946   2.61416   2.61650   2.62129   2.62690
 Alpha virt. eigenvalues --    2.63086   2.63866   2.63984   2.64629   2.64732
 Alpha virt. eigenvalues --    2.65049   2.65548   2.65704   2.65874   2.66450
 Alpha virt. eigenvalues --    2.67312   2.67953   2.68228   2.68445   2.68946
 Alpha virt. eigenvalues --    2.69314   2.70128   2.70456   2.71373   2.71595
 Alpha virt. eigenvalues --    2.71989   2.72418   2.72557   2.72886   2.73192
 Alpha virt. eigenvalues --    2.73330   2.73693   2.73877   2.74163   2.74261
 Alpha virt. eigenvalues --    2.74777   2.75096   2.75294   2.75460   2.75774
 Alpha virt. eigenvalues --    2.76186   2.76405   2.76710   2.77038   2.77114
 Alpha virt. eigenvalues --    2.77679   2.77822   2.78301   2.78633   2.79057
 Alpha virt. eigenvalues --    2.79301   2.79329   2.79915   2.80203   2.80642
 Alpha virt. eigenvalues --    2.81053   2.81150   2.81596   2.81664   2.81788
 Alpha virt. eigenvalues --    2.82257   2.82671   2.83030   2.83228   2.83914
 Alpha virt. eigenvalues --    2.84130   2.84614   2.84962   2.85440   2.85790
 Alpha virt. eigenvalues --    2.85915   2.86206   2.86567   2.86813   2.87064
 Alpha virt. eigenvalues --    2.87781   2.88030   2.88401   2.88704   2.89126
 Alpha virt. eigenvalues --    2.89641   2.89898   2.90238   2.90570   2.90695
 Alpha virt. eigenvalues --    2.90912   2.91196   2.91310   2.91617   2.91826
 Alpha virt. eigenvalues --    2.91963   2.92473   2.93041   2.93484   2.93606
 Alpha virt. eigenvalues --    2.93887   2.93979   2.94269   2.94477   2.94868
 Alpha virt. eigenvalues --    2.95233   2.95309   2.96043   2.96271   2.96601
 Alpha virt. eigenvalues --    2.97132   2.97546   2.97727   2.98382   2.98643
 Alpha virt. eigenvalues --    2.98821   2.99074   2.99238   2.99783   3.00015
 Alpha virt. eigenvalues --    3.00305   3.00433   3.00701   3.01078   3.01223
 Alpha virt. eigenvalues --    3.01760   3.01995   3.02089   3.02401   3.02457
 Alpha virt. eigenvalues --    3.02560   3.02909   3.03219   3.03754   3.04027
 Alpha virt. eigenvalues --    3.04328   3.04645   3.04709   3.04910   3.05095
 Alpha virt. eigenvalues --    3.05299   3.05742   3.06222   3.06621   3.06885
 Alpha virt. eigenvalues --    3.07236   3.07405   3.07748   3.08165   3.08462
 Alpha virt. eigenvalues --    3.08795   3.08840   3.08921   3.09421   3.09529
 Alpha virt. eigenvalues --    3.09855   3.10028   3.10210   3.10740   3.10932
 Alpha virt. eigenvalues --    3.11223   3.11594   3.11709   3.12341   3.12552
 Alpha virt. eigenvalues --    3.12891   3.12965   3.13209   3.13748   3.13952
 Alpha virt. eigenvalues --    3.14167   3.14670   3.14831   3.14976   3.15251
 Alpha virt. eigenvalues --    3.15637   3.15793   3.15965   3.16106   3.16385
 Alpha virt. eigenvalues --    3.16799   3.17212   3.17385   3.17762   3.18364
 Alpha virt. eigenvalues --    3.18540   3.19035   3.19143   3.19337   3.19524
 Alpha virt. eigenvalues --    3.20204   3.20477   3.20882   3.21009   3.21629
 Alpha virt. eigenvalues --    3.21805   3.22111   3.22310   3.22698   3.22856
 Alpha virt. eigenvalues --    3.23205   3.23490   3.23572   3.24084   3.24403
 Alpha virt. eigenvalues --    3.24734   3.25222   3.25313   3.25691   3.26068
 Alpha virt. eigenvalues --    3.26138   3.26405   3.26784   3.27081   3.27434
 Alpha virt. eigenvalues --    3.27645   3.27918   3.28293   3.28798   3.29079
 Alpha virt. eigenvalues --    3.29429   3.29645   3.30017   3.30794   3.30899
 Alpha virt. eigenvalues --    3.31320   3.31619   3.31642   3.31935   3.32101
 Alpha virt. eigenvalues --    3.32651   3.33003   3.33340   3.33515   3.33905
 Alpha virt. eigenvalues --    3.34062   3.34649   3.35329   3.35563   3.35654
 Alpha virt. eigenvalues --    3.35779   3.36197   3.36526   3.36599   3.36978
 Alpha virt. eigenvalues --    3.37269   3.37361   3.37714   3.38139   3.38512
 Alpha virt. eigenvalues --    3.39172   3.39513   3.39733   3.39958   3.40618
 Alpha virt. eigenvalues --    3.40749   3.41005   3.41470   3.42046   3.42265
 Alpha virt. eigenvalues --    3.42404   3.42674   3.43578   3.43612   3.44093
 Alpha virt. eigenvalues --    3.44839   3.45335   3.45357   3.45987   3.46239
 Alpha virt. eigenvalues --    3.47022   3.47515   3.47765   3.47954   3.48299
 Alpha virt. eigenvalues --    3.48715   3.48963   3.49500   3.49733   3.50323
 Alpha virt. eigenvalues --    3.50794   3.50988   3.51261   3.51708   3.51827
 Alpha virt. eigenvalues --    3.52120   3.52496   3.52643   3.52746   3.53190
 Alpha virt. eigenvalues --    3.53516   3.53784   3.54429   3.54573   3.54933
 Alpha virt. eigenvalues --    3.55378   3.55858   3.56180   3.56415   3.56968
 Alpha virt. eigenvalues --    3.57512   3.57880   3.58536   3.58678   3.59469
 Alpha virt. eigenvalues --    3.59942   3.60260   3.60672   3.61036   3.61561
 Alpha virt. eigenvalues --    3.61966   3.62186   3.62427   3.62603   3.63394
 Alpha virt. eigenvalues --    3.63777   3.64239   3.64562   3.64898   3.65406
 Alpha virt. eigenvalues --    3.65673   3.66185   3.66804   3.67168   3.67336
 Alpha virt. eigenvalues --    3.67768   3.67870   3.68406   3.68958   3.69432
 Alpha virt. eigenvalues --    3.69592   3.70256   3.70696   3.71390   3.71730
 Alpha virt. eigenvalues --    3.71986   3.72320   3.72355   3.72554   3.72914
 Alpha virt. eigenvalues --    3.73307   3.73496   3.74021   3.74404   3.74614
 Alpha virt. eigenvalues --    3.74823   3.75094   3.75768   3.76411   3.76632
 Alpha virt. eigenvalues --    3.76789   3.76986   3.77268   3.77765   3.78149
 Alpha virt. eigenvalues --    3.78510   3.78981   3.79497   3.79812   3.80174
 Alpha virt. eigenvalues --    3.80479   3.81286   3.81514   3.82248   3.82702
 Alpha virt. eigenvalues --    3.83324   3.83652   3.84202   3.84429   3.84909
 Alpha virt. eigenvalues --    3.85179   3.85735   3.85920   3.86091   3.86347
 Alpha virt. eigenvalues --    3.86735   3.87168   3.87492   3.88354   3.88417
 Alpha virt. eigenvalues --    3.88862   3.89092   3.89143   3.89636   3.89769
 Alpha virt. eigenvalues --    3.90314   3.90854   3.91125   3.91532   3.91896
 Alpha virt. eigenvalues --    3.92378   3.92531   3.92984   3.93273   3.93595
 Alpha virt. eigenvalues --    3.94120   3.94865   3.94896   3.95928   3.96209
 Alpha virt. eigenvalues --    3.96493   3.96905   3.97592   3.97913   3.98187
 Alpha virt. eigenvalues --    3.98550   3.98714   3.99757   4.00112   4.00511
 Alpha virt. eigenvalues --    4.00599   4.00987   4.01490   4.01657   4.01839
 Alpha virt. eigenvalues --    4.02368   4.02724   4.03023   4.03338   4.03688
 Alpha virt. eigenvalues --    4.04004   4.04533   4.04755   4.04939   4.05256
 Alpha virt. eigenvalues --    4.05623   4.05854   4.06682   4.06995   4.07463
 Alpha virt. eigenvalues --    4.07525   4.07783   4.08695   4.08926   4.09406
 Alpha virt. eigenvalues --    4.09718   4.09957   4.10490   4.10616   4.10854
 Alpha virt. eigenvalues --    4.11634   4.12357   4.12391   4.12937   4.13040
 Alpha virt. eigenvalues --    4.13323   4.13889   4.14285   4.14417   4.14998
 Alpha virt. eigenvalues --    4.15230   4.15399   4.15924   4.16200   4.16437
 Alpha virt. eigenvalues --    4.16704   4.17228   4.17526   4.17719   4.18319
 Alpha virt. eigenvalues --    4.18675   4.19026   4.19643   4.19815   4.20202
 Alpha virt. eigenvalues --    4.20502   4.20739   4.21012   4.21366   4.21411
 Alpha virt. eigenvalues --    4.21913   4.22290   4.22607   4.23008   4.23583
 Alpha virt. eigenvalues --    4.23955   4.24264   4.24460   4.24798   4.25540
 Alpha virt. eigenvalues --    4.25568   4.25746   4.26178   4.26236   4.26698
 Alpha virt. eigenvalues --    4.27316   4.27459   4.27938   4.28394   4.28952
 Alpha virt. eigenvalues --    4.29198   4.29641   4.29787   4.29922   4.31251
 Alpha virt. eigenvalues --    4.31656   4.32127   4.32432   4.32918   4.33605
 Alpha virt. eigenvalues --    4.34288   4.35185   4.35645   4.36042   4.36531
 Alpha virt. eigenvalues --    4.37156   4.37507   4.38101   4.38333   4.38797
 Alpha virt. eigenvalues --    4.40065   4.40391   4.41247   4.41306   4.42501
 Alpha virt. eigenvalues --    4.42702   4.44193   4.44824   4.45420   4.46832
 Alpha virt. eigenvalues --    4.47041   4.47864   4.48565   4.48714   4.49233
 Alpha virt. eigenvalues --    4.49581   4.50610   4.50992   4.51316   4.51910
 Alpha virt. eigenvalues --    4.52045   4.52889   4.53927   4.54325   4.54896
 Alpha virt. eigenvalues --    4.56351   4.56963   4.57198   4.57512   4.58255
 Alpha virt. eigenvalues --    4.58808   4.59229   4.60030   4.60229   4.60379
 Alpha virt. eigenvalues --    4.60904   4.61111   4.61453   4.61957   4.62120
 Alpha virt. eigenvalues --    4.63151   4.63219   4.63705   4.64272   4.64384
 Alpha virt. eigenvalues --    4.64824   4.64841   4.65352   4.66069   4.67626
 Alpha virt. eigenvalues --    4.67897   4.68462   4.69175   4.69530   4.70007
 Alpha virt. eigenvalues --    4.70397   4.71053   4.71435   4.71917   4.72128
 Alpha virt. eigenvalues --    4.72586   4.73037   4.73376   4.74640   4.74987
 Alpha virt. eigenvalues --    4.75551   4.75985   4.76203   4.76649   4.77483
 Alpha virt. eigenvalues --    4.78070   4.78635   4.79393   4.79546   4.79898
 Alpha virt. eigenvalues --    4.80505   4.81217   4.82120   4.82575   4.82678
 Alpha virt. eigenvalues --    4.83973   4.85056   4.85393   4.85711   4.86077
 Alpha virt. eigenvalues --    4.86371   4.87859   4.88954   4.89616   4.89855
 Alpha virt. eigenvalues --    4.90690   4.90947   4.91398   4.91819   4.92096
 Alpha virt. eigenvalues --    4.92766   4.93202   4.93671   4.93769   4.93890
 Alpha virt. eigenvalues --    4.94599   4.95504   4.95873   4.96577   4.97066
 Alpha virt. eigenvalues --    4.97263   4.97815   4.98994   5.00223   5.00740
 Alpha virt. eigenvalues --    5.01279   5.02258   5.02839   5.03535   5.04803
 Alpha virt. eigenvalues --    5.04873   5.05509   5.05668   5.05792   5.06131
 Alpha virt. eigenvalues --    5.07300   5.07729   5.08455   5.08672   5.09243
 Alpha virt. eigenvalues --    5.09795   5.10070   5.10504   5.10593   5.11287
 Alpha virt. eigenvalues --    5.11923   5.12317   5.12735   5.13429   5.13736
 Alpha virt. eigenvalues --    5.13926   5.13999   5.14250   5.14457   5.15098
 Alpha virt. eigenvalues --    5.15240   5.15663   5.16764   5.17173   5.17690
 Alpha virt. eigenvalues --    5.17732   5.18159   5.18629   5.19240   5.19984
 Alpha virt. eigenvalues --    5.20329   5.21212   5.21836   5.22992   5.23559
 Alpha virt. eigenvalues --    5.24027   5.24794   5.26040   5.26653   5.26980
 Alpha virt. eigenvalues --    5.28612   5.28681   5.28856   5.29076   5.29332
 Alpha virt. eigenvalues --    5.29984   5.30157   5.30540   5.30730   5.30999
 Alpha virt. eigenvalues --    5.31419   5.31796   5.32591   5.33304   5.34090
 Alpha virt. eigenvalues --    5.34804   5.35192   5.36075   5.37050   5.37149
 Alpha virt. eigenvalues --    5.37479   5.37634   5.38120   5.38956   5.39504
 Alpha virt. eigenvalues --    5.40089   5.40547   5.40834   5.41189   5.42330
 Alpha virt. eigenvalues --    5.42806   5.43251   5.43558   5.44394   5.45091
 Alpha virt. eigenvalues --    5.48762   5.49192   5.49433   5.50581   5.51251
 Alpha virt. eigenvalues --    5.52262   5.53066   5.53572   5.55327   5.56174
 Alpha virt. eigenvalues --    5.57106   5.57203   5.57548   5.58197   5.58818
 Alpha virt. eigenvalues --    5.59218   5.59784   5.60243   5.60965   5.61442
 Alpha virt. eigenvalues --    5.62569   5.62701   5.63894   5.64893   5.65396
 Alpha virt. eigenvalues --    5.65558   5.65760   5.66115   5.67348   5.69496
 Alpha virt. eigenvalues --    5.70268   5.70942   5.71436   5.73491   5.75104
 Alpha virt. eigenvalues --    5.75891   5.78321   5.79416   5.83096   5.83785
 Alpha virt. eigenvalues --    5.85210   5.86653   5.87679   5.89658   5.90641
 Alpha virt. eigenvalues --    5.91090   5.91691   5.93604   5.94771   5.96646
 Alpha virt. eigenvalues --    5.99159   6.00824   6.03453   6.04083   6.09177
 Alpha virt. eigenvalues --    6.10844   6.15152   6.15950   6.22213   6.23488
 Alpha virt. eigenvalues --    6.24567   6.25268   6.28060   6.28422   6.29304
 Alpha virt. eigenvalues --    6.30395   6.32732   6.35314   6.35976   6.36185
 Alpha virt. eigenvalues --    6.37046   6.37691   6.38488   6.38753   6.40459
 Alpha virt. eigenvalues --    6.40785   6.41793   6.43124   6.44846   6.49996
 Alpha virt. eigenvalues --    6.65116   6.66323   6.70459   6.75425   6.80732
 Alpha virt. eigenvalues --    6.81377   6.82635   6.83078   6.84314   6.84975
 Alpha virt. eigenvalues --    6.86190   6.87263   6.87403   6.93728   6.95002
 Alpha virt. eigenvalues --    6.96900   6.98552   6.99326   7.00097   7.04687
 Alpha virt. eigenvalues --    7.04793   7.06183   7.08378   7.11071   7.17197
 Alpha virt. eigenvalues --    7.19352   7.19815   7.20696   7.21915   7.24036
 Alpha virt. eigenvalues --    7.24956   7.26930   7.28410   7.31662   7.33011
 Alpha virt. eigenvalues --    7.33214   7.33315   7.34432   7.41275   7.44378
 Alpha virt. eigenvalues --    7.45298   7.50784   8.45875   8.48043   8.56257
 Alpha virt. eigenvalues --    8.61040   8.82090   8.87648   8.90288   8.92299
 Alpha virt. eigenvalues --    8.93583   9.00588  15.86895  22.77125  22.88671
 Alpha virt. eigenvalues --   22.92462  22.98540  23.00578  23.08958  23.11882
 Alpha virt. eigenvalues --   23.12694  23.15287  23.19175  23.19775  23.22832
 Alpha virt. eigenvalues --   23.23902  23.26327  23.28193  23.29562  23.30533
 Alpha virt. eigenvalues --   23.32445  23.34447  23.34784  23.35354  23.39513
 Alpha virt. eigenvalues --   23.46516  23.53166  23.55827  23.60324  23.71805
 Alpha virt. eigenvalues --   23.77267  23.85788  23.88090  24.01636  24.13953
 Alpha virt. eigenvalues --   24.18488  32.51015  32.59582  32.66202  33.14905
 Alpha virt. eigenvalues --   33.27880  44.09654  44.13582  44.16131  44.19218
 Alpha virt. eigenvalues --   44.20407  44.25029  57.37523  57.58028
          Condensed to atoms (all electrons):
 Mulliken charges:
               1
     1  C   -0.432880
     2  C   -0.006784
     3  C   -0.085578
     4  C    0.007177
     5  C   -0.089857
     6  C   -0.063044
     7  C    0.023107
     8  C   -0.142192
     9  C   -0.068178
    10  C    0.037230
    11  N    0.458850
    12  O   -0.346012
    13  O   -0.337469
    14  C    0.010964
    15  N    0.437055
    16  O   -0.315758
    17  O   -0.325802
    18  C   -0.047989
    19  N   -0.082184
    20  C    0.094086
    21  C    0.146683
    22  C   -0.262786
    23  C   -0.184058
    24  C   -0.036709
    25  C   -0.026936
    26  N    0.493801
    27  O   -0.366059
    28  O   -0.366122
    29  C   -0.044735
    30  C   -0.156637
    31  C    0.107547
    32  C   -0.007591
    33  C   -0.427742
    34  C   -0.073859
    35  C   -0.017883
    36  C   -0.083452
    37  C   -0.069159
    38  C    0.062860
    39  C   -0.176982
    40  C   -0.152807
    41  C   -0.146300
    42  C   -0.158237
    43  C   -0.140981
    44  N   -0.093314
    45  B    0.339425
    46  F   -0.341475
    47  F   -0.340335
    48  H    0.164960
    49  H    0.134424
    50  H    0.159058
    51  H    0.169443
    52  H    0.135522
    53  H    0.122112
    54  H    0.161104
    55  H    0.188422
    56  H    0.168432
    57  H    0.185150
    58  H    0.199206
    59  H    0.198830
    60  H    0.179484
    61  H    0.163050
    62  H    0.164306
    63  H    0.134898
    64  H    0.166064
    65  H    0.105495
    66  H    0.126162
    67  H    0.153073
    68  H    0.158452
    69  H    0.161220
    70  H    0.158796
    71  H    0.141439
 Sum of Mulliken charges =  -0.00000
 Mulliken charges with hydrogens summed into heavy atoms:
               1
     1  C    0.025561
     2  C   -0.006784
     3  C    0.083865
     4  C    0.007177
     5  C    0.045664
     6  C    0.059067
     7  C    0.023107
     8  C    0.018912
     9  C    0.120244
    10  C    0.037230
    11  N    0.458850
    12  O   -0.346012
    13  O   -0.337469
    14  C    0.010964
    15  N    0.437055
    16  O   -0.315758
    17  O   -0.325802
    18  C    0.120443
    19  N   -0.082184
    20  C    0.094086
    21  C    0.146683
    22  C   -0.262786
    23  C    0.001092
    24  C    0.162498
    25  C   -0.026936
    26  N    0.493801
    27  O   -0.366059
    28  O   -0.366122
    29  C    0.154095
    30  C    0.022847
    31  C    0.107547
    32  C   -0.007591
    33  C    0.034511
    34  C    0.092205
    35  C   -0.017883
    36  C    0.022043
    37  C    0.057003
    38  C    0.062860
    39  C   -0.023909
    40  C    0.005646
    41  C    0.014920
    42  C    0.000559
    43  C    0.000458
    44  N   -0.093314
    45  B    0.339425
    46  F   -0.341475
    47  F   -0.340335
 Electronic spatial extent (au):  <R**2>=          43376.2960
 Charge=             -0.0000 electrons
 Dipole moment (field-independent basis, Debye):
    X=            -10.5831    Y=              5.7222    Z=             -0.6882  Tot=             12.0507
 Quadrupole moment (field-independent basis, Debye-Ang):
   XX=           -413.8943   YY=           -257.9479   ZZ=           -272.8007
   XY=             12.8774   XZ=              5.0609   YZ=             -5.2394
 Traceless Quadrupole moment (field-independent basis, Debye-Ang):
   XX=            -99.0133   YY=             56.9331   ZZ=             42.0803
   XY=             12.8774   XZ=              5.0609   YZ=             -5.2394
 Octapole moment (field-independent basis, Debye-Ang**2):
  XXX=           -502.8526  YYY=            309.2544  ZZZ=             -1.5380  XYY=            -48.5063
  XXY=            741.7413  XXZ=             -9.4230  XZZ=            -20.0205  YZZ=            -36.3129
  YYZ=            -32.1100  XYZ=             16.3828
 Hexadecapole moment (field-independent basis, Debye-Ang**3):
 XXXX=         -57402.2236 YYYY=         -16255.9772 ZZZZ=           -860.3299 XXXY=           -157.3383
 XXXZ=            194.6840 YYYX=            774.8220 YYYZ=           -399.9052 ZZZX=            -24.4726
 ZZZY=             -4.7797 XXYY=         -11802.0587 XXZZ=          -6658.1054 YYZZ=          -3286.9584
 XXYZ=             80.4691 YYXZ=            145.1380 ZZXY=             23.4514
 N-N= 5.296170283657D+03 E-N=-1.577490518751D+04  KE= 2.209924390070D+03
 No NMR shielding tensors so no spin-rotation constants.
 Leave Link  601 at Sat Oct 25 01:42:16 2025, MaxMem= 30870077440 cpu:             109.7 elap:               2.0
 (Enter /public/software/gauss/g16/l9999.exe)
 1\1\GINC-CU056\SP\RM062X\def2TZVPP\C33H24B1F2N5O6\BAIDING\25-Oct-2025\
 0\\#p M062X/DEF2TZVPP scrf=(solvent=water) em=GD3\\Energy calculation 
 for BNP_23NO2\\0,1\C,0,-2.89144,-3.656247,0.158189\C,0,-1.882691,-2.55
 1072,0.077828\C,0,-0.510995,-2.745133,0.05276\C,0,0.122843,-1.482461,-
 0.032101\C,0,1.526791,-1.176035,-0.105717\C,0,2.505028,-2.105925,0.038
 193\C,0,3.934113,-1.852356,-0.03969\C,0,4.503486,-0.576002,-0.230036\C
 ,0,5.877909,-0.407955,-0.306346\C,0,6.73086,-1.505239,-0.184074\N,0,8.
 149469,-1.295202,-0.406084\O,0,8.617947,-0.183897,-0.139492\O,0,8.8107
 6,-2.224426,-0.880282\C,0,6.18015,-2.779176,0.028984\N,0,7.004807,-3.9
 58843,0.322491\O,0,7.923117,-3.831077,1.129737\O,0,6.690518,-5.018142,
 -0.218492\C,0,4.810579,-2.952655,0.094491\N,0,-0.842013,-0.514867,-0.0
 58617\C,0,-2.084763,-1.129455,0.007205\C,0,-3.259781,-0.349454,-0.0253
 9\C,0,-4.587225,-1.035701,-0.002079\C,0,-5.16552,-1.495008,-1.194687\C
 ,0,-6.39693,-2.140893,-1.177791\C,0,-7.036275,-2.32388,0.048112\N,0,-8
 .328213,-3.005539,0.074767\O,0,-8.88778,-3.163497,1.164496\O,0,-8.8092
 08,-3.396819,-0.993479\C,0,-6.484823,-1.879494,1.24956\C,0,-5.254763,-
 1.231347,1.216088\C,0,-3.199546,1.047121,-0.095496\C,0,-4.24869,2.0229
 24,-0.252728\C,0,-5.731374,1.828176,-0.332331\C,0,-3.616945,3.246394,-
 0.335242\C,0,-2.216143,3.058665,-0.201862\C,0,-1.294241,4.167867,-0.20
 7571\C,0,-0.0089,4.21237,0.224272\C,0,0.862296,5.384476,0.201257\C,0,0
 .507935,6.615227,-0.392038\C,0,1.388222,7.692004,-0.371854\C,0,2.64332
 2,7.571203,0.236346\C,0,3.012613,6.359104,0.823463\C,0,2.132847,5.2790
 13,0.803748\N,0,-1.968761,1.722192,-0.069184\B,0,-0.591174,1.013679,0.
 022755\F,0,0.23801,1.417576,-1.029992\F,0,0.036667,1.307472,1.246393\H
 ,0,-3.510765,-3.712209,-0.742341\H,0,-2.375079,-4.612753,0.271935\H,0,
 -3.569693,-3.532702,1.007465\H,0,-0.006881,-3.70125,0.0745\H,0,1.78295
 8,-0.141446,-0.303101\H,0,2.231023,-3.140342,0.227067\H,0,3.870922,0.2
 97497,-0.33345\H,0,6.305587,0.569336,-0.493018\H,0,4.413879,-3.943971,
 0.281927\H,0,-4.650961,-1.344518,-2.137339\H,0,-6.853517,-2.497421,-2.
 091966\H,0,-7.007674,-2.038266,2.183824\H,0,-4.809171,-0.877342,2.1391
 72\H,0,-6.01579,1.183848,-1.169507\H,0,-6.134181,1.370979,0.576301\H,0
 ,-6.217522,2.797286,-0.469211\H,0,-4.094417,4.209206,-0.458813\H,0,-1.
 760615,5.081727,-0.566799\H,0,0.43206,3.326414,0.665819\H,0,-0.456068,
 6.729448,-0.877126\H,0,1.098458,8.630619,-0.834799\H,0,3.326453,8.4150
 95,0.247913\H,0,3.98509,6.254695,1.295108\H,0,2.422114,4.336579,1.2607
 64\\Version=ES64L-G16RevA.03\State=1-A\HF=-2221.5038735\RMSD=4.732e-09
 \Dipole=-4.1637209,2.2512988,-0.2707531\Quadrupole=-73.6139868,42.3283
 321,31.2856546,9.5740663,3.7626361,-3.8953407\PG=C01 [X(C33H24B1F2N5O6
 )]\\@


 The arm of the moral universe is long, but it bends toward justice.
 -- Martin Luther King, Jr.
 Job cpu time:       0 days 16 hours 51 minutes 34.2 seconds.
 Elapsed time:       0 days  0 hours 16 minutes  5.0 seconds.
 File lengths (MBytes):  RWF=   2141 Int=      0 D2E=      0 Chk=    187 Scr=      1
 Normal termination of Gaussian 16 at Sat Oct 25 01:42:17 2025.
