 Entering Gaussian System, Link 0=g16
 Input=BNP_23NO2_reduced_sp.gjf
 Output=BNP_23NO2_reduced_sp.log
 Initial command:
 /public/software/gauss/g16/l1.exe "/public/home/baiding/1024_sp/tmp_BNP_23NO2_reduced_sp_1526250/Gau-2934746.inp" -scrdir="/public/home/baiding/1024_sp/tmp_BNP_23NO2_reduced_sp_1526250/"
 Entering Link 1 = /public/software/gauss/g16/l1.exe PID=   2934747.
  
 Copyright (c) 1988,1990,1992,1993,1995,1998,2003,2009,2016,
            Gaussian, Inc.  All Rights Reserved.
  
 This is part of the Gaussian(R) 16 program.  It is based on
 the Gaussian(R) 09 system (copyright 2009, Gaussian, Inc.),
 the Gaussian(R) 03 system (copyright 2003, Gaussian, Inc.),
 the Gaussian(R) 98 system (copyright 1998, Gaussian, Inc.),
 the Gaussian(R) 94 system (copyright 1995, Gaussian, Inc.),
 the Gaussian 92(TM) system (copyright 1992, Gaussian, Inc.),
 the Gaussian 90(TM) system (copyright 1990, Gaussian, Inc.),
 the Gaussian 88(TM) system (copyright 1988, Gaussian, Inc.),
 the Gaussian 86(TM) system (copyright 1986, Carnegie Mellon
 University), and the Gaussian 82(TM) system (copyright 1983,
 Carnegie Mellon University). Gaussian is a federally registered
 trademark of Gaussian, Inc.
  
 This software contains proprietary and confidential information,
 including trade secrets, belonging to Gaussian, Inc.
  
 This software is provided under written license and may be
 used, copied, transmitted, or stored only in accord with that
 written license.
  
 The following legend is applicable only to US Government
 contracts under FAR:
  
                    RESTRICTED RIGHTS LEGEND
  
 Use, reproduction and disclosure by the US Government is
 subject to restrictions as set forth in subparagraphs (a)
 and (c) of the Commercial Computer Software - Restricted
 Rights clause in FAR 52.227-19.
  
 Gaussian, Inc.
 340 Quinnipiac St., Bldg. 40, Wallingford CT 06492
  
  
 ---------------------------------------------------------------
 Warning -- This program may not be used in any manner that
 competes with the business of Gaussian, Inc. or will provide
 assistance to any competitor of Gaussian, Inc.  The licensee
 of this program is prohibited from giving any competitor of
 Gaussian, Inc. access to this program.  By using this program,
 the user acknowledges that Gaussian, Inc. is engaged in the
 business of creating and licensing software in the field of
 computational chemistry and represents and warrants to the
 licensee that it is not a competitor of Gaussian, Inc. and that
 it will not use this program in any manner prohibited above.
 ---------------------------------------------------------------
  

 Cite this work as:
 Gaussian 16, Revision A.03,
 M. J. Frisch, G. W. Trucks, H. B. Schlegel, G. E. Scuseria, 
 M. A. Robb, J. R. Cheeseman, G. Scalmani, V. Barone, 
 G. A. Petersson, H. Nakatsuji, X. Li, M. Caricato, A. V. Marenich, 
 J. Bloino, B. G. Janesko, R. Gomperts, B. Mennucci, H. P. Hratchian, 
 J. V. Ortiz, A. F. Izmaylov, J. L. Sonnenberg, D. Williams-Young, 
 F. Ding, F. Lipparini, F. Egidi, J. Goings, B. Peng, A. Petrone, 
 T. Henderson, D. Ranasinghe, V. G. Zakrzewski, J. Gao, N. Rega, 
 G. Zheng, W. Liang, M. Hada, M. Ehara, K. Toyota, R. Fukuda, 
 J. Hasegawa, M. Ishida, T. Nakajima, Y. Honda, O. Kitao, H. Nakai, 
 T. Vreven, K. Throssell, J. A. Montgomery, Jr., J. E. Peralta, 
 F. Ogliaro, M. J. Bearpark, J. J. Heyd, E. N. Brothers, K. N. Kudin, 
 V. N. Staroverov, T. A. Keith, R. Kobayashi, J. Normand, 
 K. Raghavachari, A. P. Rendell, J. C. Burant, S. S. Iyengar, 
 J. Tomasi, M. Cossi, J. M. Millam, M. Klene, C. Adamo, R. Cammi, 
 J. W. Ochterski, R. L. Martin, K. Morokuma, O. Farkas, 
 J. B. Foresman, and D. J. Fox, Gaussian, Inc., Wallingford CT, 2016.
 
 ******************************************
 Gaussian 16:  ES64L-G16RevA.03 25-Dec-2016
                25-Oct-2025 
 ******************************************
 %nprocshared=64
 Will use up to   64 processors via shared memory.
 %mem=230GB
 %chk=BNP_23NO2_reduced_sp.chk
 ----------------------------------------------
 #p M062X/DEF2TZVPP scrf=(solvent=water) em=GD3
 ----------------------------------------------
 1/38=1,172=1/1;
 2/12=2,17=6,18=5,40=1/2;
 3/5=44,7=202,11=2,25=1,30=1,70=2201,72=1,74=-55,124=31/1,2,3;
 4//1;
 5/5=2,38=5,53=1/2;
 6/7=2,8=2,9=2,10=2,28=1/1;
 99/5=1,9=1/99;
 Leave Link    1 at Sat Oct 25 00:45:12 2025, MaxMem= 30870077440 cpu:              20.4 elap:               0.3
 (Enter /public/software/gauss/g16/l101.exe)
 ----------------------------------------
 Energy calculation for BNP_23NO2_reduced
 ----------------------------------------
 Symbolic Z-matrix:
 Charge = -1 Multiplicity = 2
 C                    -2.85879  -3.66867   0.11767 
 C                    -1.85626  -2.55688   0.05547 
 C                    -0.48781  -2.73929   0.0374 
 C                     0.14356  -1.46685  -0.02812 
 C                     1.5419   -1.15833  -0.08275 
 C                     2.52382  -2.09952   0.0192 
 C                     3.94677  -1.85828  -0.03809 
 C                     4.53405  -0.56214  -0.16237 
 C                     5.89617  -0.40478  -0.22924 
 C                     6.77416  -1.5164   -0.17831 
 N                     8.1174   -1.31261  -0.52475 
 O                     8.59787  -0.1364   -0.47129 
 O                     8.82102  -2.28564  -0.91956 
 C                     6.2011   -2.80691   0.03798 
 N                     6.96618  -3.9533    0.42121 
 O                     8.02781  -3.79197   1.05877 
 O                     6.51815  -5.09505   0.14754 
 C                     4.81367  -2.95503   0.06716 
 N                    -0.82973  -0.50773  -0.04853 
 C                    -2.07391  -1.13169  -0.00043 
 C                    -3.24733  -0.3669   -0.02881 
 C                    -4.57274  -1.05749  -0.01179 
 C                    -5.1529   -1.50507  -1.20835 
 C                    -6.38346  -2.1527   -1.19828 
 C                    -7.02259  -2.34937   0.02581 
 N                    -8.31325  -3.0323    0.04586 
 O                    -8.87315  -3.20158   1.13399 
 O                    -8.79437  -3.41399  -1.02607 
 C                    -6.4706   -1.91686   1.2316 
 C                    -5.24123  -1.26727   1.20391 
 C                    -3.19739   1.04107  -0.08568 
 C                    -4.24863   2.00623  -0.22849 
 C                    -5.73212   1.8066   -0.31368 
 C                    -3.6237    3.24073  -0.2912 
 C                    -2.22653   3.06288  -0.16474 
 C                    -1.3096    4.17789  -0.15857 
 C                    -0.0115    4.22955   0.23079 
 C                     0.84132   5.41711   0.2081 
 C                     0.44735   6.65857  -0.33599 
 C                     1.31053   7.74966  -0.31801 
 C                     2.58981   7.63447   0.23825 
 C                     2.99909   6.41207   0.77537 
 C                     2.13593   5.31824   0.75837 
 N                    -1.97239   1.72044  -0.05025 
 B                    -0.59191   1.02093   0.03078 
 F                     0.22959   1.43181  -1.0281 
 F                     0.04666   1.32363   1.24933 
 H                    -3.47813  -3.71295  -0.78356 
 H                    -2.33806  -4.62456   0.21641 
 H                    -3.53818  -3.56166   0.96848 
 H                     0.02271  -3.6921    0.05503 
 H                     1.80356  -0.11664  -0.22606 
 H                     2.23961  -3.14074   0.15245 
 H                     3.90317   0.31733  -0.2235 
 H                     6.32978   0.5765   -0.37209 
 H                     4.40927  -3.94614   0.23568 
 H                    -4.63919  -1.34394  -2.14976 
 H                    -6.83987  -2.50024  -2.11603 
 H                    -6.99269  -2.0863    2.16446 
 H                    -4.79578  -0.9227    2.1307 
 H                    -6.01591   1.17402  -1.16012 
 H                    -6.13844   1.33761   0.58757 
 H                    -6.22152   2.77604  -0.43869 
 H                    -4.11103   4.20069  -0.40005 
 H                    -1.79401   5.09685  -0.48037 
 H                     0.45876   3.33916   0.63066 
 H                    -0.53584   6.77068  -0.78182 
 H                     0.98737   8.69559  -0.74274 
 H                     3.25968   8.48896   0.24803 
 H                     3.99062   6.30986   1.20643 
 H                     2.45854   4.36869   1.17693 
 
 ITRead=  0  0  0  0  0  0  0  0  0  0  0  0  0  0  0  0  0  0  0  0
 ITRead=  0  0  0  0  0  0  0  0  0  0  0  0  0  0  0  0  0  0  0  0
 ITRead=  0  0  0  0  0  0  0  0  0  0  0  0  0  0  0  0  0  0  0  0
 ITRead=  0  0  0  0  0  0  0  0  0  0  0
 MicOpt= -1 -1 -1 -1 -1 -1 -1 -1 -1 -1 -1 -1 -1 -1 -1 -1 -1 -1 -1 -1
 MicOpt= -1 -1 -1 -1 -1 -1 -1 -1 -1 -1 -1 -1 -1 -1 -1 -1 -1 -1 -1 -1
 MicOpt= -1 -1 -1 -1 -1 -1 -1 -1 -1 -1 -1 -1 -1 -1 -1 -1 -1 -1 -1 -1
 MicOpt= -1 -1 -1 -1 -1 -1 -1 -1 -1 -1 -1
 NAtoms=     71 NQM=       71 NQMF=       0 NMMI=      0 NMMIF=      0
                NMic=       0 NMicF=      0.
                    Isotopes and Nuclear Properties:
 (Nuclear quadrupole moments (NQMom) in fm**2, nuclear magnetic moments (NMagM)
  in nuclear magnetons)

  Atom         1           2           3           4           5           6           7           8           9          10
 IAtWgt=          12          12          12          12          12          12          12          12          12          12
 AtmWgt=  12.0000000  12.0000000  12.0000000  12.0000000  12.0000000  12.0000000  12.0000000  12.0000000  12.0000000  12.0000000
 NucSpn=           0           0           0           0           0           0           0           0           0           0
 AtZEff=  -0.0000000  -0.0000000  -0.0000000  -0.0000000  -0.0000000  -0.0000000  -0.0000000  -0.0000000  -0.0000000  -0.0000000
 NQMom=    0.0000000   0.0000000   0.0000000   0.0000000   0.0000000   0.0000000   0.0000000   0.0000000   0.0000000   0.0000000
 NMagM=    0.0000000   0.0000000   0.0000000   0.0000000   0.0000000   0.0000000   0.0000000   0.0000000   0.0000000   0.0000000
 AtZNuc=   6.0000000   6.0000000   6.0000000   6.0000000   6.0000000   6.0000000   6.0000000   6.0000000   6.0000000   6.0000000

  Atom        11          12          13          14          15          16          17          18          19          20
 IAtWgt=          14          16          16          12          14          16          16          12          14          12
 AtmWgt=  14.0030740  15.9949146  15.9949146  12.0000000  14.0030740  15.9949146  15.9949146  12.0000000  14.0030740  12.0000000
 NucSpn=           2           0           0           0           2           0           0           0           2           0
 AtZEff=  -0.0000000  -0.0000000  -0.0000000  -0.0000000  -0.0000000  -0.0000000  -0.0000000  -0.0000000  -0.0000000  -0.0000000
 NQMom=    2.0440000   0.0000000   0.0000000   0.0000000   2.0440000   0.0000000   0.0000000   0.0000000   2.0440000   0.0000000
 NMagM=    0.4037610   0.0000000   0.0000000   0.0000000   0.4037610   0.0000000   0.0000000   0.0000000   0.4037610   0.0000000
 AtZNuc=   7.0000000   8.0000000   8.0000000   6.0000000   7.0000000   8.0000000   8.0000000   6.0000000   7.0000000   6.0000000

  Atom        21          22          23          24          25          26          27          28          29          30
 IAtWgt=          12          12          12          12          12          14          16          16          12          12
 AtmWgt=  12.0000000  12.0000000  12.0000000  12.0000000  12.0000000  14.0030740  15.9949146  15.9949146  12.0000000  12.0000000
 NucSpn=           0           0           0           0           0           2           0           0           0           0
 AtZEff=  -0.0000000  -0.0000000  -0.0000000  -0.0000000  -0.0000000  -0.0000000  -0.0000000  -0.0000000  -0.0000000  -0.0000000
 NQMom=    0.0000000   0.0000000   0.0000000   0.0000000   0.0000000   2.0440000   0.0000000   0.0000000   0.0000000   0.0000000
 NMagM=    0.0000000   0.0000000   0.0000000   0.0000000   0.0000000   0.4037610   0.0000000   0.0000000   0.0000000   0.0000000
 AtZNuc=   6.0000000   6.0000000   6.0000000   6.0000000   6.0000000   7.0000000   8.0000000   8.0000000   6.0000000   6.0000000

  Atom        31          32          33          34          35          36          37          38          39          40
 IAtWgt=          12          12          12          12          12          12          12          12          12          12
 AtmWgt=  12.0000000  12.0000000  12.0000000  12.0000000  12.0000000  12.0000000  12.0000000  12.0000000  12.0000000  12.0000000
 NucSpn=           0           0           0           0           0           0           0           0           0           0
 AtZEff=  -0.0000000  -0.0000000  -0.0000000  -0.0000000  -0.0000000  -0.0000000  -0.0000000  -0.0000000  -0.0000000  -0.0000000
 NQMom=    0.0000000   0.0000000   0.0000000   0.0000000   0.0000000   0.0000000   0.0000000   0.0000000   0.0000000   0.0000000
 NMagM=    0.0000000   0.0000000   0.0000000   0.0000000   0.0000000   0.0000000   0.0000000   0.0000000   0.0000000   0.0000000
 AtZNuc=   6.0000000   6.0000000   6.0000000   6.0000000   6.0000000   6.0000000   6.0000000   6.0000000   6.0000000   6.0000000

  Atom        41          42          43          44          45          46          47          48          49          50
 IAtWgt=          12          12          12          14          11          19          19           1           1           1
 AtmWgt=  12.0000000  12.0000000  12.0000000  14.0030740  11.0093053  18.9984033  18.9984033   1.0078250   1.0078250   1.0078250
 NucSpn=           0           0           0           2           3           1           1           1           1           1
 AtZEff=  -0.0000000  -0.0000000  -0.0000000  -0.0000000  -0.0000000  -0.0000000  -0.0000000  -0.0000000  -0.0000000  -0.0000000
 NQMom=    0.0000000   0.0000000   0.0000000   2.0440000   4.0590000   0.0000000   0.0000000   0.0000000   0.0000000   0.0000000
 NMagM=    0.0000000   0.0000000   0.0000000   0.4037610   2.6886370   2.6288670   2.6288670   2.7928460   2.7928460   2.7928460
 AtZNuc=   6.0000000   6.0000000   6.0000000   7.0000000   5.0000000   9.0000000   9.0000000   1.0000000   1.0000000   1.0000000

  Atom        51          52          53          54          55          56          57          58          59          60
 IAtWgt=           1           1           1           1           1           1           1           1           1           1
 AtmWgt=   1.0078250   1.0078250   1.0078250   1.0078250   1.0078250   1.0078250   1.0078250   1.0078250   1.0078250   1.0078250
 NucSpn=           1           1           1           1           1           1           1           1           1           1
 AtZEff=  -0.0000000  -0.0000000  -0.0000000  -0.0000000  -0.0000000  -0.0000000  -0.0000000  -0.0000000  -0.0000000  -0.0000000
 NQMom=    0.0000000   0.0000000   0.0000000   0.0000000   0.0000000   0.0000000   0.0000000   0.0000000   0.0000000   0.0000000
 NMagM=    2.7928460   2.7928460   2.7928460   2.7928460   2.7928460   2.7928460   2.7928460   2.7928460   2.7928460   2.7928460
 AtZNuc=   1.0000000   1.0000000   1.0000000   1.0000000   1.0000000   1.0000000   1.0000000   1.0000000   1.0000000   1.0000000

  Atom        61          62          63          64          65          66          67          68          69          70
 IAtWgt=           1           1           1           1           1           1           1           1           1           1
 AtmWgt=   1.0078250   1.0078250   1.0078250   1.0078250   1.0078250   1.0078250   1.0078250   1.0078250   1.0078250   1.0078250
 NucSpn=           1           1           1           1           1           1           1           1           1           1
 AtZEff=  -0.0000000  -0.0000000  -0.0000000  -0.0000000  -0.0000000  -0.0000000  -0.0000000  -0.0000000  -0.0000000  -0.0000000
 NQMom=    0.0000000   0.0000000   0.0000000   0.0000000   0.0000000   0.0000000   0.0000000   0.0000000   0.0000000   0.0000000
 NMagM=    2.7928460   2.7928460   2.7928460   2.7928460   2.7928460   2.7928460   2.7928460   2.7928460   2.7928460   2.7928460
 AtZNuc=   1.0000000   1.0000000   1.0000000   1.0000000   1.0000000   1.0000000   1.0000000   1.0000000   1.0000000   1.0000000

  Atom        71
 IAtWgt=           1
 AtmWgt=   1.0078250
 NucSpn=           1
 AtZEff=  -0.0000000
 NQMom=    0.0000000
 NMagM=    2.7928460
 AtZNuc=   1.0000000
 Leave Link  101 at Sat Oct 25 00:45:12 2025, MaxMem= 30870077440 cpu:               4.4 elap:               0.1
 (Enter /public/software/gauss/g16/l202.exe)
 Stoichiometry    C33H24BF2N5O6(1-,2)
 Framework group  C1[X(C33H24BF2N5O6)]
 Deg. of freedom   207
 Full point group                 C1      NOp   1
 Largest Abelian subgroup         C1      NOp   1
 Largest concise Abelian subgroup C1      NOp   1
                         Standard orientation:                         
 ---------------------------------------------------------------------
 Center     Atomic      Atomic             Coordinates (Angstroms)
 Number     Number       Type             X           Y           Z
 ---------------------------------------------------------------------
      1          6           0       -2.858786   -3.668671    0.117666
      2          6           0       -1.856261   -2.556877    0.055467
      3          6           0       -0.487814   -2.739290    0.037399
      4          6           0        0.143560   -1.466854   -0.028116
      5          6           0        1.541897   -1.158327   -0.082746
      6          6           0        2.523823   -2.099522    0.019201
      7          6           0        3.946770   -1.858277   -0.038085
      8          6           0        4.534049   -0.562135   -0.162372
      9          6           0        5.896172   -0.404777   -0.229236
     10          6           0        6.774159   -1.516402   -0.178307
     11          7           0        8.117395   -1.312607   -0.524746
     12          8           0        8.597868   -0.136398   -0.471290
     13          8           0        8.821016   -2.285641   -0.919555
     14          6           0        6.201099   -2.806909    0.037983
     15          7           0        6.966177   -3.953304    0.421206
     16          8           0        8.027809   -3.791969    1.058771
     17          8           0        6.518150   -5.095047    0.147541
     18          6           0        4.813675   -2.955034    0.067159
     19          7           0       -0.829730   -0.507730   -0.048534
     20          6           0       -2.073908   -1.131692   -0.000432
     21          6           0       -3.247327   -0.366904   -0.028812
     22          6           0       -4.572741   -1.057487   -0.011791
     23          6           0       -5.152903   -1.505071   -1.208350
     24          6           0       -6.383459   -2.152695   -1.198277
     25          6           0       -7.022586   -2.349368    0.025812
     26          7           0       -8.313249   -3.032302    0.045858
     27          8           0       -8.873146   -3.201580    1.133986
     28          8           0       -8.794369   -3.413989   -1.026074
     29          6           0       -6.470605   -1.916858    1.231599
     30          6           0       -5.241234   -1.267265    1.203912
     31          6           0       -3.197393    1.041067   -0.085676
     32          6           0       -4.248627    2.006227   -0.228485
     33          6           0       -5.732124    1.806603   -0.313679
     34          6           0       -3.623700    3.240733   -0.291204
     35          6           0       -2.226525    3.062881   -0.164735
     36          6           0       -1.309596    4.177893   -0.158572
     37          6           0       -0.011503    4.229552    0.230786
     38          6           0        0.841324    5.417113    0.208101
     39          6           0        0.447349    6.658568   -0.335985
     40          6           0        1.310526    7.749662   -0.318009
     41          6           0        2.589811    7.634467    0.238252
     42          6           0        2.999090    6.412066    0.775368
     43          6           0        2.135929    5.318237    0.758368
     44          7           0       -1.972389    1.720439   -0.050251
     45          5           0       -0.591914    1.020932    0.030776
     46          9           0        0.229586    1.431810   -1.028098
     47          9           0        0.046662    1.323628    1.249331
     48          1           0       -3.478128   -3.712949   -0.783560
     49          1           0       -2.338062   -4.624562    0.216414
     50          1           0       -3.538176   -3.561655    0.968479
     51          1           0        0.022706   -3.692096    0.055025
     52          1           0        1.803563   -0.116639   -0.226055
     53          1           0        2.239614   -3.140736    0.152452
     54          1           0        3.903168    0.317326   -0.223496
     55          1           0        6.329782    0.576496   -0.372088
     56          1           0        4.409266   -3.946143    0.235678
     57          1           0       -4.639187   -1.343941   -2.149759
     58          1           0       -6.839867   -2.500240   -2.116031
     59          1           0       -6.992688   -2.086303    2.164455
     60          1           0       -4.795775   -0.922696    2.130701
     61          1           0       -6.015906    1.174016   -1.160117
     62          1           0       -6.138442    1.337613    0.587565
     63          1           0       -6.221524    2.776036   -0.438689
     64          1           0       -4.111032    4.200690   -0.400045
     65          1           0       -1.794010    5.096850   -0.480367
     66          1           0        0.458763    3.339163    0.630655
     67          1           0       -0.535840    6.770679   -0.781818
     68          1           0        0.987365    8.695586   -0.742742
     69          1           0        3.259684    8.488964    0.248030
     70          1           0        3.990621    6.309859    1.206427
     71          1           0        2.458544    4.368686    1.176934
 ---------------------------------------------------------------------
 Rotational constants (GHZ):           0.0712496           0.0311182           0.0221336
 Leave Link  202 at Sat Oct 25 00:45:12 2025, MaxMem= 30870077440 cpu:               0.2 elap:               0.0
 (Enter /public/software/gauss/g16/l301.exe)
 Standard basis: def2TZVPP (5D, 7F)
 Ernie: Thresh=  0.10000D-02 Tol=  0.10000D-05 Strict=F.
 There are  2052 symmetry adapted cartesian basis functions of A   symmetry.
 There are  1793 symmetry adapted basis functions of A   symmetry.
  1793 basis functions,  2805 primitive gaussians,  2052 cartesian basis functions
   165 alpha electrons      164 beta electrons
       nuclear repulsion energy      5290.0862477305 Hartrees.
 IExCor= 4336 DFT=T Ex+Corr=M062X ExCW=0 ScaHFX=  0.540000
 ScaDFX=  1.000000  1.000000  1.000000  1.000000 ScalE2=  1.000000  1.000000
 IRadAn=      5 IRanWt=     -1 IRanGd=            0 ICorTp=0 IEmpDi=131
 NAtoms=   71 NActive=   71 NUniq=   71 SFac= 1.00D+00 NAtFMM=   60 NAOKFM=T Big=T
 Integral buffers will be    131072 words long.
 Raffenetti 2 integral format.
 Two-electron integral symmetry is turned on.
 R6Disp:  Grimme-D3 Dispersion energy=       -0.0060327357 Hartrees.
 Nuclear repulsion after empirical dispersion term =     5290.0802149948 Hartrees.
 ------------------------------------------------------------------------------
 Polarizable Continuum Model (PCM)
 =================================
 Model                : PCM.
 Atomic radii         : UFF (Universal Force Field).
 Polarization charges : Total charges.
 Charge compensation  : None.
 Solution method      : On-the-fly selection.
 Cavity type          : Scaled VdW (van der Waals Surface) (Alpha=1.100).
 Cavity algorithm     : GePol (No added spheres)
                        Default sphere list used, NSphG=   71.
                        Lebedev-Laikov grids with approx.  5.0 points / Ang**2.
                        Smoothing algorithm: York/Karplus (Gamma=1.0000).
                        Polarization charges: spherical gaussians, with
                                              point-specific exponents (IZeta= 3).
                        Self-potential: point-specific (ISelfS= 7).
                        Self-field    : sphere-specific E.n sum rule (ISelfD= 2).
 Solvent              : Water, Eps=  78.355300 Eps(inf)=   1.777849
 ------------------------------------------------------------------------------
 GePol: Number of generator spheres                  =      71
 GePol: Total number of spheres                      =      71
 GePol: Number of exposed spheres                    =      71 (100.00%)
 GePol: Number of points                             =    5376
 GePol: Average weight of points                     =       0.13
 GePol: Minimum weight of points                     =   0.13D-11
 GePol: Maximum weight of points                     =    0.20577
 GePol: Number of points with low weight             =     335
 GePol: Fraction of low-weight points (<1% of avg)   =       6.23%
 GePol: Cavity surface area                          =    679.883 Ang**2
 GePol: Cavity volume                                =    786.930 Ang**3
 Leave Link  301 at Sat Oct 25 00:45:12 2025, MaxMem= 30870077440 cpu:               4.1 elap:               0.1
 (Enter /public/software/gauss/g16/l302.exe)
 NPDir=0 NMtPBC=     1 NCelOv=     1 NCel=       1 NClECP=     1 NCelD=      1
         NCelK=      1 NCelE2=     1 NClLst=     1 CellRange=     0.0.
 One-electron integrals computed using PRISM.
 One-electron integral symmetry used in STVInt
   1 Symmetry operations used in ECPInt.
 ECPInt:  NShTT=  218791 NPrTT=  642384 LenC2=  136782 LenP2D=  266704.
 LDataN:  DoStor=T MaxTD1= 6 Len=  172
 NBasis=  1793 RedAO= T EigKep=  3.61D-06  NBF=  1793
 NBsUse=  1793 1.00D-06 EigRej= -1.00D+00 NBFU=  1793
 Precomputing XC quadrature grid using
 IXCGrd= 4 IRadAn=           5 IRanWt=          -1 IRanGd=           0 AccXCQ= 0.00D+00.
 Generated NRdTot=       0 NPtTot=           0 NUsed=           0 NTot=          32
 NSgBfM=  1814  1814  1814  1814  1814 MxSgAt=    71 MxSgA2=    71.
 Leave Link  302 at Sat Oct 25 00:45:21 2025, MaxMem= 30870077440 cpu:             552.4 elap:               8.7
 (Enter /public/software/gauss/g16/l303.exe)
 DipDrv:  MaxL=1.
 Leave Link  303 at Sat Oct 25 00:45:22 2025, MaxMem= 30870077440 cpu:              26.2 elap:               0.5
 (Enter /public/software/gauss/g16/l401.exe)
 ExpMin= 6.06D-02 ExpMax= 3.55D+04 ExpMxC= 1.21D+03 IAcc=3 IRadAn=         5 AccDes= 0.00D+00
 Harris functional with IExCor= 1009 and IRadAn=       5 diagonalized for initial guess.
 HarFok:  IExCor= 1009 AccDes= 0.00D+00 IRadAn=         5 IDoV= 1 UseB2=F ITyADJ=14
 ICtDFT=  3500011 ScaDFX=  1.000000  1.000000  1.000000  1.000000
 FoFCou: FMM=F IPFlag=           0 FMFlag=      100000 FMFlg1=        2001
         NFxFlg=           0 DoJE=T BraDBF=F KetDBF=T FulRan=T
         wScrn=  0.000000 ICntrl=       500 IOpCl=  0 I1Cent=   200000004 NGrid=           0
         NMat0=    1 NMatS0=      1 NMatT0=    0 NMatD0=    1 NMtDS0=    0 NMtDT0=    0
 Petite list used in FoFCou.
 Harris En= -2220.62341788062    
 JPrj=0 DoOrth=F DoCkMO=F.
 Initial guess <Sx>= 0.0000 <Sy>= 0.0000 <Sz>= 0.5000 <S**2>= 0.7500 S= 0.5000
 Leave Link  401 at Sat Oct 25 00:45:32 2025, MaxMem= 30870077440 cpu:             646.5 elap:              10.2
 (Enter /public/software/gauss/g16/l502.exe)
 Integral symmetry usage will be decided dynamically.
 UHF open shell SCF:
 Using DIIS extrapolation, IDIIS=  1040.
 NGot= 30870077440 LenX= 30861507565 LenY= 30857294809
 Requested convergence on RMS density matrix=1.00D-08 within 128 cycles.
 Requested convergence on MAX density matrix=1.00D-06.
 Requested convergence on             energy=1.00D-06.
 No special actions if energy rises.
 Fock matrices will be formed incrementally for  20 cycles.

 Cycle   1  Pass 1  IDiag  1:
 FoFJK:  IHMeth= 1 ICntrl=       0 DoSepK=F KAlg= 0 I1Cent=           0 FoldK=F
 IRaf= 590000000 NMat=       1 IRICut=       1 DoRegI=T DoRafI=F ISym2E= 0 IDoP0=0 IntGTp=1.
 FoFCou: FMM=T IPFlag=           0 FMFlag=      100000 FMFlg1=        2001
         NFxFlg=           0 DoJE=F BraDBF=F KetDBF=F FulRan=T
         wScrn=  0.000000 ICntrl=         0 IOpCl=  1 I1Cent=           0 NGrid=           0
         NMat0=    1 NMatS0=      1 NMatT0=    0 NMatD0=    1 NMtDS0=    0 NMtDT0=    0
 Symmetry not used in FoFCou.
 FMM levels:  10  Number of levels for PrismC:   9
 Inv3:  Mode=1 IEnd=    86704128.
 Iteration    1 A*A^-1 deviation from unit magnitude is 1.21D-14 for   1736.
 Iteration    1 A*A^-1 deviation from orthogonality  is 3.62D-15 for   3719   3455.
 Iteration    1 A^-1*A deviation from unit magnitude is 1.21D-14 for   1736.
 Iteration    1 A^-1*A deviation from orthogonality  is 2.42D-15 for   5375   5353.
 E= -2220.36245790125    
 DIIS: error= 2.85D-02 at cycle   1 NSaved=   1.
 NSaved= 1 IEnMin= 1 EnMin= -2220.36245790125     IErMin= 1 ErrMin= 2.85D-02
 ErrMax= 2.85D-02  0.00D+00 EMaxC= 1.00D-01 BMatC= 6.92D+00 BMatP= 6.92D+00
 IDIUse=3 WtCom= 7.15D-01 WtEn= 2.85D-01
 Coeff-Com:  0.100D+01
 Coeff-En:   0.100D+01
 Coeff:      0.100D+01
 Gap=     0.035 Goal=   None    Shift=    0.000
 Gap=     0.123 Goal=   None    Shift=    0.000
 GapD=    0.035 DampG=0.250 DampE=0.500 DampFc=0.2500 IDamp=-1.
 Damping current iteration by 2.50D-01
 RMSDP=1.74D-03 MaxDP=4.79D-01              OVMax= 7.07D-01

 Cycle   2  Pass 1  IDiag  1:
 RMSU=  4.33D-04    CP:  9.95D-01
 E= -2220.80600287812     Delta-E=       -0.443544976863 Rises=F Damp=T
 DIIS: error= 1.30D-02 at cycle   2 NSaved=   2.
 NSaved= 2 IEnMin= 2 EnMin= -2220.80600287812     IErMin= 2 ErrMin= 1.30D-02
 ErrMax= 1.30D-02  0.00D+00 EMaxC= 1.00D-01 BMatC= 2.14D+00 BMatP= 6.92D+00
 IDIUse=3 WtCom= 8.70D-01 WtEn= 1.30D-01
 Coeff-Com: -0.908D+00 0.191D+01
 Coeff-En:   0.000D+00 0.100D+01
 Coeff:     -0.790D+00 0.179D+01
 Gap=     0.107 Goal=   None    Shift=    0.000
 Gap=     0.122 Goal=   None    Shift=    0.000
 RMSDP=8.73D-04 MaxDP=7.02D-02 DE=-4.44D-01 OVMax= 6.41D-01

 Cycle   3  Pass 1  IDiag  1:
 RMSU=  7.37D-04    CP:  9.80D-01  2.07D+00
 E= -2221.57322753226     Delta-E=       -0.767224654150 Rises=F Damp=F
 DIIS: error= 5.60D-03 at cycle   3 NSaved=   3.
 NSaved= 3 IEnMin= 3 EnMin= -2221.57322753226     IErMin= 3 ErrMin= 5.60D-03
 ErrMax= 5.60D-03  0.00D+00 EMaxC= 1.00D-01 BMatC= 2.90D-01 BMatP= 2.14D+00
 IDIUse=3 WtCom= 9.44D-01 WtEn= 5.60D-02
 Coeff-Com: -0.413D+00 0.751D+00 0.662D+00
 Coeff-En:   0.000D+00 0.000D+00 0.100D+01
 Coeff:     -0.390D+00 0.709D+00 0.681D+00
 Gap=     0.054 Goal=   None    Shift=    0.000
 Gap=     0.120 Goal=   None    Shift=    0.000
 RMSDP=3.04D-04 MaxDP=4.12D-02 DE=-7.67D-01 OVMax= 2.22D-01

 Cycle   4  Pass 1  IDiag  1:
 RMSU=  2.73D-04    CP:  9.76D-01  2.19D+00  8.31D-01
 E= -2221.62799431519     Delta-E=       -0.054766782928 Rises=F Damp=F
 DIIS: error= 1.92D-03 at cycle   4 NSaved=   4.
 NSaved= 4 IEnMin= 4 EnMin= -2221.62799431519     IErMin= 4 ErrMin= 1.92D-03
 ErrMax= 1.92D-03  0.00D+00 EMaxC= 1.00D-01 BMatC= 5.25D-02 BMatP= 2.90D-01
 IDIUse=3 WtCom= 9.81D-01 WtEn= 1.92D-02
 Coeff-Com: -0.842D-01 0.140D+00 0.323D+00 0.622D+00
 Coeff-En:   0.000D+00 0.000D+00 0.875D-01 0.912D+00
 Coeff:     -0.826D-01 0.137D+00 0.318D+00 0.627D+00
 Gap=     0.070 Goal=   None    Shift=    0.000
 Gap=     0.131 Goal=   None    Shift=    0.000
 RMSDP=1.01D-04 MaxDP=1.63D-02 DE=-5.48D-02 OVMax= 4.34D-02

 Cycle   5  Pass 1  IDiag  1:
 RMSU=  8.04D-05    CP:  9.76D-01  2.13D+00  8.76D-01  8.29D-01
 E= -2221.64018594452     Delta-E=       -0.012191629328 Rises=F Damp=F
 DIIS: error= 6.93D-04 at cycle   5 NSaved=   5.
 NSaved= 5 IEnMin= 5 EnMin= -2221.64018594452     IErMin= 5 ErrMin= 6.93D-04
 ErrMax= 6.93D-04  0.00D+00 EMaxC= 1.00D-01 BMatC= 4.93D-03 BMatP= 5.25D-02
 IDIUse=3 WtCom= 9.93D-01 WtEn= 6.93D-03
 Coeff-Com: -0.160D-01 0.240D-01 0.126D+00 0.313D+00 0.553D+00
 Coeff-En:   0.000D+00 0.000D+00 0.000D+00 0.000D+00 0.100D+01
 Coeff:     -0.159D-01 0.238D-01 0.125D+00 0.311D+00 0.556D+00
 Gap=     0.075 Goal=   None    Shift=    0.000
 Gap=     0.131 Goal=   None    Shift=    0.000
 RMSDP=5.02D-05 MaxDP=1.15D-02 DE=-1.22D-02 OVMax= 5.86D-02

 Cycle   6  Pass 1  IDiag  1:
 RMSU=  4.51D-05    CP:  9.76D-01  2.17D+00  8.67D-01  8.56D-01  1.15D+00
 E= -2221.64232956655     Delta-E=       -0.002143622029 Rises=F Damp=F
 DIIS: error= 3.44D-04 at cycle   6 NSaved=   6.
 NSaved= 6 IEnMin= 6 EnMin= -2221.64232956655     IErMin= 6 ErrMin= 3.44D-04
 ErrMax= 3.44D-04  0.00D+00 EMaxC= 1.00D-01 BMatC= 9.55D-04 BMatP= 4.93D-03
 IDIUse=3 WtCom= 9.97D-01 WtEn= 3.44D-03
 Coeff-Com:  0.185D-02-0.288D-02 0.273D-01 0.538D-01 0.257D+00 0.663D+00
 Coeff-En:   0.000D+00 0.000D+00 0.000D+00 0.000D+00 0.000D+00 0.100D+01
 Coeff:      0.185D-02-0.287D-02 0.272D-01 0.536D-01 0.256D+00 0.664D+00
 Gap=     0.080 Goal=   None    Shift=    0.000
 Gap=     0.134 Goal=   None    Shift=    0.000
 RMSDP=4.00D-05 MaxDP=5.78D-03 DE=-2.14D-03 OVMax= 4.95D-02

 Cycle   7  Pass 1  IDiag  1:
 RMSU=  2.12D-05    CP:  9.77D-01  2.18D+00  8.70D-01  8.52D-01  1.46D+00
                    CP:  1.49D+00
 E= -2221.64350686504     Delta-E=       -0.001177298491 Rises=F Damp=F
 DIIS: error= 2.57D-04 at cycle   7 NSaved=   7.
 NSaved= 7 IEnMin= 7 EnMin= -2221.64350686504     IErMin= 7 ErrMin= 2.57D-04
 ErrMax= 2.57D-04  0.00D+00 EMaxC= 1.00D-01 BMatC= 4.39D-04 BMatP= 9.55D-04
 IDIUse=3 WtCom= 9.97D-01 WtEn= 2.57D-03
 Coeff-Com:  0.652D-02-0.868D-02-0.176D-01-0.833D-01-0.546D-01 0.203D+00
 Coeff-Com:  0.955D+00
 Coeff-En:   0.000D+00 0.000D+00 0.000D+00 0.000D+00 0.000D+00 0.000D+00
 Coeff-En:   0.100D+01
 Coeff:      0.650D-02-0.866D-02-0.176D-01-0.831D-01-0.545D-01 0.202D+00
 Coeff:      0.955D+00
 Gap=     0.086 Goal=   None    Shift=    0.000
 Gap=     0.137 Goal=   None    Shift=    0.000
 RMSDP=5.31D-05 MaxDP=9.69D-03 DE=-1.18D-03 OVMax= 6.78D-02

 Cycle   8  Pass 1  IDiag  1:
 RMSU=  1.34D-05    CP:  9.77D-01  2.20D+00  8.71D-01  8.43D-01  1.80D+00
                    CP:  2.29D+00  2.06D+00
 E= -2221.64467155499     Delta-E=       -0.001164689954 Rises=F Damp=F
 DIIS: error= 1.90D-04 at cycle   8 NSaved=   8.
 NSaved= 8 IEnMin= 8 EnMin= -2221.64467155499     IErMin= 8 ErrMin= 1.90D-04
 ErrMax= 1.90D-04  0.00D+00 EMaxC= 1.00D-01 BMatC= 2.52D-04 BMatP= 4.39D-04
 IDIUse=3 WtCom= 9.98D-01 WtEn= 1.90D-03
 Coeff-Com:  0.925D-03-0.574D-04 0.167D-02-0.300D-01-0.860D-01-0.278D+00
 Coeff-Com:  0.375D+00 0.102D+01
 Coeff-En:   0.000D+00 0.000D+00 0.000D+00 0.000D+00 0.000D+00 0.000D+00
 Coeff-En:   0.000D+00 0.100D+01
 Coeff:      0.923D-03-0.573D-04 0.166D-02-0.299D-01-0.859D-01-0.278D+00
 Coeff:      0.374D+00 0.102D+01
 Gap=     0.092 Goal=   None    Shift=    0.000
 Gap=     0.138 Goal=   None    Shift=    0.000
 RMSDP=4.95D-05 MaxDP=8.93D-03 DE=-1.16D-03 OVMax= 6.49D-02

 Cycle   9  Pass 1  IDiag  1:
 RMSU=  1.30D-05    CP:  9.78D-01  2.22D+00  8.71D-01  8.24D-01  2.07D+00
                    CP:  2.96D+00  3.00D+00  1.92D+00
 E= -2221.64545659281     Delta-E=       -0.000785037819 Rises=F Damp=F
 DIIS: error= 1.77D-04 at cycle   9 NSaved=   9.
 NSaved= 9 IEnMin= 9 EnMin= -2221.64545659281     IErMin= 9 ErrMin= 1.77D-04
 ErrMax= 1.77D-04  0.00D+00 EMaxC= 1.00D-01 BMatC= 1.38D-04 BMatP= 2.52D-04
 IDIUse=3 WtCom= 9.98D-01 WtEn= 1.77D-03
 Coeff-Com: -0.285D-02 0.481D-02 0.239D-01 0.505D-01 0.382D-01-0.210D+00
 Coeff-Com: -0.373D+00 0.498D+00 0.970D+00
 Coeff-En:   0.000D+00 0.000D+00 0.000D+00 0.000D+00 0.000D+00 0.000D+00
 Coeff-En:   0.000D+00 0.000D+00 0.100D+01
 Coeff:     -0.284D-02 0.480D-02 0.239D-01 0.504D-01 0.381D-01-0.209D+00
 Coeff:     -0.372D+00 0.497D+00 0.970D+00
 Gap=     0.096 Goal=   None    Shift=    0.000
 Gap=     0.138 Goal=   None    Shift=    0.000
 RMSDP=3.66D-05 MaxDP=6.96D-03 DE=-7.85D-04 OVMax= 4.86D-02

 Cycle  10  Pass 1  IDiag  1:
 RMSU=  2.39D-05    CP:  9.78D-01  2.23D+00  8.70D-01  8.00D-01  2.21D+00
                    CP:  3.00D+00  3.00D+00  2.95D+00  2.35D+00
 E= -2221.64587266968     Delta-E=       -0.000416076871 Rises=F Damp=F
 DIIS: error= 9.92D-05 at cycle  10 NSaved=  10.
 NSaved=10 IEnMin=10 EnMin= -2221.64587266968     IErMin=10 ErrMin= 9.92D-05
 ErrMax= 9.92D-05  0.00D+00 EMaxC= 1.00D-01 BMatC= 6.91D-05 BMatP= 1.38D-04
 IDIUse=1 WtCom= 1.00D+00 WtEn= 0.00D+00
 Coeff-Com: -0.130D-02 0.196D-02 0.171D-01 0.441D-01 0.785D-01 0.381D-01
 Coeff-Com: -0.356D+00-0.271D+00 0.446D+00 0.100D+01
 Coeff:     -0.130D-02 0.196D-02 0.171D-01 0.441D-01 0.785D-01 0.381D-01
 Coeff:     -0.356D+00-0.271D+00 0.446D+00 0.100D+01
 Gap=     0.097 Goal=   None    Shift=    0.000
 Gap=     0.137 Goal=   None    Shift=    0.000
 RMSDP=2.88D-05 MaxDP=5.04D-03 DE=-4.16D-04 OVMax= 3.77D-02

 Cycle  11  Pass 1  IDiag  1:
 RMSU=  1.48D-05    CP:  9.79D-01  2.24D+00  8.69D-01  7.78D-01  2.29D+00
                    CP:  3.00D+00  3.00D+00  3.00D+00  3.00D+00  1.70D+00
 E= -2221.64609444915     Delta-E=       -0.000221779462 Rises=F Damp=F
 DIIS: error= 6.89D-05 at cycle  11 NSaved=  11.
 NSaved=11 IEnMin=11 EnMin= -2221.64609444915     IErMin=11 ErrMin= 6.89D-05
 ErrMax= 6.89D-05  0.00D+00 EMaxC= 1.00D-01 BMatC= 3.01D-05 BMatP= 6.91D-05
 IDIUse=1 WtCom= 1.00D+00 WtEn= 0.00D+00
 Coeff-Com:  0.157D-02-0.236D-02-0.439D-03-0.445D-02 0.243D-01 0.109D+00
 Coeff-Com:  0.695D-01-0.343D+00-0.370D+00 0.340D+00 0.118D+01
 Coeff:      0.157D-02-0.236D-02-0.439D-03-0.445D-02 0.243D-01 0.109D+00
 Coeff:      0.695D-01-0.343D+00-0.370D+00 0.340D+00 0.118D+01
 Gap=     0.098 Goal=   None    Shift=    0.000
 Gap=     0.137 Goal=   None    Shift=    0.000
 RMSDP=2.33D-05 MaxDP=4.25D-03 DE=-2.22D-04 OVMax= 2.99D-02

 Cycle  12  Pass 1  IDiag  1:
 RMSU=  7.09D-06    CP:  9.79D-01  2.25D+00  8.68D-01  7.60D-01  2.34D+00
                    CP:  3.00D+00  3.00D+00  3.00D+00  3.00D+00  2.24D+00
                    CP:  2.12D+00
 E= -2221.64619982479     Delta-E=       -0.000105375646 Rises=F Damp=F
 DIIS: error= 3.32D-05 at cycle  12 NSaved=  12.
 NSaved=12 IEnMin=12 EnMin= -2221.64619982479     IErMin=12 ErrMin= 3.32D-05
 ErrMax= 3.32D-05  0.00D+00 EMaxC= 1.00D-01 BMatC= 1.15D-05 BMatP= 3.01D-05
 IDIUse=1 WtCom= 1.00D+00 WtEn= 0.00D+00
 Coeff-Com:  0.149D-02-0.214D-02-0.349D-02-0.144D-01-0.881D-02 0.303D-01
 Coeff-Com:  0.151D+00-0.570D-01-0.324D+00-0.194D+00 0.594D+00 0.827D+00
 Coeff:      0.149D-02-0.214D-02-0.349D-02-0.144D-01-0.881D-02 0.303D-01
 Coeff:      0.151D+00-0.570D-01-0.324D+00-0.194D+00 0.594D+00 0.827D+00
 Gap=     0.099 Goal=   None    Shift=    0.000
 Gap=     0.136 Goal=   None    Shift=    0.000
 RMSDP=1.02D-05 MaxDP=1.81D-03 DE=-1.05D-04 OVMax= 1.26D-02

 Cycle  13  Pass 1  IDiag  1:
 RMSU=  2.35D-06    CP:  9.79D-01  2.25D+00  8.68D-01  7.51D-01  2.35D+00
                    CP:  3.00D+00  3.00D+00  3.00D+00  3.00D+00  2.46D+00
                    CP:  2.61D+00  1.42D+00
 E= -2221.64622539589     Delta-E=       -0.000025571099 Rises=F Damp=F
 DIIS: error= 2.91D-05 at cycle  13 NSaved=  13.
 NSaved=13 IEnMin=13 EnMin= -2221.64622539589     IErMin=13 ErrMin= 2.91D-05
 ErrMax= 2.91D-05  0.00D+00 EMaxC= 1.00D-01 BMatC= 3.89D-06 BMatP= 1.15D-05
 IDIUse=1 WtCom= 1.00D+00 WtEn= 0.00D+00
 Coeff-Com:  0.955D-04-0.529D-04 0.173D-03-0.243D-02-0.788D-02-0.254D-01
 Coeff-Com:  0.311D-01 0.796D-01-0.138D-01-0.180D+00-0.132D+00 0.382D+00
 Coeff-Com:  0.869D+00
 Coeff:      0.955D-04-0.529D-04 0.173D-03-0.243D-02-0.788D-02-0.254D-01
 Coeff:      0.311D-01 0.796D-01-0.138D-01-0.180D+00-0.132D+00 0.382D+00
 Coeff:      0.869D+00
 Gap=     0.099 Goal=   None    Shift=    0.000
 Gap=     0.136 Goal=   None    Shift=    0.000
 RMSDP=6.21D-06 MaxDP=1.24D-03 DE=-2.56D-05 OVMax= 7.28D-03

 Cycle  14  Pass 1  IDiag  1:
 RMSU=  1.52D-06    CP:  9.79D-01  2.25D+00  8.68D-01  7.45D-01  2.37D+00
                    CP:  3.00D+00  3.00D+00  3.00D+00  3.00D+00  2.59D+00
                    CP:  2.88D+00  1.71D+00  1.53D+00
 E= -2221.64623476393     Delta-E=       -0.000009368038 Rises=F Damp=F
 DIIS: error= 1.83D-05 at cycle  14 NSaved=  14.
 NSaved=14 IEnMin=14 EnMin= -2221.64623476393     IErMin=14 ErrMin= 1.83D-05
 ErrMax= 1.83D-05  0.00D+00 EMaxC= 1.00D-01 BMatC= 1.36D-06 BMatP= 3.89D-06
 IDIUse=1 WtCom= 1.00D+00 WtEn= 0.00D+00
 Coeff-Com: -0.370D-03 0.558D-03 0.173D-02 0.485D-02 0.304D-02-0.154D-01
 Coeff-Com: -0.353D-01 0.410D-01 0.100D+00-0.289D-02-0.261D+00-0.934D-01
 Coeff-Com:  0.379D+00 0.877D+00
 Coeff:     -0.370D-03 0.558D-03 0.173D-02 0.485D-02 0.304D-02-0.154D-01
 Coeff:     -0.353D-01 0.410D-01 0.100D+00-0.289D-02-0.261D+00-0.934D-01
 Coeff:      0.379D+00 0.877D+00
 Gap=     0.099 Goal=   None    Shift=    0.000
 Gap=     0.136 Goal=   None    Shift=    0.000
 RMSDP=2.74D-06 MaxDP=3.98D-04 DE=-9.37D-06 OVMax= 2.88D-03

 Cycle  15  Pass 1  IDiag  1:
 RMSU=  9.21D-07    CP:  9.79D-01  2.25D+00  8.68D-01  7.44D-01  2.36D+00
                    CP:  3.00D+00  3.00D+00  3.00D+00  3.00D+00  2.61D+00
                    CP:  2.97D+00  1.86D+00  2.14D+00  1.67D+00
 E= -2221.64623876170     Delta-E=       -0.000003997771 Rises=F Damp=F
 DIIS: error= 1.45D-05 at cycle  15 NSaved=  15.
 NSaved=15 IEnMin=15 EnMin= -2221.64623876170     IErMin=15 ErrMin= 1.45D-05
 ErrMax= 1.45D-05  0.00D+00 EMaxC= 1.00D-01 BMatC= 6.96D-07 BMatP= 1.36D-06
 IDIUse=1 WtCom= 1.00D+00 WtEn= 0.00D+00
 Coeff-Com: -0.173D-03 0.241D-03 0.854D-03 0.306D-02 0.498D-02 0.117D-02
 Coeff-Com: -0.241D-01-0.127D-01 0.417D-01 0.604D-01-0.549D-01-0.176D+00
 Coeff-Com: -0.200D+00 0.377D+00 0.978D+00
 Coeff:     -0.173D-03 0.241D-03 0.854D-03 0.306D-02 0.498D-02 0.117D-02
 Coeff:     -0.241D-01-0.127D-01 0.417D-01 0.604D-01-0.549D-01-0.176D+00
 Coeff:     -0.200D+00 0.377D+00 0.978D+00
 Gap=     0.099 Goal=   None    Shift=    0.000
 Gap=     0.136 Goal=   None    Shift=    0.000
 RMSDP=2.74D-06 MaxDP=3.64D-04 DE=-4.00D-06 OVMax= 3.05D-03

 Cycle  16  Pass 1  IDiag  1:
 RMSU=  1.09D-06    CP:  9.79D-01  2.25D+00  8.68D-01  7.43D-01  2.36D+00
                    CP:  3.00D+00  3.00D+00  3.00D+00  3.00D+00  2.65D+00
                    CP:  3.00D+00  2.00D+00  2.63D+00  2.41D+00  1.86D+00
 E= -2221.64624168571     Delta-E=       -0.000002924005 Rises=F Damp=F
 DIIS: error= 1.01D-05 at cycle  16 NSaved=  16.
 NSaved=16 IEnMin=16 EnMin= -2221.64624168571     IErMin=16 ErrMin= 1.01D-05
 ErrMax= 1.01D-05  0.00D+00 EMaxC= 1.00D-01 BMatC= 3.15D-07 BMatP= 6.96D-07
 IDIUse=1 WtCom= 1.00D+00 WtEn= 0.00D+00
 Coeff-Com:  0.113D-03-0.167D-03-0.384D-03-0.120D-02 0.110D-02 0.782D-02
 Coeff-Com:  0.129D-01-0.260D-01-0.411D-01 0.140D-01 0.120D+00-0.896D-02
 Coeff-Com: -0.277D+00-0.326D+00 0.212D+00 0.131D+01
 Coeff:      0.113D-03-0.167D-03-0.384D-03-0.120D-02 0.110D-02 0.782D-02
 Coeff:      0.129D-01-0.260D-01-0.411D-01 0.140D-01 0.120D+00-0.896D-02
 Coeff:     -0.277D+00-0.326D+00 0.212D+00 0.131D+01
 Gap=     0.099 Goal=   None    Shift=    0.000
 Gap=     0.136 Goal=   None    Shift=    0.000
 RMSDP=3.02D-06 MaxDP=4.14D-04 DE=-2.92D-06 OVMax= 3.13D-03

 Cycle  17  Pass 1  IDiag  1:
 RMSU=  7.74D-07    CP:  9.79D-01  2.26D+00  8.68D-01  7.41D-01  2.36D+00
                    CP:  3.00D+00  3.00D+00  3.00D+00  3.00D+00  2.69D+00
                    CP:  3.00D+00  2.14D+00  3.00D+00  3.00D+00  3.00D+00
                    CP:  2.40D+00
 E= -2221.64624393484     Delta-E=       -0.000002249138 Rises=F Damp=F
 DIIS: error= 6.36D-06 at cycle  17 NSaved=  17.
 NSaved=17 IEnMin=17 EnMin= -2221.64624393484     IErMin=17 ErrMin= 6.36D-06
 ErrMax= 6.36D-06  0.00D+00 EMaxC= 1.00D-01 BMatC= 1.54D-07 BMatP= 3.15D-07
 IDIUse=1 WtCom= 1.00D+00 WtEn= 0.00D+00
 Coeff-Com:  0.121D-03-0.178D-03-0.251D-03-0.112D-02-0.266D-03 0.270D-02
 Coeff-Com:  0.120D-01-0.496D-02-0.268D-01-0.185D-01 0.600D-01 0.781D-01
 Coeff-Com:  0.278D-01-0.264D+00-0.524D+00 0.462D+00 0.120D+01
 Coeff:      0.121D-03-0.178D-03-0.251D-03-0.112D-02-0.266D-03 0.270D-02
 Coeff:      0.120D-01-0.496D-02-0.268D-01-0.185D-01 0.600D-01 0.781D-01
 Coeff:      0.278D-01-0.264D+00-0.524D+00 0.462D+00 0.120D+01
 Gap=     0.099 Goal=   None    Shift=    0.000
 Gap=     0.136 Goal=   None    Shift=    0.000
 RMSDP=2.05D-06 MaxDP=3.23D-04 DE=-2.25D-06 OVMax= 2.29D-03

 Cycle  18  Pass 1  IDiag  1:
 RMSU=  1.20D-06    CP:  9.79D-01  2.26D+00  8.67D-01  7.41D-01  2.36D+00
                    CP:  3.00D+00  3.00D+00  3.00D+00  3.00D+00  2.69D+00
                    CP:  3.00D+00  2.23D+00  3.00D+00  3.00D+00  3.00D+00
                    CP:  3.00D+00  2.69D+00
 E= -2221.64624490877     Delta-E=       -0.000000973923 Rises=F Damp=F
 DIIS: error= 3.44D-06 at cycle  18 NSaved=  18.
 NSaved=18 IEnMin=18 EnMin= -2221.64624490877     IErMin=18 ErrMin= 3.44D-06
 ErrMax= 3.44D-06  0.00D+00 EMaxC= 1.00D-01 BMatC= 7.32D-08 BMatP= 1.54D-07
 IDIUse=1 WtCom= 1.00D+00 WtEn= 0.00D+00
 Coeff-Com:  0.142D-04-0.167D-04 0.631D-04-0.165D-03-0.671D-03-0.308D-02
 Coeff-Com:  0.110D-02 0.992D-02 0.217D-02-0.194D-01-0.197D-01 0.543D-01
 Coeff-Com:  0.153D+00-0.150D-01-0.450D+00-0.310D+00 0.712D+00 0.886D+00
 Coeff:      0.142D-04-0.167D-04 0.631D-04-0.165D-03-0.671D-03-0.308D-02
 Coeff:      0.110D-02 0.992D-02 0.217D-02-0.194D-01-0.197D-01 0.543D-01
 Coeff:      0.153D+00-0.150D-01-0.450D+00-0.310D+00 0.712D+00 0.886D+00
 Gap=     0.099 Goal=   None    Shift=    0.000
 Gap=     0.136 Goal=   None    Shift=    0.000
 RMSDP=1.42D-06 MaxDP=2.15D-04 DE=-9.74D-07 OVMax= 1.53D-03

 Cycle  19  Pass 1  IDiag  1:
 RMSU=  9.05D-07    CP:  9.79D-01  2.26D+00  8.67D-01  7.41D-01  2.36D+00
                    CP:  3.00D+00  3.00D+00  3.00D+00  3.00D+00  2.70D+00
                    CP:  3.00D+00  2.29D+00  3.00D+00  3.00D+00  3.00D+00
                    CP:  3.00D+00  3.00D+00  1.59D+00
 E= -2221.64624522448     Delta-E=       -0.000000315715 Rises=F Damp=F
 DIIS: error= 2.33D-06 at cycle  19 NSaved=  19.
 NSaved=19 IEnMin=19 EnMin= -2221.64624522448     IErMin=19 ErrMin= 2.33D-06
 ErrMax= 2.33D-06  0.00D+00 EMaxC= 1.00D-01 BMatC= 2.03D-08 BMatP= 7.32D-08
 IDIUse=1 WtCom= 1.00D+00 WtEn= 0.00D+00
 Coeff-Com: -0.205D-04 0.316D-04 0.118D-03 0.270D-03-0.337D-04-0.178D-02
 Coeff-Com: -0.279D-02 0.589D-02 0.921D-02-0.291D-02-0.297D-01 0.197D-02
 Coeff-Com:  0.704D-01 0.813D-01-0.544D-01-0.308D+00-0.400D-01 0.463D+00
 Coeff-Com:  0.807D+00
 Coeff:     -0.205D-04 0.316D-04 0.118D-03 0.270D-03-0.337D-04-0.178D-02
 Coeff:     -0.279D-02 0.589D-02 0.921D-02-0.291D-02-0.297D-01 0.197D-02
 Coeff:      0.704D-01 0.813D-01-0.544D-01-0.308D+00-0.400D-01 0.463D+00
 Coeff:      0.807D+00
 Gap=     0.099 Goal=   None    Shift=    0.000
 Gap=     0.136 Goal=   None    Shift=    0.000
 RMSDP=4.76D-07 MaxDP=8.45D-05 DE=-3.16D-07 OVMax= 6.04D-04

 Cycle  20  Pass 1  IDiag  1:
 RMSU=  1.78D-07    CP:  9.79D-01  2.26D+00  8.67D-01  7.41D-01  2.36D+00
                    CP:  3.00D+00  3.00D+00  3.00D+00  3.00D+00  2.70D+00
                    CP:  3.00D+00  2.31D+00  3.00D+00  3.00D+00  3.00D+00
                    CP:  3.00D+00  3.00D+00  1.83D+00  1.34D+00
 E= -2221.64624527456     Delta-E=       -0.000000050082 Rises=F Damp=F
 DIIS: error= 9.62D-07 at cycle  20 NSaved=  20.
 NSaved=20 IEnMin=20 EnMin= -2221.64624527456     IErMin=20 ErrMin= 9.62D-07
 ErrMax= 9.62D-07  0.00D+00 EMaxC= 1.00D-01 BMatC= 4.62D-09 BMatP= 2.03D-08
 IDIUse=1 WtCom= 1.00D+00 WtEn= 0.00D+00
 Coeff-Com: -0.525D-05 0.798D-05 0.222D-04 0.107D-03 0.130D-03 0.141D-03
 Coeff-Com: -0.118D-02-0.479D-03 0.215D-02 0.369D-02-0.490D-02-0.121D-01
 Coeff-Com: -0.160D-01 0.302D-01 0.945D-01-0.332D-01-0.188D+00-0.755D-01
 Coeff-Com:  0.290D+00 0.911D+00
 Coeff:     -0.525D-05 0.798D-05 0.222D-04 0.107D-03 0.130D-03 0.141D-03
 Coeff:     -0.118D-02-0.479D-03 0.215D-02 0.369D-02-0.490D-02-0.121D-01
 Coeff:     -0.160D-01 0.302D-01 0.945D-01-0.332D-01-0.188D+00-0.755D-01
 Coeff:      0.290D+00 0.911D+00
 Gap=     0.099 Goal=   None    Shift=    0.000
 Gap=     0.136 Goal=   None    Shift=    0.000
 RMSDP=2.44D-07 MaxDP=3.78D-05 DE=-5.01D-08 OVMax= 2.67D-04

 Cycle  21  Pass 1  IDiag  1:
 Restarting incremental Fock formation.
 E= -2221.64624528662     Delta-E=       -0.000000012060 Rises=F Damp=F
 DIIS: error= 7.92D-07 at cycle  21 NSaved=  20.
 NSaved=20 IEnMin=20 EnMin= -2221.64624528662     IErMin=20 ErrMin= 7.92D-07
 ErrMax= 7.92D-07  0.00D+00 EMaxC= 1.00D-01 BMatC= 1.36D-09 BMatP= 4.62D-09
 IDIUse=1 WtCom= 1.00D+00 WtEn= 0.00D+00
 Coeff-Com:  0.546D-06-0.463D-05 0.690D-05 0.949D-04 0.575D-03 0.939D-04
 Coeff-Com: -0.181D-02-0.159D-02 0.215D-02 0.619D-02-0.399D-02-0.254D-01
 Coeff-Com: -0.110D-01 0.459D-01 0.678D-01-0.377D-01-0.160D+00-0.129D+00
 Coeff-Com:  0.281D+00 0.967D+00
 Coeff:      0.546D-06-0.463D-05 0.690D-05 0.949D-04 0.575D-03 0.939D-04
 Coeff:     -0.181D-02-0.159D-02 0.215D-02 0.619D-02-0.399D-02-0.254D-01
 Coeff:     -0.110D-01 0.459D-01 0.678D-01-0.377D-01-0.160D+00-0.129D+00
 Coeff:      0.281D+00 0.967D+00
 Gap=     0.099 Goal=   None    Shift=    0.000
 Gap=     0.136 Goal=   None    Shift=    0.000
 RMSDP=1.00D-07 MaxDP=1.50D-05 DE=-1.21D-08 OVMax= 9.80D-05

 Cycle  22  Pass 1  IDiag  1:
 RMSU=  1.00D-07    CP:  1.00D+00
 E= -2221.64624528909     Delta-E=       -0.000000002462 Rises=F Damp=F
 DIIS: error= 5.00D-07 at cycle  22 NSaved=  20.
 NSaved=20 IEnMin=20 EnMin= -2221.64624528909     IErMin=20 ErrMin= 5.00D-07
 ErrMax= 5.00D-07  0.00D+00 EMaxC= 1.00D-01 BMatC= 5.21D-10 BMatP= 1.36D-09
 IDIUse=1 WtCom= 1.00D+00 WtEn= 0.00D+00
 Coeff-Com: -0.553D-05-0.173D-04 0.588D-06 0.182D-03 0.231D-03-0.399D-03
 Coeff-Com: -0.108D-02-0.388D-03 0.341D-02 0.271D-02-0.498D-02-0.131D-01
 Coeff-Com: -0.105D-01 0.337D-01 0.509D-01-0.427D-01-0.144D+00-0.198D+00
 Coeff-Com:  0.354D+00 0.969D+00
 Coeff:     -0.553D-05-0.173D-04 0.588D-06 0.182D-03 0.231D-03-0.399D-03
 Coeff:     -0.108D-02-0.388D-03 0.341D-02 0.271D-02-0.498D-02-0.131D-01
 Coeff:     -0.105D-01 0.337D-01 0.509D-01-0.427D-01-0.144D+00-0.198D+00
 Coeff:      0.354D+00 0.969D+00
 Gap=     0.099 Goal=   None    Shift=    0.000
 Gap=     0.136 Goal=   None    Shift=    0.000
 RMSDP=5.33D-08 MaxDP=8.61D-06 DE=-2.46D-09 OVMax= 3.84D-05

 Cycle  23  Pass 1  IDiag  1:
 RMSU=  2.50D-08    CP:  1.00D+00  1.47D+00
 E= -2221.64624529048     Delta-E=       -0.000000001394 Rises=F Damp=F
 DIIS: error= 2.71D-07 at cycle  23 NSaved=  20.
 NSaved=20 IEnMin=20 EnMin= -2221.64624529048     IErMin=20 ErrMin= 2.71D-07
 ErrMax= 2.71D-07  0.00D+00 EMaxC= 1.00D-01 BMatC= 1.86D-10 BMatP= 5.21D-10
 IDIUse=1 WtCom= 1.00D+00 WtEn= 0.00D+00
 Coeff-Com: -0.482D-05-0.251D-04-0.113D-03-0.657D-04 0.603D-03 0.255D-03
 Coeff-Com: -0.947D-03-0.124D-02 0.304D-02 0.824D-02-0.884D-03-0.217D-01
 Coeff-Com: -0.178D-01 0.347D-01 0.495D-01 0.103D-01-0.172D+00-0.283D+00
 Coeff-Com:  0.349D+00 0.104D+01
 Coeff:     -0.482D-05-0.251D-04-0.113D-03-0.657D-04 0.603D-03 0.255D-03
 Coeff:     -0.947D-03-0.124D-02 0.304D-02 0.824D-02-0.884D-03-0.217D-01
 Coeff:     -0.178D-01 0.347D-01 0.495D-01 0.103D-01-0.172D+00-0.283D+00
 Coeff:      0.349D+00 0.104D+01
 Gap=     0.099 Goal=   None    Shift=    0.000
 Gap=     0.136 Goal=   None    Shift=    0.000
 RMSDP=3.59D-08 MaxDP=5.31D-06 DE=-1.39D-09 OVMax= 2.51D-05

 Cycle  24  Pass 1  IDiag  1:
 RMSU=  1.25D-08    CP:  1.00D+00  1.71D+00  1.93D+00
 E= -2221.64624529098     Delta-E=       -0.000000000497 Rises=F Damp=F
 DIIS: error= 1.38D-07 at cycle  24 NSaved=  20.
 NSaved=20 IEnMin=20 EnMin= -2221.64624529098     IErMin=20 ErrMin= 1.38D-07
 ErrMax= 1.38D-07  0.00D+00 EMaxC= 1.00D-01 BMatC= 6.27D-11 BMatP= 1.86D-10
 IDIUse=1 WtCom= 1.00D+00 WtEn= 0.00D+00
 Coeff-Com: -0.127D-04-0.709D-04-0.123D-03 0.375D-03 0.405D-03-0.225D-03
 Coeff-Com: -0.155D-02 0.232D-03 0.416D-02 0.384D-02-0.303D-02-0.163D-01
 Coeff-Com: -0.351D-02 0.285D-01 0.466D-01-0.806D-02-0.227D+00-0.138D+00
 Coeff-Com:  0.405D+00 0.908D+00
 Coeff:     -0.127D-04-0.709D-04-0.123D-03 0.375D-03 0.405D-03-0.225D-03
 Coeff:     -0.155D-02 0.232D-03 0.416D-02 0.384D-02-0.303D-02-0.163D-01
 Coeff:     -0.351D-02 0.285D-01 0.466D-01-0.806D-02-0.227D+00-0.138D+00
 Coeff:      0.405D+00 0.908D+00
 Gap=     0.099 Goal=   None    Shift=    0.000
 Gap=     0.136 Goal=   None    Shift=    0.000
 RMSDP=1.99D-08 MaxDP=2.47D-06 DE=-4.97D-10 OVMax= 1.52D-05

 Cycle  25  Pass 1  IDiag  1:
 RMSU=  5.08D-09    CP:  1.00D+00  1.81D+00  2.51D+00  1.57D+00
 E= -2221.64624529104     Delta-E=       -0.000000000061 Rises=F Damp=F
 DIIS: error= 8.78D-08 at cycle  25 NSaved=  20.
 NSaved=20 IEnMin=20 EnMin= -2221.64624529104     IErMin=20 ErrMin= 8.78D-08
 ErrMax= 8.78D-08  0.00D+00 EMaxC= 1.00D-01 BMatC= 1.93D-11 BMatP= 6.27D-11
 IDIUse=1 WtCom= 1.00D+00 WtEn= 0.00D+00
 Coeff-Com:  0.119D-04-0.861D-05-0.657D-05-0.202D-04 0.148D-03 0.197D-04
 Coeff-Com: -0.718D-03-0.138D-02 0.131D-02 0.562D-02 0.111D-02-0.117D-01
 Coeff-Com: -0.955D-02 0.112D-01 0.624D-01 0.405D-01-0.165D+00-0.276D+00
 Coeff-Com:  0.206D+00 0.114D+01
 Coeff:      0.119D-04-0.861D-05-0.657D-05-0.202D-04 0.148D-03 0.197D-04
 Coeff:     -0.718D-03-0.138D-02 0.131D-02 0.562D-02 0.111D-02-0.117D-01
 Coeff:     -0.955D-02 0.112D-01 0.624D-01 0.405D-01-0.165D+00-0.276D+00
 Coeff:      0.206D+00 0.114D+01
 Gap=     0.099 Goal=   None    Shift=    0.000
 Gap=     0.136 Goal=   None    Shift=    0.000
 RMSDP=1.37D-08 MaxDP=1.74D-06 DE=-6.09D-11 OVMax= 1.21D-05

 Cycle  26  Pass 1  IDiag  1:
 RMSU=  3.94D-09    CP:  1.00D+00  1.85D+00  2.89D+00  2.17D+00  1.72D+00
 E= -2221.64624529124     Delta-E=       -0.000000000203 Rises=F Damp=F
 DIIS: error= 5.53D-08 at cycle  26 NSaved=  20.
 NSaved=20 IEnMin=20 EnMin= -2221.64624529124     IErMin=20 ErrMin= 5.53D-08
 ErrMax= 5.53D-08  0.00D+00 EMaxC= 1.00D-01 BMatC= 8.47D-12 BMatP= 1.93D-11
 IDIUse=1 WtCom= 1.00D+00 WtEn= 0.00D+00
 Coeff-Com:  0.141D-04-0.238D-04-0.107D-03 0.287D-04 0.282D-03-0.208D-03
 Coeff-Com: -0.122D-02-0.336D-03 0.179D-02 0.356D-02-0.206D-02-0.879D-02
 Coeff-Com: -0.565D-02 0.197D-01 0.633D-01-0.253D-01-0.177D+00-0.176D+00
 Coeff-Com:  0.380D+00 0.928D+00
 Coeff:      0.141D-04-0.238D-04-0.107D-03 0.287D-04 0.282D-03-0.208D-03
 Coeff:     -0.122D-02-0.336D-03 0.179D-02 0.356D-02-0.206D-02-0.879D-02
 Coeff:     -0.565D-02 0.197D-01 0.633D-01-0.253D-01-0.177D+00-0.176D+00
 Coeff:      0.380D+00 0.928D+00
 Gap=     0.099 Goal=   None    Shift=    0.000
 Gap=     0.136 Goal=   None    Shift=    0.000
 RMSDP=8.52D-09 MaxDP=1.34D-06 DE=-2.03D-10 OVMax= 7.41D-06

 Cycle  27  Pass 1  IDiag  1:
 RMSU=  5.04D-09    CP:  1.00D+00  1.90D+00  2.96D+00  2.26D+00  2.43D+00
                    CP:  1.23D+00
 E= -2221.64624529073     Delta-E=        0.000000000514 Rises=F Damp=F
 DIIS: error= 3.53D-08 at cycle  27 NSaved=  20.
 NSaved=20 IEnMin=19 EnMin= -2221.64624529124     IErMin=20 ErrMin= 3.53D-08
 ErrMax= 3.53D-08  0.00D+00 EMaxC= 1.00D-01 BMatC= 3.91D-12 BMatP= 8.47D-12
 IDIUse=1 WtCom= 1.00D+00 WtEn= 0.00D+00
 Coeff-Com:  0.245D-05-0.148D-04-0.483D-05 0.455D-04 0.167D-03 0.458D-04
 Coeff-Com: -0.497D-03-0.159D-02 0.938D-03 0.417D-02-0.209D-04-0.781D-02
 Coeff-Com: -0.219D-01 0.118D-01 0.726D-01 0.657D-01-0.205D+00-0.414D+00
 Coeff-Com:  0.480D+00 0.102D+01
 Coeff:      0.245D-05-0.148D-04-0.483D-05 0.455D-04 0.167D-03 0.458D-04
 Coeff:     -0.497D-03-0.159D-02 0.938D-03 0.417D-02-0.209D-04-0.781D-02
 Coeff:     -0.219D-01 0.118D-01 0.726D-01 0.657D-01-0.205D+00-0.414D+00
 Coeff:      0.480D+00 0.102D+01
 Gap=     0.099 Goal=   None    Shift=    0.000
 Gap=     0.136 Goal=   None    Shift=    0.000
 RMSDP=5.17D-09 MaxDP=7.97D-07 DE= 5.14D-10 OVMax= 3.65D-06

 Error on total polarization charges =  0.02363
 SCF Done:  E(UM062X) =  -2221.64624529     A.U. after   27 cycles
            NFock= 27  Conv=0.52D-08     -V/T= 2.0052
 <Sx>= 0.0000 <Sy>= 0.0000 <Sz>= 0.5000 <S**2>= 0.7979 S= 0.5237
 <L.S>= 0.000000000000E+00
 KE= 2.210064550791D+03 PE=-1.579362741493D+04 EE= 6.071836403850D+03
 Annihilation of the first spin contaminant:
 S**2 before annihilation     0.7979,   after     0.7515
 Leave Link  502 at Sat Oct 25 01:26:06 2025, MaxMem= 30870077440 cpu:          154003.8 elap:            2433.7
 (Enter /public/software/gauss/g16/l601.exe)
 Copying SCF densities to generalized density rwf, IOpCl= 1 IROHF=0.

 **********************************************************************

            Population analysis using the SCF density.

 **********************************************************************

 Orbital symmetries:
 Alpha Orbitals:
       Occupied  (A) (A) (A) (A) (A) (A) (A) (A) (A) (A) (A) (A)
                 (A) (A) (A) (A) (A) (A) (A) (A) (A) (A) (A) (A)
                 (A) (A) (A) (A) (A) (A) (A) (A) (A) (A) (A) (A)
                 (A) (A) (A) (A) (A) (A) (A) (A) (A) (A) (A) (A)
                 (A) (A) (A) (A) (A) (A) (A) (A) (A) (A) (A) (A)
                 (A) (A) (A) (A) (A) (A) (A) (A) (A) (A) (A) (A)
                 (A) (A) (A) (A) (A) (A) (A) (A) (A) (A) (A) (A)
                 (A) (A) (A) (A) (A) (A) (A) (A) (A) (A) (A) (A)
                 (A) (A) (A) (A) (A) (A) (A) (A) (A) (A) (A) (A)
                 (A) (A) (A) (A) (A) (A) (A) (A) (A) (A) (A) (A)
                 (A) (A) (A) (A) (A) (A) (A) (A) (A) (A) (A) (A)
                 (A) (A) (A) (A) (A) (A) (A) (A) (A) (A) (A) (A)
                 (A) (A) (A) (A) (A) (A) (A) (A) (A) (A) (A) (A)
                 (A) (A) (A) (A) (A) (A) (A) (A) (A)
       Virtual   (A) (A) (A) (A) (A) (A) (A) (A) (A) (A) (A) (A)
                 (A) (A) (A) (A) (A) (A) (A) (A) (A) (A) (A) (A)
                 (A) (A) (A) (A) (A) (A) (A) (A) (A) (A) (A) (A)
                 (A) (A) (A) (A) (A) (A) (A) (A) (A) (A) (A) (A)
                 (A) (A) (A) (A) (A) (A) (A) (A) (A) (A) (A) (A)
                 (A) (A) (A) (A) (A) (A) (A) (A) (A) (A) (A) (A)
                 (A) (A) (A) (A) (A) (A) (A) (A) (A) (A) (A) (A)
                 (A) (A) (A) (A) (A) (A) (A) (A) (A) (A) (A) (A)
                 (A) (A) (A) (A) (A) (A) (A) (A) (A) (A) (A) (A)
                 (A) (A) (A) (A) (A) (A) (A) (A) (A) (A) (A) (A)
                 (A) (A) (A) (A) (A) (A) (A) (A) (A) (A) (A) (A)
                 (A) (A) (A) (A) (A) (A) (A) (A) (A) (A) (A) (A)
                 (A) (A) (A) (A) (A) (A) (A) (A) (A) (A) (A) (A)
                 (A) (A) (A) (A) (A) (A) (A) (A) (A) (A) (A) (A)
                 (A) (A) (A) (A) (A) (A) (A) (A) (A) (A) (A) (A)
                 (A) (A) (A) (A) (A) (A) (A) (A) (A) (A) (A) (A)
                 (A) (A) (A) (A) (A) (A) (A) (A) (A) (A) (A) (A)
                 (A) (A) (A) (A) (A) (A) (A) (A) (A) (A) (A) (A)
                 (A) (A) (A) (A) (A) (A) (A) (A) (A) (A) (A) (A)
                 (A) (A) (A) (A) (A) (A) (A) (A) (A) (A) (A) (A)
                 (A) (A) (A) (A) (A) (A) (A) (A) (A) (A) (A) (A)
                 (A) (A) (A) (A) (A) (A) (A) (A) (A) (A) (A) (A)
                 (A) (A) (A) (A) (A) (A) (A) (A) (A) (A) (A) (A)
                 (A) (A) (A) (A) (A) (A) (A) (A) (A) (A) (A) (A)
                 (A) (A) (A) (A) (A) (A) (A) (A) (A) (A) (A) (A)
                 (A) (A) (A) (A) (A) (A) (A) (A) (A) (A) (A) (A)
                 (A) (A) (A) (A) (A) (A) (A) (A) (A) (A) (A) (A)
                 (A) (A) (A) (A) (A) (A) (A) (A) (A) (A) (A) (A)
                 (A) (A) (A) (A) (A) (A) (A) (A) (A) (A) (A) (A)
                 (A) (A) (A) (A) (A) (A) (A) (A) (A) (A) (A) (A)
                 (A) (A) (A) (A) (A) (A) (A) (A) (A) (A) (A) (A)
                 (A) (A) (A) (A) (A) (A) (A) (A) (A) (A) (A) (A)
                 (A) (A) (A) (A) (A) (A) (A) (A) (A) (A) (A) (A)
                 (A) (A) (A) (A) (A) (A) (A) (A) (A) (A) (A) (A)
                 (A) (A) (A) (A) (A) (A) (A) (A) (A) (A) (A) (A)
                 (A) (A) (A) (A) (A) (A) (A) (A) (A) (A) (A) (A)
                 (A) (A) (A) (A) (A) (A) (A) (A) (A) (A) (A) (A)
                 (A) (A) (A) (A) (A) (A) (A) (A) (A) (A) (A) (A)
                 (A) (A) (A) (A) (A) (A) (A) (A) (A) (A) (A) (A)
                 (A) (A) (A) (A) (A) (A) (A) (A) (A) (A) (A) (A)
                 (A) (A) (A) (A) (A) (A) (A) (A) (A) (A) (A) (A)
                 (A) (A) (A) (A) (A) (A) (A) (A) (A) (A) (A) (A)
                 (A) (A) (A) (A) (A) (A) (A) (A) (A) (A) (A) (A)
                 (A) (A) (A) (A) (A) (A) (A) (A) (A) (A) (A) (A)
                 (A) (A) (A) (A) (A) (A) (A) (A) (A) (A) (A) (A)
                 (A) (A) (A) (A) (A) (A) (A) (A) (A) (A) (A) (A)
                 (A) (A) (A) (A) (A) (A) (A) (A) (A) (A) (A) (A)
                 (A) (A) (A) (A) (A) (A) (A) (A) (A) (A) (A) (A)
                 (A) (A) (A) (A) (A) (A) (A) (A) (A) (A) (A) (A)
                 (A) (A) (A) (A) (A) (A) (A) (A) (A) (A) (A) (A)
                 (A) (A) (A) (A) (A) (A) (A) (A) (A) (A) (A) (A)
                 (A) (A) (A) (A) (A) (A) (A) (A) (A) (A) (A) (A)
                 (A) (A) (A) (A) (A) (A) (A) (A) (A) (A) (A) (A)
                 (A) (A) (A) (A) (A) (A) (A) (A) (A) (A) (A) (A)
                 (A) (A) (A) (A) (A) (A) (A) (A) (A) (A) (A) (A)
                 (A) (A) (A) (A) (A) (A) (A) (A) (A) (A) (A) (A)
                 (A) (A) (A) (A) (A) (A) (A) (A) (A) (A) (A) (A)
                 (A) (A) (A) (A) (A) (A) (A) (A) (A) (A) (A) (A)
                 (A) (A) (A) (A) (A) (A) (A) (A) (A) (A) (A) (A)
                 (A) (A) (A) (A) (A) (A) (A) (A) (A) (A) (A) (A)
                 (A) (A) (A) (A) (A) (A) (A) (A) (A) (A) (A) (A)
                 (A) (A) (A) (A) (A) (A) (A) (A) (A) (A) (A) (A)
                 (A) (A) (A) (A) (A) (A) (A) (A) (A) (A) (A) (A)
                 (A) (A) (A) (A) (A) (A) (A) (A) (A) (A) (A) (A)
                 (A) (A) (A) (A) (A) (A) (A) (A) (A) (A) (A) (A)
                 (A) (A) (A) (A) (A) (A) (A) (A) (A) (A) (A) (A)
                 (A) (A) (A) (A) (A) (A) (A) (A) (A) (A) (A) (A)
                 (A) (A) (A) (A) (A) (A) (A) (A) (A) (A) (A) (A)
                 (A) (A) (A) (A) (A) (A) (A) (A) (A) (A) (A) (A)
                 (A) (A) (A) (A) (A) (A) (A) (A) (A) (A) (A) (A)
                 (A) (A) (A) (A) (A) (A) (A) (A) (A) (A) (A) (A)
                 (A) (A) (A) (A) (A) (A) (A) (A) (A) (A) (A) (A)
                 (A) (A) (A) (A) (A) (A) (A) (A) (A) (A) (A) (A)
                 (A) (A) (A) (A) (A) (A) (A) (A) (A) (A) (A) (A)
                 (A) (A) (A) (A) (A) (A) (A) (A) (A) (A) (A) (A)
                 (A) (A) (A) (A) (A) (A) (A) (A) (A) (A) (A) (A)
                 (A) (A) (A) (A) (A) (A) (A) (A) (A) (A) (A) (A)
                 (A) (A) (A) (A) (A) (A) (A) (A) (A) (A) (A) (A)
                 (A) (A) (A) (A) (A) (A) (A) (A) (A) (A) (A) (A)
                 (A) (A) (A) (A) (A) (A) (A) (A) (A) (A) (A) (A)
                 (A) (A) (A) (A) (A) (A) (A) (A) (A) (A) (A) (A)
                 (A) (A) (A) (A) (A) (A) (A) (A) (A) (A) (A) (A)
                 (A) (A) (A) (A) (A) (A) (A) (A) (A) (A) (A) (A)
                 (A) (A) (A) (A) (A) (A) (A) (A) (A) (A) (A) (A)
                 (A) (A) (A) (A) (A) (A) (A) (A) (A) (A) (A) (A)
                 (A) (A) (A) (A) (A) (A) (A) (A) (A) (A) (A) (A)
                 (A) (A) (A) (A) (A) (A) (A) (A) (A) (A) (A) (A)
                 (A) (A) (A) (A) (A) (A) (A) (A) (A) (A) (A) (A)
                 (A) (A) (A) (A) (A) (A) (A) (A) (A) (A) (A) (A)
                 (A) (A) (A) (A) (A) (A) (A) (A) (A) (A) (A) (A)
                 (A) (A) (A) (A) (A) (A) (A) (A) (A) (A) (A) (A)
                 (A) (A) (A) (A) (A) (A) (A) (A) (A) (A) (A) (A)
                 (A) (A) (A) (A) (A) (A) (A) (A) (A) (A) (A) (A)
                 (A) (A) (A) (A) (A) (A) (A) (A) (A) (A) (A) (A)
                 (A) (A) (A) (A) (A) (A) (A) (A) (A) (A) (A) (A)
                 (A) (A) (A) (A) (A) (A) (A) (A) (A) (A) (A) (A)
                 (A) (A) (A) (A) (A) (A) (A) (A) (A) (A) (A) (A)
                 (A) (A) (A) (A) (A) (A) (A) (A) (A) (A) (A) (A)
                 (A) (A) (A) (A) (A) (A) (A) (A) (A) (A) (A) (A)
                 (A) (A) (A) (A) (A) (A) (A) (A) (A) (A) (A) (A)
                 (A) (A) (A) (A) (A) (A) (A) (A) (A) (A) (A) (A)
                 (A) (A) (A) (A) (A) (A) (A) (A) (A) (A) (A) (A)
                 (A) (A) (A) (A) (A) (A) (A) (A) (A) (A) (A) (A)
                 (A) (A) (A) (A) (A) (A) (A) (A) (A) (A) (A) (A)
                 (A) (A) (A) (A) (A) (A) (A) (A) (A) (A) (A) (A)
                 (A) (A) (A) (A) (A) (A) (A) (A) (A) (A) (A) (A)
                 (A) (A) (A) (A) (A) (A) (A) (A) (A) (A) (A) (A)
                 (A) (A) (A) (A) (A) (A) (A) (A) (A) (A) (A) (A)
                 (A) (A) (A) (A) (A) (A) (A) (A) (A) (A) (A) (A)
                 (A) (A) (A) (A) (A) (A) (A) (A) (A) (A) (A) (A)
                 (A) (A) (A) (A) (A) (A) (A) (A) (A) (A) (A) (A)
                 (A) (A) (A) (A) (A) (A) (A) (A) (A) (A) (A) (A)
                 (A) (A) (A) (A) (A) (A) (A) (A) (A) (A) (A) (A)
                 (A) (A) (A) (A) (A) (A) (A) (A) (A) (A) (A) (A)
                 (A) (A) (A) (A) (A) (A) (A) (A) (A) (A) (A) (A)
                 (A) (A) (A) (A) (A) (A) (A) (A) (A) (A) (A) (A)
                 (A) (A) (A) (A) (A) (A) (A) (A) (A) (A) (A) (A)
                 (A) (A) (A) (A) (A) (A) (A) (A) (A) (A) (A) (A)
                 (A) (A) (A) (A) (A) (A) (A) (A) (A) (A) (A) (A)
                 (A) (A) (A) (A) (A) (A) (A) (A) (A) (A) (A) (A)
                 (A) (A) (A) (A) (A) (A) (A) (A) (A) (A) (A) (A)
                 (A) (A) (A) (A) (A) (A) (A) (A) (A) (A) (A) (A)
                 (A) (A) (A) (A) (A) (A) (A) (A) (A) (A) (A) (A)
                 (A) (A) (A) (A) (A) (A) (A) (A) (A) (A) (A) (A)
                 (A) (A) (A) (A) (A) (A) (A) (A) (A) (A) (A) (A)
                 (A) (A) (A) (A) (A) (A) (A) (A) (A) (A) (A) (A)
                 (A) (A) (A) (A) (A) (A) (A) (A) (A) (A) (A) (A)
                 (A) (A) (A) (A) (A) (A) (A) (A) (A) (A) (A) (A)
                 (A) (A) (A) (A) (A) (A) (A) (A) (A) (A) (A) (A)
                 (A) (A) (A) (A) (A) (A) (A) (A) (A) (A) (A) (A)
                 (A) (A) (A) (A) (A) (A) (A) (A) (A) (A) (A) (A)
                 (A) (A) (A) (A) (A) (A) (A) (A) (A) (A) (A) (A)
                 (A) (A) (A) (A) (A) (A) (A) (A) (A) (A) (A) (A)
                 (A) (A) (A) (A) (A) (A) (A) (A) (A) (A) (A) (A)
                 (A) (A) (A) (A) (A) (A) (A) (A) (A) (A) (A) (A)
                 (A) (A) (A) (A) (A) (A) (A) (A)
 Beta  Orbitals:
       Occupied  (A) (A) (A) (A) (A) (A) (A) (A) (A) (A) (A) (A)
                 (A) (A) (A) (A) (A) (A) (A) (A) (A) (A) (A) (A)
                 (A) (A) (A) (A) (A) (A) (A) (A) (A) (A) (A) (A)
                 (A) (A) (A) (A) (A) (A) (A) (A) (A) (A) (A) (A)
                 (A) (A) (A) (A) (A) (A) (A) (A) (A) (A) (A) (A)
                 (A) (A) (A) (A) (A) (A) (A) (A) (A) (A) (A) (A)
                 (A) (A) (A) (A) (A) (A) (A) (A) (A) (A) (A) (A)
                 (A) (A) (A) (A) (A) (A) (A) (A) (A) (A) (A) (A)
                 (A) (A) (A) (A) (A) (A) (A) (A) (A) (A) (A) (A)
                 (A) (A) (A) (A) (A) (A) (A) (A) (A) (A) (A) (A)
                 (A) (A) (A) (A) (A) (A) (A) (A) (A) (A) (A) (A)
                 (A) (A) (A) (A) (A) (A) (A) (A) (A) (A) (A) (A)
                 (A) (A) (A) (A) (A) (A) (A) (A) (A) (A) (A) (A)
                 (A) (A) (A) (A) (A) (A) (A) (A)
       Virtual   (A) (A) (A) (A) (A) (A) (A) (A) (A) (A) (A) (A)
                 (A) (A) (A) (A) (A) (A) (A) (A) (A) (A) (A) (A)
                 (A) (A) (A) (A) (A) (A) (A) (A) (A) (A) (A) (A)
                 (A) (A) (A) (A) (A) (A) (A) (A) (A) (A) (A) (A)
                 (A) (A) (A) (A) (A) (A) (A) (A) (A) (A) (A) (A)
                 (A) (A) (A) (A) (A) (A) (A) (A) (A) (A) (A) (A)
                 (A) (A) (A) (A) (A) (A) (A) (A) (A) (A) (A) (A)
                 (A) (A) (A) (A) (A) (A) (A) (A) (A) (A) (A) (A)
                 (A) (A) (A) (A) (A) (A) (A) (A) (A) (A) (A) (A)
                 (A) (A) (A) (A) (A) (A) (A) (A) (A) (A) (A) (A)
                 (A) (A) (A) (A) (A) (A) (A) (A) (A) (A) (A) (A)
                 (A) (A) (A) (A) (A) (A) (A) (A) (A) (A) (A) (A)
                 (A) (A) (A) (A) (A) (A) (A) (A) (A) (A) (A) (A)
                 (A) (A) (A) (A) (A) (A) (A) (A) (A) (A) (A) (A)
                 (A) (A) (A) (A) (A) (A) (A) (A) (A) (A) (A) (A)
                 (A) (A) (A) (A) (A) (A) (A) (A) (A) (A) (A) (A)
                 (A) (A) (A) (A) (A) (A) (A) (A) (A) (A) (A) (A)
                 (A) (A) (A) (A) (A) (A) (A) (A) (A) (A) (A) (A)
                 (A) (A) (A) (A) (A) (A) (A) (A) (A) (A) (A) (A)
                 (A) (A) (A) (A) (A) (A) (A) (A) (A) (A) (A) (A)
                 (A) (A) (A) (A) (A) (A) (A) (A) (A) (A) (A) (A)
                 (A) (A) (A) (A) (A) (A) (A) (A) (A) (A) (A) (A)
                 (A) (A) (A) (A) (A) (A) (A) (A) (A) (A) (A) (A)
                 (A) (A) (A) (A) (A) (A) (A) (A) (A) (A) (A) (A)
                 (A) (A) (A) (A) (A) (A) (A) (A) (A) (A) (A) (A)
                 (A) (A) (A) (A) (A) (A) (A) (A) (A) (A) (A) (A)
                 (A) (A) (A) (A) (A) (A) (A) (A) (A) (A) (A) (A)
                 (A) (A) (A) (A) (A) (A) (A) (A) (A) (A) (A) (A)
                 (A) (A) (A) (A) (A) (A) (A) (A) (A) (A) (A) (A)
                 (A) (A) (A) (A) (A) (A) (A) (A) (A) (A) (A) (A)
                 (A) (A) (A) (A) (A) (A) (A) (A) (A) (A) (A) (A)
                 (A) (A) (A) (A) (A) (A) (A) (A) (A) (A) (A) (A)
                 (A) (A) (A) (A) (A) (A) (A) (A) (A) (A) (A) (A)
                 (A) (A) (A) (A) (A) (A) (A) (A) (A) (A) (A) (A)
                 (A) (A) (A) (A) (A) (A) (A) (A) (A) (A) (A) (A)
                 (A) (A) (A) (A) (A) (A) (A) (A) (A) (A) (A) (A)
                 (A) (A) (A) (A) (A) (A) (A) (A) (A) (A) (A) (A)
                 (A) (A) (A) (A) (A) (A) (A) (A) (A) (A) (A) (A)
                 (A) (A) (A) (A) (A) (A) (A) (A) (A) (A) (A) (A)
                 (A) (A) (A) (A) (A) (A) (A) (A) (A) (A) (A) (A)
                 (A) (A) (A) (A) (A) (A) (A) (A) (A) (A) (A) (A)
                 (A) (A) (A) (A) (A) (A) (A) (A) (A) (A) (A) (A)
                 (A) (A) (A) (A) (A) (A) (A) (A) (A) (A) (A) (A)
                 (A) (A) (A) (A) (A) (A) (A) (A) (A) (A) (A) (A)
                 (A) (A) (A) (A) (A) (A) (A) (A) (A) (A) (A) (A)
                 (A) (A) (A) (A) (A) (A) (A) (A) (A) (A) (A) (A)
                 (A) (A) (A) (A) (A) (A) (A) (A) (A) (A) (A) (A)
                 (A) (A) (A) (A) (A) (A) (A) (A) (A) (A) (A) (A)
                 (A) (A) (A) (A) (A) (A) (A) (A) (A) (A) (A) (A)
                 (A) (A) (A) (A) (A) (A) (A) (A) (A) (A) (A) (A)
                 (A) (A) (A) (A) (A) (A) (A) (A) (A) (A) (A) (A)
                 (A) (A) (A) (A) (A) (A) (A) (A) (A) (A) (A) (A)
                 (A) (A) (A) (A) (A) (A) (A) (A) (A) (A) (A) (A)
                 (A) (A) (A) (A) (A) (A) (A) (A) (A) (A) (A) (A)
                 (A) (A) (A) (A) (A) (A) (A) (A) (A) (A) (A) (A)
                 (A) (A) (A) (A) (A) (A) (A) (A) (A) (A) (A) (A)
                 (A) (A) (A) (A) (A) (A) (A) (A) (A) (A) (A) (A)
                 (A) (A) (A) (A) (A) (A) (A) (A) (A) (A) (A) (A)
                 (A) (A) (A) (A) (A) (A) (A) (A) (A) (A) (A) (A)
                 (A) (A) (A) (A) (A) (A) (A) (A) (A) (A) (A) (A)
                 (A) (A) (A) (A) (A) (A) (A) (A) (A) (A) (A) (A)
                 (A) (A) (A) (A) (A) (A) (A) (A) (A) (A) (A) (A)
                 (A) (A) (A) (A) (A) (A) (A) (A) (A) (A) (A) (A)
                 (A) (A) (A) (A) (A) (A) (A) (A) (A) (A) (A) (A)
                 (A) (A) (A) (A) (A) (A) (A) (A) (A) (A) (A) (A)
                 (A) (A) (A) (A) (A) (A) (A) (A) (A) (A) (A) (A)
                 (A) (A) (A) (A) (A) (A) (A) (A) (A) (A) (A) (A)
                 (A) (A) (A) (A) (A) (A) (A) (A) (A) (A) (A) (A)
                 (A) (A) (A) (A) (A) (A) (A) (A) (A) (A) (A) (A)
                 (A) (A) (A) (A) (A) (A) (A) (A) (A) (A) (A) (A)
                 (A) (A) (A) (A) (A) (A) (A) (A) (A) (A) (A) (A)
                 (A) (A) (A) (A) (A) (A) (A) (A) (A) (A) (A) (A)
                 (A) (A) (A) (A) (A) (A) (A) (A) (A) (A) (A) (A)
                 (A) (A) (A) (A) (A) (A) (A) (A) (A) (A) (A) (A)
                 (A) (A) (A) (A) (A) (A) (A) (A) (A) (A) (A) (A)
                 (A) (A) (A) (A) (A) (A) (A) (A) (A) (A) (A) (A)
                 (A) (A) (A) (A) (A) (A) (A) (A) (A) (A) (A) (A)
                 (A) (A) (A) (A) (A) (A) (A) (A) (A) (A) (A) (A)
                 (A) (A) (A) (A) (A) (A) (A) (A) (A) (A) (A) (A)
                 (A) (A) (A) (A) (A) (A) (A) (A) (A) (A) (A) (A)
                 (A) (A) (A) (A) (A) (A) (A) (A) (A) (A) (A) (A)
                 (A) (A) (A) (A) (A) (A) (A) (A) (A) (A) (A) (A)
                 (A) (A) (A) (A) (A) (A) (A) (A) (A) (A) (A) (A)
                 (A) (A) (A) (A) (A) (A) (A) (A) (A) (A) (A) (A)
                 (A) (A) (A) (A) (A) (A) (A) (A) (A) (A) (A) (A)
                 (A) (A) (A) (A) (A) (A) (A) (A) (A) (A) (A) (A)
                 (A) (A) (A) (A) (A) (A) (A) (A) (A) (A) (A) (A)
                 (A) (A) (A) (A) (A) (A) (A) (A) (A) (A) (A) (A)
                 (A) (A) (A) (A) (A) (A) (A) (A) (A) (A) (A) (A)
                 (A) (A) (A) (A) (A) (A) (A) (A) (A) (A) (A) (A)
                 (A) (A) (A) (A) (A) (A) (A) (A) (A) (A) (A) (A)
                 (A) (A) (A) (A) (A) (A) (A) (A) (A) (A) (A) (A)
                 (A) (A) (A) (A) (A) (A) (A) (A) (A) (A) (A) (A)
                 (A) (A) (A) (A) (A) (A) (A) (A) (A) (A) (A) (A)
                 (A) (A) (A) (A) (A) (A) (A) (A) (A) (A) (A) (A)
                 (A) (A) (A) (A) (A) (A) (A) (A) (A) (A) (A) (A)
                 (A) (A) (A) (A) (A) (A) (A) (A) (A) (A) (A) (A)
                 (A) (A) (A) (A) (A) (A) (A) (A) (A) (A) (A) (A)
                 (A) (A) (A) (A) (A) (A) (A) (A) (A) (A) (A) (A)
                 (A) (A) (A) (A) (A) (A) (A) (A) (A) (A) (A) (A)
                 (A) (A) (A) (A) (A) (A) (A) (A) (A) (A) (A) (A)
                 (A) (A) (A) (A) (A) (A) (A) (A) (A) (A) (A) (A)
                 (A) (A) (A) (A) (A) (A) (A) (A) (A) (A) (A) (A)
                 (A) (A) (A) (A) (A) (A) (A) (A) (A) (A) (A) (A)
                 (A) (A) (A) (A) (A) (A) (A) (A) (A) (A) (A) (A)
                 (A) (A) (A) (A) (A) (A) (A) (A) (A) (A) (A) (A)
                 (A) (A) (A) (A) (A) (A) (A) (A) (A) (A) (A) (A)
                 (A) (A) (A) (A) (A) (A) (A) (A) (A) (A) (A) (A)
                 (A) (A) (A) (A) (A) (A) (A) (A) (A) (A) (A) (A)
                 (A) (A) (A) (A) (A) (A) (A) (A) (A) (A) (A) (A)
                 (A) (A) (A) (A) (A) (A) (A) (A) (A) (A) (A) (A)
                 (A) (A) (A) (A) (A) (A) (A) (A) (A) (A) (A) (A)
                 (A) (A) (A) (A) (A) (A) (A) (A) (A) (A) (A) (A)
                 (A) (A) (A) (A) (A) (A) (A) (A) (A) (A) (A) (A)
                 (A) (A) (A) (A) (A) (A) (A) (A) (A) (A) (A) (A)
                 (A) (A) (A) (A) (A) (A) (A) (A) (A) (A) (A) (A)
                 (A) (A) (A) (A) (A) (A) (A) (A) (A) (A) (A) (A)
                 (A) (A) (A) (A) (A) (A) (A) (A) (A) (A) (A) (A)
                 (A) (A) (A) (A) (A) (A) (A) (A) (A) (A) (A) (A)
                 (A) (A) (A) (A) (A) (A) (A) (A) (A) (A) (A) (A)
                 (A) (A) (A) (A) (A) (A) (A) (A) (A) (A) (A) (A)
                 (A) (A) (A) (A) (A) (A) (A) (A) (A) (A) (A) (A)
                 (A) (A) (A) (A) (A) (A) (A) (A) (A) (A) (A) (A)
                 (A) (A) (A) (A) (A) (A) (A) (A) (A) (A) (A) (A)
                 (A) (A) (A) (A) (A) (A) (A) (A) (A) (A) (A) (A)
                 (A) (A) (A) (A) (A) (A) (A) (A) (A) (A) (A) (A)
                 (A) (A) (A) (A) (A) (A) (A) (A) (A) (A) (A) (A)
                 (A) (A) (A) (A) (A) (A) (A) (A) (A) (A) (A) (A)
                 (A) (A) (A) (A) (A) (A) (A) (A) (A) (A) (A) (A)
                 (A) (A) (A) (A) (A) (A) (A) (A) (A) (A) (A) (A)
                 (A) (A) (A) (A) (A) (A) (A) (A) (A) (A) (A) (A)
                 (A) (A) (A) (A) (A) (A) (A) (A) (A) (A) (A) (A)
                 (A) (A) (A) (A) (A) (A) (A) (A) (A) (A) (A) (A)
                 (A) (A) (A) (A) (A) (A) (A) (A) (A) (A) (A) (A)
                 (A) (A) (A) (A) (A) (A) (A) (A) (A) (A) (A) (A)
                 (A) (A) (A) (A) (A) (A) (A) (A) (A)
 The electronic state is 2-A.
 Alpha  occ. eigenvalues --  -25.20419 -25.20384 -19.68010 -19.68008 -19.65401
 Alpha  occ. eigenvalues --  -19.65038 -19.62402 -19.62077 -15.01484 -14.98427
 Alpha  occ. eigenvalues --  -14.94984 -14.78497 -14.78487 -10.62103 -10.60966
 Alpha  occ. eigenvalues --  -10.60673 -10.60390 -10.60189 -10.60118 -10.59377
 Alpha  occ. eigenvalues --  -10.59261 -10.59220 -10.58176 -10.58171 -10.57453
 Alpha  occ. eigenvalues --  -10.57450 -10.57345 -10.57333 -10.56995 -10.56821
 Alpha  occ. eigenvalues --  -10.56764 -10.56255 -10.56227 -10.55929 -10.55883
 Alpha  occ. eigenvalues --  -10.55873 -10.55766 -10.55182 -10.55126 -10.55066
 Alpha  occ. eigenvalues --  -10.54981 -10.54911 -10.54629 -10.54204 -10.54073
 Alpha  occ. eigenvalues --  -10.54042  -7.13188  -1.37007  -1.33317  -1.32352
 Alpha  occ. eigenvalues --   -1.29923  -1.29103  -1.18519  -1.15016  -1.11772
 Alpha  occ. eigenvalues --   -1.10643  -1.08628  -1.01123  -1.00296  -0.97154
 Alpha  occ. eigenvalues --   -0.95545  -0.93787  -0.91779  -0.91072  -0.91032
 Alpha  occ. eigenvalues --   -0.90681  -0.89893  -0.88179  -0.87860  -0.85397
 Alpha  occ. eigenvalues --   -0.84868  -0.83465  -0.81413  -0.81212  -0.80332
 Alpha  occ. eigenvalues --   -0.79114  -0.77101  -0.74524  -0.72735  -0.72133
 Alpha  occ. eigenvalues --   -0.70465  -0.70087  -0.69936  -0.69530  -0.68232
 Alpha  occ. eigenvalues --   -0.66882  -0.66179  -0.66042  -0.65311  -0.64054
 Alpha  occ. eigenvalues --   -0.63477  -0.63229  -0.62606  -0.62024  -0.61817
 Alpha  occ. eigenvalues --   -0.60843  -0.60259  -0.60055  -0.59867  -0.59378
 Alpha  occ. eigenvalues --   -0.58935  -0.58399  -0.57924  -0.57041  -0.56365
 Alpha  occ. eigenvalues --   -0.55774  -0.54882  -0.54587  -0.54053  -0.53546
 Alpha  occ. eigenvalues --   -0.52940  -0.52783  -0.52296  -0.52131  -0.51875
 Alpha  occ. eigenvalues --   -0.51695  -0.51360  -0.50809  -0.50224  -0.49511
 Alpha  occ. eigenvalues --   -0.49381  -0.49154  -0.48947  -0.48018  -0.47947
 Alpha  occ. eigenvalues --   -0.47374  -0.47115  -0.46866  -0.46628  -0.46540
 Alpha  occ. eigenvalues --   -0.46261  -0.45590  -0.45479  -0.44634  -0.44294
 Alpha  occ. eigenvalues --   -0.44066  -0.43938  -0.43407  -0.42971  -0.42015
 Alpha  occ. eigenvalues --   -0.41257  -0.41155  -0.40618  -0.40138  -0.40014
 Alpha  occ. eigenvalues --   -0.39800  -0.39751  -0.39482  -0.39044  -0.38599
 Alpha  occ. eigenvalues --   -0.37860  -0.37509  -0.36269  -0.35591  -0.34476
 Alpha  occ. eigenvalues --   -0.34093  -0.33985  -0.33890  -0.32371  -0.31912
 Alpha  occ. eigenvalues --   -0.31717  -0.31312  -0.28906  -0.24040  -0.19671
 Alpha virt. eigenvalues --   -0.09747  -0.07521  -0.05023  -0.03057  -0.01199
 Alpha virt. eigenvalues --   -0.00906   0.01344   0.02032   0.02141   0.04941
 Alpha virt. eigenvalues --    0.05441   0.05620   0.06564   0.07645   0.08135
 Alpha virt. eigenvalues --    0.08622   0.08675   0.09349   0.09571   0.09688
 Alpha virt. eigenvalues --    0.10188   0.10401   0.11021   0.11297   0.11445
 Alpha virt. eigenvalues --    0.11833   0.11955   0.12550   0.12963   0.13224
 Alpha virt. eigenvalues --    0.13416   0.13625   0.14080   0.14491   0.15121
 Alpha virt. eigenvalues --    0.15169   0.15282   0.15781   0.16073   0.16404
 Alpha virt. eigenvalues --    0.16637   0.16765   0.17399   0.17532   0.17678
 Alpha virt. eigenvalues --    0.17953   0.18116   0.18568   0.18733   0.19285
 Alpha virt. eigenvalues --    0.19711   0.19881   0.20051   0.20260   0.20780
 Alpha virt. eigenvalues --    0.21127   0.21357   0.21731   0.22061   0.22143
 Alpha virt. eigenvalues --    0.22436   0.22671   0.22779   0.23075   0.23136
 Alpha virt. eigenvalues --    0.23303   0.23703   0.23909   0.24132   0.24875
 Alpha virt. eigenvalues --    0.25052   0.25074   0.25327   0.25600   0.25804
 Alpha virt. eigenvalues --    0.26330   0.26453   0.26552   0.26876   0.26942
 Alpha virt. eigenvalues --    0.27045   0.27190   0.27478   0.27752   0.27980
[...]
     6 C(13)  Bbb     0.0294     3.943     1.407     1.315  0.1558  0.9804 -0.1204
              Bcc     0.0381     5.106     1.822     1.703  0.9877 -0.1528  0.0338
 
              Baa    -0.0631    -8.468    -3.021    -2.825  0.0257  0.9983 -0.0522
     7 C(13)  Bbb    -0.0577    -7.742    -2.763    -2.583  0.9996 -0.0262 -0.0103
              Bcc     0.1208    16.210     5.784     5.407  0.0117  0.0519  0.9986
 
              Baa    -0.0234    -3.135    -1.119    -1.046  0.0874  0.9962  0.0040
     8 C(13)  Bbb    -0.0149    -2.005    -0.716    -0.669  0.9954 -0.0875  0.0395
              Bcc     0.0383     5.140     1.834     1.715 -0.0397 -0.0005  0.9992
 
              Baa    -0.0291    -3.910    -1.395    -1.304  0.1384  0.9367 -0.3216
     9 C(13)  Bbb    -0.0167    -2.241    -0.800    -0.748  0.9902 -0.1239  0.0651
              Bcc     0.0458     6.151     2.195     2.052 -0.0211  0.3274  0.9446
 
              Baa    -0.0640    -8.593    -3.066    -2.866 -0.2254  0.9319 -0.2842
    10 C(13)  Bbb    -0.0415    -5.566    -1.986    -1.857  0.9498  0.1451 -0.2772
              Bcc     0.1055    14.159     5.052     4.723  0.2171  0.3324  0.9178
 
              Baa    -0.1938    -7.476    -2.668    -2.494 -0.3276  0.9023  0.2802
    11 N(14)  Bbb    -0.1842    -7.104    -2.535    -2.370  0.8699  0.4038 -0.2833
              Bcc     0.3780    14.580     5.203     4.863  0.3688 -0.1509  0.9172
 
              Baa    -0.3655    26.450     9.438     8.823  0.4824  0.8753  0.0346
    12 O(17)  Bbb    -0.3429    24.809     8.853     8.275  0.8415 -0.4521 -0.2957
              Bcc     0.7084   -51.260   -18.291   -17.098  0.2432 -0.1718  0.9546
 
              Baa    -0.2984    21.589     7.703     7.201  0.6646 -0.6263 -0.4074
    13 O(17)  Bbb    -0.2784    20.147     7.189     6.720  0.6447  0.7563 -0.1108
              Bcc     0.5768   -41.736   -14.892   -13.921  0.3776 -0.1890  0.9065
 
              Baa    -0.0703    -9.432    -3.365    -3.146  0.9197  0.3553 -0.1673
    14 C(13)  Bbb    -0.0640    -8.595    -3.067    -2.867 -0.3914  0.8639 -0.3169
              Bcc     0.1343    18.026     6.432     6.013  0.0320  0.3569  0.9336
 
              Baa    -0.0691    -2.665    -0.951    -0.889  0.8182 -0.0595  0.5718
    15 N(14)  Bbb    -0.0610    -2.354    -0.840    -0.785  0.0880  0.9959 -0.0223
              Bcc     0.1301     5.018     1.791     1.674 -0.5682  0.0686  0.8201
 
              Baa    -0.0970     7.016     2.504     2.340 -0.3560  0.7767 -0.5197
    16 O(17)  Bbb    -0.0846     6.119     2.184     2.041  0.6813  0.5963  0.4245
              Bcc     0.1815   -13.136    -4.687    -4.382 -0.6396  0.2030  0.7415
 
              Baa    -0.2072    14.994     5.350     5.001 -0.1827  0.9829  0.0221
    17 O(17)  Bbb    -0.2036    14.734     5.257     4.915  0.8920  0.1563  0.4242
              Bcc     0.4108   -29.728   -10.608    -9.916 -0.4135 -0.0972  0.9053
 
              Baa    -0.0711    -9.541    -3.404    -3.182  0.0237  0.1201  0.9925
    18 C(13)  Bbb     0.0304     4.074     1.454     1.359  0.2274  0.9661 -0.1223
              Bcc     0.0407     5.467     1.951     1.824  0.9735 -0.2286  0.0044
 
              Baa    -0.0482    -1.861    -0.664    -0.621  0.2456  0.9692 -0.0151
    19 N(14)  Bbb    -0.0438    -1.690    -0.603    -0.564  0.9687 -0.2460 -0.0329
              Bcc     0.0921     3.551     1.267     1.184  0.0356  0.0065  0.9993
 
              Baa    -0.0211    -2.828    -1.009    -0.943 -0.0030  0.0521  0.9986
    20 C(13)  Bbb     0.0080     1.075     0.384     0.359  0.1629  0.9853 -0.0509
              Bcc     0.0131     1.753     0.626     0.585  0.9866 -0.1626  0.0114
 
              Baa    -0.0263    -3.530    -1.260    -1.178  0.1856  0.9818 -0.0396
    21 C(13)  Bbb    -0.0235    -3.158    -1.127    -1.053  0.9824 -0.1846  0.0277
              Bcc     0.0498     6.688     2.387     2.231 -0.0199  0.0440  0.9988
 
              Baa    -0.0008    -0.111    -0.040    -0.037 -0.3238  0.9378 -0.1257
    22 C(13)  Bbb     0.0002     0.032     0.012     0.011  0.8929  0.3468  0.2871
              Bcc     0.0006     0.079     0.028     0.026 -0.3128  0.0192  0.9496
 
              Baa    -0.0011    -0.145    -0.052    -0.048 -0.0563 -0.5531  0.8312
    23 C(13)  Bbb    -0.0010    -0.132    -0.047    -0.044  0.8108 -0.5111 -0.2852
              Bcc     0.0021     0.277     0.099     0.093  0.5826  0.6579  0.4772
 
              Baa    -0.0006    -0.084    -0.030    -0.028  0.7328 -0.6380  0.2366
    24 C(13)  Bbb    -0.0002    -0.033    -0.012    -0.011 -0.2677  0.0493  0.9622
              Bcc     0.0009     0.117     0.042     0.039  0.6255  0.7685  0.1347
 
              Baa    -0.0002    -0.023    -0.008    -0.008 -0.0909  0.1750  0.9804
    25 C(13)  Bbb    -0.0001    -0.011    -0.004    -0.004 -0.5463  0.8143 -0.1960
              Bcc     0.0003     0.034     0.012     0.011  0.8326  0.5534 -0.0216
 
              Baa    -0.0001    -0.003    -0.001    -0.001  0.1197 -0.1882  0.9748
    26 N(14)  Bbb    -0.0001    -0.003    -0.001    -0.001 -0.4475  0.8663  0.2222
              Bcc     0.0002     0.006     0.002     0.002  0.8862  0.4628 -0.0195
 
              Baa    -0.0002     0.014     0.005     0.005 -0.5481  0.7528 -0.3646
    27 O(17)  Bbb    -0.0000     0.000     0.000     0.000 -0.2393  0.2765  0.9307
              Bcc     0.0002    -0.015    -0.005    -0.005  0.8015  0.5974  0.0286
 
              Baa    -0.0002     0.013     0.005     0.004  0.0135 -0.2187  0.9757
    28 O(17)  Bbb    -0.0000     0.001     0.001     0.000  0.5077  0.8422  0.1818
              Bcc     0.0002    -0.015    -0.005    -0.005  0.8615 -0.4929 -0.1224
 
              Baa    -0.0006    -0.078    -0.028    -0.026  0.7988 -0.5969 -0.0755
    29 C(13)  Bbb    -0.0003    -0.046    -0.016    -0.015  0.2032  0.1495  0.9677
              Bcc     0.0009     0.123     0.044     0.041  0.5663  0.7883 -0.2407
 
              Baa    -0.0011    -0.144    -0.051    -0.048  0.6963 -0.3546  0.6241
    30 C(13)  Bbb    -0.0010    -0.131    -0.047    -0.044  0.0038  0.8713  0.4908
              Bcc     0.0020     0.274     0.098     0.092  0.7178  0.3394 -0.6080
 
              Baa    -0.0028    -0.372    -0.133    -0.124  0.5827  0.8126 -0.0077
    31 C(13)  Bbb    -0.0008    -0.108    -0.038    -0.036  0.8127 -0.5827  0.0058
              Bcc     0.0036     0.480     0.171     0.160 -0.0003  0.0096  1.0000
 
              Baa    -0.0224    -3.012    -1.075    -1.005  0.3081  0.9481 -0.0781
    32 C(13)  Bbb    -0.0202    -2.713    -0.968    -0.905  0.9485 -0.2999  0.1020
              Bcc     0.0427     5.724     2.043     1.909 -0.0733  0.1055  0.9917
 
              Baa    -0.0010    -0.129    -0.046    -0.043  0.1825  0.9780 -0.1014
    33 C(13)  Bbb     0.0000     0.006     0.002     0.002  0.9828 -0.1784  0.0479
              Bcc     0.0009     0.123     0.044     0.041 -0.0287  0.1084  0.9937
 
              Baa    -0.0062    -0.838    -0.299    -0.280 -0.0414  0.0799  0.9959
    34 C(13)  Bbb     0.0025     0.339     0.121     0.113  0.4040  0.9130 -0.0565
              Bcc     0.0037     0.499     0.178     0.166  0.9138 -0.4000  0.0701
 
              Baa    -0.0310    -4.164    -1.486    -1.389  0.0263  0.9980 -0.0573
    35 C(13)  Bbb    -0.0284    -3.805    -1.358    -1.269  0.9954 -0.0209  0.0933
              Bcc     0.0594     7.969     2.844     2.658 -0.0919  0.0595  0.9940
 
              Baa    -0.0208    -2.786    -0.994    -0.929 -0.2721  0.1904  0.9433
    36 C(13)  Bbb     0.0085     1.136     0.405     0.379 -0.2645  0.9277 -0.2635
              Bcc     0.0123     1.650     0.589     0.550  0.9252  0.3212  0.2020
 
              Baa    -0.0213    -2.861    -1.021    -0.954  0.9290  0.2024  0.3098
    37 C(13)  Bbb    -0.0206    -2.763    -0.986    -0.922 -0.1058  0.9475 -0.3016
              Bcc     0.0419     5.623     2.007     1.876 -0.3546  0.2474  0.9017
 
              Baa    -0.0062    -0.836    -0.298    -0.279 -0.3437  0.2695  0.8996
    38 C(13)  Bbb     0.0027     0.363     0.130     0.121  0.8742 -0.2580  0.4113
              Bcc     0.0035     0.472     0.169     0.158  0.3430  0.9278 -0.1469
 
              Baa    -0.0044    -0.595    -0.212    -0.198  0.9326  0.2089  0.2944
    39 C(13)  Bbb    -0.0042    -0.564    -0.201    -0.188 -0.0962  0.9299 -0.3550
              Bcc     0.0086     1.159     0.413     0.386 -0.3479  0.3027  0.8873
 
              Baa    -0.0035    -0.465    -0.166    -0.155 -0.3551  0.2566  0.8989
    40 C(13)  Bbb     0.0016     0.218     0.078     0.073  0.6819 -0.5867  0.4368
              Bcc     0.0018     0.247     0.088     0.082  0.6395  0.7681  0.0334
 
              Baa    -0.0051    -0.682    -0.243    -0.227  0.8145 -0.3625  0.4530
    41 C(13)  Bbb    -0.0046    -0.617    -0.220    -0.206  0.4478  0.8893 -0.0935
              Bcc     0.0097     1.299     0.464     0.433 -0.3690  0.2790  0.8866
 
              Baa    -0.0037    -0.492    -0.175    -0.164 -0.3477  0.2389  0.9067
    42 C(13)  Bbb     0.0016     0.210     0.075     0.070  0.9238 -0.0783  0.3748
              Bcc     0.0021     0.281     0.100     0.094  0.1605  0.9679 -0.1935
 
              Baa    -0.0046    -0.618    -0.221    -0.206  0.8840 -0.1715  0.4349
    43 C(13)  Bbb    -0.0044    -0.593    -0.212    -0.198  0.2749  0.9431 -0.1869
              Bcc     0.0090     1.211     0.432     0.404 -0.3781  0.2847  0.8809
 
              Baa    -0.0164    -0.634    -0.226    -0.212 -0.0745  0.0463  0.9961
    44 N(14)  Bbb     0.0068     0.263     0.094     0.088  0.0125  0.9989 -0.0455
              Bcc     0.0096     0.371     0.132     0.124  0.9971 -0.0091  0.0750
 
              Baa    -0.0010    -0.174    -0.062    -0.058 -0.0557  0.0255  0.9981
    45 B(11)  Bbb    -0.0001    -0.019    -0.007    -0.006  0.9943  0.0923  0.0532
              Bcc     0.0011     0.193     0.069     0.065 -0.0908  0.9954 -0.0305
 
              Baa    -0.0026    -1.317    -0.470    -0.439  0.4831 -0.1446  0.8635
    46 F(19)  Bbb    -0.0004    -0.194    -0.069    -0.065 -0.2568  0.9195  0.2977
              Bcc     0.0030     1.511     0.539     0.504  0.8370  0.3656 -0.4071
 
              Baa    -0.0046    -2.330    -0.831    -0.777 -0.0553 -0.4745  0.8785
    47 F(19)  Bbb    -0.0024    -1.186    -0.423    -0.396 -0.5195  0.7651  0.3805
              Bcc     0.0070     3.516     1.255     1.173  0.8527  0.4353  0.2888
 
              Baa    -0.0004    -0.237    -0.085    -0.079  0.6856  0.2020  0.6994
    48 H(1)   Bbb     0.0001     0.028     0.010     0.009 -0.6032 -0.3803  0.7011
              Bcc     0.0004     0.209     0.075     0.070 -0.4076  0.9025  0.1388
 
              Baa    -0.0003    -0.134    -0.048    -0.045 -0.0925  0.9954 -0.0261
    49 H(1)   Bbb    -0.0001    -0.058    -0.021    -0.019  0.0059  0.0267  0.9996
              Bcc     0.0004     0.192     0.069     0.064  0.9957  0.0923 -0.0084
 
              Baa    -0.0004    -0.233    -0.083    -0.078  0.7403  0.1069 -0.6637
    50 H(1)   Bbb     0.0000     0.015     0.005     0.005  0.5907  0.3681  0.7181
              Bcc     0.0004     0.218     0.078     0.073 -0.3211  0.9236 -0.2093
 
              Baa    -0.0005    -0.293    -0.104    -0.098 -0.0830  0.9958 -0.0384
    51 H(1)   Bbb    -0.0002    -0.132    -0.047    -0.044  0.0710  0.0444  0.9965
              Bcc     0.0008     0.424     0.151     0.142  0.9940  0.0800 -0.0744
 
              Baa    -0.0047    -2.507    -0.895    -0.836  0.9463 -0.3200  0.0466
    52 H(1)   Bbb    -0.0010    -0.532    -0.190    -0.177  0.0036  0.1545  0.9880
              Bcc     0.0057     3.039     1.084     1.014  0.3234  0.9347 -0.1474
 
              Baa    -0.0041    -2.188    -0.781    -0.730  0.0101  0.9917 -0.1279
    53 H(1)   Bbb    -0.0013    -0.680    -0.243    -0.227  0.0222  0.1277  0.9916
              Bcc     0.0054     2.868     1.023     0.957  0.9997 -0.0128 -0.0208
 
              Baa    -0.0037    -1.957    -0.698    -0.653  0.5489  0.8104 -0.2049
    54 H(1)   Bbb    -0.0021    -1.123    -0.401    -0.375  0.1712  0.1309  0.9765
              Bcc     0.0058     3.081     1.099     1.028  0.8182 -0.5711 -0.0669
 
              Baa    -0.0048    -2.587    -0.923    -0.863  0.2952  0.1302  0.9465
    55 H(1)   Bbb     0.0019     0.994     0.355     0.331 -0.5721  0.8175  0.0660
              Bcc     0.0030     1.593     0.568     0.531  0.7652  0.5610 -0.3158
 
              Baa    -0.0036    -1.904    -0.679    -0.635  0.2786  0.8867  0.3688
    56 H(1)   Bbb    -0.0031    -1.680    -0.600    -0.561 -0.1704 -0.3323  0.9276
              Bcc     0.0067     3.584     1.279     1.196  0.9452 -0.3213  0.0585
 
              Baa    -0.0005    -0.276    -0.099    -0.092 -0.1871  0.8798 -0.4369
    57 H(1)   Bbb    -0.0002    -0.097    -0.035    -0.032  0.8198 -0.1052 -0.5629
              Bcc     0.0007     0.374     0.133     0.125  0.5412  0.4635  0.7016
 
              Baa    -0.0001    -0.064    -0.023    -0.021 -0.4775  0.8430 -0.2479
    58 H(1)   Bbb    -0.0001    -0.061    -0.022    -0.020 -0.4059  0.0386  0.9131
              Bcc     0.0002     0.125     0.045     0.042  0.7793  0.5366  0.3237
 
              Baa    -0.0001    -0.070    -0.025    -0.024  0.5140 -0.1488  0.8448
    59 H(1)   Bbb    -0.0001    -0.061    -0.022    -0.020 -0.3222  0.8792  0.3510
              Bcc     0.0002     0.132     0.047     0.044  0.7950  0.4526 -0.4040
 
              Baa    -0.0004    -0.239    -0.085    -0.080 -0.2048  0.9552  0.2139
    60 H(1)   Bbb    -0.0002    -0.126    -0.045    -0.042  0.7585  0.0167  0.6515
              Bcc     0.0007     0.365     0.130     0.122 -0.6187 -0.2956  0.7279
 
              Baa    -0.0006    -0.339    -0.121    -0.113 -0.2543 -0.4419  0.8603
    61 H(1)   Bbb    -0.0003    -0.165    -0.059    -0.055 -0.3962  0.8590  0.3242
              Bcc     0.0009     0.504     0.180     0.168  0.8822  0.2584  0.3935
 
              Baa    -0.0006    -0.332    -0.118    -0.111  0.1834  0.5265  0.8302
    62 H(1)   Bbb    -0.0003    -0.183    -0.065    -0.061 -0.3365  0.8271 -0.4502
              Bcc     0.0010     0.515     0.184     0.172  0.9237  0.1968 -0.3289
 
              Baa    -0.0005    -0.244    -0.087    -0.082  0.4048  0.9017 -0.1522
    63 H(1)   Bbb    -0.0004    -0.217    -0.078    -0.073 -0.0192  0.1748  0.9844
              Bcc     0.0009     0.462     0.165     0.154  0.9142 -0.3956  0.0881
 
              Baa    -0.0007    -0.348    -0.124    -0.116 -0.1209 -0.0652  0.9905
    64 H(1)   Bbb    -0.0004    -0.212    -0.076    -0.071  0.4140  0.9036  0.1100
              Bcc     0.0010     0.560     0.200     0.187  0.9022 -0.4234  0.0823
 
              Baa    -0.0009    -0.476    -0.170    -0.159  0.2532 -0.4669  0.8473
    65 H(1)   Bbb    -0.0008    -0.415    -0.148    -0.139 -0.5399  0.6586  0.5242
              Bcc     0.0017     0.891     0.318     0.297  0.8027  0.5902  0.0854
 
              Baa    -0.0025    -1.333    -0.476    -0.445  0.8182  0.5421  0.1914
    66 H(1)   Bbb    -0.0006    -0.319    -0.114    -0.106 -0.3137  0.1420  0.9388
              Bcc     0.0031     1.652     0.590     0.551 -0.4818  0.8282 -0.2862
 
              Baa    -0.0004    -0.193    -0.069    -0.064 -0.4051 -0.2412  0.8819
    67 H(1)   Bbb    -0.0003    -0.169    -0.060    -0.056  0.2381  0.9035  0.3565
              Bcc     0.0007     0.362     0.129     0.121  0.8827 -0.3544  0.3085
 
              Baa    -0.0002    -0.125    -0.045    -0.042 -0.2400  0.0608  0.9689
    68 H(1)   Bbb     0.0001     0.033     0.012     0.011 -0.6665  0.7153 -0.2100
              Bcc     0.0002     0.092     0.033     0.031  0.7058  0.6962  0.1312
 
              Baa    -0.0007    -0.374    -0.133    -0.125  0.6697 -0.4594  0.5835
    69 H(1)   Bbb    -0.0001    -0.061    -0.022    -0.020 -0.5118  0.2839  0.8108
              Bcc     0.0008     0.435     0.155     0.145  0.5381  0.8417  0.0450
 
              Baa    -0.0003    -0.174    -0.062    -0.058  0.0860 -0.0388  0.9955
    70 H(1)   Bbb    -0.0001    -0.074    -0.026    -0.025  0.9949  0.0554 -0.0837
              Bcc     0.0005     0.248     0.089     0.083 -0.0519  0.9977  0.0434
 
              Baa    -0.0005    -0.243    -0.087    -0.081 -0.6162 -0.2719  0.7392
    71 H(1)   Bbb    -0.0004    -0.234    -0.083    -0.078  0.5927  0.4580  0.6625
              Bcc     0.0009     0.477     0.170     0.159 -0.5187  0.8463 -0.1210
 

 ---------------------------------------------------------------------------------

 No NMR shielding tensors so no spin-rotation constants.
 Leave Link  601 at Sat Oct 25 01:26:10 2025, MaxMem= 30870077440 cpu:             246.3 elap:               4.4
 (Enter /public/software/gauss/g16/l9999.exe)
 1\1\GINC-CU056\SP\UM062X\def2TZVPP\C33H24B1F2N5O6(1-,2)\BAIDING\25-Oct
 -2025\0\\#p M062X/DEF2TZVPP scrf=(solvent=water) em=GD3\\Energy calcul
 ation for BNP_23NO2_reduced\\-1,2\C,0,-2.858786,-3.668671,0.117666\C,0
 ,-1.856261,-2.556877,0.055467\C,0,-0.487814,-2.73929,0.037399\C,0,0.14
 356,-1.466854,-0.028116\C,0,1.541897,-1.158327,-0.082746\C,0,2.523823,
 -2.099522,0.019201\C,0,3.94677,-1.858277,-0.038085\C,0,4.534049,-0.562
 135,-0.162372\C,0,5.896172,-0.404777,-0.229236\C,0,6.774159,-1.516402,
 -0.178307\N,0,8.117395,-1.312607,-0.524746\O,0,8.597868,-0.136398,-0.4
 7129\O,0,8.821016,-2.285641,-0.919555\C,0,6.201099,-2.806909,0.037983\
 N,0,6.966177,-3.953304,0.421206\O,0,8.027809,-3.791969,1.058771\O,0,6.
 51815,-5.095047,0.147541\C,0,4.813675,-2.955034,0.067159\N,0,-0.82973,
 -0.50773,-0.048534\C,0,-2.073908,-1.131692,-0.000432\C,0,-3.247327,-0.
 366904,-0.028812\C,0,-4.572741,-1.057487,-0.011791\C,0,-5.152903,-1.50
 5071,-1.20835\C,0,-6.383459,-2.152695,-1.198277\C,0,-7.022586,-2.34936
 8,0.025812\N,0,-8.313249,-3.032302,0.045858\O,0,-8.873146,-3.20158,1.1
 33986\O,0,-8.794369,-3.413989,-1.026074\C,0,-6.470605,-1.916858,1.2315
 99\C,0,-5.241234,-1.267265,1.203912\C,0,-3.197393,1.041067,-0.085676\C
 ,0,-4.248627,2.006227,-0.228485\C,0,-5.732124,1.806603,-0.313679\C,0,-
 3.6237,3.240733,-0.291204\C,0,-2.226525,3.062881,-0.164735\C,0,-1.3095
 96,4.177893,-0.158572\C,0,-0.011503,4.229552,0.230786\C,0,0.841324,5.4
 17113,0.208101\C,0,0.447349,6.658568,-0.335985\C,0,1.310526,7.749662,-
 0.318009\C,0,2.589811,7.634467,0.238252\C,0,2.99909,6.412066,0.775368\
 C,0,2.135929,5.318237,0.758368\N,0,-1.972389,1.720439,-0.050251\B,0,-0
 .591914,1.020932,0.030776\F,0,0.229586,1.43181,-1.028098\F,0,0.046662,
 1.323628,1.249331\H,0,-3.478128,-3.712949,-0.78356\H,0,-2.338062,-4.62
 4562,0.216414\H,0,-3.538176,-3.561655,0.968479\H,0,0.022706,-3.692096,
 0.055025\H,0,1.803563,-0.116639,-0.226055\H,0,2.239614,-3.140736,0.152
 452\H,0,3.903168,0.317326,-0.223496\H,0,6.329782,0.576496,-0.372088\H,
 0,4.409266,-3.946143,0.235678\H,0,-4.639187,-1.343941,-2.149759\H,0,-6
 .839867,-2.50024,-2.116031\H,0,-6.992688,-2.086303,2.164455\H,0,-4.795
 775,-0.922696,2.130701\H,0,-6.015906,1.174016,-1.160117\H,0,-6.138442,
 1.337613,0.587565\H,0,-6.221524,2.776036,-0.438689\H,0,-4.111032,4.200
 69,-0.400045\H,0,-1.79401,5.09685,-0.480367\H,0,0.458763,3.339163,0.63
 0655\H,0,-0.53584,6.770679,-0.781818\H,0,0.987365,8.695586,-0.742742\H
 ,0,3.259684,8.488964,0.24803\H,0,3.990621,6.309859,1.206427\H,0,2.4585
 44,4.368686,1.176934\\Version=ES64L-G16RevA.03\State=2-A\HF=-2221.6462
 453\S2=0.797902\S2-1=0.\S2A=0.751459\RMSD=5.175e-09\Dipole=-14.5051944
 ,4.5854615,0.1418867\Quadrupole=-172.1959686,77.7810279,94.4149408,50.
 5960446,9.8678024,-1.6735866\PG=C01 [X(C33H24B1F2N5O6)]\\@


 A MAN BEGINS CUTTING HIS WISDOM TEETH THE 1ST
 TIME HE BITES OFF MORE THAN HE CAN CHEW.
 Job cpu time:       1 days 19 hours 12 minutes 18.3 seconds.
 Elapsed time:       0 days  0 hours 40 minutes 58.5 seconds.
 File lengths (MBytes):  RWF=   3440 Int=      0 D2E=      0 Chk=    224 Scr=      1
 Normal termination of Gaussian 16 at Sat Oct 25 01:26:11 2025.
