 Entering Gaussian System, Link 0=g16
 Input=BNP_24NO2_NO2_reduced_sp.gjf
 Output=BNP_24NO2_NO2_reduced_sp.log
 Initial command:
 /public/software/gauss/g16/l1.exe "/public/home/baiding/1024_sp/tmp_BNP_24NO2_NO2_reduced_sp_1526250/Gau-2940999.inp" -scrdir="/public/home/baiding/1024_sp/tmp_BNP_24NO2_NO2_reduced_sp_1526250/"
 Entering Link 1 = /public/software/gauss/g16/l1.exe PID=   2941000.
  
 Copyright (c) 1988,1990,1992,1993,1995,1998,2003,2009,2016,
            Gaussian, Inc.  All Rights Reserved.
  
 This is part of the Gaussian(R) 16 program.  It is based on
 the Gaussian(R) 09 system (copyright 2009, Gaussian, Inc.),
 the Gaussian(R) 03 system (copyright 2003, Gaussian, Inc.),
 the Gaussian(R) 98 system (copyright 1998, Gaussian, Inc.),
 the Gaussian(R) 94 system (copyright 1995, Gaussian, Inc.),
 the Gaussian 92(TM) system (copyright 1992, Gaussian, Inc.),
 the Gaussian 90(TM) system (copyright 1990, Gaussian, Inc.),
 the Gaussian 88(TM) system (copyright 1988, Gaussian, Inc.),
 the Gaussian 86(TM) system (copyright 1986, Carnegie Mellon
 University), and the Gaussian 82(TM) system (copyright 1983,
 Carnegie Mellon University). Gaussian is a federally registered
 trademark of Gaussian, Inc.
  
 This software contains proprietary and confidential information,
 including trade secrets, belonging to Gaussian, Inc.
  
 This software is provided under written license and may be
 used, copied, transmitted, or stored only in accord with that
 written license.
  
 The following legend is applicable only to US Government
 contracts under FAR:
  
                    RESTRICTED RIGHTS LEGEND
  
 Use, reproduction and disclosure by the US Government is
 subject to restrictions as set forth in subparagraphs (a)
 and (c) of the Commercial Computer Software - Restricted
 Rights clause in FAR 52.227-19.
  
 Gaussian, Inc.
 340 Quinnipiac St., Bldg. 40, Wallingford CT 06492
  
  
 ---------------------------------------------------------------
 Warning -- This program may not be used in any manner that
 competes with the business of Gaussian, Inc. or will provide
 assistance to any competitor of Gaussian, Inc.  The licensee
 of this program is prohibited from giving any competitor of
 Gaussian, Inc. access to this program.  By using this program,
 the user acknowledges that Gaussian, Inc. is engaged in the
 business of creating and licensing software in the field of
 computational chemistry and represents and warrants to the
 licensee that it is not a competitor of Gaussian, Inc. and that
 it will not use this program in any manner prohibited above.
 ---------------------------------------------------------------
  

 Cite this work as:
 Gaussian 16, Revision A.03,
 M. J. Frisch, G. W. Trucks, H. B. Schlegel, G. E. Scuseria, 
 M. A. Robb, J. R. Cheeseman, G. Scalmani, V. Barone, 
 G. A. Petersson, H. Nakatsuji, X. Li, M. Caricato, A. V. Marenich, 
 J. Bloino, B. G. Janesko, R. Gomperts, B. Mennucci, H. P. Hratchian, 
 J. V. Ortiz, A. F. Izmaylov, J. L. Sonnenberg, D. Williams-Young, 
 F. Ding, F. Lipparini, F. Egidi, J. Goings, B. Peng, A. Petrone, 
 T. Henderson, D. Ranasinghe, V. G. Zakrzewski, J. Gao, N. Rega, 
 G. Zheng, W. Liang, M. Hada, M. Ehara, K. Toyota, R. Fukuda, 
 J. Hasegawa, M. Ishida, T. Nakajima, Y. Honda, O. Kitao, H. Nakai, 
 T. Vreven, K. Throssell, J. A. Montgomery, Jr., J. E. Peralta, 
 F. Ogliaro, M. J. Bearpark, J. J. Heyd, E. N. Brothers, K. N. Kudin, 
 V. N. Staroverov, T. A. Keith, R. Kobayashi, J. Normand, 
 K. Raghavachari, A. P. Rendell, J. C. Burant, S. S. Iyengar, 
 J. Tomasi, M. Cossi, J. M. Millam, M. Klene, C. Adamo, R. Cammi, 
 J. W. Ochterski, R. L. Martin, K. Morokuma, O. Farkas, 
 J. B. Foresman, and D. J. Fox, Gaussian, Inc., Wallingford CT, 2016.
 
 ******************************************
 Gaussian 16:  ES64L-G16RevA.03 25-Dec-2016
                25-Oct-2025 
 ******************************************
 %nprocshared=64
 Will use up to   64 processors via shared memory.
 %mem=230GB
 %chk=BNP_24NO2_NO2_reduced_sp.chk
 ----------------------------------------------
 #p M062X/DEF2TZVPP scrf=(solvent=water) em=GD3
 ----------------------------------------------
 1/38=1,172=1/1;
 2/12=2,17=6,18=5,40=1/2;
 3/5=44,7=202,11=2,25=1,30=1,70=2201,72=1,74=-55,124=31/1,2,3;
 4//1;
 5/5=2,38=5,53=1/2;
 6/7=2,8=2,9=2,10=2,28=1/1;
 99/5=1,9=1/99;
 Leave Link    1 at Sat Oct 25 02:38:31 2025, MaxMem= 30870077440 cpu:              21.4 elap:               0.3
 (Enter /public/software/gauss/g16/l101.exe)
 --------------------------------------------
 Energy calculation for BNP_24NO2_NO2_reduced
 --------------------------------------------
 Symbolic Z-matrix:
 Charge = -1 Multiplicity = 2
 C                    -4.38746  -3.15913   0.28774 
 C                    -3.0485   -2.49633   0.17172 
 C                    -1.83936  -3.1573    0.2207 
 C                    -0.78738  -2.20683   0.07479 
 C                     0.61701  -2.37654   0.03948 
 C                     1.27662  -3.5547    0.31086 
 C                     2.67609  -3.83441   0.26023 
 C                     3.02807  -5.2228    0.26102 
 C                     4.2984   -5.69254   0.04437 
 C                     5.33899  -4.76239  -0.18539 
 N                     6.66672  -5.21341  -0.42979 
 O                     6.88711  -6.4442   -0.4384 
 O                     7.5733   -4.3766   -0.63477 
 C                     5.08445  -3.39601  -0.13874 
 C                     3.79851  -2.93454   0.11814 
 N                     3.72399  -1.50564   0.34058 
 O                     4.53793  -0.76555  -0.24608 
 O                     2.88704  -1.0585    1.14361 
 N                    -1.36364  -0.96282  -0.05769 
 C                    -2.74006  -1.0898    0. 
 C                    -3.55699   0.0506   -0.07629 
 C                    -5.04222  -0.09576  -0.04941 
 C                    -5.74042  -0.48389  -1.20442 
 C                    -7.1239   -0.62088  -1.18608 
 C                    -7.80241  -0.37135   0.00717 
 N                    -9.25374  -0.51572   0.03662 
 O                    -9.84712  -0.29523   1.09815 
 O                    -9.83418  -0.85291  -1.00111 
 C                    -7.13874   0.01183   1.17319 
 C                    -5.75601   0.1511    1.13474 
 C                    -2.97929   1.34447  -0.16892 
 C                    -3.58955   2.63061  -0.35324 
 C                    -5.03819   2.9924   -0.49975 
 C                    -2.54761   3.54484  -0.39685 
 C                    -1.31931   2.86392  -0.23548 
 C                    -0.05302   3.53608  -0.20372 
 C                     1.19037   3.04092   0.06632 
 C                     2.42948   3.78991   0.05918 
 C                     3.63423   3.07655   0.28851 
 C                     4.86171   3.71404   0.29719 
 C                     4.90868   5.09683   0.07605 
 N                     6.17899   5.77132   0.08552 
 O                     7.2101    5.10887   0.29756 
 O                     6.20979   6.99813  -0.11817 
 C                     3.73904   5.83658  -0.15525 
 C                     2.51901   5.18759  -0.16283 
 N                    -1.59813   1.5177   -0.11019 
 B                    -0.58356   0.36392  -0.00627 
 F                     0.33333   0.41884  -1.07318 
 F                     0.13031   0.43734   1.20853 
 H                    -4.96014  -3.09504  -0.643 
 H                    -4.25234  -4.21728   0.52667 
 H                    -5.00168  -2.70844   1.07322 
 H                    -1.70477  -4.22504   0.33006 
 H                     1.18     -1.49781  -0.23301 
 H                     0.66828  -4.42735   0.53799 
 H                     2.224    -5.93763   0.40277 
 H                     4.50741  -6.75408   0.03375 
 H                     5.89414  -2.6897   -0.25439 
 H                    -5.19562  -0.67415  -2.12272 
 H                    -7.66915  -0.91381  -2.07403 
 H                    -7.6946    0.19461   2.08379 
 H                    -5.22267   0.44892   2.03097 
 H                    -5.53458   2.40936  -1.2811 
 H                    -5.60178   2.8336    0.42533 
 H                    -5.12282   4.05027  -0.76309 
 H                    -2.64214   4.6154   -0.52579 
 H                    -0.1537    4.59647  -0.42346 
 H                     1.30382   1.99729   0.32172 
 H                     3.59157   2.00225   0.44739 
 H                     5.7763    3.16128   0.46987 
 H                     3.80093   6.90427  -0.32275 
 H                     1.62201   5.77086  -0.33875 
 
 ITRead=  0  0  0  0  0  0  0  0  0  0  0  0  0  0  0  0  0  0  0  0
 ITRead=  0  0  0  0  0  0  0  0  0  0  0  0  0  0  0  0  0  0  0  0
 ITRead=  0  0  0  0  0  0  0  0  0  0  0  0  0  0  0  0  0  0  0  0
 ITRead=  0  0  0  0  0  0  0  0  0  0  0  0  0
 MicOpt= -1 -1 -1 -1 -1 -1 -1 -1 -1 -1 -1 -1 -1 -1 -1 -1 -1 -1 -1 -1
 MicOpt= -1 -1 -1 -1 -1 -1 -1 -1 -1 -1 -1 -1 -1 -1 -1 -1 -1 -1 -1 -1
 MicOpt= -1 -1 -1 -1 -1 -1 -1 -1 -1 -1 -1 -1 -1 -1 -1 -1 -1 -1 -1 -1
 MicOpt= -1 -1 -1 -1 -1 -1 -1 -1 -1 -1 -1 -1 -1
 NAtoms=     73 NQM=       73 NQMF=       0 NMMI=      0 NMMIF=      0
                NMic=       0 NMicF=      0.
                    Isotopes and Nuclear Properties:
 (Nuclear quadrupole moments (NQMom) in fm**2, nuclear magnetic moments (NMagM)
  in nuclear magnetons)

  Atom         1           2           3           4           5           6           7           8           9          10
 IAtWgt=          12          12          12          12          12          12          12          12          12          12
 AtmWgt=  12.0000000  12.0000000  12.0000000  12.0000000  12.0000000  12.0000000  12.0000000  12.0000000  12.0000000  12.0000000
 NucSpn=           0           0           0           0           0           0           0           0           0           0
 AtZEff=  -0.0000000  -0.0000000  -0.0000000  -0.0000000  -0.0000000  -0.0000000  -0.0000000  -0.0000000  -0.0000000  -0.0000000
 NQMom=    0.0000000   0.0000000   0.0000000   0.0000000   0.0000000   0.0000000   0.0000000   0.0000000   0.0000000   0.0000000
 NMagM=    0.0000000   0.0000000   0.0000000   0.0000000   0.0000000   0.0000000   0.0000000   0.0000000   0.0000000   0.0000000
 AtZNuc=   6.0000000   6.0000000   6.0000000   6.0000000   6.0000000   6.0000000   6.0000000   6.0000000   6.0000000   6.0000000

  Atom        11          12          13          14          15          16          17          18          19          20
 IAtWgt=          14          16          16          12          12          14          16          16          14          12
 AtmWgt=  14.0030740  15.9949146  15.9949146  12.0000000  12.0000000  14.0030740  15.9949146  15.9949146  14.0030740  12.0000000
 NucSpn=           2           0           0           0           0           2           0           0           2           0
 AtZEff=  -0.0000000  -0.0000000  -0.0000000  -0.0000000  -0.0000000  -0.0000000  -0.0000000  -0.0000000  -0.0000000  -0.0000000
 NQMom=    2.0440000   0.0000000   0.0000000   0.0000000   0.0000000   2.0440000   0.0000000   0.0000000   2.0440000   0.0000000
 NMagM=    0.4037610   0.0000000   0.0000000   0.0000000   0.0000000   0.4037610   0.0000000   0.0000000   0.4037610   0.0000000
 AtZNuc=   7.0000000   8.0000000   8.0000000   6.0000000   6.0000000   7.0000000   8.0000000   8.0000000   7.0000000   6.0000000

  Atom        21          22          23          24          25          26          27          28          29          30
 IAtWgt=          12          12          12          12          12          14          16          16          12          12
 AtmWgt=  12.0000000  12.0000000  12.0000000  12.0000000  12.0000000  14.0030740  15.9949146  15.9949146  12.0000000  12.0000000
 NucSpn=           0           0           0           0           0           2           0           0           0           0
 AtZEff=  -0.0000000  -0.0000000  -0.0000000  -0.0000000  -0.0000000  -0.0000000  -0.0000000  -0.0000000  -0.0000000  -0.0000000
 NQMom=    0.0000000   0.0000000   0.0000000   0.0000000   0.0000000   2.0440000   0.0000000   0.0000000   0.0000000   0.0000000
 NMagM=    0.0000000   0.0000000   0.0000000   0.0000000   0.0000000   0.4037610   0.0000000   0.0000000   0.0000000   0.0000000
 AtZNuc=   6.0000000   6.0000000   6.0000000   6.0000000   6.0000000   7.0000000   8.0000000   8.0000000   6.0000000   6.0000000

  Atom        31          32          33          34          35          36          37          38          39          40
 IAtWgt=          12          12          12          12          12          12          12          12          12          12
 AtmWgt=  12.0000000  12.0000000  12.0000000  12.0000000  12.0000000  12.0000000  12.0000000  12.0000000  12.0000000  12.0000000
 NucSpn=           0           0           0           0           0           0           0           0           0           0
 AtZEff=  -0.0000000  -0.0000000  -0.0000000  -0.0000000  -0.0000000  -0.0000000  -0.0000000  -0.0000000  -0.0000000  -0.0000000
 NQMom=    0.0000000   0.0000000   0.0000000   0.0000000   0.0000000   0.0000000   0.0000000   0.0000000   0.0000000   0.0000000
 NMagM=    0.0000000   0.0000000   0.0000000   0.0000000   0.0000000   0.0000000   0.0000000   0.0000000   0.0000000   0.0000000
 AtZNuc=   6.0000000   6.0000000   6.0000000   6.0000000   6.0000000   6.0000000   6.0000000   6.0000000   6.0000000   6.0000000

  Atom        41          42          43          44          45          46          47          48          49          50
 IAtWgt=          12          14          16          16          12          12          14          11          19          19
 AtmWgt=  12.0000000  14.0030740  15.9949146  15.9949146  12.0000000  12.0000000  14.0030740  11.0093053  18.9984033  18.9984033
 NucSpn=           0           2           0           0           0           0           2           3           1           1
 AtZEff=  -0.0000000  -0.0000000  -0.0000000  -0.0000000  -0.0000000  -0.0000000  -0.0000000  -0.0000000  -0.0000000  -0.0000000
 NQMom=    0.0000000   2.0440000   0.0000000   0.0000000   0.0000000   0.0000000   2.0440000   4.0590000   0.0000000   0.0000000
 NMagM=    0.0000000   0.4037610   0.0000000   0.0000000   0.0000000   0.0000000   0.4037610   2.6886370   2.6288670   2.6288670
 AtZNuc=   6.0000000   7.0000000   8.0000000   8.0000000   6.0000000   6.0000000   7.0000000   5.0000000   9.0000000   9.0000000

  Atom        51          52          53          54          55          56          57          58          59          60
 IAtWgt=           1           1           1           1           1           1           1           1           1           1
 AtmWgt=   1.0078250   1.0078250   1.0078250   1.0078250   1.0078250   1.0078250   1.0078250   1.0078250   1.0078250   1.0078250
 NucSpn=           1           1           1           1           1           1           1           1           1           1
 AtZEff=  -0.0000000  -0.0000000  -0.0000000  -0.0000000  -0.0000000  -0.0000000  -0.0000000  -0.0000000  -0.0000000  -0.0000000
 NQMom=    0.0000000   0.0000000   0.0000000   0.0000000   0.0000000   0.0000000   0.0000000   0.0000000   0.0000000   0.0000000
 NMagM=    2.7928460   2.7928460   2.7928460   2.7928460   2.7928460   2.7928460   2.7928460   2.7928460   2.7928460   2.7928460
 AtZNuc=   1.0000000   1.0000000   1.0000000   1.0000000   1.0000000   1.0000000   1.0000000   1.0000000   1.0000000   1.0000000

  Atom        61          62          63          64          65          66          67          68          69          70
 IAtWgt=           1           1           1           1           1           1           1           1           1           1
 AtmWgt=   1.0078250   1.0078250   1.0078250   1.0078250   1.0078250   1.0078250   1.0078250   1.0078250   1.0078250   1.0078250
 NucSpn=           1           1           1           1           1           1           1           1           1           1
 AtZEff=  -0.0000000  -0.0000000  -0.0000000  -0.0000000  -0.0000000  -0.0000000  -0.0000000  -0.0000000  -0.0000000  -0.0000000
 NQMom=    0.0000000   0.0000000   0.0000000   0.0000000   0.0000000   0.0000000   0.0000000   0.0000000   0.0000000   0.0000000
 NMagM=    2.7928460   2.7928460   2.7928460   2.7928460   2.7928460   2.7928460   2.7928460   2.7928460   2.7928460   2.7928460
 AtZNuc=   1.0000000   1.0000000   1.0000000   1.0000000   1.0000000   1.0000000   1.0000000   1.0000000   1.0000000   1.0000000

  Atom        71          72          73
 IAtWgt=           1           1           1
 AtmWgt=   1.0078250   1.0078250   1.0078250
 NucSpn=           1           1           1
 AtZEff=  -0.0000000  -0.0000000  -0.0000000
 NQMom=    0.0000000   0.0000000   0.0000000
 NMagM=    2.7928460   2.7928460   2.7928460
 AtZNuc=   1.0000000   1.0000000   1.0000000
 Leave Link  101 at Sat Oct 25 02:38:31 2025, MaxMem= 30870077440 cpu:               5.9 elap:               0.1
 (Enter /public/software/gauss/g16/l202.exe)
 Stoichiometry    C33H23BF2N6O8(1-,2)
 Framework group  C1[X(C33H23BF2N6O8)]
 Deg. of freedom   213
 Full point group                 C1      NOp   1
 Largest Abelian subgroup         C1      NOp   1
 Largest concise Abelian subgroup C1      NOp   1
                         Standard orientation:                         
 ---------------------------------------------------------------------
 Center     Atomic      Atomic             Coordinates (Angstroms)
 Number     Number       Type             X           Y           Z
 ---------------------------------------------------------------------
      1          6           0       -4.387464   -3.159129    0.287737
      2          6           0       -3.048497   -2.496328    0.171715
      3          6           0       -1.839357   -3.157296    0.220702
      4          6           0       -0.787380   -2.206833    0.074791
      5          6           0        0.617005   -2.376540    0.039475
      6          6           0        1.276621   -3.554699    0.310858
      7          6           0        2.676085   -3.834405    0.260226
      8          6           0        3.028073   -5.222797    0.261016
      9          6           0        4.298404   -5.692538    0.044369
     10          6           0        5.338989   -4.762394   -0.185389
     11          7           0        6.666716   -5.213409   -0.429787
     12          8           0        6.887109   -6.444202   -0.438395
     13          8           0        7.573296   -4.376598   -0.634769
     14          6           0        5.084447   -3.396014   -0.138739
     15          6           0        3.798505   -2.934536    0.118141
     16          7           0        3.723985   -1.505635    0.340580
     17          8           0        4.537926   -0.765548   -0.246079
     18          8           0        2.887043   -1.058502    1.143614
     19          7           0       -1.363636   -0.962819   -0.057694
     20          6           0       -2.740055   -1.089800    0.000003
     21          6           0       -3.556989    0.050604   -0.076289
     22          6           0       -5.042216   -0.095764   -0.049413
     23          6           0       -5.740417   -0.483885   -1.204424
     24          6           0       -7.123895   -0.620879   -1.186080
     25          6           0       -7.802408   -0.371346    0.007168
     26          7           0       -9.253740   -0.515718    0.036615
     27          8           0       -9.847122   -0.295229    1.098149
     28          8           0       -9.834181   -0.852913   -1.001107
     29          6           0       -7.138742    0.011832    1.173190
     30          6           0       -5.756011    0.151096    1.134741
     31          6           0       -2.979286    1.344471   -0.168921
     32          6           0       -3.589554    2.630609   -0.353238
     33          6           0       -5.038188    2.992395   -0.499749
     34          6           0       -2.547605    3.544837   -0.396848
     35          6           0       -1.319309    2.863916   -0.235482
     36          6           0       -0.053024    3.536076   -0.203720
     37          6           0        1.190366    3.040918    0.066316
     38          6           0        2.429479    3.789910    0.059181
     39          6           0        3.634225    3.076549    0.288509
     40          6           0        4.861710    3.714039    0.297190
     41          6           0        4.908684    5.096832    0.076051
     42          7           0        6.178989    5.771321    0.085519
     43          8           0        7.210100    5.108871    0.297562
     44          8           0        6.209793    6.998130   -0.118174
     45          6           0        3.739042    5.836582   -0.155249
     46          6           0        2.519011    5.187589   -0.162830
     47          7           0       -1.598132    1.517695   -0.110190
     48          5           0       -0.583557    0.363917   -0.006274
     49          9           0        0.333334    0.418839   -1.073179
     50          9           0        0.130312    0.437340    1.208533
     51          1           0       -4.960142   -3.095038   -0.643003
     52          1           0       -4.252336   -4.217278    0.526673
     53          1           0       -5.001678   -2.708438    1.073215
     54          1           0       -1.704770   -4.225043    0.330061
     55          1           0        1.180005   -1.497805   -0.233011
     56          1           0        0.668279   -4.427351    0.537989
     57          1           0        2.223996   -5.937633    0.402772
     58          1           0        4.507413   -6.754084    0.033750
     59          1           0        5.894135   -2.689696   -0.254393
     60          1           0       -5.195617   -0.674147   -2.122725
     61          1           0       -7.669147   -0.913807   -2.074030
     62          1           0       -7.694604    0.194610    2.083795
     63          1           0       -5.222666    0.448921    2.030965
     64          1           0       -5.534576    2.409355   -1.281103
     65          1           0       -5.601778    2.833601    0.425331
     66          1           0       -5.122823    4.050267   -0.763094
     67          1           0       -2.642138    4.615404   -0.525790
     68          1           0       -0.153699    4.596469   -0.423459
     69          1           0        1.303819    1.997290    0.321720
     70          1           0        3.591572    2.002246    0.447388
     71          1           0        5.776295    3.161283    0.469874
     72          1           0        3.800930    6.904274   -0.322751
     73          1           0        1.622007    5.770857   -0.338753
 ---------------------------------------------------------------------
 Rotational constants (GHZ):           0.0635326           0.0303061           0.0209069
 Leave Link  202 at Sat Oct 25 02:38:31 2025, MaxMem= 30870077440 cpu:               0.2 elap:               0.0
 (Enter /public/software/gauss/g16/l301.exe)
 Standard basis: def2TZVPP (5D, 7F)
 Ernie: Thresh=  0.10000D-02 Tol=  0.10000D-05 Strict=F.
 There are  2145 symmetry adapted cartesian basis functions of A   symmetry.
 There are  1872 symmetry adapted basis functions of A   symmetry.
  1872 basis functions,  2941 primitive gaussians,  2145 cartesian basis functions
   176 alpha electrons      175 beta electrons
       nuclear repulsion energy      5974.7816870258 Hartrees.
 IExCor= 4336 DFT=T Ex+Corr=M062X ExCW=0 ScaHFX=  0.540000
 ScaDFX=  1.000000  1.000000  1.000000  1.000000 ScalE2=  1.000000  1.000000
 IRadAn=      5 IRanWt=     -1 IRanGd=            0 ICorTp=0 IEmpDi=131
 NAtoms=   73 NActive=   73 NUniq=   73 SFac= 1.00D+00 NAtFMM=   60 NAOKFM=T Big=T
 Integral buffers will be    131072 words long.
 Raffenetti 2 integral format.
 Two-electron integral symmetry is turned on.
 R6Disp:  Grimme-D3 Dispersion energy=       -0.0068273129 Hartrees.
 Nuclear repulsion after empirical dispersion term =     5974.7748597129 Hartrees.
 ------------------------------------------------------------------------------
 Polarizable Continuum Model (PCM)
 =================================
 Model                : PCM.
 Atomic radii         : UFF (Universal Force Field).
 Polarization charges : Total charges.
 Charge compensation  : None.
 Solution method      : On-the-fly selection.
 Cavity type          : Scaled VdW (van der Waals Surface) (Alpha=1.100).
 Cavity algorithm     : GePol (No added spheres)
                        Default sphere list used, NSphG=   73.
                        Lebedev-Laikov grids with approx.  5.0 points / Ang**2.
                        Smoothing algorithm: York/Karplus (Gamma=1.0000).
                        Polarization charges: spherical gaussians, with
                                              point-specific exponents (IZeta= 3).
                        Self-potential: point-specific (ISelfS= 7).
                        Self-field    : sphere-specific E.n sum rule (ISelfD= 2).
 Solvent              : Water, Eps=  78.355300 Eps(inf)=   1.777849
 ------------------------------------------------------------------------------
 GePol: Number of generator spheres                  =      73
 GePol: Total number of spheres                      =      73
 GePol: Number of exposed spheres                    =      73 (100.00%)
 GePol: Number of points                             =    5543
 GePol: Average weight of points                     =       0.13
 GePol: Minimum weight of points                     =   0.23D-11
 GePol: Maximum weight of points                     =    0.20577
 GePol: Number of points with low weight             =     309
 GePol: Fraction of low-weight points (<1% of avg)   =       5.57%
 GePol: Cavity surface area                          =    695.237 Ang**2
 GePol: Cavity volume                                =    820.773 Ang**3
 Leave Link  301 at Sat Oct 25 02:38:32 2025, MaxMem= 30870077440 cpu:               3.8 elap:               0.1
 (Enter /public/software/gauss/g16/l302.exe)
 NPDir=0 NMtPBC=     1 NCelOv=     1 NCel=       1 NClECP=     1 NCelD=      1
         NCelK=      1 NCelE2=     1 NClLst=     1 CellRange=     0.0.
 One-electron integrals computed using PRISM.
 One-electron integral symmetry used in STVInt
   1 Symmetry operations used in ECPInt.
 ECPInt:  NShTT=  237016 NPrTT=  702689 LenC2=  147704 LenP2D=  288368.
 LDataN:  DoStor=T MaxTD1= 6 Len=  172
 NBasis=  1872 RedAO= T EigKep=  3.96D-06  NBF=  1872
 NBsUse=  1872 1.00D-06 EigRej= -1.00D+00 NBFU=  1872
 Precomputing XC quadrature grid using
 IXCGrd= 4 IRadAn=           5 IRanWt=          -1 IRanGd=           0 AccXCQ= 0.00D+00.
 Generated NRdTot=       0 NPtTot=           0 NUsed=           0 NTot=          32
 NSgBfM=  1842  1842  1842  1842  1842 MxSgAt=    73 MxSgA2=    73.
 Leave Link  302 at Sat Oct 25 02:38:41 2025, MaxMem= 30870077440 cpu:             599.6 elap:               9.4
 (Enter /public/software/gauss/g16/l303.exe)
 DipDrv:  MaxL=1.
 Leave Link  303 at Sat Oct 25 02:38:42 2025, MaxMem= 30870077440 cpu:              27.8 elap:               0.5
 (Enter /public/software/gauss/g16/l401.exe)
 ExpMin= 6.06D-02 ExpMax= 3.55D+04 ExpMxC= 1.21D+03 IAcc=3 IRadAn=         5 AccDes= 0.00D+00
 Harris functional with IExCor= 1009 and IRadAn=       5 diagonalized for initial guess.
 HarFok:  IExCor= 1009 AccDes= 0.00D+00 IRadAn=         5 IDoV= 1 UseB2=F ITyADJ=14
 ICtDFT=  3500011 ScaDFX=  1.000000  1.000000  1.000000  1.000000
 FoFCou: FMM=F IPFlag=           0 FMFlag=      100000 FMFlg1=        2001
         NFxFlg=           0 DoJE=T BraDBF=F KetDBF=T FulRan=T
         wScrn=  0.000000 ICntrl=       500 IOpCl=  0 I1Cent=   200000004 NGrid=           0
         NMat0=    1 NMatS0=      1 NMatT0=    0 NMatD0=    1 NMtDS0=    0 NMtDT0=    0
 Petite list used in FoFCou.
 Harris En= -2425.04294345281    
 JPrj=0 DoOrth=F DoCkMO=F.
 Initial guess <Sx>= 0.0000 <Sy>= 0.0000 <Sz>= 0.5000 <S**2>= 0.7500 S= 0.5000
 Leave Link  401 at Sat Oct 25 02:38:53 2025, MaxMem= 30870077440 cpu:             691.3 elap:              10.9
 (Enter /public/software/gauss/g16/l502.exe)
 Integral symmetry usage will be decided dynamically.
 UHF open shell SCF:
 Using DIIS extrapolation, IDIIS=  1040.
 NGot= 30870077440 LenX= 30860720245 LenY= 30856117075
 Requested convergence on RMS density matrix=1.00D-08 within 128 cycles.
 Requested convergence on MAX density matrix=1.00D-06.
 Requested convergence on             energy=1.00D-06.
 No special actions if energy rises.
 Fock matrices will be formed incrementally for  20 cycles.

 Cycle   1  Pass 1  IDiag  1:
 FoFJK:  IHMeth= 1 ICntrl=       0 DoSepK=F KAlg= 0 I1Cent=           0 FoldK=F
 IRaf= 580000000 NMat=       1 IRICut=       1 DoRegI=T DoRafI=F ISym2E= 0 IDoP0=0 IntGTp=1.
 FoFCou: FMM=T IPFlag=           0 FMFlag=      100000 FMFlg1=        2001
         NFxFlg=           0 DoJE=F BraDBF=F KetDBF=F FulRan=T
         wScrn=  0.000000 ICntrl=         0 IOpCl=  1 I1Cent=           0 NGrid=           0
         NMat0=    1 NMatS0=      1 NMatT0=    0 NMatD0=    1 NMtDS0=    0 NMtDT0=    0
 Symmetry not used in FoFCou.
 FMM levels:  10  Number of levels for PrismC:   9
 Inv3:  Mode=1 IEnd=    92174547.
 Iteration    1 A*A^-1 deviation from unit magnitude is 1.47D-14 for    321.
 Iteration    1 A*A^-1 deviation from orthogonality  is 5.96D-15 for   2054    749.
 Iteration    1 A^-1*A deviation from unit magnitude is 1.49D-14 for    321.
 Iteration    1 A^-1*A deviation from orthogonality  is 3.97D-15 for   4036    236.
 E= -2424.81370650420    
 DIIS: error= 2.86D-02 at cycle   1 NSaved=   1.
 NSaved= 1 IEnMin= 1 EnMin= -2424.81370650420     IErMin= 1 ErrMin= 2.86D-02
 ErrMax= 2.86D-02  0.00D+00 EMaxC= 1.00D-01 BMatC= 7.66D+00 BMatP= 7.66D+00
 IDIUse=3 WtCom= 7.14D-01 WtEn= 2.86D-01
 Coeff-Com:  0.100D+01
 Coeff-En:   0.100D+01
 Coeff:      0.100D+01
 Gap=     0.077 Goal=   None    Shift=    0.000
 Gap=     0.115 Goal=   None    Shift=    0.000
 GapD=    0.077 DampG=0.500 DampE=0.500 DampFc=0.2500 IDamp=-1.
 Damping current iteration by 2.50D-01
 RMSDP=1.77D-03 MaxDP=3.12D-01              OVMax= 5.01D-01

 Cycle   2  Pass 1  IDiag  1:
 RMSU=  4.42D-04    CP:  1.00D+00
 E= -2425.28994675122     Delta-E=       -0.476240247026 Rises=F Damp=T
 DIIS: error= 1.30D-02 at cycle   2 NSaved=   2.
 NSaved= 2 IEnMin= 2 EnMin= -2425.28994675122     IErMin= 2 ErrMin= 1.30D-02
 ErrMax= 1.30D-02  0.00D+00 EMaxC= 1.00D-01 BMatC= 2.32D+00 BMatP= 7.66D+00
 IDIUse=3 WtCom= 8.70D-01 WtEn= 1.30D-01
 Coeff-Com: -0.904D+00 0.190D+01
 Coeff-En:   0.000D+00 0.100D+01
 Coeff:     -0.786D+00 0.179D+01
 Gap=     0.089 Goal=   None    Shift=    0.000
 Gap=     0.161 Goal=   None    Shift=    0.000
 RMSDP=9.04D-04 MaxDP=1.60D-01 DE=-4.76D-01 OVMax= 3.78D-01

 Cycle   3  Pass 1  IDiag  1:
 RMSU=  6.49D-04    CP:  9.94D-01  2.42D+00
 E= -2426.12592818120     Delta-E=       -0.835981429975 Rises=F Damp=F
 DIIS: error= 4.84D-03 at cycle   3 NSaved=   3.
 NSaved= 3 IEnMin= 3 EnMin= -2426.12592818120     IErMin= 3 ErrMin= 4.84D-03
 ErrMax= 4.84D-03  0.00D+00 EMaxC= 1.00D-01 BMatC= 2.07D-01 BMatP= 2.32D+00
 IDIUse=3 WtCom= 9.52D-01 WtEn= 4.84D-02
 Coeff-Com: -0.348D+00 0.636D+00 0.712D+00
 Coeff-En:   0.000D+00 0.000D+00 0.100D+01
 Coeff:     -0.331D+00 0.605D+00 0.726D+00
 Gap=     0.085 Goal=   None    Shift=    0.000
 Gap=     0.120 Goal=   None    Shift=    0.000
 RMSDP=2.11D-04 MaxDP=3.09D-02 DE=-8.36D-01 OVMax= 3.95D-02

 Cycle   4  Pass 1  IDiag  1:
 RMSU=  2.03D-04    CP:  9.92D-01  2.31D+00  9.68D-01
 E= -2426.16189644718     Delta-E=       -0.035968265986 Rises=F Damp=F
 DIIS: error= 1.45D-03 at cycle   4 NSaved=   4.
 NSaved= 4 IEnMin= 4 EnMin= -2426.16189644718     IErMin= 4 ErrMin= 1.45D-03
 ErrMax= 1.45D-03  0.00D+00 EMaxC= 1.00D-01 BMatC= 3.35D-02 BMatP= 2.07D-01
 IDIUse=3 WtCom= 9.85D-01 WtEn= 1.45D-02
 Coeff-Com: -0.582D-01 0.954D-01 0.308D+00 0.655D+00
 Coeff-En:   0.000D+00 0.000D+00 0.549D-01 0.945D+00
 Coeff:     -0.574D-01 0.941D-01 0.304D+00 0.659D+00
 Gap=     0.090 Goal=   None    Shift=    0.000
 Gap=     0.124 Goal=   None    Shift=    0.000
 RMSDP=7.34D-05 MaxDP=2.65D-02 DE=-3.60D-02 OVMax= 2.76D-02

 Cycle   5  Pass 1  IDiag  1:
 RMSU=  6.76D-05    CP:  9.92D-01  2.31D+00  9.88D-01  8.74D-01
 E= -2426.16891827892     Delta-E=       -0.007021831736 Rises=F Damp=F
 DIIS: error= 4.18D-04 at cycle   5 NSaved=   5.
 NSaved= 5 IEnMin= 5 EnMin= -2426.16891827892     IErMin= 5 ErrMin= 4.18D-04
 ErrMax= 4.18D-04  0.00D+00 EMaxC= 1.00D-01 BMatC= 2.92D-03 BMatP= 3.35D-02
 IDIUse=3 WtCom= 9.96D-01 WtEn= 4.18D-03
 Coeff-Com: -0.120D-01 0.166D-01 0.110D+00 0.315D+00 0.571D+00
 Coeff-En:   0.000D+00 0.000D+00 0.000D+00 0.000D+00 0.100D+01
 Coeff:     -0.119D-01 0.166D-01 0.109D+00 0.313D+00 0.573D+00
 Gap=     0.092 Goal=   None    Shift=    0.000
 Gap=     0.125 Goal=   None    Shift=    0.000
 RMSDP=3.18D-05 MaxDP=8.30D-03 DE=-7.02D-03 OVMax= 1.64D-02

 Cycle   6  Pass 1  IDiag  1:
 RMSU=  2.90D-05    CP:  9.91D-01  2.31D+00  9.81D-01  9.33D-01  9.96D-01
 E= -2426.16974937867     Delta-E=       -0.000831099745 Rises=F Damp=F
 DIIS: error= 2.48D-04 at cycle   6 NSaved=   6.
 NSaved= 6 IEnMin= 6 EnMin= -2426.16974937867     IErMin= 6 ErrMin= 2.48D-04
 ErrMax= 2.48D-04  0.00D+00 EMaxC= 1.00D-01 BMatC= 3.50D-04 BMatP= 2.92D-03
 IDIUse=3 WtCom= 9.98D-01 WtEn= 2.48D-03
 Coeff-Com: -0.112D-04-0.121D-02 0.150D-01 0.633D-01 0.250D+00 0.673D+00
 Coeff-En:   0.000D+00 0.000D+00 0.000D+00 0.000D+00 0.000D+00 0.100D+01
 Coeff:     -0.111D-04-0.121D-02 0.150D-01 0.631D-01 0.249D+00 0.674D+00
 Gap=     0.094 Goal=   None    Shift=    0.000
 Gap=     0.127 Goal=   None    Shift=    0.000
 RMSDP=2.26D-05 MaxDP=1.00D-02 DE=-8.31D-04 OVMax= 1.35D-02

 Cycle   7  Pass 1  IDiag  1:
 RMSU=  1.49D-05    CP:  9.92D-01  2.32D+00  9.88D-01  9.44D-01  1.22D+00
                    CP:  1.19D+00
 E= -2426.16999568686     Delta-E=       -0.000246308196 Rises=F Damp=F
 DIIS: error= 1.20D-04 at cycle   7 NSaved=   7.
 NSaved= 7 IEnMin= 7 EnMin= -2426.16999568686     IErMin= 7 ErrMin= 1.20D-04
 ErrMax= 1.20D-04  0.00D+00 EMaxC= 1.00D-01 BMatC= 1.15D-04 BMatP= 3.50D-04
 IDIUse=3 WtCom= 9.99D-01 WtEn= 1.20D-03
 Coeff-Com:  0.383D-02-0.603D-02-0.276D-01-0.680D-01-0.531D-01 0.323D+00
 Coeff-Com:  0.828D+00
 Coeff-En:   0.000D+00 0.000D+00 0.000D+00 0.000D+00 0.000D+00 0.000D+00
 Coeff-En:   0.100D+01
 Coeff:      0.383D-02-0.602D-02-0.276D-01-0.679D-01-0.530D-01 0.322D+00
 Coeff:      0.828D+00
 Gap=     0.096 Goal=   None    Shift=    0.000
 Gap=     0.128 Goal=   None    Shift=    0.000
 RMSDP=2.10D-05 MaxDP=4.94D-03 DE=-2.46D-04 OVMax= 1.48D-02

 Cycle   8  Pass 1  IDiag  1:
 RMSU=  7.62D-06    CP:  9.92D-01  2.32D+00  9.90D-01  9.75D-01  1.39D+00
                    CP:  1.61D+00  1.53D+00
 E= -2426.17016149411     Delta-E=       -0.000165807247 Rises=F Damp=F
 DIIS: error= 7.37D-05 at cycle   8 NSaved=   8.
 NSaved= 8 IEnMin= 8 EnMin= -2426.17016149411     IErMin= 8 ErrMin= 7.37D-05
 ErrMax= 7.37D-05  0.00D+00 EMaxC= 1.00D-01 BMatC= 3.83D-05 BMatP= 1.15D-04
 IDIUse=1 WtCom= 1.00D+00 WtEn= 0.00D+00
 Coeff-Com:  0.109D-02-0.128D-02-0.134D-01-0.433D-01-0.999D-01-0.111D+00
 Coeff-Com:  0.350D+00 0.918D+00
 Coeff:      0.109D-02-0.128D-02-0.134D-01-0.433D-01-0.999D-01-0.111D+00
 Coeff:      0.350D+00 0.918D+00
 Gap=     0.097 Goal=   None    Shift=    0.000
 Gap=     0.129 Goal=   None    Shift=    0.000
 RMSDP=1.66D-05 MaxDP=4.45D-03 DE=-1.66D-04 OVMax= 1.24D-02

 Cycle   9  Pass 1  IDiag  1:
 RMSU=  4.13D-06    CP:  9.92D-01  2.32D+00  9.92D-01  9.91D-01  1.52D+00
                    CP:  1.91D+00  2.13D+00  1.54D+00
 E= -2426.17024105127     Delta-E=       -0.000079557160 Rises=F Damp=F
 DIIS: error= 5.48D-05 at cycle   9 NSaved=   9.
 NSaved= 9 IEnMin= 9 EnMin= -2426.17024105127     IErMin= 9 ErrMin= 5.48D-05
 ErrMax= 5.48D-05  0.00D+00 EMaxC= 1.00D-01 BMatC= 1.47D-05 BMatP= 3.83D-05
 IDIUse=1 WtCom= 1.00D+00 WtEn= 0.00D+00
 Coeff-Com: -0.764D-03 0.146D-02 0.370D-02 0.353D-02-0.270D-01-0.164D+00
 Coeff-Com: -0.104D+00 0.427D+00 0.860D+00
 Coeff:     -0.764D-03 0.146D-02 0.370D-02 0.353D-02-0.270D-01-0.164D+00
 Coeff:     -0.104D+00 0.427D+00 0.860D+00
 Gap=     0.098 Goal=   None    Shift=    0.000
 Gap=     0.130 Goal=   None    Shift=    0.000
 RMSDP=1.08D-05 MaxDP=2.92D-03 DE=-7.96D-05 OVMax= 8.33D-03

 Cycle  10  Pass 1  IDiag  1:
 RMSU=  2.98D-06    CP:  9.92D-01  2.32D+00  9.93D-01  9.96D-01  1.58D+00
                    CP:  2.08D+00  2.53D+00  2.05D+00  1.54D+00
 E= -2426.17027137435     Delta-E=       -0.000030323085 Rises=F Damp=F
 DIIS: error= 4.20D-05 at cycle  10 NSaved=  10.
 NSaved=10 IEnMin=10 EnMin= -2426.17027137435     IErMin=10 ErrMin= 4.20D-05
 ErrMax= 4.20D-05  0.00D+00 EMaxC= 1.00D-01 BMatC= 5.88D-06 BMatP= 1.47D-05
 IDIUse=1 WtCom= 1.00D+00 WtEn= 0.00D+00
 Coeff-Com: -0.720D-03 0.113D-02 0.694D-02 0.180D-01 0.217D-01-0.541D-01
 Coeff-Com: -0.173D+00-0.985D-01 0.467D+00 0.812D+00
 Coeff:     -0.720D-03 0.113D-02 0.694D-02 0.180D-01 0.217D-01-0.541D-01
 Coeff:     -0.173D+00-0.985D-01 0.467D+00 0.812D+00
 Gap=     0.099 Goal=   None    Shift=    0.000
 Gap=     0.130 Goal=   None    Shift=    0.000
 RMSDP=6.42D-06 MaxDP=1.31D-03 DE=-3.03D-05 OVMax= 6.19D-03

 Cycle  11  Pass 1  IDiag  1:
 RMSU=  1.73D-06    CP:  9.92D-01  2.33D+00  9.92D-01  9.98D-01  1.61D+00
                    CP:  2.18D+00  2.74D+00  2.38D+00  2.23D+00  1.47D+00
 E= -2426.17028381734     Delta-E=       -0.000012442990 Rises=F Damp=F
 DIIS: error= 3.12D-05 at cycle  11 NSaved=  11.
 NSaved=11 IEnMin=11 EnMin= -2426.17028381734     IErMin=11 ErrMin= 3.12D-05
 ErrMax= 3.12D-05  0.00D+00 EMaxC= 1.00D-01 BMatC= 2.17D-06 BMatP= 5.88D-06
 IDIUse=1 WtCom= 1.00D+00 WtEn= 0.00D+00
 Coeff-Com: -0.105D-03 0.113D-03 0.202D-02 0.677D-02 0.156D-01 0.166D-01
 Coeff-Com: -0.310D-01-0.142D+00-0.593D-01 0.348D+00 0.844D+00
 Coeff:     -0.105D-03 0.113D-03 0.202D-02 0.677D-02 0.156D-01 0.166D-01
 Coeff:     -0.310D-01-0.142D+00-0.593D-01 0.348D+00 0.844D+00
 Gap=     0.099 Goal=   None    Shift=    0.000
 Gap=     0.130 Goal=   None    Shift=    0.000
 RMSDP=3.71D-06 MaxDP=5.98D-04 DE=-1.24D-05 OVMax= 4.06D-03

 Cycle  12  Pass 1  IDiag  1:
 RMSU=  9.26D-07    CP:  9.92D-01  2.33D+00  9.92D-01  9.98D-01  1.62D+00
                    CP:  2.21D+00  2.84D+00  2.55D+00  2.63D+00  2.14D+00
                    CP:  1.60D+00
 E= -2426.17028920253     Delta-E=       -0.000005385189 Rises=F Damp=F
 DIIS: error= 2.51D-05 at cycle  12 NSaved=  12.
 NSaved=12 IEnMin=12 EnMin= -2426.17028920253     IErMin=12 ErrMin= 2.51D-05
 ErrMax= 2.51D-05  0.00D+00 EMaxC= 1.00D-01 BMatC= 1.07D-06 BMatP= 2.17D-06
 IDIUse=1 WtCom= 1.00D+00 WtEn= 0.00D+00
 Coeff-Com:  0.350D-03-0.544D-03-0.261D-02-0.676D-02-0.647D-02 0.267D-01
 Coeff-Com:  0.896D-01 0.175D-01-0.290D+00-0.296D+00 0.297D+00 0.117D+01
 Coeff:      0.350D-03-0.544D-03-0.261D-02-0.676D-02-0.647D-02 0.267D-01
 Coeff:      0.896D-01 0.175D-01-0.290D+00-0.296D+00 0.297D+00 0.117D+01
 Gap=     0.099 Goal=   None    Shift=    0.000
 Gap=     0.130 Goal=   None    Shift=    0.000
 RMSDP=4.32D-06 MaxDP=7.77D-04 DE=-5.39D-06 OVMax= 5.01D-03

 Cycle  13  Pass 1  IDiag  1:
 RMSU=  8.40D-07    CP:  9.92D-01  2.33D+00  9.92D-01  9.97D-01  1.62D+00
                    CP:  2.23D+00  2.93D+00  2.71D+00  3.00D+00  2.91D+00
                    CP:  2.65D+00  2.08D+00
 E= -2426.17029379463     Delta-E=       -0.000004592093 Rises=F Damp=F
 DIIS: error= 1.50D-05 at cycle  13 NSaved=  13.
 NSaved=13 IEnMin=13 EnMin= -2426.17029379463     IErMin=13 ErrMin= 1.50D-05
 ErrMax= 1.50D-05  0.00D+00 EMaxC= 1.00D-01 BMatC= 5.48D-07 BMatP= 1.07D-06
 IDIUse=1 WtCom= 1.00D+00 WtEn= 0.00D+00
 Coeff-Com:  0.256D-03-0.356D-03-0.201D-02-0.640D-02-0.110D-01 0.865D-03
 Coeff-Com:  0.629D-01 0.853D-01-0.122D+00-0.302D+00-0.299D+00 0.499D+00
 Coeff-Com:  0.109D+01
 Coeff:      0.256D-03-0.356D-03-0.201D-02-0.640D-02-0.110D-01 0.865D-03
 Coeff:      0.629D-01 0.853D-01-0.122D+00-0.302D+00-0.299D+00 0.499D+00
 Coeff:      0.109D+01
 Gap=     0.099 Goal=   None    Shift=    0.000
 Gap=     0.130 Goal=   None    Shift=    0.000
 RMSDP=3.97D-06 MaxDP=8.52D-04 DE=-4.59D-06 OVMax= 4.57D-03

 Cycle  14  Pass 1  IDiag  1:
 RMSU=  2.45D-06    CP:  9.92D-01  2.33D+00  9.91D-01  9.96D-01  1.62D+00
                    CP:  2.24D+00  3.00D+00  2.85D+00  3.00D+00  3.00D+00
                    CP:  3.00D+00  3.00D+00  2.83D+00
 E= -2426.17029638418     Delta-E=       -0.000002589553 Rises=F Damp=F
 DIIS: error= 7.53D-06 at cycle  14 NSaved=  14.
 NSaved=14 IEnMin=14 EnMin= -2426.17029638418     IErMin=14 ErrMin= 7.53D-06
 ErrMax= 7.53D-06  0.00D+00 EMaxC= 1.00D-01 BMatC= 2.45D-07 BMatP= 5.48D-07
 IDIUse=1 WtCom= 1.00D+00 WtEn= 0.00D+00
 Coeff-Com: -0.803D-05 0.428D-04 0.347D-03 0.513D-04-0.254D-02-0.147D-01
 Coeff-Com: -0.732D-02 0.381D-01 0.674D-01 0.348D-02-0.303D+00-0.348D+00
 Coeff-Com:  0.575D+00 0.991D+00
 Coeff:     -0.803D-05 0.428D-04 0.347D-03 0.513D-04-0.254D-02-0.147D-01
 Coeff:     -0.732D-02 0.381D-01 0.674D-01 0.348D-02-0.303D+00-0.348D+00
 Coeff:      0.575D+00 0.991D+00
 Gap=     0.099 Goal=   None    Shift=    0.000
 Gap=     0.130 Goal=   None    Shift=    0.000
 RMSDP=2.93D-06 MaxDP=6.86D-04 DE=-2.59D-06 OVMax= 3.42D-03

 Cycle  15  Pass 1  IDiag  1:
 RMSU=  1.63D-06    CP:  9.92D-01  2.33D+00  9.91D-01  9.95D-01  1.62D+00
                    CP:  2.25D+00  3.00D+00  2.95D+00  3.00D+00  3.00D+00
                    CP:  3.00D+00  3.00D+00  3.00D+00  1.87D+00
 E= -2426.17029742296     Delta-E=       -0.000001038785 Rises=F Damp=F
 DIIS: error= 3.20D-06 at cycle  15 NSaved=  15.
 NSaved=15 IEnMin=15 EnMin= -2426.17029742296     IErMin=15 ErrMin= 3.20D-06
 ErrMax= 3.20D-06  0.00D+00 EMaxC= 1.00D-01 BMatC= 9.05D-08 BMatP= 2.45D-07
 IDIUse=1 WtCom= 1.00D+00 WtEn= 0.00D+00
 Coeff-Com: -0.896D-04 0.142D-03 0.906D-03 0.233D-02 0.284D-02-0.849D-02
 Coeff-Com: -0.244D-01-0.119D-01 0.699D-01 0.124D+00-0.285D-01-0.357D+00
 Coeff-Com: -0.148D+00 0.490D+00 0.889D+00
 Coeff:     -0.896D-04 0.142D-03 0.906D-03 0.233D-02 0.284D-02-0.849D-02
 Coeff:     -0.244D-01-0.119D-01 0.699D-01 0.124D+00-0.285D-01-0.357D+00
 Coeff:     -0.148D+00 0.490D+00 0.889D+00
 Gap=     0.099 Goal=   None    Shift=    0.000
 Gap=     0.130 Goal=   None    Shift=    0.000
 RMSDP=1.48D-06 MaxDP=3.95D-04 DE=-1.04D-06 OVMax= 1.70D-03

 Cycle  16  Pass 1  IDiag  1:
 RMSU=  2.79D-07    CP:  9.92D-01  2.33D+00  9.91D-01  9.94D-01  1.62D+00
                    CP:  2.26D+00  3.00D+00  3.00D+00  3.00D+00  3.00D+00
                    CP:  3.00D+00  3.00D+00  3.00D+00  2.28D+00  1.56D+00
 E= -2426.17029769700     Delta-E=       -0.000000274034 Rises=F Damp=F
 DIIS: error= 2.26D-06 at cycle  16 NSaved=  16.
 NSaved=16 IEnMin=16 EnMin= -2426.17029769700     IErMin=16 ErrMin= 2.26D-06
 ErrMax= 2.26D-06  0.00D+00 EMaxC= 1.00D-01 BMatC= 3.34D-08 BMatP= 9.05D-08
 IDIUse=1 WtCom= 1.00D+00 WtEn= 0.00D+00
 Coeff-Com: -0.461D-04 0.631D-04 0.326D-03 0.114D-02 0.238D-02 0.493D-03
 Coeff-Com: -0.843D-02-0.184D-01 0.769D-02 0.642D-01 0.873D-01-0.622D-01
 Coeff-Com: -0.280D+00-0.890D-01 0.457D+00 0.838D+00
 Coeff:     -0.461D-04 0.631D-04 0.326D-03 0.114D-02 0.238D-02 0.493D-03
 Coeff:     -0.843D-02-0.184D-01 0.769D-02 0.642D-01 0.873D-01-0.622D-01
 Coeff:     -0.280D+00-0.890D-01 0.457D+00 0.838D+00
 Gap=     0.099 Goal=   None    Shift=    0.000
 Gap=     0.130 Goal=   None    Shift=    0.000
 RMSDP=8.20D-07 MaxDP=2.43D-04 DE=-2.74D-07 OVMax= 8.99D-04

 Cycle  17  Pass 1  IDiag  1:
 RMSU=  2.32D-07    CP:  9.92D-01  2.33D+00  9.91D-01  9.94D-01  1.62D+00
                    CP:  2.26D+00  3.00D+00  3.00D+00  3.00D+00  3.00D+00
                    CP:  3.00D+00  3.00D+00  3.00D+00  2.50D+00  1.88D+00
                    CP:  1.68D+00
 E= -2426.17029778399     Delta-E=       -0.000000086997 Rises=F Damp=F
 DIIS: error= 1.31D-06 at cycle  17 NSaved=  17.
 NSaved=17 IEnMin=17 EnMin= -2426.17029778399     IErMin=17 ErrMin= 1.31D-06
 ErrMax= 1.31D-06  0.00D+00 EMaxC= 1.00D-01 BMatC= 1.16D-08 BMatP= 3.34D-08
 IDIUse=1 WtCom= 1.00D+00 WtEn= 0.00D+00
 Coeff-Com:  0.728D-05-0.161D-04-0.160D-03-0.258D-03 0.186D-03 0.296D-02
 Coeff-Com:  0.507D-02-0.389D-02-0.223D-01-0.123D-01 0.465D-01 0.968D-01
 Coeff-Com: -0.706D-01-0.207D+00-0.103D+00 0.368D+00 0.900D+00
 Coeff:      0.728D-05-0.161D-04-0.160D-03-0.258D-03 0.186D-03 0.296D-02
 Coeff:      0.507D-02-0.389D-02-0.223D-01-0.123D-01 0.465D-01 0.968D-01
 Coeff:     -0.706D-01-0.207D+00-0.103D+00 0.368D+00 0.900D+00
 Gap=     0.099 Goal=   None    Shift=    0.000
 Gap=     0.130 Goal=   None    Shift=    0.000
 RMSDP=4.13D-07 MaxDP=1.25D-04 DE=-8.70D-08 OVMax= 4.22D-04

 Cycle  18  Pass 1  IDiag  1:
 RMSU=  7.18D-08    CP:  9.92D-01  2.33D+00  9.91D-01  9.94D-01  1.62D+00
                    CP:  2.26D+00  3.00D+00  3.00D+00  3.00D+00  3.00D+00
                    CP:  3.00D+00  3.00D+00  3.00D+00  2.59D+00  2.02D+00
                    CP:  2.35D+00  1.57D+00
 E= -2426.17029781518     Delta-E=       -0.000000031183 Rises=F Damp=F
 DIIS: error= 8.88D-07 at cycle  18 NSaved=  18.
 NSaved=18 IEnMin=18 EnMin= -2426.17029781518     IErMin=18 ErrMin= 8.88D-07
 ErrMax= 8.88D-07  0.00D+00 EMaxC= 1.00D-01 BMatC= 5.33D-09 BMatP= 1.16D-08
 IDIUse=1 WtCom= 1.00D+00 WtEn= 0.00D+00
 Coeff-Com:  0.243D-04-0.368D-04-0.225D-03-0.634D-03-0.928D-03 0.120D-02
 Coeff-Com:  0.656D-02 0.640D-02-0.154D-01-0.335D-01-0.159D-01 0.801D-01
 Coeff-Com:  0.910D-01-0.752D-01-0.266D+00-0.177D+00 0.485D+00 0.915D+00
 Coeff:      0.243D-04-0.368D-04-0.225D-03-0.634D-03-0.928D-03 0.120D-02
 Coeff:      0.656D-02 0.640D-02-0.154D-01-0.335D-01-0.159D-01 0.801D-01
 Coeff:      0.910D-01-0.752D-01-0.266D+00-0.177D+00 0.485D+00 0.915D+00
 Gap=     0.099 Goal=   None    Shift=    0.000
 Gap=     0.130 Goal=   None    Shift=    0.000
 RMSDP=2.81D-07 MaxDP=9.22D-05 DE=-3.12D-08 OVMax= 2.58D-04

 Cycle  19  Pass 1  IDiag  1:
 RMSU=  5.59D-08    CP:  9.92D-01  2.33D+00  9.91D-01  9.94D-01  1.62D+00
                    CP:  2.26D+00  3.00D+00  3.00D+00  3.00D+00  3.00D+00
                    CP:  3.00D+00  3.00D+00  3.00D+00  2.64D+00  2.11D+00
                    CP:  2.87D+00  2.03D+00  1.93D+00
 E= -2426.17029783027     Delta-E=       -0.000000015090 Rises=F Damp=F
 DIIS: error= 5.08D-07 at cycle  19 NSaved=  19.
 NSaved=19 IEnMin=19 EnMin= -2426.17029783027     IErMin=19 ErrMin= 5.08D-07
 ErrMax= 5.08D-07  0.00D+00 EMaxC= 1.00D-01 BMatC= 1.62D-09 BMatP= 5.33D-09
 IDIUse=1 WtCom= 1.00D+00 WtEn= 0.00D+00
 Coeff-Com:  0.356D-05-0.302D-05 0.181D-04-0.515D-04-0.304D-03-0.102D-02
 Coeff-Com: -0.316D-03 0.365D-02 0.530D-02-0.216D-02-0.265D-01-0.231D-01
 Coeff-Com:  0.557D-01 0.684D-01-0.243D-01-0.190D+00-0.258D+00 0.221D+00
 Coeff-Com:  0.117D+01
 Coeff:      0.356D-05-0.302D-05 0.181D-04-0.515D-04-0.304D-03-0.102D-02
 Coeff:     -0.316D-03 0.365D-02 0.530D-02-0.216D-02-0.265D-01-0.231D-01
 Coeff:      0.557D-01 0.684D-01-0.243D-01-0.190D+00-0.258D+00 0.221D+00
 Coeff:      0.117D+01
 Gap=     0.099 Goal=   None    Shift=    0.000
 Gap=     0.130 Goal=   None    Shift=    0.000
 RMSDP=2.01D-07 MaxDP=6.49D-05 DE=-1.51D-08 OVMax= 1.78D-04

 Cycle  20  Pass 1  IDiag  1:
 RMSU=  7.34D-08    CP:  9.92D-01  2.33D+00  9.91D-01  9.94D-01  1.62D+00
                    CP:  2.26D+00  3.00D+00  3.00D+00  3.00D+00  3.00D+00
                    CP:  3.00D+00  3.00D+00  3.00D+00  2.67D+00  2.17D+00
                    CP:  3.00D+00  2.32D+00  2.81D+00  1.75D+00
 E= -2426.17029783685     Delta-E=       -0.000000006577 Rises=F Damp=F
 DIIS: error= 3.05D-07 at cycle  20 NSaved=  20.
 NSaved=20 IEnMin=20 EnMin= -2426.17029783685     IErMin=20 ErrMin= 3.05D-07
 ErrMax= 3.05D-07  0.00D+00 EMaxC= 1.00D-01 BMatC= 6.56D-10 BMatP= 1.62D-09
 IDIUse=1 WtCom= 1.00D+00 WtEn= 0.00D+00
 Coeff-Com: -0.551D-05 0.938D-05 0.833D-04 0.188D-03 0.185D-03-0.782D-03
 Coeff-Com: -0.228D-02-0.677D-03 0.701D-02 0.107D-01-0.552D-02-0.372D-01
 Coeff-Com: -0.725D-02 0.519D-01 0.779D-01-0.124D-01-0.273D+00-0.239D+00
 Coeff-Com:  0.505D+00 0.925D+00
 Coeff:     -0.551D-05 0.938D-05 0.833D-04 0.188D-03 0.185D-03-0.782D-03
 Coeff:     -0.228D-02-0.677D-03 0.701D-02 0.107D-01-0.552D-02-0.372D-01
 Coeff:     -0.725D-02 0.519D-01 0.779D-01-0.124D-01-0.273D+00-0.239D+00
 Coeff:      0.505D+00 0.925D+00
 Gap=     0.099 Goal=   None    Shift=    0.000
 Gap=     0.130 Goal=   None    Shift=    0.000
 RMSDP=1.06D-07 MaxDP=3.49D-05 DE=-6.58D-09 OVMax= 9.71D-05

 Cycle  21  Pass 1  IDiag  1:
 Restarting incremental Fock formation.
 E= -2426.17029783856     Delta-E=       -0.000000001710 Rises=F Damp=F
 DIIS: error= 1.69D-07 at cycle  21 NSaved=  20.
 NSaved=20 IEnMin=20 EnMin= -2426.17029783856     IErMin=20 ErrMin= 1.69D-07
 ErrMax= 1.69D-07  0.00D+00 EMaxC= 1.00D-01 BMatC= 2.05D-10 BMatP= 6.56D-10
 IDIUse=1 WtCom= 1.00D+00 WtEn= 0.00D+00
 Coeff-Com: -0.697D-06 0.571D-05 0.453D-04 0.134D-03 0.236D-03-0.330D-03
 Coeff-Com: -0.139D-02-0.548D-03 0.315D-02 0.811D-02-0.301D-03-0.207D-01
 Coeff-Com: -0.130D-01 0.259D-01 0.679D-01 0.237D-01-0.143D+00-0.262D+00
 Coeff-Com:  0.228D+00 0.108D+01
 Coeff:     -0.697D-06 0.571D-05 0.453D-04 0.134D-03 0.236D-03-0.330D-03
 Coeff:     -0.139D-02-0.548D-03 0.315D-02 0.811D-02-0.301D-03-0.207D-01
 Coeff:     -0.130D-01 0.259D-01 0.679D-01 0.237D-01-0.143D+00-0.262D+00
 Coeff:      0.228D+00 0.108D+01
 Gap=     0.099 Goal=   None    Shift=    0.000
 Gap=     0.130 Goal=   None    Shift=    0.000
 RMSDP=4.58D-08 MaxDP=1.20D-05 DE=-1.71D-09 OVMax= 3.91D-05

 Cycle  22  Pass 1  IDiag  1:
 RMSU=  4.58D-08    CP:  1.00D+00
 E= -2426.17029783937     Delta-E=       -0.000000000817 Rises=F Damp=F
 DIIS: error= 1.02D-07 at cycle  22 NSaved=  20.
 NSaved=20 IEnMin=20 EnMin= -2426.17029783937     IErMin=20 ErrMin= 1.02D-07
 ErrMax= 1.02D-07  0.00D+00 EMaxC= 1.00D-01 BMatC= 8.64D-11 BMatP= 2.05D-10
 IDIUse=1 WtCom= 1.00D+00 WtEn= 0.00D+00
 Coeff-Com: -0.202D-04-0.335D-04 0.659D-05 0.373D-03 0.541D-03-0.400D-03
 Coeff-Com: -0.249D-02-0.222D-02 0.520D-02 0.124D-01-0.646D-02-0.240D-01
 Coeff-Com: -0.164D-01 0.344D-01 0.111D+00 0.264D-01-0.297D+00-0.264D+00
 Coeff-Com:  0.447D+00 0.977D+00
 Coeff:     -0.202D-04-0.335D-04 0.659D-05 0.373D-03 0.541D-03-0.400D-03
 Coeff:     -0.249D-02-0.222D-02 0.520D-02 0.124D-01-0.646D-02-0.240D-01
 Coeff:     -0.164D-01 0.344D-01 0.111D+00 0.264D-01-0.297D+00-0.264D+00
 Coeff:      0.447D+00 0.977D+00
 Gap=     0.099 Goal=   None    Shift=    0.000
 Gap=     0.130 Goal=   None    Shift=    0.000
 RMSDP=2.60D-08 MaxDP=5.30D-06 DE=-8.17D-10 OVMax= 2.16D-05

 Cycle  23  Pass 1  IDiag  1:
 RMSU=  7.49D-09    CP:  1.00D+00  1.54D+00
 E= -2426.17029783934     Delta-E=        0.000000000031 Rises=F Damp=F
 DIIS: error= 6.69D-08 at cycle  23 NSaved=  20.
 NSaved=20 IEnMin=19 EnMin= -2426.17029783937     IErMin=20 ErrMin= 6.69D-08
 ErrMax= 6.69D-08  0.00D+00 EMaxC= 1.00D-01 BMatC= 3.15D-11 BMatP= 8.64D-11
 IDIUse=1 WtCom= 1.00D+00 WtEn= 0.00D+00
 Coeff-Com: -0.765D-06-0.102D-04-0.927D-05-0.232D-05 0.203D-03 0.905D-04
 Coeff-Com: -0.778D-03-0.162D-02 0.148D-02 0.432D-02 0.360D-03-0.868D-02
 Coeff-Com: -0.128D-01 0.118D-01 0.438D-01 0.190D-01-0.127D+00-0.216D+00
 Coeff-Com:  0.271D+00 0.101D+01
 Coeff:     -0.765D-06-0.102D-04-0.927D-05-0.232D-05 0.203D-03 0.905D-04
 Coeff:     -0.778D-03-0.162D-02 0.148D-02 0.432D-02 0.360D-03-0.868D-02
 Coeff:     -0.128D-01 0.118D-01 0.438D-01 0.190D-01-0.127D+00-0.216D+00
 Coeff:      0.271D+00 0.101D+01
 Gap=     0.099 Goal=   None    Shift=    0.000
 Gap=     0.130 Goal=   None    Shift=    0.000
 RMSDP=1.04D-08 MaxDP=1.63D-06 DE= 3.09D-11 OVMax= 6.77D-06

 Cycle  24  Pass 1  IDiag  1:
 RMSU=  6.29D-09    CP:  1.00D+00  1.67D+00  1.81D+00
 E= -2426.17029783955     Delta-E=       -0.000000000207 Rises=F Damp=F
 DIIS: error= 4.75D-08 at cycle  24 NSaved=  20.
 NSaved=20 IEnMin=20 EnMin= -2426.17029783955     IErMin=20 ErrMin= 4.75D-08
 ErrMax= 4.75D-08  0.00D+00 EMaxC= 1.00D-01 BMatC= 1.73D-11 BMatP= 3.15D-11
 IDIUse=1 WtCom= 1.00D+00 WtEn= 0.00D+00
 Coeff-Com: -0.636D-05-0.235D-04-0.448D-04 0.114D-03 0.231D-03-0.930D-04
 Coeff-Com: -0.120D-02-0.342D-03 0.224D-02 0.274D-02-0.130D-02-0.105D-01
 Coeff-Com: -0.137D-01 0.160D-01 0.713D-01 0.161D-02-0.238D+00-0.185D+00
 Coeff-Com:  0.522D+00 0.834D+00
 Coeff:     -0.636D-05-0.235D-04-0.448D-04 0.114D-03 0.231D-03-0.930D-04
 Coeff:     -0.120D-02-0.342D-03 0.224D-02 0.274D-02-0.130D-02-0.105D-01
 Coeff:     -0.137D-01 0.160D-01 0.713D-01 0.161D-02-0.238D+00-0.185D+00
 Coeff:      0.522D+00 0.834D+00
 Gap=     0.099 Goal=   None    Shift=    0.000
 Gap=     0.130 Goal=   None    Shift=    0.000
 RMSDP=7.65D-09 MaxDP=1.08D-06 DE=-2.07D-10 OVMax= 5.17D-06

 Cycle  25  Pass 1  IDiag  1:
 RMSU=  2.32D-09    CP:  1.00D+00  1.72D+00  2.45D+00  1.79D+00
 E= -2426.17029783939     Delta-E=        0.000000000160 Rises=F Damp=F
 DIIS: error= 3.43D-08 at cycle  25 NSaved=  20.
 NSaved=20 IEnMin=19 EnMin= -2426.17029783955     IErMin=20 ErrMin= 3.43D-08
 ErrMax= 3.43D-08  0.00D+00 EMaxC= 1.00D-01 BMatC= 7.29D-12 BMatP= 1.73D-11
 IDIUse=1 WtCom= 1.00D+00 WtEn= 0.00D+00
 Coeff-Com: -0.232D-04-0.580D-04 0.277D-04 0.245D-03 0.374D-03-0.485D-03
 Coeff-Com: -0.172D-02 0.215D-03 0.349D-02 0.427D-02-0.262D-02-0.200D-01
 Coeff-Com: -0.147D-01 0.381D-01 0.781D-01-0.362D-02-0.213D+00-0.277D+00
 Coeff-Com:  0.217D+00 0.119D+01
 Coeff:     -0.232D-04-0.580D-04 0.277D-04 0.245D-03 0.374D-03-0.485D-03
 Coeff:     -0.172D-02 0.215D-03 0.349D-02 0.427D-02-0.262D-02-0.200D-01
 Coeff:     -0.147D-01 0.381D-01 0.781D-01-0.362D-02-0.213D+00-0.277D+00
 Coeff:      0.217D+00 0.119D+01
 Gap=     0.099 Goal=   None    Shift=    0.000
 Gap=     0.130 Goal=   None    Shift=    0.000
 RMSDP=8.47D-09 MaxDP=1.88D-06 DE= 1.60D-10 OVMax= 6.42D-06

 Cycle  26  Pass 1  IDiag  1:
 RMSU=  2.58D-09    CP:  1.00D+00  1.68D+00  2.96D+00  2.81D+00  2.14D+00
 E= -2426.17029783944     Delta-E=       -0.000000000053 Rises=F Damp=F
 DIIS: error= 2.33D-08 at cycle  26 NSaved=  20.
 NSaved=20 IEnMin=18 EnMin= -2426.17029783955     IErMin=20 ErrMin= 2.33D-08
 ErrMax= 2.33D-08  0.00D+00 EMaxC= 1.00D-01 BMatC= 3.87D-12 BMatP= 7.29D-12
 IDIUse=1 WtCom= 1.00D+00 WtEn= 0.00D+00
 Coeff-Com: -0.853D-05-0.257D-04-0.424D-04 0.170D-03 0.520D-03-0.224D-03
 Coeff-Com: -0.134D-02-0.610D-03 0.204D-02 0.511D-02 0.530D-03-0.135D-01
 Coeff-Com: -0.243D-01 0.323D-01 0.110D+00-0.110D-01-0.367D+00-0.254D+00
 Coeff-Com:  0.615D+00 0.906D+00
 Coeff:     -0.853D-05-0.257D-04-0.424D-04 0.170D-03 0.520D-03-0.224D-03
 Coeff:     -0.134D-02-0.610D-03 0.204D-02 0.511D-02 0.530D-03-0.135D-01
 Coeff:     -0.243D-01 0.323D-01 0.110D+00-0.110D-01-0.367D+00-0.254D+00
 Coeff:      0.615D+00 0.906D+00
 Gap=     0.099 Goal=   None    Shift=    0.000
 Gap=     0.130 Goal=   None    Shift=    0.000
 RMSDP=4.71D-09 MaxDP=7.02D-07 DE=-5.28D-11 OVMax= 3.08D-06

 Error on total polarization charges =  0.02232
 SCF Done:  E(UM062X) =  -2426.17029784     A.U. after   26 cycles
            NFock= 26  Conv=0.47D-08     -V/T= 2.0052
 <Sx>= 0.0000 <Sy>= 0.0000 <Sz>= 0.5000 <S**2>= 0.8327 S= 0.5405
 <L.S>= 0.000000000000E+00
 KE= 2.413676506284D+03 PE=-1.764829722003D+04 EE= 6.833675556192D+03
 Annihilation of the first spin contaminant:
 S**2 before annihilation     0.8327,   after     0.7538
 Leave Link  502 at Sat Oct 25 03:21:49 2025, MaxMem= 30870077440 cpu:          163092.8 elap:            2576.3
 (Enter /public/software/gauss/g16/l601.exe)
 Copying SCF densities to generalized density rwf, IOpCl= 1 IROHF=0.

 **********************************************************************

            Population analysis using the SCF density.

 **********************************************************************

 Orbital symmetries:
 Alpha Orbitals:
       Occupied  (A) (A) (A) (A) (A) (A) (A) (A) (A) (A) (A) (A)
                 (A) (A) (A) (A) (A) (A) (A) (A) (A) (A) (A) (A)
                 (A) (A) (A) (A) (A) (A) (A) (A) (A) (A) (A) (A)
                 (A) (A) (A) (A) (A) (A) (A) (A) (A) (A) (A) (A)
                 (A) (A) (A) (A) (A) (A) (A) (A) (A) (A) (A) (A)
                 (A) (A) (A) (A) (A) (A) (A) (A) (A) (A) (A) (A)
                 (A) (A) (A) (A) (A) (A) (A) (A) (A) (A) (A) (A)
                 (A) (A) (A) (A) (A) (A) (A) (A) (A) (A) (A) (A)
                 (A) (A) (A) (A) (A) (A) (A) (A) (A) (A) (A) (A)
                 (A) (A) (A) (A) (A) (A) (A) (A) (A) (A) (A) (A)
                 (A) (A) (A) (A) (A) (A) (A) (A) (A) (A) (A) (A)
                 (A) (A) (A) (A) (A) (A) (A) (A) (A) (A) (A) (A)
                 (A) (A) (A) (A) (A) (A) (A) (A) (A) (A) (A) (A)
                 (A) (A) (A) (A) (A) (A) (A) (A) (A) (A) (A) (A)
                 (A) (A) (A) (A) (A) (A) (A) (A)
       Virtual   (A) (A) (A) (A) (A) (A) (A) (A) (A) (A) (A) (A)
                 (A) (A) (A) (A) (A) (A) (A) (A) (A) (A) (A) (A)
                 (A) (A) (A) (A) (A) (A) (A) (A) (A) (A) (A) (A)
                 (A) (A) (A) (A) (A) (A) (A) (A) (A) (A) (A) (A)
                 (A) (A) (A) (A) (A) (A) (A) (A) (A) (A) (A) (A)
                 (A) (A) (A) (A) (A) (A) (A) (A) (A) (A) (A) (A)
                 (A) (A) (A) (A) (A) (A) (A) (A) (A) (A) (A) (A)
                 (A) (A) (A) (A) (A) (A) (A) (A) (A) (A) (A) (A)
                 (A) (A) (A) (A) (A) (A) (A) (A) (A) (A) (A) (A)
                 (A) (A) (A) (A) (A) (A) (A) (A) (A) (A) (A) (A)
                 (A) (A) (A) (A) (A) (A) (A) (A) (A) (A) (A) (A)
                 (A) (A) (A) (A) (A) (A) (A) (A) (A) (A) (A) (A)
                 (A) (A) (A) (A) (A) (A) (A) (A) (A) (A) (A) (A)
                 (A) (A) (A) (A) (A) (A) (A) (A) (A) (A) (A) (A)
                 (A) (A) (A) (A) (A) (A) (A) (A) (A) (A) (A) (A)
                 (A) (A) (A) (A) (A) (A) (A) (A) (A) (A) (A) (A)
                 (A) (A) (A) (A) (A) (A) (A) (A) (A) (A) (A) (A)
                 (A) (A) (A) (A) (A) (A) (A) (A) (A) (A) (A) (A)
                 (A) (A) (A) (A) (A) (A) (A) (A) (A) (A) (A) (A)
                 (A) (A) (A) (A) (A) (A) (A) (A) (A) (A) (A) (A)
                 (A) (A) (A) (A) (A) (A) (A) (A) (A) (A) (A) (A)
                 (A) (A) (A) (A) (A) (A) (A) (A) (A) (A) (A) (A)
                 (A) (A) (A) (A) (A) (A) (A) (A) (A) (A) (A) (A)
                 (A) (A) (A) (A) (A) (A) (A) (A) (A) (A) (A) (A)
                 (A) (A) (A) (A) (A) (A) (A) (A) (A) (A) (A) (A)
                 (A) (A) (A) (A) (A) (A) (A) (A) (A) (A) (A) (A)
                 (A) (A) (A) (A) (A) (A) (A) (A) (A) (A) (A) (A)
                 (A) (A) (A) (A) (A) (A) (A) (A) (A) (A) (A) (A)
                 (A) (A) (A) (A) (A) (A) (A) (A) (A) (A) (A) (A)
                 (A) (A) (A) (A) (A) (A) (A) (A) (A) (A) (A) (A)
                 (A) (A) (A) (A) (A) (A) (A) (A) (A) (A) (A) (A)
                 (A) (A) (A) (A) (A) (A) (A) (A) (A) (A) (A) (A)
                 (A) (A) (A) (A) (A) (A) (A) (A) (A) (A) (A) (A)
                 (A) (A) (A) (A) (A) (A) (A) (A) (A) (A) (A) (A)
                 (A) (A) (A) (A) (A) (A) (A) (A) (A) (A) (A) (A)
                 (A) (A) (A) (A) (A) (A) (A) (A) (A) (A) (A) (A)
                 (A) (A) (A) (A) (A) (A) (A) (A) (A) (A) (A) (A)
                 (A) (A) (A) (A) (A) (A) (A) (A) (A) (A) (A) (A)
                 (A) (A) (A) (A) (A) (A) (A) (A) (A) (A) (A) (A)
                 (A) (A) (A) (A) (A) (A) (A) (A) (A) (A) (A) (A)
                 (A) (A) (A) (A) (A) (A) (A) (A) (A) (A) (A) (A)
                 (A) (A) (A) (A) (A) (A) (A) (A) (A) (A) (A) (A)
                 (A) (A) (A) (A) (A) (A) (A) (A) (A) (A) (A) (A)
                 (A) (A) (A) (A) (A) (A) (A) (A) (A) (A) (A) (A)
                 (A) (A) (A) (A) (A) (A) (A) (A) (A) (A) (A) (A)
                 (A) (A) (A) (A) (A) (A) (A) (A) (A) (A) (A) (A)
                 (A) (A) (A) (A) (A) (A) (A) (A) (A) (A) (A) (A)
                 (A) (A) (A) (A) (A) (A) (A) (A) (A) (A) (A) (A)
                 (A) (A) (A) (A) (A) (A) (A) (A) (A) (A) (A) (A)
                 (A) (A) (A) (A) (A) (A) (A) (A) (A) (A) (A) (A)
                 (A) (A) (A) (A) (A) (A) (A) (A) (A) (A) (A) (A)
                 (A) (A) (A) (A) (A) (A) (A) (A) (A) (A) (A) (A)
                 (A) (A) (A) (A) (A) (A) (A) (A) (A) (A) (A) (A)
                 (A) (A) (A) (A) (A) (A) (A) (A) (A) (A) (A) (A)
                 (A) (A) (A) (A) (A) (A) (A) (A) (A) (A) (A) (A)
                 (A) (A) (A) (A) (A) (A) (A) (A) (A) (A) (A) (A)
                 (A) (A) (A) (A) (A) (A) (A) (A) (A) (A) (A) (A)
                 (A) (A) (A) (A) (A) (A) (A) (A) (A) (A) (A) (A)
                 (A) (A) (A) (A) (A) (A) (A) (A) (A) (A) (A) (A)
                 (A) (A) (A) (A) (A) (A) (A) (A) (A) (A) (A) (A)
                 (A) (A) (A) (A) (A) (A) (A) (A) (A) (A) (A) (A)
                 (A) (A) (A) (A) (A) (A) (A) (A) (A) (A) (A) (A)
                 (A) (A) (A) (A) (A) (A) (A) (A) (A) (A) (A) (A)
                 (A) (A) (A) (A) (A) (A) (A) (A) (A) (A) (A) (A)
                 (A) (A) (A) (A) (A) (A) (A) (A) (A) (A) (A) (A)
                 (A) (A) (A) (A) (A) (A) (A) (A) (A) (A) (A) (A)
                 (A) (A) (A) (A) (A) (A) (A) (A) (A) (A) (A) (A)
                 (A) (A) (A) (A) (A) (A) (A) (A) (A) (A) (A) (A)
                 (A) (A) (A) (A) (A) (A) (A) (A) (A) (A) (A) (A)
                 (A) (A) (A) (A) (A) (A) (A) (A) (A) (A) (A) (A)
                 (A) (A) (A) (A) (A) (A) (A) (A) (A) (A) (A) (A)
                 (A) (A) (A) (A) (A) (A) (A) (A) (A) (A) (A) (A)
                 (A) (A) (A) (A) (A) (A) (A) (A) (A) (A) (A) (A)
                 (A) (A) (A) (A) (A) (A) (A) (A) (A) (A) (A) (A)
                 (A) (A) (A) (A) (A) (A) (A) (A) (A) (A) (A) (A)
                 (A) (A) (A) (A) (A) (A) (A) (A) (A) (A) (A) (A)
                 (A) (A) (A) (A) (A) (A) (A) (A) (A) (A) (A) (A)
                 (A) (A) (A) (A) (A) (A) (A) (A) (A) (A) (A) (A)
                 (A) (A) (A) (A) (A) (A) (A) (A) (A) (A) (A) (A)
                 (A) (A) (A) (A) (A) (A) (A) (A) (A) (A) (A) (A)
                 (A) (A) (A) (A) (A) (A) (A) (A) (A) (A) (A) (A)
                 (A) (A) (A) (A) (A) (A) (A) (A) (A) (A) (A) (A)
                 (A) (A) (A) (A) (A) (A) (A) (A) (A) (A) (A) (A)
                 (A) (A) (A) (A) (A) (A) (A) (A) (A) (A) (A) (A)
                 (A) (A) (A) (A) (A) (A) (A) (A) (A) (A) (A) (A)
                 (A) (A) (A) (A) (A) (A) (A) (A) (A) (A) (A) (A)
                 (A) (A) (A) (A) (A) (A) (A) (A) (A) (A) (A) (A)
                 (A) (A) (A) (A) (A) (A) (A) (A) (A) (A) (A) (A)
                 (A) (A) (A) (A) (A) (A) (A) (A) (A) (A) (A) (A)
                 (A) (A) (A) (A) (A) (A) (A) (A) (A) (A) (A) (A)
                 (A) (A) (A) (A) (A) (A) (A) (A) (A) (A) (A) (A)
                 (A) (A) (A) (A) (A) (A) (A) (A) (A) (A) (A) (A)
                 (A) (A) (A) (A) (A) (A) (A) (A) (A) (A) (A) (A)
                 (A) (A) (A) (A) (A) (A) (A) (A) (A) (A) (A) (A)
                 (A) (A) (A) (A) (A) (A) (A) (A) (A) (A) (A) (A)
                 (A) (A) (A) (A) (A) (A) (A) (A) (A) (A) (A) (A)
                 (A) (A) (A) (A) (A) (A) (A) (A) (A) (A) (A) (A)
                 (A) (A) (A) (A) (A) (A) (A) (A) (A) (A) (A) (A)
                 (A) (A) (A) (A) (A) (A) (A) (A) (A) (A) (A) (A)
                 (A) (A) (A) (A) (A) (A) (A) (A) (A) (A) (A) (A)
                 (A) (A) (A) (A) (A) (A) (A) (A) (A) (A) (A) (A)
                 (A) (A) (A) (A) (A) (A) (A) (A) (A) (A) (A) (A)
                 (A) (A) (A) (A) (A) (A) (A) (A) (A) (A) (A) (A)
                 (A) (A) (A) (A) (A) (A) (A) (A) (A) (A) (A) (A)
                 (A) (A) (A) (A) (A) (A) (A) (A) (A) (A) (A) (A)
                 (A) (A) (A) (A) (A) (A) (A) (A) (A) (A) (A) (A)
                 (A) (A) (A) (A) (A) (A) (A) (A) (A) (A) (A) (A)
                 (A) (A) (A) (A) (A) (A) (A) (A) (A) (A) (A) (A)
                 (A) (A) (A) (A) (A) (A) (A) (A) (A) (A) (A) (A)
                 (A) (A) (A) (A) (A) (A) (A) (A) (A) (A) (A) (A)
                 (A) (A) (A) (A) (A) (A) (A) (A) (A) (A) (A) (A)
                 (A) (A) (A) (A) (A) (A) (A) (A) (A) (A) (A) (A)
                 (A) (A) (A) (A) (A) (A) (A) (A) (A) (A) (A) (A)
                 (A) (A) (A) (A) (A) (A) (A) (A) (A) (A) (A) (A)
                 (A) (A) (A) (A) (A) (A) (A) (A) (A) (A) (A) (A)
                 (A) (A) (A) (A) (A) (A) (A) (A) (A) (A) (A) (A)
                 (A) (A) (A) (A) (A) (A) (A) (A) (A) (A) (A) (A)
                 (A) (A) (A) (A) (A) (A) (A) (A) (A) (A) (A) (A)
                 (A) (A) (A) (A) (A) (A) (A) (A) (A) (A) (A) (A)
                 (A) (A) (A) (A) (A) (A) (A) (A) (A) (A) (A) (A)
                 (A) (A) (A) (A) (A) (A) (A) (A) (A) (A) (A) (A)
                 (A) (A) (A) (A) (A) (A) (A) (A) (A) (A) (A) (A)
                 (A) (A) (A) (A) (A) (A) (A) (A) (A) (A) (A) (A)
                 (A) (A) (A) (A) (A) (A) (A) (A) (A) (A) (A) (A)
                 (A) (A) (A) (A) (A) (A) (A) (A) (A) (A) (A) (A)
                 (A) (A) (A) (A) (A) (A) (A) (A) (A) (A) (A) (A)
                 (A) (A) (A) (A) (A) (A) (A) (A) (A) (A) (A) (A)
                 (A) (A) (A) (A) (A) (A) (A) (A) (A) (A) (A) (A)
                 (A) (A) (A) (A) (A) (A) (A) (A) (A) (A) (A) (A)
                 (A) (A) (A) (A) (A) (A) (A) (A) (A) (A) (A) (A)
                 (A) (A) (A) (A) (A) (A) (A) (A) (A) (A) (A) (A)
                 (A) (A) (A) (A) (A) (A) (A) (A) (A) (A) (A) (A)
                 (A) (A) (A) (A) (A) (A) (A) (A) (A) (A) (A) (A)
                 (A) (A) (A) (A) (A) (A) (A) (A) (A) (A) (A) (A)
                 (A) (A) (A) (A) (A) (A) (A) (A) (A) (A) (A) (A)
                 (A) (A) (A) (A) (A) (A) (A) (A) (A) (A) (A) (A)
                 (A) (A) (A) (A) (A) (A) (A) (A) (A) (A) (A) (A)
                 (A) (A) (A) (A) (A) (A) (A) (A) (A) (A) (A) (A)
                 (A) (A) (A) (A) (A) (A) (A) (A) (A) (A) (A) (A)
                 (A) (A) (A) (A) (A) (A) (A) (A) (A) (A) (A) (A)
                 (A) (A) (A) (A) (A) (A) (A) (A) (A) (A) (A) (A)
                 (A) (A) (A) (A)
 Beta  Orbitals:
       Occupied  (A) (A) (A) (A) (A) (A) (A) (A) (A) (A) (A) (A)
                 (A) (A) (A) (A) (A) (A) (A) (A) (A) (A) (A) (A)
                 (A) (A) (A) (A) (A) (A) (A) (A) (A) (A) (A) (A)
                 (A) (A) (A) (A) (A) (A) (A) (A) (A) (A) (A) (A)
                 (A) (A) (A) (A) (A) (A) (A) (A) (A) (A) (A) (A)
                 (A) (A) (A) (A) (A) (A) (A) (A) (A) (A) (A) (A)
                 (A) (A) (A) (A) (A) (A) (A) (A) (A) (A) (A) (A)
                 (A) (A) (A) (A) (A) (A) (A) (A) (A) (A) (A) (A)
                 (A) (A) (A) (A) (A) (A) (A) (A) (A) (A) (A) (A)
                 (A) (A) (A) (A) (A) (A) (A) (A) (A) (A) (A) (A)
                 (A) (A) (A) (A) (A) (A) (A) (A) (A) (A) (A) (A)
                 (A) (A) (A) (A) (A) (A) (A) (A) (A) (A) (A) (A)
                 (A) (A) (A) (A) (A) (A) (A) (A) (A) (A) (A) (A)
                 (A) (A) (A) (A) (A) (A) (A) (A) (A) (A) (A) (A)
                 (A) (A) (A) (A) (A) (A) (A)
       Virtual   (A) (A) (A) (A) (A) (A) (A) (A) (A) (A) (A) (A)
                 (A) (A) (A) (A) (A) (A) (A) (A) (A) (A) (A) (A)
                 (A) (A) (A) (A) (A) (A) (A) (A) (A) (A) (A) (A)
                 (A) (A) (A) (A) (A) (A) (A) (A) (A) (A) (A) (A)
                 (A) (A) (A) (A) (A) (A) (A) (A) (A) (A) (A) (A)
                 (A) (A) (A) (A) (A) (A) (A) (A) (A) (A) (A) (A)
                 (A) (A) (A) (A) (A) (A) (A) (A) (A) (A) (A) (A)
                 (A) (A) (A) (A) (A) (A) (A) (A) (A) (A) (A) (A)
                 (A) (A) (A) (A) (A) (A) (A) (A) (A) (A) (A) (A)
                 (A) (A) (A) (A) (A) (A) (A) (A) (A) (A) (A) (A)
                 (A) (A) (A) (A) (A) (A) (A) (A) (A) (A) (A) (A)
                 (A) (A) (A) (A) (A) (A) (A) (A) (A) (A) (A) (A)
                 (A) (A) (A) (A) (A) (A) (A) (A) (A) (A) (A) (A)
                 (A) (A) (A) (A) (A) (A) (A) (A) (A) (A) (A) (A)
                 (A) (A) (A) (A) (A) (A) (A) (A) (A) (A) (A) (A)
                 (A) (A) (A) (A) (A) (A) (A) (A) (A) (A) (A) (A)
                 (A) (A) (A) (A) (A) (A) (A) (A) (A) (A) (A) (A)
                 (A) (A) (A) (A) (A) (A) (A) (A) (A) (A) (A) (A)
                 (A) (A) (A) (A) (A) (A) (A) (A) (A) (A) (A) (A)
                 (A) (A) (A) (A) (A) (A) (A) (A) (A) (A) (A) (A)
                 (A) (A) (A) (A) (A) (A) (A) (A) (A) (A) (A) (A)
                 (A) (A) (A) (A) (A) (A) (A) (A) (A) (A) (A) (A)
                 (A) (A) (A) (A) (A) (A) (A) (A) (A) (A) (A) (A)
                 (A) (A) (A) (A) (A) (A) (A) (A) (A) (A) (A) (A)
                 (A) (A) (A) (A) (A) (A) (A) (A) (A) (A) (A) (A)
                 (A) (A) (A) (A) (A) (A) (A) (A) (A) (A) (A) (A)
                 (A) (A) (A) (A) (A) (A) (A) (A) (A) (A) (A) (A)
                 (A) (A) (A) (A) (A) (A) (A) (A) (A) (A) (A) (A)
                 (A) (A) (A) (A) (A) (A) (A) (A) (A) (A) (A) (A)
                 (A) (A) (A) (A) (A) (A) (A) (A) (A) (A) (A) (A)
                 (A) (A) (A) (A) (A) (A) (A) (A) (A) (A) (A) (A)
                 (A) (A) (A) (A) (A) (A) (A) (A) (A) (A) (A) (A)
                 (A) (A) (A) (A) (A) (A) (A) (A) (A) (A) (A) (A)
                 (A) (A) (A) (A) (A) (A) (A) (A) (A) (A) (A) (A)
                 (A) (A) (A) (A) (A) (A) (A) (A) (A) (A) (A) (A)
                 (A) (A) (A) (A) (A) (A) (A) (A) (A) (A) (A) (A)
                 (A) (A) (A) (A) (A) (A) (A) (A) (A) (A) (A) (A)
                 (A) (A) (A) (A) (A) (A) (A) (A) (A) (A) (A) (A)
                 (A) (A) (A) (A) (A) (A) (A) (A) (A) (A) (A) (A)
                 (A) (A) (A) (A) (A) (A) (A) (A) (A) (A) (A) (A)
                 (A) (A) (A) (A) (A) (A) (A) (A) (A) (A) (A) (A)
                 (A) (A) (A) (A) (A) (A) (A) (A) (A) (A) (A) (A)
                 (A) (A) (A) (A) (A) (A) (A) (A) (A) (A) (A) (A)
                 (A) (A) (A) (A) (A) (A) (A) (A) (A) (A) (A) (A)
                 (A) (A) (A) (A) (A) (A) (A) (A) (A) (A) (A) (A)
                 (A) (A) (A) (A) (A) (A) (A) (A) (A) (A) (A) (A)
                 (A) (A) (A) (A) (A) (A) (A) (A) (A) (A) (A) (A)
                 (A) (A) (A) (A) (A) (A) (A) (A) (A) (A) (A) (A)
                 (A) (A) (A) (A) (A) (A) (A) (A) (A) (A) (A) (A)
                 (A) (A) (A) (A) (A) (A) (A) (A) (A) (A) (A) (A)
                 (A) (A) (A) (A) (A) (A) (A) (A) (A) (A) (A) (A)
                 (A) (A) (A) (A) (A) (A) (A) (A) (A) (A) (A) (A)
                 (A) (A) (A) (A) (A) (A) (A) (A) (A) (A) (A) (A)
                 (A) (A) (A) (A) (A) (A) (A) (A) (A) (A) (A) (A)
                 (A) (A) (A) (A) (A) (A) (A) (A) (A) (A) (A) (A)
                 (A) (A) (A) (A) (A) (A) (A) (A) (A) (A) (A) (A)
                 (A) (A) (A) (A) (A) (A) (A) (A) (A) (A) (A) (A)
                 (A) (A) (A) (A) (A) (A) (A) (A) (A) (A) (A) (A)
                 (A) (A) (A) (A) (A) (A) (A) (A) (A) (A) (A) (A)
                 (A) (A) (A) (A) (A) (A) (A) (A) (A) (A) (A) (A)
                 (A) (A) (A) (A) (A) (A) (A) (A) (A) (A) (A) (A)
                 (A) (A) (A) (A) (A) (A) (A) (A) (A) (A) (A) (A)
                 (A) (A) (A) (A) (A) (A) (A) (A) (A) (A) (A) (A)
                 (A) (A) (A) (A) (A) (A) (A) (A) (A) (A) (A) (A)
                 (A) (A) (A) (A) (A) (A) (A) (A) (A) (A) (A) (A)
                 (A) (A) (A) (A) (A) (A) (A) (A) (A) (A) (A) (A)
                 (A) (A) (A) (A) (A) (A) (A) (A) (A) (A) (A) (A)
                 (A) (A) (A) (A) (A) (A) (A) (A) (A) (A) (A) (A)
                 (A) (A) (A) (A) (A) (A) (A) (A) (A) (A) (A) (A)
                 (A) (A) (A) (A) (A) (A) (A) (A) (A) (A) (A) (A)
                 (A) (A) (A) (A) (A) (A) (A) (A) (A) (A) (A) (A)
                 (A) (A) (A) (A) (A) (A) (A) (A) (A) (A) (A) (A)
                 (A) (A) (A) (A) (A) (A) (A) (A) (A) (A) (A) (A)
                 (A) (A) (A) (A) (A) (A) (A) (A) (A) (A) (A) (A)
                 (A) (A) (A) (A) (A) (A) (A) (A) (A) (A) (A) (A)
                 (A) (A) (A) (A) (A) (A) (A) (A) (A) (A) (A) (A)
                 (A) (A) (A) (A) (A) (A) (A) (A) (A) (A) (A) (A)
                 (A) (A) (A) (A) (A) (A) (A) (A) (A) (A) (A) (A)
                 (A) (A) (A) (A) (A) (A) (A) (A) (A) (A) (A) (A)
                 (A) (A) (A) (A) (A) (A) (A) (A) (A) (A) (A) (A)
                 (A) (A) (A) (A) (A) (A) (A) (A) (A) (A) (A) (A)
                 (A) (A) (A) (A) (A) (A) (A) (A) (A) (A) (A) (A)
                 (A) (A) (A) (A) (A) (A) (A) (A) (A) (A) (A) (A)
                 (A) (A) (A) (A) (A) (A) (A) (A) (A) (A) (A) (A)
                 (A) (A) (A) (A) (A) (A) (A) (A) (A) (A) (A) (A)
                 (A) (A) (A) (A) (A) (A) (A) (A) (A) (A) (A) (A)
                 (A) (A) (A) (A) (A) (A) (A) (A) (A) (A) (A) (A)
                 (A) (A) (A) (A) (A) (A) (A) (A) (A) (A) (A) (A)
                 (A) (A) (A) (A) (A) (A) (A) (A) (A) (A) (A) (A)
                 (A) (A) (A) (A) (A) (A) (A) (A) (A) (A) (A) (A)
                 (A) (A) (A) (A) (A) (A) (A) (A) (A) (A) (A) (A)
                 (A) (A) (A) (A) (A) (A) (A) (A) (A) (A) (A) (A)
                 (A) (A) (A) (A) (A) (A) (A) (A) (A) (A) (A) (A)
                 (A) (A) (A) (A) (A) (A) (A) (A) (A) (A) (A) (A)
                 (A) (A) (A) (A) (A) (A) (A) (A) (A) (A) (A) (A)
                 (A) (A) (A) (A) (A) (A) (A) (A) (A) (A) (A) (A)
                 (A) (A) (A) (A) (A) (A) (A) (A) (A) (A) (A) (A)
                 (A) (A) (A) (A) (A) (A) (A) (A) (A) (A) (A) (A)
                 (A) (A) (A) (A) (A) (A) (A) (A) (A) (A) (A) (A)
                 (A) (A) (A) (A) (A) (A) (A) (A) (A) (A) (A) (A)
                 (A) (A) (A) (A) (A) (A) (A) (A) (A) (A) (A) (A)
                 (A) (A) (A) (A) (A) (A) (A) (A) (A) (A) (A) (A)
                 (A) (A) (A) (A) (A) (A) (A) (A) (A) (A) (A) (A)
                 (A) (A) (A) (A) (A) (A) (A) (A) (A) (A) (A) (A)
                 (A) (A) (A) (A) (A) (A) (A) (A) (A) (A) (A) (A)
                 (A) (A) (A) (A) (A) (A) (A) (A) (A) (A) (A) (A)
                 (A) (A) (A) (A) (A) (A) (A) (A) (A) (A) (A) (A)
                 (A) (A) (A) (A) (A) (A) (A) (A) (A) (A) (A) (A)
                 (A) (A) (A) (A) (A) (A) (A) (A) (A) (A) (A) (A)
                 (A) (A) (A) (A) (A) (A) (A) (A) (A) (A) (A) (A)
                 (A) (A) (A) (A) (A) (A) (A) (A) (A) (A) (A) (A)
                 (A) (A) (A) (A) (A) (A) (A) (A) (A) (A) (A) (A)
                 (A) (A) (A) (A) (A) (A) (A) (A) (A) (A) (A) (A)
                 (A) (A) (A) (A) (A) (A) (A) (A) (A) (A) (A) (A)
                 (A) (A) (A) (A) (A) (A) (A) (A) (A) (A) (A) (A)
                 (A) (A) (A) (A) (A) (A) (A) (A) (A) (A) (A) (A)
                 (A) (A) (A) (A) (A) (A) (A) (A) (A) (A) (A) (A)
                 (A) (A) (A) (A) (A) (A) (A) (A) (A) (A) (A) (A)
                 (A) (A) (A) (A) (A) (A) (A) (A) (A) (A) (A) (A)
                 (A) (A) (A) (A) (A) (A) (A) (A) (A) (A) (A) (A)
                 (A) (A) (A) (A) (A) (A) (A) (A) (A) (A) (A) (A)
                 (A) (A) (A) (A) (A) (A) (A) (A) (A) (A) (A) (A)
                 (A) (A) (A) (A) (A) (A) (A) (A) (A) (A) (A) (A)
                 (A) (A) (A) (A) (A) (A) (A) (A) (A) (A) (A) (A)
                 (A) (A) (A) (A) (A) (A) (A) (A) (A) (A) (A) (A)
                 (A) (A) (A) (A) (A) (A) (A) (A) (A) (A) (A) (A)
                 (A) (A) (A) (A) (A) (A) (A) (A) (A) (A) (A) (A)
                 (A) (A) (A) (A) (A) (A) (A) (A) (A) (A) (A) (A)
                 (A) (A) (A) (A) (A) (A) (A) (A) (A) (A) (A) (A)
                 (A) (A) (A) (A) (A) (A) (A) (A) (A) (A) (A) (A)
                 (A) (A) (A) (A) (A) (A) (A) (A) (A) (A) (A) (A)
                 (A) (A) (A) (A) (A) (A) (A) (A) (A) (A) (A) (A)
                 (A) (A) (A) (A) (A) (A) (A) (A) (A) (A) (A) (A)
                 (A) (A) (A) (A) (A) (A) (A) (A) (A) (A) (A) (A)
                 (A) (A) (A) (A) (A) (A) (A) (A) (A) (A) (A) (A)
                 (A) (A) (A) (A) (A) (A) (A) (A) (A) (A) (A) (A)
                 (A) (A) (A) (A) (A) (A) (A) (A) (A) (A) (A) (A)
                 (A) (A) (A) (A) (A) (A) (A) (A) (A) (A) (A) (A)
                 (A) (A) (A) (A) (A) (A) (A) (A) (A) (A) (A) (A)
                 (A) (A) (A) (A) (A) (A) (A) (A) (A) (A) (A) (A)
                 (A) (A) (A) (A) (A) (A) (A) (A) (A) (A) (A) (A)
                 (A) (A) (A) (A) (A)
 The electronic state is 2-A.
 Alpha  occ. eigenvalues --  -25.19760 -25.19507 -19.67828 -19.67826 -19.67028
 Alpha  occ. eigenvalues --  -19.66879 -19.66876 -19.66827 -19.66142 -19.66087
 Alpha  occ. eigenvalues --  -15.01300 -15.00415 -15.00314 -14.99671 -14.77428
 Alpha  occ. eigenvalues --  -14.77257 -10.61794 -10.61773 -10.60741 -10.60692
 Alpha  occ. eigenvalues --  -10.59504 -10.59171 -10.59064 -10.58873 -10.58730
 Alpha  occ. eigenvalues --  -10.58649 -10.58596 -10.57954 -10.57897 -10.57843
 Alpha  occ. eigenvalues --  -10.57838 -10.57314 -10.57204 -10.57149 -10.56967
 Alpha  occ. eigenvalues --  -10.56965 -10.56625 -10.56438 -10.56225 -10.56171
 Alpha  occ. eigenvalues --  -10.56047 -10.55701 -10.55614 -10.55464 -10.54901
 Alpha  occ. eigenvalues --  -10.54497 -10.53857 -10.53660 -10.53568  -7.12146
 Alpha  occ. eigenvalues --   -1.36804  -1.35479  -1.35410  -1.34445  -1.31578
 Alpha  occ. eigenvalues --   -1.28325  -1.18314  -1.16970  -1.16930  -1.16032
 Alpha  occ. eigenvalues --   -1.09800  -1.07703  -1.01269  -1.00691  -0.99830
 Alpha  occ. eigenvalues --   -0.94952  -0.94545  -0.93409  -0.92131  -0.90833
 Alpha  occ. eigenvalues --   -0.90176  -0.89761  -0.88785  -0.87488  -0.87300
 Alpha  occ. eigenvalues --   -0.86836  -0.83544  -0.82754  -0.81638  -0.80175
 Alpha  occ. eigenvalues --   -0.79590  -0.79366  -0.77176  -0.73825  -0.72365
 Alpha  occ. eigenvalues --   -0.72015  -0.71063  -0.70889  -0.69818  -0.69291
 Alpha  occ. eigenvalues --   -0.68315  -0.67513  -0.66183  -0.65909  -0.65773
 Alpha  occ. eigenvalues --   -0.65155  -0.64686  -0.63382  -0.63293  -0.62821
 Alpha  occ. eigenvalues --   -0.62392  -0.62341  -0.61943  -0.61841  -0.61540
 Alpha  occ. eigenvalues --   -0.61340  -0.60604  -0.59943  -0.59783  -0.59460
 Alpha  occ. eigenvalues --   -0.57957  -0.57679  -0.57427  -0.56629  -0.55365
 Alpha  occ. eigenvalues --   -0.55192  -0.54458  -0.53764  -0.53462  -0.53170
 Alpha  occ. eigenvalues --   -0.52382  -0.52176  -0.51896  -0.51589  -0.51509
 Alpha  occ. eigenvalues --   -0.51226  -0.51076  -0.50645  -0.49631  -0.48916
 Alpha  occ. eigenvalues --   -0.48592  -0.47874  -0.47533  -0.47465  -0.46992
 Alpha  occ. eigenvalues --   -0.46896  -0.46841  -0.46428  -0.46189  -0.46043
 Alpha  occ. eigenvalues --   -0.45762  -0.45220  -0.44667  -0.43768  -0.43559
 Alpha  occ. eigenvalues --   -0.43533  -0.43115  -0.42527  -0.42055  -0.41247
 Alpha  occ. eigenvalues --   -0.40993  -0.40909  -0.40511  -0.40310  -0.40055
 Alpha  occ. eigenvalues --   -0.39898  -0.39666  -0.39622  -0.39239  -0.39029
 Alpha  occ. eigenvalues --   -0.38895  -0.38754  -0.38694  -0.38323  -0.38079
 Alpha  occ. eigenvalues --   -0.36169  -0.34659  -0.33751  -0.33500  -0.33404
 Alpha  occ. eigenvalues --   -0.32504  -0.31946  -0.30741  -0.29221  -0.23956
 Alpha  occ. eigenvalues --   -0.18973
 Alpha virt. eigenvalues --   -0.09120  -0.07509  -0.07123  -0.06892  -0.01907
 Alpha virt. eigenvalues --   -0.00464  -0.00266   0.00616   0.01463   0.02438
 Alpha virt. eigenvalues --    0.05295   0.05817   0.05892   0.07933   0.08051
 Alpha virt. eigenvalues --    0.08419   0.08530   0.08859   0.09195   0.09597
 Alpha virt. eigenvalues --    0.09921   0.10261   0.10766   0.11139   0.11293
 Alpha virt. eigenvalues --    0.11574   0.11829   0.11945   0.12285   0.13047
 Alpha virt. eigenvalues --    0.13209   0.13402   0.13705   0.13836   0.14326
 Alpha virt. eigenvalues --    0.15022   0.15367   0.15700   0.15817   0.16021
 Alpha virt. eigenvalues --    0.16381   0.16713   0.16957   0.17207   0.17279
 Alpha virt. eigenvalues --    0.17595   0.17875   0.18499   0.18648   0.18778
 Alpha virt. eigenvalues --    0.18943   0.19222   0.20118   0.20330   0.20560
 Alpha virt. eigenvalues --    0.20907   0.21005   0.21584   0.21676   0.21947
 Alpha virt. eigenvalues --    0.21999   0.22316   0.22718   0.22872   0.23135
 Alpha virt. eigenvalues --    0.23236   0.23337   0.23475   0.23719   0.23940
[...]
     9 C(13)  Bbb    -0.0284    -3.805    -1.358    -1.269  0.8972 -0.4161 -0.1478
              Bcc     0.0623     8.363     2.984     2.789  0.1826  0.0449  0.9822
 
              Baa    -0.0431    -5.787    -2.065    -1.930  0.1989  0.9776 -0.0692
    10 C(13)  Bbb    -0.0349    -4.689    -1.673    -1.564  0.9617 -0.2083 -0.1780
              Bcc     0.0781    10.476     3.738     3.494  0.1884  0.0311  0.9816
 
              Baa    -0.0245    -0.947    -0.338    -0.316  0.1930  0.9786 -0.0719
    11 N(14)  Bbb    -0.0213    -0.823    -0.294    -0.275  0.9705 -0.2012 -0.1327
              Bcc     0.0459     1.770     0.632     0.590  0.1443  0.0442  0.9885
 
              Baa    -0.0730     5.281     1.884     1.761 -0.2047  0.9788  0.0093
    12 O(17)  Bbb    -0.0698     5.053     1.803     1.686  0.9657  0.2035 -0.1612
              Bcc     0.1428   -10.334    -3.687    -3.447  0.1597  0.0240  0.9869
 
              Baa    -0.1132     8.191     2.923     2.732  0.8100  0.5611 -0.1706
    13 O(17)  Bbb    -0.1072     7.760     2.769     2.589 -0.5505  0.8277  0.1087
              Bcc     0.2204   -15.952    -5.692    -5.321  0.2022  0.0058  0.9793
 
              Baa    -0.0396    -5.320    -1.898    -1.774  0.1220 -0.0125  0.9924
    14 C(13)  Bbb     0.0163     2.193     0.783     0.732  0.6333  0.7709 -0.0682
              Bcc     0.0233     3.127     1.116     1.043  0.7642 -0.6368 -0.1020
 
              Baa    -0.0331    -4.436    -1.583    -1.480  0.9919  0.1051 -0.0712
    15 C(13)  Bbb    -0.0300    -4.026    -1.437    -1.343 -0.0909  0.9795  0.1797
              Bcc     0.0631     8.462     3.019     2.823  0.0887 -0.1718  0.9811
 
              Baa    -0.0204    -0.786    -0.280    -0.262 -0.6404  0.3650  0.6757
    16 N(14)  Bbb    -0.0178    -0.686    -0.245    -0.229  0.3840  0.9142 -0.1300
              Bcc     0.0382     1.472     0.525     0.491  0.6652 -0.1762  0.7256
 
              Baa    -0.0835     6.040     2.155     2.015  0.0809  0.9890 -0.1242
    17 O(17)  Bbb    -0.0819     5.923     2.114     1.976  0.7958 -0.1391 -0.5894
              Bcc     0.1653   -11.964    -4.269    -3.991  0.6002  0.0511  0.7982
 
              Baa    -0.0365     2.640     0.942     0.881  0.2581  0.9490  0.1811
    18 O(17)  Bbb    -0.0342     2.474     0.883     0.825 -0.7001  0.0545  0.7120
              Bcc     0.0707    -5.114    -1.825    -1.706  0.6658 -0.3105  0.6785
 
              Baa    -0.1069    -4.123    -1.471    -1.375  0.1227  0.9908 -0.0575
    19 N(14)  Bbb    -0.0965    -3.723    -1.329    -1.242  0.9914 -0.1249 -0.0379
              Bcc     0.2034     7.846     2.800     2.617  0.0447  0.0523  0.9976
 
              Baa    -0.1144   -15.352    -5.478    -5.121  0.0370  0.1011  0.9942
    20 C(13)  Bbb     0.0506     6.793     2.424     2.266  0.5742  0.8121 -0.1040
              Bcc     0.0638     8.559     3.054     2.855  0.8179 -0.5747  0.0280
 
              Baa    -0.1536   -20.606    -7.353    -6.874  0.1659  0.9833 -0.0747
    21 C(13)  Bbb    -0.1479   -19.848    -7.082    -6.621  0.9861 -0.1659  0.0058
              Bcc     0.3015    40.455    14.435    13.494  0.0066  0.0746  0.9972
 
              Baa    -0.0063    -0.845    -0.301    -0.282 -0.0680  0.8940 -0.4429
    22 C(13)  Bbb     0.0019     0.255     0.091     0.085  0.9933  0.1022  0.0536
              Bcc     0.0044     0.590     0.210     0.197 -0.0932  0.4363  0.8950
 
              Baa    -0.0069    -0.925    -0.330    -0.308 -0.5291  0.0598  0.8464
    23 C(13)  Bbb    -0.0046    -0.618    -0.221    -0.206 -0.5127  0.7723 -0.3750
              Bcc     0.0115     1.543     0.550     0.515  0.6762  0.6324  0.3780
 
              Baa    -0.0036    -0.478    -0.171    -0.160 -0.0589  0.9605 -0.2721
    24 C(13)  Bbb    -0.0004    -0.051    -0.018    -0.017 -0.1882  0.2570  0.9479
              Bcc     0.0039     0.529     0.189     0.176  0.9804  0.1071  0.1657
 
              Baa    -0.0024    -0.324    -0.116    -0.108 -0.0260  0.2968  0.9546
    25 C(13)  Bbb    -0.0006    -0.086    -0.031    -0.029  0.9957  0.0924 -0.0016
              Bcc     0.0031     0.410     0.146     0.137 -0.0887  0.9505 -0.2979
 
              Baa    -0.0003    -0.011    -0.004    -0.004  0.0995 -0.3154  0.9437
    26 N(14)  Bbb    -0.0002    -0.007    -0.002    -0.002 -0.1989  0.9230  0.3294
              Bcc     0.0005     0.018     0.006     0.006  0.9750  0.2204 -0.0291
 
              Baa    -0.0020     0.147     0.053     0.049  0.4678 -0.1178  0.8760
    27 O(17)  Bbb    -0.0012     0.090     0.032     0.030  0.8472 -0.2227 -0.4824
              Bcc     0.0033    -0.237    -0.085    -0.079  0.2519  0.9678 -0.0043
 
              Baa    -0.0024     0.177     0.063     0.059 -0.2838 -0.0507  0.9576
    28 O(17)  Bbb    -0.0018     0.129     0.046     0.043  0.8999  0.3308  0.2842
              Bcc     0.0042    -0.306    -0.109    -0.102 -0.3312  0.9423 -0.0483
 
              Baa    -0.0032    -0.428    -0.153    -0.143 -0.3521  0.9164 -0.1901
    29 C(13)  Bbb    -0.0008    -0.108    -0.039    -0.036  0.1808  0.2659  0.9469
              Bcc     0.0040     0.535     0.191     0.179  0.9183  0.2990 -0.2594
 
              Baa    -0.0067    -0.898    -0.320    -0.300  0.5679  0.0802  0.8192
    30 C(13)  Bbb    -0.0042    -0.562    -0.201    -0.188  0.3030  0.9050 -0.2987
              Bcc     0.0109     1.460     0.521     0.487  0.7653 -0.4179 -0.4896
 
              Baa    -0.0694    -9.315    -3.324    -3.107 -0.0634  0.0946  0.9935
    31 C(13)  Bbb     0.0319     4.279     1.527     1.427  0.9085 -0.4066  0.0967
              Bcc     0.0375     5.037     1.797     1.680  0.4131  0.9087 -0.0602
 
              Baa    -0.0654    -8.777    -3.132    -2.928  0.7846  0.6190 -0.0343
    32 C(13)  Bbb    -0.0632    -8.474    -3.024    -2.827 -0.6165  0.7733 -0.1482
              Bcc     0.1286    17.251     6.156     5.754 -0.0652  0.1374  0.9884
 
              Baa    -0.0018    -0.238    -0.085    -0.079  0.6513  0.7510 -0.1084
    33 C(13)  Bbb     0.0006     0.087     0.031     0.029  0.7543 -0.6564 -0.0159
              Bcc     0.0011     0.151     0.054     0.050  0.0831  0.0715  0.9940
 
              Baa    -0.0518    -6.955    -2.482    -2.320 -0.0451  0.1113  0.9928
    34 C(13)  Bbb     0.0252     3.387     1.209     1.130 -0.0862  0.9896 -0.1148
              Bcc     0.0266     3.568     1.273     1.190  0.9953  0.0907  0.0350
 
              Baa    -0.0753   -10.105    -3.606    -3.371  0.1729  0.9816 -0.0808
    35 C(13)  Bbb    -0.0717    -9.616    -3.431    -3.207  0.9819 -0.1654  0.0926
              Bcc     0.1470    19.720     7.037     6.578 -0.0775  0.0954  0.9924
 
              Baa    -0.0599    -8.039    -2.869    -2.682 -0.1318  0.1714  0.9764
    36 C(13)  Bbb     0.0250     3.359     1.199     1.120 -0.0951  0.9782 -0.1846
              Bcc     0.0349     4.680     1.670     1.561  0.9867  0.1171  0.1126
 
              Baa    -0.0649    -8.706    -3.107    -2.904  0.8576 -0.4553  0.2391
    37 C(13)  Bbb    -0.0598    -8.024    -2.863    -2.677  0.4927  0.8606 -0.1285
              Bcc     0.1247    16.730     5.970     5.581 -0.1473  0.2281  0.9624
 
              Baa    -0.0221    -2.970    -1.060    -0.991 -0.1058  0.1726  0.9793
    38 C(13)  Bbb     0.0085     1.140     0.407     0.380 -0.6528  0.7308 -0.1993
              Bcc     0.0136     1.830     0.653     0.610  0.7501  0.6604 -0.0354
 
              Baa    -0.0158    -2.121    -0.757    -0.707 -0.5556  0.8146 -0.1663
    39 C(13)  Bbb    -0.0135    -1.808    -0.645    -0.603  0.8294  0.5572 -0.0415
              Bcc     0.0293     3.929     1.402     1.311 -0.0588  0.1610  0.9852
 
              Baa    -0.0102    -1.365    -0.487    -0.455 -0.0678  0.1646  0.9840
    40 C(13)  Bbb     0.0037     0.494     0.176     0.165 -0.6437  0.7464 -0.1692
              Bcc     0.0065     0.870     0.311     0.290  0.7623  0.6448 -0.0553
 
              Baa    -0.0212    -2.846    -1.015    -0.949 -0.5160  0.8359 -0.1873
    41 C(13)  Bbb    -0.0184    -2.464    -0.879    -0.822  0.8514  0.5245 -0.0047
              Bcc     0.0396     5.309     1.895     1.771 -0.0943  0.1618  0.9823
 
              Baa    -0.0023    -0.089    -0.032    -0.030 -0.6090  0.7712 -0.1857
    42 N(14)  Bbb    -0.0016    -0.062    -0.022    -0.021  0.7906  0.6091 -0.0630
              Bcc     0.0039     0.151     0.054     0.050 -0.0645  0.1852  0.9806
 
              Baa    -0.0246     1.778     0.634     0.593  0.9303 -0.3364  0.1465
    43 O(17)  Bbb    -0.0235     1.704     0.608     0.568  0.3537  0.9283 -0.1146
              Bcc     0.0481    -3.482    -1.242    -1.161 -0.0974  0.1585  0.9825
 
              Baa    -0.0262     1.899     0.678     0.634  0.2519  0.9575 -0.1402
    44 O(17)  Bbb    -0.0255     1.847     0.659     0.616  0.9640 -0.2355  0.1236
              Bcc     0.0518    -3.746    -1.337    -1.250 -0.0854  0.1663  0.9824
 
              Baa    -0.0123    -1.657    -0.591    -0.553 -0.0933  0.1538  0.9837
    45 C(13)  Bbb     0.0051     0.680     0.243     0.227 -0.3338  0.9260 -0.1764
              Bcc     0.0073     0.977     0.349     0.326  0.9380  0.3448  0.0351
 
              Baa    -0.0156    -2.090    -0.746    -0.697 -0.5273  0.8345 -0.1602
    46 C(13)  Bbb    -0.0143    -1.925    -0.687    -0.642  0.8451  0.5345  0.0027
              Bcc     0.0299     4.014     1.432     1.339 -0.0879  0.1340  0.9871
 
              Baa    -0.0192    -0.741    -0.265    -0.247  0.0350  0.9994 -0.0060
    47 N(14)  Bbb    -0.0109    -0.419    -0.149    -0.140  0.9882 -0.0337  0.1497
              Bcc     0.0301     1.160     0.414     0.387 -0.1494  0.0111  0.9887
 
              Baa    -0.0024    -0.407    -0.145    -0.136 -0.0917  0.2654  0.9598
    48 B(11)  Bbb    -0.0008    -0.135    -0.048    -0.045  0.8997 -0.3909  0.1941
              Bcc     0.0032     0.542     0.193     0.181  0.4267  0.8813 -0.2029
 
              Baa    -0.0079    -3.968    -1.416    -1.324  0.4210 -0.1681  0.8913
    49 F(19)  Bbb    -0.0043    -2.136    -0.762    -0.713  0.1151  0.9846  0.1313
              Bcc     0.0122     6.104     2.178     2.036  0.8997 -0.0473 -0.4339
 
              Baa    -0.0165    -8.263    -2.949    -2.756 -0.3228 -0.5114  0.7964
    50 F(19)  Bbb    -0.0129    -6.471    -2.309    -2.159  0.0026  0.8410  0.5410
              Bcc     0.0293    14.735     5.258     4.915  0.9465 -0.1767  0.2702
 
              Baa    -0.0009    -0.496    -0.177    -0.166 -0.2265 -0.0522  0.9726
    51 H(1)   Bbb    -0.0003    -0.160    -0.057    -0.053  0.8226 -0.5450  0.1623
              Bcc     0.0012     0.656     0.234     0.219  0.5216  0.8368  0.1664
 
              Baa    -0.0007    -0.350    -0.125    -0.117  0.1143  0.0851  0.9898
    52 H(1)   Bbb    -0.0004    -0.222    -0.079    -0.074  0.8735 -0.4832 -0.0594
              Bcc     0.0011     0.572     0.204     0.191  0.4732  0.8714 -0.1296
 
              Baa    -0.0010    -0.551    -0.197    -0.184  0.2238  0.2376  0.9452
    53 H(1)   Bbb    -0.0004    -0.206    -0.074    -0.069  0.8391 -0.5404 -0.0629
              Bcc     0.0014     0.758     0.270     0.253  0.4958  0.8072 -0.3203
 
              Baa    -0.0036    -1.898    -0.677    -0.633 -0.1049  0.9809 -0.1641
    54 H(1)   Bbb    -0.0013    -0.694    -0.248    -0.232  0.0194  0.1670  0.9858
              Bcc     0.0049     2.593     0.925     0.865  0.9943  0.1002 -0.0365
 
              Baa    -0.0031    -1.655    -0.591    -0.552 -0.5090  0.7147 -0.4797
    55 H(1)   Bbb    -0.0022    -1.166    -0.416    -0.389 -0.1905  0.4499  0.8725
              Bcc     0.0053     2.822     1.007     0.941  0.8394  0.5355 -0.0928
 
              Baa    -0.0046    -2.441    -0.871    -0.814 -0.5754  0.8168 -0.0419
    56 H(1)   Bbb    -0.0023    -1.227    -0.438    -0.409  0.2166  0.2016  0.9552
              Bcc     0.0069     3.668     1.309     1.224  0.7887  0.5406 -0.2929
 
              Baa    -0.0025    -1.319    -0.471    -0.440  0.0780  0.1370  0.9875
    57 H(1)   Bbb     0.0004     0.196     0.070     0.065 -0.2795  0.9538 -0.1103
              Bcc     0.0021     1.123     0.401     0.375  0.9570  0.2674 -0.1127
 
              Baa    -0.0037    -1.959    -0.699    -0.654  0.9314  0.3359 -0.1406
    58 H(1)   Bbb    -0.0017    -0.921    -0.329    -0.307  0.1327  0.0467  0.9901
              Bcc     0.0054     2.880     1.028     0.961 -0.3391  0.9408  0.0011
 
              Baa    -0.0025    -1.335    -0.476    -0.445  0.4969  0.3051  0.8124
    59 H(1)   Bbb    -0.0022    -1.179    -0.421    -0.393  0.5613  0.6010 -0.5690
              Bcc     0.0047     2.514     0.897     0.839 -0.6619  0.7387  0.1274
 
              Baa    -0.0023    -1.237    -0.441    -0.413  0.0329  0.8925 -0.4498
    60 H(1)   Bbb    -0.0009    -0.485    -0.173    -0.162  0.8489 -0.2625 -0.4587
              Bcc     0.0032     1.722     0.615     0.574  0.5275  0.3668  0.7663
 
              Baa    -0.0005    -0.279    -0.100    -0.093 -0.1231  0.9387 -0.3220
    61 H(1)   Bbb    -0.0004    -0.187    -0.067    -0.062 -0.3910  0.2523  0.8851
              Bcc     0.0009     0.466     0.166     0.156  0.9121  0.2349  0.3359
 
              Baa    -0.0005    -0.282    -0.101    -0.094 -0.2629  0.8228 -0.5039
    62 H(1)   Bbb    -0.0004    -0.208    -0.074    -0.069  0.3275  0.5673  0.7556
              Bcc     0.0009     0.490     0.175     0.164  0.9075  0.0336 -0.4186
 
              Baa    -0.0021    -1.096    -0.391    -0.366 -0.1945  0.9154 -0.3524
    63 H(1)   Bbb    -0.0010    -0.550    -0.196    -0.183  0.7919  0.3585  0.4943
              Bcc     0.0031     1.646     0.587     0.549 -0.5789  0.1829  0.7946
 
              Baa    -0.0018    -0.964    -0.344    -0.322 -0.4152  0.0010  0.9097
    64 H(1)   Bbb    -0.0005    -0.259    -0.092    -0.086  0.2156  0.9716  0.0973
              Bcc     0.0023     1.223     0.436     0.408  0.8838 -0.2365  0.4036
 
              Baa    -0.0017    -0.881    -0.314    -0.294  0.3888  0.2608  0.8836
    65 H(1)   Bbb    -0.0007    -0.392    -0.140    -0.131  0.2079  0.9095 -0.3600
              Bcc     0.0024     1.272     0.454     0.424  0.8975 -0.3237 -0.2994
 
              Baa    -0.0013    -0.685    -0.244    -0.228  0.7212  0.5369 -0.4377
    66 H(1)   Bbb    -0.0011    -0.576    -0.205    -0.192  0.2403  0.3987  0.8850
              Bcc     0.0024     1.260     0.450     0.420 -0.6497  0.7434 -0.1586
 
              Baa    -0.0017    -0.894    -0.319    -0.298 -0.1161 -0.4078  0.9057
    67 H(1)   Bbb    -0.0015    -0.803    -0.287    -0.268  0.0693  0.9063  0.4169
              Bcc     0.0032     1.697     0.606     0.566  0.9908 -0.1112  0.0770
 
              Baa    -0.0030    -1.585    -0.565    -0.529 -0.3507  0.9364 -0.0152
    68 H(1)   Bbb    -0.0018    -0.967    -0.345    -0.322 -0.0568 -0.0050  0.9984
              Bcc     0.0048     2.551     0.910     0.851  0.9348  0.3510  0.0549
 
              Baa    -0.0072    -3.853    -1.375    -1.285  0.9890  0.0682  0.1314
    69 H(1)   Bbb    -0.0016    -0.873    -0.311    -0.291 -0.1423  0.1929  0.9708
              Bcc     0.0089     4.726     1.686     1.576 -0.0409  0.9788 -0.2005
 
              Baa    -0.0015    -0.811    -0.289    -0.271 -0.0608  0.1039  0.9927
    70 H(1)   Bbb    -0.0009    -0.492    -0.175    -0.164  0.9978 -0.0202  0.0632
              Bcc     0.0024     1.303     0.465     0.434  0.0266  0.9944 -0.1025
 
              Baa    -0.0009    -0.505    -0.180    -0.168 -0.0467  0.0549  0.9974
    71 H(1)   Bbb    -0.0004    -0.222    -0.079    -0.074  0.7302 -0.6795  0.0716
              Bcc     0.0014     0.727     0.260     0.243  0.6817  0.7316 -0.0083
 
              Baa    -0.0008    -0.419    -0.149    -0.140 -0.0896  0.1382  0.9863
    72 H(1)   Bbb    -0.0003    -0.165    -0.059    -0.055 -0.1830  0.9712 -0.1527
              Bcc     0.0011     0.584     0.208     0.195  0.9790  0.1942  0.0617
 
              Baa    -0.0012    -0.619    -0.221    -0.207  0.5879  0.8082  0.0341
    73 H(1)   Bbb    -0.0009    -0.467    -0.167    -0.156 -0.1446  0.0635  0.9875
              Bcc     0.0020     1.087     0.388     0.362  0.7959 -0.5854  0.1542
 

 ---------------------------------------------------------------------------------

 No NMR shielding tensors so no spin-rotation constants.
 Leave Link  601 at Sat Oct 25 03:21:52 2025, MaxMem= 30870077440 cpu:             184.6 elap:               3.2
 (Enter /public/software/gauss/g16/l9999.exe)
 1\1\GINC-CU056\SP\UM062X\def2TZVPP\C33H23B1F2N6O8(1-,2)\BAIDING\25-Oct
 -2025\0\\#p M062X/DEF2TZVPP scrf=(solvent=water) em=GD3\\Energy calcul
 ation for BNP_24NO2_NO2_reduced\\-1,2\C,0,-4.387464,-3.159129,0.287737
 \C,0,-3.048497,-2.496328,0.171715\C,0,-1.839357,-3.157296,0.220702\C,0
 ,-0.78738,-2.206833,0.074791\C,0,0.617005,-2.37654,0.039475\C,0,1.2766
 21,-3.554699,0.310858\C,0,2.676085,-3.834405,0.260226\C,0,3.028073,-5.
 222797,0.261016\C,0,4.298404,-5.692538,0.044369\C,0,5.338989,-4.762394
 ,-0.185389\N,0,6.666716,-5.213409,-0.429787\O,0,6.887109,-6.444202,-0.
 438395\O,0,7.573296,-4.376598,-0.634769\C,0,5.084447,-3.396014,-0.1387
 39\C,0,3.798505,-2.934536,0.118141\N,0,3.723985,-1.505635,0.34058\O,0,
 4.537926,-0.765548,-0.246079\O,0,2.887043,-1.058502,1.143614\N,0,-1.36
 3636,-0.962819,-0.057694\C,0,-2.740055,-1.0898,0.000003\C,0,-3.556989,
 0.050604,-0.076289\C,0,-5.042216,-0.095764,-0.049413\C,0,-5.740417,-0.
 483885,-1.204424\C,0,-7.123895,-0.620879,-1.18608\C,0,-7.802408,-0.371
 346,0.007168\N,0,-9.25374,-0.515718,0.036615\O,0,-9.847122,-0.295229,1
 .098149\O,0,-9.834181,-0.852913,-1.001107\C,0,-7.138742,0.011832,1.173
 19\C,0,-5.756011,0.151096,1.134741\C,0,-2.979286,1.344471,-0.168921\C,
 0,-3.589554,2.630609,-0.353238\C,0,-5.038188,2.992395,-0.499749\C,0,-2
 .547605,3.544837,-0.396848\C,0,-1.319309,2.863916,-0.235482\C,0,-0.053
 024,3.536076,-0.20372\C,0,1.190366,3.040918,0.066316\C,0,2.429479,3.78
 991,0.059181\C,0,3.634225,3.076549,0.288509\C,0,4.86171,3.714039,0.297
 19\C,0,4.908684,5.096832,0.076051\N,0,6.178989,5.771321,0.085519\O,0,7
 .2101,5.108871,0.297562\O,0,6.209793,6.99813,-0.118174\C,0,3.739042,5.
 836582,-0.155249\C,0,2.519011,5.187589,-0.16283\N,0,-1.598132,1.517695
 ,-0.11019\B,0,-0.583557,0.363917,-0.006274\F,0,0.333334,0.418839,-1.07
 3179\F,0,0.130312,0.43734,1.208533\H,0,-4.960142,-3.095038,-0.643003\H
 ,0,-4.252336,-4.217278,0.526673\H,0,-5.001678,-2.708438,1.073215\H,0,-
 1.70477,-4.225043,0.330061\H,0,1.180005,-1.497805,-0.233011\H,0,0.6682
 79,-4.427351,0.537989\H,0,2.223996,-5.937633,0.402772\H,0,4.507413,-6.
 754084,0.03375\H,0,5.894135,-2.689696,-0.254393\H,0,-5.195617,-0.67414
 7,-2.122725\H,0,-7.669147,-0.913807,-2.07403\H,0,-7.694604,0.19461,2.0
 83795\H,0,-5.222666,0.448921,2.030965\H,0,-5.534576,2.409355,-1.281103
 \H,0,-5.601778,2.833601,0.425331\H,0,-5.122823,4.050267,-0.763094\H,0,
 -2.642138,4.615404,-0.52579\H,0,-0.153699,4.596469,-0.423459\H,0,1.303
 819,1.99729,0.32172\H,0,3.591572,2.002246,0.447388\H,0,5.776295,3.1612
 83,0.469874\H,0,3.80093,6.904274,-0.322751\H,0,1.622007,5.770857,-0.33
 8753\\Version=ES64L-G16RevA.03\State=2-A\HF=-2426.1702978\S2=0.832686\
 S2-1=0.\S2A=0.753835\RMSD=4.711e-09\Dipole=-7.9831924,-0.5501567,-0.00
 84153\Quadrupole=-108.9519634,37.0279051,71.9240582,-2.8150954,6.67306
 54,-6.7994094\PG=C01 [X(C33H23B1F2N6O8)]\\@


 SOME PHYSICISTS WOULD PREFER TO COME BACK TO THE IDEA OF AN OBJECTIVE
 REAL WORLD WHOSE SMALLEST PARTS EXIST OBJECTIVELY IN THE SAME SENSE AS
 STONES OR TREES EXIST INDEPENDENTLY OF WHETHER WE OBSERVE THEM.
 THIS, HOWEVER, IS IMPOSSIBLE.  -- WERNER HEISENBERG
 Job cpu time:       1 days 21 hours 44 minutes 15.8 seconds.
 Elapsed time:       0 days  0 hours 43 minutes 21.4 seconds.
 File lengths (MBytes):  RWF=   3736 Int=      0 D2E=      0 Chk=    244 Scr=      1
 Normal termination of Gaussian 16 at Sat Oct 25 03:21:53 2025.
