 Entering Gaussian System, Link 0=g16
 Input=BNP_CN_CN_sp.gjf
 Output=BNP_CN_CN_sp.log
 Initial command:
 /public/software/gauss/g16/l1.exe "/public/home/baiding/1030_BNP_sp/tmp_BNP_CN_CN_sp_1546485/Gau-374604.inp" -scrdir="/public/home/baiding/1030_BNP_sp/tmp_BNP_CN_CN_sp_1546485/"
 Entering Link 1 = /public/software/gauss/g16/l1.exe PID=    374605.
  
 Copyright (c) 1988,1990,1992,1993,1995,1998,2003,2009,2016,
            Gaussian, Inc.  All Rights Reserved.
  
 This is part of the Gaussian(R) 16 program.  It is based on
 the Gaussian(R) 09 system (copyright 2009, Gaussian, Inc.),
 the Gaussian(R) 03 system (copyright 2003, Gaussian, Inc.),
 the Gaussian(R) 98 system (copyright 1998, Gaussian, Inc.),
 the Gaussian(R) 94 system (copyright 1995, Gaussian, Inc.),
 the Gaussian 92(TM) system (copyright 1992, Gaussian, Inc.),
 the Gaussian 90(TM) system (copyright 1990, Gaussian, Inc.),
 the Gaussian 88(TM) system (copyright 1988, Gaussian, Inc.),
 the Gaussian 86(TM) system (copyright 1986, Carnegie Mellon
 University), and the Gaussian 82(TM) system (copyright 1983,
 Carnegie Mellon University). Gaussian is a federally registered
 trademark of Gaussian, Inc.
  
 This software contains proprietary and confidential information,
 including trade secrets, belonging to Gaussian, Inc.
  
 This software is provided under written license and may be
 used, copied, transmitted, or stored only in accord with that
 written license.
  
 The following legend is applicable only to US Government
 contracts under FAR:
  
                    RESTRICTED RIGHTS LEGEND
  
 Use, reproduction and disclosure by the US Government is
 subject to restrictions as set forth in subparagraphs (a)
 and (c) of the Commercial Computer Software - Restricted
 Rights clause in FAR 52.227-19.
  
 Gaussian, Inc.
 340 Quinnipiac St., Bldg. 40, Wallingford CT 06492
  
  
 ---------------------------------------------------------------
 Warning -- This program may not be used in any manner that
 competes with the business of Gaussian, Inc. or will provide
 assistance to any competitor of Gaussian, Inc.  The licensee
 of this program is prohibited from giving any competitor of
 Gaussian, Inc. access to this program.  By using this program,
 the user acknowledges that Gaussian, Inc. is engaged in the
 business of creating and licensing software in the field of
 computational chemistry and represents and warrants to the
 licensee that it is not a competitor of Gaussian, Inc. and that
 it will not use this program in any manner prohibited above.
 ---------------------------------------------------------------
  

 Cite this work as:
 Gaussian 16, Revision A.03,
 M. J. Frisch, G. W. Trucks, H. B. Schlegel, G. E. Scuseria, 
 M. A. Robb, J. R. Cheeseman, G. Scalmani, V. Barone, 
 G. A. Petersson, H. Nakatsuji, X. Li, M. Caricato, A. V. Marenich, 
 J. Bloino, B. G. Janesko, R. Gomperts, B. Mennucci, H. P. Hratchian, 
 J. V. Ortiz, A. F. Izmaylov, J. L. Sonnenberg, D. Williams-Young, 
 F. Ding, F. Lipparini, F. Egidi, J. Goings, B. Peng, A. Petrone, 
 T. Henderson, D. Ranasinghe, V. G. Zakrzewski, J. Gao, N. Rega, 
 G. Zheng, W. Liang, M. Hada, M. Ehara, K. Toyota, R. Fukuda, 
 J. Hasegawa, M. Ishida, T. Nakajima, Y. Honda, O. Kitao, H. Nakai, 
 T. Vreven, K. Throssell, J. A. Montgomery, Jr., J. E. Peralta, 
 F. Ogliaro, M. J. Bearpark, J. J. Heyd, E. N. Brothers, K. N. Kudin, 
 V. N. Staroverov, T. A. Keith, R. Kobayashi, J. Normand, 
 K. Raghavachari, A. P. Rendell, J. C. Burant, S. S. Iyengar, 
 J. Tomasi, M. Cossi, J. M. Millam, M. Klene, C. Adamo, R. Cammi, 
 J. W. Ochterski, R. L. Martin, K. Morokuma, O. Farkas, 
 J. B. Foresman, and D. J. Fox, Gaussian, Inc., Wallingford CT, 2016.
 
 ******************************************
 Gaussian 16:  ES64L-G16RevA.03 25-Dec-2016
                31-Oct-2025 
 ******************************************
 %nprocshared=64
 Will use up to   64 processors via shared memory.
 %mem=230GB
 %chk=BNP_CN_CN_sp.chk
 ----------------------------------------------
 #p M062X/DEF2TZVPP scrf=(solvent=water) em=GD3
 ----------------------------------------------
 1/38=1,172=1/1;
 2/12=2,17=6,18=5,40=1/2;
 3/5=44,7=202,11=2,25=1,30=1,70=2201,72=1,74=-55,124=31/1,2,3;
 4//1;
 5/5=2,38=5,53=1/2;
 6/7=2,8=2,9=2,10=2,28=1/1;
 99/5=1,9=1/99;
 Leave Link    1 at Fri Oct 31 00:21:27 2025, MaxMem= 30870077440 cpu:              10.3 elap:               0.2
 (Enter /public/software/gauss/g16/l101.exe)
 --------------------------------
 Energy calculation for BNP_CN_CN
 --------------------------------
 Symbolic Z-matrix:
 Charge =  0 Multiplicity = 1
 C                    -3.89734   3.10568  -0.11746 
 C                    -2.49368   2.58348  -0.08204 
 C                    -1.36304   3.38068  -0.10154 
 C                    -0.21767   2.54593  -0.07098 
 C                     1.17388   2.92056  -0.08389 
 C                     1.60353   4.20242   0.01897 
 C                     2.99198   4.6487    0.00305 
 C                     3.25276   6.02932   0.13191 
 C                     4.54935   6.52347   0.1257 
 C                     5.62854   5.63346  -0.01156 
 C                     6.96795   6.12938  -0.01953 
 N                     8.0624    6.53402  -0.02609 
 C                     5.38981   4.25123  -0.14127 
 C                     4.09039   3.77088  -0.13352 
 N                    -0.62962   1.24589  -0.04037 
 C                    -2.02479   1.22323  -0.04058 
 C                    -2.71637  -0.00018  -0.0299 
 C                    -4.21064  -0.0002   -0.01784 
 C                    -4.90195   0.00075   1.2029 
 C                    -6.29253   0.0008    1.22549 
 C                    -6.97831  -0.00009   0.01101 
 N                    -8.43906  -0.00005   0.02598 
 O                    -9.0166    0.00059   1.11783 
 O                    -9.0386   -0.00061  -1.05396 
 C                    -6.31778  -0.00101  -1.21737 
 C                    -4.92713  -0.00107  -1.22371 
 C                    -2.0247   -1.22356  -0.04002 
 C                    -2.49348  -2.58387  -0.08042 
 C                    -3.89709  -3.10626  -0.11495 
 C                    -1.36278  -3.381    -0.09969 
 C                    -0.21748  -2.54614  -0.07002 
 C                     1.17412  -2.92062  -0.08326 
 C                     1.60396  -4.20238   0.02004 
 C                     2.99245  -4.6485    0.00368 
 C                     4.09076  -3.77043  -0.13203 
 C                     5.39023  -4.25065  -0.14038 
 C                     5.6291   -5.63299  -0.01213 
 C                     6.96856  -6.12876  -0.02072 
 N                     8.06306  -6.53328  -0.02783 
 C                     4.55001  -6.52324   0.12434 
 C                     3.25338  -6.02923   0.13119 
 N                    -0.62951  -1.24611  -0.04016 
 B                     0.26589  -0.00007   0.19143 
 F                     1.33712  -0.00007  -0.71648 
 F                     0.76881   0.00005   1.49804 
 H                    -4.47659   2.7839    0.75314 
 H                    -3.87954   4.19835  -0.12833 
 H                    -4.43812   2.7666   -1.00626 
 H                    -1.35102   4.4605   -0.15285 
 H                     1.88747   2.11224  -0.19148 
 H                     0.8698    4.99749   0.13005 
 H                     2.41955   6.71724   0.23802 
 H                     4.73496   7.58727   0.22575 
 H                     6.22606   3.56873  -0.24653 
 H                     3.92794   2.70348  -0.23374 
 H                    -4.34962   0.00145   2.13612 
 H                    -6.83617   0.00152   2.1613 
 H                    -6.88097  -0.00166  -2.14155 
 H                    -4.39432  -0.00176  -2.16819 
 H                    -4.47605  -2.78386   0.75562 
 H                    -4.43824  -2.76794  -1.00381 
 H                    -3.87915  -4.19893  -0.12497 
 H                    -1.35068  -4.46085  -0.15024 
 H                     1.88754  -2.11226  -0.19158 
 H                     0.87035  -4.99748   0.13166 
 H                     3.92819  -2.70294  -0.231 
 H                     6.2264   -3.56795  -0.24495 
 H                     4.73574  -7.58713   0.22329 
 H                     2.42024  -6.71734   0.23669 
 
 ITRead=  0  0  0  0  0  0  0  0  0  0  0  0  0  0  0  0  0  0  0  0
 ITRead=  0  0  0  0  0  0  0  0  0  0  0  0  0  0  0  0  0  0  0  0
 ITRead=  0  0  0  0  0  0  0  0  0  0  0  0  0  0  0  0  0  0  0  0
 ITRead=  0  0  0  0  0  0  0  0  0
 MicOpt= -1 -1 -1 -1 -1 -1 -1 -1 -1 -1 -1 -1 -1 -1 -1 -1 -1 -1 -1 -1
 MicOpt= -1 -1 -1 -1 -1 -1 -1 -1 -1 -1 -1 -1 -1 -1 -1 -1 -1 -1 -1 -1
 MicOpt= -1 -1 -1 -1 -1 -1 -1 -1 -1 -1 -1 -1 -1 -1 -1 -1 -1 -1 -1 -1
 MicOpt= -1 -1 -1 -1 -1 -1 -1 -1 -1
 NAtoms=     69 NQM=       69 NQMF=       0 NMMI=      0 NMMIF=      0
                NMic=       0 NMicF=      0.
                    Isotopes and Nuclear Properties:
 (Nuclear quadrupole moments (NQMom) in fm**2, nuclear magnetic moments (NMagM)
  in nuclear magnetons)

  Atom         1           2           3           4           5           6           7           8           9          10
 IAtWgt=          12          12          12          12          12          12          12          12          12          12
 AtmWgt=  12.0000000  12.0000000  12.0000000  12.0000000  12.0000000  12.0000000  12.0000000  12.0000000  12.0000000  12.0000000
 NucSpn=           0           0           0           0           0           0           0           0           0           0
 AtZEff=  -0.0000000  -0.0000000  -0.0000000  -0.0000000  -0.0000000  -0.0000000  -0.0000000  -0.0000000  -0.0000000  -0.0000000
 NQMom=    0.0000000   0.0000000   0.0000000   0.0000000   0.0000000   0.0000000   0.0000000   0.0000000   0.0000000   0.0000000
 NMagM=    0.0000000   0.0000000   0.0000000   0.0000000   0.0000000   0.0000000   0.0000000   0.0000000   0.0000000   0.0000000
 AtZNuc=   6.0000000   6.0000000   6.0000000   6.0000000   6.0000000   6.0000000   6.0000000   6.0000000   6.0000000   6.0000000

  Atom        11          12          13          14          15          16          17          18          19          20
 IAtWgt=          12          14          12          12          14          12          12          12          12          12
 AtmWgt=  12.0000000  14.0030740  12.0000000  12.0000000  14.0030740  12.0000000  12.0000000  12.0000000  12.0000000  12.0000000
 NucSpn=           0           2           0           0           2           0           0           0           0           0
 AtZEff=  -0.0000000  -0.0000000  -0.0000000  -0.0000000  -0.0000000  -0.0000000  -0.0000000  -0.0000000  -0.0000000  -0.0000000
 NQMom=    0.0000000   2.0440000   0.0000000   0.0000000   2.0440000   0.0000000   0.0000000   0.0000000   0.0000000   0.0000000
 NMagM=    0.0000000   0.4037610   0.0000000   0.0000000   0.4037610   0.0000000   0.0000000   0.0000000   0.0000000   0.0000000
 AtZNuc=   6.0000000   7.0000000   6.0000000   6.0000000   7.0000000   6.0000000   6.0000000   6.0000000   6.0000000   6.0000000

  Atom        21          22          23          24          25          26          27          28          29          30
 IAtWgt=          12          14          16          16          12          12          12          12          12          12
 AtmWgt=  12.0000000  14.0030740  15.9949146  15.9949146  12.0000000  12.0000000  12.0000000  12.0000000  12.0000000  12.0000000
 NucSpn=           0           2           0           0           0           0           0           0           0           0
 AtZEff=  -0.0000000  -0.0000000  -0.0000000  -0.0000000  -0.0000000  -0.0000000  -0.0000000  -0.0000000  -0.0000000  -0.0000000
 NQMom=    0.0000000   2.0440000   0.0000000   0.0000000   0.0000000   0.0000000   0.0000000   0.0000000   0.0000000   0.0000000
 NMagM=    0.0000000   0.4037610   0.0000000   0.0000000   0.0000000   0.0000000   0.0000000   0.0000000   0.0000000   0.0000000
 AtZNuc=   6.0000000   7.0000000   8.0000000   8.0000000   6.0000000   6.0000000   6.0000000   6.0000000   6.0000000   6.0000000

  Atom        31          32          33          34          35          36          37          38          39          40
 IAtWgt=          12          12          12          12          12          12          12          12          14          12
 AtmWgt=  12.0000000  12.0000000  12.0000000  12.0000000  12.0000000  12.0000000  12.0000000  12.0000000  14.0030740  12.0000000
 NucSpn=           0           0           0           0           0           0           0           0           2           0
 AtZEff=  -0.0000000  -0.0000000  -0.0000000  -0.0000000  -0.0000000  -0.0000000  -0.0000000  -0.0000000  -0.0000000  -0.0000000
 NQMom=    0.0000000   0.0000000   0.0000000   0.0000000   0.0000000   0.0000000   0.0000000   0.0000000   2.0440000   0.0000000
 NMagM=    0.0000000   0.0000000   0.0000000   0.0000000   0.0000000   0.0000000   0.0000000   0.0000000   0.4037610   0.0000000
 AtZNuc=   6.0000000   6.0000000   6.0000000   6.0000000   6.0000000   6.0000000   6.0000000   6.0000000   7.0000000   6.0000000

  Atom        41          42          43          44          45          46          47          48          49          50
 IAtWgt=          12          14          11          19          19           1           1           1           1           1
 AtmWgt=  12.0000000  14.0030740  11.0093053  18.9984033  18.9984033   1.0078250   1.0078250   1.0078250   1.0078250   1.0078250
 NucSpn=           0           2           3           1           1           1           1           1           1           1
 AtZEff=  -0.0000000  -0.0000000  -0.0000000  -0.0000000  -0.0000000  -0.0000000  -0.0000000  -0.0000000  -0.0000000  -0.0000000
 NQMom=    0.0000000   2.0440000   4.0590000   0.0000000   0.0000000   0.0000000   0.0000000   0.0000000   0.0000000   0.0000000
 NMagM=    0.0000000   0.4037610   2.6886370   2.6288670   2.6288670   2.7928460   2.7928460   2.7928460   2.7928460   2.7928460
 AtZNuc=   6.0000000   7.0000000   5.0000000   9.0000000   9.0000000   1.0000000   1.0000000   1.0000000   1.0000000   1.0000000

  Atom        51          52          53          54          55          56          57          58          59          60
 IAtWgt=           1           1           1           1           1           1           1           1           1           1
 AtmWgt=   1.0078250   1.0078250   1.0078250   1.0078250   1.0078250   1.0078250   1.0078250   1.0078250   1.0078250   1.0078250
 NucSpn=           1           1           1           1           1           1           1           1           1           1
 AtZEff=  -0.0000000  -0.0000000  -0.0000000  -0.0000000  -0.0000000  -0.0000000  -0.0000000  -0.0000000  -0.0000000  -0.0000000
 NQMom=    0.0000000   0.0000000   0.0000000   0.0000000   0.0000000   0.0000000   0.0000000   0.0000000   0.0000000   0.0000000
 NMagM=    2.7928460   2.7928460   2.7928460   2.7928460   2.7928460   2.7928460   2.7928460   2.7928460   2.7928460   2.7928460
 AtZNuc=   1.0000000   1.0000000   1.0000000   1.0000000   1.0000000   1.0000000   1.0000000   1.0000000   1.0000000   1.0000000

  Atom        61          62          63          64          65          66          67          68          69
 IAtWgt=           1           1           1           1           1           1           1           1           1
 AtmWgt=   1.0078250   1.0078250   1.0078250   1.0078250   1.0078250   1.0078250   1.0078250   1.0078250   1.0078250
 NucSpn=           1           1           1           1           1           1           1           1           1
 AtZEff=  -0.0000000  -0.0000000  -0.0000000  -0.0000000  -0.0000000  -0.0000000  -0.0000000  -0.0000000  -0.0000000
 NQMom=    0.0000000   0.0000000   0.0000000   0.0000000   0.0000000   0.0000000   0.0000000   0.0000000   0.0000000
 NMagM=    2.7928460   2.7928460   2.7928460   2.7928460   2.7928460   2.7928460   2.7928460   2.7928460   2.7928460
 AtZNuc=   1.0000000   1.0000000   1.0000000   1.0000000   1.0000000   1.0000000   1.0000000   1.0000000   1.0000000
 Leave Link  101 at Fri Oct 31 00:21:27 2025, MaxMem= 30870077440 cpu:               3.9 elap:               0.1
 (Enter /public/software/gauss/g16/l202.exe)
 Stoichiometry    C35H24BF2N5O2
 Framework group  C1[X(C35H24BF2N5O2)]
 Deg. of freedom   201
 Full point group                 C1      NOp   1
 Largest Abelian subgroup         C1      NOp   1
 Largest concise Abelian subgroup C1      NOp   1
                         Standard orientation:                         
 ---------------------------------------------------------------------
 Center     Atomic      Atomic             Coordinates (Angstroms)
 Number     Number       Type             X           Y           Z
 ---------------------------------------------------------------------
      1          6           0       -3.897339    3.105680   -0.117459
      2          6           0       -2.493678    2.583481   -0.082043
      3          6           0       -1.363037    3.380681   -0.101544
      4          6           0       -0.217671    2.545930   -0.070978
      5          6           0        1.173884    2.920564   -0.083892
      6          6           0        1.603529    4.202419    0.018970
      7          6           0        2.991980    4.648695    0.003053
      8          6           0        3.252764    6.029317    0.131912
      9          6           0        4.549354    6.523466    0.125703
     10          6           0        5.628544    5.633457   -0.011559
     11          6           0        6.967951    6.129375   -0.019532
     12          7           0        8.062404    6.534018   -0.026091
     13          6           0        5.389810    4.251231   -0.141271
     14          6           0        4.090391    3.770879   -0.133521
     15          7           0       -0.629618    1.245893   -0.040370
     16          6           0       -2.024787    1.223232   -0.040582
     17          6           0       -2.716368   -0.000183   -0.029902
     18          6           0       -4.210642   -0.000199   -0.017835
     19          6           0       -4.901954    0.000751    1.202904
     20          6           0       -6.292535    0.000798    1.225491
     21          6           0       -6.978308   -0.000088    0.011008
     22          7           0       -8.439065   -0.000050    0.025982
     23          8           0       -9.016597    0.000589    1.117831
     24          8           0       -9.038595   -0.000605   -1.053957
     25          6           0       -6.317778   -0.001012   -1.217367
     26          6           0       -4.927129   -0.001071   -1.223713
     27          6           0       -2.024704   -1.223562   -0.040018
     28          6           0       -2.493476   -2.583866   -0.080419
     29          6           0       -3.897088   -3.106260   -0.114950
     30          6           0       -1.362775   -3.380995   -0.099691
     31          6           0       -0.217481   -2.546144   -0.070020
     32          6           0        1.174117   -2.920624   -0.083257
     33          6           0        1.603957   -4.202377    0.020042
     34          6           0        2.992446   -4.648503    0.003682
     35          6           0        4.090760   -3.770433   -0.132031
     36          6           0        5.390226   -4.250652   -0.140378
     37          6           0        5.629103   -5.632987   -0.012131
     38          6           0        6.968561   -6.128756   -0.020723
     39          7           0        8.063056   -6.533279   -0.027826
     40          6           0        4.550014   -6.523242    0.124339
     41          6           0        3.253379   -6.029225    0.131189
     42          7           0       -0.629513   -1.246108   -0.040156
     43          5           0        0.265888   -0.000073    0.191431
     44          9           0        1.337120   -0.000066   -0.716477
     45          9           0        0.768811    0.000048    1.498038
     46          1           0       -4.476585    2.783904    0.753144
     47          1           0       -3.879536    4.198350   -0.128326
     48          1           0       -4.438122    2.766596   -1.006264
     49          1           0       -1.351016    4.460501   -0.152854
     50          1           0        1.887466    2.112240   -0.191483
     51          1           0        0.869803    4.997485    0.130053
     52          1           0        2.419547    6.717243    0.238018
     53          1           0        4.734958    7.587272    0.225749
     54          1           0        6.226060    3.568731   -0.246533
     55          1           0        3.927942    2.703484   -0.233735
     56          1           0       -4.349615    0.001450    2.136115
     57          1           0       -6.836172    0.001522    2.161303
     58          1           0       -6.880971   -0.001661   -2.141555
     59          1           0       -4.394316   -0.001762   -2.168191
     60          1           0       -4.476049   -2.783862    0.755617
     61          1           0       -4.438243   -2.767938   -1.003811
     62          1           0       -3.879153   -4.198934   -0.124967
     63          1           0       -1.350680   -4.460850   -0.150240
     64          1           0        1.887543   -2.112262   -0.191582
     65          1           0        0.870352   -4.997479    0.131657
     66          1           0        3.928191   -2.702940   -0.230995
     67          1           0        6.226402   -3.567953   -0.244946
     68          1           0        4.735737   -7.587128    0.223290
     69          1           0        2.420238   -6.717336    0.236689
 ---------------------------------------------------------------------
 Rotational constants (GHZ):           0.0618123           0.0381316           0.0240022
 Leave Link  202 at Fri Oct 31 00:21:27 2025, MaxMem= 30870077440 cpu:               0.2 elap:               0.0
 (Enter /public/software/gauss/g16/l301.exe)
 Standard basis: def2TZVPP (5D, 7F)
 Ernie: Thresh=  0.10000D-02 Tol=  0.10000D-05 Strict=F.
 There are  1980 symmetry adapted cartesian basis functions of A   symmetry.
 There are  1731 symmetry adapted basis functions of A   symmetry.
  1731 basis functions,  2703 primitive gaussians,  1980 cartesian basis functions
   154 alpha electrons      154 beta electrons
       nuclear repulsion energy      4713.8657181432 Hartrees.
 IExCor= 4336 DFT=T Ex+Corr=M062X ExCW=0 ScaHFX=  0.540000
 ScaDFX=  1.000000  1.000000  1.000000  1.000000 ScalE2=  1.000000  1.000000
 IRadAn=      5 IRanWt=     -1 IRanGd=            0 ICorTp=0 IEmpDi=131
 NAtoms=   69 NActive=   69 NUniq=   69 SFac= 1.00D+00 NAtFMM=   60 NAOKFM=T Big=T
 Integral buffers will be    131072 words long.
 Raffenetti 2 integral format.
 Two-electron integral symmetry is turned on.
 R6Disp:  Grimme-D3 Dispersion energy=       -0.0055752716 Hartrees.
 Nuclear repulsion after empirical dispersion term =     4713.8601428716 Hartrees.
 ------------------------------------------------------------------------------
 Polarizable Continuum Model (PCM)
 =================================
 Model                : PCM.
 Atomic radii         : UFF (Universal Force Field).
 Polarization charges : Total charges.
 Charge compensation  : None.
 Solution method      : On-the-fly selection.
 Cavity type          : Scaled VdW (van der Waals Surface) (Alpha=1.100).
 Cavity algorithm     : GePol (No added spheres)
                        Default sphere list used, NSphG=   69.
                        Lebedev-Laikov grids with approx.  5.0 points / Ang**2.
                        Smoothing algorithm: York/Karplus (Gamma=1.0000).
                        Polarization charges: spherical gaussians, with
                                              point-specific exponents (IZeta= 3).
                        Self-potential: point-specific (ISelfS= 7).
                        Self-field    : sphere-specific E.n sum rule (ISelfD= 2).
 Solvent              : Water, Eps=  78.355300 Eps(inf)=   1.777849
 ------------------------------------------------------------------------------
 GePol: Number of generator spheres                  =      69
 GePol: Total number of spheres                      =      69
 GePol: Number of exposed spheres                    =      69 (100.00%)
 GePol: Number of points                             =    5364
 GePol: Average weight of points                     =       0.13
 GePol: Minimum weight of points                     =   0.35D-11
 GePol: Maximum weight of points                     =    0.20577
 GePol: Number of points with low weight             =     357
 GePol: Fraction of low-weight points (<1% of avg)   =       6.66%
 GePol: Cavity surface area                          =    679.353 Ang**2
 GePol: Cavity volume                                =    779.053 Ang**3
 Leave Link  301 at Fri Oct 31 00:21:27 2025, MaxMem= 30870077440 cpu:               3.5 elap:               0.1
 (Enter /public/software/gauss/g16/l302.exe)
 NPDir=0 NMtPBC=     1 NCelOv=     1 NCel=       1 NClECP=     1 NCelD=      1
         NCelK=      1 NCelE2=     1 NClLst=     1 CellRange=     0.0.
 One-electron integrals computed using PRISM.
 One-electron integral symmetry used in STVInt
   1 Symmetry operations used in ECPInt.
 ECPInt:  NShTT=  204480 NPrTT=  597840 LenC2=  129674 LenP2D=  253074.
 LDataN:  DoStor=T MaxTD1= 6 Len=  172
 NBasis=  1731 RedAO= T EigKep=  3.62D-06  NBF=  1731
 NBsUse=  1731 1.00D-06 EigRej= -1.00D+00 NBFU=  1731
 Precomputing XC quadrature grid using
 IXCGrd= 4 IRadAn=           5 IRanWt=          -1 IRanGd=           0 AccXCQ= 0.00D+00.
 Generated NRdTot=       0 NPtTot=           0 NUsed=           0 NTot=          32
 NSgBfM=  1745  1745  1745  1745  1745 MxSgAt=    69 MxSgA2=    69.
 Leave Link  302 at Fri Oct 31 00:21:35 2025, MaxMem= 30870077440 cpu:             502.5 elap:               7.9
 (Enter /public/software/gauss/g16/l303.exe)
 DipDrv:  MaxL=1.
 Leave Link  303 at Fri Oct 31 00:21:35 2025, MaxMem= 30870077440 cpu:              24.0 elap:               0.4
 (Enter /public/software/gauss/g16/l401.exe)
 ExpMin= 6.06D-02 ExpMax= 3.55D+04 ExpMxC= 1.21D+03 IAcc=3 IRadAn=         5 AccDes= 0.00D+00
 Harris functional with IExCor= 1009 and IRadAn=       5 diagonalized for initial guess.
 HarFok:  IExCor= 1009 AccDes= 0.00D+00 IRadAn=         5 IDoV= 1 UseB2=F ITyADJ=14
 ICtDFT=  3500011 ScaDFX=  1.000000  1.000000  1.000000  1.000000
 FoFCou: FMM=F IPFlag=           0 FMFlag=      100000 FMFlg1=        2001
         NFxFlg=           0 DoJE=T BraDBF=F KetDBF=T FulRan=T
         wScrn=  0.000000 ICntrl=       500 IOpCl=  0 I1Cent=   200000004 NGrid=           0
         NMat0=    1 NMatS0=      1 NMatT0=    0 NMatD0=    1 NMtDS0=    0 NMtDT0=    0
 Petite list used in FoFCou.
 Harris En= -1995.92266897670    
 JPrj=0 DoOrth=F DoCkMO=F.
 Leave Link  401 at Fri Oct 31 00:21:44 2025, MaxMem= 30870077440 cpu:             568.4 elap:               9.0
 (Enter /public/software/gauss/g16/l502.exe)
 Integral symmetry usage will be decided dynamically.
 Closed shell SCF:
 Using DIIS extrapolation, IDIIS=  1040.
 NGot= 30870077440 LenX= 30862093359 LenY= 30858170979
 Requested convergence on RMS density matrix=1.00D-08 within 128 cycles.
 Requested convergence on MAX density matrix=1.00D-06.
 Requested convergence on             energy=1.00D-06.
 No special actions if energy rises.
 Fock matrices will be formed incrementally for  20 cycles.

 Cycle   1  Pass 1  IDiag  1:
 FoFJK:  IHMeth= 1 ICntrl=       0 DoSepK=F KAlg= 0 I1Cent=           0 FoldK=F
 IRaf= 600000000 NMat=       1 IRICut=       1 DoRegI=T DoRafI=F ISym2E= 0 IDoP0=0 IntGTp=1.
 FoFCou: FMM=T IPFlag=           0 FMFlag=      100000 FMFlg1=        2001
         NFxFlg=           0 DoJE=F BraDBF=F KetDBF=F FulRan=T
         wScrn=  0.000000 ICntrl=         0 IOpCl=  0 I1Cent=           0 NGrid=           0
         NMat0=    1 NMatS0=      1 NMatT0=    0 NMatD0=    1 NMtDS0=    0 NMtDT0=    0
 Symmetry not used in FoFCou.
 FMM levels:  10  Number of levels for PrismC:   9
 Inv3:  Mode=1 IEnd=    86317488.
 Iteration    1 A*A^-1 deviation from unit magnitude is 6.88D-15 for   5359.
 Iteration    1 A*A^-1 deviation from orthogonality  is 4.23D-15 for   5354   2215.
 Iteration    1 A^-1*A deviation from unit magnitude is 6.66D-15 for   5359.
 Iteration    1 A^-1*A deviation from orthogonality  is 3.72D-15 for   3339    288.
 E= -1996.03995255707    
 DIIS: error= 3.31D-02 at cycle   1 NSaved=   1.
 NSaved= 1 IEnMin= 1 EnMin= -1996.03995255707     IErMin= 1 ErrMin= 3.31D-02
 ErrMax= 3.31D-02  0.00D+00 EMaxC= 1.00D-01 BMatC= 1.30D+00 BMatP= 1.30D+00
 IDIUse=3 WtCom= 6.69D-01 WtEn= 3.31D-01
 Coeff-Com:  0.100D+01
 Coeff-En:   0.100D+01
 Coeff:      0.100D+01
 Gap=     0.130 Goal=   None    Shift=    0.000
 GapD=    0.130 DampG=1.000 DampE=0.500 DampFc=0.5000 IDamp=-1.
 Damping current iteration by 5.00D-01
 RMSDP=1.35D-03 MaxDP=9.39D-02              OVMax= 2.62D-01

 Cycle   2  Pass 1  IDiag  1:
 RMSU=  6.69D-04    CP:  9.79D-01
 E= -1996.50467459919     Delta-E=       -0.464722042118 Rises=F Damp=T
 DIIS: error= 5.71D-03 at cycle   2 NSaved=   2.
 NSaved= 2 IEnMin= 2 EnMin= -1996.50467459919     IErMin= 2 ErrMin= 5.71D-03
 ErrMax= 5.71D-03  0.00D+00 EMaxC= 1.00D-01 BMatC= 1.38D-01 BMatP= 1.30D+00
 IDIUse=3 WtCom= 9.43D-01 WtEn= 5.71D-02
 Coeff-Com: -0.728D-01 0.107D+01
 Coeff-En:   0.000D+00 0.100D+01
 Coeff:     -0.687D-01 0.107D+01
 Gap=     0.181 Goal=   None    Shift=    0.000
 RMSDP=6.28D-04 MaxDP=5.75D-02 DE=-4.65D-01 OVMax= 2.02D-01

 Cycle   3  Pass 1  IDiag  1:
 RMSU=  5.65D-04    CP:  9.56D-01  1.39D+00
 E= -1996.93128340266     Delta-E=       -0.426608803473 Rises=F Damp=F
 DIIS: error= 1.37D-02 at cycle   3 NSaved=   3.
 NSaved= 3 IEnMin= 3 EnMin= -1996.93128340266     IErMin= 2 ErrMin= 5.71D-03
 ErrMax= 1.37D-02  0.00D+00 EMaxC= 1.00D-01 BMatC= 8.60D-02 BMatP= 1.38D-01
 IDIUse=3 WtCom= 8.63D-01 WtEn= 1.37D-01
 Coeff-Com: -0.128D+00 0.513D+00 0.615D+00
 Coeff-En:   0.000D+00 0.000D+00 0.100D+01
 Coeff:     -0.110D+00 0.442D+00 0.668D+00
 Gap=     0.134 Goal=   None    Shift=    0.000
 RMSDP=1.84D-04 MaxDP=2.87D-02 DE=-4.27D-01 OVMax= 8.17D-02

 Cycle   4  Pass 1  IDiag  1:
 RMSU=  1.72D-04    CP:  9.58D-01  1.44D+00  9.02D-01
 E= -1996.98427417841     Delta-E=       -0.052990775751 Rises=F Damp=F
 DIIS: error= 4.91D-03 at cycle   4 NSaved=   4.
 NSaved= 4 IEnMin= 4 EnMin= -1996.98427417841     IErMin= 4 ErrMin= 4.91D-03
 ErrMax= 4.91D-03  0.00D+00 EMaxC= 1.00D-01 BMatC= 1.73D-02 BMatP= 8.60D-02
 IDIUse=3 WtCom= 9.51D-01 WtEn= 4.91D-02
 Coeff-Com: -0.356D-01 0.101D+00 0.352D+00 0.582D+00
 Coeff-En:   0.000D+00 0.000D+00 0.171D+00 0.829D+00
 Coeff:     -0.338D-01 0.961D-01 0.343D+00 0.594D+00
 Gap=     0.135 Goal=   None    Shift=    0.000
 RMSDP=6.97D-05 MaxDP=8.32D-03 DE=-5.30D-02 OVMax= 1.92D-02

 Cycle   5  Pass 1  IDiag  1:
 RMSU=  5.06D-05    CP:  9.57D-01  1.41D+00  9.34D-01  7.57D-01
 E= -1996.99740884408     Delta-E=       -0.013134665665 Rises=F Damp=F
 DIIS: error= 7.17D-04 at cycle   5 NSaved=   5.
 NSaved= 5 IEnMin= 5 EnMin= -1996.99740884408     IErMin= 5 ErrMin= 7.17D-04
 ErrMax= 7.17D-04  0.00D+00 EMaxC= 1.00D-01 BMatC= 8.30D-04 BMatP= 1.73D-02
 IDIUse=3 WtCom= 9.93D-01 WtEn= 7.17D-03
 Coeff-Com: -0.109D-01 0.226D-01 0.146D+00 0.310D+00 0.532D+00
 Coeff-En:   0.000D+00 0.000D+00 0.000D+00 0.000D+00 0.100D+01
 Coeff:     -0.108D-01 0.224D-01 0.145D+00 0.308D+00 0.535D+00
 Gap=     0.136 Goal=   None    Shift=    0.000
 RMSDP=2.07D-05 MaxDP=3.16D-03 DE=-1.31D-02 OVMax= 5.22D-03

 Cycle   6  Pass 1  IDiag  1:
 RMSU=  1.66D-05    CP:  9.57D-01  1.42D+00  9.31D-01  7.70D-01  7.91D-01
 E= -1996.99806560042     Delta-E=       -0.000656756341 Rises=F Damp=F
 DIIS: error= 2.34D-04 at cycle   6 NSaved=   6.
 NSaved= 6 IEnMin= 6 EnMin= -1996.99806560042     IErMin= 6 ErrMin= 2.34D-04
 ErrMax= 2.34D-04  0.00D+00 EMaxC= 1.00D-01 BMatC= 7.64D-05 BMatP= 8.30D-04
 IDIUse=3 WtCom= 9.98D-01 WtEn= 2.34D-03
 Coeff-Com: -0.186D-02 0.153D-02 0.394D-01 0.962D-01 0.278D+00 0.587D+00
 Coeff-En:   0.000D+00 0.000D+00 0.000D+00 0.000D+00 0.000D+00 0.100D+01
 Coeff:     -0.186D-02 0.153D-02 0.393D-01 0.960D-01 0.277D+00 0.588D+00
 Gap=     0.136 Goal=   None    Shift=    0.000
 RMSDP=6.20D-06 MaxDP=8.23D-04 DE=-6.57D-04 OVMax= 2.12D-03

 Cycle   7  Pass 1  IDiag  1:
 RMSU=  5.35D-06    CP:  9.57D-01  1.42D+00  9.33D-01  7.70D-01  8.37D-01
                    CP:  9.25D-01
 E= -1996.99813173193     Delta-E=       -0.000066131510 Rises=F Damp=F
 DIIS: error= 6.21D-05 at cycle   7 NSaved=   7.
 NSaved= 7 IEnMin= 7 EnMin= -1996.99813173193     IErMin= 7 ErrMin= 6.21D-05
 ErrMax= 6.21D-05  0.00D+00 EMaxC= 1.00D-01 BMatC= 7.09D-06 BMatP= 7.64D-05
 IDIUse=1 WtCom= 1.00D+00 WtEn= 0.00D+00
 Coeff-Com:  0.967D-03-0.288D-02-0.779D-02-0.128D-01 0.299D-01 0.251D+00
 Coeff-Com:  0.742D+00
 Coeff:      0.967D-03-0.288D-02-0.779D-02-0.128D-01 0.299D-01 0.251D+00
 Coeff:      0.742D+00
 Gap=     0.137 Goal=   None    Shift=    0.000
 RMSDP=3.17D-06 MaxDP=4.45D-04 DE=-6.61D-05 OVMax= 1.46D-03

 Cycle   8  Pass 1  IDiag  1:
 RMSU=  2.50D-06    CP:  9.57D-01  1.42D+00  9.33D-01  7.71D-01  8.67D-01
                    CP:  9.67D-01  1.17D+00
 E= -1996.99814053409     Delta-E=       -0.000008802159 Rises=F Damp=F
 DIIS: error= 1.73D-05 at cycle   8 NSaved=   8.
 NSaved= 8 IEnMin= 8 EnMin= -1996.99814053409     IErMin= 8 ErrMin= 1.73D-05
 ErrMax= 1.73D-05  0.00D+00 EMaxC= 1.00D-01 BMatC= 6.81D-07 BMatP= 7.09D-06
 IDIUse=1 WtCom= 1.00D+00 WtEn= 0.00D+00
 Coeff-Com:  0.577D-03-0.127D-02-0.765D-02-0.167D-01-0.226D-01 0.192D-01
 Coeff-Com:  0.265D+00 0.763D+00
 Coeff:      0.577D-03-0.127D-02-0.765D-02-0.167D-01-0.226D-01 0.192D-01
 Coeff:      0.265D+00 0.763D+00
 Gap=     0.137 Goal=   None    Shift=    0.000
 RMSDP=1.32D-06 MaxDP=1.04D-04 DE=-8.80D-06 OVMax= 6.58D-04

 Cycle   9  Pass 1  IDiag  1:
 RMSU=  9.34D-07    CP:  9.57D-01  1.42D+00  9.33D-01  7.73D-01  8.77D-01
                    CP:  9.89D-01  1.27D+00  1.02D+00
 E= -1996.99814180658     Delta-E=       -0.000001272487 Rises=F Damp=F
 DIIS: error= 8.54D-06 at cycle   9 NSaved=   9.
 NSaved= 9 IEnMin= 9 EnMin= -1996.99814180658     IErMin= 9 ErrMin= 8.54D-06
 ErrMax= 8.54D-06  0.00D+00 EMaxC= 1.00D-01 BMatC= 1.11D-07 BMatP= 6.81D-07
 IDIUse=1 WtCom= 1.00D+00 WtEn= 0.00D+00
 Coeff-Com:  0.929D-04-0.125D-03-0.199D-02-0.514D-02-0.119D-01-0.213D-01
 Coeff-Com:  0.122D-01 0.288D+00 0.740D+00
 Coeff:      0.929D-04-0.125D-03-0.199D-02-0.514D-02-0.119D-01-0.213D-01
 Coeff:      0.122D-01 0.288D+00 0.740D+00
 Gap=     0.137 Goal=   None    Shift=    0.000
 RMSDP=4.93D-07 MaxDP=6.49D-05 DE=-1.27D-06 OVMax= 2.96D-04

 Cycle  10  Pass 1  IDiag  1:
 RMSU=  3.54D-07    CP:  9.57D-01  1.42D+00  9.33D-01  7.73D-01  8.78D-01
                    CP:  9.92D-01  1.30D+00  1.12D+00  1.04D+00
 E= -1996.99814201072     Delta-E=       -0.000000204141 Rises=F Damp=F
 DIIS: error= 3.91D-06 at cycle  10 NSaved=  10.
 NSaved=10 IEnMin=10 EnMin= -1996.99814201072     IErMin=10 ErrMin= 3.91D-06
 ErrMax= 3.91D-06  0.00D+00 EMaxC= 1.00D-01 BMatC= 2.42D-08 BMatP= 1.11D-07
 IDIUse=1 WtCom= 1.00D+00 WtEn= 0.00D+00
 Coeff-Com: -0.659D-04 0.181D-03 0.527D-03 0.783D-03-0.933D-03-0.123D-01
 Coeff-Com: -0.429D-01-0.124D-01 0.340D+00 0.727D+00
 Coeff:     -0.659D-04 0.181D-03 0.527D-03 0.783D-03-0.933D-03-0.123D-01
 Coeff:     -0.429D-01-0.124D-01 0.340D+00 0.727D+00
 Gap=     0.137 Goal=   None    Shift=    0.000
 RMSDP=2.15D-07 MaxDP=2.68D-05 DE=-2.04D-07 OVMax= 1.36D-04

 Cycle  11  Pass 1  IDiag  1:
 RMSU=  1.55D-07    CP:  9.57D-01  1.42D+00  9.33D-01  7.73D-01  8.79D-01
                    CP:  9.93D-01  1.31D+00  1.15D+00  1.14D+00  1.05D+00
 E= -1996.99814205267     Delta-E=       -0.000000041949 Rises=F Damp=F
 DIIS: error= 1.21D-06 at cycle  11 NSaved=  11.
 NSaved=11 IEnMin=11 EnMin= -1996.99814205267     IErMin=11 ErrMin= 1.21D-06
 ErrMax= 1.21D-06  0.00D+00 EMaxC= 1.00D-01 BMatC= 3.62D-09 BMatP= 2.42D-08
 IDIUse=1 WtCom= 1.00D+00 WtEn= 0.00D+00
 Coeff-Com: -0.424D-04 0.988D-04 0.507D-03 0.107D-02 0.121D-02-0.259D-02
 Coeff-Com: -0.217D-01-0.491D-01 0.391D-01 0.325D+00 0.706D+00
 Coeff:     -0.424D-04 0.988D-04 0.507D-03 0.107D-02 0.121D-02-0.259D-02
 Coeff:     -0.217D-01-0.491D-01 0.391D-01 0.325D+00 0.706D+00
 Gap=     0.137 Goal=   None    Shift=    0.000
 RMSDP=8.68D-08 MaxDP=1.27D-05 DE=-4.19D-08 OVMax= 5.29D-05

 Cycle  12  Pass 1  IDiag  1:
 RMSU=  5.39D-08    CP:  9.57D-01  1.42D+00  9.33D-01  7.73D-01  8.79D-01
                    CP:  9.93D-01  1.32D+00  1.16D+00  1.17D+00  1.17D+00
                    CP:  9.59D-01
 E= -1996.99814205804     Delta-E=       -0.000000005377 Rises=F Damp=F
 DIIS: error= 4.80D-07 at cycle  12 NSaved=  12.
 NSaved=12 IEnMin=12 EnMin= -1996.99814205804     IErMin=12 ErrMin= 4.80D-07
 ErrMax= 4.80D-07  0.00D+00 EMaxC= 1.00D-01 BMatC= 3.85D-10 BMatP= 3.62D-09
 IDIUse=1 WtCom= 1.00D+00 WtEn= 0.00D+00
 Coeff-Com: -0.997D-05 0.203D-04 0.152D-03 0.364D-03 0.618D-03 0.320D-03
 Coeff-Com: -0.429D-02-0.192D-01-0.235D-01 0.584D-01 0.294D+00 0.693D+00
 Coeff:     -0.997D-05 0.203D-04 0.152D-03 0.364D-03 0.618D-03 0.320D-03
 Coeff:     -0.429D-02-0.192D-01-0.235D-01 0.584D-01 0.294D+00 0.693D+00
 Gap=     0.137 Goal=   None    Shift=    0.000
 RMSDP=2.52D-08 MaxDP=2.76D-06 DE=-5.38D-09 OVMax= 1.55D-05

 Cycle  13  Pass 1  IDiag  1:
 RMSU=  1.78D-08    CP:  9.57D-01  1.42D+00  9.33D-01  7.73D-01  8.79D-01
                    CP:  9.93D-01  1.32D+00  1.16D+00  1.18D+00  1.19D+00
                    CP:  1.04D+00  1.01D+00
 E= -1996.99814205856     Delta-E=       -0.000000000517 Rises=F Damp=F
 DIIS: error= 2.31D-07 at cycle  13 NSaved=  13.
 NSaved=13 IEnMin=13 EnMin= -1996.99814205856     IErMin=13 ErrMin= 2.31D-07
 ErrMax= 2.31D-07  0.00D+00 EMaxC= 1.00D-01 BMatC= 9.12D-11 BMatP= 3.85D-10
 IDIUse=1 WtCom= 1.00D+00 WtEn= 0.00D+00
 Coeff-Com:  0.153D-05-0.490D-05-0.184D-05 0.211D-04 0.139D-03 0.610D-03
 Coeff-Com:  0.133D-02-0.188D-02-0.181D-01-0.196D-01 0.318D-01 0.359D+00
 Coeff-Com:  0.646D+00
 Coeff:      0.153D-05-0.490D-05-0.184D-05 0.211D-04 0.139D-03 0.610D-03
 Coeff:      0.133D-02-0.188D-02-0.181D-01-0.196D-01 0.318D-01 0.359D+00
 Coeff:      0.646D+00
 Gap=     0.137 Goal=   None    Shift=    0.000
 RMSDP=1.08D-08 MaxDP=1.47D-06 DE=-5.17D-10 OVMax= 5.06D-06

 Cycle  14  Pass 1  IDiag  1:
 RMSU=  6.39D-09    CP:  9.57D-01  1.42D+00  9.33D-01  7.73D-01  8.79D-01
                    CP:  9.93D-01  1.32D+00  1.16D+00  1.18D+00  1.21D+00
                    CP:  1.05D+00  1.12D+00  9.68D-01
 E= -1996.99814205889     Delta-E=       -0.000000000328 Rises=F Damp=F
 DIIS: error= 7.49D-08 at cycle  14 NSaved=  14.
 NSaved=14 IEnMin=14 EnMin= -1996.99814205889     IErMin=14 ErrMin= 7.49D-08
 ErrMax= 7.49D-08  0.00D+00 EMaxC= 1.00D-01 BMatC= 7.02D-12 BMatP= 9.12D-11
 IDIUse=1 WtCom= 1.00D+00 WtEn= 0.00D+00
 Coeff-Com:  0.153D-05-0.388D-05-0.158D-04-0.259D-04 0.191D-05 0.219D-03
 Coeff-Com:  0.969D-03 0.115D-02-0.526D-02-0.144D-01-0.230D-01 0.844D-01
 Coeff-Com:  0.270D+00 0.686D+00
 Coeff:      0.153D-05-0.388D-05-0.158D-04-0.259D-04 0.191D-05 0.219D-03
 Coeff:      0.969D-03 0.115D-02-0.526D-02-0.144D-01-0.230D-01 0.844D-01
 Coeff:      0.270D+00 0.686D+00
 Gap=     0.137 Goal=   None    Shift=    0.000
 RMSDP=2.99D-09 MaxDP=2.91D-07 DE=-3.28D-10 OVMax= 1.20D-06

 Error on total polarization charges =  0.02451
 SCF Done:  E(RM062X) =  -1996.99814206     A.U. after   14 cycles
            NFock= 14  Conv=0.30D-08     -V/T= 2.0054
 KE= 1.986286828219D+03 PE=-1.407707178102D+04 EE= 5.379926667874D+03
 Leave Link  502 at Fri Oct 31 00:34:30 2025, MaxMem= 30870077440 cpu:           48075.5 elap:             765.8
 (Enter /public/software/gauss/g16/l601.exe)
 Copying SCF densities to generalized density rwf, IOpCl= 0 IROHF=0.

 **********************************************************************

            Population analysis using the SCF density.

 **********************************************************************

 Orbital symmetries:
       Occupied  (A) (A) (A) (A) (A) (A) (A) (A) (A) (A) (A) (A)
                 (A) (A) (A) (A) (A) (A) (A) (A) (A) (A) (A) (A)
                 (A) (A) (A) (A) (A) (A) (A) (A) (A) (A) (A) (A)
                 (A) (A) (A) (A) (A) (A) (A) (A) (A) (A) (A) (A)
                 (A) (A) (A) (A) (A) (A) (A) (A) (A) (A) (A) (A)
                 (A) (A) (A) (A) (A) (A) (A) (A) (A) (A) (A) (A)
                 (A) (A) (A) (A) (A) (A) (A) (A) (A) (A) (A) (A)
                 (A) (A) (A) (A) (A) (A) (A) (A) (A) (A) (A) (A)
                 (A) (A) (A) (A) (A) (A) (A) (A) (A) (A) (A) (A)
                 (A) (A) (A) (A) (A) (A) (A) (A) (A) (A) (A) (A)
                 (A) (A) (A) (A) (A) (A) (A) (A) (A) (A) (A) (A)
                 (A) (A) (A) (A) (A) (A) (A) (A) (A) (A) (A) (A)
                 (A) (A) (A) (A) (A) (A) (A) (A) (A) (A)
       Virtual   (A) (A) (A) (A) (A) (A) (A) (A) (A) (A) (A) (A)
                 (A) (A) (A) (A) (A) (A) (A) (A) (A) (A) (A) (A)
                 (A) (A) (A) (A) (A) (A) (A) (A) (A) (A) (A) (A)
                 (A) (A) (A) (A) (A) (A) (A) (A) (A) (A) (A) (A)
                 (A) (A) (A) (A) (A) (A) (A) (A) (A) (A) (A) (A)
                 (A) (A) (A) (A) (A) (A) (A) (A) (A) (A) (A) (A)
                 (A) (A) (A) (A) (A) (A) (A) (A) (A) (A) (A) (A)
                 (A) (A) (A) (A) (A) (A) (A) (A) (A) (A) (A) (A)
                 (A) (A) (A) (A) (A) (A) (A) (A) (A) (A) (A) (A)
                 (A) (A) (A) (A) (A) (A) (A) (A) (A) (A) (A) (A)
                 (A) (A) (A) (A) (A) (A) (A) (A) (A) (A) (A) (A)
                 (A) (A) (A) (A) (A) (A) (A) (A) (A) (A) (A) (A)
                 (A) (A) (A) (A) (A) (A) (A) (A) (A) (A) (A) (A)
                 (A) (A) (A) (A) (A) (A) (A) (A) (A) (A) (A) (A)
                 (A) (A) (A) (A) (A) (A) (A) (A) (A) (A) (A) (A)
                 (A) (A) (A) (A) (A) (A) (A) (A) (A) (A) (A) (A)
                 (A) (A) (A) (A) (A) (A) (A) (A) (A) (A) (A) (A)
                 (A) (A) (A) (A) (A) (A) (A) (A) (A) (A) (A) (A)
                 (A) (A) (A) (A) (A) (A) (A) (A) (A) (A) (A) (A)
                 (A) (A) (A) (A) (A) (A) (A) (A) (A) (A) (A) (A)
                 (A) (A) (A) (A) (A) (A) (A) (A) (A) (A) (A) (A)
                 (A) (A) (A) (A) (A) (A) (A) (A) (A) (A) (A) (A)
                 (A) (A) (A) (A) (A) (A) (A) (A) (A) (A) (A) (A)
                 (A) (A) (A) (A) (A) (A) (A) (A) (A) (A) (A) (A)
                 (A) (A) (A) (A) (A) (A) (A) (A) (A) (A) (A) (A)
                 (A) (A) (A) (A) (A) (A) (A) (A) (A) (A) (A) (A)
                 (A) (A) (A) (A) (A) (A) (A) (A) (A) (A) (A) (A)
                 (A) (A) (A) (A) (A) (A) (A) (A) (A) (A) (A) (A)
                 (A) (A) (A) (A) (A) (A) (A) (A) (A) (A) (A) (A)
                 (A) (A) (A) (A) (A) (A) (A) (A) (A) (A) (A) (A)
                 (A) (A) (A) (A) (A) (A) (A) (A) (A) (A) (A) (A)
                 (A) (A) (A) (A) (A) (A) (A) (A) (A) (A) (A) (A)
                 (A) (A) (A) (A) (A) (A) (A) (A) (A) (A) (A) (A)
                 (A) (A) (A) (A) (A) (A) (A) (A) (A) (A) (A) (A)
                 (A) (A) (A) (A) (A) (A) (A) (A) (A) (A) (A) (A)
                 (A) (A) (A) (A) (A) (A) (A) (A) (A) (A) (A) (A)
                 (A) (A) (A) (A) (A) (A) (A) (A) (A) (A) (A) (A)
                 (A) (A) (A) (A) (A) (A) (A) (A) (A) (A) (A) (A)
                 (A) (A) (A) (A) (A) (A) (A) (A) (A) (A) (A) (A)
                 (A) (A) (A) (A) (A) (A) (A) (A) (A) (A) (A) (A)
                 (A) (A) (A) (A) (A) (A) (A) (A) (A) (A) (A) (A)
                 (A) (A) (A) (A) (A) (A) (A) (A) (A) (A) (A) (A)
                 (A) (A) (A) (A) (A) (A) (A) (A) (A) (A) (A) (A)
                 (A) (A) (A) (A) (A) (A) (A) (A) (A) (A) (A) (A)
                 (A) (A) (A) (A) (A) (A) (A) (A) (A) (A) (A) (A)
                 (A) (A) (A) (A) (A) (A) (A) (A) (A) (A) (A) (A)
                 (A) (A) (A) (A) (A) (A) (A) (A) (A) (A) (A) (A)
                 (A) (A) (A) (A) (A) (A) (A) (A) (A) (A) (A) (A)
                 (A) (A) (A) (A) (A) (A) (A) (A) (A) (A) (A) (A)
                 (A) (A) (A) (A) (A) (A) (A) (A) (A) (A) (A) (A)
                 (A) (A) (A) (A) (A) (A) (A) (A) (A) (A) (A) (A)
                 (A) (A) (A) (A) (A) (A) (A) (A) (A) (A) (A) (A)
                 (A) (A) (A) (A) (A) (A) (A) (A) (A) (A) (A) (A)
                 (A) (A) (A) (A) (A) (A) (A) (A) (A) (A) (A) (A)
                 (A) (A) (A) (A) (A) (A) (A) (A) (A) (A) (A) (A)
                 (A) (A) (A) (A) (A) (A) (A) (A) (A) (A) (A) (A)
                 (A) (A) (A) (A) (A) (A) (A) (A) (A) (A) (A) (A)
                 (A) (A) (A) (A) (A) (A) (A) (A) (A) (A) (A) (A)
                 (A) (A) (A) (A) (A) (A) (A) (A) (A) (A) (A) (A)
                 (A) (A) (A) (A) (A) (A) (A) (A) (A) (A) (A) (A)
                 (A) (A) (A) (A) (A) (A) (A) (A) (A) (A) (A) (A)
                 (A) (A) (A) (A) (A) (A) (A) (A) (A) (A) (A) (A)
                 (A) (A) (A) (A) (A) (A) (A) (A) (A) (A) (A) (A)
                 (A) (A) (A) (A) (A) (A) (A) (A) (A) (A) (A) (A)
                 (A) (A) (A) (A) (A) (A) (A) (A) (A) (A) (A) (A)
                 (A) (A) (A) (A) (A) (A) (A) (A) (A) (A) (A) (A)
                 (A) (A) (A) (A) (A) (A) (A) (A) (A) (A) (A) (A)
                 (A) (A) (A) (A) (A) (A) (A) (A) (A) (A) (A) (A)
                 (A) (A) (A) (A) (A) (A) (A) (A) (A) (A) (A) (A)
                 (A) (A) (A) (A) (A) (A) (A) (A) (A) (A) (A) (A)
                 (A) (A) (A) (A) (A) (A) (A) (A) (A) (A) (A) (A)
                 (A) (A) (A) (A) (A) (A) (A) (A) (A) (A) (A) (A)
                 (A) (A) (A) (A) (A) (A) (A) (A) (A) (A) (A) (A)
                 (A) (A) (A) (A) (A) (A) (A) (A) (A) (A) (A) (A)
                 (A) (A) (A) (A) (A) (A) (A) (A) (A) (A) (A) (A)
                 (A) (A) (A) (A) (A) (A) (A) (A) (A) (A) (A) (A)
                 (A) (A) (A) (A) (A) (A) (A) (A) (A) (A) (A) (A)
                 (A) (A) (A) (A) (A) (A) (A) (A) (A) (A) (A) (A)
                 (A) (A) (A) (A) (A) (A) (A) (A) (A) (A) (A) (A)
                 (A) (A) (A) (A) (A) (A) (A) (A) (A) (A) (A) (A)
                 (A) (A) (A) (A) (A) (A) (A) (A) (A) (A) (A) (A)
                 (A) (A) (A) (A) (A) (A) (A) (A) (A) (A) (A) (A)
                 (A) (A) (A) (A) (A) (A) (A) (A) (A) (A) (A) (A)
                 (A) (A) (A) (A) (A) (A) (A) (A) (A) (A) (A) (A)
                 (A) (A) (A) (A) (A) (A) (A) (A) (A) (A) (A) (A)
                 (A) (A) (A) (A) (A) (A) (A) (A) (A) (A) (A) (A)
                 (A) (A) (A) (A) (A) (A) (A) (A) (A) (A) (A) (A)
                 (A) (A) (A) (A) (A) (A) (A) (A) (A) (A) (A) (A)
                 (A) (A) (A) (A) (A) (A) (A) (A) (A) (A) (A) (A)
                 (A) (A) (A) (A) (A) (A) (A) (A) (A) (A) (A) (A)
                 (A) (A) (A) (A) (A) (A) (A) (A) (A) (A) (A) (A)
                 (A) (A) (A) (A) (A) (A) (A) (A) (A) (A) (A) (A)
                 (A) (A) (A) (A) (A) (A) (A) (A) (A) (A) (A) (A)
                 (A) (A) (A) (A) (A) (A) (A) (A) (A) (A) (A) (A)
                 (A) (A) (A) (A) (A) (A) (A) (A) (A) (A) (A) (A)
                 (A) (A) (A) (A) (A) (A) (A) (A) (A) (A) (A) (A)
                 (A) (A) (A) (A) (A) (A) (A) (A) (A) (A) (A) (A)
                 (A) (A) (A) (A) (A) (A) (A) (A) (A) (A) (A) (A)
                 (A) (A) (A) (A) (A) (A) (A) (A) (A) (A) (A) (A)
                 (A) (A) (A) (A) (A) (A) (A) (A) (A) (A) (A) (A)
                 (A) (A) (A) (A) (A) (A) (A) (A) (A) (A) (A) (A)
                 (A) (A) (A) (A) (A) (A) (A) (A) (A) (A) (A) (A)
                 (A) (A) (A) (A) (A) (A) (A) (A) (A) (A) (A) (A)
                 (A) (A) (A) (A) (A) (A) (A) (A) (A) (A) (A) (A)
                 (A) (A) (A) (A) (A) (A) (A) (A) (A) (A) (A) (A)
                 (A) (A) (A) (A) (A) (A) (A) (A) (A) (A) (A) (A)
                 (A) (A) (A) (A) (A) (A) (A) (A) (A) (A) (A) (A)
                 (A) (A) (A) (A) (A) (A) (A) (A) (A) (A) (A) (A)
                 (A) (A) (A) (A) (A) (A) (A) (A) (A) (A) (A) (A)
                 (A) (A) (A) (A) (A) (A) (A) (A) (A) (A) (A) (A)
                 (A) (A) (A) (A) (A) (A) (A) (A) (A) (A) (A) (A)
                 (A) (A) (A) (A) (A) (A) (A) (A) (A) (A) (A) (A)
                 (A) (A) (A) (A) (A) (A) (A) (A) (A) (A) (A) (A)
                 (A) (A) (A) (A) (A) (A) (A) (A) (A) (A) (A) (A)
                 (A) (A) (A) (A) (A) (A) (A) (A) (A) (A) (A) (A)
                 (A) (A) (A) (A) (A) (A) (A) (A) (A) (A) (A) (A)
                 (A) (A) (A) (A) (A) (A) (A) (A) (A) (A) (A) (A)
                 (A) (A) (A) (A) (A) (A) (A) (A) (A) (A) (A) (A)
                 (A) (A) (A) (A) (A) (A) (A) (A) (A) (A) (A) (A)
                 (A) (A) (A) (A) (A) (A) (A) (A) (A) (A) (A) (A)
                 (A) (A) (A) (A) (A) (A) (A) (A) (A) (A) (A) (A)
                 (A) (A) (A) (A) (A) (A) (A) (A) (A) (A) (A) (A)
                 (A) (A) (A) (A) (A) (A) (A) (A) (A) (A) (A) (A)
                 (A) (A) (A) (A) (A) (A) (A) (A) (A) (A) (A) (A)
                 (A) (A) (A) (A) (A) (A) (A) (A) (A) (A) (A) (A)
                 (A) (A) (A) (A) (A) (A) (A) (A) (A) (A) (A) (A)
                 (A) (A) (A) (A) (A) (A) (A) (A) (A) (A) (A) (A)
                 (A) (A) (A) (A) (A) (A) (A) (A) (A) (A) (A) (A)
                 (A) (A) (A) (A) (A) (A) (A) (A) (A) (A) (A) (A)
                 (A) (A) (A) (A) (A) (A) (A) (A) (A) (A) (A) (A)
                 (A) (A) (A) (A) (A) (A) (A) (A) (A) (A) (A) (A)
                 (A) (A) (A) (A) (A)
 The electronic state is 1-A.
 Alpha  occ. eigenvalues --  -25.21134 -25.20861 -19.68112 -19.68109 -15.01586
 Alpha  occ. eigenvalues --  -14.79201 -14.79200 -14.77043 -14.77043 -10.62269
 Alpha  occ. eigenvalues --  -10.61116 -10.61073 -10.61073 -10.59895 -10.59895
 Alpha  occ. eigenvalues --  -10.59835 -10.59835 -10.59770 -10.59768 -10.59553
 Alpha  occ. eigenvalues --  -10.58349 -10.58344 -10.58287 -10.58287 -10.57692
 Alpha  occ. eigenvalues --  -10.57690 -10.57649 -10.57649 -10.57583 -10.57583
 Alpha  occ. eigenvalues --  -10.57570 -10.57570 -10.57314 -10.57314 -10.56900
 Alpha  occ. eigenvalues --  -10.56900 -10.56791 -10.56791 -10.56722 -10.56722
 Alpha  occ. eigenvalues --  -10.54890 -10.54890 -10.54367 -10.54366  -7.13813
 Alpha  occ. eigenvalues --   -1.37116  -1.32965  -1.29710  -1.18631  -1.11386
 Alpha  occ. eigenvalues --   -1.09476  -1.03049  -1.03048  -1.01350  -0.99224
 Alpha  occ. eigenvalues --   -0.99212  -0.96017  -0.93296  -0.93200  -0.91659
 Alpha  occ. eigenvalues --   -0.91001  -0.90479  -0.88204  -0.88057  -0.87194
 Alpha  occ. eigenvalues --   -0.87100  -0.86816  -0.82268  -0.82132  -0.80729
 Alpha  occ. eigenvalues --   -0.79941  -0.77578  -0.75590  -0.72938  -0.72702
 Alpha  occ. eigenvalues --   -0.72001  -0.71902  -0.70714  -0.69443  -0.69141
 Alpha  occ. eigenvalues --   -0.67071  -0.66326  -0.65406  -0.64934  -0.64594
 Alpha  occ. eigenvalues --   -0.64561  -0.63572  -0.63407  -0.62131  -0.61675
 Alpha  occ. eigenvalues --   -0.61060  -0.59368  -0.58840  -0.57938  -0.57784
 Alpha  occ. eigenvalues --   -0.56026  -0.55832  -0.55592  -0.54873  -0.54185
 Alpha  occ. eigenvalues --   -0.54050  -0.53420  -0.53113  -0.52663  -0.52330
 Alpha  occ. eigenvalues --   -0.52214  -0.52007  -0.51376  -0.51177  -0.50934
 Alpha  occ. eigenvalues --   -0.50279  -0.49956  -0.49460  -0.49010  -0.49003
 Alpha  occ. eigenvalues --   -0.48748  -0.48353  -0.48333  -0.47843  -0.47377
 Alpha  occ. eigenvalues --   -0.47247  -0.47122  -0.47060  -0.46661  -0.46060
 Alpha  occ. eigenvalues --   -0.44906  -0.44515  -0.44349  -0.44329  -0.44241
 Alpha  occ. eigenvalues --   -0.44015  -0.43972  -0.43832  -0.43203  -0.42833
 Alpha  occ. eigenvalues --   -0.42565  -0.41276  -0.41088  -0.40825  -0.40619
 Alpha  occ. eigenvalues --   -0.40337  -0.39888  -0.39821  -0.38557  -0.35726
 Alpha  occ. eigenvalues --   -0.34287  -0.34236  -0.33575  -0.33573  -0.32735
 Alpha  occ. eigenvalues --   -0.32194  -0.31771  -0.29516  -0.24376
 Alpha virt. eigenvalues --   -0.10672  -0.07649  -0.05980  -0.04057  -0.01261
 Alpha virt. eigenvalues --   -0.00268  -0.00262   0.01852   0.01877   0.02343
 Alpha virt. eigenvalues --    0.05456   0.05936   0.06088   0.06506   0.06559
 Alpha virt. eigenvalues --    0.07425   0.07601   0.08163   0.08579   0.08741
 Alpha virt. eigenvalues --    0.08872   0.09487   0.09513   0.09684   0.10313
 Alpha virt. eigenvalues --    0.11151   0.11212   0.11345   0.11734   0.11950
 Alpha virt. eigenvalues --    0.12022   0.12957   0.13091   0.13285   0.13303
 Alpha virt. eigenvalues --    0.13529   0.13769   0.13994   0.14475   0.15262
 Alpha virt. eigenvalues --    0.15353   0.15429   0.15555   0.15972   0.16226
 Alpha virt. eigenvalues --    0.16420   0.16926   0.17401   0.17548   0.17648
 Alpha virt. eigenvalues --    0.17724   0.17794   0.18104   0.18482   0.19380
 Alpha virt. eigenvalues --    0.19594   0.19632   0.20246   0.20365   0.20853
 Alpha virt. eigenvalues --    0.21026   0.21030   0.21104   0.21632   0.22126
 Alpha virt. eigenvalues --    0.22294   0.22367   0.22646   0.22994   0.23301
 Alpha virt. eigenvalues --    0.23398   0.23782   0.24084   0.24192   0.24772
 Alpha virt. eigenvalues --    0.25088   0.25426   0.25458   0.25966   0.26138
 Alpha virt. eigenvalues --    0.26290   0.26550   0.26581   0.26842   0.27067
 Alpha virt. eigenvalues --    0.27078   0.27265   0.27441   0.27755   0.27949
 Alpha virt. eigenvalues --    0.28039   0.28441   0.28519   0.28669   0.28958
 Alpha virt. eigenvalues --    0.29193   0.29562   0.29727   0.29975   0.30371
 Alpha virt. eigenvalues --    0.30607   0.30910   0.31177   0.31415   0.31696
 Alpha virt. eigenvalues --    0.31958   0.32131   0.32549   0.32760   0.32961
 Alpha virt. eigenvalues --    0.33545   0.33551   0.33788   0.33926   0.34162
 Alpha virt. eigenvalues --    0.34284   0.34305   0.34754   0.34791   0.35442
 Alpha virt. eigenvalues --    0.35604   0.35654   0.35783   0.36133   0.36225
 Alpha virt. eigenvalues --    0.36307   0.36635   0.36721   0.37032   0.37064
 Alpha virt. eigenvalues --    0.37383   0.38410   0.38588   0.38694   0.38735
 Alpha virt. eigenvalues --    0.38791   0.39018   0.39551   0.39593   0.39864
 Alpha virt. eigenvalues --    0.39933   0.40157   0.40403   0.40791   0.40896
 Alpha virt. eigenvalues --    0.41037   0.41501   0.41632   0.41824   0.41851
 Alpha virt. eigenvalues --    0.42107   0.42590   0.42803   0.42882   0.43465
 Alpha virt. eigenvalues --    0.43477   0.43572   0.44086   0.44274   0.44684
 Alpha virt. eigenvalues --    0.44860   0.45133   0.45307   0.45435   0.45526
 Alpha virt. eigenvalues --    0.45550   0.46097   0.46303   0.46701   0.47250
 Alpha virt. eigenvalues --    0.47362   0.47461   0.47535   0.48277   0.48565
 Alpha virt. eigenvalues --    0.48672   0.49002   0.49108   0.49130   0.49429
 Alpha virt. eigenvalues --    0.49960   0.50024   0.50156   0.50510   0.50517
 Alpha virt. eigenvalues --    0.51114   0.51208   0.51477   0.51596   0.51897
 Alpha virt. eigenvalues --    0.52005   0.52044   0.52474   0.52554   0.52569
 Alpha virt. eigenvalues --    0.52824   0.52931   0.53118   0.53172   0.53683
 Alpha virt. eigenvalues --    0.54318   0.54679   0.55430   0.55456   0.55700
 Alpha virt. eigenvalues --    0.55984   0.56577   0.56664   0.56863   0.57221
 Alpha virt. eigenvalues --    0.57560   0.57928   0.58081   0.58332   0.59141
 Alpha virt. eigenvalues --    0.59233   0.59353   0.59678   0.59805   0.60678
 Alpha virt. eigenvalues --    0.60925   0.61201   0.61433   0.61653   0.62020
 Alpha virt. eigenvalues --    0.62028   0.62325   0.62593   0.62748   0.63159
 Alpha virt. eigenvalues --    0.63623   0.63957   0.64182   0.64348   0.64527
 Alpha virt. eigenvalues --    0.64635   0.65407   0.65471   0.65790   0.65842
 Alpha virt. eigenvalues --    0.65881   0.66217   0.66253   0.66790   0.66812
 Alpha virt. eigenvalues --    0.66965   0.67306   0.67604   0.67657   0.67973
 Alpha virt. eigenvalues --    0.68316   0.68390   0.68928   0.68936   0.69078
 Alpha virt. eigenvalues --    0.69132   0.69640   0.69873   0.69999   0.70212
 Alpha virt. eigenvalues --    0.70294   0.70399   0.70700   0.71314   0.71525
 Alpha virt. eigenvalues --    0.71908   0.72039   0.72418   0.72862   0.73109
 Alpha virt. eigenvalues --    0.73175   0.73428   0.73461   0.74211   0.74277
 Alpha virt. eigenvalues --    0.74666   0.75018   0.75410   0.75498   0.76205
 Alpha virt. eigenvalues --    0.76215   0.76573   0.76828   0.77006   0.77272
 Alpha virt. eigenvalues --    0.77772   0.78077   0.78341   0.78689   0.79099
 Alpha virt. eigenvalues --    0.79103   0.79332   0.79587   0.80049   0.80099
 Alpha virt. eigenvalues --    0.80885   0.81090   0.81509   0.81924   0.82623
 Alpha virt. eigenvalues --    0.82701   0.82809   0.82903   0.83311   0.83566
 Alpha virt. eigenvalues --    0.83630   0.84249   0.84771   0.84835   0.84923
 Alpha virt. eigenvalues --    0.85667   0.85727   0.86033   0.86560   0.86656
 Alpha virt. eigenvalues --    0.87287   0.88040   0.88068   0.88188   0.88782
 Alpha virt. eigenvalues --    0.88831   0.89368   0.89472   0.89910   0.90554
 Alpha virt. eigenvalues --    0.91012   0.91046   0.91412   0.91612   0.91899
 Alpha virt. eigenvalues --    0.92113   0.92995   0.93471   0.93696   0.94151
 Alpha virt. eigenvalues --    0.94814   0.95015   0.95549   0.95914   0.95945
 Alpha virt. eigenvalues --    0.96520   0.96819   0.97095   0.97350   0.97677
 Alpha virt. eigenvalues --    0.97939   0.98283   0.98584   0.99214   0.99220
 Alpha virt. eigenvalues --    0.99708   0.99987   1.00129   1.00516   1.00552
 Alpha virt. eigenvalues --    1.00730   1.01001   1.01262   1.01761   1.01953
 Alpha virt. eigenvalues --    1.02392   1.02511   1.02845   1.02921   1.03985
 Alpha virt. eigenvalues --    1.04134   1.04206   1.04417   1.04484   1.04692
 Alpha virt. eigenvalues --    1.04909   1.05180   1.05599   1.05727   1.06404
 Alpha virt. eigenvalues --    1.06448   1.07106   1.07346   1.07862   1.08490
 Alpha virt. eigenvalues --    1.08559   1.09366   1.09399   1.09802   1.10267
 Alpha virt. eigenvalues --    1.10669   1.11134   1.11331   1.11550   1.11949
 Alpha virt. eigenvalues --    1.12231   1.12343   1.12684   1.12940   1.13178
 Alpha virt. eigenvalues --    1.13683   1.14230   1.14522   1.14654   1.15294
 Alpha virt. eigenvalues --    1.15303   1.15942   1.16541   1.16657   1.17243
 Alpha virt. eigenvalues --    1.17316   1.18048   1.18168   1.18471   1.18722
 Alpha virt. eigenvalues --    1.18800   1.20000   1.20098   1.20449   1.20879
 Alpha virt. eigenvalues --    1.21159   1.21325   1.21848   1.22000   1.22290
 Alpha virt. eigenvalues --    1.22402   1.22927   1.23147   1.23620   1.23738
 Alpha virt. eigenvalues --    1.23928   1.24299   1.24376   1.24490   1.24768
 Alpha virt. eigenvalues --    1.25417   1.25603   1.25661   1.26377   1.26715
 Alpha virt. eigenvalues --    1.27254   1.27462   1.27761   1.27789   1.28531
 Alpha virt. eigenvalues --    1.28751   1.29190   1.29242   1.29600   1.29791
 Alpha virt. eigenvalues --    1.30115   1.30348   1.31383   1.31429   1.31606
 Alpha virt. eigenvalues --    1.32029   1.32502   1.32649   1.33204   1.33357
 Alpha virt. eigenvalues --    1.34053   1.34336   1.34676   1.35414   1.35785
 Alpha virt. eigenvalues --    1.35936   1.36443   1.36977   1.37023   1.37258
 Alpha virt. eigenvalues --    1.37534   1.38029   1.38348   1.38392   1.38946
 Alpha virt. eigenvalues --    1.39033   1.39128   1.39358   1.39617   1.40078
 Alpha virt. eigenvalues --    1.41579   1.41804   1.43043   1.43266   1.43824
 Alpha virt. eigenvalues --    1.43862   1.44194   1.44273   1.44540   1.44691
 Alpha virt. eigenvalues --    1.44839   1.45124   1.45375   1.45459   1.45565
 Alpha virt. eigenvalues --    1.45808   1.45880   1.46437   1.46464   1.47272
 Alpha virt. eigenvalues --    1.47316   1.47780   1.48947   1.48949   1.49375
 Alpha virt. eigenvalues --    1.49800   1.49845   1.49941   1.50660   1.50789
 Alpha virt. eigenvalues --    1.50953   1.51644   1.51734   1.52329   1.52597
 Alpha virt. eigenvalues --    1.52867   1.52911   1.53113   1.54208   1.54257
 Alpha virt. eigenvalues --    1.54400   1.55397   1.55568   1.55783   1.56255
 Alpha virt. eigenvalues --    1.56361   1.56719   1.56777   1.57037   1.57456
 Alpha virt. eigenvalues --    1.57563   1.57577   1.57948   1.58194   1.58504
 Alpha virt. eigenvalues --    1.58614   1.58658   1.58794   1.59531   1.59859
 Alpha virt. eigenvalues --    1.60517   1.60599   1.61427   1.61512   1.61759
 Alpha virt. eigenvalues --    1.61772   1.62281   1.62456   1.62896   1.63505
 Alpha virt. eigenvalues --    1.63617   1.63685   1.64717   1.64912   1.65426
 Alpha virt. eigenvalues --    1.65889   1.66043   1.66085   1.66635   1.67128
 Alpha virt. eigenvalues --    1.67244   1.67288   1.67550   1.68035   1.68044
 Alpha virt. eigenvalues --    1.68922   1.69012   1.69974   1.70779   1.70977
 Alpha virt. eigenvalues --    1.71285   1.71471   1.71492   1.72101   1.72635
 Alpha virt. eigenvalues --    1.73163   1.73827   1.73897   1.74964   1.75322
 Alpha virt. eigenvalues --    1.75718   1.76655   1.76929   1.77025   1.77399
 Alpha virt. eigenvalues --    1.77689   1.78049   1.79246   1.79422   1.80204
 Alpha virt. eigenvalues --    1.80585   1.81110   1.81238   1.81481   1.81955
 Alpha virt. eigenvalues --    1.82155   1.82924   1.83145   1.84131   1.84206
 Alpha virt. eigenvalues --    1.84846   1.85826   1.86815   1.86989   1.87355
 Alpha virt. eigenvalues --    1.87864   1.88254   1.88313   1.88608   1.88883
 Alpha virt. eigenvalues --    1.88960   1.89365   1.90165   1.90208   1.91180
 Alpha virt. eigenvalues --    1.91331   1.91953   1.92377   1.92455   1.92934
 Alpha virt. eigenvalues --    1.93388   1.94021   1.94811   1.94918   1.95916
 Alpha virt. eigenvalues --    1.96049   1.96644   1.96746   1.97200   1.97523
 Alpha virt. eigenvalues --    1.98750   1.98928   1.99350   1.99537   1.99930
 Alpha virt. eigenvalues --    2.00537   2.01512   2.01880   2.01882   2.02903
 Alpha virt. eigenvalues --    2.02957   2.03132   2.04491   2.04522   2.05302
 Alpha virt. eigenvalues --    2.05684   2.05685   2.06277   2.06351   2.06966
 Alpha virt. eigenvalues --    2.07355   2.07813   2.08064   2.08185   2.08933
 Alpha virt. eigenvalues --    2.09047   2.09052   2.09678   2.10662   2.10977
 Alpha virt. eigenvalues --    2.11454   2.12828   2.12893   2.13822   2.14362
 Alpha virt. eigenvalues --    2.15296   2.15485   2.16077   2.16215   2.16869
 Alpha virt. eigenvalues --    2.17170   2.17660   2.19127   2.19177   2.19434
 Alpha virt. eigenvalues --    2.21238   2.21524   2.22370   2.23275   2.23858
 Alpha virt. eigenvalues --    2.24406   2.25097   2.25531   2.26426   2.26574
 Alpha virt. eigenvalues --    2.27237   2.27879   2.28284   2.28545   2.29185
 Alpha virt. eigenvalues --    2.30109   2.30624   2.30755   2.31678   2.31739
 Alpha virt. eigenvalues --    2.32642   2.33320   2.33508   2.33973   2.34402
 Alpha virt. eigenvalues --    2.34798   2.35600   2.35623   2.36224   2.36254
 Alpha virt. eigenvalues --    2.36420   2.37050   2.37744   2.37867   2.38165
 Alpha virt. eigenvalues --    2.38679   2.39029   2.39243   2.39637   2.39886
 Alpha virt. eigenvalues --    2.41521   2.41607   2.42422   2.42930   2.43197
 Alpha virt. eigenvalues --    2.43736   2.44434   2.45575   2.45877   2.47030
 Alpha virt. eigenvalues --    2.47225   2.48376   2.48603   2.49163   2.49679
 Alpha virt. eigenvalues --    2.50849   2.52574   2.52674   2.53701   2.54377
 Alpha virt. eigenvalues --    2.54516   2.55096   2.55241   2.55623   2.56422
 Alpha virt. eigenvalues --    2.57079   2.57423   2.57931   2.59063   2.59732
 Alpha virt. eigenvalues --    2.59955   2.60123   2.61134   2.61276   2.62466
 Alpha virt. eigenvalues --    2.62682   2.62752   2.62992   2.63266   2.63652
 Alpha virt. eigenvalues --    2.64654   2.65009   2.65546   2.65816   2.65891
 Alpha virt. eigenvalues --    2.66209   2.66493   2.66856   2.67493   2.67569
 Alpha virt. eigenvalues --    2.67837   2.68168   2.68707   2.69448   2.70494
 Alpha virt. eigenvalues --    2.70529   2.71151   2.71959   2.72576   2.73031
 Alpha virt. eigenvalues --    2.73166   2.73637   2.74029   2.74084   2.74101
 Alpha virt. eigenvalues --    2.74361   2.74433   2.74744   2.74864   2.75747
 Alpha virt. eigenvalues --    2.76040   2.76420   2.76629   2.76659   2.76892
 Alpha virt. eigenvalues --    2.77685   2.77884   2.78178   2.78483   2.79284
 Alpha virt. eigenvalues --    2.79396   2.79472   2.79661   2.80086   2.80141
 Alpha virt. eigenvalues --    2.80317   2.81021   2.81232   2.81633   2.81794
 Alpha virt. eigenvalues --    2.82319   2.82600   2.83139   2.84154   2.84630
 Alpha virt. eigenvalues --    2.84774   2.84807   2.85460   2.85591   2.85918
 Alpha virt. eigenvalues --    2.85968   2.86813   2.86879   2.87157   2.87186
 Alpha virt. eigenvalues --    2.87681   2.87825   2.88437   2.88929   2.89508
 Alpha virt. eigenvalues --    2.90052   2.90140   2.90332   2.90414   2.91224
 Alpha virt. eigenvalues --    2.91326   2.91494   2.91770   2.91922   2.92017
 Alpha virt. eigenvalues --    2.92052   2.92476   2.92480   2.92848   2.93110
 Alpha virt. eigenvalues --    2.93230   2.93733   2.93774   2.93923   2.94044
 Alpha virt. eigenvalues --    2.95055   2.95228   2.95530   2.95944   2.96644
 Alpha virt. eigenvalues --    2.96792   2.97146   2.97455   2.97729   2.98471
 Alpha virt. eigenvalues --    2.98529   2.98830   2.99353   2.99547   2.99833
 Alpha virt. eigenvalues --    2.99968   2.99982   3.00423   3.00757   3.01051
 Alpha virt. eigenvalues --    3.01295   3.01401   3.01664   3.01849   3.02052
 Alpha virt. eigenvalues --    3.02122   3.02456   3.02738   3.03007   3.03496
 Alpha virt. eigenvalues --    3.03566   3.03811   3.04051   3.04353   3.04492
 Alpha virt. eigenvalues --    3.05004   3.05487   3.05862   3.06164   3.06200
 Alpha virt. eigenvalues --    3.06466   3.06930   3.07234   3.07289   3.07497
 Alpha virt. eigenvalues --    3.07799   3.08523   3.09023   3.09087   3.09154
 Alpha virt. eigenvalues --    3.09245   3.09589   3.09632   3.09714   3.09942
 Alpha virt. eigenvalues --    3.10128   3.10775   3.10965   3.11396   3.11711
 Alpha virt. eigenvalues --    3.11720   3.12064   3.12292   3.12676   3.13032
 Alpha virt. eigenvalues --    3.13361   3.13800   3.14259   3.14292   3.14923
 Alpha virt. eigenvalues --    3.15074   3.15436   3.15635   3.16197   3.16428
 Alpha virt. eigenvalues --    3.16750   3.16773   3.17214   3.17575   3.17909
 Alpha virt. eigenvalues --    3.18095   3.18216   3.18230   3.18348   3.19013
 Alpha virt. eigenvalues --    3.19171   3.20020   3.20076   3.20209   3.20617
 Alpha virt. eigenvalues --    3.20855   3.21370   3.21398   3.21500   3.21701
 Alpha virt. eigenvalues --    3.22213   3.22229   3.22723   3.23190   3.23473
 Alpha virt. eigenvalues --    3.24000   3.24077   3.24549   3.25045   3.25133
 Alpha virt. eigenvalues --    3.25367   3.25421   3.26039   3.26665   3.26737
 Alpha virt. eigenvalues --    3.27111   3.27412   3.28067   3.28294   3.29349
 Alpha virt. eigenvalues --    3.29662   3.29865   3.30148   3.30249   3.30761
 Alpha virt. eigenvalues --    3.30980   3.31502   3.31613   3.31931   3.32260
 Alpha virt. eigenvalues --    3.32270   3.32595   3.32930   3.33003   3.33485
 Alpha virt. eigenvalues --    3.33544   3.33886   3.34245   3.34720   3.34801
 Alpha virt. eigenvalues --    3.34906   3.35028   3.35811   3.35812   3.36301
 Alpha virt. eigenvalues --    3.36538   3.37122   3.37199   3.37286   3.37298
 Alpha virt. eigenvalues --    3.37881   3.38657   3.38918   3.39503   3.39513
 Alpha virt. eigenvalues --    3.39736   3.40530   3.40675   3.41088   3.41338
 Alpha virt. eigenvalues --    3.41607   3.41948   3.42241   3.42449   3.42614
 Alpha virt. eigenvalues --    3.43640   3.43894   3.43948   3.44893   3.46013
 Alpha virt. eigenvalues --    3.46310   3.46612   3.46898   3.47281   3.47787
 Alpha virt. eigenvalues --    3.48038   3.48207   3.48430   3.49121   3.49444
 Alpha virt. eigenvalues --    3.49760   3.49992   3.50043   3.50190   3.51280
 Alpha virt. eigenvalues --    3.51349   3.51513   3.52004   3.52187   3.52311
 Alpha virt. eigenvalues --    3.52365   3.52509   3.52803   3.52979   3.53006
 Alpha virt. eigenvalues --    3.53711   3.54175   3.54425   3.54535   3.55387
 Alpha virt. eigenvalues --    3.55417   3.56379   3.56845   3.56975   3.57857
 Alpha virt. eigenvalues --    3.58400   3.58744   3.58944   3.59466   3.59525
 Alpha virt. eigenvalues --    3.59820   3.60417   3.61094   3.61377   3.61885
 Alpha virt. eigenvalues --    3.61974   3.63335   3.63383   3.63721   3.63945
 Alpha virt. eigenvalues --    3.64220   3.64565   3.65135   3.65229   3.65784
 Alpha virt. eigenvalues --    3.65845   3.66145   3.66887   3.67228   3.67672
 Alpha virt. eigenvalues --    3.68194   3.69079   3.69614   3.70081   3.70200
 Alpha virt. eigenvalues --    3.70333   3.70554   3.70665   3.70817   3.71039
 Alpha virt. eigenvalues --    3.71403   3.72014   3.72251   3.72310   3.72654
 Alpha virt. eigenvalues --    3.73242   3.73544   3.73699   3.74117   3.75120
 Alpha virt. eigenvalues --    3.75518   3.75691   3.76366   3.77153   3.77587
 Alpha virt. eigenvalues --    3.78241   3.78746   3.79366   3.79599   3.79982
 Alpha virt. eigenvalues --    3.80270   3.80481   3.80868   3.81716   3.82963
 Alpha virt. eigenvalues --    3.83350   3.83379   3.83706   3.84052   3.84121
 Alpha virt. eigenvalues --    3.84658   3.84663   3.85134   3.85352   3.85548
 Alpha virt. eigenvalues --    3.85803   3.86477   3.86505   3.86806   3.87445
 Alpha virt. eigenvalues --    3.87628   3.88391   3.88530   3.88674   3.89087
 Alpha virt. eigenvalues --    3.89196   3.89636   3.90100   3.90358   3.90668
 Alpha virt. eigenvalues --    3.90739   3.91147   3.91729   3.91834   3.92090
 Alpha virt. eigenvalues --    3.92430   3.93213   3.93459   3.93590   3.94035
 Alpha virt. eigenvalues --    3.94264   3.94995   3.95267   3.95907   3.95924
 Alpha virt. eigenvalues --    3.96320   3.96875   3.97567   3.97918   3.98061
 Alpha virt. eigenvalues --    3.98425   3.98615   3.99285   3.99801   3.99832
 Alpha virt. eigenvalues --    4.00063   4.00286   4.00470   4.00902   4.00991
 Alpha virt. eigenvalues --    4.01392   4.01643   4.02017   4.02320   4.02749
 Alpha virt. eigenvalues --    4.02884   4.03677   4.03749   4.04164   4.05405
 Alpha virt. eigenvalues --    4.05603   4.05729   4.05986   4.06321   4.06451
 Alpha virt. eigenvalues --    4.07252   4.07670   4.08057   4.08105   4.08935
 Alpha virt. eigenvalues --    4.09180   4.09765   4.09975   4.10040   4.10412
 Alpha virt. eigenvalues --    4.10769   4.10939   4.11521   4.11634   4.12167
 Alpha virt. eigenvalues --    4.12526   4.13138   4.13631   4.13727   4.14187
 Alpha virt. eigenvalues --    4.14759   4.14964   4.15039   4.16139   4.16469
 Alpha virt. eigenvalues --    4.16935   4.17057   4.17389   4.17604   4.18124
 Alpha virt. eigenvalues --    4.18352   4.18376   4.19021   4.19583   4.19627
 Alpha virt. eigenvalues --    4.20122   4.20496   4.21053   4.21932   4.22003
 Alpha virt. eigenvalues --    4.22533   4.22708   4.23164   4.23388   4.23892
 Alpha virt. eigenvalues --    4.24038   4.24517   4.24647   4.25283   4.25354
 Alpha virt. eigenvalues --    4.25765   4.25830   4.26248   4.26361   4.26591
 Alpha virt. eigenvalues --    4.27907   4.28418   4.28550   4.29308   4.29563
 Alpha virt. eigenvalues --    4.30051   4.30582   4.30785   4.31318   4.31398
 Alpha virt. eigenvalues --    4.31674   4.32474   4.32854   4.33147   4.33249
 Alpha virt. eigenvalues --    4.33697   4.34666   4.36427   4.37445   4.37892
 Alpha virt. eigenvalues --    4.38150   4.38366   4.41510   4.41631   4.41680
 Alpha virt. eigenvalues --    4.42133   4.42213   4.42454   4.43352   4.43399
 Alpha virt. eigenvalues --    4.44936   4.44948   4.45589   4.47397   4.48374
 Alpha virt. eigenvalues --    4.48594   4.48799   4.48847   4.48904   4.49931
 Alpha virt. eigenvalues --    4.50047   4.50313   4.50555   4.50733   4.50853
 Alpha virt. eigenvalues --    4.52029   4.53340   4.53450   4.53892   4.55273
 Alpha virt. eigenvalues --    4.56551   4.57147   4.57267   4.57562   4.58609
 Alpha virt. eigenvalues --    4.58631   4.58875   4.59300   4.59332   4.59559
 Alpha virt. eigenvalues --    4.59990   4.60510   4.60927   4.61376   4.62648
 Alpha virt. eigenvalues --    4.62857   4.63280   4.63605   4.64083   4.64667
 Alpha virt. eigenvalues --    4.65353   4.66227   4.67481   4.67495   4.67772
 Alpha virt. eigenvalues --    4.68456   4.68846   4.69158   4.69256   4.69650
 Alpha virt. eigenvalues --    4.69761   4.70654   4.71690   4.72196   4.72506
 Alpha virt. eigenvalues --    4.73458   4.73701   4.74625   4.75507   4.76050
 Alpha virt. eigenvalues --    4.76675   4.78030   4.78067   4.78207   4.78415
 Alpha virt. eigenvalues --    4.79504   4.79672   4.80593   4.81252   4.81897
 Alpha virt. eigenvalues --    4.82316   4.83441   4.84370   4.85291   4.85575
 Alpha virt. eigenvalues --    4.86656   4.87302   4.87783   4.89589   4.90482
 Alpha virt. eigenvalues --    4.90714   4.90936   4.91233   4.92039   4.92237
 Alpha virt. eigenvalues --    4.92804   4.93038   4.93120   4.93764   4.93957
 Alpha virt. eigenvalues --    4.94114   4.94926   4.95482   4.96080   4.96353
 Alpha virt. eigenvalues --    4.96668   4.97244   4.98401   4.99993   5.00185
 Alpha virt. eigenvalues --    5.00412   5.01947   5.03657   5.03658   5.04542
 Alpha virt. eigenvalues --    5.04783   5.05424   5.05663   5.06043   5.06735
 Alpha virt. eigenvalues --    5.07800   5.08245   5.08264   5.08931   5.09453
 Alpha virt. eigenvalues --    5.10267   5.10542   5.10552   5.11098   5.11584
 Alpha virt. eigenvalues --    5.11817   5.12317   5.12397   5.12517   5.13281
 Alpha virt. eigenvalues --    5.13934   5.14495   5.14999   5.15435   5.16742
 Alpha virt. eigenvalues --    5.16800   5.17117   5.18894   5.19730   5.20276
 Alpha virt. eigenvalues --    5.20894   5.21026   5.23027   5.23059   5.23736
 Alpha virt. eigenvalues --    5.23917   5.24756   5.24887   5.24960   5.25654
 Alpha virt. eigenvalues --    5.27834   5.28136   5.28574   5.28648   5.29147
 Alpha virt. eigenvalues --    5.29285   5.29335   5.30032   5.30805   5.31669
 Alpha virt. eigenvalues --    5.31961   5.32382   5.33159   5.33987   5.35155
 Alpha virt. eigenvalues --    5.36493   5.37443   5.38252   5.38580   5.38832
 Alpha virt. eigenvalues --    5.38882   5.40001   5.40301   5.40652   5.41077
 Alpha virt. eigenvalues --    5.43208   5.43422   5.44072   5.44545   5.47576
 Alpha virt. eigenvalues --    5.47588   5.48888   5.49146   5.49700   5.50826
 Alpha virt. eigenvalues --    5.52379   5.52388   5.52941   5.55784   5.56750
 Alpha virt. eigenvalues --    5.57197   5.57878   5.58076   5.59269   5.59300
 Alpha virt. eigenvalues --    5.59506   5.60133   5.60241   5.61502   5.62296
 Alpha virt. eigenvalues --    5.62299   5.63758   5.64276   5.64380   5.64910
 Alpha virt. eigenvalues --    5.65610   5.65787   5.66367   5.66999   5.68128
 Alpha virt. eigenvalues --    5.69541   5.71454   5.73737   5.75461   5.76042
 Alpha virt. eigenvalues --    5.77244   5.77606   5.79321   5.80009   5.81457
 Alpha virt. eigenvalues --    5.83714   5.85252   5.87941   5.91416   5.91635
 Alpha virt. eigenvalues --    5.92956   5.95278   5.96188   6.02116   6.02161
 Alpha virt. eigenvalues --    6.03198   6.08189   6.09303   6.09564   6.15333
 Alpha virt. eigenvalues --    6.16149   6.18883   6.18893   6.22224   6.25264
 Alpha virt. eigenvalues --    6.28060   6.35053   6.36156   6.37476   6.38415
 Alpha virt. eigenvalues --    6.40816   6.43120   6.58656   6.58885   6.75428
 Alpha virt. eigenvalues --    6.80737   6.83081   6.87403   6.93973   6.94281
 Alpha virt. eigenvalues --    6.96972   6.98533   6.98813   6.99749   7.04669
 Alpha virt. eigenvalues --    7.08392   7.10412   7.16640   7.20696   7.22898
 Alpha virt. eigenvalues --    7.23479   7.27294   7.32996   7.33870   7.34303
 Alpha virt. eigenvalues --    7.45306   7.50794   8.45964   8.46736   8.55604
 Alpha virt. eigenvalues --    8.57549   8.82563   8.85569   8.90923   8.91287
 Alpha virt. eigenvalues --    8.92077   8.99313  15.85477  22.82406  22.84231
 Alpha virt. eigenvalues --   22.95941  22.98480  23.02537  23.12347  23.13209
 Alpha virt. eigenvalues --   23.14537  23.17242  23.17299  23.20109  23.24217
 Alpha virt. eigenvalues --   23.24329  23.28577  23.28700  23.28805  23.29716
 Alpha virt. eigenvalues --   23.31879  23.33471  23.34632  23.35633  23.38120
 Alpha virt. eigenvalues --   23.46565  23.53513  23.54051  23.59769  23.64918
 Alpha virt. eigenvalues --   23.66395  23.73460  23.78245  23.87247  23.89128
 Alpha virt. eigenvalues --   24.17397  24.18796  24.20104  32.19784  32.19797
 Alpha virt. eigenvalues --   32.59580  33.13025  33.28861  44.20395  44.25074
 Alpha virt. eigenvalues --   57.35156  57.54098
          Condensed to atoms (all electrons):
 Mulliken charges:
               1
     1  C   -0.433123
     2  C   -0.022786
     3  C   -0.084002
     4  C    0.019693
     5  C   -0.111520
     6  C   -0.058399
     7  C    0.027079
     8  C   -0.121782
     9  C   -0.132870
    10  C    0.107603
    11  C   -0.185599
    12  N   -0.081140
    13  C   -0.130316
    14  C   -0.150529
    15  N   -0.101267
    16  C    0.111255
    17  C    0.159419
    18  C   -0.261566
    19  C   -0.153889
    20  C   -0.045159
    21  C   -0.027952
    22  N    0.493781
    23  O   -0.366199
    24  O   -0.366271
    25  C   -0.035395
    26  C   -0.185905
    27  C    0.111365
    28  C   -0.022801
    29  C   -0.433091
    30  C   -0.084109
    31  C    0.019860
    32  C   -0.111605
    33  C   -0.058345
    34  C    0.027079
    35  C   -0.150518
    36  C   -0.130331
    37  C    0.107612
    38  C   -0.185601
    39  N   -0.081142
    40  C   -0.132865
    41  C   -0.121794
    42  N   -0.101375
    43  B    0.340381
    44  F   -0.363632
    45  F   -0.329772
    46  H    0.160854
    47  H    0.134618
    48  H    0.164653
    49  H    0.169334
    50  H    0.144610
    51  H    0.119021
    52  H    0.150088
    53  H    0.170260
    54  H    0.168414
    55  H    0.156383
    56  H    0.178558
    57  H    0.198459
    58  H    0.199035
    59  H    0.184994
    60  H    0.160823
    61  H    0.164671
    62  H    0.134614
    63  H    0.169329
    64  H    0.144634
    65  H    0.119027
    66  H    0.156378
    67  H    0.168412
    68  H    0.170259
    69  H    0.150091
 Sum of Mulliken charges =  -0.00000
 Mulliken charges with hydrogens summed into heavy atoms:
               1
     1  C    0.027001
     2  C   -0.022786
     3  C    0.085332
     4  C    0.019693
     5  C    0.033090
     6  C    0.060623
     7  C    0.027079
     8  C    0.028306
     9  C    0.037390
    10  C    0.107603
    11  C   -0.185599
    12  N   -0.081140
    13  C    0.038099
    14  C    0.005854
    15  N   -0.101267
    16  C    0.111255
    17  C    0.159419
    18  C   -0.261566
    19  C    0.024669
    20  C    0.153300
    21  C   -0.027952
    22  N    0.493781
    23  O   -0.366199
    24  O   -0.366271
    25  C    0.163640
    26  C   -0.000911
    27  C    0.111365
    28  C   -0.022801
    29  C    0.027017
    30  C    0.085221
    31  C    0.019860
    32  C    0.033029
    33  C    0.060683
    34  C    0.027079
    35  C    0.005860
    36  C    0.038081
    37  C    0.107612
    38  C   -0.185601
    39  N   -0.081142
    40  C    0.037394
    41  C    0.028297
    42  N   -0.101375
    43  B    0.340381
    44  F   -0.363632
    45  F   -0.329772
 Electronic spatial extent (au):  <R**2>=          40139.3018
 Charge=             -0.0000 electrons
 Dipole moment (field-independent basis, Debye):
    X=            -11.5562    Y=             -0.0012    Z=             -1.1351  Tot=             11.6118
 Quadrupole moment (field-independent basis, Debye-Ang):
   XX=           -436.9483   YY=           -253.9238   ZZ=           -264.4291
   XY=             -0.0024   XZ=              0.2853   YZ=             -0.0113
 Traceless Quadrupole moment (field-independent basis, Debye-Ang):
   XX=           -118.5145   YY=             64.5100   ZZ=             54.0046
   XY=             -0.0024   XZ=              0.2853   YZ=             -0.0113
 Octapole moment (field-independent basis, Debye-Ang**2):
  XXX=           -543.5294  YYY=             -0.1484  ZZZ=              0.0995  XYY=           -700.3092
  XXY=             -0.0024  XXZ=             -8.2276  XZZ=            -76.1798  YZZ=              0.0115
  YYZ=             27.9341  XYZ=             -0.1103
 Hexadecapole moment (field-independent basis, Debye-Ang**3):
 XXXX=         -54432.0760 YYYY=         -21650.4721 ZZZZ=           -692.7058 XXXY=              0.5802
 XXXZ=             42.2394 YYYX=             -1.0519 YYYZ=             -0.1371 ZZZX=              0.6371
 ZZZY=              0.0778 XXYY=         -15787.3576 XXZZ=          -5768.1966 YYZZ=          -3961.9871
 XXYZ=             -1.0966 YYXZ=            115.5447 ZZXY=              0.0610
 N-N= 4.713860142872D+03 E-N=-1.407707176024D+04  KE= 1.986286828219D+03
 No NMR shielding tensors so no spin-rotation constants.
 Leave Link  601 at Fri Oct 31 00:34:32 2025, MaxMem= 30870077440 cpu:             105.0 elap:               2.0
 (Enter /public/software/gauss/g16/l9999.exe)
 1\1\GINC-CU069\SP\RM062X\def2TZVPP\C35H24B1F2N5O2\BAIDING\31-Oct-2025\
 0\\#p M062X/DEF2TZVPP scrf=(solvent=water) em=GD3\\Energy calculation 
 for BNP_CN_CN\\0,1\C,0,-3.897339,3.10568,-0.117459\C,0,-2.493678,2.583
 481,-0.082043\C,0,-1.363037,3.380681,-0.101544\C,0,-0.217671,2.54593,-
 0.070978\C,0,1.173884,2.920564,-0.083892\C,0,1.603529,4.202419,0.01897
 \C,0,2.99198,4.648695,0.003053\C,0,3.252764,6.029317,0.131912\C,0,4.54
 9354,6.523466,0.125703\C,0,5.628544,5.633457,-0.011559\C,0,6.967951,6.
 129375,-0.019532\N,0,8.062404,6.534018,-0.026091\C,0,5.38981,4.251231,
 -0.141271\C,0,4.090391,3.770879,-0.133521\N,0,-0.629618,1.245893,-0.04
 037\C,0,-2.024787,1.223232,-0.040582\C,0,-2.716368,-0.000183,-0.029902
 \C,0,-4.210642,-0.000199,-0.017835\C,0,-4.901954,0.000751,1.202904\C,0
 ,-6.292535,0.000798,1.225491\C,0,-6.978308,-0.000088,0.011008\N,0,-8.4
 39065,-0.00005,0.025982\O,0,-9.016597,0.000589,1.117831\O,0,-9.038595,
 -0.000605,-1.053957\C,0,-6.317778,-0.001012,-1.217367\C,0,-4.927129,-0
 .001071,-1.223713\C,0,-2.024704,-1.223562,-0.040018\C,0,-2.493476,-2.5
 83866,-0.080419\C,0,-3.897088,-3.10626,-0.11495\C,0,-1.362775,-3.38099
 5,-0.099691\C,0,-0.217481,-2.546144,-0.07002\C,0,1.174117,-2.920624,-0
 .083257\C,0,1.603957,-4.202377,0.020042\C,0,2.992446,-4.648503,0.00368
 2\C,0,4.09076,-3.770433,-0.132031\C,0,5.390226,-4.250652,-0.140378\C,0
 ,5.629103,-5.632987,-0.012131\C,0,6.968561,-6.128756,-0.020723\N,0,8.0
 63056,-6.533279,-0.027826\C,0,4.550014,-6.523242,0.124339\C,0,3.253379
 ,-6.029225,0.131189\N,0,-0.629513,-1.246108,-0.040156\B,0,0.265888,-0.
 000073,0.191431\F,0,1.33712,-0.000066,-0.716477\F,0,0.768811,0.000048,
 1.498038\H,0,-4.476585,2.783904,0.753144\H,0,-3.879536,4.19835,-0.1283
 26\H,0,-4.438122,2.766596,-1.006264\H,0,-1.351016,4.460501,-0.152854\H
 ,0,1.887466,2.11224,-0.191483\H,0,0.869803,4.997485,0.130053\H,0,2.419
 547,6.717243,0.238018\H,0,4.734958,7.587272,0.225749\H,0,6.22606,3.568
 731,-0.246533\H,0,3.927942,2.703484,-0.233735\H,0,-4.349615,0.00145,2.
 136115\H,0,-6.836172,0.001522,2.161303\H,0,-6.880971,-0.001661,-2.1415
 55\H,0,-4.394316,-0.001762,-2.168191\H,0,-4.476049,-2.783862,0.755617\
 H,0,-4.438243,-2.767938,-1.003811\H,0,-3.879153,-4.198934,-0.124967\H,
 0,-1.35068,-4.46085,-0.15024\H,0,1.887543,-2.112262,-0.191582\H,0,0.87
 0352,-4.997479,0.131657\H,0,3.928191,-2.70294,-0.230995\H,0,6.226402,-
 3.567953,-0.244946\H,0,4.735737,-7.587128,0.22329\H,0,2.420238,-6.7173
 36,0.236689\\Version=ES64L-G16RevA.03\State=1-A\HF=-1996.9981421\RMSD=
 2.989e-09\Dipole=-4.5465712,-0.0004569,-0.4465697\Quadrupole=-88.11265
 7,47.9615712,40.1510858,-0.0017655,0.2120813,-0.0083951\PG=C01 [X(C35H
 24B1F2N5O2)]\\@


 THERE IS NO SCIENCE WITHOUT FANCY, NOR ART WITHOUT FACTS.
     -- VLADIMIR NABAKOV
 Job cpu time:       0 days 13 hours 42 minutes 12.7 seconds.
 Elapsed time:       0 days  0 hours 13 minutes  6.1 seconds.
 File lengths (MBytes):  RWF=   2025 Int=      0 D2E=      0 Chk=    175 Scr=      1
 Normal termination of Gaussian 16 at Fri Oct 31 00:34:33 2025.
