 Entering Gaussian System, Link 0=g16
 Input=BNP_23NO2_23NO2_reduced_sp.gjf
 Output=BNP_23NO2_23NO2_reduced_sp.log
 Initial command:
 /public/software/gauss/g16/l1.exe "/public/home/baiding/1024_sp/tmp_BNP_23NO2_23NO2_reduced_sp_1526250/Gau-2929058.inp" -scrdir="/public/home/baiding/1024_sp/tmp_BNP_23NO2_23NO2_reduced_sp_1526250/"
 Entering Link 1 = /public/software/gauss/g16/l1.exe PID=   2929059.
  
 Copyright (c) 1988,1990,1992,1993,1995,1998,2003,2009,2016,
            Gaussian, Inc.  All Rights Reserved.
  
 This is part of the Gaussian(R) 16 program.  It is based on
 the Gaussian(R) 09 system (copyright 2009, Gaussian, Inc.),
 the Gaussian(R) 03 system (copyright 2003, Gaussian, Inc.),
 the Gaussian(R) 98 system (copyright 1998, Gaussian, Inc.),
 the Gaussian(R) 94 system (copyright 1995, Gaussian, Inc.),
 the Gaussian 92(TM) system (copyright 1992, Gaussian, Inc.),
 the Gaussian 90(TM) system (copyright 1990, Gaussian, Inc.),
 the Gaussian 88(TM) system (copyright 1988, Gaussian, Inc.),
 the Gaussian 86(TM) system (copyright 1986, Carnegie Mellon
 University), and the Gaussian 82(TM) system (copyright 1983,
 Carnegie Mellon University). Gaussian is a federally registered
 trademark of Gaussian, Inc.
  
 This software contains proprietary and confidential information,
 including trade secrets, belonging to Gaussian, Inc.
  
 This software is provided under written license and may be
 used, copied, transmitted, or stored only in accord with that
 written license.
  
 The following legend is applicable only to US Government
 contracts under FAR:
  
                    RESTRICTED RIGHTS LEGEND
  
 Use, reproduction and disclosure by the US Government is
 subject to restrictions as set forth in subparagraphs (a)
 and (c) of the Commercial Computer Software - Restricted
 Rights clause in FAR 52.227-19.
  
 Gaussian, Inc.
 340 Quinnipiac St., Bldg. 40, Wallingford CT 06492
  
  
 ---------------------------------------------------------------
 Warning -- This program may not be used in any manner that
 competes with the business of Gaussian, Inc. or will provide
 assistance to any competitor of Gaussian, Inc.  The licensee
 of this program is prohibited from giving any competitor of
 Gaussian, Inc. access to this program.  By using this program,
 the user acknowledges that Gaussian, Inc. is engaged in the
 business of creating and licensing software in the field of
 computational chemistry and represents and warrants to the
 licensee that it is not a competitor of Gaussian, Inc. and that
 it will not use this program in any manner prohibited above.
 ---------------------------------------------------------------
  

 Cite this work as:
 Gaussian 16, Revision A.03,
 M. J. Frisch, G. W. Trucks, H. B. Schlegel, G. E. Scuseria, 
 M. A. Robb, J. R. Cheeseman, G. Scalmani, V. Barone, 
 G. A. Petersson, H. Nakatsuji, X. Li, M. Caricato, A. V. Marenich, 
 J. Bloino, B. G. Janesko, R. Gomperts, B. Mennucci, H. P. Hratchian, 
 J. V. Ortiz, A. F. Izmaylov, J. L. Sonnenberg, D. Williams-Young, 
 F. Ding, F. Lipparini, F. Egidi, J. Goings, B. Peng, A. Petrone, 
 T. Henderson, D. Ranasinghe, V. G. Zakrzewski, J. Gao, N. Rega, 
 G. Zheng, W. Liang, M. Hada, M. Ehara, K. Toyota, R. Fukuda, 
 J. Hasegawa, M. Ishida, T. Nakajima, Y. Honda, O. Kitao, H. Nakai, 
 T. Vreven, K. Throssell, J. A. Montgomery, Jr., J. E. Peralta, 
 F. Ogliaro, M. J. Bearpark, J. J. Heyd, E. N. Brothers, K. N. Kudin, 
 V. N. Staroverov, T. A. Keith, R. Kobayashi, J. Normand, 
 K. Raghavachari, A. P. Rendell, J. C. Burant, S. S. Iyengar, 
 J. Tomasi, M. Cossi, J. M. Millam, M. Klene, C. Adamo, R. Cammi, 
 J. W. Ochterski, R. L. Martin, K. Morokuma, O. Farkas, 
 J. B. Foresman, and D. J. Fox, Gaussian, Inc., Wallingford CT, 2016.
 
 ******************************************
 Gaussian 16:  ES64L-G16RevA.03 25-Dec-2016
                24-Oct-2025 
 ******************************************
 %nprocshared=64
 Will use up to   64 processors via shared memory.
 %mem=230GB
 %chk=BNP_23NO2_23NO2_reduced_sp.chk
 ----------------------------------------------
 #p M062X/DEF2TZVPP scrf=(solvent=water) em=GD3
 ----------------------------------------------
 1/38=1,172=1/1;
 2/12=2,17=6,18=5,40=1/2;
 3/5=44,7=202,11=2,25=1,30=1,70=2201,72=1,74=-55,124=31/1,2,3;
 4//1;
 5/5=2,38=5,53=1/2;
 6/7=2,8=2,9=2,10=2,28=1/1;
 99/5=1,9=1/99;
 Leave Link    1 at Fri Oct 24 22:56:34 2025, MaxMem= 30870077440 cpu:              17.5 elap:               0.3
 (Enter /public/software/gauss/g16/l101.exe)
 ----------------------------------------------
 Energy calculation for BNP_23NO2_23NO2_reduced
 ----------------------------------------------
 Symbolic Z-matrix:
 Charge = -1 Multiplicity = 2
 C                     5.10758   3.11909  -0.13435 
 C                     3.70634   2.59163  -0.07595 
 C                     2.57231   3.37692  -0.08161 
 C                     1.42728   2.53296  -0.03471 
 C                     0.04696   2.86481  -0.03439 
 C                    -0.46654   4.13605   0.00429 
 C                    -1.86469   4.46066   0.00639 
 C                    -2.2827    5.8181    0.08112 
 C                    -3.61559   6.16491   0.11528 
 C                    -4.6236    5.18039   0.06517 
 N                    -5.96015   5.56313   0.31243 
 O                    -6.27407   6.77659   0.2021 
 O                    -6.7942    4.69349   0.66503 
 C                    -4.21724   3.82473  -0.07133 
 N                    -5.14746   2.74696  -0.39808 
 O                    -4.96118   1.63871   0.1232 
 O                    -6.03582   2.97423  -1.22447 
 C                    -2.8836    3.47683  -0.08111 
 N                     1.86361   1.22932  -0.00339 
 C                     3.25188   1.21833  -0.02157 
 C                     3.95747   0.00222  -0.01048 
 C                     5.45157   0.00651  -0.01612 
 C                     6.15676  -0.02927  -1.22928 
 C                     7.54732  -0.02523  -1.24172 
 C                     8.22405   0.01385  -0.02253 
 N                     9.68402   0.01816  -0.0259 
 O                     10.27576   0.04856   1.05828 
 O                     10.27098  -0.00872  -1.11277 
 C                     7.55282   0.0492    1.19981 
 C                     6.16207   0.04557   1.19388 
 C                     3.25953  -1.22956  -0.00776 
 C                     3.72672  -2.59273  -0.03724 
 C                     5.13254  -3.11216  -0.07654 
 C                     2.59558  -3.39164  -0.03582 
 C                     1.4489   -2.55958  -0.00748 
 C                     0.06497  -2.8976   -0.01209 
 C                    -0.44958  -4.16249   0.04893 
 C                    -1.85644  -4.47644   0.03899 
 C                    -2.86583  -3.48491  -0.08116 
 C                    -4.19944  -3.82784  -0.07732 
 N                    -5.13565  -2.74298  -0.40015 
 O                    -4.97767  -1.66027   0.16833 
 O                    -5.98499  -2.95493  -1.26514 
 C                    -4.60936  -5.17321   0.06751 
 N                    -5.97582  -5.55002   0.26422 
 O                    -6.78681  -4.68547   0.64213 
 O                    -6.29561  -6.7389    0.07878 
 C                    -3.6216   -6.16229   0.16386 
 C                    -2.28087  -5.8234    0.1421 
 N                     1.87426  -1.25002   0.00586 
 B                     0.97997  -0.01289   0.2384 
 F                    -0.10242  -0.02033  -0.6644 
 F                     0.47188  -0.01106   1.54744 
 H                     5.64367   2.76207  -1.01918 
 H                     5.08579   4.21135  -0.16977 
 H                     5.69567   2.82022   0.73881 
 H                     2.54854   4.45707  -0.13266 
 H                    -0.63428   2.0243   -0.07731 
 H                     0.2127    4.98432   0.04972 
 H                    -1.52885   6.59702   0.13647 
 H                    -3.91505   7.19944   0.22396 
 H                    -2.63704   2.43116  -0.21287 
 H                     5.61267  -0.05918  -2.16696 
 H                     8.09849  -0.05151  -2.1728 
 H                     8.10823   0.07884   2.12827 
 H                     5.62219   0.07266   2.13408 
 H                     5.66304  -2.79732  -0.98067 
 H                     5.72329  -2.76794   0.77787 
 H                     5.11827  -4.20509  -0.05861 
 H                     2.58245  -4.47276  -0.06941 
 H                    -0.61485  -2.05748  -0.08165 
 H                     0.22201  -5.01449   0.12129 
 H                    -2.61123  -2.44246  -0.2226 
 H                    -3.93043  -7.19179   0.29486 
 H                    -1.53453  -6.60604   0.23046 
 
 ITRead=  0  0  0  0  0  0  0  0  0  0  0  0  0  0  0  0  0  0  0  0
 ITRead=  0  0  0  0  0  0  0  0  0  0  0  0  0  0  0  0  0  0  0  0
 ITRead=  0  0  0  0  0  0  0  0  0  0  0  0  0  0  0  0  0  0  0  0
 ITRead=  0  0  0  0  0  0  0  0  0  0  0  0  0  0  0
 MicOpt= -1 -1 -1 -1 -1 -1 -1 -1 -1 -1 -1 -1 -1 -1 -1 -1 -1 -1 -1 -1
 MicOpt= -1 -1 -1 -1 -1 -1 -1 -1 -1 -1 -1 -1 -1 -1 -1 -1 -1 -1 -1 -1
 MicOpt= -1 -1 -1 -1 -1 -1 -1 -1 -1 -1 -1 -1 -1 -1 -1 -1 -1 -1 -1 -1
 MicOpt= -1 -1 -1 -1 -1 -1 -1 -1 -1 -1 -1 -1 -1 -1 -1
 NAtoms=     75 NQM=       75 NQMF=       0 NMMI=      0 NMMIF=      0
                NMic=       0 NMicF=      0.
                    Isotopes and Nuclear Properties:
 (Nuclear quadrupole moments (NQMom) in fm**2, nuclear magnetic moments (NMagM)
  in nuclear magnetons)

  Atom         1           2           3           4           5           6           7           8           9          10
 IAtWgt=          12          12          12          12          12          12          12          12          12          12
 AtmWgt=  12.0000000  12.0000000  12.0000000  12.0000000  12.0000000  12.0000000  12.0000000  12.0000000  12.0000000  12.0000000
 NucSpn=           0           0           0           0           0           0           0           0           0           0
 AtZEff=  -0.0000000  -0.0000000  -0.0000000  -0.0000000  -0.0000000  -0.0000000  -0.0000000  -0.0000000  -0.0000000  -0.0000000
 NQMom=    0.0000000   0.0000000   0.0000000   0.0000000   0.0000000   0.0000000   0.0000000   0.0000000   0.0000000   0.0000000
 NMagM=    0.0000000   0.0000000   0.0000000   0.0000000   0.0000000   0.0000000   0.0000000   0.0000000   0.0000000   0.0000000
 AtZNuc=   6.0000000   6.0000000   6.0000000   6.0000000   6.0000000   6.0000000   6.0000000   6.0000000   6.0000000   6.0000000

  Atom        11          12          13          14          15          16          17          18          19          20
 IAtWgt=          14          16          16          12          14          16          16          12          14          12
 AtmWgt=  14.0030740  15.9949146  15.9949146  12.0000000  14.0030740  15.9949146  15.9949146  12.0000000  14.0030740  12.0000000
 NucSpn=           2           0           0           0           2           0           0           0           2           0
 AtZEff=  -0.0000000  -0.0000000  -0.0000000  -0.0000000  -0.0000000  -0.0000000  -0.0000000  -0.0000000  -0.0000000  -0.0000000
 NQMom=    2.0440000   0.0000000   0.0000000   0.0000000   2.0440000   0.0000000   0.0000000   0.0000000   2.0440000   0.0000000
 NMagM=    0.4037610   0.0000000   0.0000000   0.0000000   0.4037610   0.0000000   0.0000000   0.0000000   0.4037610   0.0000000
 AtZNuc=   7.0000000   8.0000000   8.0000000   6.0000000   7.0000000   8.0000000   8.0000000   6.0000000   7.0000000   6.0000000

  Atom        21          22          23          24          25          26          27          28          29          30
 IAtWgt=          12          12          12          12          12          14          16          16          12          12
 AtmWgt=  12.0000000  12.0000000  12.0000000  12.0000000  12.0000000  14.0030740  15.9949146  15.9949146  12.0000000  12.0000000
 NucSpn=           0           0           0           0           0           2           0           0           0           0
 AtZEff=  -0.0000000  -0.0000000  -0.0000000  -0.0000000  -0.0000000  -0.0000000  -0.0000000  -0.0000000  -0.0000000  -0.0000000
 NQMom=    0.0000000   0.0000000   0.0000000   0.0000000   0.0000000   2.0440000   0.0000000   0.0000000   0.0000000   0.0000000
 NMagM=    0.0000000   0.0000000   0.0000000   0.0000000   0.0000000   0.4037610   0.0000000   0.0000000   0.0000000   0.0000000
 AtZNuc=   6.0000000   6.0000000   6.0000000   6.0000000   6.0000000   7.0000000   8.0000000   8.0000000   6.0000000   6.0000000

  Atom        31          32          33          34          35          36          37          38          39          40
 IAtWgt=          12          12          12          12          12          12          12          12          12          12
 AtmWgt=  12.0000000  12.0000000  12.0000000  12.0000000  12.0000000  12.0000000  12.0000000  12.0000000  12.0000000  12.0000000
 NucSpn=           0           0           0           0           0           0           0           0           0           0
 AtZEff=  -0.0000000  -0.0000000  -0.0000000  -0.0000000  -0.0000000  -0.0000000  -0.0000000  -0.0000000  -0.0000000  -0.0000000
 NQMom=    0.0000000   0.0000000   0.0000000   0.0000000   0.0000000   0.0000000   0.0000000   0.0000000   0.0000000   0.0000000
 NMagM=    0.0000000   0.0000000   0.0000000   0.0000000   0.0000000   0.0000000   0.0000000   0.0000000   0.0000000   0.0000000
 AtZNuc=   6.0000000   6.0000000   6.0000000   6.0000000   6.0000000   6.0000000   6.0000000   6.0000000   6.0000000   6.0000000

  Atom        41          42          43          44          45          46          47          48          49          50
 IAtWgt=          14          16          16          12          14          16          16          12          12          14
 AtmWgt=  14.0030740  15.9949146  15.9949146  12.0000000  14.0030740  15.9949146  15.9949146  12.0000000  12.0000000  14.0030740
 NucSpn=           2           0           0           0           2           0           0           0           0           2
 AtZEff=  -0.0000000  -0.0000000  -0.0000000  -0.0000000  -0.0000000  -0.0000000  -0.0000000  -0.0000000  -0.0000000  -0.0000000
 NQMom=    2.0440000   0.0000000   0.0000000   0.0000000   2.0440000   0.0000000   0.0000000   0.0000000   0.0000000   2.0440000
 NMagM=    0.4037610   0.0000000   0.0000000   0.0000000   0.4037610   0.0000000   0.0000000   0.0000000   0.0000000   0.4037610
 AtZNuc=   7.0000000   8.0000000   8.0000000   6.0000000   7.0000000   8.0000000   8.0000000   6.0000000   6.0000000   7.0000000

  Atom        51          52          53          54          55          56          57          58          59          60
 IAtWgt=          11          19          19           1           1           1           1           1           1           1
 AtmWgt=  11.0093053  18.9984033  18.9984033   1.0078250   1.0078250   1.0078250   1.0078250   1.0078250   1.0078250   1.0078250
 NucSpn=           3           1           1           1           1           1           1           1           1           1
 AtZEff=  -0.0000000  -0.0000000  -0.0000000  -0.0000000  -0.0000000  -0.0000000  -0.0000000  -0.0000000  -0.0000000  -0.0000000
 NQMom=    4.0590000   0.0000000   0.0000000   0.0000000   0.0000000   0.0000000   0.0000000   0.0000000   0.0000000   0.0000000
 NMagM=    2.6886370   2.6288670   2.6288670   2.7928460   2.7928460   2.7928460   2.7928460   2.7928460   2.7928460   2.7928460
 AtZNuc=   5.0000000   9.0000000   9.0000000   1.0000000   1.0000000   1.0000000   1.0000000   1.0000000   1.0000000   1.0000000

  Atom        61          62          63          64          65          66          67          68          69          70
 IAtWgt=           1           1           1           1           1           1           1           1           1           1
 AtmWgt=   1.0078250   1.0078250   1.0078250   1.0078250   1.0078250   1.0078250   1.0078250   1.0078250   1.0078250   1.0078250
 NucSpn=           1           1           1           1           1           1           1           1           1           1
 AtZEff=  -0.0000000  -0.0000000  -0.0000000  -0.0000000  -0.0000000  -0.0000000  -0.0000000  -0.0000000  -0.0000000  -0.0000000
 NQMom=    0.0000000   0.0000000   0.0000000   0.0000000   0.0000000   0.0000000   0.0000000   0.0000000   0.0000000   0.0000000
 NMagM=    2.7928460   2.7928460   2.7928460   2.7928460   2.7928460   2.7928460   2.7928460   2.7928460   2.7928460   2.7928460
 AtZNuc=   1.0000000   1.0000000   1.0000000   1.0000000   1.0000000   1.0000000   1.0000000   1.0000000   1.0000000   1.0000000

  Atom        71          72          73          74          75
 IAtWgt=           1           1           1           1           1
 AtmWgt=   1.0078250   1.0078250   1.0078250   1.0078250   1.0078250
 NucSpn=           1           1           1           1           1
 AtZEff=  -0.0000000  -0.0000000  -0.0000000  -0.0000000  -0.0000000
 NQMom=    0.0000000   0.0000000   0.0000000   0.0000000   0.0000000
 NMagM=    2.7928460   2.7928460   2.7928460   2.7928460   2.7928460
 AtZNuc=   1.0000000   1.0000000   1.0000000   1.0000000   1.0000000
 Leave Link  101 at Fri Oct 24 22:56:34 2025, MaxMem= 30870077440 cpu:               4.0 elap:               0.1
 (Enter /public/software/gauss/g16/l202.exe)
 Stoichiometry    C33H22BF2N7O10(1-,2)
 Framework group  C1[X(C33H22BF2N7O10)]
 Deg. of freedom   219
 Full point group                 C1      NOp   1
 Largest Abelian subgroup         C1      NOp   1
 Largest concise Abelian subgroup C1      NOp   1
                         Standard orientation:                         
 ---------------------------------------------------------------------
 Center     Atomic      Atomic             Coordinates (Angstroms)
 Number     Number       Type             X           Y           Z
 ---------------------------------------------------------------------
      1          6           0       -5.107576    3.119090    0.134354
      2          6           0       -3.706342    2.591627    0.075949
      3          6           0       -2.572309    3.376920    0.081614
      4          6           0       -1.427277    2.532958    0.034711
      5          6           0       -0.046960    2.864814    0.034386
      6          6           0        0.466538    4.136051   -0.004291
      7          6           0        1.864688    4.460655   -0.006390
      8          6           0        2.282702    5.818104   -0.081116
      9          6           0        3.615586    6.164906   -0.115277
     10          6           0        4.623596    5.180386   -0.065168
     11          7           0        5.960150    5.563128   -0.312429
     12          8           0        6.274067    6.776591   -0.202104
     13          8           0        6.794204    4.693491   -0.665034
     14          6           0        4.217242    3.824733    0.071327
     15          7           0        5.147460    2.746958    0.398076
     16          8           0        4.961178    1.638707   -0.123204
     17          8           0        6.035818    2.974234    1.224474
     18          6           0        2.883604    3.476826    0.081107
     19          7           0       -1.863607    1.229321    0.003394
     20          6           0       -3.251880    1.218327    0.021572
     21          6           0       -3.957467    0.002218    0.010479
     22          6           0       -5.451574    0.006510    0.016119
     23          6           0       -6.156758   -0.029274    1.229280
     24          6           0       -7.547317   -0.025227    1.241722
     25          6           0       -8.224053    0.013851    0.022534
     26          7           0       -9.684015    0.018162    0.025901
     27          8           0      -10.275761    0.048564   -1.058279
     28          8           0      -10.270976   -0.008723    1.112773
     29          6           0       -7.552820    0.049204   -1.199808
     30          6           0       -6.162074    0.045568   -1.193878
     31          6           0       -3.259534   -1.229560    0.007761
     32          6           0       -3.726720   -2.592730    0.037235
     33          6           0       -5.132538   -3.112159    0.076544
     34          6           0       -2.595580   -3.391641    0.035821
     35          6           0       -1.448904   -2.559579    0.007477
     36          6           0       -0.064967   -2.897599    0.012088
     37          6           0        0.449575   -4.162493   -0.048931
     38          6           0        1.856438   -4.476439   -0.038986
     39          6           0        2.865832   -3.484910    0.081161
     40          6           0        4.199438   -3.827839    0.077318
     41          7           0        5.135654   -2.742980    0.400152
     42          8           0        4.977666   -1.660266   -0.168333
     43          8           0        5.984986   -2.954929    1.265138
     44          6           0        4.609356   -5.173208   -0.067512
     45          7           0        5.975820   -5.550017   -0.264222
     46          8           0        6.786805   -4.685469   -0.642126
     47          8           0        6.295611   -6.738895   -0.078776
     48          6           0        3.621603   -6.162294   -0.163864
     49          6           0        2.280873   -5.823400   -0.142101
     50          7           0       -1.874257   -1.250022   -0.005860
     51          5           0       -0.979972   -0.012893   -0.238404
     52          9           0        0.102420   -0.020330    0.664395
     53          9           0       -0.471880   -0.011064   -1.547442
     54          1           0       -5.643675    2.762073    1.019182
     55          1           0       -5.085790    4.211348    0.169771
     56          1           0       -5.695672    2.820215   -0.738807
     57          1           0       -2.548543    4.457073    0.132657
     58          1           0        0.634280    2.024299    0.077309
     59          1           0       -0.212701    4.984318   -0.049719
     60          1           0        1.528845    6.597018   -0.136471
     61          1           0        3.915046    7.199436   -0.223957
     62          1           0        2.637042    2.431163    0.212874
     63          1           0       -5.612672   -0.059176    2.166957
     64          1           0       -8.098488   -0.051510    2.172804
     65          1           0       -8.108233    0.078839   -2.128274
     66          1           0       -5.622187    0.072663   -2.134076
     67          1           0       -5.663038   -2.797321    0.980667
     68          1           0       -5.723288   -2.767942   -0.777866
     69          1           0       -5.118271   -4.205094    0.058609
     70          1           0       -2.582446   -4.472764    0.069410
     71          1           0        0.614851   -2.057483    0.081645
     72          1           0       -0.222005   -5.014494   -0.121289
     73          1           0        2.611227   -2.442459    0.222595
     74          1           0        3.930431   -7.191790   -0.294855
     75          1           0        1.534526   -6.606045   -0.230455
 ---------------------------------------------------------------------
 Rotational constants (GHZ):           0.0546771           0.0271060           0.0184647
 Leave Link  202 at Fri Oct 24 22:56:34 2025, MaxMem= 30870077440 cpu:               0.2 elap:               0.0
 (Enter /public/software/gauss/g16/l301.exe)
 Standard basis: def2TZVPP (5D, 7F)
 Ernie: Thresh=  0.10000D-02 Tol=  0.10000D-05 Strict=F.
 There are  2238 symmetry adapted cartesian basis functions of A   symmetry.
 There are  1951 symmetry adapted basis functions of A   symmetry.
  1951 basis functions,  3077 primitive gaussians,  2238 cartesian basis functions
   187 alpha electrons      186 beta electrons
       nuclear repulsion energy      6529.4951813746 Hartrees.
 IExCor= 4336 DFT=T Ex+Corr=M062X ExCW=0 ScaHFX=  0.540000
 ScaDFX=  1.000000  1.000000  1.000000  1.000000 ScalE2=  1.000000  1.000000
 IRadAn=      5 IRanWt=     -1 IRanGd=            0 ICorTp=0 IEmpDi=131
 NAtoms=   75 NActive=   75 NUniq=   75 SFac= 1.00D+00 NAtFMM=   60 NAOKFM=T Big=T
 Integral buffers will be    131072 words long.
 Raffenetti 2 integral format.
 Two-electron integral symmetry is turned on.
 R6Disp:  Grimme-D3 Dispersion energy=       -0.0067868396 Hartrees.
 Nuclear repulsion after empirical dispersion term =     6529.4883945350 Hartrees.
 ------------------------------------------------------------------------------
 Polarizable Continuum Model (PCM)
 =================================
 Model                : PCM.
 Atomic radii         : UFF (Universal Force Field).
 Polarization charges : Total charges.
 Charge compensation  : None.
 Solution method      : On-the-fly selection.
 Cavity type          : Scaled VdW (van der Waals Surface) (Alpha=1.100).
 Cavity algorithm     : GePol (No added spheres)
                        Default sphere list used, NSphG=   75.
                        Lebedev-Laikov grids with approx.  5.0 points / Ang**2.
                        Smoothing algorithm: York/Karplus (Gamma=1.0000).
                        Polarization charges: spherical gaussians, with
                                              point-specific exponents (IZeta= 3).
                        Self-potential: point-specific (ISelfS= 7).
                        Self-field    : sphere-specific E.n sum rule (ISelfD= 2).
 Solvent              : Water, Eps=  78.355300 Eps(inf)=   1.777849
 ------------------------------------------------------------------------------
 GePol: Number of generator spheres                  =      75
 GePol: Total number of spheres                      =      75
 GePol: Number of exposed spheres                    =      75 (100.00%)
 GePol: Number of points                             =    5826
 GePol: Average weight of points                     =       0.13
 GePol: Minimum weight of points                     =   0.80D-11
 GePol: Maximum weight of points                     =    0.20577
 GePol: Number of points with low weight             =     335
 GePol: Fraction of low-weight points (<1% of avg)   =       5.75%
 GePol: Cavity surface area                          =    738.813 Ang**2
 GePol: Cavity volume                                =    861.853 Ang**3
 Leave Link  301 at Fri Oct 24 22:56:34 2025, MaxMem= 30870077440 cpu:               3.7 elap:               0.1
 (Enter /public/software/gauss/g16/l302.exe)
 NPDir=0 NMtPBC=     1 NCelOv=     1 NCel=       1 NClECP=     1 NCelD=      1
         NCelK=      1 NCelE2=     1 NClLst=     1 CellRange=     0.0.
 One-electron integrals computed using PRISM.
 One-electron integral symmetry used in STVInt
   1 Symmetry operations used in ECPInt.
 ECPInt:  NShTT=  255970 NPrTT=  765698 LenC2=  153138 LenP2D=  298856.
 LDataN:  DoStor=T MaxTD1= 6 Len=  172
 NBasis=  1951 RedAO= T EigKep=  3.66D-06  NBF=  1951
 NBsUse=  1951 1.00D-06 EigRej= -1.00D+00 NBFU=  1951
 Precomputing XC quadrature grid using
 IXCGrd= 4 IRadAn=           5 IRanWt=          -1 IRanGd=           0 AccXCQ= 0.00D+00.
 Generated NRdTot=       0 NPtTot=           0 NUsed=           0 NTot=          32
 NSgBfM=  1983  1983  1983  1983  1983 MxSgAt=    75 MxSgA2=    75.
 Leave Link  302 at Fri Oct 24 22:56:44 2025, MaxMem= 30870077440 cpu:             664.4 elap:              10.4
 (Enter /public/software/gauss/g16/l303.exe)
 DipDrv:  MaxL=1.
 Leave Link  303 at Fri Oct 24 22:56:45 2025, MaxMem= 30870077440 cpu:              30.0 elap:               0.5
 (Enter /public/software/gauss/g16/l401.exe)
 ExpMin= 6.06D-02 ExpMax= 3.55D+04 ExpMxC= 1.21D+03 IAcc=3 IRadAn=         5 AccDes= 0.00D+00
 Harris functional with IExCor= 1009 and IRadAn=       5 diagonalized for initial guess.
 HarFok:  IExCor= 1009 AccDes= 0.00D+00 IRadAn=         5 IDoV= 1 UseB2=F ITyADJ=14
 ICtDFT=  3500011 ScaDFX=  1.000000  1.000000  1.000000  1.000000
 FoFCou: FMM=F IPFlag=           0 FMFlag=      100000 FMFlg1=        2001
         NFxFlg=           0 DoJE=T BraDBF=F KetDBF=T FulRan=T
         wScrn=  0.000000 ICntrl=       500 IOpCl=  0 I1Cent=   200000004 NGrid=           0
         NMat0=    1 NMatS0=      1 NMatT0=    0 NMatD0=    1 NMtDS0=    0 NMtDT0=    0
 Petite list used in FoFCou.
 Harris En= -2629.44582172761    
 JPrj=0 DoOrth=F DoCkMO=F.
 Initial guess <Sx>= 0.0000 <Sy>= 0.0000 <Sz>= 0.5000 <S**2>= 0.7500 S= 0.5000
 Leave Link  401 at Fri Oct 24 22:56:56 2025, MaxMem= 30870077440 cpu:             735.3 elap:              11.6
 (Enter /public/software/gauss/g16/l502.exe)
 Integral symmetry usage will be decided dynamically.
 UHF open shell SCF:
 Using DIIS extrapolation, IDIIS=  1040.
 NGot= 30870077440 LenX= 30859898329 LenY= 30854887447
 Requested convergence on RMS density matrix=1.00D-08 within 128 cycles.
 Requested convergence on MAX density matrix=1.00D-06.
 Requested convergence on             energy=1.00D-06.
 No special actions if energy rises.
 Fock matrices will be formed incrementally for  20 cycles.

 Cycle   1  Pass 1  IDiag  1:
 FoFJK:  IHMeth= 1 ICntrl=       0 DoSepK=F KAlg= 0 I1Cent=           0 FoldK=F
 IRaf= 550000000 NMat=       1 IRICut=       1 DoRegI=T DoRafI=F ISym2E= 0 IDoP0=0 IntGTp=1.
 FoFCou: FMM=T IPFlag=           0 FMFlag=      100000 FMFlg1=        2001
         NFxFlg=           0 DoJE=F BraDBF=F KetDBF=F FulRan=T
         wScrn=  0.000000 ICntrl=         0 IOpCl=  1 I1Cent=           0 NGrid=           0
         NMat0=    1 NMatS0=      1 NMatT0=    0 NMatD0=    1 NMtDS0=    0 NMtDT0=    0
 Symmetry not used in FoFCou.
 FMM levels:  10  Number of levels for PrismC:   9
 Inv3:  Mode=1 IEnd=   101826828.
 Iteration    1 A*A^-1 deviation from unit magnitude is 7.55D-15 for    704.
 Iteration    1 A*A^-1 deviation from orthogonality  is 4.41D-15 for   5812   3383.
 Iteration    1 A^-1*A deviation from unit magnitude is 6.88D-15 for   1458.
 Iteration    1 A^-1*A deviation from orthogonality  is 2.55D-15 for   4073   4018.
 E= -2629.16688814416    
 DIIS: error= 2.37D-02 at cycle   1 NSaved=   1.
 NSaved= 1 IEnMin= 1 EnMin= -2629.16688814416     IErMin= 1 ErrMin= 2.37D-02
 ErrMax= 2.37D-02  0.00D+00 EMaxC= 1.00D-01 BMatC= 8.63D+00 BMatP= 8.63D+00
 IDIUse=3 WtCom= 7.63D-01 WtEn= 2.37D-01
 Coeff-Com:  0.100D+01
 Coeff-En:   0.100D+01
 Coeff:      0.100D+01
 Gap=     0.063 Goal=   None    Shift=    0.000
 Gap=     0.118 Goal=   None    Shift=    0.000
 GapD=    0.063 DampG=0.500 DampE=0.500 DampFc=0.2500 IDamp=-1.
 Damping current iteration by 2.50D-01
 RMSDP=1.93D-03 MaxDP=4.71D-01              OVMax= 6.65D-01

 Cycle   2  Pass 1  IDiag  1:
 RMSU=  4.83D-04    CP:  1.00D+00
 E= -2629.69591509957     Delta-E=       -0.529026955412 Rises=F Damp=T
 DIIS: error= 1.08D-02 at cycle   2 NSaved=   2.
 NSaved= 2 IEnMin= 2 EnMin= -2629.69591509957     IErMin= 2 ErrMin= 1.08D-02
 ErrMax= 1.08D-02  0.00D+00 EMaxC= 1.00D-01 BMatC= 2.47D+00 BMatP= 8.63D+00
 IDIUse=3 WtCom= 8.92D-01 WtEn= 1.08D-01
 Coeff-Com: -0.826D+00 0.183D+01
 Coeff-En:   0.000D+00 0.100D+01
 Coeff:     -0.737D+00 0.174D+01
 Gap=     0.057 Goal=   None    Shift=    0.000
 Gap=     0.137 Goal=   None    Shift=    0.000
 RMSDP=8.28D-04 MaxDP=5.59D-02 DE=-5.29D-01 OVMax= 5.66D-01

 Cycle   3  Pass 1  IDiag  1:
 RMSU=  6.92D-04    CP:  9.89D-01  1.93D+00
 E= -2630.60156353935     Delta-E=       -0.905648439777 Rises=F Damp=F
 DIIS: error= 4.64D-03 at cycle   3 NSaved=   3.
 NSaved= 3 IEnMin= 3 EnMin= -2630.60156353935     IErMin= 3 ErrMin= 4.64D-03
 ErrMax= 4.64D-03  0.00D+00 EMaxC= 1.00D-01 BMatC= 2.83D-01 BMatP= 2.47D+00
 IDIUse=3 WtCom= 9.54D-01 WtEn= 4.64D-02
 Coeff-Com: -0.355D+00 0.656D+00 0.698D+00
 Coeff-En:   0.000D+00 0.000D+00 0.100D+01
 Coeff:     -0.338D+00 0.626D+00 0.712D+00
 Gap=     0.066 Goal=   None    Shift=    0.000
 Gap=     0.119 Goal=   None    Shift=    0.000
 RMSDP=2.81D-04 MaxDP=3.18D-02 DE=-9.06D-01 OVMax= 8.26D-02

 Cycle   4  Pass 1  IDiag  1:
 RMSU=  2.61D-04    CP:  9.84D-01  2.01D+00  8.65D-01
 E= -2630.65204212158     Delta-E=       -0.050478582234 Rises=F Damp=F
 DIIS: error= 1.59D-03 at cycle   4 NSaved=   4.
 NSaved= 4 IEnMin= 4 EnMin= -2630.65204212158     IErMin= 4 ErrMin= 1.59D-03
 ErrMax= 1.59D-03  0.00D+00 EMaxC= 1.00D-01 BMatC= 4.98D-02 BMatP= 2.83D-01
 IDIUse=3 WtCom= 9.84D-01 WtEn= 1.59D-02
 Coeff-Com: -0.775D-01 0.127D+00 0.325D+00 0.626D+00
 Coeff-En:   0.000D+00 0.000D+00 0.962D-01 0.904D+00
 Coeff:     -0.763D-01 0.125D+00 0.321D+00 0.630D+00
 Gap=     0.074 Goal=   None    Shift=    0.000
 Gap=     0.124 Goal=   None    Shift=    0.000
 RMSDP=8.63D-05 MaxDP=1.44D-02 DE=-5.05D-02 OVMax= 4.68D-02

 Cycle   5  Pass 1  IDiag  1:
 RMSU=  6.41D-05    CP:  9.84D-01  1.95D+00  9.02D-01  8.36D-01
 E= -2630.66242042153     Delta-E=       -0.010378299950 Rises=F Damp=F
 DIIS: error= 4.56D-04 at cycle   5 NSaved=   5.
 NSaved= 5 IEnMin= 5 EnMin= -2630.66242042153     IErMin= 5 ErrMin= 4.56D-04
 ErrMax= 4.56D-04  0.00D+00 EMaxC= 1.00D-01 BMatC= 6.08D-03 BMatP= 4.98D-02
 IDIUse=3 WtCom= 9.95D-01 WtEn= 4.56D-03
 Coeff-Com: -0.190D-01 0.267D-01 0.125D+00 0.337D+00 0.530D+00
 Coeff-En:   0.000D+00 0.000D+00 0.000D+00 0.000D+00 0.100D+01
 Coeff:     -0.189D-01 0.266D-01 0.125D+00 0.335D+00 0.532D+00
 Gap=     0.075 Goal=   None    Shift=    0.000
 Gap=     0.125 Goal=   None    Shift=    0.000
 RMSDP=3.04D-05 MaxDP=6.94D-03 DE=-1.04D-02 OVMax= 1.47D-02

 Cycle   6  Pass 1  IDiag  1:
 RMSU=  2.75D-05    CP:  9.84D-01  1.97D+00  8.97D-01  8.53D-01  8.79D-01
 E= -2630.66383856109     Delta-E=       -0.001418139556 Rises=F Damp=F
 DIIS: error= 1.81D-04 at cycle   6 NSaved=   6.
 NSaved= 6 IEnMin= 6 EnMin= -2630.66383856109     IErMin= 6 ErrMin= 1.81D-04
 ErrMax= 1.81D-04  0.00D+00 EMaxC= 1.00D-01 BMatC= 5.82D-04 BMatP= 6.08D-03
 IDIUse=3 WtCom= 9.98D-01 WtEn= 1.81D-03
 Coeff-Com: -0.261D-02 0.229D-02 0.283D-01 0.958D-01 0.260D+00 0.617D+00
 Coeff-En:   0.000D+00 0.000D+00 0.000D+00 0.000D+00 0.000D+00 0.100D+01
 Coeff:     -0.260D-02 0.229D-02 0.282D-01 0.956D-01 0.259D+00 0.617D+00
 Gap=     0.077 Goal=   None    Shift=    0.000
 Gap=     0.126 Goal=   None    Shift=    0.000
 RMSDP=1.52D-05 MaxDP=1.88D-03 DE=-1.42D-03 OVMax= 1.25D-02

 Cycle   7  Pass 1  IDiag  1:
 RMSU=  1.19D-05    CP:  9.84D-01  1.97D+00  8.99D-01  8.62D-01  1.01D+00
                    CP:  1.08D+00
 E= -2630.66410644847     Delta-E=       -0.000267887381 Rises=F Damp=F
 DIIS: error= 1.32D-04 at cycle   7 NSaved=   7.
 NSaved= 7 IEnMin= 7 EnMin= -2630.66410644847     IErMin= 7 ErrMin= 1.32D-04
 ErrMax= 1.32D-04  0.00D+00 EMaxC= 1.00D-01 BMatC= 1.49D-04 BMatP= 5.82D-04
 IDIUse=3 WtCom= 9.99D-01 WtEn= 1.32D-03
 Coeff-Com:  0.373D-02-0.595D-02-0.212D-01-0.480D-01-0.190D-01 0.296D+00
 Coeff-Com:  0.795D+00
 Coeff-En:   0.000D+00 0.000D+00 0.000D+00 0.000D+00 0.000D+00 0.000D+00
 Coeff-En:   0.100D+01
 Coeff:      0.373D-02-0.595D-02-0.211D-01-0.479D-01-0.190D-01 0.295D+00
 Coeff:      0.795D+00
 Gap=     0.079 Goal=   None    Shift=    0.000
 Gap=     0.128 Goal=   None    Shift=    0.000
 RMSDP=1.41D-05 MaxDP=1.78D-03 DE=-2.68D-04 OVMax= 1.48D-02

 Cycle   8  Pass 1  IDiag  1:
 RMSU=  7.60D-06    CP:  9.84D-01  1.96D+00  9.01D-01  8.72D-01  1.10D+00
                    CP:  1.37D+00  1.48D+00
 E= -2630.66428230646     Delta-E=       -0.000175857995 Rises=F Damp=F
 DIIS: error= 9.56D-05 at cycle   8 NSaved=   8.
 NSaved= 8 IEnMin= 8 EnMin= -2630.66428230646     IErMin= 8 ErrMin= 9.56D-05
 ErrMax= 9.56D-05  0.00D+00 EMaxC= 1.00D-01 BMatC= 4.75D-05 BMatP= 1.49D-04
 IDIUse=1 WtCom= 1.00D+00 WtEn= 0.00D+00
 Coeff-Com:  0.203D-02-0.275D-02-0.160D-01-0.458D-01-0.811D-01-0.549D-01
 Coeff-Com:  0.340D+00 0.858D+00
 Coeff:      0.203D-02-0.275D-02-0.160D-01-0.458D-01-0.811D-01-0.549D-01
 Coeff:      0.340D+00 0.858D+00
 Gap=     0.081 Goal=   None    Shift=    0.000
 Gap=     0.129 Goal=   None    Shift=    0.000
 RMSDP=1.10D-05 MaxDP=1.35D-03 DE=-1.76D-04 OVMax= 1.25D-02

 Cycle   9  Pass 1  IDiag  1:
 RMSU=  4.04D-06    CP:  9.84D-01  1.96D+00  9.01D-01  8.79D-01  1.18D+00
                    CP:  1.55D+00  1.99D+00  1.53D+00
 E= -2630.66437544142     Delta-E=       -0.000093134955 Rises=F Damp=F
 DIIS: error= 5.16D-05 at cycle   9 NSaved=   9.
 NSaved= 9 IEnMin= 9 EnMin= -2630.66437544142     IErMin= 9 ErrMin= 5.16D-05
 ErrMax= 5.16D-05  0.00D+00 EMaxC= 1.00D-01 BMatC= 1.85D-05 BMatP= 4.75D-05
 IDIUse=1 WtCom= 1.00D+00 WtEn= 0.00D+00
 Coeff-Com: -0.791D-03 0.149D-02 0.283D-02 0.209D-02-0.234D-01-0.136D+00
 Coeff-Com: -0.179D+00 0.341D+00 0.992D+00
 Coeff:     -0.791D-03 0.149D-02 0.283D-02 0.209D-02-0.234D-01-0.136D+00
 Coeff:     -0.179D+00 0.341D+00 0.992D+00
 Gap=     0.082 Goal=   None    Shift=    0.000
 Gap=     0.129 Goal=   None    Shift=    0.000
 RMSDP=9.36D-06 MaxDP=9.10D-04 DE=-9.31D-05 OVMax= 1.18D-02

 Cycle  10  Pass 1  IDiag  1:
 RMSU=  2.59D-06    CP:  9.84D-01  1.96D+00  9.02D-01  8.80D-01  1.22D+00
                    CP:  1.70D+00  2.42D+00  2.13D+00  1.75D+00
 E= -2630.66442483356     Delta-E=       -0.000049392136 Rises=F Damp=F
 DIIS: error= 2.76D-05 at cycle  10 NSaved=  10.
 NSaved=10 IEnMin=10 EnMin= -2630.66442483356     IErMin=10 ErrMin= 2.76D-05
 ErrMax= 2.76D-05  0.00D+00 EMaxC= 1.00D-01 BMatC= 6.97D-06 BMatP= 1.85D-05
 IDIUse=1 WtCom= 1.00D+00 WtEn= 0.00D+00
 Coeff-Com: -0.103D-02 0.157D-02 0.711D-02 0.179D-01 0.207D-01-0.376D-01
 Coeff-Com: -0.207D+00-0.186D+00 0.453D+00 0.931D+00
 Coeff:     -0.103D-02 0.157D-02 0.711D-02 0.179D-01 0.207D-01-0.376D-01
 Coeff:     -0.207D+00-0.186D+00 0.453D+00 0.931D+00
 Gap=     0.083 Goal=   None    Shift=    0.000
 Gap=     0.130 Goal=   None    Shift=    0.000
 RMSDP=6.63D-06 MaxDP=5.74D-04 DE=-4.94D-05 OVMax= 9.27D-03

 Cycle  11  Pass 1  IDiag  1:
 RMSU=  1.71D-06    CP:  9.84D-01  1.96D+00  9.02D-01  8.80D-01  1.24D+00
                    CP:  1.78D+00  2.67D+00  2.55D+00  2.55D+00  1.73D+00
 E= -2630.66444503041     Delta-E=       -0.000020196858 Rises=F Damp=F
 DIIS: error= 1.79D-05 at cycle  11 NSaved=  11.
 NSaved=11 IEnMin=11 EnMin= -2630.66444503041     IErMin=11 ErrMin= 1.79D-05
 ErrMax= 1.79D-05  0.00D+00 EMaxC= 1.00D-01 BMatC= 2.74D-06 BMatP= 6.97D-06
 IDIUse=1 WtCom= 1.00D+00 WtEn= 0.00D+00
 Coeff-Com: -0.288D-03 0.378D-03 0.258D-02 0.753D-02 0.154D-01 0.160D-01
 Coeff-Com: -0.465D-01-0.158D+00-0.304D-01 0.430D+00 0.763D+00
 Coeff:     -0.288D-03 0.378D-03 0.258D-02 0.753D-02 0.154D-01 0.160D-01
 Coeff:     -0.465D-01-0.158D+00-0.304D-01 0.430D+00 0.763D+00
 Gap=     0.083 Goal=   None    Shift=    0.000
 Gap=     0.130 Goal=   None    Shift=    0.000
 RMSDP=3.20D-06 MaxDP=3.16D-04 DE=-2.02D-05 OVMax= 5.02D-03

 Cycle  12  Pass 1  IDiag  1:
 RMSU=  9.82D-07    CP:  9.84D-01  1.96D+00  9.02D-01  8.80D-01  1.24D+00
                    CP:  1.80D+00  2.75D+00  2.71D+00  2.94D+00  2.36D+00
                    CP:  1.68D+00
 E= -2630.66445216077     Delta-E=       -0.000007130358 Rises=F Damp=F
 DIIS: error= 1.53D-05 at cycle  12 NSaved=  12.
 NSaved=12 IEnMin=12 EnMin= -2630.66445216077     IErMin=12 ErrMin= 1.53D-05
 ErrMax= 1.53D-05  0.00D+00 EMaxC= 1.00D-01 BMatC= 1.41D-06 BMatP= 2.74D-06
 IDIUse=1 WtCom= 1.00D+00 WtEn= 0.00D+00
 Coeff-Com:  0.258D-03-0.401D-03-0.119D-02-0.327D-02-0.633D-03 0.183D-01
 Coeff-Com:  0.537D-01 0.129D-01-0.168D+00-0.155D+00 0.254D+00 0.988D+00
 Coeff:      0.258D-03-0.401D-03-0.119D-02-0.327D-02-0.633D-03 0.183D-01
 Coeff:      0.537D-01 0.129D-01-0.168D+00-0.155D+00 0.254D+00 0.988D+00
 Gap=     0.083 Goal=   None    Shift=    0.000
 Gap=     0.130 Goal=   None    Shift=    0.000
 RMSDP=3.32D-06 MaxDP=3.73D-04 DE=-7.13D-06 OVMax= 5.40D-03

 Cycle  13  Pass 1  IDiag  1:
 RMSU=  1.49D-06    CP:  9.84D-01  1.96D+00  9.02D-01  8.79D-01  1.24D+00
                    CP:  1.82D+00  2.80D+00  2.81D+00  3.00D+00  3.00D+00
                    CP:  2.68D+00  2.03D+00
 E= -2630.66445830581     Delta-E=       -0.000006145039 Rises=F Damp=F
 DIIS: error= 1.38D-05 at cycle  13 NSaved=  13.
 NSaved=13 IEnMin=13 EnMin= -2630.66445830581     IErMin=13 ErrMin= 1.38D-05
 ErrMax= 1.38D-05  0.00D+00 EMaxC= 1.00D-01 BMatC= 1.12D-06 BMatP= 1.41D-06
 IDIUse=1 WtCom= 1.00D+00 WtEn= 0.00D+00
 Coeff-Com:  0.302D-03-0.417D-03-0.149D-02-0.517D-02-0.677D-02 0.247D-02
 Coeff-Com:  0.485D-01 0.862D-01-0.795D-01-0.275D+00-0.252D+00 0.559D+00
 Coeff-Com:  0.924D+00
 Coeff:      0.302D-03-0.417D-03-0.149D-02-0.517D-02-0.677D-02 0.247D-02
 Coeff:      0.485D-01 0.862D-01-0.795D-01-0.275D+00-0.252D+00 0.559D+00
 Coeff:      0.924D+00
 Gap=     0.083 Goal=   None    Shift=    0.000
 Gap=     0.130 Goal=   None    Shift=    0.000
 RMSDP=3.47D-06 MaxDP=4.01D-04 DE=-6.15D-06 OVMax= 5.73D-03

 Cycle  14  Pass 1  IDiag  1:
 RMSU=  2.21D-06    CP:  9.84D-01  1.96D+00  9.02D-01  8.78D-01  1.24D+00
                    CP:  1.83D+00  2.84D+00  2.90D+00  3.00D+00  3.00D+00
                    CP:  3.00D+00  3.00D+00  2.12D+00
 E= -2630.66446385691     Delta-E=       -0.000005551095 Rises=F Damp=F
 DIIS: error= 1.15D-05 at cycle  14 NSaved=  14.
 NSaved=14 IEnMin=14 EnMin= -2630.66446385691     IErMin=14 ErrMin= 1.15D-05
 ErrMax= 1.15D-05  0.00D+00 EMaxC= 1.00D-01 BMatC= 7.90D-07 BMatP= 1.12D-06
 IDIUse=1 WtCom= 1.00D+00 WtEn= 0.00D+00
 Coeff-Com:  0.206D-04 0.170D-04 0.515D-03-0.114D-03-0.183D-02-0.113D-01
 Coeff-Com: -0.172D-01 0.402D-01 0.679D-01-0.515D-02-0.329D+00-0.421D+00
 Coeff-Com:  0.396D+00 0.128D+01
 Coeff:      0.206D-04 0.170D-04 0.515D-03-0.114D-03-0.183D-02-0.113D-01
 Coeff:     -0.172D-01 0.402D-01 0.679D-01-0.515D-02-0.329D+00-0.421D+00
 Coeff:      0.396D+00 0.128D+01
 Gap=     0.083 Goal=   None    Shift=    0.000
 Gap=     0.130 Goal=   None    Shift=    0.000
 RMSDP=4.90D-06 MaxDP=5.87D-04 DE=-5.55D-06 OVMax= 8.14D-03

 Cycle  15  Pass 1  IDiag  1:
 RMSU=  1.90D-06    CP:  9.84D-01  1.97D+00  9.02D-01  8.76D-01  1.24D+00
                    CP:  1.85D+00  2.90D+00  3.00D+00  3.00D+00  3.00D+00
                    CP:  3.00D+00  3.00D+00  3.00D+00  2.68D+00
 E= -2630.66447030913     Delta-E=       -0.000006452225 Rises=F Damp=F
 DIIS: error= 9.15D-06 at cycle  15 NSaved=  15.
 NSaved=15 IEnMin=15 EnMin= -2630.66447030913     IErMin=15 ErrMin= 9.15D-06
 ErrMax= 9.15D-06  0.00D+00 EMaxC= 1.00D-01 BMatC= 5.49D-07 BMatP= 7.90D-07
 IDIUse=1 WtCom= 1.00D+00 WtEn= 0.00D+00
 Coeff-Com: -0.227D-03 0.352D-03 0.204D-02 0.489D-02 0.658D-02-0.900D-02
 Coeff-Com: -0.600D-01-0.515D-01 0.979D-01 0.286D+00 0.593D-01-0.726D+00
 Coeff-Com: -0.782D+00 0.722D+00 0.145D+01
 Coeff:     -0.227D-03 0.352D-03 0.204D-02 0.489D-02 0.658D-02-0.900D-02
 Coeff:     -0.600D-01-0.515D-01 0.979D-01 0.286D+00 0.593D-01-0.726D+00
 Coeff:     -0.782D+00 0.722D+00 0.145D+01
 Gap=     0.083 Goal=   None    Shift=    0.000
 Gap=     0.130 Goal=   None    Shift=    0.000
 RMSDP=6.91D-06 MaxDP=8.25D-04 DE=-6.45D-06 OVMax= 1.16D-02

 Cycle  16  Pass 1  IDiag  1:
 RMSU=  4.78D-06    CP:  9.84D-01  1.97D+00  9.02D-01  8.73D-01  1.23D+00
                    CP:  1.88D+00  2.99D+00  3.00D+00  3.00D+00  3.00D+00
                    CP:  3.00D+00  3.00D+00  3.00D+00  3.00D+00  3.00D+00
 E= -2630.66447701921     Delta-E=       -0.000006710079 Rises=F Damp=F
 DIIS: error= 6.24D-06 at cycle  16 NSaved=  16.
 NSaved=16 IEnMin=16 EnMin= -2630.66447701921     IErMin=16 ErrMin= 6.24D-06
 ErrMax= 6.24D-06  0.00D+00 EMaxC= 1.00D-01 BMatC= 3.39D-07 BMatP= 5.49D-07
 IDIUse=1 WtCom= 1.00D+00 WtEn= 0.00D+00
 Coeff-Com: -0.150D-03 0.209D-03 0.979D-03 0.293D-02 0.611D-02 0.372D-02
 Coeff-Com: -0.219D-01-0.542D-01-0.100D-01 0.181D+00 0.285D+00-0.333D-01
 Coeff-Com: -0.839D+00-0.594D+00 0.928D+00 0.114D+01
 Coeff:     -0.150D-03 0.209D-03 0.979D-03 0.293D-02 0.611D-02 0.372D-02
 Coeff:     -0.219D-01-0.542D-01-0.100D-01 0.181D+00 0.285D+00-0.333D-01
 Coeff:     -0.839D+00-0.594D+00 0.928D+00 0.114D+01
 Gap=     0.083 Goal=   None    Shift=    0.000
 Gap=     0.130 Goal=   None    Shift=    0.000
 RMSDP=6.24D-06 MaxDP=7.89D-04 DE=-6.71D-06 OVMax= 1.04D-02

 Cycle  17  Pass 1  IDiag  1:
 RMSU=  3.55D-06    CP:  9.84D-01  1.97D+00  9.02D-01  8.70D-01  1.23D+00
                    CP:  1.90D+00  3.00D+00  3.00D+00  3.00D+00  3.00D+00
                    CP:  3.00D+00  3.00D+00  3.00D+00  3.00D+00  3.00D+00
                    CP:  2.04D+00
 E= -2630.66448080842     Delta-E=       -0.000003789206 Rises=F Damp=F
 DIIS: error= 4.26D-06 at cycle  17 NSaved=  17.
 NSaved=17 IEnMin=17 EnMin= -2630.66448080842     IErMin=17 ErrMin= 4.26D-06
 ErrMax= 4.26D-06  0.00D+00 EMaxC= 1.00D-01 BMatC= 1.37D-07 BMatP= 3.39D-07
 IDIUse=1 WtCom= 1.00D+00 WtEn= 0.00D+00
 Coeff-Com:  0.271D-04-0.496D-04-0.376D-03-0.745D-03 0.599D-03 0.683D-02
 Coeff-Com:  0.196D-01-0.413D-03-0.638D-01-0.423D-01 0.123D+00 0.399D+00
 Coeff-Com: -0.955D-01-0.746D+00-0.199D+00 0.561D+00 0.104D+01
 Coeff:      0.271D-04-0.496D-04-0.376D-03-0.745D-03 0.599D-03 0.683D-02
 Coeff:      0.196D-01-0.413D-03-0.638D-01-0.423D-01 0.123D+00 0.399D+00
 Coeff:     -0.955D-01-0.746D+00-0.199D+00 0.561D+00 0.104D+01
 Gap=     0.083 Goal=   None    Shift=    0.000
 Gap=     0.130 Goal=   None    Shift=    0.000
 RMSDP=4.28D-06 MaxDP=5.52D-04 DE=-3.79D-06 OVMax= 7.11D-03

 Cycle  18  Pass 1  IDiag  1:
 RMSU=  2.93D-07    CP:  9.84D-01  1.97D+00  9.02D-01  8.68D-01  1.22D+00
                    CP:  1.91D+00  3.00D+00  3.00D+00  3.00D+00  3.00D+00
                    CP:  3.00D+00  3.00D+00  3.00D+00  3.00D+00  3.00D+00
                    CP:  2.75D+00  1.68D+00
 E= -2630.66448222341     Delta-E=       -0.000001414995 Rises=F Damp=F
 DIIS: error= 2.63D-06 at cycle  18 NSaved=  18.
 NSaved=18 IEnMin=18 EnMin= -2630.66448222341     IErMin=18 ErrMin= 2.63D-06
 ErrMax= 2.63D-06  0.00D+00 EMaxC= 1.00D-01 BMatC= 6.20D-08 BMatP= 1.37D-07
 IDIUse=1 WtCom= 1.00D+00 WtEn= 0.00D+00
 Coeff-Com:  0.915D-04-0.132D-03-0.537D-03-0.162D-02-0.234D-02 0.893D-03
 Coeff-Com:  0.186D-01 0.261D-01-0.252D-01-0.962D-01-0.824D-01 0.215D+00
 Coeff-Com:  0.341D+00-0.758D-01-0.520D+00-0.362D+00 0.572D+00 0.992D+00
 Coeff:      0.915D-04-0.132D-03-0.537D-03-0.162D-02-0.234D-02 0.893D-03
 Coeff:      0.186D-01 0.261D-01-0.252D-01-0.962D-01-0.824D-01 0.215D+00
 Coeff:      0.341D+00-0.758D-01-0.520D+00-0.362D+00 0.572D+00 0.992D+00
 Gap=     0.083 Goal=   None    Shift=    0.000
 Gap=     0.130 Goal=   None    Shift=    0.000
 RMSDP=2.55D-06 MaxDP=3.40D-04 DE=-1.41D-06 OVMax= 4.19D-03

 Cycle  19  Pass 1  IDiag  1:
 RMSU=  8.46D-07    CP:  9.84D-01  1.97D+00  9.02D-01  8.67D-01  1.22D+00
                    CP:  1.92D+00  3.00D+00  3.00D+00  3.00D+00  3.00D+00
                    CP:  3.00D+00  3.00D+00  3.00D+00  3.00D+00  3.00D+00
                    CP:  3.00D+00  2.09D+00  1.90D+00
 E= -2630.66448262997     Delta-E=       -0.000000406559 Rises=F Damp=F
 DIIS: error= 1.58D-06 at cycle  19 NSaved=  19.
 NSaved=19 IEnMin=19 EnMin= -2630.66448262997     IErMin=19 ErrMin= 1.58D-06
 ErrMax= 1.58D-06  0.00D+00 EMaxC= 1.00D-01 BMatC= 1.43D-08 BMatP= 6.20D-08
 IDIUse=1 WtCom= 1.00D+00 WtEn= 0.00D+00
 Coeff-Com:  0.248D-04-0.303D-04 0.424D-04-0.151D-03-0.739D-03-0.243D-02
 Coeff-Com: -0.206D-02 0.790D-02 0.144D-01-0.725D-02-0.664D-01-0.759D-01
 Coeff-Com:  0.118D+00 0.228D+00-0.669D-01-0.312D+00-0.156D+00 0.297D+00
 Coeff-Com:  0.102D+01
 Coeff:      0.248D-04-0.303D-04 0.424D-04-0.151D-03-0.739D-03-0.243D-02
 Coeff:     -0.206D-02 0.790D-02 0.144D-01-0.725D-02-0.664D-01-0.759D-01
 Coeff:      0.118D+00 0.228D+00-0.669D-01-0.312D+00-0.156D+00 0.297D+00
 Coeff:      0.102D+01
 Gap=     0.083 Goal=   None    Shift=    0.000
 Gap=     0.130 Goal=   None    Shift=    0.000
 RMSDP=1.03D-06 MaxDP=1.44D-04 DE=-4.07D-07 OVMax= 1.66D-03

 Cycle  20  Pass 1  IDiag  1:
 RMSU=  1.15D-07    CP:  9.84D-01  1.97D+00  9.02D-01  8.66D-01  1.22D+00
                    CP:  1.92D+00  3.00D+00  3.00D+00  3.00D+00  3.00D+00
                    CP:  3.00D+00  3.00D+00  3.00D+00  3.00D+00  3.00D+00
                    CP:  3.00D+00  2.25D+00  2.51D+00  1.94D+00
 E= -2630.66448269909     Delta-E=       -0.000000069120 Rises=F Damp=F
 DIIS: error= 5.84D-07 at cycle  20 NSaved=  20.
 NSaved=20 IEnMin=20 EnMin= -2630.66448269909     IErMin=20 ErrMin= 5.84D-07
 ErrMax= 5.84D-07  0.00D+00 EMaxC= 1.00D-01 BMatC= 5.33D-09 BMatP= 1.43D-08
 IDIUse=1 WtCom= 1.00D+00 WtEn= 0.00D+00
 Coeff-Com: -0.104D-04 0.191D-04 0.197D-03 0.389D-03 0.321D-03-0.155D-02
 Coeff-Com: -0.634D-02-0.304D-02 0.139D-01 0.251D-01-0.918D-02-0.105D+00
 Coeff-Com: -0.411D-01 0.142D+00 0.119D+00-0.590D-01-0.244D+00-0.123D+00
 Coeff-Com:  0.536D+00 0.754D+00
 Coeff:     -0.104D-04 0.191D-04 0.197D-03 0.389D-03 0.321D-03-0.155D-02
 Coeff:     -0.634D-02-0.304D-02 0.139D-01 0.251D-01-0.918D-02-0.105D+00
 Coeff:     -0.411D-01 0.142D+00 0.119D+00-0.590D-01-0.244D+00-0.123D+00
 Coeff:      0.536D+00 0.754D+00
 Gap=     0.083 Goal=   None    Shift=    0.000
 Gap=     0.130 Goal=   None    Shift=    0.000
 RMSDP=3.18D-07 MaxDP=4.60D-05 DE=-6.91D-08 OVMax= 5.00D-04

 Cycle  21  Pass 1  IDiag  1:
 Restarting incremental Fock formation.
 E= -2630.66448270951     Delta-E=       -0.000000010419 Rises=F Damp=F
 DIIS: error= 3.33D-07 at cycle  21 NSaved=  20.
 NSaved=20 IEnMin=20 EnMin= -2630.66448270951     IErMin=20 ErrMin= 3.33D-07
 ErrMax= 3.33D-07  0.00D+00 EMaxC= 1.00D-01 BMatC= 1.32D-09 BMatP= 5.33D-09
 IDIUse=1 WtCom= 1.00D+00 WtEn= 0.00D+00
 Coeff-Com: -0.396D-06 0.491D-04 0.130D-03 0.248D-03 0.730D-05-0.162D-02
 Coeff-Com: -0.259D-02 0.118D-02 0.107D-01 0.125D-01-0.232D-01-0.433D-01
 Coeff-Com:  0.432D-02 0.602D-01 0.481D-01-0.638D-01-0.116D+00-0.839D-02
 Coeff-Com:  0.321D+00 0.800D+00
 Coeff:     -0.396D-06 0.491D-04 0.130D-03 0.248D-03 0.730D-05-0.162D-02
 Coeff:     -0.259D-02 0.118D-02 0.107D-01 0.125D-01-0.232D-01-0.433D-01
 Coeff:      0.432D-02 0.602D-01 0.481D-01-0.638D-01-0.116D+00-0.839D-02
 Coeff:      0.321D+00 0.800D+00
 Gap=     0.083 Goal=   None    Shift=    0.000
 Gap=     0.130 Goal=   None    Shift=    0.000
 RMSDP=1.19D-07 MaxDP=1.86D-05 DE=-1.04D-08 OVMax= 1.82D-04

 Cycle  22  Pass 1  IDiag  1:
 RMSU=  1.19D-07    CP:  1.00D+00
 E= -2630.66448271191     Delta-E=       -0.000000002399 Rises=F Damp=F
 DIIS: error= 2.23D-07 at cycle  22 NSaved=  20.
 NSaved=20 IEnMin=20 EnMin= -2630.66448271191     IErMin=20 ErrMin= 2.23D-07
 ErrMax= 2.23D-07  0.00D+00 EMaxC= 1.00D-01 BMatC= 6.14D-10 BMatP= 1.32D-09
 IDIUse=1 WtCom= 1.00D+00 WtEn= 0.00D+00
 Coeff-Com: -0.170D-04-0.112D-04 0.946D-04 0.507D-03 0.860D-03-0.879D-03
 Coeff-Com: -0.362D-02-0.917D-03 0.115D-01 0.204D-01-0.149D-01-0.465D-01
 Coeff-Com: -0.379D-02 0.510D-01 0.474D-01-0.265D-01-0.201D+00-0.957D-01
 Coeff-Com:  0.472D+00 0.791D+00
 Coeff:     -0.170D-04-0.112D-04 0.946D-04 0.507D-03 0.860D-03-0.879D-03
 Coeff:     -0.362D-02-0.917D-03 0.115D-01 0.204D-01-0.149D-01-0.465D-01
 Coeff:     -0.379D-02 0.510D-01 0.474D-01-0.265D-01-0.201D+00-0.957D-01
 Coeff:      0.472D+00 0.791D+00
 Gap=     0.083 Goal=   None    Shift=    0.000
 Gap=     0.130 Goal=   None    Shift=    0.000
 RMSDP=9.02D-08 MaxDP=1.28D-05 DE=-2.40D-09 OVMax= 1.41D-04

 Cycle  23  Pass 1  IDiag  1:
 RMSU=  1.73D-08    CP:  1.00D+00  1.74D+00
 E= -2630.66448271305     Delta-E=       -0.000000001146 Rises=F Damp=F
 DIIS: error= 1.24D-07 at cycle  23 NSaved=  20.
 NSaved=20 IEnMin=20 EnMin= -2630.66448271305     IErMin=20 ErrMin= 1.24D-07
 ErrMax= 1.24D-07  0.00D+00 EMaxC= 1.00D-01 BMatC= 1.60D-10 BMatP= 6.14D-10
 IDIUse=1 WtCom= 1.00D+00 WtEn= 0.00D+00
 Coeff-Com:  0.914D-05 0.187D-04 0.882D-04 0.220D-03 0.606D-04-0.373D-03
 Coeff-Com: -0.143D-02-0.940D-03 0.651D-02 0.440D-02-0.687D-02-0.118D-01
 Coeff-Com: -0.122D-02 0.230D-01 0.211D-01-0.527D-01-0.116D+00-0.670D-01
 Coeff-Com:  0.282D+00 0.921D+00
 Coeff:      0.914D-05 0.187D-04 0.882D-04 0.220D-03 0.606D-04-0.373D-03
 Coeff:     -0.143D-02-0.940D-03 0.651D-02 0.440D-02-0.687D-02-0.118D-01
 Coeff:     -0.122D-02 0.230D-01 0.211D-01-0.527D-01-0.116D+00-0.670D-01
 Coeff:      0.282D+00 0.921D+00
 Gap=     0.083 Goal=   None    Shift=    0.000
 Gap=     0.130 Goal=   None    Shift=    0.000
 RMSDP=4.92D-08 MaxDP=8.12D-06 DE=-1.15D-09 OVMax= 7.47D-05

 Cycle  24  Pass 1  IDiag  1:
 RMSU=  7.87D-09    CP:  1.00D+00  2.15D+00  1.33D+00
 E= -2630.66448271357     Delta-E=       -0.000000000518 Rises=F Damp=F
 DIIS: error= 8.05D-08 at cycle  24 NSaved=  20.
 NSaved=20 IEnMin=20 EnMin= -2630.66448271357     IErMin=20 ErrMin= 8.05D-08
 ErrMax= 8.05D-08  0.00D+00 EMaxC= 1.00D-01 BMatC= 6.95D-11 BMatP= 1.60D-10
 IDIUse=1 WtCom= 1.00D+00 WtEn= 0.00D+00
 Coeff-Com: -0.201D-04-0.538D-04 0.331D-04 0.256D-03 0.422D-03-0.873D-03
 Coeff-Com: -0.312D-02 0.154D-02 0.619D-02 0.389D-02-0.716D-02-0.128D-01
 Coeff-Com:  0.426D-02 0.222D-01 0.258D-01-0.394D-01-0.201D+00-0.159D+00
 Coeff-Com:  0.434D+00 0.925D+00
 Coeff:     -0.201D-04-0.538D-04 0.331D-04 0.256D-03 0.422D-03-0.873D-03
 Coeff:     -0.312D-02 0.154D-02 0.619D-02 0.389D-02-0.716D-02-0.128D-01
 Coeff:      0.426D-02 0.222D-01 0.258D-01-0.394D-01-0.201D+00-0.159D+00
 Coeff:      0.434D+00 0.925D+00
 Gap=     0.083 Goal=   None    Shift=    0.000
 Gap=     0.130 Goal=   None    Shift=    0.000
 RMSDP=2.84D-08 MaxDP=3.71D-06 DE=-5.18D-10 OVMax= 4.26D-05

 Cycle  25  Pass 1  IDiag  1:
 RMSU=  5.95D-09    CP:  1.00D+00  2.37D+00  1.71D+00  1.77D+00
 E= -2630.66448271352     Delta-E=        0.000000000049 Rises=F Damp=F
 DIIS: error= 6.28D-08 at cycle  25 NSaved=  20.
 NSaved=20 IEnMin=19 EnMin= -2630.66448271357     IErMin=20 ErrMin= 6.28D-08
 ErrMax= 6.28D-08  0.00D+00 EMaxC= 1.00D-01 BMatC= 2.70D-11 BMatP= 6.95D-11
 IDIUse=1 WtCom= 1.00D+00 WtEn= 0.00D+00
 Coeff-Com: -0.387D-04-0.879D-04-0.111D-04 0.341D-03 0.340D-03-0.125D-02
 Coeff-Com: -0.233D-02 0.438D-03 0.608D-02 0.293D-02-0.597D-02-0.936D-02
 Coeff-Com:  0.693D-03 0.331D-01 0.337D-01-0.459D-01-0.169D+00-0.124D+00
 Coeff-Com:  0.357D+00 0.923D+00
 Coeff:     -0.387D-04-0.879D-04-0.111D-04 0.341D-03 0.340D-03-0.125D-02
 Coeff:     -0.233D-02 0.438D-03 0.608D-02 0.293D-02-0.597D-02-0.936D-02
 Coeff:      0.693D-03 0.331D-01 0.337D-01-0.459D-01-0.169D+00-0.124D+00
 Coeff:      0.357D+00 0.923D+00
 Gap=     0.083 Goal=   None    Shift=    0.000
 Gap=     0.130 Goal=   None    Shift=    0.000
 RMSDP=1.04D-08 MaxDP=1.27D-06 DE= 4.91D-11 OVMax= 1.09D-05

 Cycle  26  Pass 1  IDiag  1:
 RMSU=  5.44D-09    CP:  1.00D+00  2.32D+00  1.76D+00  2.38D+00  1.84D+00
 E= -2630.66448271384     Delta-E=       -0.000000000318 Rises=F Damp=F
 DIIS: error= 4.18D-08 at cycle  26 NSaved=  20.
 NSaved=20 IEnMin=20 EnMin= -2630.66448271384     IErMin=20 ErrMin= 4.18D-08
 ErrMax= 4.18D-08  0.00D+00 EMaxC= 1.00D-01 BMatC= 1.19D-11 BMatP= 2.70D-11
 IDIUse=1 WtCom= 1.00D+00 WtEn= 0.00D+00
 Coeff-Com: -0.159D-04-0.558D-04 0.509D-05 0.224D-03 0.233D-03-0.111D-02
 Coeff-Com: -0.132D-02 0.170D-02 0.246D-02 0.698D-03-0.476D-02-0.557D-02
 Coeff-Com:  0.449D-02 0.252D-01 0.472D-01-0.224D-01-0.189D+00-0.190D+00
 Coeff-Com:  0.390D+00 0.942D+00
 Coeff:     -0.159D-04-0.558D-04 0.509D-05 0.224D-03 0.233D-03-0.111D-02
 Coeff:     -0.132D-02 0.170D-02 0.246D-02 0.698D-03-0.476D-02-0.557D-02
 Coeff:      0.449D-02 0.252D-01 0.472D-01-0.224D-01-0.189D+00-0.190D+00
 Coeff:      0.390D+00 0.942D+00
 Gap=     0.083 Goal=   None    Shift=    0.000
 Gap=     0.130 Goal=   None    Shift=    0.000
 RMSDP=6.75D-09 MaxDP=9.71D-07 DE=-3.18D-10 OVMax= 7.86D-06

 Error on total polarization charges =  0.02207
 SCF Done:  E(UM062X) =  -2630.66448271     A.U. after   26 cycles
            NFock= 26  Conv=0.67D-08     -V/T= 2.0051
 <Sx>= 0.0000 <Sy>= 0.0000 <Sz>= 0.5000 <S**2>= 0.8492 S= 0.5484
 <L.S>= 0.000000000000E+00
 KE= 2.617251214501D+03 PE=-1.923835028052D+04 EE= 7.460946188768D+03
 Annihilation of the first spin contaminant:
 S**2 before annihilation     0.8492,   after     0.7557
 Leave Link  502 at Fri Oct 24 23:41:36 2025, MaxMem= 30870077440 cpu:          169639.7 elap:            2679.0
 (Enter /public/software/gauss/g16/l601.exe)
 Copying SCF densities to generalized density rwf, IOpCl= 1 IROHF=0.

 **********************************************************************

            Population analysis using the SCF density.

 **********************************************************************

 Orbital symmetries:
 Alpha Orbitals:
       Occupied  (A) (A) (A) (A) (A) (A) (A) (A) (A) (A) (A) (A)
                 (A) (A) (A) (A) (A) (A) (A) (A) (A) (A) (A) (A)
                 (A) (A) (A) (A) (A) (A) (A) (A) (A) (A) (A) (A)
                 (A) (A) (A) (A) (A) (A) (A) (A) (A) (A) (A) (A)
                 (A) (A) (A) (A) (A) (A) (A) (A) (A) (A) (A) (A)
                 (A) (A) (A) (A) (A) (A) (A) (A) (A) (A) (A) (A)
                 (A) (A) (A) (A) (A) (A) (A) (A) (A) (A) (A) (A)
                 (A) (A) (A) (A) (A) (A) (A) (A) (A) (A) (A) (A)
                 (A) (A) (A) (A) (A) (A) (A) (A) (A) (A) (A) (A)
                 (A) (A) (A) (A) (A) (A) (A) (A) (A) (A) (A) (A)
                 (A) (A) (A) (A) (A) (A) (A) (A) (A) (A) (A) (A)
                 (A) (A) (A) (A) (A) (A) (A) (A) (A) (A) (A) (A)
                 (A) (A) (A) (A) (A) (A) (A) (A) (A) (A) (A) (A)
                 (A) (A) (A) (A) (A) (A) (A) (A) (A) (A) (A) (A)
                 (A) (A) (A) (A) (A) (A) (A) (A) (A) (A) (A) (A)
                 (A) (A) (A) (A) (A) (A) (A)
       Virtual   (A) (A) (A) (A) (A) (A) (A) (A) (A) (A) (A) (A)
                 (A) (A) (A) (A) (A) (A) (A) (A) (A) (A) (A) (A)
                 (A) (A) (A) (A) (A) (A) (A) (A) (A) (A) (A) (A)
                 (A) (A) (A) (A) (A) (A) (A) (A) (A) (A) (A) (A)
                 (A) (A) (A) (A) (A) (A) (A) (A) (A) (A) (A) (A)
                 (A) (A) (A) (A) (A) (A) (A) (A) (A) (A) (A) (A)
                 (A) (A) (A) (A) (A) (A) (A) (A) (A) (A) (A) (A)
                 (A) (A) (A) (A) (A) (A) (A) (A) (A) (A) (A) (A)
                 (A) (A) (A) (A) (A) (A) (A) (A) (A) (A) (A) (A)
                 (A) (A) (A) (A) (A) (A) (A) (A) (A) (A) (A) (A)
                 (A) (A) (A) (A) (A) (A) (A) (A) (A) (A) (A) (A)
                 (A) (A) (A) (A) (A) (A) (A) (A) (A) (A) (A) (A)
                 (A) (A) (A) (A) (A) (A) (A) (A) (A) (A) (A) (A)
                 (A) (A) (A) (A) (A) (A) (A) (A) (A) (A) (A) (A)
                 (A) (A) (A) (A) (A) (A) (A) (A) (A) (A) (A) (A)
                 (A) (A) (A) (A) (A) (A) (A) (A) (A) (A) (A) (A)
                 (A) (A) (A) (A) (A) (A) (A) (A) (A) (A) (A) (A)
                 (A) (A) (A) (A) (A) (A) (A) (A) (A) (A) (A) (A)
                 (A) (A) (A) (A) (A) (A) (A) (A) (A) (A) (A) (A)
                 (A) (A) (A) (A) (A) (A) (A) (A) (A) (A) (A) (A)
                 (A) (A) (A) (A) (A) (A) (A) (A) (A) (A) (A) (A)
                 (A) (A) (A) (A) (A) (A) (A) (A) (A) (A) (A) (A)
                 (A) (A) (A) (A) (A) (A) (A) (A) (A) (A) (A) (A)
                 (A) (A) (A) (A) (A) (A) (A) (A) (A) (A) (A) (A)
                 (A) (A) (A) (A) (A) (A) (A) (A) (A) (A) (A) (A)
                 (A) (A) (A) (A) (A) (A) (A) (A) (A) (A) (A) (A)
                 (A) (A) (A) (A) (A) (A) (A) (A) (A) (A) (A) (A)
                 (A) (A) (A) (A) (A) (A) (A) (A) (A) (A) (A) (A)
                 (A) (A) (A) (A) (A) (A) (A) (A) (A) (A) (A) (A)
                 (A) (A) (A) (A) (A) (A) (A) (A) (A) (A) (A) (A)
                 (A) (A) (A) (A) (A) (A) (A) (A) (A) (A) (A) (A)
                 (A) (A) (A) (A) (A) (A) (A) (A) (A) (A) (A) (A)
                 (A) (A) (A) (A) (A) (A) (A) (A) (A) (A) (A) (A)
                 (A) (A) (A) (A) (A) (A) (A) (A) (A) (A) (A) (A)
                 (A) (A) (A) (A) (A) (A) (A) (A) (A) (A) (A) (A)
                 (A) (A) (A) (A) (A) (A) (A) (A) (A) (A) (A) (A)
                 (A) (A) (A) (A) (A) (A) (A) (A) (A) (A) (A) (A)
                 (A) (A) (A) (A) (A) (A) (A) (A) (A) (A) (A) (A)
                 (A) (A) (A) (A) (A) (A) (A) (A) (A) (A) (A) (A)
                 (A) (A) (A) (A) (A) (A) (A) (A) (A) (A) (A) (A)
                 (A) (A) (A) (A) (A) (A) (A) (A) (A) (A) (A) (A)
                 (A) (A) (A) (A) (A) (A) (A) (A) (A) (A) (A) (A)
                 (A) (A) (A) (A) (A) (A) (A) (A) (A) (A) (A) (A)
                 (A) (A) (A) (A) (A) (A) (A) (A) (A) (A) (A) (A)
                 (A) (A) (A) (A) (A) (A) (A) (A) (A) (A) (A) (A)
                 (A) (A) (A) (A) (A) (A) (A) (A) (A) (A) (A) (A)
                 (A) (A) (A) (A) (A) (A) (A) (A) (A) (A) (A) (A)
                 (A) (A) (A) (A) (A) (A) (A) (A) (A) (A) (A) (A)
                 (A) (A) (A) (A) (A) (A) (A) (A) (A) (A) (A) (A)
                 (A) (A) (A) (A) (A) (A) (A) (A) (A) (A) (A) (A)
                 (A) (A) (A) (A) (A) (A) (A) (A) (A) (A) (A) (A)
                 (A) (A) (A) (A) (A) (A) (A) (A) (A) (A) (A) (A)
                 (A) (A) (A) (A) (A) (A) (A) (A) (A) (A) (A) (A)
                 (A) (A) (A) (A) (A) (A) (A) (A) (A) (A) (A) (A)
                 (A) (A) (A) (A) (A) (A) (A) (A) (A) (A) (A) (A)
                 (A) (A) (A) (A) (A) (A) (A) (A) (A) (A) (A) (A)
                 (A) (A) (A) (A) (A) (A) (A) (A) (A) (A) (A) (A)
                 (A) (A) (A) (A) (A) (A) (A) (A) (A) (A) (A) (A)
                 (A) (A) (A) (A) (A) (A) (A) (A) (A) (A) (A) (A)
                 (A) (A) (A) (A) (A) (A) (A) (A) (A) (A) (A) (A)
                 (A) (A) (A) (A) (A) (A) (A) (A) (A) (A) (A) (A)
                 (A) (A) (A) (A) (A) (A) (A) (A) (A) (A) (A) (A)
                 (A) (A) (A) (A) (A) (A) (A) (A) (A) (A) (A) (A)
                 (A) (A) (A) (A) (A) (A) (A) (A) (A) (A) (A) (A)
                 (A) (A) (A) (A) (A) (A) (A) (A) (A) (A) (A) (A)
                 (A) (A) (A) (A) (A) (A) (A) (A) (A) (A) (A) (A)
                 (A) (A) (A) (A) (A) (A) (A) (A) (A) (A) (A) (A)
                 (A) (A) (A) (A) (A) (A) (A) (A) (A) (A) (A) (A)
                 (A) (A) (A) (A) (A) (A) (A) (A) (A) (A) (A) (A)
                 (A) (A) (A) (A) (A) (A) (A) (A) (A) (A) (A) (A)
                 (A) (A) (A) (A) (A) (A) (A) (A) (A) (A) (A) (A)
                 (A) (A) (A) (A) (A) (A) (A) (A) (A) (A) (A) (A)
                 (A) (A) (A) (A) (A) (A) (A) (A) (A) (A) (A) (A)
                 (A) (A) (A) (A) (A) (A) (A) (A) (A) (A) (A) (A)
                 (A) (A) (A) (A) (A) (A) (A) (A) (A) (A) (A) (A)
                 (A) (A) (A) (A) (A) (A) (A) (A) (A) (A) (A) (A)
                 (A) (A) (A) (A) (A) (A) (A) (A) (A) (A) (A) (A)
                 (A) (A) (A) (A) (A) (A) (A) (A) (A) (A) (A) (A)
                 (A) (A) (A) (A) (A) (A) (A) (A) (A) (A) (A) (A)
                 (A) (A) (A) (A) (A) (A) (A) (A) (A) (A) (A) (A)
                 (A) (A) (A) (A) (A) (A) (A) (A) (A) (A) (A) (A)
                 (A) (A) (A) (A) (A) (A) (A) (A) (A) (A) (A) (A)
                 (A) (A) (A) (A) (A) (A) (A) (A) (A) (A) (A) (A)
                 (A) (A) (A) (A) (A) (A) (A) (A) (A) (A) (A) (A)
                 (A) (A) (A) (A) (A) (A) (A) (A) (A) (A) (A) (A)
                 (A) (A) (A) (A) (A) (A) (A) (A) (A) (A) (A) (A)
                 (A) (A) (A) (A) (A) (A) (A) (A) (A) (A) (A) (A)
                 (A) (A) (A) (A) (A) (A) (A) (A) (A) (A) (A) (A)
                 (A) (A) (A) (A) (A) (A) (A) (A) (A) (A) (A) (A)
                 (A) (A) (A) (A) (A) (A) (A) (A) (A) (A) (A) (A)
                 (A) (A) (A) (A) (A) (A) (A) (A) (A) (A) (A) (A)
                 (A) (A) (A) (A) (A) (A) (A) (A) (A) (A) (A) (A)
                 (A) (A) (A) (A) (A) (A) (A) (A) (A) (A) (A) (A)
                 (A) (A) (A) (A) (A) (A) (A) (A) (A) (A) (A) (A)
                 (A) (A) (A) (A) (A) (A) (A) (A) (A) (A) (A) (A)
                 (A) (A) (A) (A) (A) (A) (A) (A) (A) (A) (A) (A)
                 (A) (A) (A) (A) (A) (A) (A) (A) (A) (A) (A) (A)
                 (A) (A) (A) (A) (A) (A) (A) (A) (A) (A) (A) (A)
                 (A) (A) (A) (A) (A) (A) (A) (A) (A) (A) (A) (A)
                 (A) (A) (A) (A) (A) (A) (A) (A) (A) (A) (A) (A)
                 (A) (A) (A) (A) (A) (A) (A) (A) (A) (A) (A) (A)
                 (A) (A) (A) (A) (A) (A) (A) (A) (A) (A) (A) (A)
                 (A) (A) (A) (A) (A) (A) (A) (A) (A) (A) (A) (A)
                 (A) (A) (A) (A) (A) (A) (A) (A) (A) (A) (A) (A)
                 (A) (A) (A) (A) (A) (A) (A) (A) (A) (A) (A) (A)
                 (A) (A) (A) (A) (A) (A) (A) (A) (A) (A) (A) (A)
                 (A) (A) (A) (A) (A) (A) (A) (A) (A) (A) (A) (A)
                 (A) (A) (A) (A) (A) (A) (A) (A) (A) (A) (A) (A)
                 (A) (A) (A) (A) (A) (A) (A) (A) (A) (A) (A) (A)
                 (A) (A) (A) (A) (A) (A) (A) (A) (A) (A) (A) (A)
                 (A) (A) (A) (A) (A) (A) (A) (A) (A) (A) (A) (A)
                 (A) (A) (A) (A) (A) (A) (A) (A) (A) (A) (A) (A)
                 (A) (A) (A) (A) (A) (A) (A) (A) (A) (A) (A) (A)
                 (A) (A) (A) (A) (A) (A) (A) (A) (A) (A) (A) (A)
                 (A) (A) (A) (A) (A) (A) (A) (A) (A) (A) (A) (A)
                 (A) (A) (A) (A) (A) (A) (A) (A) (A) (A) (A) (A)
                 (A) (A) (A) (A) (A) (A) (A) (A) (A) (A) (A) (A)
                 (A) (A) (A) (A) (A) (A) (A) (A) (A) (A) (A) (A)
                 (A) (A) (A) (A) (A) (A) (A) (A) (A) (A) (A) (A)
                 (A) (A) (A) (A) (A) (A) (A) (A) (A) (A) (A) (A)
                 (A) (A) (A) (A) (A) (A) (A) (A) (A) (A) (A) (A)
                 (A) (A) (A) (A) (A) (A) (A) (A) (A) (A) (A) (A)
                 (A) (A) (A) (A) (A) (A) (A) (A) (A) (A) (A) (A)
                 (A) (A) (A) (A) (A) (A) (A) (A) (A) (A) (A) (A)
                 (A) (A) (A) (A) (A) (A) (A) (A) (A) (A) (A) (A)
                 (A) (A) (A) (A) (A) (A) (A) (A) (A) (A) (A) (A)
                 (A) (A) (A) (A) (A) (A) (A) (A) (A) (A) (A) (A)
                 (A) (A) (A) (A) (A) (A) (A) (A) (A) (A) (A) (A)
                 (A) (A) (A) (A) (A) (A) (A) (A) (A) (A) (A) (A)
                 (A) (A) (A) (A) (A) (A) (A) (A) (A) (A) (A) (A)
                 (A) (A) (A) (A) (A) (A) (A) (A) (A) (A) (A) (A)
                 (A) (A) (A) (A) (A) (A) (A) (A) (A) (A) (A) (A)
                 (A) (A) (A) (A) (A) (A) (A) (A) (A) (A) (A) (A)
                 (A) (A) (A) (A) (A) (A) (A) (A) (A) (A) (A) (A)
                 (A) (A) (A) (A) (A) (A) (A) (A) (A) (A) (A) (A)
                 (A) (A) (A) (A) (A) (A) (A) (A) (A) (A) (A) (A)
                 (A) (A) (A) (A) (A) (A) (A) (A) (A) (A) (A) (A)
                 (A) (A) (A) (A) (A) (A) (A) (A) (A) (A) (A) (A)
                 (A) (A) (A) (A) (A) (A) (A) (A) (A) (A) (A) (A)
                 (A) (A) (A) (A) (A) (A) (A) (A) (A) (A) (A) (A)
                 (A) (A) (A) (A) (A) (A) (A) (A) (A) (A) (A) (A)
                 (A) (A) (A) (A) (A) (A) (A) (A) (A) (A) (A) (A)
                 (A) (A) (A) (A) (A) (A) (A) (A) (A) (A) (A) (A)
                 (A) (A) (A) (A) (A) (A) (A) (A) (A) (A) (A) (A)
                 (A) (A) (A) (A) (A) (A) (A) (A) (A) (A) (A) (A)
                 (A) (A) (A) (A) (A) (A) (A) (A) (A) (A) (A) (A)
                 (A) (A) (A) (A) (A) (A) (A) (A) (A) (A) (A) (A)
 Beta  Orbitals:
       Occupied  (A) (A) (A) (A) (A) (A) (A) (A) (A) (A) (A) (A)
                 (A) (A) (A) (A) (A) (A) (A) (A) (A) (A) (A) (A)
                 (A) (A) (A) (A) (A) (A) (A) (A) (A) (A) (A) (A)
                 (A) (A) (A) (A) (A) (A) (A) (A) (A) (A) (A) (A)
                 (A) (A) (A) (A) (A) (A) (A) (A) (A) (A) (A) (A)
                 (A) (A) (A) (A) (A) (A) (A) (A) (A) (A) (A) (A)
                 (A) (A) (A) (A) (A) (A) (A) (A) (A) (A) (A) (A)
                 (A) (A) (A) (A) (A) (A) (A) (A) (A) (A) (A) (A)
                 (A) (A) (A) (A) (A) (A) (A) (A) (A) (A) (A) (A)
                 (A) (A) (A) (A) (A) (A) (A) (A) (A) (A) (A) (A)
                 (A) (A) (A) (A) (A) (A) (A) (A) (A) (A) (A) (A)
                 (A) (A) (A) (A) (A) (A) (A) (A) (A) (A) (A) (A)
                 (A) (A) (A) (A) (A) (A) (A) (A) (A) (A) (A) (A)
                 (A) (A) (A) (A) (A) (A) (A) (A) (A) (A) (A) (A)
                 (A) (A) (A) (A) (A) (A) (A) (A) (A) (A) (A) (A)
                 (A) (A) (A) (A) (A) (A)
       Virtual   (A) (A) (A) (A) (A) (A) (A) (A) (A) (A) (A) (A)
                 (A) (A) (A) (A) (A) (A) (A) (A) (A) (A) (A) (A)
                 (A) (A) (A) (A) (A) (A) (A) (A) (A) (A) (A) (A)
                 (A) (A) (A) (A) (A) (A) (A) (A) (A) (A) (A) (A)
                 (A) (A) (A) (A) (A) (A) (A) (A) (A) (A) (A) (A)
                 (A) (A) (A) (A) (A) (A) (A) (A) (A) (A) (A) (A)
                 (A) (A) (A) (A) (A) (A) (A) (A) (A) (A) (A) (A)
                 (A) (A) (A) (A) (A) (A) (A) (A) (A) (A) (A) (A)
                 (A) (A) (A) (A) (A) (A) (A) (A) (A) (A) (A) (A)
                 (A) (A) (A) (A) (A) (A) (A) (A) (A) (A) (A) (A)
                 (A) (A) (A) (A) (A) (A) (A) (A) (A) (A) (A) (A)
                 (A) (A) (A) (A) (A) (A) (A) (A) (A) (A) (A) (A)
                 (A) (A) (A) (A) (A) (A) (A) (A) (A) (A) (A) (A)
                 (A) (A) (A) (A) (A) (A) (A) (A) (A) (A) (A) (A)
                 (A) (A) (A) (A) (A) (A) (A) (A) (A) (A) (A) (A)
                 (A) (A) (A) (A) (A) (A) (A) (A) (A) (A) (A) (A)
                 (A) (A) (A) (A) (A) (A) (A) (A) (A) (A) (A) (A)
                 (A) (A) (A) (A) (A) (A) (A) (A) (A) (A) (A) (A)
                 (A) (A) (A) (A) (A) (A) (A) (A) (A) (A) (A) (A)
                 (A) (A) (A) (A) (A) (A) (A) (A) (A) (A) (A) (A)
                 (A) (A) (A) (A) (A) (A) (A) (A) (A) (A) (A) (A)
                 (A) (A) (A) (A) (A) (A) (A) (A) (A) (A) (A) (A)
                 (A) (A) (A) (A) (A) (A) (A) (A) (A) (A) (A) (A)
                 (A) (A) (A) (A) (A) (A) (A) (A) (A) (A) (A) (A)
                 (A) (A) (A) (A) (A) (A) (A) (A) (A) (A) (A) (A)
                 (A) (A) (A) (A) (A) (A) (A) (A) (A) (A) (A) (A)
                 (A) (A) (A) (A) (A) (A) (A) (A) (A) (A) (A) (A)
                 (A) (A) (A) (A) (A) (A) (A) (A) (A) (A) (A) (A)
                 (A) (A) (A) (A) (A) (A) (A) (A) (A) (A) (A) (A)
                 (A) (A) (A) (A) (A) (A) (A) (A) (A) (A) (A) (A)
                 (A) (A) (A) (A) (A) (A) (A) (A) (A) (A) (A) (A)
                 (A) (A) (A) (A) (A) (A) (A) (A) (A) (A) (A) (A)
                 (A) (A) (A) (A) (A) (A) (A) (A) (A) (A) (A) (A)
                 (A) (A) (A) (A) (A) (A) (A) (A) (A) (A) (A) (A)
                 (A) (A) (A) (A) (A) (A) (A) (A) (A) (A) (A) (A)
                 (A) (A) (A) (A) (A) (A) (A) (A) (A) (A) (A) (A)
                 (A) (A) (A) (A) (A) (A) (A) (A) (A) (A) (A) (A)
                 (A) (A) (A) (A) (A) (A) (A) (A) (A) (A) (A) (A)
                 (A) (A) (A) (A) (A) (A) (A) (A) (A) (A) (A) (A)
                 (A) (A) (A) (A) (A) (A) (A) (A) (A) (A) (A) (A)
                 (A) (A) (A) (A) (A) (A) (A) (A) (A) (A) (A) (A)
                 (A) (A) (A) (A) (A) (A) (A) (A) (A) (A) (A) (A)
                 (A) (A) (A) (A) (A) (A) (A) (A) (A) (A) (A) (A)
                 (A) (A) (A) (A) (A) (A) (A) (A) (A) (A) (A) (A)
                 (A) (A) (A) (A) (A) (A) (A) (A) (A) (A) (A) (A)
                 (A) (A) (A) (A) (A) (A) (A) (A) (A) (A) (A) (A)
                 (A) (A) (A) (A) (A) (A) (A) (A) (A) (A) (A) (A)
                 (A) (A) (A) (A) (A) (A) (A) (A) (A) (A) (A) (A)
                 (A) (A) (A) (A) (A) (A) (A) (A) (A) (A) (A) (A)
                 (A) (A) (A) (A) (A) (A) (A) (A) (A) (A) (A) (A)
                 (A) (A) (A) (A) (A) (A) (A) (A) (A) (A) (A) (A)
                 (A) (A) (A) (A) (A) (A) (A) (A) (A) (A) (A) (A)
                 (A) (A) (A) (A) (A) (A) (A) (A) (A) (A) (A) (A)
                 (A) (A) (A) (A) (A) (A) (A) (A) (A) (A) (A) (A)
                 (A) (A) (A) (A) (A) (A) (A) (A) (A) (A) (A) (A)
                 (A) (A) (A) (A) (A) (A) (A) (A) (A) (A) (A) (A)
                 (A) (A) (A) (A) (A) (A) (A) (A) (A) (A) (A) (A)
                 (A) (A) (A) (A) (A) (A) (A) (A) (A) (A) (A) (A)
                 (A) (A) (A) (A) (A) (A) (A) (A) (A) (A) (A) (A)
                 (A) (A) (A) (A) (A) (A) (A) (A) (A) (A) (A) (A)
                 (A) (A) (A) (A) (A) (A) (A) (A) (A) (A) (A) (A)
                 (A) (A) (A) (A) (A) (A) (A) (A) (A) (A) (A) (A)
                 (A) (A) (A) (A) (A) (A) (A) (A) (A) (A) (A) (A)
                 (A) (A) (A) (A) (A) (A) (A) (A) (A) (A) (A) (A)
                 (A) (A) (A) (A) (A) (A) (A) (A) (A) (A) (A) (A)
                 (A) (A) (A) (A) (A) (A) (A) (A) (A) (A) (A) (A)
                 (A) (A) (A) (A) (A) (A) (A) (A) (A) (A) (A) (A)
                 (A) (A) (A) (A) (A) (A) (A) (A) (A) (A) (A) (A)
                 (A) (A) (A) (A) (A) (A) (A) (A) (A) (A) (A) (A)
                 (A) (A) (A) (A) (A) (A) (A) (A) (A) (A) (A) (A)
                 (A) (A) (A) (A) (A) (A) (A) (A) (A) (A) (A) (A)
                 (A) (A) (A) (A) (A) (A) (A) (A) (A) (A) (A) (A)
                 (A) (A) (A) (A) (A) (A) (A) (A) (A) (A) (A) (A)
                 (A) (A) (A) (A) (A) (A) (A) (A) (A) (A) (A) (A)
                 (A) (A) (A) (A) (A) (A) (A) (A) (A) (A) (A) (A)
                 (A) (A) (A) (A) (A) (A) (A) (A) (A) (A) (A) (A)
                 (A) (A) (A) (A) (A) (A) (A) (A) (A) (A) (A) (A)
                 (A) (A) (A) (A) (A) (A) (A) (A) (A) (A) (A) (A)
                 (A) (A) (A) (A) (A) (A) (A) (A) (A) (A) (A) (A)
                 (A) (A) (A) (A) (A) (A) (A) (A) (A) (A) (A) (A)
                 (A) (A) (A) (A) (A) (A) (A) (A) (A) (A) (A) (A)
                 (A) (A) (A) (A) (A) (A) (A) (A) (A) (A) (A) (A)
                 (A) (A) (A) (A) (A) (A) (A) (A) (A) (A) (A) (A)
                 (A) (A) (A) (A) (A) (A) (A) (A) (A) (A) (A) (A)
                 (A) (A) (A) (A) (A) (A) (A) (A) (A) (A) (A) (A)
                 (A) (A) (A) (A) (A) (A) (A) (A) (A) (A) (A) (A)
                 (A) (A) (A) (A) (A) (A) (A) (A) (A) (A) (A) (A)
                 (A) (A) (A) (A) (A) (A) (A) (A) (A) (A) (A) (A)
                 (A) (A) (A) (A) (A) (A) (A) (A) (A) (A) (A) (A)
                 (A) (A) (A) (A) (A) (A) (A) (A) (A) (A) (A) (A)
                 (A) (A) (A) (A) (A) (A) (A) (A) (A) (A) (A) (A)
                 (A) (A) (A) (A) (A) (A) (A) (A) (A) (A) (A) (A)
                 (A) (A) (A) (A) (A) (A) (A) (A) (A) (A) (A) (A)
                 (A) (A) (A) (A) (A) (A) (A) (A) (A) (A) (A) (A)
                 (A) (A) (A) (A) (A) (A) (A) (A) (A) (A) (A) (A)
                 (A) (A) (A) (A) (A) (A) (A) (A) (A) (A) (A) (A)
                 (A) (A) (A) (A) (A) (A) (A) (A) (A) (A) (A) (A)
                 (A) (A) (A) (A) (A) (A) (A) (A) (A) (A) (A) (A)
                 (A) (A) (A) (A) (A) (A) (A) (A) (A) (A) (A) (A)
                 (A) (A) (A) (A) (A) (A) (A) (A) (A) (A) (A) (A)
                 (A) (A) (A) (A) (A) (A) (A) (A) (A) (A) (A) (A)
                 (A) (A) (A) (A) (A) (A) (A) (A) (A) (A) (A) (A)
                 (A) (A) (A) (A) (A) (A) (A) (A) (A) (A) (A) (A)
                 (A) (A) (A) (A) (A) (A) (A) (A) (A) (A) (A) (A)
                 (A) (A) (A) (A) (A) (A) (A) (A) (A) (A) (A) (A)
                 (A) (A) (A) (A) (A) (A) (A) (A) (A) (A) (A) (A)
                 (A) (A) (A) (A) (A) (A) (A) (A) (A) (A) (A) (A)
                 (A) (A) (A) (A) (A) (A) (A) (A) (A) (A) (A) (A)
                 (A) (A) (A) (A) (A) (A) (A) (A) (A) (A) (A) (A)
                 (A) (A) (A) (A) (A) (A) (A) (A) (A) (A) (A) (A)
                 (A) (A) (A) (A) (A) (A) (A) (A) (A) (A) (A) (A)
                 (A) (A) (A) (A) (A) (A) (A) (A) (A) (A) (A) (A)
                 (A) (A) (A) (A) (A) (A) (A) (A) (A) (A) (A) (A)
                 (A) (A) (A) (A) (A) (A) (A) (A) (A) (A) (A) (A)
                 (A) (A) (A) (A) (A) (A) (A) (A) (A) (A) (A) (A)
                 (A) (A) (A) (A) (A) (A) (A) (A) (A) (A) (A) (A)
                 (A) (A) (A) (A) (A) (A) (A) (A) (A) (A) (A) (A)
                 (A) (A) (A) (A) (A) (A) (A) (A) (A) (A) (A) (A)
                 (A) (A) (A) (A) (A) (A) (A) (A) (A) (A) (A) (A)
                 (A) (A) (A) (A) (A) (A) (A) (A) (A) (A) (A) (A)
                 (A) (A) (A) (A) (A) (A) (A) (A) (A) (A) (A) (A)
                 (A) (A) (A) (A) (A) (A) (A) (A) (A) (A) (A) (A)
                 (A) (A) (A) (A) (A) (A) (A) (A) (A) (A) (A) (A)
                 (A) (A) (A) (A) (A) (A) (A) (A) (A) (A) (A) (A)
                 (A) (A) (A) (A) (A) (A) (A) (A) (A) (A) (A) (A)
                 (A) (A) (A) (A) (A) (A) (A) (A) (A) (A) (A) (A)
                 (A) (A) (A) (A) (A) (A) (A) (A) (A) (A) (A) (A)
                 (A) (A) (A) (A) (A) (A) (A) (A) (A) (A) (A) (A)
                 (A) (A) (A) (A) (A) (A) (A) (A) (A) (A) (A) (A)
                 (A) (A) (A) (A) (A) (A) (A) (A) (A) (A) (A) (A)
                 (A) (A) (A) (A) (A) (A) (A) (A) (A) (A) (A) (A)
                 (A) (A) (A) (A) (A) (A) (A) (A) (A) (A) (A) (A)
                 (A) (A) (A) (A) (A) (A) (A) (A) (A) (A) (A) (A)
                 (A) (A) (A) (A) (A) (A) (A) (A) (A) (A) (A) (A)
                 (A) (A) (A) (A) (A) (A) (A) (A) (A) (A) (A) (A)
                 (A) (A) (A) (A) (A) (A) (A) (A) (A) (A) (A) (A)
                 (A) (A) (A) (A) (A) (A) (A) (A) (A) (A) (A) (A)
                 (A) (A) (A) (A) (A) (A) (A) (A) (A) (A) (A) (A)
                 (A) (A) (A) (A) (A) (A) (A) (A) (A) (A) (A) (A)
                 (A) (A) (A) (A) (A) (A) (A) (A) (A) (A) (A) (A)
                 (A) (A) (A) (A) (A) (A) (A) (A) (A) (A) (A) (A)
                 (A) (A) (A) (A) (A) (A) (A) (A) (A) (A) (A) (A)
                 (A) (A) (A) (A) (A) (A) (A) (A) (A) (A) (A) (A)
                 (A) (A) (A) (A) (A) (A) (A) (A) (A) (A) (A) (A)
                 (A) (A) (A) (A) (A) (A) (A) (A) (A) (A) (A) (A)
                 (A) (A) (A) (A) (A) (A) (A) (A) (A) (A) (A) (A)
                 (A) (A) (A) (A) (A) (A) (A) (A) (A) (A) (A) (A)
                 (A)
 The electronic state is 2-A.
 Alpha  occ. eigenvalues --  -25.20328 -25.20044 -19.68734 -19.68700 -19.68029
 Alpha  occ. eigenvalues --  -19.67962 -19.67873 -19.67870 -19.67778 -19.67631
 Alpha  occ. eigenvalues --  -19.65717 -19.65502 -15.02151 -15.01416 -15.01397
 Alpha  occ. eigenvalues --  -15.01345 -14.99177 -14.77666 -14.77552 -10.64148
 Alpha  occ. eigenvalues --  -10.63235 -10.63129 -10.61835 -10.61770 -10.59547
 Alpha  occ. eigenvalues --  -10.59307 -10.59257 -10.58916 -10.58865 -10.58788
 Alpha  occ. eigenvalues --  -10.58735 -10.58717 -10.58529 -10.58331 -10.58099
 Alpha  occ. eigenvalues --  -10.57901 -10.57897 -10.57657 -10.57498 -10.57033
 Alpha  occ. eigenvalues --  -10.57029 -10.56701 -10.56651 -10.56467 -10.56129
 Alpha  occ. eigenvalues --  -10.56071 -10.56013 -10.55949 -10.54498 -10.54143
 Alpha  occ. eigenvalues --  -10.53877 -10.53701  -7.12586  -1.37808  -1.36869
 Alpha  occ. eigenvalues --   -1.36779  -1.36231  -1.33641  -1.32137  -1.28865
 Alpha  occ. eigenvalues --   -1.19416  -1.18386  -1.18380  -1.17812  -1.15316
 Alpha  occ. eigenvalues --   -1.10116  -1.08123  -1.02775  -1.01823  -1.00756
 Alpha  occ. eigenvalues --   -0.95431  -0.94883  -0.94303  -0.93114  -0.92453
 Alpha  occ. eigenvalues --   -0.91255  -0.90460  -0.90318  -0.89419  -0.87859
 Alpha  occ. eigenvalues --   -0.87547  -0.84464  -0.83689  -0.81735  -0.81384
 Alpha  occ. eigenvalues --   -0.80134  -0.79825  -0.79256  -0.77471  -0.74522
 Alpha  occ. eigenvalues --   -0.73169  -0.72404  -0.72274  -0.70932  -0.69959
 Alpha  occ. eigenvalues --   -0.69756  -0.68995  -0.68466  -0.67343  -0.66669
 Alpha  occ. eigenvalues --   -0.66020  -0.65959  -0.64833  -0.64708  -0.63974
 Alpha  occ. eigenvalues --   -0.63469  -0.63341  -0.63195  -0.63037  -0.62796
 Alpha  occ. eigenvalues --   -0.62297  -0.62111  -0.61877  -0.61652  -0.61394
 Alpha  occ. eigenvalues --   -0.61277  -0.60287  -0.60110  -0.59736  -0.58316
 Alpha  occ. eigenvalues --   -0.57869  -0.57089  -0.56607  -0.55449  -0.55151
 Alpha  occ. eigenvalues --   -0.54619  -0.54131  -0.53952  -0.53467  -0.53122
 Alpha  occ. eigenvalues --   -0.52992  -0.52035  -0.51909  -0.51846  -0.51363
 Alpha  occ. eigenvalues --   -0.50920  -0.49938  -0.49382  -0.48924  -0.48717
 Alpha  occ. eigenvalues --   -0.48304  -0.48086  -0.47859  -0.47696  -0.47522
 Alpha  occ. eigenvalues --   -0.46985  -0.46688  -0.46389  -0.46295  -0.45942
 Alpha  occ. eigenvalues --   -0.45105  -0.44988  -0.44266  -0.43846  -0.43662
 Alpha  occ. eigenvalues --   -0.42962  -0.42678  -0.42285  -0.41870  -0.41702
 Alpha  occ. eigenvalues --   -0.41207  -0.41114  -0.41022  -0.40954  -0.40927
[...]
              Bcc     0.1199    16.093     5.742     5.368  0.1174  0.2082  0.9710
 
              Baa    -0.0506    -1.950    -0.696    -0.650 -0.3877  0.8804  0.2730
    11 N(14)  Bbb    -0.0470    -1.813    -0.647    -0.605  0.8514  0.4556 -0.2600
              Bcc     0.0976     3.763     1.343     1.255  0.3533 -0.1316  0.9262
 
              Baa    -0.1578    11.416     4.073     3.808  0.4623  0.8841  0.0683
    12 O(17)  Bbb    -0.1521    11.004     3.927     3.671  0.8716 -0.4388 -0.2187
              Bcc     0.3098   -22.420    -8.000    -7.479  0.1633 -0.1607  0.9734
 
              Baa    -0.1507    10.906     3.892     3.638  0.9217 -0.0836 -0.3787
    13 O(17)  Bbb    -0.1451    10.499     3.746     3.502  0.1238  0.9888  0.0828
              Bcc     0.2958   -21.405    -7.638    -7.140  0.3676 -0.1232  0.9218
 
              Baa    -0.0093    -1.244    -0.444    -0.415 -0.2683  0.7530 -0.6009
    14 C(13)  Bbb    -0.0049    -0.661    -0.236    -0.221  0.9632  0.2002 -0.1792
              Bcc     0.0142     1.906     0.680     0.636  0.0147  0.6269  0.7790
 
              Baa    -0.0069    -0.265    -0.095    -0.088  0.6609  0.0111  0.7504
    15 N(14)  Bbb    -0.0043    -0.166    -0.059    -0.055 -0.1324  0.9859  0.1020
              Bcc     0.0112     0.432     0.154     0.144  0.7387  0.1668 -0.6531
 
              Baa    -0.0272     1.969     0.703     0.657  0.9083 -0.3399  0.2436
    16 O(17)  Bbb    -0.0251     1.818     0.649     0.606  0.1981  0.8627  0.4652
              Bcc     0.0523    -3.787    -1.351    -1.263 -0.3683 -0.3743  0.8510
 
              Baa    -0.0051     0.369     0.132     0.123 -0.3491  0.9288  0.1244
    17 O(17)  Bbb    -0.0036     0.261     0.093     0.087  0.4792  0.0628  0.8755
              Bcc     0.0087    -0.630    -0.225    -0.210  0.8053  0.3653 -0.4670
 
              Baa    -0.0113    -1.514    -0.540    -0.505  0.3050  0.3067  0.9016
    18 C(13)  Bbb     0.0011     0.143     0.051     0.048 -0.3571  0.9145 -0.1903
              Bcc     0.0102     1.371     0.489     0.457  0.8828  0.2640 -0.3885
 
              Baa    -0.0907    -3.500    -1.249    -1.167 -0.1608  0.9845  0.0694
    19 N(14)  Bbb    -0.0807    -3.114    -1.111    -1.039  0.9865  0.1626 -0.0208
              Bcc     0.1715     6.614     2.360     2.206  0.0317 -0.0652  0.9974
 
              Baa    -0.1173   -15.738    -5.616    -5.250  0.0178 -0.0262  0.9995
    20 C(13)  Bbb     0.0526     7.062     2.520     2.356 -0.6703  0.7414  0.0314
              Bcc     0.0647     8.676     3.096     2.894  0.7419  0.6705  0.0044
 
              Baa    -0.1559   -20.916    -7.463    -6.977 -0.1335  0.9910  0.0046
    21 C(13)  Bbb    -0.1502   -20.152    -7.191    -6.722  0.9910  0.1335 -0.0061
              Bcc     0.3060    41.067    14.654    13.699  0.0067 -0.0037  1.0000
 
              Baa    -0.0042    -0.566    -0.202    -0.189  0.0065  0.9976  0.0695
    22 C(13)  Bbb     0.0006     0.085     0.030     0.028  0.9997 -0.0047 -0.0251
              Bcc     0.0036     0.481     0.172     0.160  0.0247 -0.0697  0.9973
 
              Baa    -0.0056    -0.753    -0.269    -0.251  0.5988  0.0649  0.7982
    23 C(13)  Bbb    -0.0046    -0.621    -0.222    -0.207 -0.0680  0.9972 -0.0300
              Bcc     0.0102     1.374     0.490     0.458  0.7980  0.0363 -0.6016
 
              Baa    -0.0023    -0.311    -0.111    -0.104  0.1132  0.9936  0.0042
    24 C(13)  Bbb    -0.0010    -0.136    -0.049    -0.045  0.2004 -0.0269  0.9793
              Bcc     0.0033     0.447     0.159     0.149  0.9731 -0.1100 -0.2022
 
              Baa    -0.0007    -0.098    -0.035    -0.033  0.0002 -0.0724  0.9974
    25 C(13)  Bbb    -0.0001    -0.013    -0.005    -0.004  0.0602  0.9956  0.0723
              Bcc     0.0008     0.111     0.040     0.037  0.9982 -0.0601 -0.0045
 
              Baa    -0.0003    -0.011    -0.004    -0.004  0.0233  0.9903  0.1368
    26 N(14)  Bbb    -0.0002    -0.008    -0.003    -0.003 -0.0009 -0.1369  0.9906
              Bcc     0.0005     0.018     0.007     0.006  0.9997 -0.0232 -0.0023
 
              Baa    -0.0004     0.030     0.011     0.010  0.0032  0.3572  0.9340
    27 O(17)  Bbb    -0.0000     0.003     0.001     0.001 -0.5551  0.7776 -0.2954
              Bcc     0.0004    -0.032    -0.012    -0.011  0.8318  0.5175 -0.2008
 
              Baa    -0.0004     0.026     0.009     0.009  0.0279  0.4625  0.8862
    28 O(17)  Bbb    -0.0001     0.006     0.002     0.002  0.4111  0.8028 -0.4319
              Bcc     0.0005    -0.033    -0.012    -0.011  0.9112 -0.3763  0.1677
 
              Baa    -0.0024    -0.319    -0.114    -0.106  0.0593  0.9966  0.0565
    29 C(13)  Bbb    -0.0010    -0.137    -0.049    -0.046 -0.1882 -0.0444  0.9811
              Bcc     0.0034     0.456     0.163     0.152  0.9803 -0.0688  0.1850
 
              Baa    -0.0057    -0.767    -0.274    -0.256 -0.5992 -0.0116  0.8005
    30 C(13)  Bbb    -0.0048    -0.640    -0.228    -0.213  0.0739  0.9948  0.0698
              Bcc     0.0105     1.407     0.502     0.469  0.7972 -0.1010  0.5952
 
              Baa    -0.0862   -11.565    -4.127    -3.858  0.0148  0.0165  0.9998
    31 C(13)  Bbb     0.0394     5.289     1.887     1.764  0.7800  0.6255 -0.0218
              Bcc     0.0468     6.276     2.239     2.093 -0.6257  0.7801 -0.0036
 
              Baa    -0.0522    -7.005    -2.500    -2.337  0.8655 -0.5009  0.0005
    32 C(13)  Bbb    -0.0512    -6.865    -2.450    -2.290  0.5005  0.8649 -0.0369
              Bcc     0.1034    13.870     4.949     4.627  0.0181  0.0322  0.9993
 
              Baa    -0.0013    -0.172    -0.061    -0.057  0.7666 -0.6419  0.0126
    33 C(13)  Bbb     0.0006     0.079     0.028     0.026  0.5754  0.6782 -0.4572
              Bcc     0.0007     0.093     0.033     0.031  0.2849  0.3577  0.8893
 
              Baa    -0.0570    -7.651    -2.730    -2.552  0.0331  0.0330  0.9989
    34 C(13)  Bbb     0.0275     3.685     1.315     1.229  0.1914  0.9807 -0.0388
              Bcc     0.0296     3.966     1.415     1.323  0.9809 -0.1925 -0.0261
 
              Baa    -0.0681    -9.140    -3.262    -3.049  0.3754  0.9265 -0.0246
    35 C(13)  Bbb    -0.0653    -8.767    -3.128    -2.924  0.9268 -0.3756 -0.0011
              Bcc     0.1335    17.908     6.390     5.973  0.0102  0.0224  0.9997
 
              Baa    -0.0476    -6.389    -2.280    -2.131 -0.0161 -0.0435  0.9989
    36 C(13)  Bbb     0.0192     2.579     0.920     0.860  0.4944  0.8681  0.0458
              Bcc     0.0284     3.809     1.359     1.271  0.8691 -0.4946 -0.0075
 
              Baa    -0.0605    -8.120    -2.897    -2.708 -0.0995  0.9930  0.0635
    37 C(13)  Bbb    -0.0549    -7.370    -2.630    -2.459  0.9949  0.0984  0.0207
              Bcc     0.1154    15.490     5.527     5.167 -0.0143 -0.0653  0.9978
 
              Baa    -0.0135    -1.809    -0.645    -0.603 -0.0060 -0.0743  0.9972
    38 C(13)  Bbb     0.0035     0.474     0.169     0.158  0.1880  0.9794  0.0741
              Bcc     0.0099     1.335     0.476     0.445  0.9822 -0.1879 -0.0081
 
              Baa    -0.0121    -1.622    -0.579    -0.541  0.3571  0.9270  0.1144
    39 C(13)  Bbb    -0.0101    -1.351    -0.482    -0.451  0.9280 -0.3660  0.0693
              Bcc     0.0222     2.973     1.061     0.992 -0.1061 -0.0814  0.9910
 
              Baa    -0.0138    -1.857    -0.662    -0.619 -0.0538 -0.0776  0.9955
    40 C(13)  Bbb     0.0059     0.788     0.281     0.263  0.7911  0.6051  0.0899
              Bcc     0.0080     1.069     0.381     0.357 -0.6094  0.7924  0.0288
 
              Baa    -0.0015    -0.058    -0.021    -0.019  0.5140 -0.3305  0.7916
    41 N(14)  Bbb    -0.0003    -0.010    -0.003    -0.003  0.3878  0.9126  0.1292
              Bcc     0.0018     0.068     0.024     0.023  0.7651 -0.2406 -0.5973
 
              Baa    -0.0007     0.053     0.019     0.018 -0.1197  0.8955 -0.4286
    42 O(17)  Bbb    -0.0005     0.033     0.012     0.011  0.9816  0.1715  0.0842
              Bcc     0.0012    -0.086    -0.031    -0.029 -0.1489  0.4107  0.8995
 
              Baa    -0.0064     0.466     0.166     0.155  0.7484  0.4796 -0.4581
    43 O(17)  Bbb     0.0007    -0.054    -0.019    -0.018  0.5832 -0.1471  0.7989
              Bcc     0.0057    -0.412    -0.147    -0.137 -0.3157  0.8651  0.3898
 
              Baa    -0.0340    -4.569    -1.630    -1.524  0.2150  0.9627  0.1641
    44 C(13)  Bbb    -0.0304    -4.073    -1.453    -1.359  0.9738 -0.1987 -0.1105
              Bcc     0.0644     8.642     3.084     2.883  0.0738 -0.1835  0.9802
 
              Baa    -0.0061    -0.235    -0.084    -0.079  0.7384  0.4814 -0.4723
    45 N(14)  Bbb    -0.0054    -0.206    -0.074    -0.069 -0.5197  0.8525  0.0562
              Bcc     0.0115     0.442     0.158     0.147  0.4297  0.2039  0.8797
 
              Baa    -0.0427     3.089     1.102     1.030  0.7926 -0.5264 -0.3078
    46 O(17)  Bbb    -0.0384     2.776     0.990     0.926  0.4387  0.8428 -0.3117
              Bcc     0.0810    -5.864    -2.092    -1.956  0.4235  0.1120  0.8989
 
              Baa    -0.0424     3.069     1.095     1.024  0.9971  0.0360 -0.0677
    47 O(17)  Bbb    -0.0407     2.946     1.051     0.983 -0.0491  0.9777 -0.2040
              Bcc     0.0831    -6.015    -2.146    -2.006  0.0588  0.2068  0.9766
 
              Baa    -0.0077    -1.028    -0.367    -0.343  0.0107  0.0163  0.9998
    48 C(13)  Bbb     0.0020     0.267     0.095     0.089  0.0648  0.9978 -0.0169
              Bcc     0.0057     0.761     0.271     0.254  0.9978 -0.0650 -0.0096
 
              Baa    -0.0239    -3.203    -1.143    -1.068  0.2096  0.9742  0.0839
    49 C(13)  Bbb    -0.0205    -2.756    -0.983    -0.919  0.9774 -0.2111  0.0091
              Bcc     0.0444     5.958     2.126     1.987 -0.0265 -0.0801  0.9964
 
              Baa    -0.0392    -1.512    -0.539    -0.504 -0.0477  0.9984 -0.0310
    50 N(14)  Bbb    -0.0308    -1.190    -0.424    -0.397  0.9988  0.0473 -0.0140
              Bcc     0.0700     2.701     0.964     0.901  0.0125  0.0317  0.9994
 
              Baa    -0.0020    -0.336    -0.120    -0.112 -0.1522 -0.0623  0.9864
    51 B(11)  Bbb     0.0000     0.006     0.002     0.002  0.9066  0.3887  0.1644
              Bcc     0.0019     0.329     0.117     0.110 -0.3936  0.9193 -0.0026
 
              Baa    -0.0082    -4.096    -1.462    -1.366 -0.2201 -0.2148  0.9515
    52 F(19)  Bbb    -0.0061    -3.064    -1.093    -1.022 -0.0251  0.9764  0.2146
              Bcc     0.0143     7.160     2.555     2.388  0.9752 -0.0234  0.2203
 
              Baa    -0.0163    -8.166    -2.914    -2.724 -0.1382  0.9333 -0.3314
    53 F(19)  Bbb    -0.0148    -7.439    -2.655    -2.482  0.4689  0.3564  0.8081
              Bcc     0.0311    15.606     5.569     5.206  0.8724 -0.0437 -0.4869
 
              Baa    -0.0010    -0.548    -0.196    -0.183  0.3695 -0.0718  0.9264
    54 H(1)   Bbb    -0.0003    -0.164    -0.058    -0.055  0.6728  0.7084 -0.2134
              Bcc     0.0013     0.712     0.254     0.237 -0.6410  0.7022  0.3101
 
              Baa    -0.0007    -0.349    -0.125    -0.116  0.0472 -0.0163  0.9988
    55 H(1)   Bbb    -0.0005    -0.290    -0.104    -0.097  0.8443  0.5350 -0.0311
              Bcc     0.0012     0.640     0.228     0.213 -0.5338  0.8447  0.0390
 
              Baa    -0.0010    -0.547    -0.195    -0.183 -0.3171  0.0371  0.9477
    56 H(1)   Bbb    -0.0003    -0.149    -0.053    -0.050  0.6838  0.7014  0.2014
              Bcc     0.0013     0.696     0.248     0.232 -0.6572  0.7118 -0.2477
 
              Baa    -0.0037    -1.981    -0.707    -0.661  0.0021  0.9994  0.0333
    57 H(1)   Bbb    -0.0012    -0.661    -0.236    -0.221  0.0218 -0.0333  0.9992
              Bcc     0.0050     2.643     0.943     0.881  0.9998 -0.0014 -0.0219
 
              Baa    -0.0022    -1.164    -0.415    -0.388  0.0059  0.3186  0.9479
    58 H(1)   Bbb    -0.0017    -0.909    -0.324    -0.303  0.1502  0.9368 -0.3159
              Bcc     0.0039     2.073     0.740     0.691  0.9886 -0.1443  0.0423
 
              Baa    -0.0045    -2.411    -0.860    -0.804  0.5638  0.8238 -0.0594
    59 H(1)   Bbb    -0.0017    -0.931    -0.332    -0.311  0.0202  0.0581  0.9981
              Bcc     0.0063     3.342     1.192     1.115  0.8256 -0.5640  0.0162
 
              Baa    -0.0031    -1.634    -0.583    -0.545  0.5821  0.8054 -0.1117
    60 H(1)   Bbb    -0.0020    -1.055    -0.376    -0.352  0.0735  0.0847  0.9937
              Bcc     0.0050     2.689     0.959     0.897  0.8098 -0.5866 -0.0099
 
              Baa    -0.0026    -1.407    -0.502    -0.469  0.1421  0.1305  0.9812
    61 H(1)   Bbb     0.0002     0.115     0.041     0.038 -0.6408  0.7676 -0.0093
              Bcc     0.0024     1.292     0.461     0.431  0.7544  0.6275 -0.1927
 
              Baa    -0.0017    -0.885    -0.316    -0.295  0.0532 -0.1525  0.9869
    62 H(1)   Bbb    -0.0004    -0.215    -0.077    -0.072 -0.3182  0.9342  0.1615
              Bcc     0.0021     1.099     0.392     0.367  0.9465  0.3226 -0.0012
 
              Baa    -0.0021    -1.134    -0.405    -0.378  0.0043  0.9999  0.0160
    63 H(1)   Bbb    -0.0011    -0.587    -0.210    -0.196  0.8205 -0.0127  0.5715
              Bcc     0.0032     1.722     0.614     0.574 -0.5716 -0.0107  0.8204
 
              Baa    -0.0005    -0.248    -0.089    -0.083  0.1272  0.9690  0.2120
    64 H(1)   Bbb    -0.0004    -0.207    -0.074    -0.069  0.4209 -0.2462  0.8730
              Bcc     0.0009     0.455     0.162     0.152  0.8981 -0.0218 -0.4392
 
              Baa    -0.0005    -0.251    -0.090    -0.084  0.0738  0.9963 -0.0448
    65 H(1)   Bbb    -0.0004    -0.204    -0.073    -0.068 -0.4313  0.0724  0.8993
              Bcc     0.0009     0.455     0.162     0.152  0.8992 -0.0471  0.4351
 
              Baa    -0.0022    -1.173    -0.419    -0.391 -0.0321  0.9954  0.0901
    66 H(1)   Bbb    -0.0011    -0.569    -0.203    -0.190  0.8189  0.0779 -0.5687
              Bcc     0.0033     1.743     0.622     0.581  0.5731 -0.0556  0.8176
 
              Baa    -0.0014    -0.764    -0.273    -0.255  0.4446 -0.0591  0.8938
    67 H(1)   Bbb    -0.0004    -0.234    -0.083    -0.078 -0.3579  0.9030  0.2377
              Bcc     0.0019     0.998     0.356     0.333  0.8211  0.4255 -0.3804
 
              Baa    -0.0015    -0.781    -0.279    -0.261 -0.3763  0.0490  0.9252
    68 H(1)   Bbb    -0.0004    -0.202    -0.072    -0.067 -0.3826  0.9013 -0.2033
              Bcc     0.0018     0.984     0.351     0.328  0.8438  0.4305  0.3205
 
              Baa    -0.0010    -0.513    -0.183    -0.171  0.7441 -0.5203 -0.4190
    69 H(1)   Bbb    -0.0009    -0.489    -0.174    -0.163  0.3535 -0.2256  0.9078
              Bcc     0.0019     1.002     0.358     0.334  0.5669  0.8236 -0.0161
 
              Baa    -0.0024    -1.287    -0.459    -0.429 -0.0978  0.9944 -0.0402
    70 H(1)   Bbb    -0.0017    -0.894    -0.319    -0.298  0.0208  0.0424  0.9989
              Bcc     0.0041     2.181     0.778     0.727  0.9950  0.0969 -0.0248
 
              Baa    -0.0024    -1.288    -0.460    -0.430  0.4007  0.8503 -0.3414
    71 H(1)   Bbb    -0.0022    -1.150    -0.411    -0.384  0.1466  0.3083  0.9399
              Bcc     0.0046     2.438     0.870     0.813  0.9044 -0.4266 -0.0011
 
              Baa    -0.0064    -3.403    -1.214    -1.135  0.7280 -0.6847 -0.0343
    72 H(1)   Bbb    -0.0016    -0.848    -0.303    -0.283 -0.0019 -0.0520  0.9986
              Bcc     0.0080     4.251     1.517     1.418  0.6856  0.7269  0.0392
 
              Baa    -0.0011    -0.566    -0.202    -0.189  0.2013  0.0250  0.9792
    73 H(1)   Bbb    -0.0009    -0.470    -0.168    -0.157  0.9363  0.2889 -0.1998
              Bcc     0.0019     1.036     0.370     0.346 -0.2879  0.9570  0.0348
 
              Baa    -0.0011    -0.612    -0.218    -0.204  0.0308 -0.1491  0.9883
    74 H(1)   Bbb    -0.0001    -0.045    -0.016    -0.015  0.2435  0.9602  0.1372
              Bcc     0.0012     0.658     0.235     0.219  0.9694 -0.2364 -0.0659
 
              Baa    -0.0017    -0.912    -0.325    -0.304  0.7013 -0.7000 -0.1349
    75 H(1)   Bbb    -0.0013    -0.671    -0.239    -0.224  0.0636 -0.1270  0.9899
              Bcc     0.0030     1.583     0.565     0.528  0.7101  0.7027  0.0446
 

 ---------------------------------------------------------------------------------

 No NMR shielding tensors so no spin-rotation constants.
 Leave Link  601 at Fri Oct 24 23:41:39 2025, MaxMem= 30870077440 cpu:             201.5 elap:               3.6
 (Enter /public/software/gauss/g16/l9999.exe)
 1\1\GINC-CU056\SP\UM062X\def2TZVPP\C33H22B1F2N7O10(1-,2)\BAIDING\24-Oc
 t-2025\0\\#p M062X/DEF2TZVPP scrf=(solvent=water) em=GD3\\Energy calcu
 lation for BNP_23NO2_23NO2_reduced\\-1,2\C,0,5.107576,3.11909,-0.13435
 4\C,0,3.706342,2.591627,-0.075949\C,0,2.572309,3.37692,-0.081614\C,0,1
 .427277,2.532958,-0.034711\C,0,0.04696,2.864814,-0.034386\C,0,-0.46653
 8,4.136051,0.004291\C,0,-1.864688,4.460655,0.00639\C,0,-2.282702,5.818
 104,0.081116\C,0,-3.615586,6.164906,0.115277\C,0,-4.623596,5.180386,0.
 065168\N,0,-5.96015,5.563128,0.312429\O,0,-6.274067,6.776591,0.202104\
 O,0,-6.794204,4.693491,0.665034\C,0,-4.217242,3.824733,-0.071327\N,0,-
 5.14746,2.746958,-0.398076\O,0,-4.961178,1.638707,0.123204\O,0,-6.0358
 18,2.974234,-1.224474\C,0,-2.883604,3.476826,-0.081107\N,0,1.863607,1.
 229321,-0.003394\C,0,3.25188,1.218327,-0.021572\C,0,3.957467,0.002218,
 -0.010479\C,0,5.451574,0.00651,-0.016119\C,0,6.156758,-0.029274,-1.229
 28\C,0,7.547317,-0.025227,-1.241722\C,0,8.224053,0.013851,-0.022534\N,
 0,9.684015,0.018162,-0.025901\O,0,10.275761,0.048564,1.058279\O,0,10.2
 70976,-0.008723,-1.112773\C,0,7.55282,0.049204,1.199808\C,0,6.162074,0
 .045568,1.193878\C,0,3.259534,-1.22956,-0.007761\C,0,3.72672,-2.59273,
 -0.037235\C,0,5.132538,-3.112159,-0.076544\C,0,2.59558,-3.391641,-0.03
 5821\C,0,1.448904,-2.559579,-0.007477\C,0,0.064967,-2.897599,-0.012088
 \C,0,-0.449575,-4.162493,0.048931\C,0,-1.856438,-4.476439,0.038986\C,0
 ,-2.865832,-3.48491,-0.081161\C,0,-4.199438,-3.827839,-0.077318\N,0,-5
 .135654,-2.74298,-0.400152\O,0,-4.977666,-1.660266,0.168333\O,0,-5.984
 986,-2.954929,-1.265138\C,0,-4.609356,-5.173208,0.067512\N,0,-5.97582,
 -5.550017,0.264222\O,0,-6.786805,-4.685469,0.642126\O,0,-6.295611,-6.7
 38895,0.078776\C,0,-3.621603,-6.162294,0.163864\C,0,-2.280873,-5.8234,
 0.142101\N,0,1.874257,-1.250022,0.00586\B,0,0.979972,-0.012893,0.23840
 4\F,0,-0.10242,-0.02033,-0.664395\F,0,0.47188,-0.011064,1.547442\H,0,5
 .643675,2.762073,-1.019182\H,0,5.08579,4.211348,-0.169771\H,0,5.695672
 ,2.820215,0.738807\H,0,2.548543,4.457073,-0.132657\H,0,-0.63428,2.0242
 99,-0.077309\H,0,0.212701,4.984318,0.049719\H,0,-1.528845,6.597018,0.1
 36471\H,0,-3.915046,7.199436,0.223957\H,0,-2.637042,2.431163,-0.212874
 \H,0,5.612672,-0.059176,-2.166957\H,0,8.098488,-0.05151,-2.172804\H,0,
 8.108233,0.078839,2.128274\H,0,5.622187,0.072663,2.134076\H,0,5.663038
 ,-2.797321,-0.980667\H,0,5.723288,-2.767942,0.777866\H,0,5.118271,-4.2
 05094,-0.058609\H,0,2.582446,-4.472764,-0.06941\H,0,-0.614851,-2.05748
 3,-0.081645\H,0,0.222005,-5.014494,0.121289\H,0,-2.611227,-2.442459,-0
 .222595\H,0,-3.930431,-7.19179,0.294855\H,0,-1.534526,-6.606045,0.2304
 55\\Version=ES64L-G16RevA.03\State=2-A\HF=-2630.6644827\S2=0.849191\S2
 -1=0.\S2A=0.755698\RMSD=6.750e-09\Dipole=11.0395185,-2.063464,-0.37936
 13\Quadrupole=-141.0762282,62.8050261,78.2712021,22.5648566,-1.7710551
 ,-2.1808992\PG=C01 [X(C33H22B1F2N7O10)]\\@


 Change starts when someone sees the next step.
                            -- William Drayton
 Job cpu time:       1 days 23 hours 35 minutes 28.6 seconds.
 Elapsed time:       0 days  0 hours 45 minutes  6.2 seconds.
 File lengths (MBytes):  RWF=   4067 Int=      0 D2E=      0 Chk=    265 Scr=      1
 Normal termination of Gaussian 16 at Fri Oct 24 23:41:41 2025.
