 Entering Gaussian System, Link 0=g16
 Input=BNP_24NO2_reduced_sp.gjf
 Output=BNP_24NO2_reduced_sp.log
 Initial command:
 /public/software/gauss/g16/l1.exe "/public/home/baiding/1024_sp/tmp_BNP_24NO2_reduced_sp_1526250/Gau-2944153.inp" -scrdir="/public/home/baiding/1024_sp/tmp_BNP_24NO2_reduced_sp_1526250/"
 Entering Link 1 = /public/software/gauss/g16/l1.exe PID=   2944154.
  
 Copyright (c) 1988,1990,1992,1993,1995,1998,2003,2009,2016,
            Gaussian, Inc.  All Rights Reserved.
  
 This is part of the Gaussian(R) 16 program.  It is based on
 the Gaussian(R) 09 system (copyright 2009, Gaussian, Inc.),
 the Gaussian(R) 03 system (copyright 2003, Gaussian, Inc.),
 the Gaussian(R) 98 system (copyright 1998, Gaussian, Inc.),
 the Gaussian(R) 94 system (copyright 1995, Gaussian, Inc.),
 the Gaussian 92(TM) system (copyright 1992, Gaussian, Inc.),
 the Gaussian 90(TM) system (copyright 1990, Gaussian, Inc.),
 the Gaussian 88(TM) system (copyright 1988, Gaussian, Inc.),
 the Gaussian 86(TM) system (copyright 1986, Carnegie Mellon
 University), and the Gaussian 82(TM) system (copyright 1983,
 Carnegie Mellon University). Gaussian is a federally registered
 trademark of Gaussian, Inc.
  
 This software contains proprietary and confidential information,
 including trade secrets, belonging to Gaussian, Inc.
  
 This software is provided under written license and may be
 used, copied, transmitted, or stored only in accord with that
 written license.
  
 The following legend is applicable only to US Government
 contracts under FAR:
  
                    RESTRICTED RIGHTS LEGEND
  
 Use, reproduction and disclosure by the US Government is
 subject to restrictions as set forth in subparagraphs (a)
 and (c) of the Commercial Computer Software - Restricted
 Rights clause in FAR 52.227-19.
  
 Gaussian, Inc.
 340 Quinnipiac St., Bldg. 40, Wallingford CT 06492
  
  
 ---------------------------------------------------------------
 Warning -- This program may not be used in any manner that
 competes with the business of Gaussian, Inc. or will provide
 assistance to any competitor of Gaussian, Inc.  The licensee
 of this program is prohibited from giving any competitor of
 Gaussian, Inc. access to this program.  By using this program,
 the user acknowledges that Gaussian, Inc. is engaged in the
 business of creating and licensing software in the field of
 computational chemistry and represents and warrants to the
 licensee that it is not a competitor of Gaussian, Inc. and that
 it will not use this program in any manner prohibited above.
 ---------------------------------------------------------------
  

 Cite this work as:
 Gaussian 16, Revision A.03,
 M. J. Frisch, G. W. Trucks, H. B. Schlegel, G. E. Scuseria, 
 M. A. Robb, J. R. Cheeseman, G. Scalmani, V. Barone, 
 G. A. Petersson, H. Nakatsuji, X. Li, M. Caricato, A. V. Marenich, 
 J. Bloino, B. G. Janesko, R. Gomperts, B. Mennucci, H. P. Hratchian, 
 J. V. Ortiz, A. F. Izmaylov, J. L. Sonnenberg, D. Williams-Young, 
 F. Ding, F. Lipparini, F. Egidi, J. Goings, B. Peng, A. Petrone, 
 T. Henderson, D. Ranasinghe, V. G. Zakrzewski, J. Gao, N. Rega, 
 G. Zheng, W. Liang, M. Hada, M. Ehara, K. Toyota, R. Fukuda, 
 J. Hasegawa, M. Ishida, T. Nakajima, Y. Honda, O. Kitao, H. Nakai, 
 T. Vreven, K. Throssell, J. A. Montgomery, Jr., J. E. Peralta, 
 F. Ogliaro, M. J. Bearpark, J. J. Heyd, E. N. Brothers, K. N. Kudin, 
 V. N. Staroverov, T. A. Keith, R. Kobayashi, J. Normand, 
 K. Raghavachari, A. P. Rendell, J. C. Burant, S. S. Iyengar, 
 J. Tomasi, M. Cossi, J. M. Millam, M. Klene, C. Adamo, R. Cammi, 
 J. W. Ochterski, R. L. Martin, K. Morokuma, O. Farkas, 
 J. B. Foresman, and D. J. Fox, Gaussian, Inc., Wallingford CT, 2016.
 
 ******************************************
 Gaussian 16:  ES64L-G16RevA.03 25-Dec-2016
                25-Oct-2025 
 ******************************************
 %nprocshared=64
 Will use up to   64 processors via shared memory.
 %mem=230GB
 %chk=BNP_24NO2_reduced_sp.chk
 ----------------------------------------------
 #p M062X/DEF2TZVPP scrf=(solvent=water) em=GD3
 ----------------------------------------------
 1/38=1,172=1/1;
 2/12=2,17=6,18=5,40=1/2;
 3/5=44,7=202,11=2,25=1,30=1,70=2201,72=1,74=-55,124=31/1,2,3;
 4//1;
 5/5=2,38=5,53=1/2;
 6/7=2,8=2,9=2,10=2,28=1/1;
 99/5=1,9=1/99;
 Leave Link    1 at Sat Oct 25 03:39:59 2025, MaxMem= 30870077440 cpu:              17.9 elap:               0.3
 (Enter /public/software/gauss/g16/l101.exe)
 ----------------------------------------
 Energy calculation for BNP_24NO2_reduced
 ----------------------------------------
 Symbolic Z-matrix:
 Charge = -1 Multiplicity = 2
 C                     3.31517  -3.48329   0.29622 
 C                     2.13723  -2.56377   0.18137 
 C                     0.81977  -2.96888   0.23232 
 C                    -0.02063  -1.82663   0.08879 
 C                    -1.43286  -1.71522   0.05512 
 C                    -2.30952  -2.74471   0.32118 
 C                    -3.7352   -2.74545   0.27538 
 C                    -4.35891  -4.0356    0.26374 
 C                    -5.69439  -4.24094   0.03143 
 C                    -6.52777  -3.11773  -0.20327 
 N                    -7.91069  -3.28877  -0.4648 
 O                    -8.63201  -2.28461  -0.67765 
 O                    -8.37863  -4.45224  -0.48403 
 C                    -6.00371  -1.83041  -0.13817 
 C                    -4.65533  -1.6355    0.13816 
 N                    -4.30243  -0.26027   0.39326 
 O                    -4.953     0.64544  -0.17315 
 O                    -3.391    -0.00419   1.20402 
 N                     0.79207  -0.72418  -0.04349 
 C                     2.11731  -1.12551   0.01018 
 C                     3.14499  -0.17255  -0.07151 
 C                     4.57005  -0.61726  -0.05476 
 C                     5.32614  -0.5249    1.12498 
 C                     6.65126  -0.94477   1.15412 
 C                     7.21524  -1.45206  -0.01699 
 N                     8.60571  -1.89318   0.00314 
 O                     9.23851  -1.8015    1.06078 
 O                     9.09731  -2.34197  -1.03822 
 C                     6.49327  -1.55218  -1.20663 
 C                     5.16701  -1.13503  -1.21561 
 C                     2.84323   1.20912  -0.1632 
 C                     3.69653   2.34377  -0.35967 
 C                     5.18728   2.40727  -0.51647 
 C                     2.8584    3.45025  -0.4048 
 C                     1.52128   3.031    -0.2307 
 C                     0.40651   3.94696  -0.20537 
 C                    -0.89173   3.71533   0.12043 
 C                    -1.98235   4.68703   0.10408 
 C                    -1.80836   6.06898  -0.12249 
 C                    -2.89982   6.93243  -0.12832 
 C                    -4.19299   6.44385   0.0909 
 C                    -4.3834    5.07849   0.31741 
 C                    -3.2928    4.21121   0.32703 
 N                     1.52204   1.66087  -0.09686 
 B                     0.29642   0.7336    0.01577 
 F                    -0.37468   0.94323   1.24018 
 F                    -0.60129   0.97482  -1.04064 
 H                     4.00784  -3.16662   1.08186 
 H                     2.96957  -4.49265   0.53454 
 H                     3.88881  -3.53557  -0.63458 
 H                     0.47472  -3.9882    0.34146 
 H                    -1.81294  -0.74155  -0.21072 
 H                    -1.88166  -3.72106   0.53862 
 H                    -3.71563  -4.89824   0.4068 
 H                    -6.11125  -5.239     0.00992 
 H                    -6.65493  -0.97535  -0.24997 
 H                     4.87051  -0.12655   2.02495 
 H                     7.23809  -0.88327   2.06148 
 H                     6.96157  -1.94772  -2.09867 
 H                     4.58931  -1.2061   -2.13068 
 H                     5.71412   2.13972   0.40526 
 H                     5.55145   1.73531  -1.29928 
 H                     5.48113   3.42611  -0.78341 
 H                     3.16571   4.47901  -0.54182 
 H                     0.70387   4.95635  -0.48231 
 H                    -1.19      2.72462   0.43432 
 H                    -0.81323   6.47049  -0.28742 
 H                    -2.74345   7.99327  -0.3018 
 H                    -5.04117   7.12182   0.08565 
 H                    -5.38301   4.68879   0.48663 
 H                    -3.44966   3.14732   0.49242 
 
 ITRead=  0  0  0  0  0  0  0  0  0  0  0  0  0  0  0  0  0  0  0  0
 ITRead=  0  0  0  0  0  0  0  0  0  0  0  0  0  0  0  0  0  0  0  0
 ITRead=  0  0  0  0  0  0  0  0  0  0  0  0  0  0  0  0  0  0  0  0
 ITRead=  0  0  0  0  0  0  0  0  0  0  0
 MicOpt= -1 -1 -1 -1 -1 -1 -1 -1 -1 -1 -1 -1 -1 -1 -1 -1 -1 -1 -1 -1
 MicOpt= -1 -1 -1 -1 -1 -1 -1 -1 -1 -1 -1 -1 -1 -1 -1 -1 -1 -1 -1 -1
 MicOpt= -1 -1 -1 -1 -1 -1 -1 -1 -1 -1 -1 -1 -1 -1 -1 -1 -1 -1 -1 -1
 MicOpt= -1 -1 -1 -1 -1 -1 -1 -1 -1 -1 -1
 NAtoms=     71 NQM=       71 NQMF=       0 NMMI=      0 NMMIF=      0
                NMic=       0 NMicF=      0.
                    Isotopes and Nuclear Properties:
 (Nuclear quadrupole moments (NQMom) in fm**2, nuclear magnetic moments (NMagM)
  in nuclear magnetons)

  Atom         1           2           3           4           5           6           7           8           9          10
 IAtWgt=          12          12          12          12          12          12          12          12          12          12
 AtmWgt=  12.0000000  12.0000000  12.0000000  12.0000000  12.0000000  12.0000000  12.0000000  12.0000000  12.0000000  12.0000000
 NucSpn=           0           0           0           0           0           0           0           0           0           0
 AtZEff=  -0.0000000  -0.0000000  -0.0000000  -0.0000000  -0.0000000  -0.0000000  -0.0000000  -0.0000000  -0.0000000  -0.0000000
 NQMom=    0.0000000   0.0000000   0.0000000   0.0000000   0.0000000   0.0000000   0.0000000   0.0000000   0.0000000   0.0000000
 NMagM=    0.0000000   0.0000000   0.0000000   0.0000000   0.0000000   0.0000000   0.0000000   0.0000000   0.0000000   0.0000000
 AtZNuc=   6.0000000   6.0000000   6.0000000   6.0000000   6.0000000   6.0000000   6.0000000   6.0000000   6.0000000   6.0000000

  Atom        11          12          13          14          15          16          17          18          19          20
 IAtWgt=          14          16          16          12          12          14          16          16          14          12
 AtmWgt=  14.0030740  15.9949146  15.9949146  12.0000000  12.0000000  14.0030740  15.9949146  15.9949146  14.0030740  12.0000000
 NucSpn=           2           0           0           0           0           2           0           0           2           0
 AtZEff=  -0.0000000  -0.0000000  -0.0000000  -0.0000000  -0.0000000  -0.0000000  -0.0000000  -0.0000000  -0.0000000  -0.0000000
 NQMom=    2.0440000   0.0000000   0.0000000   0.0000000   0.0000000   2.0440000   0.0000000   0.0000000   2.0440000   0.0000000
 NMagM=    0.4037610   0.0000000   0.0000000   0.0000000   0.0000000   0.4037610   0.0000000   0.0000000   0.4037610   0.0000000
 AtZNuc=   7.0000000   8.0000000   8.0000000   6.0000000   6.0000000   7.0000000   8.0000000   8.0000000   7.0000000   6.0000000

  Atom        21          22          23          24          25          26          27          28          29          30
 IAtWgt=          12          12          12          12          12          14          16          16          12          12
 AtmWgt=  12.0000000  12.0000000  12.0000000  12.0000000  12.0000000  14.0030740  15.9949146  15.9949146  12.0000000  12.0000000
 NucSpn=           0           0           0           0           0           2           0           0           0           0
 AtZEff=  -0.0000000  -0.0000000  -0.0000000  -0.0000000  -0.0000000  -0.0000000  -0.0000000  -0.0000000  -0.0000000  -0.0000000
 NQMom=    0.0000000   0.0000000   0.0000000   0.0000000   0.0000000   2.0440000   0.0000000   0.0000000   0.0000000   0.0000000
 NMagM=    0.0000000   0.0000000   0.0000000   0.0000000   0.0000000   0.4037610   0.0000000   0.0000000   0.0000000   0.0000000
 AtZNuc=   6.0000000   6.0000000   6.0000000   6.0000000   6.0000000   7.0000000   8.0000000   8.0000000   6.0000000   6.0000000

  Atom        31          32          33          34          35          36          37          38          39          40
 IAtWgt=          12          12          12          12          12          12          12          12          12          12
 AtmWgt=  12.0000000  12.0000000  12.0000000  12.0000000  12.0000000  12.0000000  12.0000000  12.0000000  12.0000000  12.0000000
 NucSpn=           0           0           0           0           0           0           0           0           0           0
 AtZEff=  -0.0000000  -0.0000000  -0.0000000  -0.0000000  -0.0000000  -0.0000000  -0.0000000  -0.0000000  -0.0000000  -0.0000000
 NQMom=    0.0000000   0.0000000   0.0000000   0.0000000   0.0000000   0.0000000   0.0000000   0.0000000   0.0000000   0.0000000
 NMagM=    0.0000000   0.0000000   0.0000000   0.0000000   0.0000000   0.0000000   0.0000000   0.0000000   0.0000000   0.0000000
 AtZNuc=   6.0000000   6.0000000   6.0000000   6.0000000   6.0000000   6.0000000   6.0000000   6.0000000   6.0000000   6.0000000

  Atom        41          42          43          44          45          46          47          48          49          50
 IAtWgt=          12          12          12          14          11          19          19           1           1           1
 AtmWgt=  12.0000000  12.0000000  12.0000000  14.0030740  11.0093053  18.9984033  18.9984033   1.0078250   1.0078250   1.0078250
 NucSpn=           0           0           0           2           3           1           1           1           1           1
 AtZEff=  -0.0000000  -0.0000000  -0.0000000  -0.0000000  -0.0000000  -0.0000000  -0.0000000  -0.0000000  -0.0000000  -0.0000000
 NQMom=    0.0000000   0.0000000   0.0000000   2.0440000   4.0590000   0.0000000   0.0000000   0.0000000   0.0000000   0.0000000
 NMagM=    0.0000000   0.0000000   0.0000000   0.4037610   2.6886370   2.6288670   2.6288670   2.7928460   2.7928460   2.7928460
 AtZNuc=   6.0000000   6.0000000   6.0000000   7.0000000   5.0000000   9.0000000   9.0000000   1.0000000   1.0000000   1.0000000

  Atom        51          52          53          54          55          56          57          58          59          60
 IAtWgt=           1           1           1           1           1           1           1           1           1           1
 AtmWgt=   1.0078250   1.0078250   1.0078250   1.0078250   1.0078250   1.0078250   1.0078250   1.0078250   1.0078250   1.0078250
 NucSpn=           1           1           1           1           1           1           1           1           1           1
 AtZEff=  -0.0000000  -0.0000000  -0.0000000  -0.0000000  -0.0000000  -0.0000000  -0.0000000  -0.0000000  -0.0000000  -0.0000000
 NQMom=    0.0000000   0.0000000   0.0000000   0.0000000   0.0000000   0.0000000   0.0000000   0.0000000   0.0000000   0.0000000
 NMagM=    2.7928460   2.7928460   2.7928460   2.7928460   2.7928460   2.7928460   2.7928460   2.7928460   2.7928460   2.7928460
 AtZNuc=   1.0000000   1.0000000   1.0000000   1.0000000   1.0000000   1.0000000   1.0000000   1.0000000   1.0000000   1.0000000

  Atom        61          62          63          64          65          66          67          68          69          70
 IAtWgt=           1           1           1           1           1           1           1           1           1           1
 AtmWgt=   1.0078250   1.0078250   1.0078250   1.0078250   1.0078250   1.0078250   1.0078250   1.0078250   1.0078250   1.0078250
 NucSpn=           1           1           1           1           1           1           1           1           1           1
 AtZEff=  -0.0000000  -0.0000000  -0.0000000  -0.0000000  -0.0000000  -0.0000000  -0.0000000  -0.0000000  -0.0000000  -0.0000000
 NQMom=    0.0000000   0.0000000   0.0000000   0.0000000   0.0000000   0.0000000   0.0000000   0.0000000   0.0000000   0.0000000
 NMagM=    2.7928460   2.7928460   2.7928460   2.7928460   2.7928460   2.7928460   2.7928460   2.7928460   2.7928460   2.7928460
 AtZNuc=   1.0000000   1.0000000   1.0000000   1.0000000   1.0000000   1.0000000   1.0000000   1.0000000   1.0000000   1.0000000

  Atom        71
 IAtWgt=           1
 AtmWgt=   1.0078250
 NucSpn=           1
 AtZEff=  -0.0000000
 NQMom=    0.0000000
 NMagM=    2.7928460
 AtZNuc=   1.0000000
 Leave Link  101 at Sat Oct 25 03:39:59 2025, MaxMem= 30870077440 cpu:               3.9 elap:               0.1
 (Enter /public/software/gauss/g16/l202.exe)
 Stoichiometry    C33H24BF2N5O6(1-,2)
 Framework group  C1[X(C33H24BF2N5O6)]
 Deg. of freedom   207
 Full point group                 C1      NOp   1
 Largest Abelian subgroup         C1      NOp   1
 Largest concise Abelian subgroup C1      NOp   1
                         Standard orientation:                         
 ---------------------------------------------------------------------
 Center     Atomic      Atomic             Coordinates (Angstroms)
 Number     Number       Type             X           Y           Z
 ---------------------------------------------------------------------
      1          6           0        3.315167   -3.483294    0.296219
      2          6           0        2.137231   -2.563771    0.181370
      3          6           0        0.819772   -2.968882    0.232324
      4          6           0       -0.020634   -1.826628    0.088787
      5          6           0       -1.432857   -1.715215    0.055119
      6          6           0       -2.309523   -2.744708    0.321183
      7          6           0       -3.735196   -2.745454    0.275383
      8          6           0       -4.358908   -4.035600    0.263740
      9          6           0       -5.694391   -4.240935    0.031426
     10          6           0       -6.527772   -3.117727   -0.203272
     11          7           0       -7.910692   -3.288765   -0.464799
     12          8           0       -8.632006   -2.284611   -0.677648
     13          8           0       -8.378626   -4.452242   -0.484034
     14          6           0       -6.003709   -1.830405   -0.138173
     15          6           0       -4.655329   -1.635499    0.138156
     16          7           0       -4.302428   -0.260265    0.393257
     17          8           0       -4.953003    0.645435   -0.173146
     18          8           0       -3.390995   -0.004185    1.204022
     19          7           0        0.792074   -0.724177   -0.043494
     20          6           0        2.117312   -1.125509    0.010177
     21          6           0        3.144985   -0.172549   -0.071510
     22          6           0        4.570051   -0.617263   -0.054755
     23          6           0        5.326143   -0.524896    1.124976
     24          6           0        6.651259   -0.944769    1.154119
     25          6           0        7.215243   -1.452055   -0.016985
     26          7           0        8.605712   -1.893180    0.003137
     27          8           0        9.238512   -1.801503    1.060783
     28          8           0        9.097313   -2.341965   -1.038223
     29          6           0        6.493267   -1.552178   -1.206626
     30          6           0        5.167009   -1.135031   -1.215606
     31          6           0        2.843229    1.209124   -0.163197
     32          6           0        3.696534    2.343770   -0.359672
     33          6           0        5.187277    2.407274   -0.516465
     34          6           0        2.858395    3.450252   -0.404798
     35          6           0        1.521276    3.031001   -0.230704
     36          6           0        0.406505    3.946956   -0.205368
     37          6           0       -0.891731    3.715330    0.120432
     38          6           0       -1.982349    4.687025    0.104083
     39          6           0       -1.808361    6.068979   -0.122492
     40          6           0       -2.899821    6.932425   -0.128320
     41          6           0       -4.192992    6.443847    0.090896
     42          6           0       -4.383395    5.078491    0.317405
     43          6           0       -3.292797    4.211210    0.327033
     44          7           0        1.522043    1.660870   -0.096863
     45          5           0        0.296420    0.733598    0.015768
     46          9           0       -0.374684    0.943225    1.240184
     47          9           0       -0.601287    0.974816   -1.040638
     48          1           0        4.007841   -3.166623    1.081859
     49          1           0        2.969569   -4.492651    0.534541
     50          1           0        3.888810   -3.535567   -0.634579
     51          1           0        0.474721   -3.988199    0.341463
     52          1           0       -1.812938   -0.741551   -0.210720
     53          1           0       -1.881661   -3.721057    0.538622
     54          1           0       -3.715628   -4.898239    0.406801
     55          1           0       -6.111248   -5.238997    0.009915
     56          1           0       -6.654926   -0.975354   -0.249971
     57          1           0        4.870513   -0.126545    2.024950
     58          1           0        7.238088   -0.883272    2.061475
     59          1           0        6.961570   -1.947715   -2.098667
     60          1           0        4.589311   -1.206104   -2.130680
     61          1           0        5.714117    2.139719    0.405261
     62          1           0        5.551453    1.735307   -1.299278
     63          1           0        5.481129    3.426110   -0.783405
     64          1           0        3.165709    4.479013   -0.541821
     65          1           0        0.703865    4.956350   -0.482312
     66          1           0       -1.189999    2.724622    0.434320
     67          1           0       -0.813225    6.470488   -0.287422
     68          1           0       -2.743453    7.993269   -0.301795
     69          1           0       -5.041173    7.121821    0.085647
     70          1           0       -5.383013    4.688791    0.486625
     71          1           0       -3.449658    3.147324    0.492422
 ---------------------------------------------------------------------
 Rotational constants (GHZ):           0.0869055           0.0336779           0.0248278
 Leave Link  202 at Sat Oct 25 03:39:59 2025, MaxMem= 30870077440 cpu:               0.2 elap:               0.0
 (Enter /public/software/gauss/g16/l301.exe)
 Standard basis: def2TZVPP (5D, 7F)
 Ernie: Thresh=  0.10000D-02 Tol=  0.10000D-05 Strict=F.
 There are  2052 symmetry adapted cartesian basis functions of A   symmetry.
 There are  1793 symmetry adapted basis functions of A   symmetry.
  1793 basis functions,  2805 primitive gaussians,  2052 cartesian basis functions
   165 alpha electrons      164 beta electrons
       nuclear repulsion energy      5454.9158650303 Hartrees.
 IExCor= 4336 DFT=T Ex+Corr=M062X ExCW=0 ScaHFX=  0.540000
 ScaDFX=  1.000000  1.000000  1.000000  1.000000 ScalE2=  1.000000  1.000000
 IRadAn=      5 IRanWt=     -1 IRanGd=            0 ICorTp=0 IEmpDi=131
 NAtoms=   71 NActive=   71 NUniq=   71 SFac= 1.00D+00 NAtFMM=   60 NAOKFM=T Big=T
 Integral buffers will be    131072 words long.
 Raffenetti 2 integral format.
 Two-electron integral symmetry is turned on.
 R6Disp:  Grimme-D3 Dispersion energy=       -0.0065989989 Hartrees.
 Nuclear repulsion after empirical dispersion term =     5454.9092660314 Hartrees.
 ------------------------------------------------------------------------------
 Polarizable Continuum Model (PCM)
 =================================
 Model                : PCM.
 Atomic radii         : UFF (Universal Force Field).
 Polarization charges : Total charges.
 Charge compensation  : None.
 Solution method      : On-the-fly selection.
 Cavity type          : Scaled VdW (van der Waals Surface) (Alpha=1.100).
 Cavity algorithm     : GePol (No added spheres)
                        Default sphere list used, NSphG=   71.
                        Lebedev-Laikov grids with approx.  5.0 points / Ang**2.
                        Smoothing algorithm: York/Karplus (Gamma=1.0000).
                        Polarization charges: spherical gaussians, with
                                              point-specific exponents (IZeta= 3).
                        Self-potential: point-specific (ISelfS= 7).
                        Self-field    : sphere-specific E.n sum rule (ISelfD= 2).
 Solvent              : Water, Eps=  78.355300 Eps(inf)=   1.777849
 ------------------------------------------------------------------------------
 GePol: Number of generator spheres                  =      71
 GePol: Total number of spheres                      =      71
 GePol: Number of exposed spheres                    =      71 (100.00%)
 GePol: Number of points                             =    5316
 GePol: Average weight of points                     =       0.13
 GePol: Minimum weight of points                     =   0.25D-10
 GePol: Maximum weight of points                     =    0.20577
 GePol: Number of points with low weight             =     357
 GePol: Fraction of low-weight points (<1% of avg)   =       6.72%
 GePol: Cavity surface area                          =    666.431 Ang**2
 GePol: Cavity volume                                =    785.078 Ang**3
 Leave Link  301 at Sat Oct 25 03:39:59 2025, MaxMem= 30870077440 cpu:               3.5 elap:               0.1
 (Enter /public/software/gauss/g16/l302.exe)
 NPDir=0 NMtPBC=     1 NCelOv=     1 NCel=       1 NClECP=     1 NCelD=      1
         NCelK=      1 NCelE2=     1 NClLst=     1 CellRange=     0.0.
 One-electron integrals computed using PRISM.
 One-electron integral symmetry used in STVInt
   1 Symmetry operations used in ECPInt.
 ECPInt:  NShTT=  218791 NPrTT=  642384 LenC2=  141520 LenP2D=  276312.
 LDataN:  DoStor=T MaxTD1= 6 Len=  172
 NBasis=  1793 RedAO= T EigKep=  4.00D-06  NBF=  1793
 NBsUse=  1793 1.00D-06 EigRej= -1.00D+00 NBFU=  1793
 Precomputing XC quadrature grid using
 IXCGrd= 4 IRadAn=           5 IRanWt=          -1 IRanGd=           0 AccXCQ= 0.00D+00.
 Generated NRdTot=       0 NPtTot=           0 NUsed=           0 NTot=          32
 NSgBfM=  1810  1810  1810  1810  1810 MxSgAt=    71 MxSgA2=    71.
 Leave Link  302 at Sat Oct 25 03:40:08 2025, MaxMem= 30870077440 cpu:             569.3 elap:               9.0
 (Enter /public/software/gauss/g16/l303.exe)
 DipDrv:  MaxL=1.
 Leave Link  303 at Sat Oct 25 03:40:08 2025, MaxMem= 30870077440 cpu:              26.3 elap:               0.5
 (Enter /public/software/gauss/g16/l401.exe)
 ExpMin= 6.06D-02 ExpMax= 3.55D+04 ExpMxC= 1.21D+03 IAcc=3 IRadAn=         5 AccDes= 0.00D+00
 Harris functional with IExCor= 1009 and IRadAn=       5 diagonalized for initial guess.
 HarFok:  IExCor= 1009 AccDes= 0.00D+00 IRadAn=         5 IDoV= 1 UseB2=F ITyADJ=14
 ICtDFT=  3500011 ScaDFX=  1.000000  1.000000  1.000000  1.000000
 FoFCou: FMM=F IPFlag=           0 FMFlag=      100000 FMFlg1=        2001
         NFxFlg=           0 DoJE=T BraDBF=F KetDBF=T FulRan=T
         wScrn=  0.000000 ICntrl=       500 IOpCl=  0 I1Cent=   200000004 NGrid=           0
         NMat0=    1 NMatS0=      1 NMatT0=    0 NMatD0=    1 NMtDS0=    0 NMtDT0=    0
 Petite list used in FoFCou.
 Harris En= -2220.62825215805    
 JPrj=0 DoOrth=F DoCkMO=F.
 Initial guess <Sx>= 0.0000 <Sy>= 0.0000 <Sz>= 0.5000 <S**2>= 0.7500 S= 0.5000
 Leave Link  401 at Sat Oct 25 03:40:19 2025, MaxMem= 30870077440 cpu:             664.7 elap:              10.5
 (Enter /public/software/gauss/g16/l502.exe)
 Integral symmetry usage will be decided dynamically.
 UHF open shell SCF:
 Using DIIS extrapolation, IDIIS=  1040.
 NGot= 30870077440 LenX= 30861507565 LenY= 30857294809
 Requested convergence on RMS density matrix=1.00D-08 within 128 cycles.
 Requested convergence on MAX density matrix=1.00D-06.
 Requested convergence on             energy=1.00D-06.
 No special actions if energy rises.
 Fock matrices will be formed incrementally for  20 cycles.

 Cycle   1  Pass 1  IDiag  1:
 FoFJK:  IHMeth= 1 ICntrl=       0 DoSepK=F KAlg= 0 I1Cent=           0 FoldK=F
 IRaf= 610000000 NMat=       1 IRICut=       1 DoRegI=T DoRafI=F ISym2E= 0 IDoP0=0 IntGTp=1.
 FoFCou: FMM=T IPFlag=           0 FMFlag=      100000 FMFlg1=        2001
         NFxFlg=           0 DoJE=F BraDBF=F KetDBF=F FulRan=T
         wScrn=  0.000000 ICntrl=         0 IOpCl=  1 I1Cent=           0 NGrid=           0
         NMat0=    1 NMatS0=      1 NMatT0=    0 NMatD0=    1 NMtDS0=    0 NMtDT0=    0
 Symmetry not used in FoFCou.
 FMM levels:  10  Number of levels for PrismC:   9
 Inv3:  Mode=1 IEnd=    84779568.
 Iteration    1 A*A^-1 deviation from unit magnitude is 9.10D-15 for    667.
 Iteration    1 A*A^-1 deviation from orthogonality  is 3.27D-15 for   5315   5294.
 Iteration    1 A^-1*A deviation from unit magnitude is 7.77D-15 for    667.
 Iteration    1 A^-1*A deviation from orthogonality  is 2.61D-15 for   5299   1651.
 E= -2220.39603250418    
 DIIS: error= 2.24D-02 at cycle   1 NSaved=   1.
 NSaved= 1 IEnMin= 1 EnMin= -2220.39603250418     IErMin= 1 ErrMin= 2.24D-02
 ErrMax= 2.24D-02  0.00D+00 EMaxC= 1.00D-01 BMatC= 6.83D+00 BMatP= 6.83D+00
 IDIUse=3 WtCom= 7.76D-01 WtEn= 2.24D-01
 Coeff-Com:  0.100D+01
 Coeff-En:   0.100D+01
 Coeff:      0.100D+01
 Gap=     0.082 Goal=   None    Shift=    0.000
 Gap=     0.118 Goal=   None    Shift=    0.000
 GapD=    0.082 DampG=0.500 DampE=0.500 DampFc=0.2500 IDamp=-1.
 Damping current iteration by 2.50D-01
 RMSDP=1.90D-03 MaxDP=3.69D-01              OVMax= 5.42D-01

 Cycle   2  Pass 1  IDiag  1:
 RMSU=  4.74D-04    CP:  1.00D+00
 E= -2220.83157512554     Delta-E=       -0.435542621364 Rises=F Damp=T
 DIIS: error= 1.17D-02 at cycle   2 NSaved=   2.
 NSaved= 2 IEnMin= 2 EnMin= -2220.83157512554     IErMin= 2 ErrMin= 1.17D-02
 ErrMax= 1.17D-02  0.00D+00 EMaxC= 1.00D-01 BMatC= 2.15D+00 BMatP= 6.83D+00
 IDIUse=3 WtCom= 8.83D-01 WtEn= 1.17D-01
 Coeff-Com: -0.954D+00 0.195D+01
 Coeff-En:   0.000D+00 0.100D+01
 Coeff:     -0.843D+00 0.184D+01
 Gap=     0.089 Goal=   None    Shift=    0.000
 Gap=     0.171 Goal=   None    Shift=    0.000
 RMSDP=9.34D-04 MaxDP=1.65D-01 DE=-4.36D-01 OVMax= 4.02D-01

 Cycle   3  Pass 1  IDiag  1:
 RMSU=  7.22D-04    CP:  9.92D-01  2.25D+00
 E= -2221.60192738214     Delta-E=       -0.770352256602 Rises=F Damp=F
 DIIS: error= 5.04D-03 at cycle   3 NSaved=   3.
 NSaved= 3 IEnMin= 3 EnMin= -2221.60192738214     IErMin= 3 ErrMin= 5.04D-03
 ErrMax= 5.04D-03  0.00D+00 EMaxC= 1.00D-01 BMatC= 2.27D-01 BMatP= 2.15D+00
 IDIUse=3 WtCom= 9.50D-01 WtEn= 5.04D-02
 Coeff-Com: -0.402D+00 0.716D+00 0.687D+00
 Coeff-En:   0.000D+00 0.000D+00 0.100D+01
 Coeff:     -0.382D+00 0.680D+00 0.702D+00
 Gap=     0.087 Goal=   None    Shift=    0.000
 Gap=     0.122 Goal=   None    Shift=    0.000
 RMSDP=2.16D-04 MaxDP=3.05D-02 DE=-7.70D-01 OVMax= 5.54D-02

 Cycle   4  Pass 1  IDiag  1:
 RMSU=  2.10D-04    CP:  9.91D-01  2.18D+00  9.42D-01
 E= -2221.64111680592     Delta-E=       -0.039189423781 Rises=F Damp=F
 DIIS: error= 1.79D-03 at cycle   4 NSaved=   4.
 NSaved= 4 IEnMin= 4 EnMin= -2221.64111680592     IErMin= 4 ErrMin= 1.79D-03
 ErrMax= 1.79D-03  0.00D+00 EMaxC= 1.00D-01 BMatC= 3.39D-02 BMatP= 2.27D-01
 IDIUse=3 WtCom= 9.82D-01 WtEn= 1.79D-02
 Coeff-Com: -0.709D-01 0.113D+00 0.304D+00 0.654D+00
 Coeff-En:   0.000D+00 0.000D+00 0.475D-01 0.953D+00
 Coeff:     -0.697D-01 0.111D+00 0.299D+00 0.659D+00
 Gap=     0.093 Goal=   None    Shift=    0.000
 Gap=     0.125 Goal=   None    Shift=    0.000
 RMSDP=8.55D-05 MaxDP=2.95D-02 DE=-3.92D-02 OVMax= 2.71D-02

 Cycle   5  Pass 1  IDiag  1:
 RMSU=  7.83D-05    CP:  9.91D-01  2.18D+00  9.68D-01  8.64D-01
 E= -2221.64818145262     Delta-E=       -0.007064646700 Rises=F Damp=F
 DIIS: error= 5.79D-04 at cycle   5 NSaved=   5.
 NSaved= 5 IEnMin= 5 EnMin= -2221.64818145262     IErMin= 5 ErrMin= 5.79D-04
 ErrMax= 5.79D-04  0.00D+00 EMaxC= 1.00D-01 BMatC= 2.71D-03 BMatP= 3.39D-02
 IDIUse=3 WtCom= 9.94D-01 WtEn= 5.79D-03
 Coeff-Com: -0.152D-01 0.212D-01 0.108D+00 0.311D+00 0.574D+00
 Coeff-En:   0.000D+00 0.000D+00 0.000D+00 0.000D+00 0.100D+01
 Coeff:     -0.151D-01 0.211D-01 0.108D+00 0.310D+00 0.577D+00
 Gap=     0.096 Goal=   None    Shift=    0.000
 Gap=     0.127 Goal=   None    Shift=    0.000
 RMSDP=3.47D-05 MaxDP=5.99D-03 DE=-7.06D-03 OVMax= 1.87D-02

 Cycle   6  Pass 1  IDiag  1:
 RMSU=  3.17D-05    CP:  9.90D-01  2.18D+00  9.62D-01  9.27D-01  1.01D+00
 E= -2221.64900535849     Delta-E=       -0.000823905866 Rises=F Damp=F
 DIIS: error= 2.04D-04 at cycle   6 NSaved=   6.
 NSaved= 6 IEnMin= 6 EnMin= -2221.64900535849     IErMin= 6 ErrMin= 2.04D-04
 ErrMax= 2.04D-04  0.00D+00 EMaxC= 1.00D-01 BMatC= 3.84D-04 BMatP= 2.71D-03
 IDIUse=3 WtCom= 9.98D-01 WtEn= 2.04D-03
 Coeff-Com:  0.699D-04-0.131D-02 0.155D-01 0.637D-01 0.263D+00 0.659D+00
 Coeff-En:   0.000D+00 0.000D+00 0.000D+00 0.000D+00 0.000D+00 0.100D+01
 Coeff:      0.698D-04-0.131D-02 0.154D-01 0.636D-01 0.262D+00 0.660D+00
 Gap=     0.098 Goal=   None    Shift=    0.000
 Gap=     0.128 Goal=   None    Shift=    0.000
 RMSDP=2.59D-05 MaxDP=9.63D-03 DE=-8.24D-04 OVMax= 1.28D-02

 Cycle   7  Pass 1  IDiag  1:
 RMSU=  1.64D-05    CP:  9.91D-01  2.19D+00  9.70D-01  9.33D-01  1.24D+00
                    CP:  1.18D+00
 E= -2221.64928964857     Delta-E=       -0.000284290080 Rises=F Damp=F
 DIIS: error= 1.61D-04 at cycle   7 NSaved=   7.
 NSaved= 7 IEnMin= 7 EnMin= -2221.64928964857     IErMin= 7 ErrMin= 1.61D-04
 ErrMax= 1.61D-04  0.00D+00 EMaxC= 1.00D-01 BMatC= 1.11D-04 BMatP= 3.84D-04
 IDIUse=3 WtCom= 9.98D-01 WtEn= 1.61D-03
 Coeff-Com:  0.501D-02-0.754D-02-0.278D-01-0.725D-01-0.692D-01 0.274D+00
 Coeff-Com:  0.898D+00
 Coeff-En:   0.000D+00 0.000D+00 0.000D+00 0.000D+00 0.000D+00 0.000D+00
 Coeff-En:   0.100D+01
 Coeff:      0.500D-02-0.753D-02-0.278D-01-0.723D-01-0.691D-01 0.273D+00
 Coeff:      0.899D+00
 Gap=     0.100 Goal=   None    Shift=    0.000
 Gap=     0.130 Goal=   None    Shift=    0.000
 RMSDP=2.46D-05 MaxDP=5.02D-03 DE=-2.84D-04 OVMax= 1.67D-02

 Cycle   8  Pass 1  IDiag  1:
 RMSU=  8.48D-06    CP:  9.91D-01  2.19D+00  9.73D-01  9.64D-01  1.41D+00
                    CP:  1.61D+00  1.64D+00
 E= -2221.64949069111     Delta-E=       -0.000201042540 Rises=F Damp=F
 DIIS: error= 9.71D-05 at cycle   8 NSaved=   8.
 NSaved= 8 IEnMin= 8 EnMin= -2221.64949069111     IErMin= 8 ErrMin= 9.71D-05
 ErrMax= 9.71D-05  0.00D+00 EMaxC= 1.00D-01 BMatC= 4.45D-05 BMatP= 1.11D-04
 IDIUse=1 WtCom= 1.00D+00 WtEn= 0.00D+00
 Coeff-Com:  0.137D-02-0.159D-02-0.125D-01-0.433D-01-0.110D+00-0.132D+00
 Coeff-Com:  0.399D+00 0.898D+00
 Coeff:      0.137D-02-0.159D-02-0.125D-01-0.433D-01-0.110D+00-0.132D+00
 Coeff:      0.399D+00 0.898D+00
 Gap=     0.102 Goal=   None    Shift=    0.000
 Gap=     0.131 Goal=   None    Shift=    0.000
 RMSDP=1.82D-05 MaxDP=3.53D-03 DE=-2.01D-04 OVMax= 1.35D-02

 Cycle   9  Pass 1  IDiag  1:
 RMSU=  4.84D-06    CP:  9.91D-01  2.19D+00  9.75D-01  9.77D-01  1.53D+00
                    CP:  1.88D+00  2.28D+00  1.56D+00
 E= -2221.64958419277     Delta-E=       -0.000093501664 Rises=F Damp=F
 DIIS: error= 6.76D-05 at cycle   9 NSaved=   9.
 NSaved= 9 IEnMin= 9 EnMin= -2221.64958419277     IErMin= 9 ErrMin= 6.76D-05
 ErrMax= 6.76D-05  0.00D+00 EMaxC= 1.00D-01 BMatC= 1.74D-05 BMatP= 4.45D-05
 IDIUse=1 WtCom= 1.00D+00 WtEn= 0.00D+00
 Coeff-Com: -0.104D-02 0.185D-02 0.493D-02 0.646D-02-0.253D-01-0.162D+00
 Coeff-Com: -0.101D+00 0.401D+00 0.875D+00
 Coeff:     -0.104D-02 0.185D-02 0.493D-02 0.646D-02-0.253D-01-0.162D+00
 Coeff:     -0.101D+00 0.401D+00 0.875D+00
 Gap=     0.102 Goal=   None    Shift=    0.000
 Gap=     0.132 Goal=   None    Shift=    0.000
 RMSDP=1.21D-05 MaxDP=2.12D-03 DE=-9.35D-05 OVMax= 9.71D-03

 Cycle  10  Pass 1  IDiag  1:
 RMSU=  3.34D-06    CP:  9.91D-01  2.20D+00  9.75D-01  9.79D-01  1.59D+00
                    CP:  2.04D+00  2.71D+00  2.13D+00  1.68D+00
 E= -2221.64962431598     Delta-E=       -0.000040123208 Rises=F Damp=F
 DIIS: error= 4.37D-05 at cycle  10 NSaved=  10.
 NSaved=10 IEnMin=10 EnMin= -2221.64962431598     IErMin=10 ErrMin= 4.37D-05
 ErrMax= 4.37D-05  0.00D+00 EMaxC= 1.00D-01 BMatC= 7.85D-06 BMatP= 1.74D-05
 IDIUse=1 WtCom= 1.00D+00 WtEn= 0.00D+00
 Coeff-Com: -0.989D-03 0.150D-02 0.798D-02 0.211D-01 0.275D-01-0.464D-01
 Coeff-Com: -0.187D+00-0.126D+00 0.454D+00 0.848D+00
 Coeff:     -0.989D-03 0.150D-02 0.798D-02 0.211D-01 0.275D-01-0.464D-01
 Coeff:     -0.187D+00-0.126D+00 0.454D+00 0.848D+00
 Gap=     0.103 Goal=   None    Shift=    0.000
 Gap=     0.132 Goal=   None    Shift=    0.000
 RMSDP=7.92D-06 MaxDP=1.07D-03 DE=-4.01D-05 OVMax= 8.14D-03

 Cycle  11  Pass 1  IDiag  1:
 RMSU=  2.08D-06    CP:  9.92D-01  2.20D+00  9.75D-01  9.80D-01  1.61D+00
                    CP:  2.13D+00  2.94D+00  2.54D+00  2.51D+00  1.56D+00
 E= -2221.64964433139     Delta-E=       -0.000020015412 Rises=F Damp=F
 DIIS: error= 3.05D-05 at cycle  11 NSaved=  11.
 NSaved=11 IEnMin=11 EnMin= -2221.64964433139     IErMin=11 ErrMin= 3.05D-05
 ErrMax= 3.05D-05  0.00D+00 EMaxC= 1.00D-01 BMatC= 3.78D-06 BMatP= 7.85D-06
 IDIUse=1 WtCom= 1.00D+00 WtEn= 0.00D+00
 Coeff-Com:  0.728D-04-0.173D-03 0.157D-02 0.624D-02 0.185D-01 0.373D-01
 Coeff-Com: -0.817D-02-0.200D+00-0.218D+00 0.379D+00 0.984D+00
 Coeff:      0.728D-04-0.173D-03 0.157D-02 0.624D-02 0.185D-01 0.373D-01
 Coeff:     -0.817D-02-0.200D+00-0.218D+00 0.379D+00 0.984D+00
 Gap=     0.103 Goal=   None    Shift=    0.000
 Gap=     0.133 Goal=   None    Shift=    0.000
 RMSDP=6.40D-06 MaxDP=1.07D-03 DE=-2.00D-05 OVMax= 6.99D-03

 Cycle  12  Pass 1  IDiag  1:
 RMSU=  2.48D-06    CP:  9.92D-01  2.20D+00  9.74D-01  9.79D-01  1.61D+00
                    CP:  2.17D+00  3.00D+00  2.84D+00  3.00D+00  2.45D+00
                    CP:  1.65D+00
 E= -2221.64965601278     Delta-E=       -0.000011681387 Rises=F Damp=F
 DIIS: error= 2.37D-05 at cycle  12 NSaved=  12.
 NSaved=12 IEnMin=12 EnMin= -2221.64965601278     IErMin=12 ErrMin= 2.37D-05
 ErrMax= 2.37D-05  0.00D+00 EMaxC= 1.00D-01 BMatC= 1.78D-06 BMatP= 3.78D-06
 IDIUse=1 WtCom= 1.00D+00 WtEn= 0.00D+00
 Coeff-Com:  0.714D-03-0.107D-02-0.376D-02-0.983D-02-0.106D-01 0.355D-01
 Coeff-Com:  0.129D+00 0.730D-03-0.415D+00-0.333D+00 0.430D+00 0.118D+01
 Coeff:      0.714D-03-0.107D-02-0.376D-02-0.983D-02-0.106D-01 0.355D-01
 Coeff:      0.129D+00 0.730D-03-0.415D+00-0.333D+00 0.430D+00 0.118D+01
 Gap=     0.103 Goal=   None    Shift=    0.000
 Gap=     0.133 Goal=   None    Shift=    0.000
 RMSDP=6.86D-06 MaxDP=1.23D-03 DE=-1.17D-05 OVMax= 7.70D-03

 Cycle  13  Pass 1  IDiag  1:
 RMSU=  3.10D-06    CP:  9.92D-01  2.20D+00  9.73D-01  9.77D-01  1.61D+00
                    CP:  2.20D+00  3.00D+00  3.00D+00  3.00D+00  3.00D+00
                    CP:  2.70D+00  2.63D+00
 E= -2221.64966399767     Delta-E=       -0.000007984891 Rises=F Damp=F
 DIIS: error= 1.49D-05 at cycle  13 NSaved=  13.
 NSaved=13 IEnMin=13 EnMin= -2221.64966399767     IErMin=13 ErrMin= 1.49D-05
 ErrMax= 1.49D-05  0.00D+00 EMaxC= 1.00D-01 BMatC= 7.10D-07 BMatP= 1.78D-06
 IDIUse=1 WtCom= 1.00D+00 WtEn= 0.00D+00
 Coeff-Com:  0.339D-03-0.466D-03-0.215D-02-0.711D-02-0.133D-01-0.111D-02
 Coeff-Com:  0.726D-01 0.835D-01-0.129D+00-0.299D+00-0.209D+00 0.533D+00
 Coeff-Com:  0.972D+00
 Coeff:      0.339D-03-0.466D-03-0.215D-02-0.711D-02-0.133D-01-0.111D-02
 Coeff:      0.726D-01 0.835D-01-0.129D+00-0.299D+00-0.209D+00 0.533D+00
 Coeff:      0.972D+00
 Gap=     0.103 Goal=   None    Shift=    0.000
 Gap=     0.133 Goal=   None    Shift=    0.000
 RMSDP=4.54D-06 MaxDP=1.07D-03 DE=-7.98D-06 OVMax= 5.07D-03

 Cycle  14  Pass 1  IDiag  1:
 RMSU=  2.58D-06    CP:  9.92D-01  2.20D+00  9.73D-01  9.75D-01  1.62D+00
                    CP:  2.22D+00  3.00D+00  3.00D+00  3.00D+00  3.00D+00
                    CP:  3.00D+00  3.00D+00  1.85D+00
 E= -2221.64966675227     Delta-E=       -0.000002754597 Rises=F Damp=F
 DIIS: error= 1.32D-05 at cycle  14 NSaved=  14.
 NSaved=14 IEnMin=14 EnMin= -2221.64966675227     IErMin=14 ErrMin= 1.32D-05
 ErrMax= 1.32D-05  0.00D+00 EMaxC= 1.00D-01 BMatC= 2.59D-07 BMatP= 7.10D-07
 IDIUse=1 WtCom= 1.00D+00 WtEn= 0.00D+00
 Coeff-Com: -0.734D-04 0.135D-03 0.532D-03 0.534D-03-0.192D-02-0.148D-01
 Coeff-Com: -0.972D-02 0.358D-01 0.832D-01 0.621D-02-0.256D+00-0.205D+00
 Coeff-Com:  0.438D+00 0.923D+00
 Coeff:     -0.734D-04 0.135D-03 0.532D-03 0.534D-03-0.192D-02-0.148D-01
 Coeff:     -0.972D-02 0.358D-01 0.832D-01 0.621D-02-0.256D+00-0.205D+00
 Coeff:      0.438D+00 0.923D+00
 Gap=     0.103 Goal=   None    Shift=    0.000
 Gap=     0.133 Goal=   None    Shift=    0.000
 RMSDP=2.48D-06 MaxDP=7.84D-04 DE=-2.75D-06 OVMax= 2.71D-03

 Cycle  15  Pass 1  IDiag  1:
 RMSU=  7.11D-07    CP:  9.92D-01  2.21D+00  9.73D-01  9.74D-01  1.62D+00
                    CP:  2.23D+00  3.00D+00  3.00D+00  3.00D+00  3.00D+00
                    CP:  3.00D+00  3.00D+00  2.28D+00  1.73D+00
 E= -2221.64966754709     Delta-E=       -0.000000794827 Rises=F Damp=F
 DIIS: error= 8.69D-06 at cycle  15 NSaved=  15.
 NSaved=15 IEnMin=15 EnMin= -2221.64966754709     IErMin=15 ErrMin= 8.69D-06
 ErrMax= 8.69D-06  0.00D+00 EMaxC= 1.00D-01 BMatC= 1.05D-07 BMatP= 2.59D-07
 IDIUse=1 WtCom= 1.00D+00 WtEn= 0.00D+00
 Coeff-Com: -0.134D-03 0.202D-03 0.974D-03 0.254D-02 0.338D-02-0.798D-02
 Coeff-Com: -0.257D-01-0.893D-02 0.772D-01 0.109D+00-0.625D-01-0.275D+00
 Coeff-Com: -0.109D+00 0.468D+00 0.828D+00
 Coeff:     -0.134D-03 0.202D-03 0.974D-03 0.254D-02 0.338D-02-0.798D-02
 Coeff:     -0.257D-01-0.893D-02 0.772D-01 0.109D+00-0.625D-01-0.275D+00
 Coeff:     -0.109D+00 0.468D+00 0.828D+00
 Gap=     0.103 Goal=   None    Shift=    0.000
 Gap=     0.133 Goal=   None    Shift=    0.000
 RMSDP=1.30D-06 MaxDP=5.01D-04 DE=-7.95D-07 OVMax= 1.32D-03

 Cycle  16  Pass 1  IDiag  1:
 RMSU=  3.47D-07    CP:  9.92D-01  2.21D+00  9.73D-01  9.74D-01  1.62D+00
                    CP:  2.23D+00  3.00D+00  3.00D+00  3.00D+00  3.00D+00
                    CP:  3.00D+00  3.00D+00  2.47D+00  2.11D+00  1.65D+00
 E= -2221.64966780098     Delta-E=       -0.000000253885 Rises=F Damp=F
 DIIS: error= 5.78D-06 at cycle  16 NSaved=  16.
 NSaved=16 IEnMin=16 EnMin= -2221.64966780098     IErMin=16 ErrMin= 5.78D-06
 ErrMax= 5.78D-06  0.00D+00 EMaxC= 1.00D-01 BMatC= 4.17D-08 BMatP= 1.05D-07
 IDIUse=1 WtCom= 1.00D+00 WtEn= 0.00D+00
 Coeff-Com: -0.402D-04 0.536D-04 0.247D-03 0.951D-03 0.243D-02 0.156D-02
 Coeff-Com: -0.640D-02-0.179D-01-0.129D-02 0.528D-01 0.662D-01-0.497D-01
 Coeff-Com: -0.234D+00-0.145D+00 0.415D+00 0.914D+00
 Coeff:     -0.402D-04 0.536D-04 0.247D-03 0.951D-03 0.243D-02 0.156D-02
 Coeff:     -0.640D-02-0.179D-01-0.129D-02 0.528D-01 0.662D-01-0.497D-01
 Coeff:     -0.234D+00-0.145D+00 0.415D+00 0.914D+00
 Gap=     0.103 Goal=   None    Shift=    0.000
 Gap=     0.133 Goal=   None    Shift=    0.000
 RMSDP=1.01D-06 MaxDP=4.08D-04 DE=-2.54D-07 OVMax= 9.66D-04

 Cycle  17  Pass 1  IDiag  1:
 RMSU=  1.79D-07    CP:  9.92D-01  2.21D+00  9.72D-01  9.73D-01  1.62D+00
                    CP:  2.23D+00  3.00D+00  3.00D+00  3.00D+00  3.00D+00
                    CP:  3.00D+00  3.00D+00  2.61D+00  2.38D+00  2.25D+00
                    CP:  1.79D+00
 E= -2221.64966792281     Delta-E=       -0.000000121833 Rises=F Damp=F
 DIIS: error= 3.45D-06 at cycle  17 NSaved=  17.
 NSaved=17 IEnMin=17 EnMin= -2221.64966792281     IErMin=17 ErrMin= 3.45D-06
 ErrMax= 3.45D-06  0.00D+00 EMaxC= 1.00D-01 BMatC= 1.54D-08 BMatP= 4.17D-08
 IDIUse=1 WtCom= 1.00D+00 WtEn= 0.00D+00
 Coeff-Com:  0.293D-04-0.468D-04-0.232D-03-0.484D-03-0.441D-04 0.331D-02
 Coeff-Com:  0.732D-02-0.407D-02-0.301D-01-0.158D-01 0.443D-01 0.819D-01
 Coeff-Com: -0.472D-01-0.230D+00-0.137D+00 0.368D+00 0.960D+00
 Coeff:      0.293D-04-0.468D-04-0.232D-03-0.484D-03-0.441D-04 0.331D-02
 Coeff:      0.732D-02-0.407D-02-0.301D-01-0.158D-01 0.443D-01 0.819D-01
 Coeff:     -0.472D-01-0.230D+00-0.137D+00 0.368D+00 0.960D+00
 Gap=     0.103 Goal=   None    Shift=    0.000
 Gap=     0.133 Goal=   None    Shift=    0.000
 RMSDP=5.78D-07 MaxDP=2.34D-04 DE=-1.22D-07 OVMax= 5.17D-04

 Cycle  18  Pass 1  IDiag  1:
 RMSU=  7.95D-08    CP:  9.92D-01  2.21D+00  9.72D-01  9.73D-01  1.62D+00
                    CP:  2.23D+00  3.00D+00  3.00D+00  3.00D+00  3.00D+00
                    CP:  3.00D+00  3.00D+00  2.67D+00  2.52D+00  2.61D+00
                    CP:  2.54D+00  1.67D+00
 E= -2221.64966797135     Delta-E=       -0.000000048542 Rises=F Damp=F
 DIIS: error= 1.89D-06 at cycle  18 NSaved=  18.
 NSaved=18 IEnMin=18 EnMin= -2221.64966797135     IErMin=18 ErrMin= 1.89D-06
 ErrMax= 1.89D-06  0.00D+00 EMaxC= 1.00D-01 BMatC= 7.37D-09 BMatP= 1.54D-08
 IDIUse=1 WtCom= 1.00D+00 WtEn= 0.00D+00
 Coeff-Com:  0.371D-04-0.540D-04-0.232D-03-0.716D-03-0.114D-02 0.804D-03
 Coeff-Com:  0.732D-02 0.676D-02-0.158D-01-0.327D-01-0.131D-01 0.710D-01
 Coeff-Com:  0.100D+00-0.571D-01-0.290D+00-0.254D+00 0.520D+00 0.959D+00
 Coeff:      0.371D-04-0.540D-04-0.232D-03-0.716D-03-0.114D-02 0.804D-03
 Coeff:      0.732D-02 0.676D-02-0.158D-01-0.327D-01-0.131D-01 0.710D-01
 Coeff:      0.100D+00-0.571D-01-0.290D+00-0.254D+00 0.520D+00 0.959D+00
 Gap=     0.103 Goal=   None    Shift=    0.000
 Gap=     0.133 Goal=   None    Shift=    0.000
 RMSDP=4.00D-07 MaxDP=1.59D-04 DE=-4.85D-08 OVMax= 3.23D-04

 Cycle  19  Pass 1  IDiag  1:
 RMSU=  6.51D-08    CP:  9.92D-01  2.21D+00  9.72D-01  9.73D-01  1.62D+00
                    CP:  2.23D+00  3.00D+00  3.00D+00  3.00D+00  3.00D+00
                    CP:  3.00D+00  3.00D+00  2.70D+00  2.60D+00  2.89D+00
                    CP:  3.00D+00  2.37D+00  1.90D+00
 E= -2221.64966799389     Delta-E=       -0.000000022535 Rises=F Damp=F
 DIIS: error= 8.53D-07 at cycle  19 NSaved=  19.
 NSaved=19 IEnMin=19 EnMin= -2221.64966799389     IErMin=19 ErrMin= 8.53D-07
 ErrMax= 8.53D-07  0.00D+00 EMaxC= 1.00D-01 BMatC= 2.17D-09 BMatP= 7.37D-09
 IDIUse=1 WtCom= 1.00D+00 WtEn= 0.00D+00
 Coeff-Com: -0.234D-05 0.566D-05 0.478D-04 0.194D-05-0.286D-03-0.137D-02
 Coeff-Com: -0.850D-03 0.405D-02 0.838D-02-0.838D-03-0.282D-01-0.178D-01
 Coeff-Com:  0.548D-01 0.822D-01-0.184D-01-0.213D+00-0.282D+00 0.263D+00
 Coeff-Com:  0.115D+01
 Coeff:     -0.234D-05 0.566D-05 0.478D-04 0.194D-05-0.286D-03-0.137D-02
 Coeff:     -0.850D-03 0.405D-02 0.838D-02-0.838D-03-0.282D-01-0.178D-01
 Coeff:      0.548D-01 0.822D-01-0.184D-01-0.213D+00-0.282D+00 0.263D+00
 Coeff:      0.115D+01
 Gap=     0.103 Goal=   None    Shift=    0.000
 Gap=     0.133 Goal=   None    Shift=    0.000
 RMSDP=2.49D-07 MaxDP=8.74D-05 DE=-2.25D-08 OVMax= 2.11D-04

 Cycle  20  Pass 1  IDiag  1:
 RMSU=  8.02D-08    CP:  9.92D-01  2.21D+00  9.72D-01  9.73D-01  1.62D+00
                    CP:  2.23D+00  3.00D+00  3.00D+00  3.00D+00  3.00D+00
                    CP:  3.00D+00  3.00D+00  2.73D+00  2.65D+00  3.00D+00
                    CP:  3.00D+00  2.79D+00  2.82D+00  2.52D+00
 E= -2221.64966800100     Delta-E=       -0.000000007110 Rises=F Damp=F
 DIIS: error= 4.05D-07 at cycle  20 NSaved=  20.
 NSaved=20 IEnMin=20 EnMin= -2221.64966800100     IErMin=20 ErrMin= 4.05D-07
 ErrMax= 4.05D-07  0.00D+00 EMaxC= 1.00D-01 BMatC= 7.56D-10 BMatP= 2.17D-09
 IDIUse=1 WtCom= 1.00D+00 WtEn= 0.00D+00
 Coeff-Com: -0.934D-05 0.147D-04 0.877D-04 0.199D-03 0.194D-03-0.827D-03
 Coeff-Com: -0.237D-02-0.228D-03 0.791D-02 0.969D-02-0.943D-02-0.286D-01
 Coeff-Com: -0.286D-02 0.507D-01 0.733D-01-0.194D-01-0.282D+00-0.156D+00
 Coeff-Com:  0.522D+00 0.838D+00
 Coeff:     -0.934D-05 0.147D-04 0.877D-04 0.199D-03 0.194D-03-0.827D-03
 Coeff:     -0.237D-02-0.228D-03 0.791D-02 0.969D-02-0.943D-02-0.286D-01
 Coeff:     -0.286D-02 0.507D-01 0.733D-01-0.194D-01-0.282D+00-0.156D+00
 Coeff:      0.522D+00 0.838D+00
 Gap=     0.103 Goal=   None    Shift=    0.000
 Gap=     0.133 Goal=   None    Shift=    0.000
 RMSDP=1.03D-07 MaxDP=3.55D-05 DE=-7.11D-09 OVMax= 9.01D-05

 Cycle  21  Pass 1  IDiag  1:
 Restarting incremental Fock formation.
 E= -2221.64966800246     Delta-E=       -0.000000001458 Rises=F Damp=F
 DIIS: error= 2.73D-07 at cycle  21 NSaved=  20.
 NSaved=20 IEnMin=20 EnMin= -2221.64966800246     IErMin=20 ErrMin= 2.73D-07
 ErrMax= 2.73D-07  0.00D+00 EMaxC= 1.00D-01 BMatC= 2.07D-10 BMatP= 7.56D-10
 IDIUse=1 WtCom= 1.00D+00 WtEn= 0.00D+00
 Coeff-Com: -0.287D-06 0.950D-05 0.539D-04 0.137D-03 0.196D-03-0.390D-03
 Coeff-Com: -0.137D-02-0.398D-03 0.360D-02 0.561D-02-0.317D-02-0.169D-01
 Coeff-Com: -0.103D-01 0.286D-01 0.634D-01-0.596D-02-0.131D+00-0.189D+00
 Coeff-Com:  0.252D+00 0.100D+01
 Coeff:     -0.287D-06 0.950D-05 0.539D-04 0.137D-03 0.196D-03-0.390D-03
 Coeff:     -0.137D-02-0.398D-03 0.360D-02 0.561D-02-0.317D-02-0.169D-01
 Coeff:     -0.103D-01 0.286D-01 0.634D-01-0.596D-02-0.131D+00-0.189D+00
 Coeff:      0.252D+00 0.100D+01
 Gap=     0.103 Goal=   None    Shift=    0.000
 Gap=     0.133 Goal=   None    Shift=    0.000
 RMSDP=3.81D-08 MaxDP=6.50D-06 DE=-1.46D-09 OVMax= 2.68D-05

 Cycle  22  Pass 1  IDiag  1:
 RMSU=  3.81D-08    CP:  1.00D+00
 E= -2221.64966800306     Delta-E=       -0.000000000601 Rises=F Damp=F
 DIIS: error= 1.48D-07 at cycle  22 NSaved=  20.
 NSaved=20 IEnMin=20 EnMin= -2221.64966800306     IErMin=20 ErrMin= 1.48D-07
 ErrMax= 1.48D-07  0.00D+00 EMaxC= 1.00D-01 BMatC= 8.63D-11 BMatP= 2.07D-10
 IDIUse=1 WtCom= 1.00D+00 WtEn= 0.00D+00
 Coeff-Com: -0.115D-04-0.119D-04 0.266D-04 0.298D-03 0.312D-03-0.604D-03
 Coeff-Com: -0.206D-02-0.779D-03 0.463D-02 0.590D-02-0.688D-02-0.185D-01
 Coeff-Com: -0.797D-02 0.340D-01 0.796D-01-0.819D-02-0.239D+00-0.167D+00
 Coeff-Com:  0.433D+00 0.894D+00
 Coeff:     -0.115D-04-0.119D-04 0.266D-04 0.298D-03 0.312D-03-0.604D-03
 Coeff:     -0.206D-02-0.779D-03 0.463D-02 0.590D-02-0.688D-02-0.185D-01
 Coeff:     -0.797D-02 0.340D-01 0.796D-01-0.819D-02-0.239D+00-0.167D+00
 Coeff:      0.433D+00 0.894D+00
 Gap=     0.103 Goal=   None    Shift=    0.000
 Gap=     0.133 Goal=   None    Shift=    0.000
 RMSDP=2.19D-08 MaxDP=3.91D-06 DE=-6.01D-10 OVMax= 1.78D-05

 Cycle  23  Pass 1  IDiag  1:
 RMSU=  1.02D-08    CP:  1.00D+00  1.51D+00
 E= -2221.64966800320     Delta-E=       -0.000000000146 Rises=F Damp=F
 DIIS: error= 7.39D-08 at cycle  23 NSaved=  20.
 NSaved=20 IEnMin=20 EnMin= -2221.64966800320     IErMin=20 ErrMin= 7.39D-08
 ErrMax= 7.39D-08  0.00D+00 EMaxC= 1.00D-01 BMatC= 3.37D-11 BMatP= 8.63D-11
 IDIUse=1 WtCom= 1.00D+00 WtEn= 0.00D+00
 Coeff-Com:  0.664D-06-0.646D-05 0.340D-06-0.291D-04 0.179D-03 0.770D-04
 Coeff-Com: -0.732D-03-0.944D-03 0.148D-02 0.311D-02 0.307D-03-0.916D-02
 Coeff-Com: -0.118D-01 0.163D-01 0.368D-01 0.161D-02-0.126D+00-0.184D+00
 Coeff-Com:  0.305D+00 0.968D+00
 Coeff:      0.664D-06-0.646D-05 0.340D-06-0.291D-04 0.179D-03 0.770D-04
 Coeff:     -0.732D-03-0.944D-03 0.148D-02 0.311D-02 0.307D-03-0.916D-02
 Coeff:     -0.118D-01 0.163D-01 0.368D-01 0.161D-02-0.126D+00-0.184D+00
 Coeff:      0.305D+00 0.968D+00
 Gap=     0.103 Goal=   None    Shift=    0.000
 Gap=     0.133 Goal=   None    Shift=    0.000
 RMSDP=9.85D-09 MaxDP=1.33D-06 DE=-1.46D-10 OVMax= 7.02D-06

 Cycle  24  Pass 1  IDiag  1:
 RMSU=  6.80D-09    CP:  1.00D+00  1.67D+00  1.33D+00
 E= -2221.64966800354     Delta-E=       -0.000000000335 Rises=F Damp=F
 DIIS: error= 5.71D-08 at cycle  24 NSaved=  20.
 NSaved=20 IEnMin=20 EnMin= -2221.64966800354     IErMin=20 ErrMin= 5.71D-08
 ErrMax= 5.71D-08  0.00D+00 EMaxC= 1.00D-01 BMatC= 1.80D-11 BMatP= 3.37D-11
 IDIUse=1 WtCom= 1.00D+00 WtEn= 0.00D+00
 Coeff-Com: -0.388D-05-0.136D-04-0.538D-04 0.145D-03 0.238D-03-0.232D-03
 Coeff-Com: -0.867D-03 0.136D-03 0.172D-02 0.243D-02-0.251D-02-0.101D-01
 Coeff-Com: -0.760D-02 0.186D-01 0.567D-01-0.189D-01-0.236D+00-0.159D+00
 Coeff-Com:  0.481D+00 0.874D+00
 Coeff:     -0.388D-05-0.136D-04-0.538D-04 0.145D-03 0.238D-03-0.232D-03
 Coeff:     -0.867D-03 0.136D-03 0.172D-02 0.243D-02-0.251D-02-0.101D-01
 Coeff:     -0.760D-02 0.186D-01 0.567D-01-0.189D-01-0.236D+00-0.159D+00
 Coeff:      0.481D+00 0.874D+00
 Gap=     0.103 Goal=   None    Shift=    0.000
 Gap=     0.133 Goal=   None    Shift=    0.000
 RMSDP=8.08D-09 MaxDP=1.09D-06 DE=-3.35D-10 OVMax= 5.84D-06

 Cycle  25  Pass 1  IDiag  1:
 RMSU=  2.90D-09    CP:  1.00D+00  1.75D+00  1.58D+00  1.95D+00
 E= -2221.64966800356     Delta-E=       -0.000000000023 Rises=F Damp=F
 DIIS: error= 4.15D-08 at cycle  25 NSaved=  20.
 NSaved=20 IEnMin=20 EnMin= -2221.64966800356     IErMin=20 ErrMin= 4.15D-08
 ErrMax= 4.15D-08  0.00D+00 EMaxC= 1.00D-01 BMatC= 8.42D-12 BMatP= 1.80D-11
 IDIUse=1 WtCom= 1.00D+00 WtEn= 0.00D+00
 Coeff-Com: -0.295D-04-0.681D-04 0.731D-04 0.324D-03 0.309D-03-0.579D-03
 Coeff-Com: -0.133D-02 0.303D-03 0.388D-02 0.410D-02-0.334D-02-0.207D-01
 Coeff-Com: -0.980D-02 0.452D-01 0.785D-01-0.226D-01-0.239D+00-0.300D+00
 Coeff-Com:  0.208D+00 0.126D+01
 Coeff:     -0.295D-04-0.681D-04 0.731D-04 0.324D-03 0.309D-03-0.579D-03
 Coeff:     -0.133D-02 0.303D-03 0.388D-02 0.410D-02-0.334D-02-0.207D-01
 Coeff:     -0.980D-02 0.452D-01 0.785D-01-0.226D-01-0.239D+00-0.300D+00
 Coeff:      0.208D+00 0.126D+01
 Gap=     0.103 Goal=   None    Shift=    0.000
 Gap=     0.133 Goal=   None    Shift=    0.000
 RMSDP=1.02D-08 MaxDP=2.26D-06 DE=-2.27D-11 OVMax= 7.23D-06

 Cycle  26  Pass 1  IDiag  1:
 RMSU=  3.11D-09    CP:  1.00D+00  1.71D+00  1.63D+00  3.00D+00  2.29D+00
 E= -2221.64966800357     Delta-E=       -0.000000000011 Rises=F Damp=F
 DIIS: error= 3.01D-08 at cycle  26 NSaved=  20.
 NSaved=20 IEnMin=20 EnMin= -2221.64966800357     IErMin=20 ErrMin= 3.01D-08
 ErrMax= 3.01D-08  0.00D+00 EMaxC= 1.00D-01 BMatC= 3.95D-12 BMatP= 8.42D-12
 IDIUse=1 WtCom= 1.00D+00 WtEn= 0.00D+00
 Coeff-Com: -0.615D-05-0.446D-04-0.964D-04 0.191D-03 0.570D-03-0.277D-03
 Coeff-Com: -0.142D-02-0.997D-03 0.228D-02 0.640D-02 0.539D-03-0.148D-01
 Coeff-Com: -0.250D-01 0.379D-01 0.122D+00 0.154D-01-0.386D+00-0.389D+00
 Coeff-Com:  0.547D+00 0.109D+01
 Coeff:     -0.615D-05-0.446D-04-0.964D-04 0.191D-03 0.570D-03-0.277D-03
 Coeff:     -0.142D-02-0.997D-03 0.228D-02 0.640D-02 0.539D-03-0.148D-01
 Coeff:     -0.250D-01 0.379D-01 0.122D+00 0.154D-01-0.386D+00-0.389D+00
 Coeff:      0.547D+00 0.109D+01
 Gap=     0.103 Goal=   None    Shift=    0.000
 Gap=     0.133 Goal=   None    Shift=    0.000
 RMSDP=6.87D-09 MaxDP=9.37D-07 DE=-1.09D-11 OVMax= 4.50D-06

 Error on total polarization charges =  0.02341
 SCF Done:  E(UM062X) =  -2221.64966800     A.U. after   26 cycles
            NFock= 26  Conv=0.69D-08     -V/T= 2.0052
 <Sx>= 0.0000 <Sy>= 0.0000 <Sz>= 0.5000 <S**2>= 0.8364 S= 0.5423
 <L.S>= 0.000000000000E+00
 KE= 2.210065136870D+03 PE=-1.612821979404D+04 EE= 6.241595723131D+03
 Annihilation of the first spin contaminant:
 S**2 before annihilation     0.8364,   after     0.7536
 Leave Link  502 at Sat Oct 25 04:20:59 2025, MaxMem= 30870077440 cpu:          154505.4 elap:            2440.0
 (Enter /public/software/gauss/g16/l601.exe)
 Copying SCF densities to generalized density rwf, IOpCl= 1 IROHF=0.

 **********************************************************************

            Population analysis using the SCF density.

 **********************************************************************

 Orbital symmetries:
 Alpha Orbitals:
       Occupied  (A) (A) (A) (A) (A) (A) (A) (A) (A) (A) (A) (A)
                 (A) (A) (A) (A) (A) (A) (A) (A) (A) (A) (A) (A)
                 (A) (A) (A) (A) (A) (A) (A) (A) (A) (A) (A) (A)
                 (A) (A) (A) (A) (A) (A) (A) (A) (A) (A) (A) (A)
                 (A) (A) (A) (A) (A) (A) (A) (A) (A) (A) (A) (A)
                 (A) (A) (A) (A) (A) (A) (A) (A) (A) (A) (A) (A)
                 (A) (A) (A) (A) (A) (A) (A) (A) (A) (A) (A) (A)
                 (A) (A) (A) (A) (A) (A) (A) (A) (A) (A) (A) (A)
                 (A) (A) (A) (A) (A) (A) (A) (A) (A) (A) (A) (A)
                 (A) (A) (A) (A) (A) (A) (A) (A) (A) (A) (A) (A)
                 (A) (A) (A) (A) (A) (A) (A) (A) (A) (A) (A) (A)
                 (A) (A) (A) (A) (A) (A) (A) (A) (A) (A) (A) (A)
                 (A) (A) (A) (A) (A) (A) (A) (A) (A) (A) (A) (A)
                 (A) (A) (A) (A) (A) (A) (A) (A) (A)
       Virtual   (A) (A) (A) (A) (A) (A) (A) (A) (A) (A) (A) (A)
                 (A) (A) (A) (A) (A) (A) (A) (A) (A) (A) (A) (A)
                 (A) (A) (A) (A) (A) (A) (A) (A) (A) (A) (A) (A)
                 (A) (A) (A) (A) (A) (A) (A) (A) (A) (A) (A) (A)
                 (A) (A) (A) (A) (A) (A) (A) (A) (A) (A) (A) (A)
                 (A) (A) (A) (A) (A) (A) (A) (A) (A) (A) (A) (A)
                 (A) (A) (A) (A) (A) (A) (A) (A) (A) (A) (A) (A)
                 (A) (A) (A) (A) (A) (A) (A) (A) (A) (A) (A) (A)
                 (A) (A) (A) (A) (A) (A) (A) (A) (A) (A) (A) (A)
                 (A) (A) (A) (A) (A) (A) (A) (A) (A) (A) (A) (A)
                 (A) (A) (A) (A) (A) (A) (A) (A) (A) (A) (A) (A)
                 (A) (A) (A) (A) (A) (A) (A) (A) (A) (A) (A) (A)
                 (A) (A) (A) (A) (A) (A) (A) (A) (A) (A) (A) (A)
                 (A) (A) (A) (A) (A) (A) (A) (A) (A) (A) (A) (A)
                 (A) (A) (A) (A) (A) (A) (A) (A) (A) (A) (A) (A)
                 (A) (A) (A) (A) (A) (A) (A) (A) (A) (A) (A) (A)
                 (A) (A) (A) (A) (A) (A) (A) (A) (A) (A) (A) (A)
                 (A) (A) (A) (A) (A) (A) (A) (A) (A) (A) (A) (A)
                 (A) (A) (A) (A) (A) (A) (A) (A) (A) (A) (A) (A)
                 (A) (A) (A) (A) (A) (A) (A) (A) (A) (A) (A) (A)
                 (A) (A) (A) (A) (A) (A) (A) (A) (A) (A) (A) (A)
                 (A) (A) (A) (A) (A) (A) (A) (A) (A) (A) (A) (A)
                 (A) (A) (A) (A) (A) (A) (A) (A) (A) (A) (A) (A)
                 (A) (A) (A) (A) (A) (A) (A) (A) (A) (A) (A) (A)
                 (A) (A) (A) (A) (A) (A) (A) (A) (A) (A) (A) (A)
                 (A) (A) (A) (A) (A) (A) (A) (A) (A) (A) (A) (A)
                 (A) (A) (A) (A) (A) (A) (A) (A) (A) (A) (A) (A)
                 (A) (A) (A) (A) (A) (A) (A) (A) (A) (A) (A) (A)
                 (A) (A) (A) (A) (A) (A) (A) (A) (A) (A) (A) (A)
                 (A) (A) (A) (A) (A) (A) (A) (A) (A) (A) (A) (A)
                 (A) (A) (A) (A) (A) (A) (A) (A) (A) (A) (A) (A)
                 (A) (A) (A) (A) (A) (A) (A) (A) (A) (A) (A) (A)
                 (A) (A) (A) (A) (A) (A) (A) (A) (A) (A) (A) (A)
                 (A) (A) (A) (A) (A) (A) (A) (A) (A) (A) (A) (A)
                 (A) (A) (A) (A) (A) (A) (A) (A) (A) (A) (A) (A)
                 (A) (A) (A) (A) (A) (A) (A) (A) (A) (A) (A) (A)
                 (A) (A) (A) (A) (A) (A) (A) (A) (A) (A) (A) (A)
                 (A) (A) (A) (A) (A) (A) (A) (A) (A) (A) (A) (A)
                 (A) (A) (A) (A) (A) (A) (A) (A) (A) (A) (A) (A)
                 (A) (A) (A) (A) (A) (A) (A) (A) (A) (A) (A) (A)
                 (A) (A) (A) (A) (A) (A) (A) (A) (A) (A) (A) (A)
                 (A) (A) (A) (A) (A) (A) (A) (A) (A) (A) (A) (A)
                 (A) (A) (A) (A) (A) (A) (A) (A) (A) (A) (A) (A)
                 (A) (A) (A) (A) (A) (A) (A) (A) (A) (A) (A) (A)
                 (A) (A) (A) (A) (A) (A) (A) (A) (A) (A) (A) (A)
                 (A) (A) (A) (A) (A) (A) (A) (A) (A) (A) (A) (A)
                 (A) (A) (A) (A) (A) (A) (A) (A) (A) (A) (A) (A)
                 (A) (A) (A) (A) (A) (A) (A) (A) (A) (A) (A) (A)
                 (A) (A) (A) (A) (A) (A) (A) (A) (A) (A) (A) (A)
                 (A) (A) (A) (A) (A) (A) (A) (A) (A) (A) (A) (A)
                 (A) (A) (A) (A) (A) (A) (A) (A) (A) (A) (A) (A)
                 (A) (A) (A) (A) (A) (A) (A) (A) (A) (A) (A) (A)
                 (A) (A) (A) (A) (A) (A) (A) (A) (A) (A) (A) (A)
                 (A) (A) (A) (A) (A) (A) (A) (A) (A) (A) (A) (A)
                 (A) (A) (A) (A) (A) (A) (A) (A) (A) (A) (A) (A)
                 (A) (A) (A) (A) (A) (A) (A) (A) (A) (A) (A) (A)
                 (A) (A) (A) (A) (A) (A) (A) (A) (A) (A) (A) (A)
                 (A) (A) (A) (A) (A) (A) (A) (A) (A) (A) (A) (A)
                 (A) (A) (A) (A) (A) (A) (A) (A) (A) (A) (A) (A)
                 (A) (A) (A) (A) (A) (A) (A) (A) (A) (A) (A) (A)
                 (A) (A) (A) (A) (A) (A) (A) (A) (A) (A) (A) (A)
                 (A) (A) (A) (A) (A) (A) (A) (A) (A) (A) (A) (A)
                 (A) (A) (A) (A) (A) (A) (A) (A) (A) (A) (A) (A)
                 (A) (A) (A) (A) (A) (A) (A) (A) (A) (A) (A) (A)
                 (A) (A) (A) (A) (A) (A) (A) (A) (A) (A) (A) (A)
                 (A) (A) (A) (A) (A) (A) (A) (A) (A) (A) (A) (A)
                 (A) (A) (A) (A) (A) (A) (A) (A) (A) (A) (A) (A)
                 (A) (A) (A) (A) (A) (A) (A) (A) (A) (A) (A) (A)
                 (A) (A) (A) (A) (A) (A) (A) (A) (A) (A) (A) (A)
                 (A) (A) (A) (A) (A) (A) (A) (A) (A) (A) (A) (A)
                 (A) (A) (A) (A) (A) (A) (A) (A) (A) (A) (A) (A)
                 (A) (A) (A) (A) (A) (A) (A) (A) (A) (A) (A) (A)
                 (A) (A) (A) (A) (A) (A) (A) (A) (A) (A) (A) (A)
                 (A) (A) (A) (A) (A) (A) (A) (A) (A) (A) (A) (A)
                 (A) (A) (A) (A) (A) (A) (A) (A) (A) (A) (A) (A)
                 (A) (A) (A) (A) (A) (A) (A) (A) (A) (A) (A) (A)
                 (A) (A) (A) (A) (A) (A) (A) (A) (A) (A) (A) (A)
                 (A) (A) (A) (A) (A) (A) (A) (A) (A) (A) (A) (A)
                 (A) (A) (A) (A) (A) (A) (A) (A) (A) (A) (A) (A)
                 (A) (A) (A) (A) (A) (A) (A) (A) (A) (A) (A) (A)
                 (A) (A) (A) (A) (A) (A) (A) (A) (A) (A) (A) (A)
                 (A) (A) (A) (A) (A) (A) (A) (A) (A) (A) (A) (A)
                 (A) (A) (A) (A) (A) (A) (A) (A) (A) (A) (A) (A)
                 (A) (A) (A) (A) (A) (A) (A) (A) (A) (A) (A) (A)
                 (A) (A) (A) (A) (A) (A) (A) (A) (A) (A) (A) (A)
                 (A) (A) (A) (A) (A) (A) (A) (A) (A) (A) (A) (A)
                 (A) (A) (A) (A) (A) (A) (A) (A) (A) (A) (A) (A)
                 (A) (A) (A) (A) (A) (A) (A) (A) (A) (A) (A) (A)
                 (A) (A) (A) (A) (A) (A) (A) (A) (A) (A) (A) (A)
                 (A) (A) (A) (A) (A) (A) (A) (A) (A) (A) (A) (A)
                 (A) (A) (A) (A) (A) (A) (A) (A) (A) (A) (A) (A)
                 (A) (A) (A) (A) (A) (A) (A) (A) (A) (A) (A) (A)
                 (A) (A) (A) (A) (A) (A) (A) (A) (A) (A) (A) (A)
                 (A) (A) (A) (A) (A) (A) (A) (A) (A) (A) (A) (A)
                 (A) (A) (A) (A) (A) (A) (A) (A) (A) (A) (A) (A)
                 (A) (A) (A) (A) (A) (A) (A) (A) (A) (A) (A) (A)
                 (A) (A) (A) (A) (A) (A) (A) (A) (A) (A) (A) (A)
                 (A) (A) (A) (A) (A) (A) (A) (A) (A) (A) (A) (A)
                 (A) (A) (A) (A) (A) (A) (A) (A) (A) (A) (A) (A)
                 (A) (A) (A) (A) (A) (A) (A) (A) (A) (A) (A) (A)
                 (A) (A) (A) (A) (A) (A) (A) (A) (A) (A) (A) (A)
                 (A) (A) (A) (A) (A) (A) (A) (A) (A) (A) (A) (A)
                 (A) (A) (A) (A) (A) (A) (A) (A) (A) (A) (A) (A)
                 (A) (A) (A) (A) (A) (A) (A) (A) (A) (A) (A) (A)
                 (A) (A) (A) (A) (A) (A) (A) (A) (A) (A) (A) (A)
                 (A) (A) (A) (A) (A) (A) (A) (A) (A) (A) (A) (A)
                 (A) (A) (A) (A) (A) (A) (A) (A) (A) (A) (A) (A)
                 (A) (A) (A) (A) (A) (A) (A) (A) (A) (A) (A) (A)
                 (A) (A) (A) (A) (A) (A) (A) (A) (A) (A) (A) (A)
                 (A) (A) (A) (A) (A) (A) (A) (A) (A) (A) (A) (A)
                 (A) (A) (A) (A) (A) (A) (A) (A) (A) (A) (A) (A)
                 (A) (A) (A) (A) (A) (A) (A) (A) (A) (A) (A) (A)
                 (A) (A) (A) (A) (A) (A) (A) (A) (A) (A) (A) (A)
                 (A) (A) (A) (A) (A) (A) (A) (A) (A) (A) (A) (A)
                 (A) (A) (A) (A) (A) (A) (A) (A) (A) (A) (A) (A)
                 (A) (A) (A) (A) (A) (A) (A) (A) (A) (A) (A) (A)
                 (A) (A) (A) (A) (A) (A) (A) (A) (A) (A) (A) (A)
                 (A) (A) (A) (A) (A) (A) (A) (A) (A) (A) (A) (A)
                 (A) (A) (A) (A) (A) (A) (A) (A) (A) (A) (A) (A)
                 (A) (A) (A) (A) (A) (A) (A) (A) (A) (A) (A) (A)
                 (A) (A) (A) (A) (A) (A) (A) (A) (A) (A) (A) (A)
                 (A) (A) (A) (A) (A) (A) (A) (A) (A) (A) (A) (A)
                 (A) (A) (A) (A) (A) (A) (A) (A) (A) (A) (A) (A)
                 (A) (A) (A) (A) (A) (A) (A) (A) (A) (A) (A) (A)
                 (A) (A) (A) (A) (A) (A) (A) (A) (A) (A) (A) (A)
                 (A) (A) (A) (A) (A) (A) (A) (A) (A) (A) (A) (A)
                 (A) (A) (A) (A) (A) (A) (A) (A) (A) (A) (A) (A)
                 (A) (A) (A) (A) (A) (A) (A) (A) (A) (A) (A) (A)
                 (A) (A) (A) (A) (A) (A) (A) (A) (A) (A) (A) (A)
                 (A) (A) (A) (A) (A) (A) (A) (A) (A) (A) (A) (A)
                 (A) (A) (A) (A) (A) (A) (A) (A) (A) (A) (A) (A)
                 (A) (A) (A) (A) (A) (A) (A) (A) (A) (A) (A) (A)
                 (A) (A) (A) (A) (A) (A) (A) (A) (A) (A) (A) (A)
                 (A) (A) (A) (A) (A) (A) (A) (A) (A) (A) (A) (A)
                 (A) (A) (A) (A) (A) (A) (A) (A) (A) (A) (A) (A)
                 (A) (A) (A) (A) (A) (A) (A) (A)
 Beta  Orbitals:
       Occupied  (A) (A) (A) (A) (A) (A) (A) (A) (A) (A) (A) (A)
                 (A) (A) (A) (A) (A) (A) (A) (A) (A) (A) (A) (A)
                 (A) (A) (A) (A) (A) (A) (A) (A) (A) (A) (A) (A)
                 (A) (A) (A) (A) (A) (A) (A) (A) (A) (A) (A) (A)
                 (A) (A) (A) (A) (A) (A) (A) (A) (A) (A) (A) (A)
                 (A) (A) (A) (A) (A) (A) (A) (A) (A) (A) (A) (A)
                 (A) (A) (A) (A) (A) (A) (A) (A) (A) (A) (A) (A)
                 (A) (A) (A) (A) (A) (A) (A) (A) (A) (A) (A) (A)
                 (A) (A) (A) (A) (A) (A) (A) (A) (A) (A) (A) (A)
                 (A) (A) (A) (A) (A) (A) (A) (A) (A) (A) (A) (A)
                 (A) (A) (A) (A) (A) (A) (A) (A) (A) (A) (A) (A)
                 (A) (A) (A) (A) (A) (A) (A) (A) (A) (A) (A) (A)
                 (A) (A) (A) (A) (A) (A) (A) (A) (A) (A) (A) (A)
                 (A) (A) (A) (A) (A) (A) (A) (A)
       Virtual   (A) (A) (A) (A) (A) (A) (A) (A) (A) (A) (A) (A)
                 (A) (A) (A) (A) (A) (A) (A) (A) (A) (A) (A) (A)
                 (A) (A) (A) (A) (A) (A) (A) (A) (A) (A) (A) (A)
                 (A) (A) (A) (A) (A) (A) (A) (A) (A) (A) (A) (A)
                 (A) (A) (A) (A) (A) (A) (A) (A) (A) (A) (A) (A)
                 (A) (A) (A) (A) (A) (A) (A) (A) (A) (A) (A) (A)
                 (A) (A) (A) (A) (A) (A) (A) (A) (A) (A) (A) (A)
                 (A) (A) (A) (A) (A) (A) (A) (A) (A) (A) (A) (A)
                 (A) (A) (A) (A) (A) (A) (A) (A) (A) (A) (A) (A)
                 (A) (A) (A) (A) (A) (A) (A) (A) (A) (A) (A) (A)
                 (A) (A) (A) (A) (A) (A) (A) (A) (A) (A) (A) (A)
                 (A) (A) (A) (A) (A) (A) (A) (A) (A) (A) (A) (A)
                 (A) (A) (A) (A) (A) (A) (A) (A) (A) (A) (A) (A)
                 (A) (A) (A) (A) (A) (A) (A) (A) (A) (A) (A) (A)
                 (A) (A) (A) (A) (A) (A) (A) (A) (A) (A) (A) (A)
                 (A) (A) (A) (A) (A) (A) (A) (A) (A) (A) (A) (A)
                 (A) (A) (A) (A) (A) (A) (A) (A) (A) (A) (A) (A)
                 (A) (A) (A) (A) (A) (A) (A) (A) (A) (A) (A) (A)
                 (A) (A) (A) (A) (A) (A) (A) (A) (A) (A) (A) (A)
                 (A) (A) (A) (A) (A) (A) (A) (A) (A) (A) (A) (A)
                 (A) (A) (A) (A) (A) (A) (A) (A) (A) (A) (A) (A)
                 (A) (A) (A) (A) (A) (A) (A) (A) (A) (A) (A) (A)
                 (A) (A) (A) (A) (A) (A) (A) (A) (A) (A) (A) (A)
                 (A) (A) (A) (A) (A) (A) (A) (A) (A) (A) (A) (A)
                 (A) (A) (A) (A) (A) (A) (A) (A) (A) (A) (A) (A)
                 (A) (A) (A) (A) (A) (A) (A) (A) (A) (A) (A) (A)
                 (A) (A) (A) (A) (A) (A) (A) (A) (A) (A) (A) (A)
                 (A) (A) (A) (A) (A) (A) (A) (A) (A) (A) (A) (A)
                 (A) (A) (A) (A) (A) (A) (A) (A) (A) (A) (A) (A)
                 (A) (A) (A) (A) (A) (A) (A) (A) (A) (A) (A) (A)
                 (A) (A) (A) (A) (A) (A) (A) (A) (A) (A) (A) (A)
                 (A) (A) (A) (A) (A) (A) (A) (A) (A) (A) (A) (A)
                 (A) (A) (A) (A) (A) (A) (A) (A) (A) (A) (A) (A)
                 (A) (A) (A) (A) (A) (A) (A) (A) (A) (A) (A) (A)
                 (A) (A) (A) (A) (A) (A) (A) (A) (A) (A) (A) (A)
                 (A) (A) (A) (A) (A) (A) (A) (A) (A) (A) (A) (A)
                 (A) (A) (A) (A) (A) (A) (A) (A) (A) (A) (A) (A)
                 (A) (A) (A) (A) (A) (A) (A) (A) (A) (A) (A) (A)
                 (A) (A) (A) (A) (A) (A) (A) (A) (A) (A) (A) (A)
                 (A) (A) (A) (A) (A) (A) (A) (A) (A) (A) (A) (A)
                 (A) (A) (A) (A) (A) (A) (A) (A) (A) (A) (A) (A)
                 (A) (A) (A) (A) (A) (A) (A) (A) (A) (A) (A) (A)
                 (A) (A) (A) (A) (A) (A) (A) (A) (A) (A) (A) (A)
                 (A) (A) (A) (A) (A) (A) (A) (A) (A) (A) (A) (A)
                 (A) (A) (A) (A) (A) (A) (A) (A) (A) (A) (A) (A)
                 (A) (A) (A) (A) (A) (A) (A) (A) (A) (A) (A) (A)
                 (A) (A) (A) (A) (A) (A) (A) (A) (A) (A) (A) (A)
                 (A) (A) (A) (A) (A) (A) (A) (A) (A) (A) (A) (A)
                 (A) (A) (A) (A) (A) (A) (A) (A) (A) (A) (A) (A)
                 (A) (A) (A) (A) (A) (A) (A) (A) (A) (A) (A) (A)
                 (A) (A) (A) (A) (A) (A) (A) (A) (A) (A) (A) (A)
                 (A) (A) (A) (A) (A) (A) (A) (A) (A) (A) (A) (A)
                 (A) (A) (A) (A) (A) (A) (A) (A) (A) (A) (A) (A)
                 (A) (A) (A) (A) (A) (A) (A) (A) (A) (A) (A) (A)
                 (A) (A) (A) (A) (A) (A) (A) (A) (A) (A) (A) (A)
                 (A) (A) (A) (A) (A) (A) (A) (A) (A) (A) (A) (A)
                 (A) (A) (A) (A) (A) (A) (A) (A) (A) (A) (A) (A)
                 (A) (A) (A) (A) (A) (A) (A) (A) (A) (A) (A) (A)
                 (A) (A) (A) (A) (A) (A) (A) (A) (A) (A) (A) (A)
                 (A) (A) (A) (A) (A) (A) (A) (A) (A) (A) (A) (A)
                 (A) (A) (A) (A) (A) (A) (A) (A) (A) (A) (A) (A)
                 (A) (A) (A) (A) (A) (A) (A) (A) (A) (A) (A) (A)
                 (A) (A) (A) (A) (A) (A) (A) (A) (A) (A) (A) (A)
                 (A) (A) (A) (A) (A) (A) (A) (A) (A) (A) (A) (A)
                 (A) (A) (A) (A) (A) (A) (A) (A) (A) (A) (A) (A)
                 (A) (A) (A) (A) (A) (A) (A) (A) (A) (A) (A) (A)
                 (A) (A) (A) (A) (A) (A) (A) (A) (A) (A) (A) (A)
                 (A) (A) (A) (A) (A) (A) (A) (A) (A) (A) (A) (A)
                 (A) (A) (A) (A) (A) (A) (A) (A) (A) (A) (A) (A)
                 (A) (A) (A) (A) (A) (A) (A) (A) (A) (A) (A) (A)
                 (A) (A) (A) (A) (A) (A) (A) (A) (A) (A) (A) (A)
                 (A) (A) (A) (A) (A) (A) (A) (A) (A) (A) (A) (A)
                 (A) (A) (A) (A) (A) (A) (A) (A) (A) (A) (A) (A)
                 (A) (A) (A) (A) (A) (A) (A) (A) (A) (A) (A) (A)
                 (A) (A) (A) (A) (A) (A) (A) (A) (A) (A) (A) (A)
                 (A) (A) (A) (A) (A) (A) (A) (A) (A) (A) (A) (A)
                 (A) (A) (A) (A) (A) (A) (A) (A) (A) (A) (A) (A)
                 (A) (A) (A) (A) (A) (A) (A) (A) (A) (A) (A) (A)
                 (A) (A) (A) (A) (A) (A) (A) (A) (A) (A) (A) (A)
                 (A) (A) (A) (A) (A) (A) (A) (A) (A) (A) (A) (A)
                 (A) (A) (A) (A) (A) (A) (A) (A) (A) (A) (A) (A)
                 (A) (A) (A) (A) (A) (A) (A) (A) (A) (A) (A) (A)
                 (A) (A) (A) (A) (A) (A) (A) (A) (A) (A) (A) (A)
                 (A) (A) (A) (A) (A) (A) (A) (A) (A) (A) (A) (A)
                 (A) (A) (A) (A) (A) (A) (A) (A) (A) (A) (A) (A)
                 (A) (A) (A) (A) (A) (A) (A) (A) (A) (A) (A) (A)
                 (A) (A) (A) (A) (A) (A) (A) (A) (A) (A) (A) (A)
                 (A) (A) (A) (A) (A) (A) (A) (A) (A) (A) (A) (A)
                 (A) (A) (A) (A) (A) (A) (A) (A) (A) (A) (A) (A)
                 (A) (A) (A) (A) (A) (A) (A) (A) (A) (A) (A) (A)
                 (A) (A) (A) (A) (A) (A) (A) (A) (A) (A) (A) (A)
                 (A) (A) (A) (A) (A) (A) (A) (A) (A) (A) (A) (A)
                 (A) (A) (A) (A) (A) (A) (A) (A) (A) (A) (A) (A)
                 (A) (A) (A) (A) (A) (A) (A) (A) (A) (A) (A) (A)
                 (A) (A) (A) (A) (A) (A) (A) (A) (A) (A) (A) (A)
                 (A) (A) (A) (A) (A) (A) (A) (A) (A) (A) (A) (A)
                 (A) (A) (A) (A) (A) (A) (A) (A) (A) (A) (A) (A)
                 (A) (A) (A) (A) (A) (A) (A) (A) (A) (A) (A) (A)
                 (A) (A) (A) (A) (A) (A) (A) (A) (A) (A) (A) (A)
                 (A) (A) (A) (A) (A) (A) (A) (A) (A) (A) (A) (A)
                 (A) (A) (A) (A) (A) (A) (A) (A) (A) (A) (A) (A)
                 (A) (A) (A) (A) (A) (A) (A) (A) (A) (A) (A) (A)
                 (A) (A) (A) (A) (A) (A) (A) (A) (A) (A) (A) (A)
                 (A) (A) (A) (A) (A) (A) (A) (A) (A) (A) (A) (A)
                 (A) (A) (A) (A) (A) (A) (A) (A) (A) (A) (A) (A)
                 (A) (A) (A) (A) (A) (A) (A) (A) (A) (A) (A) (A)
                 (A) (A) (A) (A) (A) (A) (A) (A) (A) (A) (A) (A)
                 (A) (A) (A) (A) (A) (A) (A) (A) (A) (A) (A) (A)
                 (A) (A) (A) (A) (A) (A) (A) (A) (A) (A) (A) (A)
                 (A) (A) (A) (A) (A) (A) (A) (A) (A) (A) (A) (A)
                 (A) (A) (A) (A) (A) (A) (A) (A) (A) (A) (A) (A)
                 (A) (A) (A) (A) (A) (A) (A) (A) (A) (A) (A) (A)
                 (A) (A) (A) (A) (A) (A) (A) (A) (A) (A) (A) (A)
                 (A) (A) (A) (A) (A) (A) (A) (A) (A) (A) (A) (A)
                 (A) (A) (A) (A) (A) (A) (A) (A) (A) (A) (A) (A)
                 (A) (A) (A) (A) (A) (A) (A) (A) (A) (A) (A) (A)
                 (A) (A) (A) (A) (A) (A) (A) (A) (A) (A) (A) (A)
                 (A) (A) (A) (A) (A) (A) (A) (A) (A) (A) (A) (A)
                 (A) (A) (A) (A) (A) (A) (A) (A) (A) (A) (A) (A)
                 (A) (A) (A) (A) (A) (A) (A) (A) (A) (A) (A) (A)
                 (A) (A) (A) (A) (A) (A) (A) (A) (A) (A) (A) (A)
                 (A) (A) (A) (A) (A) (A) (A) (A) (A) (A) (A) (A)
                 (A) (A) (A) (A) (A) (A) (A) (A) (A) (A) (A) (A)
                 (A) (A) (A) (A) (A) (A) (A) (A) (A) (A) (A) (A)
                 (A) (A) (A) (A) (A) (A) (A) (A) (A) (A) (A) (A)
                 (A) (A) (A) (A) (A) (A) (A) (A) (A) (A) (A) (A)
                 (A) (A) (A) (A) (A) (A) (A) (A) (A) (A) (A) (A)
                 (A) (A) (A) (A) (A) (A) (A) (A) (A) (A) (A) (A)
                 (A) (A) (A) (A) (A) (A) (A) (A) (A) (A) (A) (A)
                 (A) (A) (A) (A) (A) (A) (A) (A) (A) (A) (A) (A)
                 (A) (A) (A) (A) (A) (A) (A) (A) (A) (A) (A) (A)
                 (A) (A) (A) (A) (A) (A) (A) (A) (A) (A) (A) (A)
                 (A) (A) (A) (A) (A) (A) (A) (A) (A) (A) (A) (A)
                 (A) (A) (A) (A) (A) (A) (A) (A) (A) (A) (A) (A)
                 (A) (A) (A) (A) (A) (A) (A) (A) (A) (A) (A) (A)
                 (A) (A) (A) (A) (A) (A) (A) (A) (A)
 The electronic state is 2-A.
 Alpha  occ. eigenvalues --  -25.19680 -25.19440 -19.67839 -19.67836 -19.66532
 Alpha  occ. eigenvalues --  -19.66297 -19.65505 -19.65437 -15.01311 -14.99762
 Alpha  occ. eigenvalues --  -14.98966 -14.77307 -14.77186 -10.61795 -10.61343
 Alpha  occ. eigenvalues --  -10.60226 -10.59160 -10.59023 -10.58844 -10.58690
 Alpha  occ. eigenvalues --  -10.58681 -10.58572 -10.58424 -10.58167 -10.57863
 Alpha  occ. eigenvalues --  -10.57860 -10.57002 -10.56999 -10.56791 -10.56504
 Alpha  occ. eigenvalues --  -10.56301 -10.55818 -10.55519 -10.55508 -10.55241
 Alpha  occ. eigenvalues --  -10.55202 -10.54808 -10.54737 -10.54697 -10.54689
 Alpha  occ. eigenvalues --  -10.54645 -10.54584 -10.54395 -10.53872 -10.53562
 Alpha  occ. eigenvalues --  -10.53329  -7.12097  -1.36815  -1.34688  -1.33621
 Alpha  occ. eigenvalues --   -1.31485  -1.28249  -1.18324  -1.16244  -1.15246
 Alpha  occ. eigenvalues --   -1.09700  -1.07588  -1.00849  -1.00714  -0.96726
 Alpha  occ. eigenvalues --   -0.94809  -0.94289  -0.91875  -0.91024  -0.90346
 Alpha  occ. eigenvalues --   -0.89925  -0.89166  -0.87706  -0.87510  -0.84884
 Alpha  occ. eigenvalues --   -0.84502  -0.82951  -0.81323  -0.80629  -0.80065
 Alpha  occ. eigenvalues --   -0.79439  -0.77490  -0.74178  -0.72382  -0.71539
 Alpha  occ. eigenvalues --   -0.70584  -0.69907  -0.69270  -0.69086  -0.68022
 Alpha  occ. eigenvalues --   -0.67003  -0.65925  -0.65640  -0.65416  -0.64492
 Alpha  occ. eigenvalues --   -0.63309  -0.62910  -0.62549  -0.62055  -0.61842
 Alpha  occ. eigenvalues --   -0.61412  -0.61071  -0.60617  -0.59585  -0.59463
 Alpha  occ. eigenvalues --   -0.59295  -0.58904  -0.57601  -0.57293  -0.57084
 Alpha  occ. eigenvalues --   -0.55346  -0.54706  -0.54315  -0.53932  -0.53520
 Alpha  occ. eigenvalues --   -0.52723  -0.52158  -0.51889  -0.51836  -0.51461
 Alpha  occ. eigenvalues --   -0.51304  -0.51017  -0.50490  -0.50022  -0.49027
 Alpha  occ. eigenvalues --   -0.48847  -0.48741  -0.48442  -0.47627  -0.47354
 Alpha  occ. eigenvalues --   -0.47151  -0.46726  -0.46423  -0.46207  -0.45998
 Alpha  occ. eigenvalues --   -0.45776  -0.45213  -0.45051  -0.44288  -0.43914
 Alpha  occ. eigenvalues --   -0.43589  -0.43515  -0.42839  -0.42536  -0.42009
 Alpha  occ. eigenvalues --   -0.41019  -0.40882  -0.40711  -0.40021  -0.39799
 Alpha  occ. eigenvalues --   -0.39686  -0.39671  -0.39617  -0.39291  -0.38667
 Alpha  occ. eigenvalues --   -0.38491  -0.38293  -0.37812  -0.37525  -0.35540
 Alpha  occ. eigenvalues --   -0.34386  -0.33767  -0.33499  -0.31926  -0.31707
 Alpha  occ. eigenvalues --   -0.31458  -0.30611  -0.28547  -0.23643  -0.18752
 Alpha virt. eigenvalues --   -0.08482  -0.07248  -0.07150  -0.02610  -0.00690
 Alpha virt. eigenvalues --   -0.00305   0.01581   0.01834   0.02416   0.05273
 Alpha virt. eigenvalues --    0.05640   0.05832   0.07964   0.08129   0.08521
 Alpha virt. eigenvalues --    0.08745   0.08993   0.09300   0.09617   0.09967
 Alpha virt. eigenvalues --    0.10365   0.10866   0.11190   0.11391   0.11624
 Alpha virt. eigenvalues --    0.11969   0.12098   0.12973   0.13186   0.13217
 Alpha virt. eigenvalues --    0.13622   0.13870   0.14317   0.14496   0.14673
 Alpha virt. eigenvalues --    0.15317   0.15713   0.15891   0.15951   0.16203
 Alpha virt. eigenvalues --    0.16545   0.16790   0.17086   0.17373   0.17515
 Alpha virt. eigenvalues --    0.17822   0.18433   0.18709   0.18899   0.19318
 Alpha virt. eigenvalues --    0.19405   0.20139   0.20328   0.20731   0.20841
 Alpha virt. eigenvalues --    0.21242   0.21459   0.21923   0.22123   0.22228
 Alpha virt. eigenvalues --    0.22441   0.22737   0.22962   0.23255   0.23366
 Alpha virt. eigenvalues --    0.23614   0.23870   0.24143   0.24328   0.24511
 Alpha virt. eigenvalues --    0.25102   0.25190   0.25428   0.25682   0.26146
 Alpha virt. eigenvalues --    0.26327   0.26540   0.26845   0.26956   0.27076
 Alpha virt. eigenvalues --    0.27181   0.27541   0.27654   0.27866   0.28191
 Alpha virt. eigenvalues --    0.28271   0.28810   0.28856   0.29052   0.29481
 Alpha virt. eigenvalues --    0.29592   0.30159   0.30375   0.30724   0.30797
 Alpha virt. eigenvalues --    0.31280   0.31320   0.31535   0.31822   0.31881
 Alpha virt. eigenvalues --    0.32090   0.32394   0.32746   0.32942   0.33266
 Alpha virt. eigenvalues --    0.33303   0.33653   0.34020   0.34262   0.34546
 Alpha virt. eigenvalues --    0.34769   0.34965   0.35339   0.35476   0.35691
 Alpha virt. eigenvalues --    0.35783   0.36175   0.36340   0.36657   0.36873
 Alpha virt. eigenvalues --    0.37019   0.37271   0.37435   0.37650   0.37851
 Alpha virt. eigenvalues --    0.37986   0.38326   0.38631   0.38657   0.39098
 Alpha virt. eigenvalues --    0.39425   0.39516   0.39623   0.39899   0.40210
 Alpha virt. eigenvalues --    0.40578   0.40721   0.41168   0.41226   0.41490
 Alpha virt. eigenvalues --    0.41582   0.41739   0.42066   0.42117   0.42403
 Alpha virt. eigenvalues --    0.42658   0.42855   0.43117   0.43383   0.43519
 Alpha virt. eigenvalues --    0.43685   0.43908   0.44106   0.44209   0.44327
 Alpha virt. eigenvalues --    0.44749   0.45017   0.45196   0.45658   0.45806
 Alpha virt. eigenvalues --    0.45965   0.46288   0.46624   0.46789   0.47192
 Alpha virt. eigenvalues --    0.47442   0.47584   0.48028   0.48382   0.48582
[...]
 
              Baa    -0.0083    -1.109    -0.396    -0.370 -0.2980  0.5478  0.7817
     8 C(13)  Bbb    -0.0003    -0.035    -0.013    -0.012 -0.2831  0.7314 -0.6204
              Bcc     0.0085     1.145     0.408     0.382  0.9116  0.4062  0.0629
 
              Baa    -0.0505    -6.775    -2.418    -2.260 -0.2764  0.9531 -0.1230
     9 C(13)  Bbb    -0.0445    -5.973    -2.131    -1.992  0.9410  0.2944  0.1670
              Bcc     0.0950    12.748     4.549     4.252 -0.1954  0.0695  0.9783
 
              Baa    -0.0417    -5.591    -1.995    -1.865  0.0212  0.9982 -0.0568
    10 C(13)  Bbb    -0.0315    -4.224    -1.507    -1.409  0.9822 -0.0102  0.1876
              Bcc     0.0731     9.814     3.502     3.274 -0.1867  0.0598  0.9806
 
              Baa    -0.0405    -1.561    -0.557    -0.521  0.0162  0.9976 -0.0679
    11 N(14)  Bbb    -0.0359    -1.386    -0.495    -0.462  0.9883 -0.0057  0.1521
              Bcc     0.0764     2.947     1.051     0.983 -0.1513  0.0695  0.9860
 
              Baa    -0.1450    10.490     3.743     3.499 -0.6655  0.7254 -0.1758
    12 O(17)  Bbb    -0.1366     9.887     3.528     3.298  0.7160  0.6869  0.1240
              Bcc     0.2816   -20.377    -7.271    -6.797 -0.2107  0.0433  0.9766
 
              Baa    -0.0966     6.993     2.495     2.333  0.3689  0.9294  0.0101
    13 O(17)  Bbb    -0.0915     6.621     2.363     2.209  0.9145 -0.3649  0.1746
              Bcc     0.1881   -13.614    -4.858    -4.541 -0.1659  0.0551  0.9846
 
              Baa    -0.0424    -5.686    -2.029    -1.897 -0.1124 -0.0016  0.9937
    14 C(13)  Bbb     0.0171     2.298     0.820     0.767 -0.4300  0.9016 -0.0472
              Bcc     0.0252     3.387     1.209     1.130  0.8958  0.4326  0.1020
 
              Baa    -0.0294    -3.949    -1.409    -1.317  0.9768 -0.1994  0.0787
    15 C(13)  Bbb    -0.0251    -3.364    -1.200    -1.122  0.1791  0.9609  0.2114
              Bcc     0.0545     7.314     2.610     2.440 -0.1177 -0.1924  0.9742
 
              Baa    -0.0313    -1.207    -0.431    -0.403  0.7187  0.1591  0.6769
    16 N(14)  Bbb    -0.0278    -1.072    -0.382    -0.358 -0.1675  0.9844 -0.0535
              Bcc     0.0591     2.279     0.813     0.760 -0.6749 -0.0750  0.7341
 
              Baa    -0.1092     7.905     2.821     2.637 -0.2172  0.9291 -0.2994
    17 O(17)  Bbb    -0.1067     7.722     2.755     2.576  0.7812  0.3494  0.5174
              Bcc     0.2160   -15.626    -5.576    -5.212 -0.5853  0.1215  0.8017
 
              Baa    -0.0437     3.163     1.129     1.055 -0.0282  0.9682  0.2486
    18 O(17)  Bbb    -0.0408     2.949     1.052     0.984  0.7125 -0.1550  0.6844
              Bcc     0.0845    -6.112    -2.181    -2.039  0.7012  0.1964 -0.6854
 
              Baa    -0.1173    -4.523    -1.614    -1.509 -0.0836  0.9948 -0.0575
    19 N(14)  Bbb    -0.1079    -4.161    -1.485    -1.388  0.9960  0.0853  0.0265
              Bcc     0.2251     8.684     3.098     2.897 -0.0312  0.0551  0.9980
 
              Baa    -0.0928   -12.453    -4.444    -4.154 -0.0060  0.1089  0.9940
    20 C(13)  Bbb     0.0399     5.350     1.909     1.785 -0.3678  0.9241 -0.1035
              Bcc     0.0529     7.103     2.535     2.369  0.9299  0.3663 -0.0345
 
              Baa    -0.1214   -16.287    -5.812    -5.433 -0.1546  0.9854 -0.0718
    21 C(13)  Bbb    -0.1158   -15.536    -5.544    -5.182  0.9878  0.1530 -0.0280
              Bcc     0.2372    31.823    11.355    10.615  0.0166  0.0752  0.9970
 
              Baa    -0.0050    -0.666    -0.238    -0.222  0.2238  0.8681 -0.4431
    22 C(13)  Bbb     0.0016     0.219     0.078     0.073  0.9398 -0.3127 -0.1380
              Bcc     0.0033     0.448     0.160     0.149  0.2584  0.3855  0.8858
 
              Baa    -0.0053    -0.709    -0.253    -0.237 -0.5460  0.1181  0.8294
    23 C(13)  Bbb    -0.0033    -0.446    -0.159    -0.149 -0.1097  0.9714 -0.2105
              Bcc     0.0086     1.155     0.412     0.385  0.8306  0.2059  0.5174
 
              Baa    -0.0025    -0.334    -0.119    -0.111  0.6136  0.7752 -0.1502
    24 C(13)  Bbb    -0.0009    -0.121    -0.043    -0.040 -0.1310  0.2875  0.9488
              Bcc     0.0034     0.454     0.162     0.152  0.7787 -0.5625  0.2779
 
              Baa    -0.0019    -0.252    -0.090    -0.084  0.1009  0.2788  0.9550
    25 C(13)  Bbb    -0.0004    -0.049    -0.017    -0.016  0.9580 -0.2863 -0.0176
              Bcc     0.0022     0.301     0.107     0.100  0.2685  0.9167 -0.2960
 
              Baa    -0.0003    -0.010    -0.004    -0.003 -0.1424 -0.1876  0.9719
    26 N(14)  Bbb    -0.0002    -0.006    -0.002    -0.002  0.4672  0.8529  0.2331
              Bcc     0.0004     0.016     0.006     0.005  0.8726 -0.4872  0.0338
 
              Baa    -0.0015     0.109     0.039     0.036 -0.5369 -0.0996  0.8378
    27 O(17)  Bbb    -0.0007     0.054     0.019     0.018  0.8329  0.0955  0.5451
              Bcc     0.0023    -0.163    -0.058    -0.054 -0.1343  0.9904  0.0316
 
              Baa    -0.0021     0.152     0.054     0.051  0.2272 -0.0558  0.9723
    28 O(17)  Bbb    -0.0015     0.111     0.040     0.037  0.8388 -0.4960 -0.2245
              Bcc     0.0036    -0.263    -0.094    -0.088  0.4948  0.8665 -0.0659
 
              Baa    -0.0030    -0.406    -0.145    -0.135  0.3334  0.8964 -0.2920
    29 C(13)  Bbb    -0.0003    -0.038    -0.014    -0.013  0.2473  0.2158  0.9446
              Bcc     0.0033     0.444     0.158     0.148  0.9098 -0.3872 -0.1498
 
              Baa    -0.0056    -0.747    -0.266    -0.249  0.5152 -0.0406  0.8561
    30 C(13)  Bbb    -0.0039    -0.523    -0.187    -0.175  0.6702  0.6418 -0.3728
              Bcc     0.0095     1.270     0.453     0.424 -0.5343  0.7658  0.3578
 
              Baa    -0.0323    -4.333    -1.546    -1.445  0.0946  0.0745  0.9927
    31 C(13)  Bbb     0.0142     1.906     0.680     0.636  0.9857 -0.1467 -0.0829
              Bcc     0.0181     2.427     0.866     0.810  0.1395  0.9864 -0.0873
 
              Baa    -0.0650    -8.721    -3.112    -2.909 -0.5628  0.8248 -0.0540
    32 C(13)  Bbb    -0.0613    -8.222    -2.934    -2.743  0.8207  0.5498 -0.1554
              Bcc     0.1263    16.943     6.046     5.652  0.0985  0.1318  0.9864
 
              Baa    -0.0020    -0.274    -0.098    -0.091 -0.4253  0.8938 -0.1418
    33 C(13)  Bbb     0.0005     0.071     0.025     0.024  0.9050  0.4197 -0.0691
              Bcc     0.0015     0.202     0.072     0.068  0.0023  0.1578  0.9875
 
              Baa    -0.0304    -4.074    -1.454    -1.359  0.0742  0.0996  0.9923
    34 C(13)  Bbb     0.0144     1.930     0.689     0.644 -0.3871  0.9198 -0.0634
              Bcc     0.0160     2.143     0.765     0.715  0.9190  0.3794 -0.1068
 
              Baa    -0.0777   -10.421    -3.719    -3.476 -0.1470  0.9866 -0.0703
    35 C(13)  Bbb    -0.0723    -9.705    -3.463    -3.237  0.9837  0.1383 -0.1153
              Bcc     0.1500    20.127     7.182     6.714  0.1040  0.0861  0.9908
 
              Baa    -0.0543    -7.282    -2.599    -2.429  0.2018  0.1955  0.9597
    36 C(13)  Bbb     0.0224     3.006     1.073     1.003  0.1562  0.9609 -0.2285
              Bcc     0.0319     4.276     1.526     1.426  0.9669 -0.1960 -0.1633
 
              Baa    -0.0573    -7.691    -2.744    -2.565  0.9449  0.1730 -0.2779
    37 C(13)  Bbb    -0.0545    -7.313    -2.609    -2.439 -0.2305  0.9545 -0.1894
              Bcc     0.1118    15.003     5.354     5.005  0.2325  0.2430  0.9418
 
              Baa    -0.0169    -2.269    -0.810    -0.757  0.1130  0.1457  0.9829
    38 C(13)  Bbb     0.0071     0.953     0.340     0.318  0.8181  0.5478 -0.1752
              Bcc     0.0098     1.316     0.470     0.439 -0.5639  0.8238 -0.0573
 
              Baa    -0.0120    -1.607    -0.573    -0.536  0.9328  0.3373 -0.1273
    39 C(13)  Bbb    -0.0113    -1.519    -0.542    -0.507 -0.3464  0.9363 -0.0575
              Bcc     0.0233     3.126     1.115     1.043  0.0998  0.0977  0.9902
 
              Baa    -0.0092    -1.235    -0.441    -0.412  0.1085  0.1442  0.9836
    40 C(13)  Bbb     0.0042     0.560     0.200     0.187  0.5021  0.8460 -0.1795
              Bcc     0.0050     0.675     0.241     0.225  0.8580 -0.5134 -0.0194
 
              Baa    -0.0137    -1.838    -0.656    -0.613  0.6942  0.6948 -0.1878
    41 C(13)  Bbb    -0.0122    -1.643    -0.586    -0.548  0.7101 -0.7038  0.0212
              Bcc     0.0259     3.481     1.242     1.161  0.1174  0.1481  0.9820
 
              Baa    -0.0098    -1.309    -0.467    -0.437  0.1044  0.1430  0.9842
    42 C(13)  Bbb     0.0041     0.553     0.197     0.185  0.8593  0.4852 -0.1616
              Bcc     0.0056     0.756     0.270     0.252 -0.5007  0.8626 -0.0722
 
              Baa    -0.0123    -1.651    -0.589    -0.551  0.7478  0.6478 -0.1455
    43 C(13)  Bbb    -0.0115    -1.541    -0.550    -0.514 -0.6619  0.7444 -0.0878
              Bcc     0.0238     3.192     1.139     1.065  0.0515  0.1620  0.9854
 
              Baa    -0.0090    -0.346    -0.123    -0.115 -0.0081  0.3213  0.9469
    44 N(14)  Bbb     0.0013     0.049     0.017     0.016  0.0933  0.9431 -0.3192
              Bcc     0.0077     0.297     0.106     0.099  0.9956 -0.0858  0.0377
 
              Baa    -0.0025    -0.429    -0.153    -0.143  0.1554  0.2024  0.9669
    45 B(11)  Bbb    -0.0009    -0.159    -0.057    -0.053  0.9573  0.2107 -0.1980
              Bcc     0.0034     0.589     0.210     0.196 -0.2438  0.9564 -0.1610
 
              Baa    -0.0158    -7.924    -2.828    -2.643  0.1819 -0.5472  0.8170
    46 F(19)  Bbb    -0.0111    -5.558    -1.983    -1.854  0.2007  0.8340  0.5139
              Bcc     0.0268    13.482     4.811     4.497  0.9626 -0.0705 -0.2615
 
              Baa    -0.0070    -3.519    -1.256    -1.174 -0.5056 -0.2009  0.8391
    47 F(19)  Bbb    -0.0025    -1.263    -0.451    -0.421  0.0763  0.9583  0.2754
              Bcc     0.0095     4.782     1.706     1.595  0.8594 -0.2032  0.4692
 
              Baa    -0.0008    -0.433    -0.154    -0.144  0.3964  0.3278  0.8576
    48 H(1)   Bbb    -0.0005    -0.250    -0.089    -0.083  0.9023  0.0332 -0.4298
              Bcc     0.0013     0.683     0.244     0.228 -0.1694  0.9441 -0.2827
 
              Baa    -0.0005    -0.244    -0.087    -0.081 -0.0116  0.1247  0.9921
    49 H(1)   Bbb    -0.0001    -0.055    -0.020    -0.018  0.9322  0.3603 -0.0344
              Bcc     0.0006     0.299     0.107     0.100 -0.3617  0.9245 -0.1204
 
              Baa    -0.0007    -0.389    -0.139    -0.130 -0.2653 -0.1156  0.9572
    50 H(1)   Bbb    -0.0003    -0.174    -0.062    -0.058  0.9559  0.0985  0.2769
              Bcc     0.0011     0.563     0.201     0.188 -0.1263  0.9884  0.0844
 
              Baa    -0.0028    -1.483    -0.529    -0.495  0.2610  0.9470 -0.1872
    51 H(1)   Bbb    -0.0010    -0.521    -0.186    -0.174  0.0059  0.1924  0.9813
              Bcc     0.0038     2.003     0.715     0.668  0.9653 -0.2572  0.0446
 
              Baa    -0.0059    -3.134    -1.118    -1.045  0.8223  0.5344 -0.1958
    52 H(1)   Bbb    -0.0020    -1.048    -0.374    -0.350  0.0987  0.2049  0.9738
              Bcc     0.0078     4.182     1.492     1.395 -0.5605  0.8200 -0.1157
 
              Baa    -0.0034    -1.816    -0.648    -0.606  0.3617  0.8420  0.4002
    53 H(1)   Bbb    -0.0019    -1.032    -0.368    -0.344 -0.4164 -0.2382  0.8774
              Bcc     0.0053     2.848     1.016     0.950  0.8341 -0.4840  0.2645
 
              Baa    -0.0027    -1.421    -0.507    -0.474 -0.0807  0.0786  0.9936
    54 H(1)   Bbb     0.0005     0.247     0.088     0.082 -0.0264  0.9964 -0.0809
              Bcc     0.0022     1.174     0.419     0.392  0.9964  0.0328  0.0783
 
              Baa    -0.0056    -2.968    -1.059    -0.990  0.8615 -0.4762  0.1761
    55 H(1)   Bbb    -0.0019    -0.999    -0.356    -0.333 -0.1575  0.0791  0.9843
              Bcc     0.0074     3.966     1.415     1.323  0.4826  0.8758  0.0068
 
              Baa    -0.0029    -1.572    -0.561    -0.525 -0.4602  0.4322  0.7756
    56 H(1)   Bbb    -0.0026    -1.370    -0.489    -0.457 -0.3938  0.6836 -0.6146
              Bcc     0.0055     2.943     1.050     0.982  0.7957  0.5882  0.1444
 
              Baa    -0.0016    -0.865    -0.309    -0.289  0.3804  0.8679 -0.3194
    57 H(1)   Bbb    -0.0009    -0.494    -0.176    -0.165  0.6766 -0.4966 -0.5437
              Bcc     0.0025     1.359     0.485     0.453  0.6305  0.0093  0.7762
 
              Baa    -0.0005    -0.250    -0.089    -0.084 -0.4818 -0.6135  0.6256
    58 H(1)   Bbb    -0.0004    -0.187    -0.067    -0.062 -0.1051  0.7493  0.6538
              Bcc     0.0008     0.437     0.156     0.146  0.8699 -0.2493  0.4255
 
              Baa    -0.0005    -0.242    -0.086    -0.081  0.3710  0.8885 -0.2700
    59 H(1)   Bbb    -0.0003    -0.160    -0.057    -0.053  0.4060  0.1064  0.9077
              Bcc     0.0008     0.402     0.144     0.134  0.8352 -0.4463 -0.3212
 
              Baa    -0.0020    -1.071    -0.382    -0.357  0.1214  0.8691 -0.4795
    60 H(1)   Bbb    -0.0007    -0.392    -0.140    -0.131  0.8832  0.1258  0.4517
              Bcc     0.0027     1.463     0.522     0.488 -0.4529  0.4783  0.7524
 
              Baa    -0.0017    -0.887    -0.316    -0.296 -0.3047  0.3972  0.8657
    61 H(1)   Bbb    -0.0009    -0.461    -0.165    -0.154  0.0509  0.9144 -0.4017
              Bcc     0.0025     1.348     0.481     0.450  0.9511  0.0783  0.2988
 
              Baa    -0.0018    -0.955    -0.341    -0.319  0.4004 -0.1250  0.9078
    62 H(1)   Bbb    -0.0006    -0.339    -0.121    -0.113  0.0836  0.9915  0.0997
              Bcc     0.0024     1.294     0.462     0.432  0.9125 -0.0360 -0.4075
 
              Baa    -0.0013    -0.686    -0.245    -0.229 -0.5738  0.6657 -0.4771
    63 H(1)   Bbb    -0.0011    -0.586    -0.209    -0.195 -0.1629  0.4781  0.8630
              Bcc     0.0024     1.271     0.454     0.424  0.8026  0.5730 -0.1659
 
              Baa    -0.0017    -0.895    -0.319    -0.298  0.1134  0.0393  0.9928
    64 H(1)   Bbb    -0.0006    -0.311    -0.111    -0.104 -0.2914  0.9566 -0.0045
              Bcc     0.0023     1.206     0.430     0.402  0.9498  0.2888 -0.1199
 
              Baa    -0.0024    -1.263    -0.451    -0.421  0.4549  0.8810 -0.1302
    65 H(1)   Bbb    -0.0020    -1.068    -0.381    -0.356  0.1303  0.0787  0.9883
              Bcc     0.0044     2.331     0.832     0.778  0.8810 -0.4665 -0.0790
 
              Baa    -0.0064    -3.425    -1.222    -1.142  0.9351 -0.3187 -0.1548
    66 H(1)   Bbb    -0.0016    -0.859    -0.306    -0.287  0.2203  0.1806  0.9586
              Bcc     0.0080     4.283     1.528     1.429  0.2775  0.9305 -0.2391
 
              Baa    -0.0009    -0.454    -0.162    -0.151 -0.1797  0.5362  0.8247
    67 H(1)   Bbb    -0.0008    -0.421    -0.150    -0.140 -0.5282  0.6547 -0.5408
              Bcc     0.0016     0.875     0.312     0.292  0.8299  0.5328 -0.1656
 
              Baa    -0.0005    -0.290    -0.104    -0.097  0.0894  0.0941  0.9915
    68 H(1)   Bbb    -0.0000    -0.017    -0.006    -0.006  0.4126  0.9026 -0.1229
              Bcc     0.0006     0.307     0.109     0.102  0.9065 -0.4201 -0.0419
 
              Baa    -0.0019    -1.032    -0.368    -0.344  0.6329  0.7477 -0.2011
    69 H(1)   Bbb    -0.0003    -0.157    -0.056    -0.052  0.1341  0.1499  0.9796
              Bcc     0.0022     1.189     0.424     0.397  0.7625 -0.6469 -0.0054
 
              Baa    -0.0007    -0.396    -0.141    -0.132  0.0253  0.0090  0.9996
    70 H(1)   Bbb    -0.0003    -0.182    -0.065    -0.061  0.9068  0.4208 -0.0267
              Bcc     0.0011     0.579     0.207     0.193 -0.4209  0.9071  0.0024
 
              Baa    -0.0014    -0.761    -0.272    -0.254  0.1264  0.0717  0.9894
    71 H(1)   Bbb    -0.0009    -0.487    -0.174    -0.162  0.9539 -0.2823 -0.1014
              Bcc     0.0023     1.248     0.445     0.416  0.2721  0.9566 -0.1041
 

 ---------------------------------------------------------------------------------

 No NMR shielding tensors so no spin-rotation constants.
 Leave Link  601 at Sat Oct 25 04:21:02 2025, MaxMem= 30870077440 cpu:             165.9 elap:               2.9
 (Enter /public/software/gauss/g16/l9999.exe)
 1\1\GINC-CU056\SP\UM062X\def2TZVPP\C33H24B1F2N5O6(1-,2)\BAIDING\25-Oct
 -2025\0\\#p M062X/DEF2TZVPP scrf=(solvent=water) em=GD3\\Energy calcul
 ation for BNP_24NO2_reduced\\-1,2\C,0,3.315167,-3.483294,0.296219\C,0,
 2.137231,-2.563771,0.18137\C,0,0.819772,-2.968882,0.232324\C,0,-0.0206
 34,-1.826628,0.088787\C,0,-1.432857,-1.715215,0.055119\C,0,-2.309523,-
 2.744708,0.321183\C,0,-3.735196,-2.745454,0.275383\C,0,-4.358908,-4.03
 56,0.26374\C,0,-5.694391,-4.240935,0.031426\C,0,-6.527772,-3.117727,-0
 .203272\N,0,-7.910692,-3.288765,-0.464799\O,0,-8.632006,-2.284611,-0.6
 77648\O,0,-8.378626,-4.452242,-0.484034\C,0,-6.003709,-1.830405,-0.138
 173\C,0,-4.655329,-1.635499,0.138156\N,0,-4.302428,-0.260265,0.393257\
 O,0,-4.953003,0.645435,-0.173146\O,0,-3.390995,-0.004185,1.204022\N,0,
 0.792074,-0.724177,-0.043494\C,0,2.117312,-1.125509,0.010177\C,0,3.144
 985,-0.172549,-0.07151\C,0,4.570051,-0.617263,-0.054755\C,0,5.326143,-
 0.524896,1.124976\C,0,6.651259,-0.944769,1.154119\C,0,7.215243,-1.4520
 55,-0.016985\N,0,8.605712,-1.89318,0.003137\O,0,9.238512,-1.801503,1.0
 60783\O,0,9.097313,-2.341965,-1.038223\C,0,6.493267,-1.552178,-1.20662
 6\C,0,5.167009,-1.135031,-1.215606\C,0,2.843229,1.209124,-0.163197\C,0
 ,3.696534,2.34377,-0.359672\C,0,5.187277,2.407274,-0.516465\C,0,2.8583
 95,3.450252,-0.404798\C,0,1.521276,3.031001,-0.230704\C,0,0.406505,3.9
 46956,-0.205368\C,0,-0.891731,3.71533,0.120432\C,0,-1.982349,4.687025,
 0.104083\C,0,-1.808361,6.068979,-0.122492\C,0,-2.899821,6.932425,-0.12
 832\C,0,-4.192992,6.443847,0.090896\C,0,-4.383395,5.078491,0.317405\C,
 0,-3.292797,4.21121,0.327033\N,0,1.522043,1.66087,-0.096863\B,0,0.2964
 2,0.733598,0.015768\F,0,-0.374684,0.943225,1.240184\F,0,-0.601287,0.97
 4816,-1.040638\H,0,4.007841,-3.166623,1.081859\H,0,2.969569,-4.492651,
 0.534541\H,0,3.88881,-3.535567,-0.634579\H,0,0.474721,-3.988199,0.3414
 63\H,0,-1.812938,-0.741551,-0.21072\H,0,-1.881661,-3.721057,0.538622\H
 ,0,-3.715628,-4.898239,0.406801\H,0,-6.111248,-5.238997,0.009915\H,0,-
 6.654926,-0.975354,-0.249971\H,0,4.870513,-0.126545,2.02495\H,0,7.2380
 88,-0.883272,2.061475\H,0,6.96157,-1.947715,-2.098667\H,0,4.589311,-1.
 206104,-2.13068\H,0,5.714117,2.139719,0.405261\H,0,5.551453,1.735307,-
 1.299278\H,0,5.481129,3.42611,-0.783405\H,0,3.165709,4.479013,-0.54182
 1\H,0,0.703865,4.95635,-0.482312\H,0,-1.189999,2.724622,0.43432\H,0,-0
 .813225,6.470488,-0.287422\H,0,-2.743453,7.993269,-0.301795\H,0,-5.041
 173,7.121821,0.085647\H,0,-5.383013,4.688791,0.486625\H,0,-3.449658,3.
 147324,0.492422\\Version=ES64L-G16RevA.03\State=2-A\HF=-2221.649668\S2
 =0.836442\S2-1=0.\S2A=0.753618\RMSD=6.872e-09\Dipole=6.7685386,0.28616
 63,0.0097406\Quadrupole=-107.2217682,57.8035738,49.4181944,-14.5223317
 ,-9.0913451,-5.7256626\PG=C01 [X(C33H24B1F2N5O6)]\\@


 LET US LEARN TO DREAM, GENTLEMEN, THEN PERHAPS WE SHALL
 DISCOVER THE TRUTH;  BUT LET US BEWARE OF PUBLISHING
 OUR DREAMS ABROAD BEFORE THEY HAVE BEEN SCRUTINIZED
 BY OUR VIGILANT INTELLECT ... LET US ALWAYS ALLOW
 THE FRUIT TO HANG UNTIL IT IS RIPE.  UNRIPE FRUIT
 BRINGS EVEN THE GROWER BUT LITTLE PROFIT; IT DAMAGES
 THE HEALTH OF THOSE WHO CONSUME IT; IT ENDANGERS
 PARTICULARLY THE YOUTH WHO CANNOT YET DISTINGUISH
 BETWEEN RIPE AND UNRIPE FRUIT.

                                  -- KEKULE, 1890
 Job cpu time:       1 days 19 hours 19 minutes 40.0 seconds.
 Elapsed time:       0 days  0 hours 41 minutes  3.7 seconds.
 File lengths (MBytes):  RWF=   3429 Int=      0 D2E=      0 Chk=    224 Scr=      1
 Normal termination of Gaussian 16 at Sat Oct 25 04:21:03 2025.
