 Entering Gaussian System, Link 0=g16
 Input=BNP_CHO_reduced_sp.gjf
 Output=BNP_CHO_reduced_sp.log
 Initial command:
 /public/software/gauss/g16/l1.exe "/public/home/baiding/1024_sp/tmp_BNP_CHO_reduced_sp_1526250/Gau-2949701.inp" -scrdir="/public/home/baiding/1024_sp/tmp_BNP_CHO_reduced_sp_1526250/"
 Entering Link 1 = /public/software/gauss/g16/l1.exe PID=   2949702.
  
 Copyright (c) 1988,1990,1992,1993,1995,1998,2003,2009,2016,
            Gaussian, Inc.  All Rights Reserved.
  
 This is part of the Gaussian(R) 16 program.  It is based on
 the Gaussian(R) 09 system (copyright 2009, Gaussian, Inc.),
 the Gaussian(R) 03 system (copyright 2003, Gaussian, Inc.),
 the Gaussian(R) 98 system (copyright 1998, Gaussian, Inc.),
 the Gaussian(R) 94 system (copyright 1995, Gaussian, Inc.),
 the Gaussian 92(TM) system (copyright 1992, Gaussian, Inc.),
 the Gaussian 90(TM) system (copyright 1990, Gaussian, Inc.),
 the Gaussian 88(TM) system (copyright 1988, Gaussian, Inc.),
 the Gaussian 86(TM) system (copyright 1986, Carnegie Mellon
 University), and the Gaussian 82(TM) system (copyright 1983,
 Carnegie Mellon University). Gaussian is a federally registered
 trademark of Gaussian, Inc.
  
 This software contains proprietary and confidential information,
 including trade secrets, belonging to Gaussian, Inc.
  
 This software is provided under written license and may be
 used, copied, transmitted, or stored only in accord with that
 written license.
  
 The following legend is applicable only to US Government
 contracts under FAR:
  
                    RESTRICTED RIGHTS LEGEND
  
 Use, reproduction and disclosure by the US Government is
 subject to restrictions as set forth in subparagraphs (a)
 and (c) of the Commercial Computer Software - Restricted
 Rights clause in FAR 52.227-19.
  
 Gaussian, Inc.
 340 Quinnipiac St., Bldg. 40, Wallingford CT 06492
  
  
 ---------------------------------------------------------------
 Warning -- This program may not be used in any manner that
 competes with the business of Gaussian, Inc. or will provide
 assistance to any competitor of Gaussian, Inc.  The licensee
 of this program is prohibited from giving any competitor of
 Gaussian, Inc. access to this program.  By using this program,
 the user acknowledges that Gaussian, Inc. is engaged in the
 business of creating and licensing software in the field of
 computational chemistry and represents and warrants to the
 licensee that it is not a competitor of Gaussian, Inc. and that
 it will not use this program in any manner prohibited above.
 ---------------------------------------------------------------
  

 Cite this work as:
 Gaussian 16, Revision A.03,
 M. J. Frisch, G. W. Trucks, H. B. Schlegel, G. E. Scuseria, 
 M. A. Robb, J. R. Cheeseman, G. Scalmani, V. Barone, 
 G. A. Petersson, H. Nakatsuji, X. Li, M. Caricato, A. V. Marenich, 
 J. Bloino, B. G. Janesko, R. Gomperts, B. Mennucci, H. P. Hratchian, 
 J. V. Ortiz, A. F. Izmaylov, J. L. Sonnenberg, D. Williams-Young, 
 F. Ding, F. Lipparini, F. Egidi, J. Goings, B. Peng, A. Petrone, 
 T. Henderson, D. Ranasinghe, V. G. Zakrzewski, J. Gao, N. Rega, 
 G. Zheng, W. Liang, M. Hada, M. Ehara, K. Toyota, R. Fukuda, 
 J. Hasegawa, M. Ishida, T. Nakajima, Y. Honda, O. Kitao, H. Nakai, 
 T. Vreven, K. Throssell, J. A. Montgomery, Jr., J. E. Peralta, 
 F. Ogliaro, M. J. Bearpark, J. J. Heyd, E. N. Brothers, K. N. Kudin, 
 V. N. Staroverov, T. A. Keith, R. Kobayashi, J. Normand, 
 K. Raghavachari, A. P. Rendell, J. C. Burant, S. S. Iyengar, 
 J. Tomasi, M. Cossi, J. M. Millam, M. Klene, C. Adamo, R. Cammi, 
 J. W. Ochterski, R. L. Martin, K. Morokuma, O. Farkas, 
 J. B. Foresman, and D. J. Fox, Gaussian, Inc., Wallingford CT, 2016.
 
 ******************************************
 Gaussian 16:  ES64L-G16RevA.03 25-Dec-2016
                25-Oct-2025 
 ******************************************
 %nprocshared=64
 Will use up to   64 processors via shared memory.
 %mem=230GB
 %chk=BNP_CHO_reduced_sp.chk
 ----------------------------------------------
 #p M062X/DEF2TZVPP scrf=(solvent=water) em=GD3
 ----------------------------------------------
 1/38=1,172=1/1;
 2/12=2,17=6,18=5,40=1/2;
 3/5=44,7=202,11=2,25=1,30=1,70=2201,72=1,74=-55,124=31/1,2,3;
 4//1;
 5/5=2,38=5,53=1/2;
 6/7=2,8=2,9=2,10=2,28=1/1;
 99/5=1,9=1/99;
 Leave Link    1 at Sat Oct 25 05:23:03 2025, MaxMem= 30870077440 cpu:              18.1 elap:               0.3
 (Enter /public/software/gauss/g16/l101.exe)
 --------------------------------------
 Energy calculation for BNP_CHO_reduced
 --------------------------------------
 Symbolic Z-matrix:
 Charge = -1 Multiplicity = 2
 C                     2.72293  -3.70891   0.36317 
 C                     1.53986  -2.81145   0.14448 
 C                     0.22703  -3.27001   0.12371 
 C                    -0.64115  -2.16838  -0.01109 
 C                    -2.07188  -2.14303  -0.07454 
 C                    -2.87296  -3.23527   0.08627 
 C                    -4.32073  -3.25429   0.01062 
 C                    -5.11012  -2.11113  -0.26966 
 C                    -6.49082  -2.19912  -0.32339 
 C                    -7.14633  -3.42611  -0.10137 
 C                    -8.60296  -3.48814  -0.16283 
 O                    -9.27692  -4.5053    0.01829 
 C                    -6.37344  -4.57073   0.17701 
 C                    -4.99447  -4.48379   0.23054 
 N                     0.13135  -1.02493  -0.08853 
 C                     1.47338  -1.38545  -0.01383 
 C                     2.48729  -0.38583  -0.03506 
 C                     3.90865  -0.76542  -0.01968 
 C                     4.76654  -0.32027   1.01238 
 C                     6.1032   -0.67607   1.04164 
 C                     6.62295  -1.47522   0.00847 
 N                     8.00007  -1.83748   0.02439 
 O                     8.4531   -2.56567  -0.89346 
 O                     8.73178  -1.42125   0.95675 
 C                     5.79934  -1.92016  -1.04022 
 C                     4.45971  -1.57504  -1.03956 
 C                     2.12352   0.98888  -0.07895 
 C                     2.90523   2.1708   -0.30385 
 C                     4.37127   2.31831  -0.58949 
 C                     2.01242   3.23873  -0.30057 
 C                     0.70726   2.74352  -0.11231 
 C                    -0.53781   3.46622  -0.06282 
 C                    -0.63108   4.82074  -0.01806 
 C                    -1.85769   5.61272   0.01619 
 C                    -3.15442   5.05288  -0.00208 
 C                    -4.28355   5.86548   0.03399 
 C                    -4.1576    7.25847   0.08865 
 C                    -2.88331   7.8303    0.10719 
 C                    -1.75116   7.01865   0.07187 
 N                     0.78721   1.3727    0.00442 
 B                    -0.39711   0.40261   0.17382 
 F                    -0.93895   0.49186   1.47164 
 F                    -1.41831   0.71894  -0.75056 
 H                     3.28997  -3.90172  -0.55357 
 H                     3.42584  -3.29178   1.09011 
 H                     2.37668  -4.67439   0.74373 
 H                    -0.07823  -4.30514   0.20169 
 H                    -2.51957  -1.17646  -0.27795 
 H                    -2.41067  -4.19756   0.29658 
 H                    -4.6336   -1.1528   -0.4462 
 H                    -7.08301  -1.31352  -0.54006 
 H                    -9.10208  -2.52621  -0.39142 
 H                    -6.87421  -5.51855   0.34848 
 H                    -4.40466  -5.37036   0.44627 
 H                     4.36017   0.28943   1.81234 
 H                     6.7471   -0.35747   1.85127 
 H                     6.22021  -2.5154   -1.84027 
 H                     3.82478  -1.9061   -1.85426 
 H                     4.73085   1.56363  -1.29506 
 H                     4.5577    3.30452  -1.02491 
 H                     4.99179   2.23339   0.30912 
 H                     2.27244   4.27616  -0.46358 
 H                    -1.43958   2.86454  -0.07044 
 H                     0.28668   5.40605  -0.00204 
 H                    -3.28118   3.97583  -0.04503 
 H                    -5.27011   5.41097   0.01891 
 H                    -5.04228   7.88742   0.11578 
 H                    -2.77039   8.90983   0.14928 
 H                    -0.7625    7.47003   0.08694 
 
 ITRead=  0  0  0  0  0  0  0  0  0  0  0  0  0  0  0  0  0  0  0  0
 ITRead=  0  0  0  0  0  0  0  0  0  0  0  0  0  0  0  0  0  0  0  0
 ITRead=  0  0  0  0  0  0  0  0  0  0  0  0  0  0  0  0  0  0  0  0
 ITRead=  0  0  0  0  0  0  0  0  0
 MicOpt= -1 -1 -1 -1 -1 -1 -1 -1 -1 -1 -1 -1 -1 -1 -1 -1 -1 -1 -1 -1
 MicOpt= -1 -1 -1 -1 -1 -1 -1 -1 -1 -1 -1 -1 -1 -1 -1 -1 -1 -1 -1 -1
 MicOpt= -1 -1 -1 -1 -1 -1 -1 -1 -1 -1 -1 -1 -1 -1 -1 -1 -1 -1 -1 -1
 MicOpt= -1 -1 -1 -1 -1 -1 -1 -1 -1
 NAtoms=     69 NQM=       69 NQMF=       0 NMMI=      0 NMMIF=      0
                NMic=       0 NMicF=      0.
                    Isotopes and Nuclear Properties:
 (Nuclear quadrupole moments (NQMom) in fm**2, nuclear magnetic moments (NMagM)
  in nuclear magnetons)

  Atom         1           2           3           4           5           6           7           8           9          10
 IAtWgt=          12          12          12          12          12          12          12          12          12          12
 AtmWgt=  12.0000000  12.0000000  12.0000000  12.0000000  12.0000000  12.0000000  12.0000000  12.0000000  12.0000000  12.0000000
 NucSpn=           0           0           0           0           0           0           0           0           0           0
 AtZEff=  -0.0000000  -0.0000000  -0.0000000  -0.0000000  -0.0000000  -0.0000000  -0.0000000  -0.0000000  -0.0000000  -0.0000000
 NQMom=    0.0000000   0.0000000   0.0000000   0.0000000   0.0000000   0.0000000   0.0000000   0.0000000   0.0000000   0.0000000
 NMagM=    0.0000000   0.0000000   0.0000000   0.0000000   0.0000000   0.0000000   0.0000000   0.0000000   0.0000000   0.0000000
 AtZNuc=   6.0000000   6.0000000   6.0000000   6.0000000   6.0000000   6.0000000   6.0000000   6.0000000   6.0000000   6.0000000

  Atom        11          12          13          14          15          16          17          18          19          20
 IAtWgt=          12          16          12          12          14          12          12          12          12          12
 AtmWgt=  12.0000000  15.9949146  12.0000000  12.0000000  14.0030740  12.0000000  12.0000000  12.0000000  12.0000000  12.0000000
 NucSpn=           0           0           0           0           2           0           0           0           0           0
 AtZEff=  -0.0000000  -0.0000000  -0.0000000  -0.0000000  -0.0000000  -0.0000000  -0.0000000  -0.0000000  -0.0000000  -0.0000000
 NQMom=    0.0000000   0.0000000   0.0000000   0.0000000   2.0440000   0.0000000   0.0000000   0.0000000   0.0000000   0.0000000
 NMagM=    0.0000000   0.0000000   0.0000000   0.0000000   0.4037610   0.0000000   0.0000000   0.0000000   0.0000000   0.0000000
 AtZNuc=   6.0000000   8.0000000   6.0000000   6.0000000   7.0000000   6.0000000   6.0000000   6.0000000   6.0000000   6.0000000

  Atom        21          22          23          24          25          26          27          28          29          30
 IAtWgt=          12          14          16          16          12          12          12          12          12          12
 AtmWgt=  12.0000000  14.0030740  15.9949146  15.9949146  12.0000000  12.0000000  12.0000000  12.0000000  12.0000000  12.0000000
 NucSpn=           0           2           0           0           0           0           0           0           0           0
 AtZEff=  -0.0000000  -0.0000000  -0.0000000  -0.0000000  -0.0000000  -0.0000000  -0.0000000  -0.0000000  -0.0000000  -0.0000000
 NQMom=    0.0000000   2.0440000   0.0000000   0.0000000   0.0000000   0.0000000   0.0000000   0.0000000   0.0000000   0.0000000
 NMagM=    0.0000000   0.4037610   0.0000000   0.0000000   0.0000000   0.0000000   0.0000000   0.0000000   0.0000000   0.0000000
 AtZNuc=   6.0000000   7.0000000   8.0000000   8.0000000   6.0000000   6.0000000   6.0000000   6.0000000   6.0000000   6.0000000

  Atom        31          32          33          34          35          36          37          38          39          40
 IAtWgt=          12          12          12          12          12          12          12          12          12          14
 AtmWgt=  12.0000000  12.0000000  12.0000000  12.0000000  12.0000000  12.0000000  12.0000000  12.0000000  12.0000000  14.0030740
 NucSpn=           0           0           0           0           0           0           0           0           0           2
 AtZEff=  -0.0000000  -0.0000000  -0.0000000  -0.0000000  -0.0000000  -0.0000000  -0.0000000  -0.0000000  -0.0000000  -0.0000000
 NQMom=    0.0000000   0.0000000   0.0000000   0.0000000   0.0000000   0.0000000   0.0000000   0.0000000   0.0000000   2.0440000
 NMagM=    0.0000000   0.0000000   0.0000000   0.0000000   0.0000000   0.0000000   0.0000000   0.0000000   0.0000000   0.4037610
 AtZNuc=   6.0000000   6.0000000   6.0000000   6.0000000   6.0000000   6.0000000   6.0000000   6.0000000   6.0000000   7.0000000

  Atom        41          42          43          44          45          46          47          48          49          50
 IAtWgt=          11          19          19           1           1           1           1           1           1           1
 AtmWgt=  11.0093053  18.9984033  18.9984033   1.0078250   1.0078250   1.0078250   1.0078250   1.0078250   1.0078250   1.0078250
 NucSpn=           3           1           1           1           1           1           1           1           1           1
 AtZEff=  -0.0000000  -0.0000000  -0.0000000  -0.0000000  -0.0000000  -0.0000000  -0.0000000  -0.0000000  -0.0000000  -0.0000000
 NQMom=    4.0590000   0.0000000   0.0000000   0.0000000   0.0000000   0.0000000   0.0000000   0.0000000   0.0000000   0.0000000
 NMagM=    2.6886370   2.6288670   2.6288670   2.7928460   2.7928460   2.7928460   2.7928460   2.7928460   2.7928460   2.7928460
 AtZNuc=   5.0000000   9.0000000   9.0000000   1.0000000   1.0000000   1.0000000   1.0000000   1.0000000   1.0000000   1.0000000

  Atom        51          52          53          54          55          56          57          58          59          60
 IAtWgt=           1           1           1           1           1           1           1           1           1           1
 AtmWgt=   1.0078250   1.0078250   1.0078250   1.0078250   1.0078250   1.0078250   1.0078250   1.0078250   1.0078250   1.0078250
 NucSpn=           1           1           1           1           1           1           1           1           1           1
 AtZEff=  -0.0000000  -0.0000000  -0.0000000  -0.0000000  -0.0000000  -0.0000000  -0.0000000  -0.0000000  -0.0000000  -0.0000000
 NQMom=    0.0000000   0.0000000   0.0000000   0.0000000   0.0000000   0.0000000   0.0000000   0.0000000   0.0000000   0.0000000
 NMagM=    2.7928460   2.7928460   2.7928460   2.7928460   2.7928460   2.7928460   2.7928460   2.7928460   2.7928460   2.7928460
 AtZNuc=   1.0000000   1.0000000   1.0000000   1.0000000   1.0000000   1.0000000   1.0000000   1.0000000   1.0000000   1.0000000

  Atom        61          62          63          64          65          66          67          68          69
 IAtWgt=           1           1           1           1           1           1           1           1           1
 AtmWgt=   1.0078250   1.0078250   1.0078250   1.0078250   1.0078250   1.0078250   1.0078250   1.0078250   1.0078250
 NucSpn=           1           1           1           1           1           1           1           1           1
 AtZEff=  -0.0000000  -0.0000000  -0.0000000  -0.0000000  -0.0000000  -0.0000000  -0.0000000  -0.0000000  -0.0000000
 NQMom=    0.0000000   0.0000000   0.0000000   0.0000000   0.0000000   0.0000000   0.0000000   0.0000000   0.0000000
 NMagM=    2.7928460   2.7928460   2.7928460   2.7928460   2.7928460   2.7928460   2.7928460   2.7928460   2.7928460
 AtZNuc=   1.0000000   1.0000000   1.0000000   1.0000000   1.0000000   1.0000000   1.0000000   1.0000000   1.0000000
 Leave Link  101 at Sat Oct 25 05:23:03 2025, MaxMem= 30870077440 cpu:               3.8 elap:               0.1
 (Enter /public/software/gauss/g16/l202.exe)
 Stoichiometry    C34H26BF2N3O3(1-,2)
 Framework group  C1[X(C34H26BF2N3O3)]
 Deg. of freedom   201
 Full point group                 C1      NOp   1
 Largest Abelian subgroup         C1      NOp   1
 Largest concise Abelian subgroup C1      NOp   1
                         Standard orientation:                         
 ---------------------------------------------------------------------
 Center     Atomic      Atomic             Coordinates (Angstroms)
 Number     Number       Type             X           Y           Z
 ---------------------------------------------------------------------
      1          6           0        2.722932   -3.708914    0.363167
      2          6           0        1.539855   -2.811452    0.144478
      3          6           0        0.227034   -3.270010    0.123705
      4          6           0       -0.641154   -2.168382   -0.011092
      5          6           0       -2.071881   -2.143025   -0.074540
      6          6           0       -2.872957   -3.235267    0.086274
      7          6           0       -4.320735   -3.254291    0.010623
      8          6           0       -5.110122   -2.111129   -0.269657
      9          6           0       -6.490821   -2.199124   -0.323386
     10          6           0       -7.146329   -3.426112   -0.101374
     11          6           0       -8.602956   -3.488140   -0.162829
     12          8           0       -9.276919   -4.505304    0.018285
     13          6           0       -6.373440   -4.570729    0.177013
     14          6           0       -4.994473   -4.483792    0.230539
     15          7           0        0.131348   -1.024930   -0.088529
     16          6           0        1.473384   -1.385454   -0.013827
     17          6           0        2.487289   -0.385829   -0.035062
     18          6           0        3.908649   -0.765416   -0.019684
     19          6           0        4.766539   -0.320270    1.012376
     20          6           0        6.103204   -0.676068    1.041642
     21          6           0        6.622948   -1.475218    0.008474
     22          7           0        8.000074   -1.837476    0.024391
     23          8           0        8.453097   -2.565668   -0.893462
     24          8           0        8.731777   -1.421247    0.956745
     25          6           0        5.799340   -1.920163   -1.040219
     26          6           0        4.459714   -1.575044   -1.039562
     27          6           0        2.123520    0.988877   -0.078950
     28          6           0        2.905227    2.170802   -0.303846
     29          6           0        4.371266    2.318306   -0.589485
     30          6           0        2.012419    3.238734   -0.300565
     31          6           0        0.707261    2.743515   -0.112311
     32          6           0       -0.537812    3.466217   -0.062815
     33          6           0       -0.631077    4.820739   -0.018056
     34          6           0       -1.857686    5.612717    0.016190
     35          6           0       -3.154416    5.052884   -0.002084
     36          6           0       -4.283554    5.865480    0.033994
     37          6           0       -4.157603    7.258474    0.088651
     38          6           0       -2.883305    7.830301    0.107188
     39          6           0       -1.751158    7.018646    0.071865
     40          7           0        0.787210    1.372695    0.004419
     41          5           0       -0.397111    0.402605    0.173818
     42          9           0       -0.938945    0.491863    1.471639
     43          9           0       -1.418308    0.718936   -0.750564
     44          1           0        3.289970   -3.901718   -0.553567
     45          1           0        3.425835   -3.291779    1.090106
     46          1           0        2.376681   -4.674390    0.743730
     47          1           0       -0.078225   -4.305136    0.201690
     48          1           0       -2.519572   -1.176464   -0.277949
     49          1           0       -2.410665   -4.197557    0.296580
     50          1           0       -4.633598   -1.152802   -0.446196
     51          1           0       -7.083012   -1.313519   -0.540056
     52          1           0       -9.102079   -2.526212   -0.391416
     53          1           0       -6.874206   -5.518549    0.348477
     54          1           0       -4.404663   -5.370361    0.446267
     55          1           0        4.360173    0.289434    1.812341
     56          1           0        6.747098   -0.357472    1.851272
     57          1           0        6.220208   -2.515395   -1.840266
     58          1           0        3.824779   -1.906104   -1.854256
     59          1           0        4.730848    1.563631   -1.295062
     60          1           0        4.557704    3.304521   -1.024909
     61          1           0        4.991788    2.233390    0.309120
     62          1           0        2.272441    4.276161   -0.463575
     63          1           0       -1.439583    2.864538   -0.070442
     64          1           0        0.286677    5.406046   -0.002040
     65          1           0       -3.281179    3.975831   -0.045032
     66          1           0       -5.270106    5.410972    0.018909
     67          1           0       -5.042279    7.887419    0.115783
     68          1           0       -2.770385    8.909832    0.149275
     69          1           0       -0.762497    7.470025    0.086937
 ---------------------------------------------------------------------
 Rotational constants (GHZ):           0.0740494           0.0409404           0.0268223
 Leave Link  202 at Sat Oct 25 05:23:03 2025, MaxMem= 30870077440 cpu:               0.2 elap:               0.0
 (Enter /public/software/gauss/g16/l301.exe)
 Standard basis: def2TZVPP (5D, 7F)
 Ernie: Thresh=  0.10000D-02 Tol=  0.10000D-05 Strict=F.
 There are  1938 symmetry adapted cartesian basis functions of A   symmetry.
 There are  1697 symmetry adapted basis functions of A   symmetry.
  1697 basis functions,  2635 primitive gaussians,  1938 cartesian basis functions
   150 alpha electrons      149 beta electrons
       nuclear repulsion energy      4519.3906579462 Hartrees.
 IExCor= 4336 DFT=T Ex+Corr=M062X ExCW=0 ScaHFX=  0.540000
 ScaDFX=  1.000000  1.000000  1.000000  1.000000 ScalE2=  1.000000  1.000000
 IRadAn=      5 IRanWt=     -1 IRanGd=            0 ICorTp=0 IEmpDi=131
 NAtoms=   69 NActive=   69 NUniq=   69 SFac= 1.00D+00 NAtFMM=   60 NAOKFM=T Big=T
 Integral buffers will be    131072 words long.
 Raffenetti 2 integral format.
 Two-electron integral symmetry is turned on.
 R6Disp:  Grimme-D3 Dispersion energy=       -0.0055074739 Hartrees.
 Nuclear repulsion after empirical dispersion term =     4519.3851504723 Hartrees.
 ------------------------------------------------------------------------------
 Polarizable Continuum Model (PCM)
 =================================
 Model                : PCM.
 Atomic radii         : UFF (Universal Force Field).
 Polarization charges : Total charges.
 Charge compensation  : None.
 Solution method      : On-the-fly selection.
 Cavity type          : Scaled VdW (van der Waals Surface) (Alpha=1.100).
 Cavity algorithm     : GePol (No added spheres)
                        Default sphere list used, NSphG=   69.
                        Lebedev-Laikov grids with approx.  5.0 points / Ang**2.
                        Smoothing algorithm: York/Karplus (Gamma=1.0000).
                        Polarization charges: spherical gaussians, with
                                              point-specific exponents (IZeta= 3).
                        Self-potential: point-specific (ISelfS= 7).
                        Self-field    : sphere-specific E.n sum rule (ISelfD= 2).
 Solvent              : Water, Eps=  78.355300 Eps(inf)=   1.777849
 ------------------------------------------------------------------------------
 GePol: Number of generator spheres                  =      69
 GePol: Total number of spheres                      =      69
 GePol: Number of exposed spheres                    =      69 (100.00%)
 GePol: Number of points                             =    5126
 GePol: Average weight of points                     =       0.13
 GePol: Minimum weight of points                     =   0.85D-11
 GePol: Maximum weight of points                     =    0.20577
 GePol: Number of points with low weight             =     324
 GePol: Fraction of low-weight points (<1% of avg)   =       6.32%
 GePol: Cavity surface area                          =    652.236 Ang**2
 GePol: Cavity volume                                =    751.923 Ang**3
 Leave Link  301 at Sat Oct 25 05:23:04 2025, MaxMem= 30870077440 cpu:               3.8 elap:               0.1
 (Enter /public/software/gauss/g16/l302.exe)
 NPDir=0 NMtPBC=     1 NCelOv=     1 NCel=       1 NClECP=     1 NCelD=      1
         NCelK=      1 NCelE2=     1 NClLst=     1 CellRange=     0.0.
 One-electron integrals computed using PRISM.
 One-electron integral symmetry used in STVInt
   1 Symmetry operations used in ECPInt.
 ECPInt:  NShTT=  198135 NPrTT=  571870 LenC2=  127377 LenP2D=  247863.
 LDataN:  DoStor=T MaxTD1= 6 Len=  172
 NBasis=  1697 RedAO= T EigKep=  5.31D-06  NBF=  1697
 NBsUse=  1697 1.00D-06 EigRej= -1.00D+00 NBFU=  1697
 Precomputing XC quadrature grid using
 IXCGrd= 4 IRadAn=           5 IRanWt=          -1 IRanGd=           0 AccXCQ= 0.00D+00.
 Generated NRdTot=       0 NPtTot=           0 NUsed=           0 NTot=          32
 NSgBfM=  1726  1726  1726  1726  1726 MxSgAt=    69 MxSgA2=    69.
 Leave Link  302 at Sat Oct 25 05:23:11 2025, MaxMem= 30870077440 cpu:             488.9 elap:               7.7
 (Enter /public/software/gauss/g16/l303.exe)
 DipDrv:  MaxL=1.
 Leave Link  303 at Sat Oct 25 05:23:12 2025, MaxMem= 30870077440 cpu:              23.3 elap:               0.4
 (Enter /public/software/gauss/g16/l401.exe)
 ExpMin= 6.06D-02 ExpMax= 3.55D+04 ExpMxC= 1.21D+03 IAcc=3 IRadAn=         5 AccDes= 0.00D+00
 Harris functional with IExCor= 1009 and IRadAn=       5 diagonalized for initial guess.
 HarFok:  IExCor= 1009 AccDes= 0.00D+00 IRadAn=         5 IDoV= 1 UseB2=F ITyADJ=14
 ICtDFT=  3500011 ScaDFX=  1.000000  1.000000  1.000000  1.000000
 FoFCou: FMM=F IPFlag=           0 FMFlag=      100000 FMFlg1=        2001
         NFxFlg=           0 DoJE=T BraDBF=F KetDBF=T FulRan=T
         wScrn=  0.000000 ICntrl=       500 IOpCl=  0 I1Cent=   200000004 NGrid=           0
         NMat0=    1 NMatS0=      1 NMatT0=    0 NMatD0=    1 NMtDS0=    0 NMtDT0=    0
 Petite list used in FoFCou.
 Harris En= -1925.06815596326    
 JPrj=0 DoOrth=F DoCkMO=F.
 Initial guess <Sx>= 0.0000 <Sy>= 0.0000 <Sz>= 0.5000 <S**2>= 0.7500 S= 0.5000
 Leave Link  401 at Sat Oct 25 05:23:21 2025, MaxMem= 30870077440 cpu:             594.4 elap:               9.4
 (Enter /public/software/gauss/g16/l502.exe)
 Integral symmetry usage will be decided dynamically.
 UHF open shell SCF:
 Using DIIS extrapolation, IDIIS=  1040.
 NGot= 30870077440 LenX= 30862425455 LenY= 30858667673
 Requested convergence on RMS density matrix=1.00D-08 within 128 cycles.
 Requested convergence on MAX density matrix=1.00D-06.
 Requested convergence on             energy=1.00D-06.
 No special actions if energy rises.
 Fock matrices will be formed incrementally for  20 cycles.

 Cycle   1  Pass 1  IDiag  1:
 FoFJK:  IHMeth= 1 ICntrl=       0 DoSepK=F KAlg= 0 I1Cent=           0 FoldK=F
 IRaf= 610000000 NMat=       1 IRICut=       1 DoRegI=T DoRafI=F ISym2E= 0 IDoP0=0 IntGTp=1.
 FoFCou: FMM=T IPFlag=           0 FMFlag=      100000 FMFlg1=        2001
         NFxFlg=           0 DoJE=F BraDBF=F KetDBF=F FulRan=T
         wScrn=  0.000000 ICntrl=         0 IOpCl=  1 I1Cent=           0 NGrid=           0
         NMat0=    1 NMatS0=      1 NMatT0=    0 NMatD0=    1 NMtDS0=    0 NMtDT0=    0
 Symmetry not used in FoFCou.
 FMM levels:  10  Number of levels for PrismC:   9
 Inv3:  Mode=1 IEnd=    78827628.
 Iteration    1 A*A^-1 deviation from unit magnitude is 1.82D-14 for   5115.
 Iteration    1 A*A^-1 deviation from orthogonality  is 6.25D-15 for   5115   1718.
 Iteration    1 A^-1*A deviation from unit magnitude is 1.82D-14 for   5115.
 Iteration    1 A^-1*A deviation from orthogonality  is 6.91D-15 for   4662   1040.
 E= -1924.90262021724    
 DIIS: error= 3.16D-02 at cycle   1 NSaved=   1.
 NSaved= 1 IEnMin= 1 EnMin= -1924.90262021724     IErMin= 1 ErrMin= 3.16D-02
 ErrMax= 3.16D-02  0.00D+00 EMaxC= 1.00D-01 BMatC= 5.42D+00 BMatP= 5.42D+00
 IDIUse=3 WtCom= 6.84D-01 WtEn= 3.16D-01
 Coeff-Com:  0.100D+01
 Coeff-En:   0.100D+01
 Coeff:      0.100D+01
 Gap=     0.105 Goal=   None    Shift=    0.000
 Gap=     0.125 Goal=   None    Shift=    0.000
 GapD=    0.105 DampG=1.000 DampE=0.500 DampFc=0.5000 IDamp=-1.
 Damping current iteration by 5.00D-01
 RMSDP=1.82D-03 MaxDP=6.14D-01              OVMax= 7.69D-01

 Cycle   2  Pass 1  IDiag  1:
 RMSU=  9.07D-04    CP:  9.94D-01
 E= -1925.39348364575     Delta-E=       -0.490863428507 Rises=F Damp=T
 DIIS: error= 8.27D-03 at cycle   2 NSaved=   2.
 NSaved= 2 IEnMin= 2 EnMin= -1925.39348364575     IErMin= 2 ErrMin= 8.27D-03
 ErrMax= 8.27D-03  0.00D+00 EMaxC= 1.00D-01 BMatC= 5.68D-01 BMatP= 5.42D+00
 IDIUse=3 WtCom= 9.17D-01 WtEn= 8.27D-02
 Coeff-Com: -0.476D-01 0.105D+01
 Coeff-En:   0.000D+00 0.100D+01
 Coeff:     -0.437D-01 0.104D+01
 Gap=     0.011 Goal=   None    Shift=    0.000
 Gap=     0.226 Goal=   None    Shift=    0.000
 RMSDP=7.51D-04 MaxDP=1.37D-01 DE=-4.91D-01 OVMax= 7.00D-01

 Cycle   3  Pass 1  IDiag  1:
 RMSU=  7.36D-04    CP:  9.87D-01  1.16D+00
 E= -1925.86619544241     Delta-E=       -0.472711796668 Rises=F Damp=F
 DIIS: error= 1.95D-02 at cycle   3 NSaved=   3.
 NSaved= 3 IEnMin= 3 EnMin= -1925.86619544241     IErMin= 2 ErrMin= 8.27D-03
 ErrMax= 1.95D-02  0.00D+00 EMaxC= 1.00D-01 BMatC= 4.27D-01 BMatP= 5.68D-01
 IDIUse=3 WtCom= 8.05D-01 WtEn= 1.95D-01
 Coeff-Com: -0.115D+00 0.528D+00 0.587D+00
 Coeff-En:   0.000D+00 0.000D+00 0.100D+01
 Coeff:     -0.928D-01 0.425D+00 0.667D+00
 Gap=     0.064 Goal=   None    Shift=    0.000
 Gap=     0.132 Goal=   None    Shift=    0.000
 RMSDP=2.98D-04 MaxDP=6.10D-02 DE=-4.73D-01 OVMax= 2.09D-01

 Cycle   4  Pass 1  IDiag  1:
 RMSU=  2.65D-04    CP:  9.80D-01  1.17D+00  8.19D-01
 E= -1925.93555558704     Delta-E=       -0.069360144627 Rises=F Damp=F
 DIIS: error= 8.66D-03 at cycle   4 NSaved=   4.
 NSaved= 4 IEnMin= 4 EnMin= -1925.93555558704     IErMin= 2 ErrMin= 8.27D-03
 ErrMax= 8.66D-03  0.00D+00 EMaxC= 1.00D-01 BMatC= 9.75D-02 BMatP= 4.27D-01
 IDIUse=3 WtCom= 9.13D-01 WtEn= 8.66D-02
 Coeff-Com: -0.267D-01 0.821D-01 0.349D+00 0.595D+00
 Coeff-En:   0.000D+00 0.000D+00 0.181D+00 0.819D+00
 Coeff:     -0.244D-01 0.750D-01 0.335D+00 0.615D+00
 Gap=     0.078 Goal=   None    Shift=    0.000
 Gap=     0.135 Goal=   None    Shift=    0.000
 RMSDP=1.31D-04 MaxDP=5.10D-02 DE=-6.94D-02 OVMax= 1.12D-01

 Cycle   5  Pass 1  IDiag  1:
 RMSU=  9.86D-05    CP:  9.82D-01  1.17D+00  8.96D-01  7.60D-01
 E= -1925.95549720310     Delta-E=       -0.019941616056 Rises=F Damp=F
 DIIS: error= 1.25D-03 at cycle   5 NSaved=   5.
 NSaved= 5 IEnMin= 5 EnMin= -1925.95549720310     IErMin= 5 ErrMin= 1.25D-03
 ErrMax= 1.25D-03  0.00D+00 EMaxC= 1.00D-01 BMatC= 5.41D-03 BMatP= 9.75D-02
 IDIUse=3 WtCom= 9.88D-01 WtEn= 1.25D-02
 Coeff-Com: -0.589D-02 0.854D-02 0.123D+00 0.307D+00 0.566D+00
 Coeff-En:   0.000D+00 0.000D+00 0.000D+00 0.000D+00 0.100D+01
 Coeff:     -0.582D-02 0.843D-02 0.122D+00 0.304D+00 0.572D+00
 Gap=     0.083 Goal=   None    Shift=    0.000
 Gap=     0.133 Goal=   None    Shift=    0.000
 RMSDP=5.06D-05 MaxDP=1.88D-02 DE=-1.99D-02 OVMax= 2.04D-02

 Cycle   6  Pass 1  IDiag  1:
 RMSU=  4.34D-05    CP:  9.80D-01  1.16D+00  8.88D-01  8.38D-01  9.27D-01
 E= -1925.95701674603     Delta-E=       -0.001519542930 Rises=F Damp=F
 DIIS: error= 3.40D-04 at cycle   6 NSaved=   6.
 NSaved= 6 IEnMin= 6 EnMin= -1925.95701674603     IErMin= 6 ErrMin= 3.40D-04
 ErrMax= 3.40D-04  0.00D+00 EMaxC= 1.00D-01 BMatC= 5.60D-04 BMatP= 5.41D-03
 IDIUse=3 WtCom= 9.97D-01 WtEn= 3.40D-03
 Coeff-Com:  0.997D-03-0.511D-02-0.472D-02 0.304D-01 0.236D+00 0.743D+00
 Coeff-En:   0.000D+00 0.000D+00 0.000D+00 0.000D+00 0.000D+00 0.100D+01
 Coeff:      0.994D-03-0.509D-02-0.470D-02 0.302D-01 0.235D+00 0.743D+00
 Gap=     0.088 Goal=   None    Shift=    0.000
 Gap=     0.134 Goal=   None    Shift=    0.000
 RMSDP=3.36D-05 MaxDP=1.52D-02 DE=-1.52D-03 OVMax= 3.03D-02

 Cycle   7  Pass 1  IDiag  1:
 RMSU=  1.79D-05    CP:  9.80D-01  1.16D+00  8.97D-01  8.39D-01  1.20D+00
                    CP:  1.18D+00
 E= -1925.95742629702     Delta-E=       -0.000409550992 Rises=F Damp=F
 DIIS: error= 2.80D-04 at cycle   7 NSaved=   7.
 NSaved= 7 IEnMin= 7 EnMin= -1925.95742629702     IErMin= 7 ErrMin= 2.80D-04
 ErrMax= 2.80D-04  0.00D+00 EMaxC= 1.00D-01 BMatC= 1.86D-04 BMatP= 5.60D-04
 IDIUse=3 WtCom= 9.97D-01 WtEn= 2.80D-03
 Coeff-Com:  0.169D-02-0.402D-02-0.338D-01-0.556D-01-0.176D-01 0.351D+00
 Coeff-Com:  0.758D+00
 Coeff-En:   0.000D+00 0.000D+00 0.000D+00 0.000D+00 0.000D+00 0.000D+00
 Coeff-En:   0.100D+01
 Coeff:      0.169D-02-0.401D-02-0.337D-01-0.554D-01-0.175D-01 0.350D+00
 Coeff:      0.759D+00
 Gap=     0.091 Goal=   None    Shift=    0.000
 Gap=     0.134 Goal=   None    Shift=    0.000
 RMSDP=2.47D-05 MaxDP=6.31D-03 DE=-4.10D-04 OVMax= 2.16D-02

 Cycle   8  Pass 1  IDiag  1:
 RMSU=  9.22D-06    CP:  9.80D-01  1.15D+00  8.98D-01  8.64D-01  1.32D+00
                    CP:  1.53D+00  1.50D+00
 E= -1925.95762969494     Delta-E=       -0.000203397917 Rises=F Damp=F
 DIIS: error= 1.52D-04 at cycle   8 NSaved=   8.
 NSaved= 8 IEnMin= 8 EnMin= -1925.95762969494     IErMin= 8 ErrMin= 1.52D-04
 ErrMax= 1.52D-04  0.00D+00 EMaxC= 1.00D-01 BMatC= 5.03D-05 BMatP= 1.86D-04
 IDIUse=3 WtCom= 9.98D-01 WtEn= 1.52D-03
 Coeff-Com: -0.433D-03 0.198D-02-0.862D-02-0.204D-01-0.748D-01-0.137D+00
 Coeff-Com:  0.165D+00 0.107D+01
 Coeff-En:   0.000D+00 0.000D+00 0.000D+00 0.000D+00 0.000D+00 0.000D+00
 Coeff-En:   0.000D+00 0.100D+01
 Coeff:     -0.433D-03 0.198D-02-0.861D-02-0.203D-01-0.746D-01-0.136D+00
 Coeff:      0.164D+00 0.107D+01
 Gap=     0.093 Goal=   None    Shift=    0.000
 Gap=     0.135 Goal=   None    Shift=    0.000
 RMSDP=2.30D-05 MaxDP=6.75D-03 DE=-2.03D-04 OVMax= 2.33D-02

 Cycle   9  Pass 1  IDiag  1:
 RMSU=  6.32D-06    CP:  9.80D-01  1.15D+00  9.00D-01  8.70D-01  1.45D+00
                    CP:  1.76D+00  2.23D+00  1.83D+00
 E= -1925.95774790518     Delta-E=       -0.000118210246 Rises=F Damp=F
 DIIS: error= 8.92D-05 at cycle   9 NSaved=   9.
 NSaved= 9 IEnMin= 9 EnMin= -1925.95774790518     IErMin= 9 ErrMin= 8.92D-05
 ErrMax= 8.92D-05  0.00D+00 EMaxC= 1.00D-01 BMatC= 2.11D-05 BMatP= 5.03D-05
 IDIUse=1 WtCom= 1.00D+00 WtEn= 0.00D+00
 Coeff-Com: -0.648D-03 0.160D-02 0.723D-02 0.150D-01-0.496D-02-0.140D+00
 Coeff-Com: -0.284D+00 0.325D+00 0.108D+01
 Coeff:     -0.648D-03 0.160D-02 0.723D-02 0.150D-01-0.496D-02-0.140D+00
 Coeff:     -0.284D+00 0.325D+00 0.108D+01
 Gap=     0.094 Goal=   None    Shift=    0.000
 Gap=     0.135 Goal=   None    Shift=    0.000
 RMSDP=1.74D-05 MaxDP=3.79D-03 DE=-1.18D-04 OVMax= 1.82D-02

 Cycle  10  Pass 1  IDiag  1:
 RMSU=  3.45D-06    CP:  9.80D-01  1.15D+00  9.00D-01  8.73D-01  1.51D+00
                    CP:  1.93D+00  2.74D+00  2.80D+00  1.83D+00
 E= -1925.95780273539     Delta-E=       -0.000054830204 Rises=F Damp=F
 DIIS: error= 4.36D-05 at cycle  10 NSaved=  10.
 NSaved=10 IEnMin=10 EnMin= -1925.95780273539     IErMin=10 ErrMin= 4.36D-05
 ErrMax= 4.36D-05  0.00D+00 EMaxC= 1.00D-01 BMatC= 6.49D-06 BMatP= 2.11D-05
 IDIUse=1 WtCom= 1.00D+00 WtEn= 0.00D+00
 Coeff-Com: -0.909D-04-0.403D-04 0.404D-02 0.114D-01 0.260D-01 0.943D-02
 Coeff-Com: -0.159D+00-0.190D+00 0.346D+00 0.952D+00
 Coeff:     -0.909D-04-0.403D-04 0.404D-02 0.114D-01 0.260D-01 0.943D-02
 Coeff:     -0.159D+00-0.190D+00 0.346D+00 0.952D+00
 Gap=     0.095 Goal=   None    Shift=    0.000
 Gap=     0.134 Goal=   None    Shift=    0.000
 RMSDP=8.83D-06 MaxDP=1.68D-03 DE=-5.48D-05 OVMax= 9.92D-03

 Cycle  11  Pass 1  IDiag  1:
 RMSU=  3.39D-06    CP:  9.80D-01  1.15D+00  9.00D-01  8.71D-01  1.54D+00
                    CP:  1.97D+00  2.98D+00  3.00D+00  2.47D+00  1.81D+00
 E= -1925.95782132157     Delta-E=       -0.000018586181 Rises=F Damp=F
 DIIS: error= 3.10D-05 at cycle  11 NSaved=  11.
 NSaved=11 IEnMin=11 EnMin= -1925.95782132157     IErMin=11 ErrMin= 3.10D-05
 ErrMax= 3.10D-05  0.00D+00 EMaxC= 1.00D-01 BMatC= 2.34D-06 BMatP= 6.49D-06
 IDIUse=1 WtCom= 1.00D+00 WtEn= 0.00D+00
 Coeff-Com:  0.238D-03-0.660D-03-0.240D-02-0.266D-02 0.116D-01 0.612D-01
 Coeff-Com:  0.440D-01-0.160D+00-0.335D+00 0.278D+00 0.111D+01
 Coeff:      0.238D-03-0.660D-03-0.240D-02-0.266D-02 0.116D-01 0.612D-01
 Coeff:      0.440D-01-0.160D+00-0.335D+00 0.278D+00 0.111D+01
 Gap=     0.095 Goal=   None    Shift=    0.000
 Gap=     0.134 Goal=   None    Shift=    0.000
 RMSDP=7.04D-06 MaxDP=1.12D-03 DE=-1.86D-05 OVMax= 8.51D-03

 Cycle  12  Pass 1  IDiag  1:
 RMSU=  2.74D-06    CP:  9.80D-01  1.15D+00  9.00D-01  8.70D-01  1.55D+00
                    CP:  2.00D+00  3.00D+00  3.00D+00  3.00D+00  2.68D+00
                    CP:  2.19D+00
 E= -1925.95783068396     Delta-E=       -0.000009362396 Rises=F Damp=F
 DIIS: error= 1.90D-05 at cycle  12 NSaved=  12.
 NSaved=12 IEnMin=12 EnMin= -1925.95783068396     IErMin=12 ErrMin= 1.90D-05
 ErrMax= 1.90D-05  0.00D+00 EMaxC= 1.00D-01 BMatC= 1.04D-06 BMatP= 2.34D-06
 IDIUse=1 WtCom= 1.00D+00 WtEn= 0.00D+00
 Coeff-Com:  0.122D-03-0.272D-03-0.263D-02-0.461D-02-0.125D-02 0.263D-01
 Coeff-Com:  0.578D-01-0.283D-02-0.262D+00-0.172D+00 0.548D+00 0.813D+00
 Coeff:      0.122D-03-0.272D-03-0.263D-02-0.461D-02-0.125D-02 0.263D-01
 Coeff:      0.578D-01-0.283D-02-0.262D+00-0.172D+00 0.548D+00 0.813D+00
 Gap=     0.095 Goal=   None    Shift=    0.000
 Gap=     0.134 Goal=   None    Shift=    0.000
 RMSDP=3.44D-06 MaxDP=5.38D-04 DE=-9.36D-06 OVMax= 4.31D-03

 Cycle  13  Pass 1  IDiag  1:
 RMSU=  1.77D-06    CP:  9.80D-01  1.15D+00  8.99D-01  8.69D-01  1.56D+00
                    CP:  2.01D+00  3.00D+00  3.00D+00  3.00D+00  3.00D+00
                    CP:  2.78D+00  1.44D+00
 E= -1925.95783339583     Delta-E=       -0.000002711871 Rises=F Damp=F
 DIIS: error= 1.41D-05 at cycle  13 NSaved=  13.
 NSaved=13 IEnMin=13 EnMin= -1925.95783339583     IErMin=13 ErrMin= 1.41D-05
 ErrMax= 1.41D-05  0.00D+00 EMaxC= 1.00D-01 BMatC= 2.92D-07 BMatP= 1.04D-06
 IDIUse=1 WtCom= 1.00D+00 WtEn= 0.00D+00
 Coeff-Com: -0.570D-04 0.176D-03-0.370D-03-0.899D-03-0.430D-02-0.131D-01
 Coeff-Com:  0.338D-02 0.687D-01 0.139D-01-0.188D+00-0.173D+00 0.278D+00
 Coeff-Com:  0.102D+01
 Coeff:     -0.570D-04 0.176D-03-0.370D-03-0.899D-03-0.430D-02-0.131D-01
 Coeff:      0.338D-02 0.687D-01 0.139D-01-0.188D+00-0.173D+00 0.278D+00
 Coeff:      0.102D+01
 Gap=     0.095 Goal=   None    Shift=    0.000
 Gap=     0.134 Goal=   None    Shift=    0.000
 RMSDP=2.32D-06 MaxDP=3.48D-04 DE=-2.71D-06 OVMax= 3.07D-03

 Cycle  14  Pass 1  IDiag  1:
 RMSU=  1.02D-06    CP:  9.80D-01  1.15D+00  8.99D-01  8.68D-01  1.56D+00
                    CP:  2.01D+00  3.00D+00  3.00D+00  3.00D+00  3.00D+00
                    CP:  3.00D+00  1.74D+00  1.79D+00
 E= -1925.95783448919     Delta-E=       -0.000001093357 Rises=F Damp=F
 DIIS: error= 5.77D-06 at cycle  14 NSaved=  14.
 NSaved=14 IEnMin=14 EnMin= -1925.95783448919     IErMin=14 ErrMin= 5.77D-06
 ErrMax= 5.77D-06  0.00D+00 EMaxC= 1.00D-01 BMatC= 1.02D-07 BMatP= 2.92D-07
 IDIUse=1 WtCom= 1.00D+00 WtEn= 0.00D+00
 Coeff-Com: -0.648D-04 0.156D-03 0.620D-03 0.112D-02-0.929D-03-0.146D-01
 Coeff-Com: -0.189D-01 0.304D-01 0.890D-01-0.217D-01-0.243D+00-0.180D+00
 Coeff-Com:  0.397D+00 0.961D+00
 Coeff:     -0.648D-04 0.156D-03 0.620D-03 0.112D-02-0.929D-03-0.146D-01
 Coeff:     -0.189D-01 0.304D-01 0.890D-01-0.217D-01-0.243D+00-0.180D+00
 Coeff:      0.397D+00 0.961D+00
 Gap=     0.095 Goal=   None    Shift=    0.000
 Gap=     0.134 Goal=   None    Shift=    0.000
 RMSDP=1.41D-06 MaxDP=2.54D-04 DE=-1.09D-06 OVMax= 1.80D-03

 Cycle  15  Pass 1  IDiag  1:
 RMSU=  4.40D-07    CP:  9.80D-01  1.15D+00  8.99D-01  8.67D-01  1.57D+00
                    CP:  2.02D+00  3.00D+00  3.00D+00  3.00D+00  3.00D+00
                    CP:  3.00D+00  1.94D+00  2.27D+00  1.78D+00
 E= -1925.95783480972     Delta-E=       -0.000000320531 Rises=F Damp=F
 DIIS: error= 2.47D-06 at cycle  15 NSaved=  15.
 NSaved=15 IEnMin=15 EnMin= -1925.95783480972     IErMin=15 ErrMin= 2.47D-06
 ErrMax= 2.47D-06  0.00D+00 EMaxC= 1.00D-01 BMatC= 2.93D-08 BMatP= 1.02D-07
 IDIUse=1 WtCom= 1.00D+00 WtEn= 0.00D+00
 Coeff-Com: -0.220D-05-0.296D-05 0.298D-03 0.641D-03 0.127D-02-0.366D-03
 Coeff-Com: -0.689D-02-0.130D-01 0.230D-01 0.564D-01-0.166D-01-0.166D+00
 Coeff-Com: -0.207D+00 0.373D+00 0.956D+00
 Coeff:     -0.220D-05-0.296D-05 0.298D-03 0.641D-03 0.127D-02-0.366D-03
 Coeff:     -0.689D-02-0.130D-01 0.230D-01 0.564D-01-0.166D-01-0.166D+00
 Coeff:     -0.207D+00 0.373D+00 0.956D+00
 Gap=     0.095 Goal=   None    Shift=    0.000
 Gap=     0.134 Goal=   None    Shift=    0.000
 RMSDP=6.31D-07 MaxDP=9.47D-05 DE=-3.21D-07 OVMax= 7.46D-04

 Cycle  16  Pass 1  IDiag  1:
 RMSU=  2.06D-07    CP:  9.80D-01  1.15D+00  8.99D-01  8.67D-01  1.57D+00
                    CP:  2.02D+00  3.00D+00  3.00D+00  3.00D+00  3.00D+00
                    CP:  3.00D+00  2.02D+00  2.47D+00  2.14D+00  1.47D+00
 E= -1925.95783487809     Delta-E=       -0.000000068369 Rises=F Damp=F
 DIIS: error= 1.16D-06 at cycle  16 NSaved=  16.
 NSaved=16 IEnMin=16 EnMin= -1925.95783487809     IErMin=16 ErrMin= 1.16D-06
 ErrMax= 1.16D-06  0.00D+00 EMaxC= 1.00D-01 BMatC= 8.55D-09 BMatP= 2.93D-08
 IDIUse=1 WtCom= 1.00D+00 WtEn= 0.00D+00
 Coeff-Com:  0.139D-04-0.345D-04-0.242D-04-0.116D-04 0.736D-03 0.367D-02
 Coeff-Com:  0.216D-02-0.131D-01-0.134D-01 0.276D-01 0.577D-01-0.213D-01
 Coeff-Com: -0.175D+00-0.877D-01 0.360D+00 0.858D+00
 Coeff:      0.139D-04-0.345D-04-0.242D-04-0.116D-04 0.736D-03 0.367D-02
 Coeff:      0.216D-02-0.131D-01-0.134D-01 0.276D-01 0.577D-01-0.213D-01
 Coeff:     -0.175D+00-0.877D-01 0.360D+00 0.858D+00
 Gap=     0.095 Goal=   None    Shift=    0.000
 Gap=     0.134 Goal=   None    Shift=    0.000
 RMSDP=2.16D-07 MaxDP=3.56D-05 DE=-6.84D-08 OVMax= 1.74D-04

 Cycle  17  Pass 1  IDiag  1:
 RMSU=  8.46D-08    CP:  9.80D-01  1.15D+00  8.99D-01  8.67D-01  1.57D+00
                    CP:  2.02D+00  3.00D+00  3.00D+00  3.00D+00  3.00D+00
                    CP:  3.00D+00  2.03D+00  2.51D+00  2.23D+00  1.66D+00
                    CP:  1.62D+00
 E= -1925.95783489149     Delta-E=       -0.000000013394 Rises=F Damp=F
 DIIS: error= 8.17D-07 at cycle  17 NSaved=  17.
 NSaved=17 IEnMin=17 EnMin= -1925.95783489149     IErMin=17 ErrMin= 8.17D-07
 ErrMax= 8.17D-07  0.00D+00 EMaxC= 1.00D-01 BMatC= 3.81D-09 BMatP= 8.55D-09
 IDIUse=1 WtCom= 1.00D+00 WtEn= 0.00D+00
 Coeff-Com:  0.777D-05-0.182D-04-0.871D-04-0.177D-03-0.648D-04 0.184D-02
 Coeff-Com:  0.277D-02-0.270D-02-0.124D-01-0.393D-02 0.338D-01 0.404D-01
 Coeff-Com: -0.231D-01-0.167D+00-0.136D+00 0.462D+00 0.805D+00
 Coeff:      0.777D-05-0.182D-04-0.871D-04-0.177D-03-0.648D-04 0.184D-02
 Coeff:      0.277D-02-0.270D-02-0.124D-01-0.393D-02 0.338D-01 0.404D-01
 Coeff:     -0.231D-01-0.167D+00-0.136D+00 0.462D+00 0.805D+00
 Gap=     0.095 Goal=   None    Shift=    0.000
 Gap=     0.134 Goal=   None    Shift=    0.000
 RMSDP=1.31D-07 MaxDP=2.16D-05 DE=-1.34D-08 OVMax= 9.17D-05

 Cycle  18  Pass 1  IDiag  1:
 RMSU=  4.42D-08    CP:  9.80D-01  1.15D+00  8.99D-01  8.67D-01  1.57D+00
                    CP:  2.02D+00  3.00D+00  3.00D+00  3.00D+00  3.00D+00
                    CP:  3.00D+00  2.03D+00  2.54D+00  2.28D+00  1.76D+00
                    CP:  2.04D+00  1.39D+00
 E= -1925.95783489657     Delta-E=       -0.000000005081 Rises=F Damp=F
 DIIS: error= 6.11D-07 at cycle  18 NSaved=  18.
 NSaved=18 IEnMin=18 EnMin= -1925.95783489657     IErMin=18 ErrMin= 6.11D-07
 ErrMax= 6.11D-07  0.00D+00 EMaxC= 1.00D-01 BMatC= 1.32D-09 BMatP= 3.81D-09
 IDIUse=1 WtCom= 1.00D+00 WtEn= 0.00D+00
 Coeff-Com: -0.109D-05 0.270D-05-0.296D-04-0.799D-04-0.314D-03-0.385D-03
 Coeff-Com:  0.499D-03 0.328D-02-0.881D-03-0.118D-01-0.245D-02 0.271D-01
 Coeff-Com:  0.502D-01-0.519D-01-0.200D+00-0.676D-01 0.432D+00 0.823D+00
 Coeff:     -0.109D-05 0.270D-05-0.296D-04-0.799D-04-0.314D-03-0.385D-03
 Coeff:      0.499D-03 0.328D-02-0.881D-03-0.118D-01-0.245D-02 0.271D-01
 Coeff:      0.502D-01-0.519D-01-0.200D+00-0.676D-01 0.432D+00 0.823D+00
 Gap=     0.095 Goal=   None    Shift=    0.000
 Gap=     0.134 Goal=   None    Shift=    0.000
 RMSDP=7.03D-08 MaxDP=1.21D-05 DE=-5.08D-09 OVMax= 4.84D-05

 Cycle  19  Pass 1  IDiag  1:
 RMSU=  2.40D-08    CP:  9.80D-01  1.15D+00  8.99D-01  8.67D-01  1.57D+00
                    CP:  2.02D+00  3.00D+00  3.00D+00  3.00D+00  3.00D+00
                    CP:  3.00D+00  2.03D+00  2.54D+00  2.29D+00  1.79D+00
                    CP:  2.28D+00  1.79D+00  1.33D+00
 E= -1925.95783489854     Delta-E=       -0.000000001973 Rises=F Damp=F
 DIIS: error= 3.44D-07 at cycle  19 NSaved=  19.
 NSaved=19 IEnMin=19 EnMin= -1925.95783489854     IErMin=19 ErrMin= 3.44D-07
 ErrMax= 3.44D-07  0.00D+00 EMaxC= 1.00D-01 BMatC= 3.62D-10 BMatP= 1.32D-09
 IDIUse=1 WtCom= 1.00D+00 WtEn= 0.00D+00
 Coeff-Com: -0.311D-05 0.779D-05 0.154D-04 0.153D-04-0.119D-03-0.705D-03
 Coeff-Com: -0.577D-03 0.226D-02 0.343D-02-0.406D-02-0.106D-01-0.138D-02
 Coeff-Com:  0.297D-01 0.325D-01-0.409D-01-0.184D+00-0.849D-01 0.349D+00
 Coeff-Com:  0.910D+00
 Coeff:     -0.311D-05 0.779D-05 0.154D-04 0.153D-04-0.119D-03-0.705D-03
 Coeff:     -0.577D-03 0.226D-02 0.343D-02-0.406D-02-0.106D-01-0.138D-02
 Coeff:      0.297D-01 0.325D-01-0.409D-01-0.184D+00-0.849D-01 0.349D+00
 Coeff:      0.910D+00
 Gap=     0.095 Goal=   None    Shift=    0.000
 Gap=     0.134 Goal=   None    Shift=    0.000
 RMSDP=4.20D-08 MaxDP=5.03D-06 DE=-1.97D-09 OVMax= 3.85D-05

 Cycle  20  Pass 1  IDiag  1:
 RMSU=  1.38D-08    CP:  9.80D-01  1.15D+00  8.99D-01  8.67D-01  1.57D+00
                    CP:  2.02D+00  3.00D+00  3.00D+00  3.00D+00  3.00D+00
                    CP:  3.00D+00  2.03D+00  2.54D+00  2.29D+00  1.79D+00
                    CP:  2.40D+00  1.99D+00  1.70D+00  1.49D+00
 E= -1925.95783489896     Delta-E=       -0.000000000417 Rises=F Damp=F
 DIIS: error= 2.27D-07 at cycle  20 NSaved=  20.
 NSaved=20 IEnMin=20 EnMin= -1925.95783489896     IErMin=20 ErrMin= 2.27D-07
 ErrMax= 2.27D-07  0.00D+00 EMaxC= 1.00D-01 BMatC= 1.17D-10 BMatP= 3.62D-10
 IDIUse=1 WtCom= 1.00D+00 WtEn= 0.00D+00
 Coeff-Com: -0.531D-06 0.120D-05 0.175D-04 0.319D-04 0.437D-04-0.208D-03
 Coeff-Com: -0.468D-03-0.109D-03 0.192D-02 0.174D-02-0.400D-02-0.980D-02
 Coeff-Com: -0.337D-02 0.301D-01 0.468D-01-0.542D-01-0.172D+00-0.103D+00
 Coeff-Com:  0.404D+00 0.863D+00
 Coeff:     -0.531D-06 0.120D-05 0.175D-04 0.319D-04 0.437D-04-0.208D-03
 Coeff:     -0.468D-03-0.109D-03 0.192D-02 0.174D-02-0.400D-02-0.980D-02
 Coeff:     -0.337D-02 0.301D-01 0.468D-01-0.542D-01-0.172D+00-0.103D+00
 Coeff:      0.404D+00 0.863D+00
 Gap=     0.095 Goal=   None    Shift=    0.000
 Gap=     0.134 Goal=   None    Shift=    0.000
 RMSDP=1.93D-08 MaxDP=3.92D-06 DE=-4.17D-10 OVMax= 1.25D-05

 Cycle  21  Pass 1  IDiag  1:
 Restarting incremental Fock formation.
 E= -1925.95783489908     Delta-E=       -0.000000000128 Rises=F Damp=F
 DIIS: error= 1.30D-07 at cycle  21 NSaved=  20.
 NSaved=20 IEnMin=20 EnMin= -1925.95783489908     IErMin=20 ErrMin= 1.30D-07
 ErrMax= 1.30D-07  0.00D+00 EMaxC= 1.00D-01 BMatC= 3.27D-11 BMatP= 1.17D-10
 IDIUse=1 WtCom= 1.00D+00 WtEn= 0.00D+00
 Coeff-Com:  0.918D-07 0.636D-05 0.124D-04 0.417D-04 0.450D-04-0.769D-04
 Coeff-Com: -0.457D-03 0.494D-04 0.144D-02 0.660D-03-0.315D-02-0.757D-02
 Coeff-Com:  0.383D-02 0.267D-01 0.281D-01-0.415D-01-0.132D+00-0.102D+00
 Coeff-Com:  0.285D+00 0.941D+00
 Coeff:      0.918D-07 0.636D-05 0.124D-04 0.417D-04 0.450D-04-0.769D-04
 Coeff:     -0.457D-03 0.494D-04 0.144D-02 0.660D-03-0.315D-02-0.757D-02
 Coeff:      0.383D-02 0.267D-01 0.281D-01-0.415D-01-0.132D+00-0.102D+00
 Coeff:      0.285D+00 0.941D+00
 Gap=     0.095 Goal=   None    Shift=    0.000
 Gap=     0.134 Goal=   None    Shift=    0.000
 RMSDP=1.12D-08 MaxDP=1.81D-06 DE=-1.28D-10 OVMax= 9.22D-06

 Cycle  22  Pass 1  IDiag  1:
 RMSU=  1.12D-08    CP:  1.00D+00
 E= -1925.95783489921     Delta-E=       -0.000000000122 Rises=F Damp=F
 DIIS: error= 8.56D-08 at cycle  22 NSaved=  20.
 NSaved=20 IEnMin=20 EnMin= -1925.95783489921     IErMin=20 ErrMin= 8.56D-08
 ErrMax= 8.56D-08  0.00D+00 EMaxC= 1.00D-01 BMatC= 1.45D-11 BMatP= 3.27D-11
 IDIUse=1 WtCom= 1.00D+00 WtEn= 0.00D+00
 Coeff-Com: -0.418D-05-0.738D-05 0.668D-05 0.110D-03 0.167D-03-0.199D-03
 Coeff-Com: -0.807D-03 0.361D-05 0.196D-02 0.261D-02-0.228D-02-0.996D-02
 Coeff-Com: -0.542D-02 0.353D-01 0.425D-01-0.294D-01-0.199D+00-0.202D+00
 Coeff-Com:  0.463D+00 0.903D+00
 Coeff:     -0.418D-05-0.738D-05 0.668D-05 0.110D-03 0.167D-03-0.199D-03
 Coeff:     -0.807D-03 0.361D-05 0.196D-02 0.261D-02-0.228D-02-0.996D-02
 Coeff:     -0.542D-02 0.353D-01 0.425D-01-0.294D-01-0.199D+00-0.202D+00
 Coeff:      0.463D+00 0.903D+00
 Gap=     0.095 Goal=   None    Shift=    0.000
 Gap=     0.134 Goal=   None    Shift=    0.000
 RMSDP=8.86D-09 MaxDP=1.59D-06 DE=-1.22D-10 OVMax= 7.71D-06

 Cycle  23  Pass 1  IDiag  1:
 RMSU=  3.87D-09    CP:  1.00D+00  1.71D+00
 E= -1925.95783489925     Delta-E=       -0.000000000040 Rises=F Damp=F
 DIIS: error= 2.62D-08 at cycle  23 NSaved=  20.
 NSaved=20 IEnMin=20 EnMin= -1925.95783489925     IErMin=20 ErrMin= 2.62D-08
 ErrMax= 2.62D-08  0.00D+00 EMaxC= 1.00D-01 BMatC= 3.68D-12 BMatP= 1.45D-11
 IDIUse=1 WtCom= 1.00D+00 WtEn= 0.00D+00
 Coeff-Com:  0.189D-05 0.274D-05 0.386D-05 0.820D-06-0.176D-04-0.498D-04
 Coeff-Com: -0.111D-03 0.977D-04 0.770D-03 0.543D-03-0.231D-02-0.564D-02
 Coeff-Com:  0.117D-02 0.165D-01 0.266D-01-0.959D-02-0.136D+00-0.177D+00
 Coeff-Com:  0.239D+00 0.105D+01
 Coeff:      0.189D-05 0.274D-05 0.386D-05 0.820D-06-0.176D-04-0.498D-04
 Coeff:     -0.111D-03 0.977D-04 0.770D-03 0.543D-03-0.231D-02-0.564D-02
 Coeff:      0.117D-02 0.165D-01 0.266D-01-0.959D-02-0.136D+00-0.177D+00
 Coeff:      0.239D+00 0.105D+01
 Gap=     0.095 Goal=   None    Shift=    0.000
 Gap=     0.134 Goal=   None    Shift=    0.000
 RMSDP=6.53D-09 MaxDP=1.10D-06 DE=-4.00D-11 OVMax= 5.19D-06

 Cycle  24  Pass 1  IDiag  1:
 RMSU=  4.73D-09    CP:  1.00D+00  2.09D+00  1.40D+00
 E= -1925.95783489916     Delta-E=        0.000000000082 Rises=F Damp=F
 DIIS: error= 1.28D-08 at cycle  24 NSaved=  20.
 NSaved=20 IEnMin=19 EnMin= -1925.95783489925     IErMin=20 ErrMin= 1.28D-08
 ErrMax= 1.28D-08  0.00D+00 EMaxC= 1.00D-01 BMatC= 9.77D-13 BMatP= 3.68D-12
 IDIUse=1 WtCom= 1.00D+00 WtEn= 0.00D+00
 Coeff-Com: -0.816D-05-0.357D-04-0.163D-04 0.120D-03 0.152D-03-0.246D-03
 Coeff-Com: -0.506D-03 0.505D-04 0.154D-02 0.124D-02-0.238D-02-0.897D-02
 Coeff-Com: -0.259D-02 0.195D-01 0.437D-01-0.643D-02-0.181D+00-0.138D+00
 Coeff-Com:  0.334D+00 0.939D+00
 Coeff:     -0.816D-05-0.357D-04-0.163D-04 0.120D-03 0.152D-03-0.246D-03
 Coeff:     -0.506D-03 0.505D-04 0.154D-02 0.124D-02-0.238D-02-0.897D-02
 Coeff:     -0.259D-02 0.195D-01 0.437D-01-0.643D-02-0.181D+00-0.138D+00
 Coeff:      0.334D+00 0.939D+00
 Gap=     0.095 Goal=   None    Shift=    0.000
 Gap=     0.134 Goal=   None    Shift=    0.000
 RMSDP=3.29D-09 MaxDP=5.91D-07 DE= 8.19D-11 OVMax= 2.62D-06

 Error on total polarization charges =  0.02563
 SCF Done:  E(UM062X) =  -1925.95783490     A.U. after   24 cycles
            NFock= 24  Conv=0.33D-08     -V/T= 2.0054
 <Sx>= 0.0000 <Sy>= 0.0000 <Sz>= 0.5000 <S**2>= 0.7922 S= 0.5209
 <L.S>= 0.000000000000E+00
 KE= 1.915661273470D+03 PE=-1.355842660154D+04 EE= 5.197422342695D+03
 Annihilation of the first spin contaminant:
 S**2 before annihilation     0.7922,   after     0.7514
 Leave Link  502 at Sat Oct 25 05:55:55 2025, MaxMem= 30870077440 cpu:          123596.0 elap:            1953.9
 (Enter /public/software/gauss/g16/l601.exe)
 Copying SCF densities to generalized density rwf, IOpCl= 1 IROHF=0.

 **********************************************************************

            Population analysis using the SCF density.

 **********************************************************************

 Orbital symmetries:
 Alpha Orbitals:
       Occupied  (A) (A) (A) (A) (A) (A) (A) (A) (A) (A) (A) (A)
                 (A) (A) (A) (A) (A) (A) (A) (A) (A) (A) (A) (A)
                 (A) (A) (A) (A) (A) (A) (A) (A) (A) (A) (A) (A)
                 (A) (A) (A) (A) (A) (A) (A) (A) (A) (A) (A) (A)
                 (A) (A) (A) (A) (A) (A) (A) (A) (A) (A) (A) (A)
                 (A) (A) (A) (A) (A) (A) (A) (A) (A) (A) (A) (A)
                 (A) (A) (A) (A) (A) (A) (A) (A) (A) (A) (A) (A)
                 (A) (A) (A) (A) (A) (A) (A) (A) (A) (A) (A) (A)
                 (A) (A) (A) (A) (A) (A) (A) (A) (A) (A) (A) (A)
                 (A) (A) (A) (A) (A) (A) (A) (A) (A) (A) (A) (A)
                 (A) (A) (A) (A) (A) (A) (A) (A) (A) (A) (A) (A)
                 (A) (A) (A) (A) (A) (A) (A) (A) (A) (A) (A) (A)
                 (A) (A) (A) (A) (A) (A)
       Virtual   (A) (A) (A) (A) (A) (A) (A) (A) (A) (A) (A) (A)
                 (A) (A) (A) (A) (A) (A) (A) (A) (A) (A) (A) (A)
                 (A) (A) (A) (A) (A) (A) (A) (A) (A) (A) (A) (A)
                 (A) (A) (A) (A) (A) (A) (A) (A) (A) (A) (A) (A)
                 (A) (A) (A) (A) (A) (A) (A) (A) (A) (A) (A) (A)
                 (A) (A) (A) (A) (A) (A) (A) (A) (A) (A) (A) (A)
                 (A) (A) (A) (A) (A) (A) (A) (A) (A) (A) (A) (A)
                 (A) (A) (A) (A) (A) (A) (A) (A) (A) (A) (A) (A)
                 (A) (A) (A) (A) (A) (A) (A) (A) (A) (A) (A) (A)
                 (A) (A) (A) (A) (A) (A) (A) (A) (A) (A) (A) (A)
                 (A) (A) (A) (A) (A) (A) (A) (A) (A) (A) (A) (A)
                 (A) (A) (A) (A) (A) (A) (A) (A) (A) (A) (A) (A)
                 (A) (A) (A) (A) (A) (A) (A) (A) (A) (A) (A) (A)
                 (A) (A) (A) (A) (A) (A) (A) (A) (A) (A) (A) (A)
                 (A) (A) (A) (A) (A) (A) (A) (A) (A) (A) (A) (A)
                 (A) (A) (A) (A) (A) (A) (A) (A) (A) (A) (A) (A)
                 (A) (A) (A) (A) (A) (A) (A) (A) (A) (A) (A) (A)
                 (A) (A) (A) (A) (A) (A) (A) (A) (A) (A) (A) (A)
                 (A) (A) (A) (A) (A) (A) (A) (A) (A) (A) (A) (A)
                 (A) (A) (A) (A) (A) (A) (A) (A) (A) (A) (A) (A)
                 (A) (A) (A) (A) (A) (A) (A) (A) (A) (A) (A) (A)
                 (A) (A) (A) (A) (A) (A) (A) (A) (A) (A) (A) (A)
                 (A) (A) (A) (A) (A) (A) (A) (A) (A) (A) (A) (A)
                 (A) (A) (A) (A) (A) (A) (A) (A) (A) (A) (A) (A)
                 (A) (A) (A) (A) (A) (A) (A) (A) (A) (A) (A) (A)
                 (A) (A) (A) (A) (A) (A) (A) (A) (A) (A) (A) (A)
                 (A) (A) (A) (A) (A) (A) (A) (A) (A) (A) (A) (A)
                 (A) (A) (A) (A) (A) (A) (A) (A) (A) (A) (A) (A)
                 (A) (A) (A) (A) (A) (A) (A) (A) (A) (A) (A) (A)
                 (A) (A) (A) (A) (A) (A) (A) (A) (A) (A) (A) (A)
                 (A) (A) (A) (A) (A) (A) (A) (A) (A) (A) (A) (A)
                 (A) (A) (A) (A) (A) (A) (A) (A) (A) (A) (A) (A)
                 (A) (A) (A) (A) (A) (A) (A) (A) (A) (A) (A) (A)
                 (A) (A) (A) (A) (A) (A) (A) (A) (A) (A) (A) (A)
                 (A) (A) (A) (A) (A) (A) (A) (A) (A) (A) (A) (A)
                 (A) (A) (A) (A) (A) (A) (A) (A) (A) (A) (A) (A)
                 (A) (A) (A) (A) (A) (A) (A) (A) (A) (A) (A) (A)
                 (A) (A) (A) (A) (A) (A) (A) (A) (A) (A) (A) (A)
                 (A) (A) (A) (A) (A) (A) (A) (A) (A) (A) (A) (A)
                 (A) (A) (A) (A) (A) (A) (A) (A) (A) (A) (A) (A)
                 (A) (A) (A) (A) (A) (A) (A) (A) (A) (A) (A) (A)
                 (A) (A) (A) (A) (A) (A) (A) (A) (A) (A) (A) (A)
                 (A) (A) (A) (A) (A) (A) (A) (A) (A) (A) (A) (A)
                 (A) (A) (A) (A) (A) (A) (A) (A) (A) (A) (A) (A)
                 (A) (A) (A) (A) (A) (A) (A) (A) (A) (A) (A) (A)
                 (A) (A) (A) (A) (A) (A) (A) (A) (A) (A) (A) (A)
                 (A) (A) (A) (A) (A) (A) (A) (A) (A) (A) (A) (A)
                 (A) (A) (A) (A) (A) (A) (A) (A) (A) (A) (A) (A)
                 (A) (A) (A) (A) (A) (A) (A) (A) (A) (A) (A) (A)
                 (A) (A) (A) (A) (A) (A) (A) (A) (A) (A) (A) (A)
                 (A) (A) (A) (A) (A) (A) (A) (A) (A) (A) (A) (A)
                 (A) (A) (A) (A) (A) (A) (A) (A) (A) (A) (A) (A)
                 (A) (A) (A) (A) (A) (A) (A) (A) (A) (A) (A) (A)
                 (A) (A) (A) (A) (A) (A) (A) (A) (A) (A) (A) (A)
                 (A) (A) (A) (A) (A) (A) (A) (A) (A) (A) (A) (A)
                 (A) (A) (A) (A) (A) (A) (A) (A) (A) (A) (A) (A)
                 (A) (A) (A) (A) (A) (A) (A) (A) (A) (A) (A) (A)
                 (A) (A) (A) (A) (A) (A) (A) (A) (A) (A) (A) (A)
                 (A) (A) (A) (A) (A) (A) (A) (A) (A) (A) (A) (A)
                 (A) (A) (A) (A) (A) (A) (A) (A) (A) (A) (A) (A)
                 (A) (A) (A) (A) (A) (A) (A) (A) (A) (A) (A) (A)
                 (A) (A) (A) (A) (A) (A) (A) (A) (A) (A) (A) (A)
                 (A) (A) (A) (A) (A) (A) (A) (A) (A) (A) (A) (A)
                 (A) (A) (A) (A) (A) (A) (A) (A) (A) (A) (A) (A)
                 (A) (A) (A) (A) (A) (A) (A) (A) (A) (A) (A) (A)
                 (A) (A) (A) (A) (A) (A) (A) (A) (A) (A) (A) (A)
                 (A) (A) (A) (A) (A) (A) (A) (A) (A) (A) (A) (A)
                 (A) (A) (A) (A) (A) (A) (A) (A) (A) (A) (A) (A)
                 (A) (A) (A) (A) (A) (A) (A) (A) (A) (A) (A) (A)
                 (A) (A) (A) (A) (A) (A) (A) (A) (A) (A) (A) (A)
                 (A) (A) (A) (A) (A) (A) (A) (A) (A) (A) (A) (A)
                 (A) (A) (A) (A) (A) (A) (A) (A) (A) (A) (A) (A)
                 (A) (A) (A) (A) (A) (A) (A) (A) (A) (A) (A) (A)
                 (A) (A) (A) (A) (A) (A) (A) (A) (A) (A) (A) (A)
                 (A) (A) (A) (A) (A) (A) (A) (A) (A) (A) (A) (A)
                 (A) (A) (A) (A) (A) (A) (A) (A) (A) (A) (A) (A)
                 (A) (A) (A) (A) (A) (A) (A) (A) (A) (A) (A) (A)
                 (A) (A) (A) (A) (A) (A) (A) (A) (A) (A) (A) (A)
                 (A) (A) (A) (A) (A) (A) (A) (A) (A) (A) (A) (A)
                 (A) (A) (A) (A) (A) (A) (A) (A) (A) (A) (A) (A)
                 (A) (A) (A) (A) (A) (A) (A) (A) (A) (A) (A) (A)
                 (A) (A) (A) (A) (A) (A) (A) (A) (A) (A) (A) (A)
                 (A) (A) (A) (A) (A) (A) (A) (A) (A) (A) (A) (A)
                 (A) (A) (A) (A) (A) (A) (A) (A) (A) (A) (A) (A)
                 (A) (A) (A) (A) (A) (A) (A) (A) (A) (A) (A) (A)
                 (A) (A) (A) (A) (A) (A) (A) (A) (A) (A) (A) (A)
                 (A) (A) (A) (A) (A) (A) (A) (A) (A) (A) (A) (A)
                 (A) (A) (A) (A) (A) (A) (A) (A) (A) (A) (A) (A)
                 (A) (A) (A) (A) (A) (A) (A) (A) (A) (A) (A) (A)
                 (A) (A) (A) (A) (A) (A) (A) (A) (A) (A) (A) (A)
                 (A) (A) (A) (A) (A) (A) (A) (A) (A) (A) (A) (A)
                 (A) (A) (A) (A) (A) (A) (A) (A) (A) (A) (A) (A)
                 (A) (A) (A) (A) (A) (A) (A) (A) (A) (A) (A) (A)
                 (A) (A) (A) (A) (A) (A) (A) (A) (A) (A) (A) (A)
                 (A) (A) (A) (A) (A) (A) (A) (A) (A) (A) (A) (A)
                 (A) (A) (A) (A) (A) (A) (A) (A) (A) (A) (A) (A)
                 (A) (A) (A) (A) (A) (A) (A) (A) (A) (A) (A) (A)
                 (A) (A) (A) (A) (A) (A) (A) (A) (A) (A) (A) (A)
                 (A) (A) (A) (A) (A) (A) (A) (A) (A) (A) (A) (A)
                 (A) (A) (A) (A) (A) (A) (A) (A) (A) (A) (A) (A)
                 (A) (A) (A) (A) (A) (A) (A) (A) (A) (A) (A) (A)
                 (A) (A) (A) (A) (A) (A) (A) (A) (A) (A) (A) (A)
                 (A) (A) (A) (A) (A) (A) (A) (A) (A) (A) (A) (A)
                 (A) (A) (A) (A) (A) (A) (A) (A) (A) (A) (A) (A)
                 (A) (A) (A) (A) (A) (A) (A) (A) (A) (A) (A) (A)
                 (A) (A) (A) (A) (A) (A) (A) (A) (A) (A) (A) (A)
                 (A) (A) (A) (A) (A) (A) (A) (A) (A) (A) (A) (A)
                 (A) (A) (A) (A) (A) (A) (A) (A) (A) (A) (A) (A)
                 (A) (A) (A) (A) (A) (A) (A) (A) (A) (A) (A) (A)
                 (A) (A) (A) (A) (A) (A) (A) (A) (A) (A) (A) (A)
                 (A) (A) (A) (A) (A) (A) (A) (A) (A) (A) (A) (A)
                 (A) (A) (A) (A) (A) (A) (A) (A) (A) (A) (A) (A)
                 (A) (A) (A) (A) (A) (A) (A) (A) (A) (A) (A) (A)
                 (A) (A) (A) (A) (A) (A) (A) (A) (A) (A) (A) (A)
                 (A) (A) (A) (A) (A) (A) (A) (A) (A) (A) (A) (A)
                 (A) (A) (A) (A) (A) (A) (A) (A) (A) (A) (A) (A)
                 (A) (A) (A) (A) (A) (A) (A) (A) (A) (A) (A) (A)
                 (A) (A) (A) (A) (A) (A) (A) (A) (A) (A) (A) (A)
                 (A) (A) (A) (A) (A) (A) (A) (A) (A) (A) (A) (A)
                 (A) (A) (A) (A) (A) (A) (A) (A) (A) (A) (A) (A)
                 (A) (A) (A) (A) (A) (A) (A) (A) (A) (A) (A) (A)
                 (A) (A) (A) (A) (A) (A) (A) (A) (A) (A) (A) (A)
                 (A) (A) (A) (A) (A) (A) (A) (A) (A) (A) (A) (A)
                 (A) (A) (A) (A) (A) (A) (A) (A) (A) (A) (A) (A)
                 (A) (A) (A) (A) (A) (A) (A) (A) (A) (A) (A) (A)
                 (A) (A) (A) (A) (A) (A) (A) (A) (A) (A) (A) (A)
                 (A) (A) (A) (A) (A) (A) (A) (A) (A) (A) (A) (A)
                 (A) (A) (A) (A) (A) (A) (A) (A) (A) (A) (A) (A)
                 (A) (A) (A) (A) (A) (A) (A) (A) (A) (A) (A)
 Beta  Orbitals:
       Occupied  (A) (A) (A) (A) (A) (A) (A) (A) (A) (A) (A) (A)
                 (A) (A) (A) (A) (A) (A) (A) (A) (A) (A) (A) (A)
                 (A) (A) (A) (A) (A) (A) (A) (A) (A) (A) (A) (A)
                 (A) (A) (A) (A) (A) (A) (A) (A) (A) (A) (A) (A)
                 (A) (A) (A) (A) (A) (A) (A) (A) (A) (A) (A) (A)
                 (A) (A) (A) (A) (A) (A) (A) (A) (A) (A) (A) (A)
                 (A) (A) (A) (A) (A) (A) (A) (A) (A) (A) (A) (A)
                 (A) (A) (A) (A) (A) (A) (A) (A) (A) (A) (A) (A)
                 (A) (A) (A) (A) (A) (A) (A) (A) (A) (A) (A) (A)
                 (A) (A) (A) (A) (A) (A) (A) (A) (A) (A) (A) (A)
                 (A) (A) (A) (A) (A) (A) (A) (A) (A) (A) (A) (A)
                 (A) (A) (A) (A) (A) (A) (A) (A) (A) (A) (A) (A)
                 (A) (A) (A) (A) (A)
       Virtual   (A) (A) (A) (A) (A) (A) (A) (A) (A) (A) (A) (A)
                 (A) (A) (A) (A) (A) (A) (A) (A) (A) (A) (A) (A)
                 (A) (A) (A) (A) (A) (A) (A) (A) (A) (A) (A) (A)
                 (A) (A) (A) (A) (A) (A) (A) (A) (A) (A) (A) (A)
                 (A) (A) (A) (A) (A) (A) (A) (A) (A) (A) (A) (A)
                 (A) (A) (A) (A) (A) (A) (A) (A) (A) (A) (A) (A)
                 (A) (A) (A) (A) (A) (A) (A) (A) (A) (A) (A) (A)
                 (A) (A) (A) (A) (A) (A) (A) (A) (A) (A) (A) (A)
                 (A) (A) (A) (A) (A) (A) (A) (A) (A) (A) (A) (A)
                 (A) (A) (A) (A) (A) (A) (A) (A) (A) (A) (A) (A)
                 (A) (A) (A) (A) (A) (A) (A) (A) (A) (A) (A) (A)
                 (A) (A) (A) (A) (A) (A) (A) (A) (A) (A) (A) (A)
                 (A) (A) (A) (A) (A) (A) (A) (A) (A) (A) (A) (A)
                 (A) (A) (A) (A) (A) (A) (A) (A) (A) (A) (A) (A)
                 (A) (A) (A) (A) (A) (A) (A) (A) (A) (A) (A) (A)
                 (A) (A) (A) (A) (A) (A) (A) (A) (A) (A) (A) (A)
                 (A) (A) (A) (A) (A) (A) (A) (A) (A) (A) (A) (A)
                 (A) (A) (A) (A) (A) (A) (A) (A) (A) (A) (A) (A)
                 (A) (A) (A) (A) (A) (A) (A) (A) (A) (A) (A) (A)
                 (A) (A) (A) (A) (A) (A) (A) (A) (A) (A) (A) (A)
                 (A) (A) (A) (A) (A) (A) (A) (A) (A) (A) (A) (A)
                 (A) (A) (A) (A) (A) (A) (A) (A) (A) (A) (A) (A)
                 (A) (A) (A) (A) (A) (A) (A) (A) (A) (A) (A) (A)
                 (A) (A) (A) (A) (A) (A) (A) (A) (A) (A) (A) (A)
                 (A) (A) (A) (A) (A) (A) (A) (A) (A) (A) (A) (A)
                 (A) (A) (A) (A) (A) (A) (A) (A) (A) (A) (A) (A)
                 (A) (A) (A) (A) (A) (A) (A) (A) (A) (A) (A) (A)
                 (A) (A) (A) (A) (A) (A) (A) (A) (A) (A) (A) (A)
                 (A) (A) (A) (A) (A) (A) (A) (A) (A) (A) (A) (A)
                 (A) (A) (A) (A) (A) (A) (A) (A) (A) (A) (A) (A)
                 (A) (A) (A) (A) (A) (A) (A) (A) (A) (A) (A) (A)
                 (A) (A) (A) (A) (A) (A) (A) (A) (A) (A) (A) (A)
                 (A) (A) (A) (A) (A) (A) (A) (A) (A) (A) (A) (A)
                 (A) (A) (A) (A) (A) (A) (A) (A) (A) (A) (A) (A)
                 (A) (A) (A) (A) (A) (A) (A) (A) (A) (A) (A) (A)
                 (A) (A) (A) (A) (A) (A) (A) (A) (A) (A) (A) (A)
                 (A) (A) (A) (A) (A) (A) (A) (A) (A) (A) (A) (A)
                 (A) (A) (A) (A) (A) (A) (A) (A) (A) (A) (A) (A)
                 (A) (A) (A) (A) (A) (A) (A) (A) (A) (A) (A) (A)
                 (A) (A) (A) (A) (A) (A) (A) (A) (A) (A) (A) (A)
                 (A) (A) (A) (A) (A) (A) (A) (A) (A) (A) (A) (A)
                 (A) (A) (A) (A) (A) (A) (A) (A) (A) (A) (A) (A)
                 (A) (A) (A) (A) (A) (A) (A) (A) (A) (A) (A) (A)
                 (A) (A) (A) (A) (A) (A) (A) (A) (A) (A) (A) (A)
                 (A) (A) (A) (A) (A) (A) (A) (A) (A) (A) (A) (A)
                 (A) (A) (A) (A) (A) (A) (A) (A) (A) (A) (A) (A)
                 (A) (A) (A) (A) (A) (A) (A) (A) (A) (A) (A) (A)
                 (A) (A) (A) (A) (A) (A) (A) (A) (A) (A) (A) (A)
                 (A) (A) (A) (A) (A) (A) (A) (A) (A) (A) (A) (A)
                 (A) (A) (A) (A) (A) (A) (A) (A) (A) (A) (A) (A)
                 (A) (A) (A) (A) (A) (A) (A) (A) (A) (A) (A) (A)
                 (A) (A) (A) (A) (A) (A) (A) (A) (A) (A) (A) (A)
                 (A) (A) (A) (A) (A) (A) (A) (A) (A) (A) (A) (A)
                 (A) (A) (A) (A) (A) (A) (A) (A) (A) (A) (A) (A)
                 (A) (A) (A) (A) (A) (A) (A) (A) (A) (A) (A) (A)
                 (A) (A) (A) (A) (A) (A) (A) (A) (A) (A) (A) (A)
                 (A) (A) (A) (A) (A) (A) (A) (A) (A) (A) (A) (A)
                 (A) (A) (A) (A) (A) (A) (A) (A) (A) (A) (A) (A)
                 (A) (A) (A) (A) (A) (A) (A) (A) (A) (A) (A) (A)
                 (A) (A) (A) (A) (A) (A) (A) (A) (A) (A) (A) (A)
                 (A) (A) (A) (A) (A) (A) (A) (A) (A) (A) (A) (A)
                 (A) (A) (A) (A) (A) (A) (A) (A) (A) (A) (A) (A)
                 (A) (A) (A) (A) (A) (A) (A) (A) (A) (A) (A) (A)
                 (A) (A) (A) (A) (A) (A) (A) (A) (A) (A) (A) (A)
                 (A) (A) (A) (A) (A) (A) (A) (A) (A) (A) (A) (A)
                 (A) (A) (A) (A) (A) (A) (A) (A) (A) (A) (A) (A)
                 (A) (A) (A) (A) (A) (A) (A) (A) (A) (A) (A) (A)
                 (A) (A) (A) (A) (A) (A) (A) (A) (A) (A) (A) (A)
                 (A) (A) (A) (A) (A) (A) (A) (A) (A) (A) (A) (A)
                 (A) (A) (A) (A) (A) (A) (A) (A) (A) (A) (A) (A)
                 (A) (A) (A) (A) (A) (A) (A) (A) (A) (A) (A) (A)
                 (A) (A) (A) (A) (A) (A) (A) (A) (A) (A) (A) (A)
                 (A) (A) (A) (A) (A) (A) (A) (A) (A) (A) (A) (A)
                 (A) (A) (A) (A) (A) (A) (A) (A) (A) (A) (A) (A)
                 (A) (A) (A) (A) (A) (A) (A) (A) (A) (A) (A) (A)
                 (A) (A) (A) (A) (A) (A) (A) (A) (A) (A) (A) (A)
                 (A) (A) (A) (A) (A) (A) (A) (A) (A) (A) (A) (A)
                 (A) (A) (A) (A) (A) (A) (A) (A) (A) (A) (A) (A)
                 (A) (A) (A) (A) (A) (A) (A) (A) (A) (A) (A) (A)
                 (A) (A) (A) (A) (A) (A) (A) (A) (A) (A) (A) (A)
                 (A) (A) (A) (A) (A) (A) (A) (A) (A) (A) (A) (A)
                 (A) (A) (A) (A) (A) (A) (A) (A) (A) (A) (A) (A)
                 (A) (A) (A) (A) (A) (A) (A) (A) (A) (A) (A) (A)
                 (A) (A) (A) (A) (A) (A) (A) (A) (A) (A) (A) (A)
                 (A) (A) (A) (A) (A) (A) (A) (A) (A) (A) (A) (A)
                 (A) (A) (A) (A) (A) (A) (A) (A) (A) (A) (A) (A)
                 (A) (A) (A) (A) (A) (A) (A) (A) (A) (A) (A) (A)
                 (A) (A) (A) (A) (A) (A) (A) (A) (A) (A) (A) (A)
                 (A) (A) (A) (A) (A) (A) (A) (A) (A) (A) (A) (A)
                 (A) (A) (A) (A) (A) (A) (A) (A) (A) (A) (A) (A)
                 (A) (A) (A) (A) (A) (A) (A) (A) (A) (A) (A) (A)
                 (A) (A) (A) (A) (A) (A) (A) (A) (A) (A) (A) (A)
                 (A) (A) (A) (A) (A) (A) (A) (A) (A) (A) (A) (A)
                 (A) (A) (A) (A) (A) (A) (A) (A) (A) (A) (A) (A)
                 (A) (A) (A) (A) (A) (A) (A) (A) (A) (A) (A) (A)
                 (A) (A) (A) (A) (A) (A) (A) (A) (A) (A) (A) (A)
                 (A) (A) (A) (A) (A) (A) (A) (A) (A) (A) (A) (A)
                 (A) (A) (A) (A) (A) (A) (A) (A) (A) (A) (A) (A)
                 (A) (A) (A) (A) (A) (A) (A) (A) (A) (A) (A) (A)
                 (A) (A) (A) (A) (A) (A) (A) (A) (A) (A) (A) (A)
                 (A) (A) (A) (A) (A) (A) (A) (A) (A) (A) (A) (A)
                 (A) (A) (A) (A) (A) (A) (A) (A) (A) (A) (A) (A)
                 (A) (A) (A) (A) (A) (A) (A) (A) (A) (A) (A) (A)
                 (A) (A) (A) (A) (A) (A) (A) (A) (A) (A) (A) (A)
                 (A) (A) (A) (A) (A) (A) (A) (A) (A) (A) (A) (A)
                 (A) (A) (A) (A) (A) (A) (A) (A) (A) (A) (A) (A)
                 (A) (A) (A) (A) (A) (A) (A) (A) (A) (A) (A) (A)
                 (A) (A) (A) (A) (A) (A) (A) (A) (A) (A) (A) (A)
                 (A) (A) (A) (A) (A) (A) (A) (A) (A) (A) (A) (A)
                 (A) (A) (A) (A) (A) (A) (A) (A) (A) (A) (A) (A)
                 (A) (A) (A) (A) (A) (A) (A) (A) (A) (A) (A) (A)
                 (A) (A) (A) (A) (A) (A) (A) (A) (A) (A) (A) (A)
                 (A) (A) (A) (A) (A) (A) (A) (A) (A) (A) (A) (A)
                 (A) (A) (A) (A) (A) (A) (A) (A) (A) (A) (A) (A)
                 (A) (A) (A) (A) (A) (A) (A) (A) (A) (A) (A) (A)
                 (A) (A) (A) (A) (A) (A) (A) (A) (A) (A) (A) (A)
                 (A) (A) (A) (A) (A) (A) (A) (A) (A) (A) (A) (A)
                 (A) (A) (A) (A) (A) (A) (A) (A) (A) (A) (A) (A)
                 (A) (A) (A) (A) (A) (A) (A) (A) (A) (A) (A) (A)
                 (A) (A) (A) (A) (A) (A) (A) (A) (A) (A) (A) (A)
                 (A) (A) (A) (A) (A) (A) (A) (A) (A) (A) (A) (A)
                 (A) (A) (A) (A) (A) (A) (A) (A) (A) (A) (A) (A)
                 (A) (A) (A) (A) (A) (A) (A) (A) (A) (A) (A) (A)
                 (A) (A) (A) (A) (A) (A) (A) (A) (A) (A) (A) (A)
                 (A) (A) (A) (A) (A) (A) (A) (A) (A) (A) (A) (A)
                 (A) (A) (A) (A) (A) (A) (A) (A) (A) (A) (A) (A)
                 (A) (A) (A) (A) (A) (A) (A) (A) (A) (A) (A) (A)
                 (A) (A) (A) (A) (A) (A) (A) (A) (A) (A) (A) (A)
                 (A) (A) (A) (A) (A) (A) (A) (A) (A) (A) (A) (A)
 The electronic state is 2-A.
 Alpha  occ. eigenvalues --  -25.19461 -25.19284 -19.66659 -19.66655 -19.62757
 Alpha  occ. eigenvalues --  -15.00080 -14.76277 -14.76198 -10.63264 -10.60768
 Alpha  occ. eigenvalues --  -10.57880 -10.57643 -10.57363 -10.57287 -10.57233
 Alpha  occ. eigenvalues --  -10.57134 -10.57123 -10.57043 -10.56234 -10.56118
 Alpha  occ. eigenvalues --  -10.56111 -10.56032 -10.55795 -10.55728 -10.55457
 Alpha  occ. eigenvalues --  -10.55312 -10.55165 -10.55153 -10.54769 -10.54667
 Alpha  occ. eigenvalues --  -10.54620 -10.54618 -10.54586 -10.54573 -10.54555
 Alpha  occ. eigenvalues --  -10.54529 -10.54457 -10.54425 -10.53176 -10.53098
 Alpha  occ. eigenvalues --  -10.52941 -10.52578  -7.11555  -1.34351  -1.31212
 Alpha  occ. eigenvalues --   -1.27958  -1.16251  -1.16013  -1.08428  -1.06473
 Alpha  occ. eigenvalues --   -0.99866  -0.97669  -0.96608  -0.93952  -0.91364
 Alpha  occ. eigenvalues --   -0.90549  -0.89318  -0.88646  -0.88293  -0.86752
 Alpha  occ. eigenvalues --   -0.85955  -0.85362  -0.84525  -0.84073  -0.80521
 Alpha  occ. eigenvalues --   -0.79695  -0.79007  -0.77897  -0.75617  -0.72948
 Alpha  occ. eigenvalues --   -0.71440  -0.70490  -0.70011  -0.68955  -0.68639
 Alpha  occ. eigenvalues --   -0.68168  -0.66828  -0.65412  -0.64875  -0.64778
 Alpha  occ. eigenvalues --   -0.63144  -0.62929  -0.61818  -0.61188  -0.60693
 Alpha  occ. eigenvalues --   -0.59638  -0.59387  -0.58695  -0.58258  -0.57431
 Alpha  occ. eigenvalues --   -0.56981  -0.55765  -0.54734  -0.54200  -0.53671
 Alpha  occ. eigenvalues --   -0.53107  -0.53057  -0.52355  -0.52015  -0.51650
 Alpha  occ. eigenvalues --   -0.51253  -0.51062  -0.50776  -0.50124  -0.50052
 Alpha  occ. eigenvalues --   -0.49559  -0.49515  -0.48700  -0.48651  -0.48438
 Alpha  occ. eigenvalues --   -0.48273  -0.47908  -0.47293  -0.46923  -0.46823
 Alpha  occ. eigenvalues --   -0.46063  -0.45729  -0.45548  -0.45462  -0.45335
 Alpha  occ. eigenvalues --   -0.44977  -0.44608  -0.44450  -0.43194  -0.42527
 Alpha  occ. eigenvalues --   -0.42450  -0.42298  -0.41713  -0.41287  -0.40587
 Alpha  occ. eigenvalues --   -0.40445  -0.40149  -0.39679  -0.39170  -0.38867
 Alpha  occ. eigenvalues --   -0.38694  -0.38368  -0.37618  -0.35320  -0.34150
 Alpha  occ. eigenvalues --   -0.33231  -0.32473  -0.32330  -0.31403  -0.30992
 Alpha  occ. eigenvalues --   -0.30717  -0.29676  -0.27869  -0.23262  -0.17543
 Alpha virt. eigenvalues --   -0.08012  -0.05475  -0.02309   0.00255   0.00975
 Alpha virt. eigenvalues --    0.01312   0.01705   0.03272   0.05478   0.06262
 Alpha virt. eigenvalues --    0.07051   0.07314   0.08081   0.08499   0.08936
 Alpha virt. eigenvalues --    0.09159   0.09389   0.09907   0.10215   0.10618
 Alpha virt. eigenvalues --    0.10735   0.11142   0.11425   0.12132   0.12157
 Alpha virt. eigenvalues --    0.12689   0.12962   0.13361   0.13577   0.13738
 Alpha virt. eigenvalues --    0.14133   0.14290   0.14501   0.14724   0.14794
 Alpha virt. eigenvalues --    0.15448   0.15598   0.16058   0.16243   0.16314
 Alpha virt. eigenvalues --    0.16587   0.17219   0.17539   0.17764   0.17966
 Alpha virt. eigenvalues --    0.18356   0.18423   0.18936   0.19265   0.19709
 Alpha virt. eigenvalues --    0.20328   0.20628   0.20852   0.21084   0.21338
 Alpha virt. eigenvalues --    0.21686   0.21964   0.22256   0.22439   0.22617
 Alpha virt. eigenvalues --    0.22960   0.23288   0.23496   0.23569   0.23749
 Alpha virt. eigenvalues --    0.24051   0.24118   0.24512   0.24873   0.24974
 Alpha virt. eigenvalues --    0.25336   0.25738   0.25945   0.26022   0.26446
 Alpha virt. eigenvalues --    0.26615   0.26767   0.27114   0.27399   0.27526
 Alpha virt. eigenvalues --    0.27555   0.27751   0.28064   0.28211   0.28593
 Alpha virt. eigenvalues --    0.29059   0.29113   0.29476   0.29748   0.30162
 Alpha virt. eigenvalues --    0.30369   0.30425   0.30785   0.31213   0.31413
 Alpha virt. eigenvalues --    0.31766   0.31832   0.32126   0.32426   0.32623
 Alpha virt. eigenvalues --    0.32996   0.33175   0.33517   0.33719   0.33966
 Alpha virt. eigenvalues --    0.34101   0.34495   0.34619   0.34659   0.34976
 Alpha virt. eigenvalues --    0.35198   0.35601   0.35714   0.36001   0.36144
 Alpha virt. eigenvalues --    0.36375   0.36674   0.37032   0.37329   0.37377
 Alpha virt. eigenvalues --    0.37544   0.37736   0.38113   0.38269   0.38425
 Alpha virt. eigenvalues --    0.38615   0.38792   0.39277   0.39323   0.39652
 Alpha virt. eigenvalues --    0.39790   0.39922   0.40170   0.40428   0.40561
 Alpha virt. eigenvalues --    0.41260   0.41366   0.41797   0.41964   0.42177
 Alpha virt. eigenvalues --    0.42554   0.42604   0.42750   0.42963   0.43112
 Alpha virt. eigenvalues --    0.43314   0.43592   0.43816   0.44009   0.44267
 Alpha virt. eigenvalues --    0.44403   0.44592   0.44781   0.45134   0.45210
 Alpha virt. eigenvalues --    0.45540   0.45875   0.46087   0.46253   0.46495
 Alpha virt. eigenvalues --    0.46784   0.46966   0.47361   0.47553   0.47879
 Alpha virt. eigenvalues --    0.48074   0.48441   0.48623   0.48951   0.49100
 Alpha virt. eigenvalues --    0.49742   0.49883   0.49968   0.50326   0.50725
 Alpha virt. eigenvalues --    0.50855   0.51448   0.51570   0.51731   0.51971
 Alpha virt. eigenvalues --    0.52244   0.52641   0.52708   0.52884   0.52965
 Alpha virt. eigenvalues --    0.53353   0.53492   0.53957   0.54096   0.54348
 Alpha virt. eigenvalues --    0.54413   0.54725   0.54790   0.55287   0.55438
 Alpha virt. eigenvalues --    0.55512   0.55906   0.56105   0.56346   0.56903
 Alpha virt. eigenvalues --    0.57172   0.57542   0.58029   0.58059   0.58218
 Alpha virt. eigenvalues --    0.58449   0.59197   0.59463   0.59569   0.60212
 Alpha virt. eigenvalues --    0.60286   0.60834   0.61292   0.61713   0.61915
 Alpha virt. eigenvalues --    0.62198   0.62590   0.62973   0.63183   0.63487
 Alpha virt. eigenvalues --    0.63989   0.64349   0.64692   0.64817   0.65121
 Alpha virt. eigenvalues --    0.65553   0.65861   0.65945   0.66207   0.66709
 Alpha virt. eigenvalues --    0.67035   0.67178   0.67351   0.67556   0.67956
 Alpha virt. eigenvalues --    0.68177   0.68430   0.68775   0.69305   0.69604
 Alpha virt. eigenvalues --    0.69762   0.70037   0.70096   0.70363   0.70685
 Alpha virt. eigenvalues --    0.70812   0.71059   0.71244   0.71437   0.71561
 Alpha virt. eigenvalues --    0.72275   0.72385   0.72575   0.72809   0.72995
 Alpha virt. eigenvalues --    0.73289   0.73378   0.73784   0.73991   0.74135
 Alpha virt. eigenvalues --    0.74459   0.74662   0.74884   0.75249   0.75480
 Alpha virt. eigenvalues --    0.75566   0.75745   0.76431   0.76641   0.76958
 Alpha virt. eigenvalues --    0.77411   0.77571   0.77892   0.78084   0.78445
 Alpha virt. eigenvalues --    0.78597   0.78739   0.79105   0.79410   0.79801
 Alpha virt. eigenvalues --    0.80015   0.80564   0.80897   0.81127   0.81409
 Alpha virt. eigenvalues --    0.81483   0.81526   0.82389   0.82846   0.83224
 Alpha virt. eigenvalues --    0.83438   0.83587   0.83883   0.84195   0.84493
 Alpha virt. eigenvalues --    0.84822   0.85266   0.85402   0.86188   0.86504
 Alpha virt. eigenvalues --    0.86725   0.86879   0.87065   0.87427   0.87743
 Alpha virt. eigenvalues --    0.88347   0.88374   0.88826   0.89323   0.89499
 Alpha virt. eigenvalues --    0.89808   0.90434   0.90785   0.91264   0.91380
 Alpha virt. eigenvalues --    0.91732   0.92312   0.92368   0.92906   0.92999
 Alpha virt. eigenvalues --    0.93597   0.93658   0.94311   0.94771   0.94960
 Alpha virt. eigenvalues --    0.95005   0.95820   0.96449   0.96684   0.96920
 Alpha virt. eigenvalues --    0.97395   0.97620   0.97751   0.98327   0.98890
 Alpha virt. eigenvalues --    0.99187   0.99277   0.99383   0.99790   1.00039
 Alpha virt. eigenvalues --    1.00124   1.00780   1.00881   1.01034   1.01241
 Alpha virt. eigenvalues --    1.01661   1.01950   1.02218   1.02730   1.02825
 Alpha virt. eigenvalues --    1.03367   1.03691   1.03793   1.04212   1.04634
 Alpha virt. eigenvalues --    1.04958   1.05130   1.05368   1.05824   1.06035
 Alpha virt. eigenvalues --    1.06275   1.06704   1.06897   1.07021   1.07734
 Alpha virt. eigenvalues --    1.07982   1.08276   1.08728   1.09033   1.10015
 Alpha virt. eigenvalues --    1.10077   1.10561   1.10624   1.11206   1.11346
 Alpha virt. eigenvalues --    1.11753   1.12132   1.12433   1.12555   1.12650
 Alpha virt. eigenvalues --    1.12998   1.13749   1.14292   1.14605   1.14850
 Alpha virt. eigenvalues --    1.15366   1.15724   1.16241   1.16472   1.17013
 Alpha virt. eigenvalues --    1.17268   1.17683   1.17867   1.18146   1.18222
 Alpha virt. eigenvalues --    1.18581   1.19013   1.19476   1.20209   1.20322
 Alpha virt. eigenvalues --    1.20600   1.20924   1.21390   1.21775   1.21978
 Alpha virt. eigenvalues --    1.22442   1.22938   1.23128   1.23451   1.23994
 Alpha virt. eigenvalues --    1.24259   1.24373   1.24630   1.24912   1.25465
[...]
     4 C(13)  Bbb    -0.0785   -10.540    -3.761    -3.516  0.9745  0.2222  0.0297
              Bcc     0.1600    21.468     7.660     7.161 -0.0443  0.0610  0.9972
 
              Baa    -0.0596    -7.997    -2.854    -2.668 -0.0506  0.1661  0.9848
     5 C(13)  Bbb     0.0248     3.333     1.189     1.112 -0.3194  0.9316 -0.1736
              Bcc     0.0348     4.665     1.664     1.556  0.9463  0.3233 -0.0059
 
              Baa    -0.0719    -9.644    -3.441    -3.217  0.3934  0.9049 -0.1623
     6 C(13)  Bbb    -0.0667    -8.954    -3.195    -2.987  0.9184 -0.3788  0.1141
              Bcc     0.1386    18.597     6.636     6.203 -0.0418  0.1939  0.9801
 
              Baa    -0.0236    -3.167    -1.130    -1.057 -0.0357  0.2015  0.9788
     7 C(13)  Bbb     0.0089     1.192     0.425     0.398  0.1066  0.9746 -0.1968
              Bcc     0.0147     1.975     0.705     0.659  0.9937 -0.0973  0.0562
 
              Baa    -0.0201    -2.703    -0.965    -0.902 -0.1973  0.9574 -0.2108
     8 C(13)  Bbb    -0.0184    -2.475    -0.883    -0.825  0.9785  0.2056  0.0180
              Bcc     0.0386     5.178     1.848     1.727 -0.0606  0.2027  0.9774
 
              Baa    -0.0152    -2.045    -0.730    -0.682 -0.0599  0.2029  0.9774
     9 C(13)  Bbb     0.0060     0.809     0.289     0.270 -0.2672  0.9401 -0.2116
              Bcc     0.0092     1.235     0.441     0.412  0.9618  0.2738  0.0021
 
              Baa    -0.0236    -3.171    -1.131    -1.058 -0.0902  0.9737 -0.2091
    10 C(13)  Bbb    -0.0204    -2.739    -0.977    -0.914  0.9947  0.0985  0.0299
              Bcc     0.0440     5.910     2.109     1.971 -0.0497  0.2053  0.9774
 
              Baa    -0.0015    -0.198    -0.071    -0.066 -0.5412  0.8133 -0.2137
    11 C(13)  Bbb    -0.0001    -0.019    -0.007    -0.006 -0.0416  0.2280  0.9728
              Bcc     0.0016     0.217     0.077     0.072  0.8398  0.5354 -0.0896
 
              Baa    -0.0463     3.351     1.196     1.118  0.6023  0.7867 -0.1359
    12 O(17)  Bbb    -0.0435     3.151     1.124     1.051  0.7968 -0.5817  0.1636
              Bcc     0.0899    -6.502    -2.320    -2.169 -0.0497  0.2068  0.9771
 
              Baa    -0.0133    -1.791    -0.639    -0.597 -0.0525  0.2036  0.9777
    13 C(13)  Bbb     0.0052     0.700     0.250     0.233  0.0473  0.9784 -0.2012
              Bcc     0.0081     1.091     0.389     0.364  0.9975 -0.0357  0.0610
 
              Baa    -0.0175    -2.352    -0.839    -0.785 -0.1162  0.9715 -0.2066
    14 C(13)  Bbb    -0.0149    -2.004    -0.715    -0.668  0.9920  0.1240  0.0247
              Bcc     0.0325     4.356     1.554     1.453 -0.0496  0.2021  0.9781
 
              Baa    -0.0500    -1.927    -0.687    -0.643  0.3046  0.9524  0.0148
    15 N(14)  Bbb    -0.0410    -1.582    -0.564    -0.528  0.9432 -0.3038  0.1346
              Bcc     0.0910     3.508     1.252     1.170 -0.1327  0.0271  0.9908
 
              Baa    -0.0925   -12.419    -4.432    -4.143 -0.0380  0.0784  0.9962
    16 C(13)  Bbb     0.0406     5.451     1.945     1.818 -0.5940  0.7999 -0.0856
              Bcc     0.0519     6.969     2.487     2.324  0.8035  0.5950 -0.0162
 
              Baa    -0.1934   -25.953    -9.261    -8.657  0.2121  0.9762 -0.0457
    17 C(13)  Bbb    -0.1878   -25.200    -8.992    -8.406  0.9772 -0.2120  0.0083
              Bcc     0.3812    51.153    18.253    17.063  0.0016  0.0464  0.9989
 
              Baa    -0.0212    -2.850    -1.017    -0.951 -0.1065 -0.4615  0.8807
    18 C(13)  Bbb     0.0093     1.247     0.445     0.416  0.9365 -0.3443 -0.0671
              Bcc     0.0119     1.604     0.572     0.535  0.3342  0.8176  0.4689
 
              Baa    -0.0207    -2.777    -0.991    -0.926 -0.3401  0.4337  0.8344
    19 C(13)  Bbb    -0.0133    -1.787    -0.638    -0.596  0.7685 -0.3832  0.5124
              Bcc     0.0340     4.564     1.629     1.522  0.5420  0.8155 -0.2030
 
              Baa    -0.0110    -1.483    -0.529    -0.495  0.5793  0.7325 -0.3575
    20 C(13)  Bbb     0.0008     0.106     0.038     0.035 -0.0161  0.4488  0.8935
              Bcc     0.0103     1.377     0.491     0.459  0.8149 -0.5119  0.2718
 
              Baa    -0.0287    -3.847    -1.373    -1.283  0.1345  0.5278  0.8387
    21 C(13)  Bbb    -0.0224    -3.003    -1.072    -1.002  0.9662 -0.2576  0.0071
              Bcc     0.0510     6.850     2.444     2.285  0.2198  0.8094 -0.5446
 
              Baa    -0.0153    -0.590    -0.211    -0.197  0.1309  0.5141  0.8477
    22 N(14)  Bbb    -0.0127    -0.491    -0.175    -0.164  0.9678 -0.2516  0.0031
              Bcc     0.0280     1.081     0.386     0.361  0.2149  0.8200 -0.5305
 
              Baa    -0.0586     4.240     1.513     1.414 -0.3498  0.5664  0.7462
    23 O(17)  Bbb    -0.0563     4.071     1.453     1.358  0.8949 -0.0336  0.4450
              Bcc     0.1149    -8.311    -2.966    -2.772  0.2771  0.8234 -0.4951
 
              Baa    -0.0577     4.175     1.490     1.393  0.5633  0.3283  0.7582
    24 O(17)  Bbb    -0.0555     4.012     1.432     1.338  0.8083 -0.4090 -0.4235
              Bcc     0.1132    -8.188    -2.922    -2.731  0.1710  0.8514 -0.4958
 
              Baa    -0.0121    -1.620    -0.578    -0.540 -0.1011  0.9135 -0.3940
    25 C(13)  Bbb     0.0015     0.201     0.072     0.067  0.1976  0.4066  0.8920
              Bcc     0.0106     1.419     0.506     0.473  0.9751  0.0123 -0.2216
 
              Baa    -0.0212    -2.845    -1.015    -0.949  0.4851  0.2373  0.8416
    26 C(13)  Bbb    -0.0141    -1.890    -0.674    -0.630  0.8712 -0.0478 -0.4887
              Bcc     0.0353     4.735     1.690     1.579 -0.0758  0.9703 -0.2299
 
              Baa    -0.0706    -9.474    -3.381    -3.160  0.1033  0.0599  0.9929
    27 C(13)  Bbb     0.0307     4.114     1.468     1.372  0.9472  0.2988 -0.1165
              Bcc     0.0399     5.360     1.913     1.788 -0.3037  0.9524 -0.0259
 
              Baa    -0.0758   -10.176    -3.631    -3.394  0.8071 -0.5890 -0.0419
    28 C(13)  Bbb    -0.0740    -9.926    -3.542    -3.311  0.5692  0.7950 -0.2098
              Bcc     0.1498    20.102     7.173     6.705  0.1568  0.1455  0.9769
 
              Baa    -0.0014    -0.183    -0.065    -0.061 -0.1214  0.6170  0.7776
    29 C(13)  Bbb    -0.0007    -0.092    -0.033    -0.031 -0.5600  0.6042 -0.5669
              Bcc     0.0020     0.275     0.098     0.092  0.8195  0.5043 -0.2721
 
              Baa    -0.0438    -5.876    -2.097    -1.960  0.1472  0.1050  0.9835
    30 C(13)  Bbb     0.0212     2.842     1.014     0.948  0.1149  0.9858 -0.1225
              Bcc     0.0226     3.035     1.083     1.012  0.9824 -0.1310 -0.1330
 
              Baa    -0.0883   -11.845    -4.227    -3.951  0.3628  0.9262 -0.1028
    31 C(13)  Bbb    -0.0866   -11.614    -4.144    -3.874  0.9274 -0.3697 -0.0573
              Bcc     0.1748    23.459     8.371     7.825  0.0911  0.0746  0.9930
 
              Baa    -0.0609    -8.166    -2.914    -2.724  0.0279 -0.0270  0.9992
    32 C(13)  Bbb     0.0259     3.479     1.241     1.160  0.8097  0.5868 -0.0067
              Bcc     0.0349     4.687     1.672     1.563 -0.5861  0.8093  0.0382
 
              Baa    -0.0674    -9.049    -3.229    -3.018  0.1523  0.9875  0.0406
    33 C(13)  Bbb    -0.0638    -8.568    -3.057    -2.858  0.9881 -0.1512 -0.0292
              Bcc     0.1313    17.617     6.286     5.876  0.0227 -0.0445  0.9987
 
              Baa    -0.0204    -2.742    -0.978    -0.915  0.0101 -0.0443  0.9990
    34 C(13)  Bbb     0.0082     1.105     0.394     0.369  0.4608  0.8868  0.0346
              Bcc     0.0122     1.636     0.584     0.546  0.8874 -0.4600 -0.0294
 
              Baa    -0.0149    -2.004    -0.715    -0.668  0.5885  0.8080  0.0280
    35 C(13)  Bbb    -0.0141    -1.888    -0.674    -0.630  0.8085 -0.5884 -0.0120
              Bcc     0.0290     3.892     1.389     1.298 -0.0068 -0.0297  0.9995
 
              Baa    -0.0113    -1.522    -0.543    -0.508  0.0013 -0.0374  0.9993
    36 C(13)  Bbb     0.0049     0.656     0.234     0.219  0.7889  0.6141  0.0220
              Bcc     0.0065     0.867     0.309     0.289 -0.6145  0.7883  0.0303
 
              Baa    -0.0173    -2.319    -0.827    -0.774  0.6192  0.7846  0.0311
    37 C(13)  Bbb    -0.0154    -2.067    -0.737    -0.689  0.7852 -0.6186 -0.0283
              Bcc     0.0327     4.386     1.565     1.463  0.0029 -0.0419  0.9991
 
              Baa    -0.0117    -1.571    -0.561    -0.524  0.0019 -0.0382  0.9993
    38 C(13)  Bbb     0.0051     0.685     0.244     0.228  0.4466  0.8941  0.0333
              Bcc     0.0066     0.886     0.316     0.296  0.8947 -0.4462 -0.0188
 
              Baa    -0.0156    -2.094    -0.747    -0.699  0.7158  0.6979  0.0236
    39 C(13)  Bbb    -0.0140    -1.878    -0.670    -0.627 -0.6982  0.7152  0.0297
              Bcc     0.0296     3.973     1.418     1.325  0.0039 -0.0377  0.9993
 
              Baa    -0.0317    -1.223    -0.436    -0.408  0.0592  0.9982  0.0067
    40 N(14)  Bbb    -0.0239    -0.920    -0.328    -0.307  0.9624 -0.0553 -0.2660
              Bcc     0.0556     2.143     0.765     0.715  0.2652 -0.0222  0.9639
 
              Baa    -0.0027    -0.461    -0.165    -0.154  0.0041  0.2453  0.9695
    41 B(11)  Bbb     0.0003     0.058     0.021     0.019  0.9801  0.1916 -0.0526
              Bcc     0.0024     0.403     0.144     0.134 -0.1986  0.9503 -0.2396
 
              Baa    -0.0126    -6.345    -2.264    -2.116  0.3537  0.9048  0.2371
    42 F(19)  Bbb    -0.0103    -5.157    -1.840    -1.720  0.3623 -0.3663  0.8571
              Bcc     0.0229    11.502     4.104     3.837  0.8623 -0.2173 -0.4574
 
              Baa    -0.0062    -3.094    -1.104    -1.032 -0.2320  0.0397  0.9719
    43 F(19)  Bbb    -0.0041    -2.059    -0.735    -0.687  0.2368  0.9714  0.0168
              Bcc     0.0103     5.153     1.839     1.719  0.9434 -0.2341  0.2348
 
              Baa    -0.0022    -1.163    -0.415    -0.388  0.2256 -0.0788  0.9710
    44 H(1)   Bbb    -0.0001    -0.066    -0.024    -0.022  0.7495  0.6508 -0.1213
              Bcc     0.0023     1.229     0.438     0.410 -0.6224  0.7552  0.2059
 
              Baa    -0.0021    -1.141    -0.407    -0.381 -0.1821  0.3383  0.9233
    45 H(1)   Bbb    -0.0004    -0.207    -0.074    -0.069  0.8062  0.5890 -0.0568
              Bcc     0.0025     1.349     0.481     0.450 -0.5630  0.7340 -0.3799
 
              Baa    -0.0015    -0.781    -0.279    -0.261 -0.3305  0.1100  0.9374
    46 H(1)   Bbb    -0.0011    -0.598    -0.213    -0.199  0.9035  0.3240  0.2806
              Bcc     0.0026     1.379     0.492     0.460 -0.2728  0.9397 -0.2065
 
              Baa    -0.0022    -1.196    -0.427    -0.399  0.0171  0.2237  0.9745
    47 H(1)   Bbb    -0.0021    -1.124    -0.401    -0.375  0.3587  0.9084 -0.2148
              Bcc     0.0043     2.320     0.828     0.774  0.9333 -0.3532  0.0647
 
              Baa    -0.0030    -1.606    -0.573    -0.536 -0.2395  0.9687  0.0649
    48 H(1)   Bbb    -0.0025    -1.320    -0.471    -0.440  0.0042 -0.0658  0.9978
              Bcc     0.0055     2.926     1.044     0.976  0.9709  0.2392  0.0117
 
              Baa    -0.0075    -4.002    -1.428    -1.335  0.8849  0.4631 -0.0488
    49 H(1)   Bbb    -0.0017    -0.932    -0.332    -0.311 -0.0321  0.1651  0.9857
              Bcc     0.0092     4.933     1.760     1.646 -0.4646  0.8708 -0.1610
 
              Baa    -0.0018    -0.944    -0.337    -0.315  0.8871 -0.4503  0.1011
    50 H(1)   Bbb    -0.0010    -0.545    -0.194    -0.182 -0.0349  0.1529  0.9876
              Bcc     0.0028     1.488     0.531     0.496  0.4602  0.8797 -0.1199
 
              Baa    -0.0008    -0.452    -0.161    -0.151 -0.0558  0.1915  0.9799
    51 H(1)   Bbb    -0.0005    -0.290    -0.103    -0.097 -0.3991  0.8953 -0.1977
              Bcc     0.0014     0.741     0.265     0.247  0.9152  0.4021 -0.0265
 
              Baa    -0.0006    -0.340    -0.121    -0.114 -0.1132  0.0947  0.9890
    52 H(1)   Bbb    -0.0006    -0.303    -0.108    -0.101  0.4743  0.8799 -0.0300
              Bcc     0.0012     0.644     0.230     0.215  0.8731 -0.4657  0.1445
 
              Baa    -0.0009    -0.454    -0.162    -0.151 -0.0557  0.1889  0.9804
    53 H(1)   Bbb    -0.0005    -0.246    -0.088    -0.082  0.1883  0.9663 -0.1755
              Bcc     0.0013     0.700     0.250     0.234  0.9805 -0.1748  0.0894
 
              Baa    -0.0012    -0.623    -0.222    -0.208 -0.0857  0.1780  0.9803
    54 H(1)   Bbb    -0.0006    -0.342    -0.122    -0.114  0.8871  0.4615 -0.0062
              Bcc     0.0018     0.966     0.345     0.322 -0.4535  0.8691 -0.1975
 
              Baa    -0.0027    -1.417    -0.506    -0.473 -0.3093 -0.6531  0.6912
    55 H(1)   Bbb    -0.0000    -0.024    -0.008    -0.008  0.8788 -0.4741 -0.0547
              Bcc     0.0027     1.441     0.514     0.481  0.3634  0.5905  0.7206
 
              Baa    -0.0015    -0.789    -0.282    -0.263 -0.2432 -0.6702  0.7012
    56 H(1)   Bbb    -0.0003    -0.143    -0.051    -0.048  0.0944  0.7031  0.7048
              Bcc     0.0017     0.932     0.333     0.311  0.9654 -0.2376  0.1077
 
              Baa    -0.0015    -0.793    -0.283    -0.265  0.1565  0.6996 -0.6972
    57 H(1)   Bbb    -0.0003    -0.143    -0.051    -0.048  0.2124  0.6655  0.7155
              Bcc     0.0018     0.936     0.334     0.312  0.9646 -0.2601 -0.0444
 
              Baa    -0.0028    -1.493    -0.533    -0.498 -0.0843 -0.6979  0.7112
    58 H(1)   Bbb    -0.0002    -0.089    -0.032    -0.030  0.9963 -0.0725  0.0469
              Bcc     0.0030     1.583     0.565     0.528  0.0188  0.7125  0.7014
 
              Baa    -0.0024    -1.262    -0.450    -0.421  0.3712  0.2151  0.9033
    59 H(1)   Bbb    -0.0005    -0.269    -0.096    -0.090 -0.3054  0.9470 -0.1000
              Bcc     0.0029     1.531     0.546     0.511  0.8769  0.2387 -0.4172
 
              Baa    -0.0017    -0.880    -0.314    -0.294  0.3859 -0.0639  0.9203
    60 H(1)   Bbb    -0.0013    -0.672    -0.240    -0.224 -0.5627  0.7742  0.2897
              Bcc     0.0029     1.552     0.554     0.518  0.7311  0.6297 -0.2628
 
              Baa    -0.0024    -1.266    -0.452    -0.422 -0.2116  0.1199  0.9700
    61 H(1)   Bbb    -0.0003    -0.163    -0.058    -0.054 -0.2351  0.9571 -0.1696
              Bcc     0.0027     1.429     0.510     0.477  0.9487  0.2639  0.1743
 
              Baa    -0.0025    -1.318    -0.470    -0.440  0.1415  0.0594  0.9881
    62 H(1)   Bbb    -0.0007    -0.375    -0.134    -0.125  0.0090  0.9981 -0.0613
              Bcc     0.0032     1.692     0.604     0.564  0.9899 -0.0176 -0.1407
 
              Baa    -0.0027    -1.436    -0.512    -0.479  0.6678  0.6173 -0.4160
    63 H(1)   Bbb    -0.0025    -1.315    -0.469    -0.439  0.3299  0.2556  0.9088
              Bcc     0.0052     2.751     0.982     0.918 -0.6673  0.7441  0.0330
 
              Baa    -0.0066    -3.525    -1.258    -1.176 -0.5363  0.8436  0.0271
    64 H(1)   Bbb    -0.0020    -1.047    -0.374    -0.349  0.0501 -0.0002  0.9987
              Bcc     0.0086     4.572     1.631     1.525  0.8425  0.5370 -0.0422
 
              Baa    -0.0011    -0.596    -0.213    -0.199  0.9619 -0.1653 -0.2178
    65 H(1)   Bbb    -0.0010    -0.522    -0.186    -0.174  0.2146 -0.0374  0.9760
              Bcc     0.0021     1.118     0.399     0.373  0.1695  0.9855  0.0005
 
              Baa    -0.0006    -0.345    -0.123    -0.115 -0.0010 -0.0381  0.9993
    66 H(1)   Bbb    -0.0003    -0.145    -0.052    -0.048  0.8197  0.5723  0.0227
              Bcc     0.0009     0.491     0.175     0.164 -0.5727  0.8192  0.0307
 
              Baa    -0.0025    -1.330    -0.475    -0.444  0.5928  0.8047  0.0331
    67 H(1)   Bbb    -0.0002    -0.133    -0.047    -0.044  0.0019 -0.0425  0.9991
              Bcc     0.0027     1.463     0.522     0.488  0.8054 -0.5922 -0.0267
 
              Baa    -0.0006    -0.329    -0.117    -0.110  0.0042 -0.0310  0.9995
    68 H(1)   Bbb    -0.0002    -0.115    -0.041    -0.038  0.4051  0.9139  0.0266
              Bcc     0.0008     0.444     0.158     0.148  0.9143 -0.4048 -0.0164
 
              Baa    -0.0010    -0.560    -0.200    -0.187 -0.0192 -0.0052  0.9998
    69 H(1)   Bbb    -0.0007    -0.352    -0.126    -0.117 -0.5957  0.8031 -0.0072
              Bcc     0.0017     0.912     0.325     0.304  0.8029  0.5958  0.0185
 

 ---------------------------------------------------------------------------------

 No NMR shielding tensors so no spin-rotation constants.
 Leave Link  601 at Sat Oct 25 05:55:58 2025, MaxMem= 30870077440 cpu:             187.0 elap:               3.3
 (Enter /public/software/gauss/g16/l9999.exe)
 1\1\GINC-CU056\SP\UM062X\def2TZVPP\C34H26B1F2N3O3(1-,2)\BAIDING\25-Oct
 -2025\0\\#p M062X/DEF2TZVPP scrf=(solvent=water) em=GD3\\Energy calcul
 ation for BNP_CHO_reduced\\-1,2\C,0,2.722932,-3.708914,0.363167\C,0,1.
 539855,-2.811452,0.144478\C,0,0.227034,-3.27001,0.123705\C,0,-0.641154
 ,-2.168382,-0.011092\C,0,-2.071881,-2.143025,-0.07454\C,0,-2.872957,-3
 .235267,0.086274\C,0,-4.320735,-3.254291,0.010623\C,0,-5.110122,-2.111
 129,-0.269657\C,0,-6.490821,-2.199124,-0.323386\C,0,-7.146329,-3.42611
 2,-0.101374\C,0,-8.602956,-3.48814,-0.162829\O,0,-9.276919,-4.505304,0
 .018285\C,0,-6.37344,-4.570729,0.177013\C,0,-4.994473,-4.483792,0.2305
 39\N,0,0.131348,-1.02493,-0.088529\C,0,1.473384,-1.385454,-0.013827\C,
 0,2.487289,-0.385829,-0.035062\C,0,3.908649,-0.765416,-0.019684\C,0,4.
 766539,-0.32027,1.012376\C,0,6.103204,-0.676068,1.041642\C,0,6.622948,
 -1.475218,0.008474\N,0,8.000074,-1.837476,0.024391\O,0,8.453097,-2.565
 668,-0.893462\O,0,8.731777,-1.421247,0.956745\C,0,5.79934,-1.920163,-1
 .040219\C,0,4.459714,-1.575044,-1.039562\C,0,2.12352,0.988877,-0.07895
 \C,0,2.905227,2.170802,-0.303846\C,0,4.371266,2.318306,-0.589485\C,0,2
 .012419,3.238734,-0.300565\C,0,0.707261,2.743515,-0.112311\C,0,-0.5378
 12,3.466217,-0.062815\C,0,-0.631077,4.820739,-0.018056\C,0,-1.857686,5
 .612717,0.01619\C,0,-3.154416,5.052884,-0.002084\C,0,-4.283554,5.86548
 ,0.033994\C,0,-4.157603,7.258474,0.088651\C,0,-2.883305,7.830301,0.107
 188\C,0,-1.751158,7.018646,0.071865\N,0,0.78721,1.372695,0.004419\B,0,
 -0.397111,0.402605,0.173818\F,0,-0.938945,0.491863,1.471639\F,0,-1.418
 308,0.718936,-0.750564\H,0,3.28997,-3.901718,-0.553567\H,0,3.425835,-3
 .291779,1.090106\H,0,2.376681,-4.67439,0.74373\H,0,-0.078225,-4.305136
 ,0.20169\H,0,-2.519572,-1.176464,-0.277949\H,0,-2.410665,-4.197557,0.2
 9658\H,0,-4.633598,-1.152802,-0.446196\H,0,-7.083012,-1.313519,-0.5400
 56\H,0,-9.102079,-2.526212,-0.391416\H,0,-6.874206,-5.518549,0.348477\
 H,0,-4.404663,-5.370361,0.446267\H,0,4.360173,0.289434,1.812341\H,0,6.
 747098,-0.357472,1.851272\H,0,6.220208,-2.515395,-1.840266\H,0,3.82477
 9,-1.906104,-1.854256\H,0,4.730848,1.563631,-1.295062\H,0,4.557704,3.3
 04521,-1.024909\H,0,4.991788,2.23339,0.30912\H,0,2.272441,4.276161,-0.
 463575\H,0,-1.439583,2.864538,-0.070442\H,0,0.286677,5.406046,-0.00204
 \H,0,-3.281179,3.975831,-0.045032\H,0,-5.270106,5.410972,0.018909\H,0,
 -5.042279,7.887419,0.115783\H,0,-2.770385,8.909832,0.149275\H,0,-0.762
 497,7.470025,0.086937\\Version=ES64L-G16RevA.03\State=2-A\HF=-1925.957
 8349\S2=0.7922\S2-1=0.\S2A=0.751436\RMSD=3.295e-09\Dipole=-0.077477,1.
 8033249,-0.5344049\Quadrupole=-80.8202321,37.2222864,43.5979457,-16.06
 12475,2.6265888,-0.25538\PG=C01 [X(C34H26B1F2N3O3)]\\@


 SCIENCE AT ITS BEST PROVIDES US WITH BETTER QUESTIONS, 
 NOT ABSOLUTE ANSWERS

                                    -- NORMAN COUSINS, 1976
 Job cpu time:       1 days 10 hours 42 minutes 14.3 seconds.
 Elapsed time:       0 days  0 hours 32 minutes 55.4 seconds.
 File lengths (MBytes):  RWF=   3089 Int=      0 D2E=      0 Chk=    201 Scr=      1
 Normal termination of Gaussian 16 at Sat Oct 25 05:55:59 2025.
