 Entering Gaussian System, Link 0=g16
 Input=BNP_23NO2_23NO2_sp.gjf
 Output=BNP_23NO2_23NO2_sp.log
 Initial command:
 /public/software/gauss/g16/l1.exe "/public/home/baiding/1024_sp/tmp_BNP_23NO2_23NO2_sp_1526250/Gau-2930960.inp" -scrdir="/public/home/baiding/1024_sp/tmp_BNP_23NO2_23NO2_sp_1526250/"
 Entering Link 1 = /public/software/gauss/g16/l1.exe PID=   2930961.
  
 Copyright (c) 1988,1990,1992,1993,1995,1998,2003,2009,2016,
            Gaussian, Inc.  All Rights Reserved.
  
 This is part of the Gaussian(R) 16 program.  It is based on
 the Gaussian(R) 09 system (copyright 2009, Gaussian, Inc.),
 the Gaussian(R) 03 system (copyright 2003, Gaussian, Inc.),
 the Gaussian(R) 98 system (copyright 1998, Gaussian, Inc.),
 the Gaussian(R) 94 system (copyright 1995, Gaussian, Inc.),
 the Gaussian 92(TM) system (copyright 1992, Gaussian, Inc.),
 the Gaussian 90(TM) system (copyright 1990, Gaussian, Inc.),
 the Gaussian 88(TM) system (copyright 1988, Gaussian, Inc.),
 the Gaussian 86(TM) system (copyright 1986, Carnegie Mellon
 University), and the Gaussian 82(TM) system (copyright 1983,
 Carnegie Mellon University). Gaussian is a federally registered
 trademark of Gaussian, Inc.
  
 This software contains proprietary and confidential information,
 including trade secrets, belonging to Gaussian, Inc.
  
 This software is provided under written license and may be
 used, copied, transmitted, or stored only in accord with that
 written license.
  
 The following legend is applicable only to US Government
 contracts under FAR:
  
                    RESTRICTED RIGHTS LEGEND
  
 Use, reproduction and disclosure by the US Government is
 subject to restrictions as set forth in subparagraphs (a)
 and (c) of the Commercial Computer Software - Restricted
 Rights clause in FAR 52.227-19.
  
 Gaussian, Inc.
 340 Quinnipiac St., Bldg. 40, Wallingford CT 06492
  
  
 ---------------------------------------------------------------
 Warning -- This program may not be used in any manner that
 competes with the business of Gaussian, Inc. or will provide
 assistance to any competitor of Gaussian, Inc.  The licensee
 of this program is prohibited from giving any competitor of
 Gaussian, Inc. access to this program.  By using this program,
 the user acknowledges that Gaussian, Inc. is engaged in the
 business of creating and licensing software in the field of
 computational chemistry and represents and warrants to the
 licensee that it is not a competitor of Gaussian, Inc. and that
 it will not use this program in any manner prohibited above.
 ---------------------------------------------------------------
  

 Cite this work as:
 Gaussian 16, Revision A.03,
 M. J. Frisch, G. W. Trucks, H. B. Schlegel, G. E. Scuseria, 
 M. A. Robb, J. R. Cheeseman, G. Scalmani, V. Barone, 
 G. A. Petersson, H. Nakatsuji, X. Li, M. Caricato, A. V. Marenich, 
 J. Bloino, B. G. Janesko, R. Gomperts, B. Mennucci, H. P. Hratchian, 
 J. V. Ortiz, A. F. Izmaylov, J. L. Sonnenberg, D. Williams-Young, 
 F. Ding, F. Lipparini, F. Egidi, J. Goings, B. Peng, A. Petrone, 
 T. Henderson, D. Ranasinghe, V. G. Zakrzewski, J. Gao, N. Rega, 
 G. Zheng, W. Liang, M. Hada, M. Ehara, K. Toyota, R. Fukuda, 
 J. Hasegawa, M. Ishida, T. Nakajima, Y. Honda, O. Kitao, H. Nakai, 
 T. Vreven, K. Throssell, J. A. Montgomery, Jr., J. E. Peralta, 
 F. Ogliaro, M. J. Bearpark, J. J. Heyd, E. N. Brothers, K. N. Kudin, 
 V. N. Staroverov, T. A. Keith, R. Kobayashi, J. Normand, 
 K. Raghavachari, A. P. Rendell, J. C. Burant, S. S. Iyengar, 
 J. Tomasi, M. Cossi, J. M. Millam, M. Klene, C. Adamo, R. Cammi, 
 J. W. Ochterski, R. L. Martin, K. Morokuma, O. Farkas, 
 J. B. Foresman, and D. J. Fox, Gaussian, Inc., Wallingford CT, 2016.
 
 ******************************************
 Gaussian 16:  ES64L-G16RevA.03 25-Dec-2016
                24-Oct-2025 
 ******************************************
 %nprocshared=64
 Will use up to   64 processors via shared memory.
 %mem=230GB
 %chk=BNP_23NO2_23NO2_sp.chk
 ----------------------------------------------
 #p M062X/DEF2TZVPP scrf=(solvent=water) em=GD3
 ----------------------------------------------
 1/38=1,172=1/1;
 2/12=2,17=6,18=5,40=1/2;
 3/5=44,7=202,11=2,25=1,30=1,70=2201,72=1,74=-55,124=31/1,2,3;
 4//1;
 5/5=2,38=5,53=1/2;
 6/7=2,8=2,9=2,10=2,28=1/1;
 99/5=1,9=1/99;
 Leave Link    1 at Fri Oct 24 23:41:41 2025, MaxMem= 30870077440 cpu:              17.4 elap:               0.3
 (Enter /public/software/gauss/g16/l101.exe)
 --------------------------------------
 Energy calculation for BNP_23NO2_23NO2
 --------------------------------------
 Symbolic Z-matrix:
 Charge =  0 Multiplicity = 1
 C                     5.12962   3.11351  -0.09448 
 C                     3.72786   2.58928  -0.04625 
 C                     2.59357   3.38251  -0.05203 
 C                     1.45423   2.54066  -0.01203 
 C                     0.05544   2.87611  -0.01673 
 C                    -0.44499   4.13351   0.06136 
 C                    -1.86462   4.45914   0.05077 
 C                    -2.26669   5.80391   0.15156 
 C                    -3.61074   6.15978   0.16032 
 C                    -4.59193   5.17838   0.05665 
 N                    -5.97883   5.58462   0.21582 
 O                    -6.29485   6.71506  -0.16549 
 O                    -6.75855   4.79571   0.75659 
 C                    -4.20636   3.83123  -0.0688 
 N                    -5.16876   2.75641  -0.35239 
 O                    -4.98179   1.6661    0.18719 
 O                    -6.0713    2.99322  -1.15311 
 C                    -2.87324   3.47471  -0.06729 
 N                     1.87307   1.24327   0.01455 
 C                     3.26447   1.22453  -0.00113 
 C                     3.95797   0.00007   0.00027 
 C                     5.45182   0.00008  -0.01672 
 C                     6.1417   -0.00706  -1.23804 
 C                     7.53218  -0.00709  -1.26101 
 C                     8.21828  -0.00008  -0.04691 
 N                     9.67943  -0.00019  -0.06263 
 O                     10.27918   0.00547   1.01697 
 O                     10.25601  -0.00591  -1.15482 
 C                     7.5587    0.00706   1.18184 
 C                     6.1679    0.0072    1.18935 
 C                     3.26449  -1.22439   0.00082 
 C                     3.72792  -2.58925  -0.04051 
 C                     5.12971  -3.1137   -0.08527 
 C                     2.59363  -3.38249  -0.0457 
 C                     1.45426  -2.54055  -0.00882 
 C                     0.05546  -2.87598  -0.01444 
 C                    -0.44508  -4.13324   0.06516 
 C                    -1.86467  -4.45894   0.05317 
 C                    -2.87324  -3.47462  -0.06624 
 C                    -4.20633  -3.83127  -0.06933 
 N                    -5.16848  -2.75657  -0.35421 
 O                    -4.98222  -1.66616   0.18542 
 O                    -6.07001  -2.99355  -1.15602 
 C                    -4.59193  -5.17842   0.05589 
 N                    -5.979    -5.58479   0.21328 
 O                    -6.75949  -4.79597   0.75306 
 O                    -6.29441  -6.71525  -0.16849 
 C                    -3.61078  -6.15971   0.16106 
 C                    -2.26676  -5.80372   0.1539 
 N                     1.87306  -1.2431    0.01546 
 B                     0.97685   0.00018   0.24136 
 F                    -0.08547  -0.0001   -0.67794 
 F                     0.46302   0.0006    1.54195 
 H                     5.66302   2.77092  -0.98638 
 H                     5.11038   4.20595  -0.1089 
 H                     5.71518   2.79443   0.77289 
 H                     2.57221   4.46255  -0.0977 
 H                    -0.62106   2.03516  -0.10209 
 H                     0.22784   4.98311   0.14513 
 H                    -1.51336   6.57924   0.24214 
 H                    -3.91092   7.19321   0.28253 
 H                    -2.62802   2.42794  -0.19114 
 H                     5.58877  -0.01243  -2.17084 
 H                     8.07531  -0.01243  -2.19708 
 H                     8.1224    0.01233   2.10569 
 H                     5.63549   0.01264   2.134 
 H                     5.66194  -2.77984  -0.98118 
 H                     5.71631  -2.78605   0.77816 
 H                     5.11058  -4.20623  -0.08915 
 H                     2.57233  -4.46264  -0.08871 
 H                    -0.62089  -2.03515  -0.1022 
 H                     0.22766  -4.98271   0.15104 
 H                    -2.62798  -2.42782  -0.18982 
 H                    -3.91101  -7.19314   0.28311 
 H                    -1.51348  -6.57896   0.24559 
 
 ITRead=  0  0  0  0  0  0  0  0  0  0  0  0  0  0  0  0  0  0  0  0
 ITRead=  0  0  0  0  0  0  0  0  0  0  0  0  0  0  0  0  0  0  0  0
 ITRead=  0  0  0  0  0  0  0  0  0  0  0  0  0  0  0  0  0  0  0  0
 ITRead=  0  0  0  0  0  0  0  0  0  0  0  0  0  0  0
 MicOpt= -1 -1 -1 -1 -1 -1 -1 -1 -1 -1 -1 -1 -1 -1 -1 -1 -1 -1 -1 -1
 MicOpt= -1 -1 -1 -1 -1 -1 -1 -1 -1 -1 -1 -1 -1 -1 -1 -1 -1 -1 -1 -1
 MicOpt= -1 -1 -1 -1 -1 -1 -1 -1 -1 -1 -1 -1 -1 -1 -1 -1 -1 -1 -1 -1
 MicOpt= -1 -1 -1 -1 -1 -1 -1 -1 -1 -1 -1 -1 -1 -1 -1
 NAtoms=     75 NQM=       75 NQMF=       0 NMMI=      0 NMMIF=      0
                NMic=       0 NMicF=      0.
                    Isotopes and Nuclear Properties:
 (Nuclear quadrupole moments (NQMom) in fm**2, nuclear magnetic moments (NMagM)
  in nuclear magnetons)

  Atom         1           2           3           4           5           6           7           8           9          10
 IAtWgt=          12          12          12          12          12          12          12          12          12          12
 AtmWgt=  12.0000000  12.0000000  12.0000000  12.0000000  12.0000000  12.0000000  12.0000000  12.0000000  12.0000000  12.0000000
 NucSpn=           0           0           0           0           0           0           0           0           0           0
 AtZEff=  -0.0000000  -0.0000000  -0.0000000  -0.0000000  -0.0000000  -0.0000000  -0.0000000  -0.0000000  -0.0000000  -0.0000000
 NQMom=    0.0000000   0.0000000   0.0000000   0.0000000   0.0000000   0.0000000   0.0000000   0.0000000   0.0000000   0.0000000
 NMagM=    0.0000000   0.0000000   0.0000000   0.0000000   0.0000000   0.0000000   0.0000000   0.0000000   0.0000000   0.0000000
 AtZNuc=   6.0000000   6.0000000   6.0000000   6.0000000   6.0000000   6.0000000   6.0000000   6.0000000   6.0000000   6.0000000

  Atom        11          12          13          14          15          16          17          18          19          20
 IAtWgt=          14          16          16          12          14          16          16          12          14          12
 AtmWgt=  14.0030740  15.9949146  15.9949146  12.0000000  14.0030740  15.9949146  15.9949146  12.0000000  14.0030740  12.0000000
 NucSpn=           2           0           0           0           2           0           0           0           2           0
 AtZEff=  -0.0000000  -0.0000000  -0.0000000  -0.0000000  -0.0000000  -0.0000000  -0.0000000  -0.0000000  -0.0000000  -0.0000000
 NQMom=    2.0440000   0.0000000   0.0000000   0.0000000   2.0440000   0.0000000   0.0000000   0.0000000   2.0440000   0.0000000
 NMagM=    0.4037610   0.0000000   0.0000000   0.0000000   0.4037610   0.0000000   0.0000000   0.0000000   0.4037610   0.0000000
 AtZNuc=   7.0000000   8.0000000   8.0000000   6.0000000   7.0000000   8.0000000   8.0000000   6.0000000   7.0000000   6.0000000

  Atom        21          22          23          24          25          26          27          28          29          30
 IAtWgt=          12          12          12          12          12          14          16          16          12          12
 AtmWgt=  12.0000000  12.0000000  12.0000000  12.0000000  12.0000000  14.0030740  15.9949146  15.9949146  12.0000000  12.0000000
 NucSpn=           0           0           0           0           0           2           0           0           0           0
 AtZEff=  -0.0000000  -0.0000000  -0.0000000  -0.0000000  -0.0000000  -0.0000000  -0.0000000  -0.0000000  -0.0000000  -0.0000000
 NQMom=    0.0000000   0.0000000   0.0000000   0.0000000   0.0000000   2.0440000   0.0000000   0.0000000   0.0000000   0.0000000
 NMagM=    0.0000000   0.0000000   0.0000000   0.0000000   0.0000000   0.4037610   0.0000000   0.0000000   0.0000000   0.0000000
 AtZNuc=   6.0000000   6.0000000   6.0000000   6.0000000   6.0000000   7.0000000   8.0000000   8.0000000   6.0000000   6.0000000

  Atom        31          32          33          34          35          36          37          38          39          40
 IAtWgt=          12          12          12          12          12          12          12          12          12          12
 AtmWgt=  12.0000000  12.0000000  12.0000000  12.0000000  12.0000000  12.0000000  12.0000000  12.0000000  12.0000000  12.0000000
 NucSpn=           0           0           0           0           0           0           0           0           0           0
 AtZEff=  -0.0000000  -0.0000000  -0.0000000  -0.0000000  -0.0000000  -0.0000000  -0.0000000  -0.0000000  -0.0000000  -0.0000000
 NQMom=    0.0000000   0.0000000   0.0000000   0.0000000   0.0000000   0.0000000   0.0000000   0.0000000   0.0000000   0.0000000
 NMagM=    0.0000000   0.0000000   0.0000000   0.0000000   0.0000000   0.0000000   0.0000000   0.0000000   0.0000000   0.0000000
 AtZNuc=   6.0000000   6.0000000   6.0000000   6.0000000   6.0000000   6.0000000   6.0000000   6.0000000   6.0000000   6.0000000

  Atom        41          42          43          44          45          46          47          48          49          50
 IAtWgt=          14          16          16          12          14          16          16          12          12          14
 AtmWgt=  14.0030740  15.9949146  15.9949146  12.0000000  14.0030740  15.9949146  15.9949146  12.0000000  12.0000000  14.0030740
 NucSpn=           2           0           0           0           2           0           0           0           0           2
 AtZEff=  -0.0000000  -0.0000000  -0.0000000  -0.0000000  -0.0000000  -0.0000000  -0.0000000  -0.0000000  -0.0000000  -0.0000000
 NQMom=    2.0440000   0.0000000   0.0000000   0.0000000   2.0440000   0.0000000   0.0000000   0.0000000   0.0000000   2.0440000
 NMagM=    0.4037610   0.0000000   0.0000000   0.0000000   0.4037610   0.0000000   0.0000000   0.0000000   0.0000000   0.4037610
 AtZNuc=   7.0000000   8.0000000   8.0000000   6.0000000   7.0000000   8.0000000   8.0000000   6.0000000   6.0000000   7.0000000

  Atom        51          52          53          54          55          56          57          58          59          60
 IAtWgt=          11          19          19           1           1           1           1           1           1           1
 AtmWgt=  11.0093053  18.9984033  18.9984033   1.0078250   1.0078250   1.0078250   1.0078250   1.0078250   1.0078250   1.0078250
 NucSpn=           3           1           1           1           1           1           1           1           1           1
 AtZEff=  -0.0000000  -0.0000000  -0.0000000  -0.0000000  -0.0000000  -0.0000000  -0.0000000  -0.0000000  -0.0000000  -0.0000000
 NQMom=    4.0590000   0.0000000   0.0000000   0.0000000   0.0000000   0.0000000   0.0000000   0.0000000   0.0000000   0.0000000
 NMagM=    2.6886370   2.6288670   2.6288670   2.7928460   2.7928460   2.7928460   2.7928460   2.7928460   2.7928460   2.7928460
 AtZNuc=   5.0000000   9.0000000   9.0000000   1.0000000   1.0000000   1.0000000   1.0000000   1.0000000   1.0000000   1.0000000

  Atom        61          62          63          64          65          66          67          68          69          70
 IAtWgt=           1           1           1           1           1           1           1           1           1           1
 AtmWgt=   1.0078250   1.0078250   1.0078250   1.0078250   1.0078250   1.0078250   1.0078250   1.0078250   1.0078250   1.0078250
 NucSpn=           1           1           1           1           1           1           1           1           1           1
 AtZEff=  -0.0000000  -0.0000000  -0.0000000  -0.0000000  -0.0000000  -0.0000000  -0.0000000  -0.0000000  -0.0000000  -0.0000000
 NQMom=    0.0000000   0.0000000   0.0000000   0.0000000   0.0000000   0.0000000   0.0000000   0.0000000   0.0000000   0.0000000
 NMagM=    2.7928460   2.7928460   2.7928460   2.7928460   2.7928460   2.7928460   2.7928460   2.7928460   2.7928460   2.7928460
 AtZNuc=   1.0000000   1.0000000   1.0000000   1.0000000   1.0000000   1.0000000   1.0000000   1.0000000   1.0000000   1.0000000

  Atom        71          72          73          74          75
 IAtWgt=           1           1           1           1           1
 AtmWgt=   1.0078250   1.0078250   1.0078250   1.0078250   1.0078250
 NucSpn=           1           1           1           1           1
 AtZEff=  -0.0000000  -0.0000000  -0.0000000  -0.0000000  -0.0000000
 NQMom=    0.0000000   0.0000000   0.0000000   0.0000000   0.0000000
 NMagM=    2.7928460   2.7928460   2.7928460   2.7928460   2.7928460
 AtZNuc=   1.0000000   1.0000000   1.0000000   1.0000000   1.0000000
 Leave Link  101 at Fri Oct 24 23:41:41 2025, MaxMem= 30870077440 cpu:               4.0 elap:               0.1
 (Enter /public/software/gauss/g16/l202.exe)
 Stoichiometry    C33H22BF2N7O10
 Framework group  C1[X(C33H22BF2N7O10)]
 Deg. of freedom   219
 Full point group                 C1      NOp   1
 Largest Abelian subgroup         C1      NOp   1
 Largest concise Abelian subgroup C1      NOp   1
                         Standard orientation:                         
 ---------------------------------------------------------------------
 Center     Atomic      Atomic             Coordinates (Angstroms)
 Number     Number       Type             X           Y           Z
 ---------------------------------------------------------------------
      1          6           0       -5.129624   -3.113507   -0.094482
      2          6           0       -3.727861   -2.589278   -0.046250
      3          6           0       -2.593574   -3.382509   -0.052025
      4          6           0       -1.454233   -2.540664   -0.012031
      5          6           0       -0.055437   -2.876108   -0.016732
      6          6           0        0.444993   -4.133506    0.061359
      7          6           0        1.864615   -4.459140    0.050769
      8          6           0        2.266689   -5.803913    0.151563
      9          6           0        3.610742   -6.159782    0.160320
     10          6           0        4.591932   -5.178376    0.056645
     11          7           0        5.978825   -5.584623    0.215820
     12          8           0        6.294845   -6.715064   -0.165488
     13          8           0        6.758549   -4.795708    0.756593
     14          6           0        4.206363   -3.831228   -0.068798
     15          7           0        5.168763   -2.756411   -0.352386
     16          8           0        4.981787   -1.666096    0.187193
     17          8           0        6.071305   -2.993222   -1.153108
     18          6           0        2.873243   -3.474709   -0.067291
     19          7           0       -1.873072   -1.243267    0.014554
     20          6           0       -3.264474   -1.224530   -0.001131
     21          6           0       -3.957968   -0.000072    0.000269
     22          6           0       -5.451823   -0.000079   -0.016716
     23          6           0       -6.141699    0.007056   -1.238044
     24          6           0       -7.532177    0.007086   -1.261014
     25          6           0       -8.218279    0.000078   -0.046905
     26          7           0       -9.679425    0.000185   -0.062633
     27          8           0      -10.279181   -0.005470    1.016969
     28          8           0      -10.256009    0.005905   -1.154820
     29          6           0       -7.558704   -0.007061    1.181840
     30          6           0       -6.167897   -0.007197    1.189349
     31          6           0       -3.264493    1.224386    0.000820
     32          6           0       -3.727917    2.589247   -0.040511
     33          6           0       -5.129708    3.113696   -0.085266
     34          6           0       -2.593634    3.382486   -0.045699
     35          6           0       -1.454256    2.540547   -0.008816
     36          6           0       -0.055460    2.875977   -0.014443
     37          6           0        0.445075    4.133239    0.065155
     38          6           0        1.864671    4.458943    0.053171
     39          6           0        2.873238    3.474621   -0.066241
     40          6           0        4.206328    3.831266   -0.069328
     41          7           0        5.168476    2.756569   -0.354214
     42          8           0        4.982223    1.666155    0.185419
     43          8           0        6.070012    2.993549   -1.156016
     44          6           0        4.591931    5.178424    0.055891
     45          7           0        5.979001    5.584785    0.213277
     46          8           0        6.759494    4.795967    0.753058
     47          8           0        6.294415    6.715249   -0.168487
     48          6           0        3.610782    6.159713    0.161059
     49          6           0        2.266757    5.803716    0.153895
     50          7           0       -1.873062    1.243098    0.015456
     51          5           0       -0.976845   -0.000183    0.241364
     52          9           0        0.085465    0.000103   -0.677935
     53          9           0       -0.463018   -0.000595    1.541953
     54          1           0       -5.663017   -2.770920   -0.986377
     55          1           0       -5.110381   -4.205952   -0.108900
     56          1           0       -5.715181   -2.794433    0.772887
     57          1           0       -2.572213   -4.462549   -0.097699
     58          1           0        0.621063   -2.035155   -0.102088
     59          1           0       -0.227841   -4.983108    0.145133
     60          1           0        1.513363   -6.579242    0.242139
     61          1           0        3.910922   -7.193208    0.282526
     62          1           0        2.628017   -2.427935   -0.191139
     63          1           0       -5.588766    0.012429   -2.170839
     64          1           0       -8.075312    0.012433   -2.197079
     65          1           0       -8.122404   -0.012331    2.105693
     66          1           0       -5.635490   -0.012639    2.134003
     67          1           0       -5.661936    2.779836   -0.981180
     68          1           0       -5.716310    2.786048    0.778160
     69          1           0       -5.110582    4.206234   -0.089153
     70          1           0       -2.572332    4.462637   -0.088713
     71          1           0        0.620894    2.035152   -0.102201
     72          1           0       -0.227659    4.982711    0.151035
     73          1           0        2.627978    2.427822   -0.189816
     74          1           0        3.911007    7.193142    0.283114
     75          1           0        1.513481    6.578962    0.245592
 ---------------------------------------------------------------------
 Rotational constants (GHZ):           0.0545930           0.0270826           0.0184400
 Leave Link  202 at Fri Oct 24 23:41:41 2025, MaxMem= 30870077440 cpu:               0.2 elap:               0.0
 (Enter /public/software/gauss/g16/l301.exe)
 Standard basis: def2TZVPP (5D, 7F)
 Ernie: Thresh=  0.10000D-02 Tol=  0.10000D-05 Strict=F.
 There are  2238 symmetry adapted cartesian basis functions of A   symmetry.
 There are  1951 symmetry adapted basis functions of A   symmetry.
  1951 basis functions,  3077 primitive gaussians,  2238 cartesian basis functions
   186 alpha electrons      186 beta electrons
       nuclear repulsion energy      6530.3925788970 Hartrees.
 IExCor= 4336 DFT=T Ex+Corr=M062X ExCW=0 ScaHFX=  0.540000
 ScaDFX=  1.000000  1.000000  1.000000  1.000000 ScalE2=  1.000000  1.000000
 IRadAn=      5 IRanWt=     -1 IRanGd=            0 ICorTp=0 IEmpDi=131
 NAtoms=   75 NActive=   75 NUniq=   75 SFac= 1.00D+00 NAtFMM=   60 NAOKFM=T Big=T
 Integral buffers will be    131072 words long.
 Raffenetti 2 integral format.
 Two-electron integral symmetry is turned on.
 R6Disp:  Grimme-D3 Dispersion energy=       -0.0067701620 Hartrees.
 Nuclear repulsion after empirical dispersion term =     6530.3858087350 Hartrees.
 ------------------------------------------------------------------------------
 Polarizable Continuum Model (PCM)
 =================================
 Model                : PCM.
 Atomic radii         : UFF (Universal Force Field).
 Polarization charges : Total charges.
 Charge compensation  : None.
 Solution method      : On-the-fly selection.
 Cavity type          : Scaled VdW (van der Waals Surface) (Alpha=1.100).
 Cavity algorithm     : GePol (No added spheres)
                        Default sphere list used, NSphG=   75.
                        Lebedev-Laikov grids with approx.  5.0 points / Ang**2.
                        Smoothing algorithm: York/Karplus (Gamma=1.0000).
                        Polarization charges: spherical gaussians, with
                                              point-specific exponents (IZeta= 3).
                        Self-potential: point-specific (ISelfS= 7).
                        Self-field    : sphere-specific E.n sum rule (ISelfD= 2).
 Solvent              : Water, Eps=  78.355300 Eps(inf)=   1.777849
 ------------------------------------------------------------------------------
 GePol: Number of generator spheres                  =      75
 GePol: Total number of spheres                      =      75
 GePol: Number of exposed spheres                    =      75 (100.00%)
 GePol: Number of points                             =    5850
 GePol: Average weight of points                     =       0.13
 GePol: Minimum weight of points                     =   0.24D-11
 GePol: Maximum weight of points                     =    0.20577
 GePol: Number of points with low weight             =     348
 GePol: Fraction of low-weight points (<1% of avg)   =       5.95%
 GePol: Cavity surface area                          =    738.489 Ang**2
 GePol: Cavity volume                                =    860.900 Ang**3
 Leave Link  301 at Fri Oct 24 23:41:41 2025, MaxMem= 30870077440 cpu:               3.6 elap:               0.1
 (Enter /public/software/gauss/g16/l302.exe)
 NPDir=0 NMtPBC=     1 NCelOv=     1 NCel=       1 NClECP=     1 NCelD=      1
         NCelK=      1 NCelE2=     1 NClLst=     1 CellRange=     0.0.
 One-electron integrals computed using PRISM.
 One-electron integral symmetry used in STVInt
   1 Symmetry operations used in ECPInt.
 ECPInt:  NShTT=  255970 NPrTT=  765698 LenC2=  153106 LenP2D=  298812.
 LDataN:  DoStor=T MaxTD1= 6 Len=  172
 NBasis=  1951 RedAO= T EigKep=  3.58D-06  NBF=  1951
 NBsUse=  1951 1.00D-06 EigRej= -1.00D+00 NBFU=  1951
 Precomputing XC quadrature grid using
 IXCGrd= 4 IRadAn=           5 IRanWt=          -1 IRanGd=           0 AccXCQ= 0.00D+00.
 Generated NRdTot=       0 NPtTot=           0 NUsed=           0 NTot=          32
 NSgBfM=  1983  1983  1983  1983  1983 MxSgAt=    75 MxSgA2=    75.
 Leave Link  302 at Fri Oct 24 23:41:52 2025, MaxMem= 30870077440 cpu:             664.3 elap:              10.4
 (Enter /public/software/gauss/g16/l303.exe)
 DipDrv:  MaxL=1.
 Leave Link  303 at Fri Oct 24 23:41:52 2025, MaxMem= 30870077440 cpu:              30.6 elap:               0.5
 (Enter /public/software/gauss/g16/l401.exe)
 ExpMin= 6.06D-02 ExpMax= 3.55D+04 ExpMxC= 1.21D+03 IAcc=3 IRadAn=         5 AccDes= 0.00D+00
 Harris functional with IExCor= 1009 and IRadAn=       5 diagonalized for initial guess.
 HarFok:  IExCor= 1009 AccDes= 0.00D+00 IRadAn=         5 IDoV= 1 UseB2=F ITyADJ=14
 ICtDFT=  3500011 ScaDFX=  1.000000  1.000000  1.000000  1.000000
 FoFCou: FMM=F IPFlag=           0 FMFlag=      100000 FMFlg1=        2001
         NFxFlg=           0 DoJE=T BraDBF=F KetDBF=T FulRan=T
         wScrn=  0.000000 ICntrl=       500 IOpCl=  0 I1Cent=   200000004 NGrid=           0
         NMat0=    1 NMatS0=      1 NMatT0=    0 NMatD0=    1 NMtDS0=    0 NMtDT0=    0
 Petite list used in FoFCou.
 Harris En= -2629.22302501468    
 JPrj=0 DoOrth=F DoCkMO=F.
 Leave Link  401 at Fri Oct 24 23:42:03 2025, MaxMem= 30870077440 cpu:             696.0 elap:              11.0
 (Enter /public/software/gauss/g16/l502.exe)
 Integral symmetry usage will be decided dynamically.
 Closed shell SCF:
 Using DIIS extrapolation, IDIIS=  1040.
 NGot= 30870077440 LenX= 30859898329 LenY= 30854887447
 Requested convergence on RMS density matrix=1.00D-08 within 128 cycles.
 Requested convergence on MAX density matrix=1.00D-06.
 Requested convergence on             energy=1.00D-06.
 No special actions if energy rises.
 Fock matrices will be formed incrementally for  20 cycles.

 Cycle   1  Pass 1  IDiag  1:
 FoFJK:  IHMeth= 1 ICntrl=       0 DoSepK=F KAlg= 0 I1Cent=           0 FoldK=F
 IRaf= 550000000 NMat=       1 IRICut=       1 DoRegI=T DoRafI=F ISym2E= 0 IDoP0=0 IntGTp=1.
 FoFCou: FMM=T IPFlag=           0 FMFlag=      100000 FMFlg1=        2001
         NFxFlg=           0 DoJE=F BraDBF=F KetDBF=F FulRan=T
         wScrn=  0.000000 ICntrl=         0 IOpCl=  0 I1Cent=           0 NGrid=           0
         NMat0=    1 NMatS0=      1 NMatT0=    0 NMatD0=    1 NMtDS0=    0 NMtDT0=    0
 Symmetry not used in FoFCou.
 FMM levels:  10  Number of levels for PrismC:   9
 Inv3:  Mode=1 IEnd=   102667500.
 Iteration    1 A*A^-1 deviation from unit magnitude is 9.55D-15 for   5847.
 Iteration    1 A*A^-1 deviation from orthogonality  is 2.89D-15 for   3666     54.
 Iteration    1 A^-1*A deviation from unit magnitude is 9.77D-15 for   5847.
 Iteration    1 A^-1*A deviation from orthogonality  is 2.74D-15 for   4452   3769.
 E= -2629.09737037869    
 DIIS: error= 3.21D-02 at cycle   1 NSaved=   1.
 NSaved= 1 IEnMin= 1 EnMin= -2629.09737037869     IErMin= 1 ErrMin= 3.21D-02
 ErrMax= 3.21D-02  0.00D+00 EMaxC= 1.00D-01 BMatC= 2.10D+00 BMatP= 2.10D+00
 IDIUse=3 WtCom= 6.79D-01 WtEn= 3.21D-01
 Coeff-Com:  0.100D+01
 Coeff-En:   0.100D+01
 Coeff:      0.100D+01
 Gap=     0.126 Goal=   None    Shift=    0.000
 GapD=    0.126 DampG=1.000 DampE=0.500 DampFc=0.5000 IDamp=-1.
 Damping current iteration by 5.00D-01
 RMSDP=1.80D-03 MaxDP=2.83D-01              OVMax= 2.61D-01

 Cycle   2  Pass 1  IDiag  1:
 RMSU=  9.02D-04    CP:  1.00D+00
 E= -2629.66714298587     Delta-E=       -0.569772607178 Rises=F Damp=T
 DIIS: error= 5.97D-03 at cycle   2 NSaved=   2.
 NSaved= 2 IEnMin= 2 EnMin= -2629.66714298587     IErMin= 2 ErrMin= 5.97D-03
 ErrMax= 5.97D-03  0.00D+00 EMaxC= 1.00D-01 BMatC= 2.41D-01 BMatP= 2.10D+00
 IDIUse=3 WtCom= 9.40D-01 WtEn= 5.97D-02
 Coeff-Com:  0.857D-01 0.914D+00
 Coeff-En:   0.179D+00 0.821D+00
 Coeff:      0.912D-01 0.909D+00
 Gap=     0.151 Goal=   None    Shift=    0.000
 RMSDP=6.14D-04 MaxDP=5.80D-02 DE=-5.70D-01 OVMax= 1.83D-01

 Cycle   3  Pass 1  IDiag  1:
 RMSU=  6.09D-04    CP:  9.82D-01  1.01D+00
 E= -2630.45198482716     Delta-E=       -0.784841841292 Rises=F Damp=F
 DIIS: error= 7.64D-03 at cycle   3 NSaved=   3.
 NSaved= 3 IEnMin= 3 EnMin= -2630.45198482716     IErMin= 2 ErrMin= 5.97D-03
 ErrMax= 7.64D-03  0.00D+00 EMaxC= 1.00D-01 BMatC= 8.78D-02 BMatP= 2.41D-01
 IDIUse=3 WtCom= 9.24D-01 WtEn= 7.64D-02
 Coeff-Com: -0.588D-01 0.358D+00 0.701D+00
 Coeff-En:   0.000D+00 0.000D+00 0.100D+01
 Coeff:     -0.543D-01 0.331D+00 0.724D+00
 Gap=     0.129 Goal=   None    Shift=    0.000
 RMSDP=2.43D-04 MaxDP=2.58D-02 DE=-7.85D-01 OVMax= 4.19D-02

 Cycle   4  Pass 1  IDiag  1:
 RMSU=  2.09D-04    CP:  9.83D-01  1.13D+00  8.89D-01
 E= -2630.50972497386     Delta-E=       -0.057740146705 Rises=F Damp=F
 DIIS: error= 1.96D-03 at cycle   4 NSaved=   4.
 NSaved= 4 IEnMin= 4 EnMin= -2630.50972497386     IErMin= 4 ErrMin= 1.96D-03
 ErrMax= 1.96D-03  0.00D+00 EMaxC= 1.00D-01 BMatC= 1.44D-02 BMatP= 8.78D-02
 IDIUse=3 WtCom= 9.80D-01 WtEn= 1.96D-02
 Coeff-Com: -0.234D-01 0.727D-01 0.343D+00 0.608D+00
 Coeff-En:   0.000D+00 0.000D+00 0.108D+00 0.892D+00
 Coeff:     -0.230D-01 0.713D-01 0.338D+00 0.613D+00
 Gap=     0.131 Goal=   None    Shift=    0.000
 RMSDP=7.76D-05 MaxDP=1.18D-02 DE=-5.77D-02 OVMax= 1.53D-02

 Cycle   5  Pass 1  IDiag  1:
 RMSU=  5.07D-05    CP:  9.82D-01  1.09D+00  9.31D-01  7.92D-01
 E= -2630.52080862059     Delta-E=       -0.011083646727 Rises=F Damp=F
 DIIS: error= 5.94D-04 at cycle   5 NSaved=   5.
 NSaved= 5 IEnMin= 5 EnMin= -2630.52080862059     IErMin= 5 ErrMin= 5.94D-04
 ErrMax= 5.94D-04  0.00D+00 EMaxC= 1.00D-01 BMatC= 1.27D-03 BMatP= 1.44D-02
 IDIUse=3 WtCom= 9.94D-01 WtEn= 5.94D-03
 Coeff-Com: -0.857D-02 0.161D-01 0.140D+00 0.329D+00 0.524D+00
 Coeff-En:   0.000D+00 0.000D+00 0.000D+00 0.000D+00 0.100D+01
 Coeff:     -0.851D-02 0.160D-01 0.139D+00 0.327D+00 0.526D+00
 Gap=     0.132 Goal=   None    Shift=    0.000
 RMSDP=2.47D-05 MaxDP=5.09D-03 DE=-1.11D-02 OVMax= 6.59D-03

 Cycle   6  Pass 1  IDiag  1:
 RMSU=  1.91D-05    CP:  9.82D-01  1.10D+00  9.26D-01  8.12D-01  7.55D-01
 E= -2630.52173054217     Delta-E=       -0.000921921577 Rises=F Damp=F
 DIIS: error= 2.30D-04 at cycle   6 NSaved=   6.
 NSaved= 6 IEnMin= 6 EnMin= -2630.52173054217     IErMin= 6 ErrMin= 2.30D-04
 ErrMax= 2.30D-04  0.00D+00 EMaxC= 1.00D-01 BMatC= 1.36D-04 BMatP= 1.27D-03
 IDIUse=3 WtCom= 9.98D-01 WtEn= 2.30D-03
 Coeff-Com: -0.220D-02 0.151D-02 0.404D-01 0.111D+00 0.286D+00 0.564D+00
 Coeff-En:   0.000D+00 0.000D+00 0.000D+00 0.000D+00 0.000D+00 0.100D+01
 Coeff:     -0.219D-02 0.151D-02 0.403D-01 0.110D+00 0.285D+00 0.565D+00
 Gap=     0.132 Goal=   None    Shift=    0.000
 RMSDP=8.64D-06 MaxDP=7.58D-04 DE=-9.22D-04 OVMax= 2.52D-03

 Cycle   7  Pass 1  IDiag  1:
 RMSU=  7.55D-06    CP:  9.82D-01  1.10D+00  9.27D-01  8.16D-01  8.20D-01
                    CP:  8.91D-01
 E= -2630.52183328324     Delta-E=       -0.000102741074 Rises=F Damp=F
 DIIS: error= 6.26D-05 at cycle   7 NSaved=   7.
 NSaved= 7 IEnMin= 7 EnMin= -2630.52183328324     IErMin= 7 ErrMin= 6.26D-05
 ErrMax= 6.26D-05  0.00D+00 EMaxC= 1.00D-01 BMatC= 1.45D-05 BMatP= 1.36D-04
 IDIUse=1 WtCom= 1.00D+00 WtEn= 0.00D+00
 Coeff-Com:  0.649D-03-0.244D-02-0.775D-02-0.129D-01 0.296D-01 0.258D+00
 Coeff-Com:  0.735D+00
 Coeff:      0.649D-03-0.244D-02-0.775D-02-0.129D-01 0.296D-01 0.258D+00
 Coeff:      0.735D+00
 Gap=     0.133 Goal=   None    Shift=    0.000
 RMSDP=3.87D-06 MaxDP=4.62D-04 DE=-1.03D-04 OVMax= 2.05D-03

 Cycle   8  Pass 1  IDiag  1:
 RMSU=  3.08D-06    CP:  9.82D-01  1.11D+00  9.27D-01  8.20D-01  8.33D-01
                    CP:  9.94D-01  1.02D+00
 E= -2630.52184968194     Delta-E=       -0.000016398701 Rises=F Damp=F
 DIIS: error= 3.09D-05 at cycle   8 NSaved=   8.
 NSaved= 8 IEnMin= 8 EnMin= -2630.52184968194     IErMin= 8 ErrMin= 3.09D-05
 ErrMax= 3.09D-05  0.00D+00 EMaxC= 1.00D-01 BMatC= 1.90D-06 BMatP= 1.45D-05
 IDIUse=1 WtCom= 1.00D+00 WtEn= 0.00D+00
 Coeff-Com:  0.601D-03-0.135D-02-0.888D-02-0.212D-01-0.277D-01 0.363D-01
 Coeff-Com:  0.322D+00 0.701D+00
 Coeff:      0.601D-03-0.135D-02-0.888D-02-0.212D-01-0.277D-01 0.363D-01
 Coeff:      0.322D+00 0.701D+00
 Gap=     0.133 Goal=   None    Shift=    0.000
 RMSDP=1.65D-06 MaxDP=1.77D-04 DE=-1.64D-05 OVMax= 8.31D-04

 Cycle   9  Pass 1  IDiag  1:
 RMSU=  1.08D-06    CP:  9.82D-01  1.11D+00  9.26D-01  8.23D-01  8.47D-01
                    CP:  1.01D+00  1.09D+00  1.05D+00
 E= -2630.52185245431     Delta-E=       -0.000002772364 Rises=F Damp=F
 DIIS: error= 1.55D-05 at cycle   9 NSaved=   9.
 NSaved= 9 IEnMin= 9 EnMin= -2630.52185245431     IErMin= 9 ErrMin= 1.55D-05
 ErrMax= 1.55D-05  0.00D+00 EMaxC= 1.00D-01 BMatC= 2.98D-07 BMatP= 1.90D-06
 IDIUse=1 WtCom= 1.00D+00 WtEn= 0.00D+00
 Coeff-Com:  0.185D-03-0.284D-03-0.270D-02-0.767D-02-0.161D-01-0.144D-01
 Coeff-Com:  0.472D-01 0.308D+00 0.685D+00
 Coeff:      0.185D-03-0.284D-03-0.270D-02-0.767D-02-0.161D-01-0.144D-01
 Coeff:      0.472D-01 0.308D+00 0.685D+00
 Gap=     0.133 Goal=   None    Shift=    0.000
 RMSDP=5.29D-07 MaxDP=6.02D-05 DE=-2.77D-06 OVMax= 3.62D-04

 Cycle  10  Pass 1  IDiag  1:
 RMSU=  3.88D-07    CP:  9.82D-01  1.11D+00  9.26D-01  8.23D-01  8.47D-01
                    CP:  1.02D+00  1.12D+00  1.12D+00  1.06D+00
 E= -2630.52185290765     Delta-E=       -0.000000453341 Rises=F Damp=F
 DIIS: error= 6.33D-06 at cycle  10 NSaved=  10.
 NSaved=10 IEnMin=10 EnMin= -2630.52185290765     IErMin=10 ErrMin= 6.33D-06
 ErrMax= 6.33D-06  0.00D+00 EMaxC= 1.00D-01 BMatC= 3.95D-08 BMatP= 2.98D-07
 IDIUse=1 WtCom= 1.00D+00 WtEn= 0.00D+00
 Coeff-Com: -0.235D-04 0.104D-03 0.469D-03 0.559D-03-0.162D-02-0.969D-02
 Coeff-Com: -0.369D-01-0.859D-02 0.252D+00 0.804D+00
 Coeff:     -0.235D-04 0.104D-03 0.469D-03 0.559D-03-0.162D-02-0.969D-02
 Coeff:     -0.369D-01-0.859D-02 0.252D+00 0.804D+00
 Gap=     0.133 Goal=   None    Shift=    0.000
 RMSDP=2.63D-07 MaxDP=2.99D-05 DE=-4.53D-07 OVMax= 2.30D-04

 Cycle  11  Pass 1  IDiag  1:
 RMSU=  1.79D-07    CP:  9.82D-01  1.11D+00  9.26D-01  8.23D-01  8.48D-01
                    CP:  1.02D+00  1.12D+00  1.16D+00  1.16D+00  1.13D+00
 E= -2630.52185299369     Delta-E=       -0.000000086044 Rises=F Damp=F
 DIIS: error= 2.53D-06 at cycle  11 NSaved=  11.
 NSaved=11 IEnMin=11 EnMin= -2630.52185299369     IErMin=11 ErrMin= 2.53D-06
 ErrMax= 2.53D-06  0.00D+00 EMaxC= 1.00D-01 BMatC= 8.43D-09 BMatP= 3.95D-08
 IDIUse=1 WtCom= 1.00D+00 WtEn= 0.00D+00
 Coeff-Com: -0.374D-04 0.849D-04 0.582D-03 0.140D-02 0.175D-02-0.130D-02
 Coeff-Com: -0.233D-01-0.554D-01-0.758D-02 0.358D+00 0.726D+00
 Coeff:     -0.374D-04 0.849D-04 0.582D-03 0.140D-02 0.175D-02-0.130D-02
 Coeff:     -0.233D-01-0.554D-01-0.758D-02 0.358D+00 0.726D+00
 Gap=     0.133 Goal=   None    Shift=    0.000
 RMSDP=1.22D-07 MaxDP=1.60D-05 DE=-8.60D-08 OVMax= 8.75D-05

 Cycle  12  Pass 1  IDiag  1:
 RMSU=  7.69D-08    CP:  9.82D-01  1.11D+00  9.26D-01  8.24D-01  8.48D-01
                    CP:  1.02D+00  1.12D+00  1.17D+00  1.21D+00  1.25D+00
                    CP:  1.13D+00
 E= -2630.52185300759     Delta-E=       -0.000000013899 Rises=F Damp=F
 DIIS: error= 4.21D-07 at cycle  12 NSaved=  12.
 NSaved=12 IEnMin=12 EnMin= -2630.52185300759     IErMin=12 ErrMin= 4.21D-07
 ErrMax= 4.21D-07  0.00D+00 EMaxC= 1.00D-01 BMatC= 1.03D-09 BMatP= 8.43D-09
 IDIUse=1 WtCom= 1.00D+00 WtEn= 0.00D+00
 Coeff-Com: -0.137D-04 0.247D-04 0.180D-03 0.522D-03 0.935D-03 0.745D-03
 Coeff-Com: -0.542D-02-0.229D-01-0.359D-01 0.506D-01 0.292D+00 0.719D+00
 Coeff:     -0.137D-04 0.247D-04 0.180D-03 0.522D-03 0.935D-03 0.745D-03
 Coeff:     -0.542D-02-0.229D-01-0.359D-01 0.506D-01 0.292D+00 0.719D+00
 Gap=     0.133 Goal=   None    Shift=    0.000
 RMSDP=4.03D-08 MaxDP=3.56D-06 DE=-1.39D-08 OVMax= 2.37D-05

 Cycle  13  Pass 1  IDiag  1:
 RMSU=  2.76D-08    CP:  9.82D-01  1.11D+00  9.26D-01  8.24D-01  8.48D-01
                    CP:  1.02D+00  1.12D+00  1.17D+00  1.23D+00  1.30D+00
                    CP:  1.20D+00  1.06D+00
 E= -2630.52185300932     Delta-E=       -0.000000001730 Rises=F Damp=F
 DIIS: error= 2.90D-07 at cycle  13 NSaved=  13.
 NSaved=13 IEnMin=13 EnMin= -2630.52185300932     IErMin=13 ErrMin= 2.90D-07
 ErrMax= 2.90D-07  0.00D+00 EMaxC= 1.00D-01 BMatC= 2.71D-10 BMatP= 1.03D-09
 IDIUse=1 WtCom= 1.00D+00 WtEn= 0.00D+00
 Coeff-Com: -0.106D-05-0.572D-06-0.874D-05 0.300D-04 0.178D-03 0.633D-03
 Coeff-Com:  0.125D-02-0.204D-02-0.156D-01-0.336D-01 0.905D-02 0.359D+00
 Coeff-Com:  0.681D+00
 Coeff:     -0.106D-05-0.572D-06-0.874D-05 0.300D-04 0.178D-03 0.633D-03
 Coeff:      0.125D-02-0.204D-02-0.156D-01-0.336D-01 0.905D-02 0.359D+00
 Coeff:      0.681D+00
 Gap=     0.133 Goal=   None    Shift=    0.000
 RMSDP=1.99D-08 MaxDP=1.73D-06 DE=-1.73D-09 OVMax= 1.02D-05

 Cycle  14  Pass 1  IDiag  1:
 RMSU=  1.17D-08    CP:  9.82D-01  1.11D+00  9.26D-01  8.24D-01  8.48D-01
                    CP:  1.02D+00  1.12D+00  1.17D+00  1.23D+00  1.31D+00
                    CP:  1.24D+00  1.21D+00  9.54D-01
 E= -2630.52185301001     Delta-E=       -0.000000000691 Rises=F Damp=F
 DIIS: error= 1.45D-07 at cycle  14 NSaved=  14.
 NSaved=14 IEnMin=14 EnMin= -2630.52185301001     IErMin=14 ErrMin= 1.45D-07
 ErrMax= 1.45D-07  0.00D+00 EMaxC= 1.00D-01 BMatC= 6.70D-11 BMatP= 2.71D-10
 IDIUse=1 WtCom= 1.00D+00 WtEn= 0.00D+00
 Coeff-Com:  0.177D-05-0.459D-05-0.382D-04-0.771D-04-0.700D-04 0.233D-03
 Coeff-Com:  0.175D-02 0.315D-02-0.164D-02-0.280D-01-0.551D-01 0.657D-01
 Coeff-Com:  0.387D+00 0.627D+00
 Coeff:      0.177D-05-0.459D-05-0.382D-04-0.771D-04-0.700D-04 0.233D-03
 Coeff:      0.175D-02 0.315D-02-0.164D-02-0.280D-01-0.551D-01 0.657D-01
 Coeff:      0.387D+00 0.627D+00
 Gap=     0.133 Goal=   None    Shift=    0.000
 RMSDP=8.91D-09 MaxDP=8.21D-07 DE=-6.91D-10 OVMax= 2.65D-06

 Error on total polarization charges =  0.02055
 SCF Done:  E(RM062X) =  -2630.52185301     A.U. after   14 cycles
            NFock= 14  Conv=0.89D-08     -V/T= 2.0051
 KE= 2.617114633293D+03 PE=-1.920473928757D+04 EE= 7.426716992536D+03
 Leave Link  502 at Fri Oct 24 23:58:10 2025, MaxMem= 30870077440 cpu:           60687.6 elap:             966.8
 (Enter /public/software/gauss/g16/l601.exe)
 Copying SCF densities to generalized density rwf, IOpCl= 0 IROHF=0.

 **********************************************************************

            Population analysis using the SCF density.

 **********************************************************************

 Orbital symmetries:
       Occupied  (A) (A) (A) (A) (A) (A) (A) (A) (A) (A) (A) (A)
                 (A) (A) (A) (A) (A) (A) (A) (A) (A) (A) (A) (A)
                 (A) (A) (A) (A) (A) (A) (A) (A) (A) (A) (A) (A)
                 (A) (A) (A) (A) (A) (A) (A) (A) (A) (A) (A) (A)
                 (A) (A) (A) (A) (A) (A) (A) (A) (A) (A) (A) (A)
                 (A) (A) (A) (A) (A) (A) (A) (A) (A) (A) (A) (A)
                 (A) (A) (A) (A) (A) (A) (A) (A) (A) (A) (A) (A)
                 (A) (A) (A) (A) (A) (A) (A) (A) (A) (A) (A) (A)
                 (A) (A) (A) (A) (A) (A) (A) (A) (A) (A) (A) (A)
                 (A) (A) (A) (A) (A) (A) (A) (A) (A) (A) (A) (A)
                 (A) (A) (A) (A) (A) (A) (A) (A) (A) (A) (A) (A)
                 (A) (A) (A) (A) (A) (A) (A) (A) (A) (A) (A) (A)
                 (A) (A) (A) (A) (A) (A) (A) (A) (A) (A) (A) (A)
                 (A) (A) (A) (A) (A) (A) (A) (A) (A) (A) (A) (A)
                 (A) (A) (A) (A) (A) (A) (A) (A) (A) (A) (A) (A)
                 (A) (A) (A) (A) (A) (A)
       Virtual   (A) (A) (A) (A) (A) (A) (A) (A) (A) (A) (A) (A)
                 (A) (A) (A) (A) (A) (A) (A) (A) (A) (A) (A) (A)
                 (A) (A) (A) (A) (A) (A) (A) (A) (A) (A) (A) (A)
                 (A) (A) (A) (A) (A) (A) (A) (A) (A) (A) (A) (A)
                 (A) (A) (A) (A) (A) (A) (A) (A) (A) (A) (A) (A)
                 (A) (A) (A) (A) (A) (A) (A) (A) (A) (A) (A) (A)
                 (A) (A) (A) (A) (A) (A) (A) (A) (A) (A) (A) (A)
                 (A) (A) (A) (A) (A) (A) (A) (A) (A) (A) (A) (A)
                 (A) (A) (A) (A) (A) (A) (A) (A) (A) (A) (A) (A)
                 (A) (A) (A) (A) (A) (A) (A) (A) (A) (A) (A) (A)
                 (A) (A) (A) (A) (A) (A) (A) (A) (A) (A) (A) (A)
                 (A) (A) (A) (A) (A) (A) (A) (A) (A) (A) (A) (A)
                 (A) (A) (A) (A) (A) (A) (A) (A) (A) (A) (A) (A)
                 (A) (A) (A) (A) (A) (A) (A) (A) (A) (A) (A) (A)
                 (A) (A) (A) (A) (A) (A) (A) (A) (A) (A) (A) (A)
                 (A) (A) (A) (A) (A) (A) (A) (A) (A) (A) (A) (A)
                 (A) (A) (A) (A) (A) (A) (A) (A) (A) (A) (A) (A)
                 (A) (A) (A) (A) (A) (A) (A) (A) (A) (A) (A) (A)
                 (A) (A) (A) (A) (A) (A) (A) (A) (A) (A) (A) (A)
                 (A) (A) (A) (A) (A) (A) (A) (A) (A) (A) (A) (A)
                 (A) (A) (A) (A) (A) (A) (A) (A) (A) (A) (A) (A)
                 (A) (A) (A) (A) (A) (A) (A) (A) (A) (A) (A) (A)
                 (A) (A) (A) (A) (A) (A) (A) (A) (A) (A) (A) (A)
                 (A) (A) (A) (A) (A) (A) (A) (A) (A) (A) (A) (A)
                 (A) (A) (A) (A) (A) (A) (A) (A) (A) (A) (A) (A)
                 (A) (A) (A) (A) (A) (A) (A) (A) (A) (A) (A) (A)
                 (A) (A) (A) (A) (A) (A) (A) (A) (A) (A) (A) (A)
                 (A) (A) (A) (A) (A) (A) (A) (A) (A) (A) (A) (A)
                 (A) (A) (A) (A) (A) (A) (A) (A) (A) (A) (A) (A)
                 (A) (A) (A) (A) (A) (A) (A) (A) (A) (A) (A) (A)
                 (A) (A) (A) (A) (A) (A) (A) (A) (A) (A) (A) (A)
                 (A) (A) (A) (A) (A) (A) (A) (A) (A) (A) (A) (A)
                 (A) (A) (A) (A) (A) (A) (A) (A) (A) (A) (A) (A)
                 (A) (A) (A) (A) (A) (A) (A) (A) (A) (A) (A) (A)
                 (A) (A) (A) (A) (A) (A) (A) (A) (A) (A) (A) (A)
                 (A) (A) (A) (A) (A) (A) (A) (A) (A) (A) (A) (A)
                 (A) (A) (A) (A) (A) (A) (A) (A) (A) (A) (A) (A)
                 (A) (A) (A) (A) (A) (A) (A) (A) (A) (A) (A) (A)
                 (A) (A) (A) (A) (A) (A) (A) (A) (A) (A) (A) (A)
                 (A) (A) (A) (A) (A) (A) (A) (A) (A) (A) (A) (A)
                 (A) (A) (A) (A) (A) (A) (A) (A) (A) (A) (A) (A)
                 (A) (A) (A) (A) (A) (A) (A) (A) (A) (A) (A) (A)
                 (A) (A) (A) (A) (A) (A) (A) (A) (A) (A) (A) (A)
                 (A) (A) (A) (A) (A) (A) (A) (A) (A) (A) (A) (A)
                 (A) (A) (A) (A) (A) (A) (A) (A) (A) (A) (A) (A)
                 (A) (A) (A) (A) (A) (A) (A) (A) (A) (A) (A) (A)
                 (A) (A) (A) (A) (A) (A) (A) (A) (A) (A) (A) (A)
                 (A) (A) (A) (A) (A) (A) (A) (A) (A) (A) (A) (A)
                 (A) (A) (A) (A) (A) (A) (A) (A) (A) (A) (A) (A)
                 (A) (A) (A) (A) (A) (A) (A) (A) (A) (A) (A) (A)
                 (A) (A) (A) (A) (A) (A) (A) (A) (A) (A) (A) (A)
                 (A) (A) (A) (A) (A) (A) (A) (A) (A) (A) (A) (A)
                 (A) (A) (A) (A) (A) (A) (A) (A) (A) (A) (A) (A)
                 (A) (A) (A) (A) (A) (A) (A) (A) (A) (A) (A) (A)
                 (A) (A) (A) (A) (A) (A) (A) (A) (A) (A) (A) (A)
                 (A) (A) (A) (A) (A) (A) (A) (A) (A) (A) (A) (A)
                 (A) (A) (A) (A) (A) (A) (A) (A) (A) (A) (A) (A)
                 (A) (A) (A) (A) (A) (A) (A) (A) (A) (A) (A) (A)
                 (A) (A) (A) (A) (A) (A) (A) (A) (A) (A) (A) (A)
                 (A) (A) (A) (A) (A) (A) (A) (A) (A) (A) (A) (A)
                 (A) (A) (A) (A) (A) (A) (A) (A) (A) (A) (A) (A)
                 (A) (A) (A) (A) (A) (A) (A) (A) (A) (A) (A) (A)
                 (A) (A) (A) (A) (A) (A) (A) (A) (A) (A) (A) (A)
                 (A) (A) (A) (A) (A) (A) (A) (A) (A) (A) (A) (A)
                 (A) (A) (A) (A) (A) (A) (A) (A) (A) (A) (A) (A)
                 (A) (A) (A) (A) (A) (A) (A) (A) (A) (A) (A) (A)
                 (A) (A) (A) (A) (A) (A) (A) (A) (A) (A) (A) (A)
                 (A) (A) (A) (A) (A) (A) (A) (A) (A) (A) (A) (A)
                 (A) (A) (A) (A) (A) (A) (A) (A) (A) (A) (A) (A)
                 (A) (A) (A) (A) (A) (A) (A) (A) (A) (A) (A) (A)
                 (A) (A) (A) (A) (A) (A) (A) (A) (A) (A) (A) (A)
                 (A) (A) (A) (A) (A) (A) (A) (A) (A) (A) (A) (A)
                 (A) (A) (A) (A) (A) (A) (A) (A) (A) (A) (A) (A)
                 (A) (A) (A) (A) (A) (A) (A) (A) (A) (A) (A) (A)
                 (A) (A) (A) (A) (A) (A) (A) (A) (A) (A) (A) (A)
                 (A) (A) (A) (A) (A) (A) (A) (A) (A) (A) (A) (A)
                 (A) (A) (A) (A) (A) (A) (A) (A) (A) (A) (A) (A)
                 (A) (A) (A) (A) (A) (A) (A) (A) (A) (A) (A) (A)
                 (A) (A) (A) (A) (A) (A) (A) (A) (A) (A) (A) (A)
                 (A) (A) (A) (A) (A) (A) (A) (A) (A) (A) (A) (A)
                 (A) (A) (A) (A) (A) (A) (A) (A) (A) (A) (A) (A)
                 (A) (A) (A) (A) (A) (A) (A) (A) (A) (A) (A) (A)
                 (A) (A) (A) (A) (A) (A) (A) (A) (A) (A) (A) (A)
                 (A) (A) (A) (A) (A) (A) (A) (A) (A) (A) (A) (A)
                 (A) (A) (A) (A) (A) (A) (A) (A) (A) (A) (A) (A)
                 (A) (A) (A) (A) (A) (A) (A) (A) (A) (A) (A) (A)
                 (A) (A) (A) (A) (A) (A) (A) (A) (A) (A) (A) (A)
                 (A) (A) (A) (A) (A) (A) (A) (A) (A) (A) (A) (A)
                 (A) (A) (A) (A) (A) (A) (A) (A) (A) (A) (A) (A)
                 (A) (A) (A) (A) (A) (A) (A) (A) (A) (A) (A) (A)
                 (A) (A) (A) (A) (A) (A) (A) (A) (A) (A) (A) (A)
                 (A) (A) (A) (A) (A) (A) (A) (A) (A) (A) (A) (A)
                 (A) (A) (A) (A) (A) (A) (A) (A) (A) (A) (A) (A)
                 (A) (A) (A) (A) (A) (A) (A) (A) (A) (A) (A) (A)
                 (A) (A) (A) (A) (A) (A) (A) (A) (A) (A) (A) (A)
                 (A) (A) (A) (A) (A) (A) (A) (A) (A) (A) (A) (A)
                 (A) (A) (A) (A) (A) (A) (A) (A) (A) (A) (A) (A)
                 (A) (A) (A) (A) (A) (A) (A) (A) (A) (A) (A) (A)
                 (A) (A) (A) (A) (A) (A) (A) (A) (A) (A) (A) (A)
                 (A) (A) (A) (A) (A) (A) (A) (A) (A) (A) (A) (A)
                 (A) (A) (A) (A) (A) (A) (A) (A) (A) (A) (A) (A)
                 (A) (A) (A) (A) (A) (A) (A) (A) (A) (A) (A) (A)
                 (A) (A) (A) (A) (A) (A) (A) (A) (A) (A) (A) (A)
                 (A) (A) (A) (A) (A) (A) (A) (A) (A) (A) (A) (A)
                 (A) (A) (A) (A) (A) (A) (A) (A) (A) (A) (A) (A)
                 (A) (A) (A) (A) (A) (A) (A) (A) (A) (A) (A) (A)
                 (A) (A) (A) (A) (A) (A) (A) (A) (A) (A) (A) (A)
                 (A) (A) (A) (A) (A) (A) (A) (A) (A) (A) (A) (A)
                 (A) (A) (A) (A) (A) (A) (A) (A) (A) (A) (A) (A)
                 (A) (A) (A) (A) (A) (A) (A) (A) (A) (A) (A) (A)
                 (A) (A) (A) (A) (A) (A) (A) (A) (A) (A) (A) (A)
                 (A) (A) (A) (A) (A) (A) (A) (A) (A) (A) (A) (A)
                 (A) (A) (A) (A) (A) (A) (A) (A) (A) (A) (A) (A)
                 (A) (A) (A) (A) (A) (A) (A) (A) (A) (A) (A) (A)
                 (A) (A) (A) (A) (A) (A) (A) (A) (A) (A) (A) (A)
                 (A) (A) (A) (A) (A) (A) (A) (A) (A) (A) (A) (A)
                 (A) (A) (A) (A) (A) (A) (A) (A) (A) (A) (A) (A)
                 (A) (A) (A) (A) (A) (A) (A) (A) (A) (A) (A) (A)
                 (A) (A) (A) (A) (A) (A) (A) (A) (A) (A) (A) (A)
                 (A) (A) (A) (A) (A) (A) (A) (A) (A) (A) (A) (A)
                 (A) (A) (A) (A) (A) (A) (A) (A) (A) (A) (A) (A)
                 (A) (A) (A) (A) (A) (A) (A) (A) (A) (A) (A) (A)
                 (A) (A) (A) (A) (A) (A) (A) (A) (A) (A) (A) (A)
                 (A) (A) (A) (A) (A) (A) (A) (A) (A) (A) (A) (A)
                 (A) (A) (A) (A) (A) (A) (A) (A) (A) (A) (A) (A)
                 (A) (A) (A) (A) (A) (A) (A) (A) (A) (A) (A) (A)
                 (A) (A) (A) (A) (A) (A) (A) (A) (A) (A) (A) (A)
                 (A) (A) (A) (A) (A) (A) (A) (A) (A) (A) (A) (A)
                 (A) (A) (A) (A) (A) (A) (A) (A) (A) (A) (A) (A)
                 (A) (A) (A) (A) (A) (A) (A) (A) (A) (A) (A) (A)
                 (A) (A) (A) (A) (A) (A) (A) (A) (A) (A) (A) (A)
                 (A) (A) (A) (A) (A) (A) (A) (A) (A) (A) (A) (A)
                 (A) (A) (A) (A) (A) (A) (A) (A) (A) (A) (A) (A)
                 (A) (A) (A) (A) (A) (A) (A) (A) (A) (A) (A) (A)
                 (A) (A) (A) (A) (A) (A) (A) (A) (A) (A) (A) (A)
                 (A) (A) (A) (A) (A) (A) (A) (A) (A) (A) (A) (A)
                 (A) (A) (A) (A) (A) (A) (A) (A) (A) (A) (A) (A)
                 (A) (A) (A) (A) (A) (A) (A) (A) (A) (A) (A) (A)
                 (A) (A) (A) (A) (A) (A) (A) (A) (A) (A) (A) (A)
                 (A) (A) (A) (A) (A) (A) (A) (A) (A) (A) (A) (A)
                 (A) (A) (A) (A) (A) (A) (A) (A) (A) (A) (A) (A)
                 (A) (A) (A) (A) (A) (A) (A) (A) (A) (A) (A) (A)
                 (A) (A) (A) (A) (A) (A) (A) (A) (A) (A) (A) (A)
                 (A) (A) (A) (A) (A) (A) (A) (A) (A) (A) (A) (A)
                 (A) (A) (A) (A) (A) (A) (A) (A) (A) (A) (A) (A)
                 (A) (A) (A) (A) (A) (A) (A) (A) (A) (A) (A) (A)
                 (A) (A) (A) (A) (A) (A) (A) (A) (A) (A) (A) (A)
                 (A)
 The electronic state is 1-A.
 Alpha  occ. eigenvalues --  -25.21463 -25.21166 -19.69239 -19.69239 -19.69223
 Alpha  occ. eigenvalues --  -19.69223 -19.69003 -19.69002 -19.68943 -19.68943
 Alpha  occ. eigenvalues --  -19.68159 -19.68156 -15.02733 -15.02732 -15.02603
 Alpha  occ. eigenvalues --  -15.02603 -15.01633 -14.79631 -14.79630 -10.64878
 Alpha  occ. eigenvalues --  -10.64878 -10.64494 -10.64494 -10.62354 -10.61654
 Alpha  occ. eigenvalues --  -10.61469 -10.61468 -10.60393 -10.60393 -10.60270
 Alpha  occ. eigenvalues --  -10.60268 -10.59825 -10.59825 -10.59712 -10.59612
 Alpha  occ. eigenvalues --  -10.59612 -10.58719 -10.58719 -10.58434 -10.58430
 Alpha  occ. eigenvalues --  -10.58059 -10.58059 -10.58037 -10.58036 -10.57818
 Alpha  occ. eigenvalues --  -10.57816 -10.57765 -10.57765 -10.55336 -10.55336
 Alpha  occ. eigenvalues --  -10.54510 -10.54509  -7.14128  -1.38571  -1.38566
 Alpha  occ. eigenvalues --   -1.37878  -1.37876  -1.37169  -1.33334  -1.30063
 Alpha  occ. eigenvalues --   -1.20164  -1.20143  -1.19530  -1.19526  -1.18687
 Alpha  occ. eigenvalues --   -1.11932  -1.10019  -1.03726  -1.03722  -1.01472
 Alpha  occ. eigenvalues --   -0.96727  -0.96171  -0.95644  -0.93759  -0.93743
 Alpha  occ. eigenvalues --   -0.92490  -0.91743  -0.91593  -0.90760  -0.89166
 Alpha  occ. eigenvalues --   -0.88158  -0.85476  -0.84743  -0.82807  -0.82641
 Alpha  occ. eigenvalues --   -0.81218  -0.80957  -0.80381  -0.79059  -0.75781
 Alpha  occ. eigenvalues --   -0.74380  -0.73894  -0.73047  -0.72407  -0.71179
 Alpha  occ. eigenvalues --   -0.71029  -0.69744  -0.69704  -0.68423  -0.68161
 Alpha  occ. eigenvalues --   -0.67781  -0.66405  -0.66210  -0.65966  -0.65121
 Alpha  occ. eigenvalues --   -0.64930  -0.64763  -0.64057  -0.63954  -0.63857
 Alpha  occ. eigenvalues --   -0.63620  -0.63444  -0.63284  -0.63282  -0.62295
 Alpha  occ. eigenvalues --   -0.62184  -0.62129  -0.61658  -0.61197  -0.59641
 Alpha  occ. eigenvalues --   -0.59166  -0.58339  -0.58175  -0.56414  -0.56351
 Alpha  occ. eigenvalues --   -0.56133  -0.55437  -0.54832  -0.54741  -0.54310
 Alpha  occ. eigenvalues --   -0.54251  -0.53225  -0.53140  -0.52846  -0.52423
 Alpha  occ. eigenvalues --   -0.52241  -0.51003  -0.50496  -0.49887  -0.49822
 Alpha  occ. eigenvalues --   -0.49652  -0.49458  -0.49145  -0.48865  -0.48567
 Alpha  occ. eigenvalues --   -0.47973  -0.47794  -0.47427  -0.47352  -0.47084
 Alpha  occ. eigenvalues --   -0.46257  -0.46051  -0.46039  -0.45018  -0.44386
 Alpha  occ. eigenvalues --   -0.44230  -0.43916  -0.43329  -0.42614  -0.42483
 Alpha  occ. eigenvalues --   -0.42473  -0.42157  -0.42096  -0.41986  -0.41722
 Alpha  occ. eigenvalues --   -0.41515  -0.41323  -0.41232  -0.40940  -0.40783
 Alpha  occ. eigenvalues --   -0.40689  -0.40028  -0.39960  -0.39926  -0.39393
 Alpha  occ. eigenvalues --   -0.39275  -0.37373  -0.35843  -0.35814  -0.34402
 Alpha  occ. eigenvalues --   -0.34364  -0.33992  -0.33035  -0.32075  -0.30897
 Alpha  occ. eigenvalues --   -0.25149
 Alpha virt. eigenvalues --   -0.11866  -0.09464  -0.08297  -0.07706  -0.06208
 Alpha virt. eigenvalues --   -0.05838  -0.03273  -0.02289  -0.01306  -0.00448
 Alpha virt. eigenvalues --   -0.00339   0.01762   0.03597   0.03660   0.05338
 Alpha virt. eigenvalues --    0.05895   0.06301   0.07820   0.08085   0.08208
 Alpha virt. eigenvalues --    0.08802   0.08974   0.09124   0.09499   0.09517
 Alpha virt. eigenvalues --    0.09616   0.10036   0.10352   0.11485   0.11486
 Alpha virt. eigenvalues --    0.11969   0.12323   0.12339   0.12613   0.13260
 Alpha virt. eigenvalues --    0.13329   0.14246   0.14513   0.14807   0.14811
 Alpha virt. eigenvalues --    0.14895   0.15458   0.15697   0.15793   0.16060
 Alpha virt. eigenvalues --    0.16504   0.16677   0.17006   0.17027   0.17356
 Alpha virt. eigenvalues --    0.17485   0.17622   0.17719   0.18497   0.18517
 Alpha virt. eigenvalues --    0.19296   0.19476   0.19636   0.20078   0.20266
 Alpha virt. eigenvalues --    0.20341   0.20754   0.21060   0.21218   0.21350
 Alpha virt. eigenvalues --    0.21750   0.21923   0.22180   0.22204   0.22602
 Alpha virt. eigenvalues --    0.22885   0.23079   0.23640   0.23721   0.23763
 Alpha virt. eigenvalues --    0.24641   0.24660   0.24816   0.25148   0.25365
 Alpha virt. eigenvalues --    0.25760   0.25824   0.25894   0.26121   0.26489
 Alpha virt. eigenvalues --    0.26654   0.26834   0.27233   0.27310   0.27732
 Alpha virt. eigenvalues --    0.27754   0.27893   0.28182   0.28240   0.28494
 Alpha virt. eigenvalues --    0.28594   0.29166   0.29243   0.29354   0.29484
 Alpha virt. eigenvalues --    0.29622   0.30233   0.30356   0.30574   0.30898
 Alpha virt. eigenvalues --    0.30904   0.31271   0.31379   0.31638   0.31785
 Alpha virt. eigenvalues --    0.31939   0.32531   0.32943   0.33036   0.33187
 Alpha virt. eigenvalues --    0.33241   0.33369   0.33632   0.33998   0.34330
 Alpha virt. eigenvalues --    0.34385   0.34437   0.34474   0.34774   0.34885
 Alpha virt. eigenvalues --    0.35374   0.35500   0.35726   0.35960   0.36351
 Alpha virt. eigenvalues --    0.36484   0.36638   0.36837   0.37053   0.37126
 Alpha virt. eigenvalues --    0.37625   0.38083   0.38264   0.38402   0.38607
 Alpha virt. eigenvalues --    0.38969   0.39165   0.39515   0.39527   0.39830
 Alpha virt. eigenvalues --    0.39948   0.40194   0.40302   0.40513   0.40619
 Alpha virt. eigenvalues --    0.40822   0.40969   0.41222   0.41592   0.41970
 Alpha virt. eigenvalues --    0.42037   0.42120   0.42243   0.42396   0.42780
 Alpha virt. eigenvalues --    0.42814   0.42972   0.43323   0.43551   0.43968
 Alpha virt. eigenvalues --    0.43991   0.44093   0.44557   0.45011   0.45114
 Alpha virt. eigenvalues --    0.45446   0.45739   0.45848   0.46152   0.46244
 Alpha virt. eigenvalues --    0.46498   0.46796   0.46817   0.47122   0.47304
 Alpha virt. eigenvalues --    0.47929   0.47977   0.48267   0.48431   0.48652
 Alpha virt. eigenvalues --    0.48776   0.48905   0.49102   0.49439   0.49443
 Alpha virt. eigenvalues --    0.49759   0.49782   0.49977   0.50341   0.50583
 Alpha virt. eigenvalues --    0.50852   0.50860   0.51076   0.51210   0.51258
 Alpha virt. eigenvalues --    0.51469   0.51912   0.52108   0.52121   0.52297
 Alpha virt. eigenvalues --    0.52447   0.52454   0.52545   0.52712   0.52742
 Alpha virt. eigenvalues --    0.53091   0.53626   0.53969   0.54050   0.54378
 Alpha virt. eigenvalues --    0.54631   0.54704   0.55076   0.55622   0.55790
 Alpha virt. eigenvalues --    0.55895   0.55949   0.56422   0.56748   0.56855
 Alpha virt. eigenvalues --    0.56889   0.57057   0.57322   0.57515   0.57826
 Alpha virt. eigenvalues --    0.58194   0.58431   0.58751   0.59106   0.59245
 Alpha virt. eigenvalues --    0.59681   0.60178   0.60286   0.60354   0.60789
 Alpha virt. eigenvalues --    0.61196   0.61224   0.61522   0.61655   0.61708
 Alpha virt. eigenvalues --    0.62020   0.62202   0.62490   0.62534   0.62762
 Alpha virt. eigenvalues --    0.63248   0.63390   0.63440   0.63961   0.63983
 Alpha virt. eigenvalues --    0.64170   0.64542   0.65024   0.65089   0.65155
 Alpha virt. eigenvalues --    0.65330   0.65914   0.66131   0.66461   0.66725
 Alpha virt. eigenvalues --    0.66751   0.66954   0.67201   0.67461   0.67505
 Alpha virt. eigenvalues --    0.67596   0.67862   0.68220   0.68345   0.68850
 Alpha virt. eigenvalues --    0.68979   0.69255   0.69318   0.69490   0.69623
 Alpha virt. eigenvalues --    0.69708   0.69953   0.70552   0.70840   0.70983
 Alpha virt. eigenvalues --    0.71434   0.71691   0.71892   0.72246   0.72305
 Alpha virt. eigenvalues --    0.72385   0.72923   0.73097   0.73262   0.73787
 Alpha virt. eigenvalues --    0.74025   0.74103   0.74405   0.74473   0.74760
 Alpha virt. eigenvalues --    0.74946   0.75144   0.75446   0.75717   0.75855
 Alpha virt. eigenvalues --    0.76273   0.76413   0.76479   0.76731   0.77106
 Alpha virt. eigenvalues --    0.77298   0.77354   0.77867   0.77995   0.78471
 Alpha virt. eigenvalues --    0.78679   0.79155   0.79923   0.80193   0.80231
 Alpha virt. eigenvalues --    0.80497   0.80848   0.81153   0.81419   0.81715
 Alpha virt. eigenvalues --    0.81806   0.81949   0.82439   0.83002   0.83139
 Alpha virt. eigenvalues --    0.83382   0.84295   0.84303   0.84808   0.85107
 Alpha virt. eigenvalues --    0.85457   0.85720   0.85885   0.86350   0.86455
 Alpha virt. eigenvalues --    0.87158   0.87365   0.87550   0.87741   0.88372
 Alpha virt. eigenvalues --    0.89240   0.89418   0.89455   0.89636   0.90048
 Alpha virt. eigenvalues --    0.90158   0.90653   0.91045   0.91413   0.91684
 Alpha virt. eigenvalues --    0.92201   0.92284   0.92375   0.92949   0.92962
 Alpha virt. eigenvalues --    0.93528   0.93932   0.94030   0.94442   0.94764
 Alpha virt. eigenvalues --    0.95279   0.95608   0.95687   0.95969   0.96476
 Alpha virt. eigenvalues --    0.96846   0.97016   0.97425   0.98045   0.98120
 Alpha virt. eigenvalues --    0.98475   0.99070   0.99303   0.99665   0.99773
 Alpha virt. eigenvalues --    1.00164   1.00639   1.00699   1.01171   1.01337
 Alpha virt. eigenvalues --    1.01452   1.01508   1.02025   1.02376   1.02480
 Alpha virt. eigenvalues --    1.03035   1.03194   1.03584   1.04010   1.04275
 Alpha virt. eigenvalues --    1.04531   1.04787   1.04823   1.04997   1.05151
 Alpha virt. eigenvalues --    1.05726   1.05803   1.06485   1.06999   1.07376
 Alpha virt. eigenvalues --    1.07731   1.07762   1.08114   1.08418   1.08887
 Alpha virt. eigenvalues --    1.09365   1.09758   1.09865   1.10823   1.10916
 Alpha virt. eigenvalues --    1.11003   1.11132   1.11545   1.11697   1.11798
 Alpha virt. eigenvalues --    1.12048   1.12265   1.12827   1.13271   1.13708
 Alpha virt. eigenvalues --    1.14157   1.14380   1.14542   1.15292   1.15810
 Alpha virt. eigenvalues --    1.16109   1.16672   1.16720   1.17186   1.17631
 Alpha virt. eigenvalues --    1.17876   1.18011   1.18492   1.18715   1.19450
 Alpha virt. eigenvalues --    1.19591   1.19823   1.20061   1.20671   1.20817
 Alpha virt. eigenvalues --    1.21478   1.21798   1.21947   1.22418   1.22705
 Alpha virt. eigenvalues --    1.23100   1.23243   1.23435   1.23834   1.24043
 Alpha virt. eigenvalues --    1.24553   1.24824   1.25387   1.25459   1.25581
 Alpha virt. eigenvalues --    1.25588   1.26131   1.26180   1.27044   1.27384
 Alpha virt. eigenvalues --    1.27467   1.28008   1.28608   1.29067   1.29226
 Alpha virt. eigenvalues --    1.29294   1.29304   1.29788   1.29982   1.30065
 Alpha virt. eigenvalues --    1.30355   1.30800   1.31218   1.31578   1.31964
 Alpha virt. eigenvalues --    1.32190   1.33299   1.33324   1.33675   1.33962
 Alpha virt. eigenvalues --    1.34263   1.34341   1.35092   1.35451   1.35573
 Alpha virt. eigenvalues --    1.35606   1.35871   1.36419   1.36924   1.37108
 Alpha virt. eigenvalues --    1.37489   1.38195   1.38479   1.38813   1.38818
 Alpha virt. eigenvalues --    1.38932   1.39122   1.39795   1.39849   1.39919
 Alpha virt. eigenvalues --    1.41173   1.42144   1.42442   1.42735   1.43087
 Alpha virt. eigenvalues --    1.43353   1.43382   1.43774   1.44266   1.44431
 Alpha virt. eigenvalues --    1.44722   1.44776   1.45033   1.45636   1.45711
 Alpha virt. eigenvalues --    1.45899   1.46109   1.46223   1.46449   1.46947
 Alpha virt. eigenvalues --    1.47095   1.47684   1.48163   1.48587   1.48966
 Alpha virt. eigenvalues --    1.49082   1.49141   1.49479   1.49876   1.50327
 Alpha virt. eigenvalues --    1.50371   1.50651   1.51082   1.51244   1.51435
 Alpha virt. eigenvalues --    1.52181   1.52765   1.52784   1.53226   1.53520
 Alpha virt. eigenvalues --    1.53617   1.53830   1.54256   1.54641   1.54649
 Alpha virt. eigenvalues --    1.55313   1.55566   1.55668   1.56220   1.56461
 Alpha virt. eigenvalues --    1.56791   1.56921   1.56938   1.57577   1.57953
 Alpha virt. eigenvalues --    1.58361   1.58395   1.58441   1.59239   1.59276
 Alpha virt. eigenvalues --    1.59644   1.59937   1.60569   1.60809   1.60839
 Alpha virt. eigenvalues --    1.61130   1.61273   1.61787   1.62133   1.62162
 Alpha virt. eigenvalues --    1.62644   1.62778   1.63112   1.63645   1.63772
 Alpha virt. eigenvalues --    1.64263   1.64867   1.65185   1.65416   1.65496
 Alpha virt. eigenvalues --    1.65854   1.65877   1.66144   1.66796   1.66914
 Alpha virt. eigenvalues --    1.67190   1.67473   1.67526   1.68046   1.68761
 Alpha virt. eigenvalues --    1.68931   1.69063   1.69460   1.69885   1.70857
 Alpha virt. eigenvalues --    1.71295   1.71576   1.71656   1.71829   1.72363
 Alpha virt. eigenvalues --    1.72497   1.72716   1.73276   1.73516   1.74542
 Alpha virt. eigenvalues --    1.74785   1.74897   1.75294   1.75496   1.76057
 Alpha virt. eigenvalues --    1.76540   1.76576   1.77004   1.77293   1.77361
 Alpha virt. eigenvalues --    1.77549   1.78402   1.78408   1.78748   1.79215
 Alpha virt. eigenvalues --    1.79506   1.80117   1.80719   1.80877   1.81057
 Alpha virt. eigenvalues --    1.81226   1.81423   1.82113   1.82477   1.82642
 Alpha virt. eigenvalues --    1.83112   1.83749   1.83960   1.84173   1.85372
 Alpha virt. eigenvalues --    1.85560   1.86191   1.86591   1.87068   1.87611
 Alpha virt. eigenvalues --    1.87647   1.88136   1.88268   1.89457   1.89852
 Alpha virt. eigenvalues --    1.89960   1.90598   1.90729   1.92024   1.92806
 Alpha virt. eigenvalues --    1.93421   1.93488   1.94170   1.94569   1.95483
 Alpha virt. eigenvalues --    1.95575   1.96188   1.96216   1.96717   1.97266
 Alpha virt. eigenvalues --    1.97426   1.97913   1.97936   1.98412   1.99090
 Alpha virt. eigenvalues --    1.99126   1.99367   1.99901   2.00108   2.00483
 Alpha virt. eigenvalues --    2.00696   2.01052   2.01181   2.02196   2.02224
 Alpha virt. eigenvalues --    2.02736   2.03197   2.03316   2.03466   2.04114
 Alpha virt. eigenvalues --    2.04436   2.04630   2.05232   2.05518   2.05586
 Alpha virt. eigenvalues --    2.05863   2.05875   2.06391   2.06937   2.06977
 Alpha virt. eigenvalues --    2.07611   2.08210   2.08426   2.09071   2.09190
 Alpha virt. eigenvalues --    2.09833   2.10691   2.10877   2.11332   2.11636
 Alpha virt. eigenvalues --    2.11710   2.12364   2.12683   2.13023   2.13593
 Alpha virt. eigenvalues --    2.14131   2.14152   2.14540   2.15055   2.15333
 Alpha virt. eigenvalues --    2.15885   2.16366   2.17147   2.17175   2.17759
 Alpha virt. eigenvalues --    2.18929   2.19067   2.19160   2.20478   2.20945
 Alpha virt. eigenvalues --    2.21145   2.21671   2.21798   2.22610   2.23324
 Alpha virt. eigenvalues --    2.23455   2.24235   2.25122   2.25582   2.25766
 Alpha virt. eigenvalues --    2.26154   2.26400   2.26542   2.27094   2.27597
 Alpha virt. eigenvalues --    2.27694   2.28038   2.28147   2.29225   2.29850
 Alpha virt. eigenvalues --    2.30608   2.31171   2.31439   2.31474   2.31877
 Alpha virt. eigenvalues --    2.32594   2.32772   2.32824   2.33186   2.33830
 Alpha virt. eigenvalues --    2.34593   2.34882   2.34892   2.34947   2.35226
 Alpha virt. eigenvalues --    2.35319   2.36041   2.36601   2.37322   2.37489
 Alpha virt. eigenvalues --    2.37499   2.37680   2.38551   2.39516   2.39531
 Alpha virt. eigenvalues --    2.39855   2.40466   2.41780   2.42206   2.42532
 Alpha virt. eigenvalues --    2.43245   2.44568   2.45974   2.46498   2.46826
 Alpha virt. eigenvalues --    2.48192   2.48392   2.48605   2.48733   2.49621
 Alpha virt. eigenvalues --    2.50104   2.50665   2.50926   2.52217   2.52318
 Alpha virt. eigenvalues --    2.53441   2.54051   2.54544   2.54694   2.54708
 Alpha virt. eigenvalues --    2.55219   2.55624   2.56058   2.57613   2.58335
 Alpha virt. eigenvalues --    2.58436   2.58818   2.59222   2.59412   2.59550
 Alpha virt. eigenvalues --    2.59955   2.61498   2.62263   2.62477   2.62644
 Alpha virt. eigenvalues --    2.62787   2.63185   2.64125   2.64274   2.64518
 Alpha virt. eigenvalues --    2.64878   2.64909   2.65146   2.65725   2.66546
 Alpha virt. eigenvalues --    2.66622   2.66928   2.67046   2.67657   2.67877
 Alpha virt. eigenvalues --    2.68405   2.68487   2.69168   2.69844   2.70582
 Alpha virt. eigenvalues --    2.70739   2.71258   2.71381   2.71472   2.71618
 Alpha virt. eigenvalues --    2.72174   2.72398   2.72686   2.73098   2.73591
 Alpha virt. eigenvalues --    2.73812   2.73918   2.73999   2.74295   2.74806
 Alpha virt. eigenvalues --    2.74977   2.75951   2.75981   2.76215   2.76444
 Alpha virt. eigenvalues --    2.76681   2.76923   2.76988   2.77128   2.78081
 Alpha virt. eigenvalues --    2.78218   2.78587   2.78729   2.79310   2.79487
 Alpha virt. eigenvalues --    2.79654   2.79931   2.80701   2.80865   2.81097
 Alpha virt. eigenvalues --    2.81438   2.81481   2.81800   2.82056   2.82660
 Alpha virt. eigenvalues --    2.82905   2.83629   2.83799   2.84311   2.84403
 Alpha virt. eigenvalues --    2.84841   2.84884   2.85688   2.85899   2.85962
 Alpha virt. eigenvalues --    2.86477   2.86690   2.86782   2.86954   2.87284
 Alpha virt. eigenvalues --    2.87638   2.88093   2.88686   2.88716   2.89032
 Alpha virt. eigenvalues --    2.89507   2.89759   2.89841   2.90282   2.90467
 Alpha virt. eigenvalues --    2.90560   2.90712   2.91032   2.91300   2.91761
 Alpha virt. eigenvalues --    2.91926   2.91951   2.92291   2.92935   2.93061
 Alpha virt. eigenvalues --    2.93230   2.93501   2.93744   2.94136   2.94394
 Alpha virt. eigenvalues --    2.94740   2.95512   2.95669   2.95947   2.96093
 Alpha virt. eigenvalues --    2.96411   2.96431   2.96812   2.97303   2.97354
 Alpha virt. eigenvalues --    2.98076   2.98142   2.98206   2.98613   2.98873
 Alpha virt. eigenvalues --    2.99211   2.99275   2.99605   3.00004   3.00208
 Alpha virt. eigenvalues --    3.00493   3.00716   3.01020   3.01456   3.01966
 Alpha virt. eigenvalues --    3.02138   3.02338   3.02492   3.02719   3.02858
 Alpha virt. eigenvalues --    3.03095   3.03323   3.03387   3.03789   3.04179
 Alpha virt. eigenvalues --    3.04210   3.04785   3.04857   3.05069   3.05112
 Alpha virt. eigenvalues --    3.05621   3.06630   3.06771   3.07178   3.07404
 Alpha virt. eigenvalues --    3.07674   3.07854   3.08131   3.08321   3.08699
 Alpha virt. eigenvalues --    3.08770   3.09100   3.09209   3.09417   3.09747
 Alpha virt. eigenvalues --    3.09813   3.09931   3.10487   3.10650   3.11076
 Alpha virt. eigenvalues --    3.11161   3.11977   3.12025   3.12324   3.12384
 Alpha virt. eigenvalues --    3.12480   3.12898   3.13100   3.13566   3.13715
 Alpha virt. eigenvalues --    3.14382   3.14502   3.14975   3.15121   3.15440
 Alpha virt. eigenvalues --    3.15523   3.15677   3.16272   3.16500   3.16629
 Alpha virt. eigenvalues --    3.17059   3.17343   3.17873   3.18133   3.18361
 Alpha virt. eigenvalues --    3.18395   3.18528   3.19199   3.19408   3.19536
 Alpha virt. eigenvalues --    3.20134   3.20289   3.20425   3.20684   3.20837
 Alpha virt. eigenvalues --    3.21376   3.21653   3.21728   3.21981   3.22600
 Alpha virt. eigenvalues --    3.22715   3.22833   3.23133   3.23413   3.23526
 Alpha virt. eigenvalues --    3.24054   3.24472   3.24533   3.25074   3.25143
 Alpha virt. eigenvalues --    3.25406   3.25644   3.25785   3.26483   3.26504
 Alpha virt. eigenvalues --    3.26910   3.27082   3.27126   3.28223   3.28232
 Alpha virt. eigenvalues --    3.28527   3.29235   3.29542   3.29825   3.29858
 Alpha virt. eigenvalues --    3.30123   3.30612   3.30636   3.30853   3.31357
 Alpha virt. eigenvalues --    3.32052   3.32387   3.32811   3.33090   3.33506
 Alpha virt. eigenvalues --    3.33615   3.34079   3.34240   3.34289   3.35015
 Alpha virt. eigenvalues --    3.35112   3.35537   3.36269   3.36332   3.36451
 Alpha virt. eigenvalues --    3.37180   3.37268   3.37385   3.37782   3.38170
 Alpha virt. eigenvalues --    3.38369   3.38795   3.38982   3.39214   3.39756
 Alpha virt. eigenvalues --    3.40568   3.41045   3.41109   3.41476   3.41523
 Alpha virt. eigenvalues --    3.41575   3.41730   3.42521   3.42748   3.43049
 Alpha virt. eigenvalues --    3.43505   3.43814   3.44704   3.45607   3.46158
 Alpha virt. eigenvalues --    3.46231   3.46493   3.46925   3.47544   3.47743
 Alpha virt. eigenvalues --    3.48143   3.48198   3.48585   3.48909   3.50035
 Alpha virt. eigenvalues --    3.50174   3.50276   3.50934   3.50991   3.51455
 Alpha virt. eigenvalues --    3.51511   3.51830   3.51951   3.52496   3.52691
 Alpha virt. eigenvalues --    3.52860   3.53392   3.53535   3.53929   3.54135
 Alpha virt. eigenvalues --    3.54599   3.55044   3.55214   3.55915   3.55930
 Alpha virt. eigenvalues --    3.56255   3.57443   3.57935   3.58182   3.58596
 Alpha virt. eigenvalues --    3.58832   3.58903   3.59315   3.59527   3.59894
 Alpha virt. eigenvalues --    3.60118   3.61245   3.61615   3.61774   3.62267
 Alpha virt. eigenvalues --    3.63344   3.63406   3.63705   3.64256   3.64761
 Alpha virt. eigenvalues --    3.65200   3.65310   3.65929   3.65992   3.66450
 Alpha virt. eigenvalues --    3.66572   3.66892   3.67390   3.68042   3.68095
 Alpha virt. eigenvalues --    3.68290   3.68536   3.69210   3.69858   3.70548
 Alpha virt. eigenvalues --    3.71066   3.71256   3.71827   3.71944   3.72195
 Alpha virt. eigenvalues --    3.72492   3.72608   3.72963   3.73095   3.73371
 Alpha virt. eigenvalues --    3.73585   3.74066   3.74080   3.74658   3.74661
 Alpha virt. eigenvalues --    3.76109   3.76265   3.76450   3.76671   3.77042
 Alpha virt. eigenvalues --    3.78054   3.78257   3.78985   3.79118   3.79144
 Alpha virt. eigenvalues --    3.80079   3.80612   3.80723   3.81206   3.81649
 Alpha virt. eigenvalues --    3.83092   3.83242   3.83325   3.83809   3.84149
 Alpha virt. eigenvalues --    3.84790   3.84824   3.85242   3.85439   3.85925
 Alpha virt. eigenvalues --    3.86039   3.86573   3.86659   3.87101   3.87355
 Alpha virt. eigenvalues --    3.87910   3.88235   3.88477   3.89444   3.89454
 Alpha virt. eigenvalues --    3.89640   3.90127   3.90165   3.90527   3.90637
 Alpha virt. eigenvalues --    3.91279   3.91757   3.91992   3.92290   3.92499
 Alpha virt. eigenvalues --    3.93002   3.93109   3.93368   3.94176   3.94362
 Alpha virt. eigenvalues --    3.95242   3.95617   3.96183   3.96569   3.97092
 Alpha virt. eigenvalues --    3.97649   3.98298   3.98586   3.98838   3.99255
 Alpha virt. eigenvalues --    3.99330   4.00424   4.00804   4.00853   4.01004
 Alpha virt. eigenvalues --    4.01316   4.01389   4.01693   4.02080   4.02384
 Alpha virt. eigenvalues --    4.02544   4.02767   4.03277   4.03398   4.03684
 Alpha virt. eigenvalues --    4.03771   4.04025   4.04959   4.05110   4.05245
 Alpha virt. eigenvalues --    4.05343   4.05424   4.06141   4.06522   4.06559
 Alpha virt. eigenvalues --    4.07644   4.07773   4.08620   4.08663   4.09318
 Alpha virt. eigenvalues --    4.09411   4.09799   4.09911   4.10158   4.10561
 Alpha virt. eigenvalues --    4.11082   4.11678   4.11974   4.12650   4.12764
 Alpha virt. eigenvalues --    4.13176   4.13448   4.13709   4.14141   4.14627
 Alpha virt. eigenvalues --    4.14731   4.15304   4.15518   4.15647   4.16096
 Alpha virt. eigenvalues --    4.16351   4.16632   4.16924   4.17530   4.17835
 Alpha virt. eigenvalues --    4.18215   4.18492   4.19199   4.19373   4.19631
 Alpha virt. eigenvalues --    4.19963   4.20107   4.20659   4.21635   4.22377
 Alpha virt. eigenvalues --    4.22636   4.22929   4.22962   4.23101   4.23350
 Alpha virt. eigenvalues --    4.23602   4.24025   4.24573   4.24647   4.24779
 Alpha virt. eigenvalues --    4.25187   4.25291   4.25962   4.26173   4.26526
 Alpha virt. eigenvalues --    4.26744   4.27444   4.27955   4.28433   4.28645
 Alpha virt. eigenvalues --    4.29142   4.29393   4.29402   4.30535   4.30754
 Alpha virt. eigenvalues --    4.30966   4.31260   4.32457   4.33567   4.34175
 Alpha virt. eigenvalues --    4.34450   4.35238   4.35588   4.36466   4.36672
 Alpha virt. eigenvalues --    4.36930   4.37710   4.37760   4.38894   4.39307
 Alpha virt. eigenvalues --    4.39363   4.40744   4.41314   4.41475   4.42011
 Alpha virt. eigenvalues --    4.42337   4.42585   4.43004   4.43432   4.43653
 Alpha virt. eigenvalues --    4.44835   4.47007   4.47684   4.47981   4.48626
 Alpha virt. eigenvalues --    4.49230   4.49270   4.49397   4.49707   4.50659
 Alpha virt. eigenvalues --    4.50946   4.51151   4.51836   4.52111   4.53121
 Alpha virt. eigenvalues --    4.53959   4.54147   4.54939   4.55476   4.55577
 Alpha virt. eigenvalues --    4.56619   4.57048   4.57085   4.57857   4.58641
 Alpha virt. eigenvalues --    4.58905   4.59772   4.59987   4.60123   4.60693
 Alpha virt. eigenvalues --    4.60732   4.61191   4.61752   4.62657   4.62932
 Alpha virt. eigenvalues --    4.63444   4.63786   4.63890   4.64099   4.64572
 Alpha virt. eigenvalues --    4.65583   4.65730   4.65971   4.66840   4.67176
 Alpha virt. eigenvalues --    4.67412   4.67906   4.68759   4.69293   4.69586
 Alpha virt. eigenvalues --    4.70420   4.71496   4.71934   4.72762   4.73176
 Alpha virt. eigenvalues --    4.73523   4.74086   4.74335   4.74496   4.74924
 Alpha virt. eigenvalues --    4.75464   4.75575   4.75742   4.76588   4.77018
 Alpha virt. eigenvalues --    4.77782   4.77787   4.78353   4.79104   4.79124
 Alpha virt. eigenvalues --    4.79520   4.79783   4.80501   4.81749   4.81976
 Alpha virt. eigenvalues --    4.82064   4.82984   4.84421   4.84636   4.85053
 Alpha virt. eigenvalues --    4.85072   4.85677   4.85969   4.86278   4.87631
 Alpha virt. eigenvalues --    4.88011   4.89500   4.89839   4.90766   4.90835
 Alpha virt. eigenvalues --    4.90993   4.91362   4.92058   4.92633   4.92712
 Alpha virt. eigenvalues --    4.92903   4.93019   4.93186   4.94181   4.95025
 Alpha virt. eigenvalues --    4.95484   4.95922   4.96416   4.97080   4.97175
 Alpha virt. eigenvalues --    4.97903   5.00104   5.00829   5.00916   5.00921
 Alpha virt. eigenvalues --    5.01595   5.02898   5.03722   5.04014   5.04029
 Alpha virt. eigenvalues --    5.04296   5.05183   5.05646   5.05843   5.06286
 Alpha virt. eigenvalues --    5.07004   5.07121   5.07654   5.07848   5.08153
 Alpha virt. eigenvalues --    5.08852   5.08946   5.09176   5.09395   5.09614
 Alpha virt. eigenvalues --    5.10455   5.10577   5.11097   5.11826   5.12372
 Alpha virt. eigenvalues --    5.12741   5.13018   5.13213   5.13478   5.13890
 Alpha virt. eigenvalues --    5.14199   5.14226   5.14423   5.14531   5.15250
 Alpha virt. eigenvalues --    5.15419   5.15436   5.15785   5.16328   5.16437
 Alpha virt. eigenvalues --    5.17208   5.17263   5.18631   5.18946   5.19125
 Alpha virt. eigenvalues --    5.19352   5.19536   5.19829   5.19972   5.20333
 Alpha virt. eigenvalues --    5.20593   5.21454   5.21970   5.22540   5.22705
 Alpha virt. eigenvalues --    5.24853   5.25582   5.27225   5.28001   5.28126
 Alpha virt. eigenvalues --    5.28131   5.28360   5.28607   5.28934   5.29031
 Alpha virt. eigenvalues --    5.29160   5.29869   5.30008   5.30065   5.30835
 Alpha virt. eigenvalues --    5.31267   5.31608   5.32262   5.32927   5.34041
 Alpha virt. eigenvalues --    5.34413   5.34917   5.35220   5.36187   5.37031
 Alpha virt. eigenvalues --    5.37109   5.37688   5.37968   5.38349   5.38892
 Alpha virt. eigenvalues --    5.39206   5.39531   5.39871   5.40433   5.40606
 Alpha virt. eigenvalues --    5.40803   5.41047   5.43354   5.43457   5.44198
 Alpha virt. eigenvalues --    5.44274   5.44837   5.44996   5.48032   5.48255
 Alpha virt. eigenvalues --    5.49420   5.49425   5.50308   5.50754   5.52412
 Alpha virt. eigenvalues --    5.52843   5.53476   5.55298   5.56625   5.56655
 Alpha virt. eigenvalues --    5.56995   5.57008   5.57503   5.57718   5.58722
 Alpha virt. eigenvalues --    5.58985   5.59637   5.59791   5.60183   5.60927
 Alpha virt. eigenvalues --    5.61354   5.61487   5.62240   5.62686   5.63588
 Alpha virt. eigenvalues --    5.63670   5.63866   5.65021   5.65407   5.65803
 Alpha virt. eigenvalues --    5.66551   5.67282   5.69692   5.70165   5.72465
 Alpha virt. eigenvalues --    5.73893   5.74274   5.74930   5.74976   5.78537
 Alpha virt. eigenvalues --    5.78758   5.83669   5.84313   5.84399   5.85039
 Alpha virt. eigenvalues --    5.87334   5.87643   5.87959   5.89719   5.89810
 Alpha virt. eigenvalues --    5.91037   5.91327   5.91611   5.93978   5.96427
 Alpha virt. eigenvalues --    5.97239   6.00864   6.01298   6.01868   6.03239
 Alpha virt. eigenvalues --    6.06023   6.13693   6.15299   6.22187   6.23531
 Alpha virt. eigenvalues --    6.23630   6.24623   6.24639   6.25256   6.28032
 Alpha virt. eigenvalues --    6.28839   6.28968   6.29127   6.29890   6.30643
 Alpha virt. eigenvalues --    6.31036   6.32363   6.33293   6.35678   6.36061
 Alpha virt. eigenvalues --    6.36211   6.36237   6.36388   6.37725   6.37905
 Alpha virt. eigenvalues --    6.38380   6.39370   6.39545   6.40591   6.40720
 Alpha virt. eigenvalues --    6.40795   6.41977   6.42001   6.43078   6.44919
 Alpha virt. eigenvalues --    6.45252   6.49747   6.50087   6.66539   6.66788
 Alpha virt. eigenvalues --    6.70369   6.70497   6.75391   6.80712   6.81595
 Alpha virt. eigenvalues --    6.81631   6.82886   6.82887   6.83060   6.84354
 Alpha virt. eigenvalues --    6.84361   6.85106   6.85233   6.86424   6.86435
 Alpha virt. eigenvalues --    6.87394   6.88211   6.89767   6.93746   6.94297
 Alpha virt. eigenvalues --    6.96831   6.98545   6.99358   6.99893   7.04470
 Alpha virt. eigenvalues --    7.04859   7.05002   7.06073   7.06140   7.08354
 Alpha virt. eigenvalues --    7.10316   7.16532   7.19480   7.19507   7.20216
 Alpha virt. eigenvalues --    7.20687   7.21777   7.22755   7.23422   7.25653
 Alpha virt. eigenvalues --    7.25675   7.27311   7.28042   7.28098   7.31749
 Alpha virt. eigenvalues --    7.31930   7.32818   7.33026   7.33721   7.34157
 Alpha virt. eigenvalues --    7.35075   7.41839   7.43739   7.43799   7.44562
 Alpha virt. eigenvalues --    7.45243   7.50700   8.46676   8.47524   8.56173
 Alpha virt. eigenvalues --    8.58112   8.82559   8.86217   8.90514   8.91576
 Alpha virt. eigenvalues --    8.91962   8.99390  15.86766  22.76379  22.78124
 Alpha virt. eigenvalues --   22.95835  22.97968  23.03175  23.07560  23.07618
 Alpha virt. eigenvalues --   23.10863  23.11429  23.13905  23.18954  23.21862
 Alpha virt. eigenvalues --   23.23082  23.23695  23.24020  23.28267  23.29539
 Alpha virt. eigenvalues --   23.32090  23.33885  23.34405  23.35839  23.37888
 Alpha virt. eigenvalues --   23.46825  23.52828  23.53485  23.60030  23.73260
 Alpha virt. eigenvalues --   23.78437  23.86092  23.88542  24.01233  24.01781
 Alpha virt. eigenvalues --   24.19053  32.51237  32.51316  32.59600  32.65423
 Alpha virt. eigenvalues --   32.65596  33.13633  33.30043  44.10029  44.10780
 Alpha virt. eigenvalues --   44.12791  44.13488  44.16260  44.18432  44.18502
 Alpha virt. eigenvalues --   44.18902  44.20396  44.25039  57.35960  57.56536
          Condensed to atoms (all electrons):
 Mulliken charges:
               1
     1  C   -0.431265
     2  C   -0.016172
     3  C   -0.077561
     4  C    0.006054
     5  C   -0.088458
     6  C   -0.052743
     7  C    0.005277
     8  C   -0.114864
     9  C   -0.065864
    10  C    0.034147
    11  N    0.453654
    12  O   -0.343503
    13  O   -0.332160
    14  C    0.019957
    15  N    0.449295
    16  O   -0.329168
    17  O   -0.318999
    18  C   -0.069270
    19  N   -0.089057
    20  C    0.117565
    21  C    0.154279
    22  C   -0.273055
    23  C   -0.181529
    24  C   -0.035179
    25  C   -0.027563
    26  N    0.493980
    27  O   -0.365541
    28  O   -0.365529
    29  C   -0.042779
    30  C   -0.152613
    31  C    0.117847
    32  C   -0.016147
    33  C   -0.431261
    34  C   -0.077821
    35  C    0.006364
    36  C   -0.088543
    37  C   -0.052742
    38  C    0.005294
    39  C   -0.069237
    40  C    0.019929
    41  N    0.449316
    42  O   -0.329170
    43  O   -0.319009
    44  C    0.034119
    45  N    0.453619
    46  O   -0.332138
    47  O   -0.343491
    48  C   -0.065864
    49  C   -0.114854
    50  N   -0.089372
    51  B    0.326186
    52  F   -0.363128
    53  F   -0.323271
    54  H    0.164867
    55  H    0.135973
    56  H    0.162331
    57  H    0.175180
    58  H    0.140174
    59  H    0.129909
    60  H    0.162971
    61  H    0.188718
    62  H    0.179132
    63  H    0.185088
    64  H    0.199397
    65  H    0.199019
    66  H    0.179864
    67  H    0.165361
    68  H    0.161835
    69  H    0.135974
    70  H    0.175195
    71  H    0.140322
    72  H    0.129914
    73  H    0.179140
    74  H    0.188710
    75  H    0.162967
 Sum of Mulliken charges =  -0.00000
 Mulliken charges with hydrogens summed into heavy atoms:
               1
     1  C    0.031906
     2  C   -0.016172
     3  C    0.097619
     4  C    0.006054
     5  C    0.051715
     6  C    0.077166
     7  C    0.005277
     8  C    0.048107
     9  C    0.122854
    10  C    0.034147
    11  N    0.453654
    12  O   -0.343503
    13  O   -0.332160
    14  C    0.019957
    15  N    0.449295
    16  O   -0.329168
    17  O   -0.318999
    18  C    0.109861
    19  N   -0.089057
    20  C    0.117565
    21  C    0.154279
    22  C   -0.273055
    23  C    0.003559
    24  C    0.164218
    25  C   -0.027563
    26  N    0.493980
    27  O   -0.365541
    28  O   -0.365529
    29  C    0.156240
    30  C    0.027251
    31  C    0.117847
    32  C   -0.016147
    33  C    0.031909
    34  C    0.097374
    35  C    0.006364
    36  C    0.051779
    37  C    0.077172
    38  C    0.005294
    39  C    0.109903
    40  C    0.019929
    41  N    0.449316
    42  O   -0.329170
    43  O   -0.319009
    44  C    0.034119
    45  N    0.453619
    46  O   -0.332138
    47  O   -0.343491
    48  C    0.122846
    49  C    0.048112
    50  N   -0.089372
    51  B    0.326186
    52  F   -0.363128
    53  F   -0.323271
 Electronic spatial extent (au):  <R**2>=          51639.2351
 Charge=             -0.0000 electrons
 Dipole moment (field-independent basis, Debye):
    X=            -21.2064    Y=              0.0005    Z=             -0.2069  Tot=             21.2074
 Quadrupole moment (field-independent basis, Debye-Ang):
   XX=           -506.3779   YY=           -236.6380   ZZ=           -305.6368
   XY=              0.0030   XZ=              5.7023   YZ=              0.0508
 Traceless Quadrupole moment (field-independent basis, Debye-Ang):
   XX=           -156.8270   YY=            112.9129   ZZ=             43.9141
   XY=              0.0030   XZ=              5.7023   YZ=              0.0508
 Octapole moment (field-independent basis, Debye-Ang**2):
  XXX=           -126.2105  YYY=             -0.0506  ZZZ=             -2.4427  XYY=           -373.2090
  XXY=             -0.0005  XXZ=             35.3517  XZZ=            -10.2301  YZZ=              0.0049
  YYZ=             61.1917  XYZ=              0.3560
 Hexadecapole moment (field-independent basis, Debye-Ang**3):
 XXXX=         -65995.9503 YYYY=         -20447.0781 ZZZZ=           -856.2591 XXXY=              0.5866
 XXXZ=             30.0481 YYYX=             -0.1017 YYYZ=              2.8036 ZZZX=              3.8518
 ZZZY=             -0.8062 XXYY=         -14240.5248 XXZZ=          -7526.9093 YYZZ=          -4068.8503
 XXYZ=              1.2541 YYXZ=            228.7466 ZZXY=              0.0452
 N-N= 6.530385808735D+03 E-N=-1.920473930045D+04  KE= 2.617114633293D+03
 No NMR shielding tensors so no spin-rotation constants.
 Leave Link  601 at Fri Oct 24 23:58:12 2025, MaxMem= 30870077440 cpu:             122.3 elap:               2.3
 (Enter /public/software/gauss/g16/l9999.exe)
 1\1\GINC-CU056\SP\RM062X\def2TZVPP\C33H22B1F2N7O10\BAIDING\24-Oct-2025
 \0\\#p M062X/DEF2TZVPP scrf=(solvent=water) em=GD3\\Energy calculation
  for BNP_23NO2_23NO2\\0,1\C,0,5.129624,3.113507,-0.094482\C,0,3.727861
 ,2.589278,-0.04625\C,0,2.593574,3.382509,-0.052025\C,0,1.454233,2.5406
 64,-0.012031\C,0,0.055437,2.876108,-0.016732\C,0,-0.444993,4.133506,0.
 061359\C,0,-1.864615,4.45914,0.050769\C,0,-2.266689,5.803913,0.151563\
 C,0,-3.610742,6.159782,0.16032\C,0,-4.591932,5.178376,0.056645\N,0,-5.
 978825,5.584623,0.21582\O,0,-6.294845,6.715064,-0.165488\O,0,-6.758549
 ,4.795708,0.756593\C,0,-4.206363,3.831228,-0.068798\N,0,-5.168763,2.75
 6411,-0.352386\O,0,-4.981787,1.666096,0.187193\O,0,-6.071305,2.993222,
 -1.153108\C,0,-2.873243,3.474709,-0.067291\N,0,1.873072,1.243267,0.014
 554\C,0,3.264474,1.22453,-0.001131\C,0,3.957968,0.000072,0.000269\C,0,
 5.451823,0.000079,-0.016716\C,0,6.141699,-0.007056,-1.238044\C,0,7.532
 177,-0.007086,-1.261014\C,0,8.218279,-0.000078,-0.046905\N,0,9.679425,
 -0.000185,-0.062633\O,0,10.279181,0.00547,1.016969\O,0,10.256009,-0.00
 5905,-1.15482\C,0,7.558704,0.007061,1.18184\C,0,6.167897,0.007197,1.18
 9349\C,0,3.264493,-1.224386,0.00082\C,0,3.727917,-2.589247,-0.040511\C
 ,0,5.129708,-3.113696,-0.085266\C,0,2.593634,-3.382486,-0.045699\C,0,1
 .454256,-2.540547,-0.008816\C,0,0.05546,-2.875977,-0.014443\C,0,-0.445
 075,-4.133239,0.065155\C,0,-1.864671,-4.458943,0.053171\C,0,-2.873238,
 -3.474621,-0.066241\C,0,-4.206328,-3.831266,-0.069328\N,0,-5.168476,-2
 .756569,-0.354214\O,0,-4.982223,-1.666155,0.185419\O,0,-6.070012,-2.99
 3549,-1.156016\C,0,-4.591931,-5.178424,0.055891\N,0,-5.979001,-5.58478
 5,0.213277\O,0,-6.759494,-4.795967,0.753058\O,0,-6.294415,-6.715249,-0
 .168487\C,0,-3.610782,-6.159713,0.161059\C,0,-2.266757,-5.803716,0.153
 895\N,0,1.873062,-1.243098,0.015456\B,0,0.976845,0.000183,0.241364\F,0
 ,-0.085465,-0.000103,-0.677935\F,0,0.463018,0.000595,1.541953\H,0,5.66
 3017,2.77092,-0.986377\H,0,5.110381,4.205952,-0.1089\H,0,5.715181,2.79
 4433,0.772887\H,0,2.572213,4.462549,-0.097699\H,0,-0.621063,2.035155,-
 0.102088\H,0,0.227841,4.983108,0.145133\H,0,-1.513363,6.579242,0.24213
 9\H,0,-3.910922,7.193208,0.282526\H,0,-2.628017,2.427935,-0.191139\H,0
 ,5.588766,-0.012429,-2.170839\H,0,8.075312,-0.012433,-2.197079\H,0,8.1
 22404,0.012331,2.105693\H,0,5.63549,0.012639,2.134003\H,0,5.661936,-2.
 779836,-0.98118\H,0,5.71631,-2.786048,0.77816\H,0,5.110582,-4.206234,-
 0.089153\H,0,2.572332,-4.462637,-0.088713\H,0,-0.620894,-2.035152,-0.1
 02201\H,0,0.227659,-4.982711,0.151035\H,0,-2.627978,-2.427822,-0.18981
 6\H,0,-3.911007,-7.193142,0.283114\H,0,-1.513481,-6.578962,0.245592\\V
 ersion=ES64L-G16RevA.03\State=1-A\HF=-2630.521853\RMSD=8.910e-09\Dipol
 e=8.3432374,-0.0001799,-0.0814122\Quadrupole=-116.5970429,83.9479626,3
 2.6490803,0.002211,-4.2395336,-0.0377742\PG=C01 [X(C33H22B1F2N7O10)]\\
 @


 YOU CANNOT THROW TO THE GROUND THE LETTERS OF
 THE GREEK ALPHABET AND PICK UP THE ILIAD.
        - RUFUS CHOATE, 1799-1859
 Job cpu time:       0 days 17 hours 17 minutes 37.1 seconds.
 Elapsed time:       0 days  0 hours 16 minutes 32.0 seconds.
 File lengths (MBytes):  RWF=   2531 Int=      0 D2E=      0 Chk=    222 Scr=      1
 Normal termination of Gaussian 16 at Fri Oct 24 23:58:13 2025.
