 Entering Gaussian System, Link 0=g16
 Input=BNP_23NO2_NO2_reduced_sp.gjf
 Output=BNP_23NO2_NO2_reduced_sp.log
 Initial command:
 /public/software/gauss/g16/l1.exe "/public/home/baiding/1024_sp/tmp_BNP_23NO2_NO2_reduced_sp_1526250/Gau-2932306.inp" -scrdir="/public/home/baiding/1024_sp/tmp_BNP_23NO2_NO2_reduced_sp_1526250/"
 Entering Link 1 = /public/software/gauss/g16/l1.exe PID=   2932307.
  
 Copyright (c) 1988,1990,1992,1993,1995,1998,2003,2009,2016,
            Gaussian, Inc.  All Rights Reserved.
  
 This is part of the Gaussian(R) 16 program.  It is based on
 the Gaussian(R) 09 system (copyright 2009, Gaussian, Inc.),
 the Gaussian(R) 03 system (copyright 2003, Gaussian, Inc.),
 the Gaussian(R) 98 system (copyright 1998, Gaussian, Inc.),
 the Gaussian(R) 94 system (copyright 1995, Gaussian, Inc.),
 the Gaussian 92(TM) system (copyright 1992, Gaussian, Inc.),
 the Gaussian 90(TM) system (copyright 1990, Gaussian, Inc.),
 the Gaussian 88(TM) system (copyright 1988, Gaussian, Inc.),
 the Gaussian 86(TM) system (copyright 1986, Carnegie Mellon
 University), and the Gaussian 82(TM) system (copyright 1983,
 Carnegie Mellon University). Gaussian is a federally registered
 trademark of Gaussian, Inc.
  
 This software contains proprietary and confidential information,
 including trade secrets, belonging to Gaussian, Inc.
  
 This software is provided under written license and may be
 used, copied, transmitted, or stored only in accord with that
 written license.
  
 The following legend is applicable only to US Government
 contracts under FAR:
  
                    RESTRICTED RIGHTS LEGEND
  
 Use, reproduction and disclosure by the US Government is
 subject to restrictions as set forth in subparagraphs (a)
 and (c) of the Commercial Computer Software - Restricted
 Rights clause in FAR 52.227-19.
  
 Gaussian, Inc.
 340 Quinnipiac St., Bldg. 40, Wallingford CT 06492
  
  
 ---------------------------------------------------------------
 Warning -- This program may not be used in any manner that
 competes with the business of Gaussian, Inc. or will provide
 assistance to any competitor of Gaussian, Inc.  The licensee
 of this program is prohibited from giving any competitor of
 Gaussian, Inc. access to this program.  By using this program,
 the user acknowledges that Gaussian, Inc. is engaged in the
 business of creating and licensing software in the field of
 computational chemistry and represents and warrants to the
 licensee that it is not a competitor of Gaussian, Inc. and that
 it will not use this program in any manner prohibited above.
 ---------------------------------------------------------------
  

 Cite this work as:
 Gaussian 16, Revision A.03,
 M. J. Frisch, G. W. Trucks, H. B. Schlegel, G. E. Scuseria, 
 M. A. Robb, J. R. Cheeseman, G. Scalmani, V. Barone, 
 G. A. Petersson, H. Nakatsuji, X. Li, M. Caricato, A. V. Marenich, 
 J. Bloino, B. G. Janesko, R. Gomperts, B. Mennucci, H. P. Hratchian, 
 J. V. Ortiz, A. F. Izmaylov, J. L. Sonnenberg, D. Williams-Young, 
 F. Ding, F. Lipparini, F. Egidi, J. Goings, B. Peng, A. Petrone, 
 T. Henderson, D. Ranasinghe, V. G. Zakrzewski, J. Gao, N. Rega, 
 G. Zheng, W. Liang, M. Hada, M. Ehara, K. Toyota, R. Fukuda, 
 J. Hasegawa, M. Ishida, T. Nakajima, Y. Honda, O. Kitao, H. Nakai, 
 T. Vreven, K. Throssell, J. A. Montgomery, Jr., J. E. Peralta, 
 F. Ogliaro, M. J. Bearpark, J. J. Heyd, E. N. Brothers, K. N. Kudin, 
 V. N. Staroverov, T. A. Keith, R. Kobayashi, J. Normand, 
 K. Raghavachari, A. P. Rendell, J. C. Burant, S. S. Iyengar, 
 J. Tomasi, M. Cossi, J. M. Millam, M. Klene, C. Adamo, R. Cammi, 
 J. W. Ochterski, R. L. Martin, K. Morokuma, O. Farkas, 
 J. B. Foresman, and D. J. Fox, Gaussian, Inc., Wallingford CT, 2016.
 
 ******************************************
 Gaussian 16:  ES64L-G16RevA.03 25-Dec-2016
                24-Oct-2025 
 ******************************************
 %nprocshared=64
 Will use up to   64 processors via shared memory.
 %mem=230GB
 %chk=BNP_23NO2_NO2_reduced_sp.chk
 ----------------------------------------------
 #p M062X/DEF2TZVPP scrf=(solvent=water) em=GD3
 ----------------------------------------------
 1/38=1,172=1/1;
 2/12=2,17=6,18=5,40=1/2;
 3/5=44,7=202,11=2,25=1,30=1,70=2201,72=1,74=-55,124=31/1,2,3;
 4//1;
 5/5=2,38=5,53=1/2;
 6/7=2,8=2,9=2,10=2,28=1/1;
 99/5=1,9=1/99;
 Leave Link    1 at Fri Oct 24 23:58:14 2025, MaxMem= 30870077440 cpu:              26.4 elap:               0.4
 (Enter /public/software/gauss/g16/l101.exe)
 --------------------------------------------
 Energy calculation for BNP_23NO2_NO2_reduced
 --------------------------------------------
 Symbolic Z-matrix:
 Charge = -1 Multiplicity = 2
 C                    -4.8235   -3.29832   0.33047 
 C                    -3.4254   -2.76508   0.2518 
 C                    -2.29002  -3.54077   0.3322 
 C                    -1.14151  -2.71047   0.21333 
 C                     0.18227  -3.25048   0.22767 
 C                     1.37677  -2.65099  -0.06458 
 C                     2.66708  -3.28888   0.00019 
 C                     2.88729  -4.64035   0.40535 
 C                     4.15288  -5.17162   0.45399 
 C                     5.29245  -4.40495   0.10788 
 N                     6.55961  -4.91923   0.42294 
 O                     6.68609  -6.16604   0.62229 
 O                     7.54368  -4.13659   0.53805 
 C                     5.07686  -3.07677  -0.36673 
 N                     6.09321  -2.2964   -1.02167 
 O                     6.03646  -1.05016  -0.93234 
 O                     6.95992  -2.88069  -1.69646 
 C                     3.79464  -2.53953  -0.38332 
 N                    -1.56579  -1.41106   0.08457 
 C                    -2.9665   -1.4053    0.09993 
 C                    -3.68834  -0.20682   0.01483 
 C                    -5.18184  -0.23718  -0.01724 
 C                    -5.9176   -0.03923   1.16133 
 C                    -7.30773  -0.06215   1.13951 
 C                    -7.951    -0.27919  -0.07898 
 N                    -9.41071  -0.3023   -0.11136 
 O                    -9.97299  -0.48795  -1.19562 
 O                    -10.0261  -0.13547   0.94684 
 C                    -7.24776  -0.4753   -1.26751 
 C                    -5.85779  -0.45499  -1.22754 
 C                    -3.02368   1.03835  -0.02775 
 C                    -3.51878   2.38365  -0.13671 
 C                    -4.93033   2.8748   -0.25404 
 C                    -2.4041    3.20726  -0.11457 
 C                    -1.2465    2.4022    0.00597 
 C                     0.13043   2.80093   0.09714 
 C                     0.55908   4.08116  -0.06472 
 C                     1.93288   4.54158   0.03454 
 C                     2.19938   5.9143   -0.17946 
 C                     3.48493   6.42327  -0.10053 
 C                     4.53615   5.55052   0.19847 
 N                     5.8822    6.0688    0.28564 
 O                     6.80696   5.28614   0.55386 
 O                     6.06997   7.27972   0.08943 
 C                     4.31342   4.18436   0.41674 
 C                     3.02407   3.6905    0.33469 
 N                    -1.63975   1.0902    0.05415 
 B                    -0.69229  -0.13335   0.02382 
 F                     0.06193  -0.10421  -1.16468 
 F                     0.18507  -0.08565   1.11775 
 H                    -5.39586  -2.83517   1.1396 
 H                    -5.38127  -3.12824  -0.59541 
 H                    -4.79078  -4.37576   0.51137 
 H                    -2.25359  -4.61566   0.45102 
 H                     0.1844   -4.30637   0.48466 
 H                     1.38919  -1.62057  -0.39586 
 H                     2.05158  -5.2618    0.70634 
 H                     4.31124  -6.18186   0.80863 
 H                     3.66511  -1.53185  -0.76062 
 H                    -5.39854   0.13002   2.09841 
 H                    -7.88374   0.08576   2.04383 
 H                    -7.77814  -0.64042  -2.19647 
 H                    -5.29271  -0.60702  -2.14061 
 H                    -5.51261   2.67545   0.65111 
 H                    -4.92721   3.95532  -0.41935 
 H                    -5.46195   2.40582  -1.08725 
 H                    -2.41539   4.28746  -0.16242 
 H                     0.84367   2.01608   0.3218 
 H                    -0.16907   4.85525  -0.29485 
 H                     1.37531   6.5818   -0.41069 
 H                     3.6805    7.47506  -0.26515 
 H                     5.14492   3.53064   0.6468 
 H                     2.86086   2.6327    0.50603 
 
 ITRead=  0  0  0  0  0  0  0  0  0  0  0  0  0  0  0  0  0  0  0  0
 ITRead=  0  0  0  0  0  0  0  0  0  0  0  0  0  0  0  0  0  0  0  0
 ITRead=  0  0  0  0  0  0  0  0  0  0  0  0  0  0  0  0  0  0  0  0
 ITRead=  0  0  0  0  0  0  0  0  0  0  0  0  0
 MicOpt= -1 -1 -1 -1 -1 -1 -1 -1 -1 -1 -1 -1 -1 -1 -1 -1 -1 -1 -1 -1
 MicOpt= -1 -1 -1 -1 -1 -1 -1 -1 -1 -1 -1 -1 -1 -1 -1 -1 -1 -1 -1 -1
 MicOpt= -1 -1 -1 -1 -1 -1 -1 -1 -1 -1 -1 -1 -1 -1 -1 -1 -1 -1 -1 -1
 MicOpt= -1 -1 -1 -1 -1 -1 -1 -1 -1 -1 -1 -1 -1
 NAtoms=     73 NQM=       73 NQMF=       0 NMMI=      0 NMMIF=      0
                NMic=       0 NMicF=      0.
                    Isotopes and Nuclear Properties:
 (Nuclear quadrupole moments (NQMom) in fm**2, nuclear magnetic moments (NMagM)
  in nuclear magnetons)

  Atom         1           2           3           4           5           6           7           8           9          10
 IAtWgt=          12          12          12          12          12          12          12          12          12          12
 AtmWgt=  12.0000000  12.0000000  12.0000000  12.0000000  12.0000000  12.0000000  12.0000000  12.0000000  12.0000000  12.0000000
 NucSpn=           0           0           0           0           0           0           0           0           0           0
 AtZEff=  -0.0000000  -0.0000000  -0.0000000  -0.0000000  -0.0000000  -0.0000000  -0.0000000  -0.0000000  -0.0000000  -0.0000000
 NQMom=    0.0000000   0.0000000   0.0000000   0.0000000   0.0000000   0.0000000   0.0000000   0.0000000   0.0000000   0.0000000
 NMagM=    0.0000000   0.0000000   0.0000000   0.0000000   0.0000000   0.0000000   0.0000000   0.0000000   0.0000000   0.0000000
 AtZNuc=   6.0000000   6.0000000   6.0000000   6.0000000   6.0000000   6.0000000   6.0000000   6.0000000   6.0000000   6.0000000

  Atom        11          12          13          14          15          16          17          18          19          20
 IAtWgt=          14          16          16          12          14          16          16          12          14          12
 AtmWgt=  14.0030740  15.9949146  15.9949146  12.0000000  14.0030740  15.9949146  15.9949146  12.0000000  14.0030740  12.0000000
 NucSpn=           2           0           0           0           2           0           0           0           2           0
 AtZEff=  -0.0000000  -0.0000000  -0.0000000  -0.0000000  -0.0000000  -0.0000000  -0.0000000  -0.0000000  -0.0000000  -0.0000000
 NQMom=    2.0440000   0.0000000   0.0000000   0.0000000   2.0440000   0.0000000   0.0000000   0.0000000   2.0440000   0.0000000
 NMagM=    0.4037610   0.0000000   0.0000000   0.0000000   0.4037610   0.0000000   0.0000000   0.0000000   0.4037610   0.0000000
 AtZNuc=   7.0000000   8.0000000   8.0000000   6.0000000   7.0000000   8.0000000   8.0000000   6.0000000   7.0000000   6.0000000

  Atom        21          22          23          24          25          26          27          28          29          30
 IAtWgt=          12          12          12          12          12          14          16          16          12          12
 AtmWgt=  12.0000000  12.0000000  12.0000000  12.0000000  12.0000000  14.0030740  15.9949146  15.9949146  12.0000000  12.0000000
 NucSpn=           0           0           0           0           0           2           0           0           0           0
 AtZEff=  -0.0000000  -0.0000000  -0.0000000  -0.0000000  -0.0000000  -0.0000000  -0.0000000  -0.0000000  -0.0000000  -0.0000000
 NQMom=    0.0000000   0.0000000   0.0000000   0.0000000   0.0000000   2.0440000   0.0000000   0.0000000   0.0000000   0.0000000
 NMagM=    0.0000000   0.0000000   0.0000000   0.0000000   0.0000000   0.4037610   0.0000000   0.0000000   0.0000000   0.0000000
 AtZNuc=   6.0000000   6.0000000   6.0000000   6.0000000   6.0000000   7.0000000   8.0000000   8.0000000   6.0000000   6.0000000

  Atom        31          32          33          34          35          36          37          38          39          40
 IAtWgt=          12          12          12          12          12          12          12          12          12          12
 AtmWgt=  12.0000000  12.0000000  12.0000000  12.0000000  12.0000000  12.0000000  12.0000000  12.0000000  12.0000000  12.0000000
 NucSpn=           0           0           0           0           0           0           0           0           0           0
 AtZEff=  -0.0000000  -0.0000000  -0.0000000  -0.0000000  -0.0000000  -0.0000000  -0.0000000  -0.0000000  -0.0000000  -0.0000000
 NQMom=    0.0000000   0.0000000   0.0000000   0.0000000   0.0000000   0.0000000   0.0000000   0.0000000   0.0000000   0.0000000
 NMagM=    0.0000000   0.0000000   0.0000000   0.0000000   0.0000000   0.0000000   0.0000000   0.0000000   0.0000000   0.0000000
 AtZNuc=   6.0000000   6.0000000   6.0000000   6.0000000   6.0000000   6.0000000   6.0000000   6.0000000   6.0000000   6.0000000

  Atom        41          42          43          44          45          46          47          48          49          50
 IAtWgt=          12          14          16          16          12          12          14          11          19          19
 AtmWgt=  12.0000000  14.0030740  15.9949146  15.9949146  12.0000000  12.0000000  14.0030740  11.0093053  18.9984033  18.9984033
 NucSpn=           0           2           0           0           0           0           2           3           1           1
 AtZEff=  -0.0000000  -0.0000000  -0.0000000  -0.0000000  -0.0000000  -0.0000000  -0.0000000  -0.0000000  -0.0000000  -0.0000000
 NQMom=    0.0000000   2.0440000   0.0000000   0.0000000   0.0000000   0.0000000   2.0440000   4.0590000   0.0000000   0.0000000
 NMagM=    0.0000000   0.4037610   0.0000000   0.0000000   0.0000000   0.0000000   0.4037610   2.6886370   2.6288670   2.6288670
 AtZNuc=   6.0000000   7.0000000   8.0000000   8.0000000   6.0000000   6.0000000   7.0000000   5.0000000   9.0000000   9.0000000

  Atom        51          52          53          54          55          56          57          58          59          60
 IAtWgt=           1           1           1           1           1           1           1           1           1           1
 AtmWgt=   1.0078250   1.0078250   1.0078250   1.0078250   1.0078250   1.0078250   1.0078250   1.0078250   1.0078250   1.0078250
 NucSpn=           1           1           1           1           1           1           1           1           1           1
 AtZEff=  -0.0000000  -0.0000000  -0.0000000  -0.0000000  -0.0000000  -0.0000000  -0.0000000  -0.0000000  -0.0000000  -0.0000000
 NQMom=    0.0000000   0.0000000   0.0000000   0.0000000   0.0000000   0.0000000   0.0000000   0.0000000   0.0000000   0.0000000
 NMagM=    2.7928460   2.7928460   2.7928460   2.7928460   2.7928460   2.7928460   2.7928460   2.7928460   2.7928460   2.7928460
 AtZNuc=   1.0000000   1.0000000   1.0000000   1.0000000   1.0000000   1.0000000   1.0000000   1.0000000   1.0000000   1.0000000

  Atom        61          62          63          64          65          66          67          68          69          70
 IAtWgt=           1           1           1           1           1           1           1           1           1           1
 AtmWgt=   1.0078250   1.0078250   1.0078250   1.0078250   1.0078250   1.0078250   1.0078250   1.0078250   1.0078250   1.0078250
 NucSpn=           1           1           1           1           1           1           1           1           1           1
 AtZEff=  -0.0000000  -0.0000000  -0.0000000  -0.0000000  -0.0000000  -0.0000000  -0.0000000  -0.0000000  -0.0000000  -0.0000000
 NQMom=    0.0000000   0.0000000   0.0000000   0.0000000   0.0000000   0.0000000   0.0000000   0.0000000   0.0000000   0.0000000
 NMagM=    2.7928460   2.7928460   2.7928460   2.7928460   2.7928460   2.7928460   2.7928460   2.7928460   2.7928460   2.7928460
 AtZNuc=   1.0000000   1.0000000   1.0000000   1.0000000   1.0000000   1.0000000   1.0000000   1.0000000   1.0000000   1.0000000

  Atom        71          72          73
 IAtWgt=           1           1           1
 AtmWgt=   1.0078250   1.0078250   1.0078250
 NucSpn=           1           1           1
 AtZEff=  -0.0000000  -0.0000000  -0.0000000
 NQMom=    0.0000000   0.0000000   0.0000000
 NMagM=    2.7928460   2.7928460   2.7928460
 AtZNuc=   1.0000000   1.0000000   1.0000000
 Leave Link  101 at Fri Oct 24 23:58:14 2025, MaxMem= 30870077440 cpu:               3.9 elap:               0.1
 (Enter /public/software/gauss/g16/l202.exe)
 Stoichiometry    C33H23BF2N6O8(1-,2)
 Framework group  C1[X(C33H23BF2N6O8)]
 Deg. of freedom   213
 Full point group                 C1      NOp   1
 Largest Abelian subgroup         C1      NOp   1
 Largest concise Abelian subgroup C1      NOp   1
                         Standard orientation:                         
 ---------------------------------------------------------------------
 Center     Atomic      Atomic             Coordinates (Angstroms)
 Number     Number       Type             X           Y           Z
 ---------------------------------------------------------------------
      1          6           0        4.823504   -3.298324   -0.330474
      2          6           0        3.425400   -2.765078   -0.251797
      3          6           0        2.290023   -3.540770   -0.332199
      4          6           0        1.141512   -2.710467   -0.213334
      5          6           0       -0.182273   -3.250484   -0.227671
      6          6           0       -1.376770   -2.650985    0.064575
      7          6           0       -2.667084   -3.288876   -0.000185
      8          6           0       -2.887292   -4.640353   -0.405353
      9          6           0       -4.152883   -5.171616   -0.453988
     10          6           0       -5.292451   -4.404948   -0.107883
     11          7           0       -6.559613   -4.919229   -0.422943
     12          8           0       -6.686091   -6.166037   -0.622285
     13          8           0       -7.543677   -4.136595   -0.538050
     14          6           0       -5.076863   -3.076769    0.366731
     15          7           0       -6.093210   -2.296399    1.021674
     16          8           0       -6.036459   -1.050164    0.932338
     17          8           0       -6.959915   -2.880691    1.696462
     18          6           0       -3.794636   -2.539532    0.383317
     19          7           0        1.565790   -1.411059   -0.084566
     20          6           0        2.966503   -1.405304   -0.099928
     21          6           0        3.688337   -0.206819   -0.014831
     22          6           0        5.181840   -0.237180    0.017235
     23          6           0        5.917599   -0.039229   -1.161329
     24          6           0        7.307731   -0.062153   -1.139507
     25          6           0        7.951000   -0.279192    0.078983
     26          7           0        9.410705   -0.302297    0.111356
     27          8           0        9.972992   -0.487954    1.195623
     28          8           0       10.026098   -0.135472   -0.946835
     29          6           0        7.247763   -0.475295    1.267512
     30          6           0        5.857793   -0.454986    1.227539
     31          6           0        3.023684    1.038352    0.027749
     32          6           0        3.518778    2.383649    0.136710
     33          6           0        4.930331    2.874800    0.254044
     34          6           0        2.404098    3.207256    0.114567
     35          6           0        1.246499    2.402196   -0.005974
     36          6           0       -0.130429    2.800927   -0.097137
     37          6           0       -0.559082    4.081164    0.064720
     38          6           0       -1.932879    4.541580   -0.034537
     39          6           0       -2.199379    5.914301    0.179455
     40          6           0       -3.484929    6.423272    0.100530
     41          6           0       -4.536147    5.550517   -0.198465
     42          7           0       -5.882198    6.068801   -0.285640
     43          8           0       -6.806963    5.286143   -0.553858
     44          8           0       -6.069972    7.279718   -0.089433
     45          6           0       -4.313421    4.184364   -0.416738
     46          6           0       -3.024074    3.690503   -0.334693
     47          7           0        1.639752    1.090203   -0.054153
     48          5           0        0.692291   -0.133347   -0.023821
     49          9           0       -0.061934   -0.104214    1.164675
     50          9           0       -0.185069   -0.085651   -1.117746
     51          1           0        5.395855   -2.835173   -1.139596
     52          1           0        5.381268   -3.128242    0.595405
     53          1           0        4.790779   -4.375758   -0.511371
     54          1           0        2.253586   -4.615661   -0.451023
     55          1           0       -0.184404   -4.306365   -0.484664
     56          1           0       -1.389192   -1.620572    0.395855
     57          1           0       -2.051581   -5.261800   -0.706338
     58          1           0       -4.311236   -6.181855   -0.808627
     59          1           0       -3.665110   -1.531845    0.760620
     60          1           0        5.398540    0.130023   -2.098412
     61          1           0        7.883741    0.085762   -2.043826
     62          1           0        7.778144   -0.640422    2.196469
     63          1           0        5.292712   -0.607015    2.140611
     64          1           0        5.512605    2.675452   -0.651106
     65          1           0        4.927209    3.955320    0.419352
     66          1           0        5.461952    2.405824    1.087249
     67          1           0        2.415385    4.287464    0.162421
     68          1           0       -0.843666    2.016081   -0.321795
     69          1           0        0.169074    4.855252    0.294846
     70          1           0       -1.375313    6.581799    0.410690
     71          1           0       -3.680503    7.475059    0.265153
     72          1           0       -5.144921    3.530642   -0.646799
     73          1           0       -2.860863    2.632695   -0.506025
 ---------------------------------------------------------------------
 Rotational constants (GHZ):           0.0605052           0.0283385           0.0197427
 Leave Link  202 at Fri Oct 24 23:58:14 2025, MaxMem= 30870077440 cpu:               0.2 elap:               0.0
 (Enter /public/software/gauss/g16/l301.exe)
 Standard basis: def2TZVPP (5D, 7F)
 Ernie: Thresh=  0.10000D-02 Tol=  0.10000D-05 Strict=F.
 There are  2145 symmetry adapted cartesian basis functions of A   symmetry.
 There are  1872 symmetry adapted basis functions of A   symmetry.
  1872 basis functions,  2941 primitive gaussians,  2145 cartesian basis functions
   176 alpha electrons      175 beta electrons
       nuclear repulsion energy      5853.9333402501 Hartrees.
 IExCor= 4336 DFT=T Ex+Corr=M062X ExCW=0 ScaHFX=  0.540000
 ScaDFX=  1.000000  1.000000  1.000000  1.000000 ScalE2=  1.000000  1.000000
 IRadAn=      5 IRanWt=     -1 IRanGd=            0 ICorTp=0 IEmpDi=131
 NAtoms=   73 NActive=   73 NUniq=   73 SFac= 1.00D+00 NAtFMM=   60 NAOKFM=T Big=T
 Integral buffers will be    131072 words long.
 Raffenetti 2 integral format.
 Two-electron integral symmetry is turned on.
 R6Disp:  Grimme-D3 Dispersion energy=       -0.0063684624 Hartrees.
 Nuclear repulsion after empirical dispersion term =     5853.9269717877 Hartrees.
 ------------------------------------------------------------------------------
 Polarizable Continuum Model (PCM)
 =================================
 Model                : PCM.
 Atomic radii         : UFF (Universal Force Field).
 Polarization charges : Total charges.
 Charge compensation  : None.
 Solution method      : On-the-fly selection.
 Cavity type          : Scaled VdW (van der Waals Surface) (Alpha=1.100).
 Cavity algorithm     : GePol (No added spheres)
                        Default sphere list used, NSphG=   73.
                        Lebedev-Laikov grids with approx.  5.0 points / Ang**2.
                        Smoothing algorithm: York/Karplus (Gamma=1.0000).
                        Polarization charges: spherical gaussians, with
                                              point-specific exponents (IZeta= 3).
                        Self-potential: point-specific (ISelfS= 7).
                        Self-field    : sphere-specific E.n sum rule (ISelfD= 2).
 Solvent              : Water, Eps=  78.355300 Eps(inf)=   1.777849
 ------------------------------------------------------------------------------
 GePol: Number of generator spheres                  =      73
 GePol: Total number of spheres                      =      73
 GePol: Number of exposed spheres                    =      73 (100.00%)
 GePol: Number of points                             =    5614
 GePol: Average weight of points                     =       0.13
 GePol: Minimum weight of points                     =   0.17D-10
 GePol: Maximum weight of points                     =    0.20577
 GePol: Number of points with low weight             =     323
 GePol: Fraction of low-weight points (<1% of avg)   =       5.75%
 GePol: Cavity surface area                          =    710.424 Ang**2
 GePol: Cavity volume                                =    823.949 Ang**3
 Leave Link  301 at Fri Oct 24 23:58:14 2025, MaxMem= 30870077440 cpu:               3.9 elap:               0.1
 (Enter /public/software/gauss/g16/l302.exe)
 NPDir=0 NMtPBC=     1 NCelOv=     1 NCel=       1 NClECP=     1 NCelD=      1
         NCelK=      1 NCelE2=     1 NClLst=     1 CellRange=     0.0.
 One-electron integrals computed using PRISM.
 One-electron integral symmetry used in STVInt
   1 Symmetry operations used in ECPInt.
 ECPInt:  NShTT=  237016 NPrTT=  702689 LenC2=  144533 LenP2D=  281792.
 LDataN:  DoStor=T MaxTD1= 6 Len=  172
 NBasis=  1872 RedAO= T EigKep=  3.69D-06  NBF=  1872
 NBsUse=  1872 1.00D-06 EigRej= -1.00D+00 NBFU=  1872
 Precomputing XC quadrature grid using
 IXCGrd= 4 IRadAn=           5 IRanWt=          -1 IRanGd=           0 AccXCQ= 0.00D+00.
 Generated NRdTot=       0 NPtTot=           0 NUsed=           0 NTot=          32
 NSgBfM=  1853  1853  1853  1853  1853 MxSgAt=    73 MxSgA2=    73.
 Leave Link  302 at Fri Oct 24 23:58:23 2025, MaxMem= 30870077440 cpu:             608.7 elap:               9.6
 (Enter /public/software/gauss/g16/l303.exe)
 DipDrv:  MaxL=1.
 Leave Link  303 at Fri Oct 24 23:58:24 2025, MaxMem= 30870077440 cpu:              28.2 elap:               0.5
 (Enter /public/software/gauss/g16/l401.exe)
 ExpMin= 6.06D-02 ExpMax= 3.55D+04 ExpMxC= 1.21D+03 IAcc=3 IRadAn=         5 AccDes= 0.00D+00
 Harris functional with IExCor= 1009 and IRadAn=       5 diagonalized for initial guess.
 HarFok:  IExCor= 1009 AccDes= 0.00D+00 IRadAn=         5 IDoV= 1 UseB2=F ITyADJ=14
 ICtDFT=  3500011 ScaDFX=  1.000000  1.000000  1.000000  1.000000
 FoFCou: FMM=F IPFlag=           0 FMFlag=      100000 FMFlg1=        2001
         NFxFlg=           0 DoJE=T BraDBF=F KetDBF=T FulRan=T
         wScrn=  0.000000 ICntrl=       500 IOpCl=  0 I1Cent=   200000004 NGrid=           0
         NMat0=    1 NMatS0=      1 NMatT0=    0 NMatD0=    1 NMtDS0=    0 NMtDT0=    0
 Petite list used in FoFCou.
 Harris En= -2425.03939634975    
 JPrj=0 DoOrth=F DoCkMO=F.
 Initial guess <Sx>= 0.0000 <Sy>= 0.0000 <Sz>= 0.5000 <S**2>= 0.7500 S= 0.5000
 Leave Link  401 at Fri Oct 24 23:58:35 2025, MaxMem= 30870077440 cpu:             686.4 elap:              10.8
 (Enter /public/software/gauss/g16/l502.exe)
 Integral symmetry usage will be decided dynamically.
 UHF open shell SCF:
 Using DIIS extrapolation, IDIIS=  1040.
 NGot= 30870077440 LenX= 30860720245 LenY= 30856117075
 Requested convergence on RMS density matrix=1.00D-08 within 128 cycles.
 Requested convergence on MAX density matrix=1.00D-06.
 Requested convergence on             energy=1.00D-06.
 No special actions if energy rises.
 Fock matrices will be formed incrementally for  20 cycles.

 Cycle   1  Pass 1  IDiag  1:
 FoFJK:  IHMeth= 1 ICntrl=       0 DoSepK=F KAlg= 0 I1Cent=           0 FoldK=F
 IRaf= 570000000 NMat=       1 IRICut=       1 DoRegI=T DoRafI=F ISym2E= 0 IDoP0=0 IntGTp=1.
 FoFCou: FMM=T IPFlag=           0 FMFlag=      100000 FMFlg1=        2001
         NFxFlg=           0 DoJE=F BraDBF=F KetDBF=F FulRan=T
         wScrn=  0.000000 ICntrl=         0 IOpCl=  1 I1Cent=           0 NGrid=           0
         NMat0=    1 NMatS0=      1 NMatT0=    0 NMatD0=    1 NMtDS0=    0 NMtDT0=    0
 Symmetry not used in FoFCou.
 FMM levels:  10  Number of levels for PrismC:   9
 Inv3:  Mode=1 IEnd=    94550988.
 Iteration    1 A*A^-1 deviation from unit magnitude is 7.11D-15 for   5614.
 Iteration    1 A*A^-1 deviation from orthogonality  is 3.10D-15 for   2866   1112.
 Iteration    1 A^-1*A deviation from unit magnitude is 7.11D-15 for   5614.
 Iteration    1 A^-1*A deviation from orthogonality  is 1.09D-12 for   4507   4505.
 E= -2424.78482858461    
 DIIS: error= 2.61D-02 at cycle   1 NSaved=   1.
 NSaved= 1 IEnMin= 1 EnMin= -2424.78482858461     IErMin= 1 ErrMin= 2.61D-02
 ErrMax= 2.61D-02  0.00D+00 EMaxC= 1.00D-01 BMatC= 7.74D+00 BMatP= 7.74D+00
 IDIUse=3 WtCom= 7.39D-01 WtEn= 2.61D-01
 Coeff-Com:  0.100D+01
 Coeff-En:   0.100D+01
 Coeff:      0.100D+01
 Gap=     0.049 Goal=   None    Shift=    0.000
 Gap=     0.120 Goal=   None    Shift=    0.000
 GapD=    0.049 DampG=0.250 DampE=0.500 DampFc=0.2500 IDamp=-1.
 Damping current iteration by 2.50D-01
 RMSDP=1.66D-03 MaxDP=4.39D-01              OVMax= 6.84D-01

 Cycle   2  Pass 1  IDiag  1:
 RMSU=  4.14D-04    CP:  9.96D-01
 E= -2425.26801824336     Delta-E=       -0.483189658757 Rises=F Damp=T
 DIIS: error= 1.24D-02 at cycle   2 NSaved=   2.
 NSaved= 2 IEnMin= 2 EnMin= -2425.26801824336     IErMin= 2 ErrMin= 1.24D-02
 ErrMax= 1.24D-02  0.00D+00 EMaxC= 1.00D-01 BMatC= 2.31D+00 BMatP= 7.74D+00
 IDIUse=3 WtCom= 8.76D-01 WtEn= 1.24D-01
 Coeff-Com: -0.869D+00 0.187D+01
 Coeff-En:   0.000D+00 0.100D+01
 Coeff:     -0.761D+00 0.176D+01
 Gap=     0.077 Goal=   None    Shift=    0.000
 Gap=     0.133 Goal=   None    Shift=    0.000
 RMSDP=8.68D-04 MaxDP=8.67D-02 DE=-4.83D-01 OVMax= 5.96D-01

 Cycle   3  Pass 1  IDiag  1:
 RMSU=  7.05D-04    CP:  9.86D-01  2.22D+00
 E= -2426.10080627372     Delta-E=       -0.832788030359 Rises=F Damp=F
 DIIS: error= 5.51D-03 at cycle   3 NSaved=   3.
 NSaved= 3 IEnMin= 3 EnMin= -2426.10080627372     IErMin= 3 ErrMin= 5.51D-03
 ErrMax= 5.51D-03  0.00D+00 EMaxC= 1.00D-01 BMatC= 2.71D-01 BMatP= 2.31D+00
 IDIUse=3 WtCom= 9.45D-01 WtEn= 5.51D-02
 Coeff-Com: -0.373D+00 0.687D+00 0.686D+00
 Coeff-En:   0.000D+00 0.000D+00 0.100D+01
 Coeff:     -0.353D+00 0.649D+00 0.703D+00
 Gap=     0.059 Goal=   None    Shift=    0.000
 Gap=     0.121 Goal=   None    Shift=    0.000
 RMSDP=2.75D-04 MaxDP=3.78D-02 DE=-8.33D-01 OVMax= 1.60D-01

 Cycle   4  Pass 1  IDiag  1:
 RMSU=  2.54D-04    CP:  9.81D-01  2.25D+00  8.55D-01
 E= -2426.14948795765     Delta-E=       -0.048681683929 Rises=F Damp=F
 DIIS: error= 1.97D-03 at cycle   4 NSaved=   4.
 NSaved= 4 IEnMin= 4 EnMin= -2426.14948795765     IErMin= 4 ErrMin= 1.97D-03
 ErrMax= 1.97D-03  0.00D+00 EMaxC= 1.00D-01 BMatC= 5.11D-02 BMatP= 2.71D-01
 IDIUse=3 WtCom= 9.80D-01 WtEn= 1.97D-02
 Coeff-Com: -0.775D-01 0.129D+00 0.328D+00 0.620D+00
 Coeff-En:   0.000D+00 0.000D+00 0.105D+00 0.895D+00
 Coeff:     -0.760D-01 0.127D+00 0.323D+00 0.626D+00
 Gap=     0.071 Goal=   None    Shift=    0.000
 Gap=     0.128 Goal=   None    Shift=    0.000
 RMSDP=9.25D-05 MaxDP=1.64D-02 DE=-4.87D-02 OVMax= 4.24D-02

 Cycle   5  Pass 1  IDiag  1:
 RMSU=  6.89D-05    CP:  9.82D-01  2.21D+00  9.06D-01  8.16D-01
 E= -2426.16046517426     Delta-E=       -0.010977216612 Rises=F Damp=F
 DIIS: error= 4.88D-04 at cycle   5 NSaved=   5.
 NSaved= 5 IEnMin= 5 EnMin= -2426.16046517426     IErMin= 5 ErrMin= 4.88D-04
 ErrMax= 4.88D-04  0.00D+00 EMaxC= 1.00D-01 BMatC= 5.37D-03 BMatP= 5.11D-02
 IDIUse=3 WtCom= 9.95D-01 WtEn= 4.88D-03
 Coeff-Com: -0.159D-01 0.229D-01 0.126D+00 0.324D+00 0.543D+00
 Coeff-En:   0.000D+00 0.000D+00 0.000D+00 0.000D+00 0.100D+01
 Coeff:     -0.158D-01 0.228D-01 0.125D+00 0.322D+00 0.546D+00
 Gap=     0.073 Goal=   None    Shift=    0.000
 Gap=     0.128 Goal=   None    Shift=    0.000
 RMSDP=3.75D-05 MaxDP=9.82D-03 DE=-1.10D-02 OVMax= 3.73D-02

 Cycle   6  Pass 1  IDiag  1:
 RMSU=  3.47D-05    CP:  9.82D-01  2.23D+00  8.96D-01  8.43D-01  9.98D-01
 E= -2426.16209968132     Delta-E=       -0.001634507053 Rises=F Damp=F
 DIIS: error= 2.25D-04 at cycle   6 NSaved=   6.
 NSaved= 6 IEnMin= 6 EnMin= -2426.16209968132     IErMin= 6 ErrMin= 2.25D-04
 ErrMax= 2.25D-04  0.00D+00 EMaxC= 1.00D-01 BMatC= 6.26D-04 BMatP= 5.37D-03
 IDIUse=3 WtCom= 9.98D-01 WtEn= 2.25D-03
 Coeff-Com: -0.320D-03-0.466D-03 0.269D-01 0.736D-01 0.255D+00 0.646D+00
 Coeff-En:   0.000D+00 0.000D+00 0.000D+00 0.000D+00 0.000D+00 0.100D+01
 Coeff:     -0.319D-03-0.465D-03 0.268D-01 0.735D-01 0.254D+00 0.646D+00
 Gap=     0.076 Goal=   None    Shift=    0.000
 Gap=     0.130 Goal=   None    Shift=    0.000
 RMSDP=2.45D-05 MaxDP=4.56D-03 DE=-1.63D-03 OVMax= 2.83D-02

 Cycle   7  Pass 1  IDiag  1:
 RMSU=  1.65D-05    CP:  9.82D-01  2.24D+00  9.01D-01  8.42D-01  1.19D+00
                    CP:  1.33D+00
 E= -2426.16265845868     Delta-E=       -0.000558777368 Rises=F Damp=F
 DIIS: error= 1.48D-04 at cycle   7 NSaved=   7.
 NSaved= 7 IEnMin= 7 EnMin= -2426.16265845868     IErMin= 7 ErrMin= 1.48D-04
 ErrMax= 1.48D-04  0.00D+00 EMaxC= 1.00D-01 BMatC= 2.25D-04 BMatP= 6.26D-04
 IDIUse=3 WtCom= 9.99D-01 WtEn= 1.48D-03
 Coeff-Com:  0.445D-02-0.654D-02-0.172D-01-0.572D-01-0.121D-01 0.267D+00
 Coeff-Com:  0.822D+00
 Coeff-En:   0.000D+00 0.000D+00 0.000D+00 0.000D+00 0.000D+00 0.000D+00
 Coeff-En:   0.100D+01
 Coeff:      0.444D-02-0.653D-02-0.172D-01-0.571D-01-0.121D-01 0.266D+00
 Coeff:      0.822D+00
 Gap=     0.079 Goal=   None    Shift=    0.000
 Gap=     0.132 Goal=   None    Shift=    0.000
 RMSDP=2.98D-05 MaxDP=4.53D-03 DE=-5.59D-04 OVMax= 3.81D-02

 Cycle   8  Pass 1  IDiag  1:
 RMSU=  1.05D-05    CP:  9.83D-01  2.25D+00  9.03D-01  8.42D-01  1.37D+00
                    CP:  1.89D+00  1.88D+00
 E= -2426.16316743633     Delta-E=       -0.000508977648 Rises=F Damp=F
 DIIS: error= 1.37D-04 at cycle   8 NSaved=   8.
 NSaved= 8 IEnMin= 8 EnMin= -2426.16316743633     IErMin= 8 ErrMin= 1.37D-04
 ErrMax= 1.37D-04  0.00D+00 EMaxC= 1.00D-01 BMatC= 1.32D-04 BMatP= 2.25D-04
 IDIUse=3 WtCom= 9.99D-01 WtEn= 1.37D-03
 Coeff-Com:  0.190D-02-0.210D-02-0.767D-02-0.415D-01-0.638D-01-0.137D+00
 Coeff-Com:  0.327D+00 0.924D+00
 Coeff-En:   0.000D+00 0.000D+00 0.000D+00 0.000D+00 0.000D+00 0.000D+00
 Coeff-En:   0.000D+00 0.100D+01
 Coeff:      0.189D-02-0.210D-02-0.766D-02-0.415D-01-0.637D-01-0.137D+00
 Coeff:      0.326D+00 0.924D+00
 Gap=     0.081 Goal=   None    Shift=    0.000
 Gap=     0.134 Goal=   None    Shift=    0.000
 RMSDP=3.09D-05 MaxDP=4.46D-03 DE=-5.09D-04 OVMax= 4.23D-02

 Cycle   9  Pass 1  IDiag  1:
 RMSU=  7.47D-06    CP:  9.83D-01  2.26D+00  9.04D-01  8.36D-01  1.53D+00
                    CP:  2.41D+00  2.97D+00  1.95D+00
 E= -2426.16359489494     Delta-E=       -0.000427458610 Rises=F Damp=F
 DIIS: error= 1.17D-04 at cycle   9 NSaved=   9.
 NSaved= 9 IEnMin= 9 EnMin= -2426.16359489494     IErMin= 9 ErrMin= 1.17D-04
 ErrMax= 1.17D-04  0.00D+00 EMaxC= 1.00D-01 BMatC= 1.00D-04 BMatP= 1.32D-04
 IDIUse=3 WtCom= 9.99D-01 WtEn= 1.17D-03
 Coeff-Com: -0.926D-03 0.205D-02 0.125D-01 0.141D-01 0.445D-02-0.201D+00
 Coeff-Com: -0.253D+00 0.522D+00 0.899D+00
 Coeff-En:   0.000D+00 0.000D+00 0.000D+00 0.000D+00 0.000D+00 0.000D+00
 Coeff-En:   0.000D+00 0.000D+00 0.100D+01
 Coeff:     -0.925D-03 0.205D-02 0.124D-01 0.140D-01 0.445D-02-0.201D+00
 Coeff:     -0.253D+00 0.522D+00 0.900D+00
 Gap=     0.084 Goal=   None    Shift=    0.000
 Gap=     0.134 Goal=   None    Shift=    0.000
 RMSDP=3.14D-05 MaxDP=5.02D-03 DE=-4.27D-04 OVMax= 4.27D-02

 Cycle  10  Pass 1  IDiag  1:
 RMSU=  1.81D-05    CP:  9.83D-01  2.27D+00  9.04D-01  8.21D-01  1.63D+00
                    CP:  2.91D+00  3.00D+00  3.00D+00  2.12D+00
 E= -2426.16395132476     Delta-E=       -0.000356429813 Rises=F Damp=F
 DIIS: error= 1.09D-04 at cycle  10 NSaved=  10.
 NSaved=10 IEnMin=10 EnMin= -2426.16395132476     IErMin=10 ErrMin= 1.09D-04
 ErrMax= 1.09D-04  0.00D+00 EMaxC= 1.00D-01 BMatC= 6.58D-05 BMatP= 1.00D-04
 IDIUse=3 WtCom= 9.99D-01 WtEn= 1.09D-03
 Coeff-Com: -0.679D-03 0.120D-02 0.156D-01 0.322D-01 0.659D-01 0.408D-02
 Coeff-Com: -0.263D+00-0.274D+00 0.248D+00 0.117D+01
 Coeff-En:   0.000D+00 0.000D+00 0.000D+00 0.000D+00 0.000D+00 0.000D+00
 Coeff-En:   0.000D+00 0.000D+00 0.000D+00 0.100D+01
 Coeff:     -0.678D-03 0.120D-02 0.156D-01 0.322D-01 0.659D-01 0.408D-02
 Coeff:     -0.262D+00-0.274D+00 0.248D+00 0.117D+01
 Gap=     0.085 Goal=   None    Shift=    0.000
 Gap=     0.135 Goal=   None    Shift=    0.000
 RMSDP=3.38D-05 MaxDP=5.13D-03 DE=-3.56D-04 OVMax= 4.72D-02

 Cycle  11  Pass 1  IDiag  1:
 RMSU=  1.97D-05    CP:  9.84D-01  2.29D+00  9.03D-01  8.00D-01  1.70D+00
                    CP:  3.00D+00  3.00D+00  3.00D+00  3.00D+00  2.16D+00
 E= -2426.16427890522     Delta-E=       -0.000327580467 Rises=F Damp=F
 DIIS: error= 1.05D-04 at cycle  11 NSaved=  11.
 NSaved=11 IEnMin=11 EnMin= -2426.16427890522     IErMin=11 ErrMin= 1.05D-04
 ErrMax= 1.05D-04  0.00D+00 EMaxC= 1.00D-01 BMatC= 5.18D-05 BMatP= 6.58D-05
 IDIUse=3 WtCom= 9.99D-01 WtEn= 1.05D-03
 Coeff-Com:  0.131D-02-0.202D-02 0.161D-02-0.200D-03 0.405D-01 0.147D+00
 Coeff-Com:  0.174D+00-0.363D+00-0.770D+00 0.371D+00 0.140D+01
 Coeff-En:   0.000D+00 0.000D+00 0.000D+00 0.000D+00 0.000D+00 0.000D+00
 Coeff-En:   0.000D+00 0.000D+00 0.000D+00 0.000D+00 0.100D+01
 Coeff:      0.131D-02-0.202D-02 0.161D-02-0.200D-03 0.404D-01 0.146D+00
 Coeff:      0.174D+00-0.363D+00-0.769D+00 0.371D+00 0.140D+01
 Gap=     0.086 Goal=   None    Shift=    0.000
 Gap=     0.134 Goal=   None    Shift=    0.000
 RMSDP=3.90D-05 MaxDP=5.96D-03 DE=-3.28D-04 OVMax= 5.40D-02

 Cycle  12  Pass 1  IDiag  1:
 RMSU=  1.34D-05    CP:  9.84D-01  2.31D+00  9.00D-01  7.73D-01  1.73D+00
                    CP:  3.00D+00  3.00D+00  3.00D+00  3.00D+00  3.00D+00
                    CP:  2.38D+00
 E= -2426.16459098756     Delta-E=       -0.000312082335 Rises=F Damp=F
 DIIS: error= 7.80D-05 at cycle  12 NSaved=  12.
 NSaved=12 IEnMin=12 EnMin= -2426.16459098756     IErMin=12 ErrMin= 7.80D-05
 ErrMax= 7.80D-05  0.00D+00 EMaxC= 1.00D-01 BMatC= 3.51D-05 BMatP= 5.18D-05
 IDIUse=1 WtCom= 1.00D+00 WtEn= 0.00D+00
 Coeff-Com:  0.251D-02-0.367D-02-0.118D-01-0.382D-01-0.325D-01 0.841D-01
 Coeff-Com:  0.475D+00 0.165D+00-0.976D+00-0.111D+01 0.947D+00 0.150D+01
 Coeff:      0.251D-02-0.367D-02-0.118D-01-0.382D-01-0.325D-01 0.841D-01
 Coeff:      0.475D+00 0.165D+00-0.976D+00-0.111D+01 0.947D+00 0.150D+01
 Gap=     0.089 Goal=   None    Shift=    0.000
 Gap=     0.134 Goal=   None    Shift=    0.000
 RMSDP=5.98D-05 MaxDP=9.74D-03 DE=-3.12D-04 OVMax= 8.03D-02

 Cycle  13  Pass 1  IDiag  1:
 RMSU=  3.49D-05    CP:  9.85D-01  2.33D+00  8.96D-01  7.23D-01  1.76D+00
                    CP:  3.00D+00  3.00D+00  3.00D+00  3.00D+00  3.00D+00
                    CP:  3.00D+00  3.00D+00
 E= -2426.16489724486     Delta-E=       -0.000306257305 Rises=F Damp=F
 DIIS: error= 5.28D-05 at cycle  13 NSaved=  13.
 NSaved=13 IEnMin=13 EnMin= -2426.16489724486     IErMin=13 ErrMin= 5.28D-05
 ErrMax= 5.28D-05  0.00D+00 EMaxC= 1.00D-01 BMatC= 1.13D-05 BMatP= 3.51D-05
 IDIUse=1 WtCom= 1.00D+00 WtEn= 0.00D+00
 Coeff-Com:  0.848D-03-0.111D-02-0.322D-02-0.143D-01-0.244D-01-0.253D-01
 Coeff-Com:  0.138D+00 0.255D+00-0.638D-01-0.551D+00-0.326D+00 0.695D+00
 Coeff-Com:  0.921D+00
 Coeff:      0.848D-03-0.111D-02-0.322D-02-0.143D-01-0.244D-01-0.253D-01
 Coeff:      0.138D+00 0.255D+00-0.638D-01-0.551D+00-0.326D+00 0.695D+00
 Coeff:      0.921D+00
 Gap=     0.089 Goal=   None    Shift=    0.000
 Gap=     0.133 Goal=   None    Shift=    0.000
 RMSDP=1.81D-05 MaxDP=2.84D-03 DE=-3.06D-04 OVMax= 2.49D-02

 Cycle  14  Pass 1  IDiag  1:
 RMSU=  9.97D-06    CP:  9.85D-01  2.34D+00  8.93D-01  7.08D-01  1.75D+00
                    CP:  3.00D+00  3.00D+00  3.00D+00  3.00D+00  3.00D+00
                    CP:  3.00D+00  3.00D+00  1.40D+00
 E= -2426.16494806701     Delta-E=       -0.000050822146 Rises=F Damp=F
 DIIS: error= 3.35D-05 at cycle  14 NSaved=  14.
 NSaved=14 IEnMin=14 EnMin= -2426.16494806701     IErMin=14 ErrMin= 3.35D-05
 ErrMax= 3.35D-05  0.00D+00 EMaxC= 1.00D-01 BMatC= 6.15D-06 BMatP= 1.13D-05
 IDIUse=1 WtCom= 1.00D+00 WtEn= 0.00D+00
 Coeff-Com: -0.282D-03 0.528D-03 0.282D-02 0.491D-02-0.884D-03-0.432D-01
 Coeff-Com: -0.749D-01 0.855D-01 0.263D+00 0.817D-01-0.569D+00-0.967D-01
 Coeff-Com:  0.566D+00 0.780D+00
 Coeff:     -0.282D-03 0.528D-03 0.282D-02 0.491D-02-0.884D-03-0.432D-01
 Coeff:     -0.749D-01 0.855D-01 0.263D+00 0.817D-01-0.569D+00-0.967D-01
 Coeff:      0.566D+00 0.780D+00
 Gap=     0.090 Goal=   None    Shift=    0.000
 Gap=     0.133 Goal=   None    Shift=    0.000
 RMSDP=1.48D-05 MaxDP=2.66D-03 DE=-5.08D-05 OVMax= 1.94D-02

 Cycle  15  Pass 1  IDiag  1:
 RMSU=  1.93D-06    CP:  9.85D-01  2.35D+00  8.92D-01  6.93D-01  1.75D+00
                    CP:  3.00D+00  3.00D+00  3.00D+00  3.00D+00  3.00D+00
                    CP:  3.00D+00  3.00D+00  1.75D+00  1.66D+00
 E= -2426.16496963770     Delta-E=       -0.000021570697 Rises=F Damp=F
 DIIS: error= 2.14D-05 at cycle  15 NSaved=  15.
 NSaved=15 IEnMin=15 EnMin= -2426.16496963770     IErMin=15 ErrMin= 2.14D-05
 ErrMax= 2.14D-05  0.00D+00 EMaxC= 1.00D-01 BMatC= 1.32D-06 BMatP= 6.15D-06
 IDIUse=1 WtCom= 1.00D+00 WtEn= 0.00D+00
 Coeff-Com: -0.267D-03 0.401D-03 0.262D-02 0.704D-02 0.102D-01-0.820D-02
 Coeff-Com: -0.730D-01-0.448D-01 0.130D+00 0.252D+00-0.151D+00-0.270D+00
 Coeff-Com: -0.363D-01 0.229D+00 0.952D+00
 Coeff:     -0.267D-03 0.401D-03 0.262D-02 0.704D-02 0.102D-01-0.820D-02
 Coeff:     -0.730D-01-0.448D-01 0.130D+00 0.252D+00-0.151D+00-0.270D+00
 Coeff:     -0.363D-01 0.229D+00 0.952D+00
 Gap=     0.090 Goal=   None    Shift=    0.000
 Gap=     0.133 Goal=   None    Shift=    0.000
 RMSDP=2.91D-06 MaxDP=5.37D-04 DE=-2.16D-05 OVMax= 2.79D-03

 Cycle  16  Pass 1  IDiag  1:
 RMSU=  2.03D-06    CP:  9.85D-01  2.35D+00  8.92D-01  6.93D-01  1.74D+00
                    CP:  3.00D+00  3.00D+00  3.00D+00  3.00D+00  3.00D+00
                    CP:  3.00D+00  3.00D+00  1.77D+00  1.85D+00  1.16D+00
 E= -2426.16497364104     Delta-E=       -0.000004003334 Rises=F Damp=F
 DIIS: error= 1.82D-05 at cycle  16 NSaved=  16.
 NSaved=16 IEnMin=16 EnMin= -2426.16497364104     IErMin=16 ErrMin= 1.82D-05
 ErrMax= 1.82D-05  0.00D+00 EMaxC= 1.00D-01 BMatC= 1.10D-06 BMatP= 1.32D-06
 IDIUse=1 WtCom= 1.00D+00 WtEn= 0.00D+00
 Coeff-Com: -0.172D-04 0.181D-04 0.288D-03 0.926D-03 0.453D-02 0.766D-02
 Coeff-Com: -0.142D-02-0.347D-01-0.394D-01 0.559D-01 0.824D-01-0.636D-01
 Coeff-Com: -0.147D+00-0.229D+00 0.501D+00 0.863D+00
 Coeff:     -0.172D-04 0.181D-04 0.288D-03 0.926D-03 0.453D-02 0.766D-02
 Coeff:     -0.142D-02-0.347D-01-0.394D-01 0.559D-01 0.824D-01-0.636D-01
 Coeff:     -0.147D+00-0.229D+00 0.501D+00 0.863D+00
 Gap=     0.090 Goal=   None    Shift=    0.000
 Gap=     0.133 Goal=   None    Shift=    0.000
 RMSDP=6.52D-06 MaxDP=1.12D-03 DE=-4.00D-06 OVMax= 8.31D-03

 Cycle  17  Pass 1  IDiag  1:
 RMSU=  7.75D-07    CP:  9.85D-01  2.35D+00  8.91D-01  6.86D-01  1.75D+00
                    CP:  3.00D+00  3.00D+00  3.00D+00  3.00D+00  3.00D+00
                    CP:  3.00D+00  3.00D+00  1.92D+00  2.15D+00  1.75D+00
                    CP:  1.29D+00
 E= -2426.16497777946     Delta-E=       -0.000004138421 Rises=F Damp=F
 DIIS: error= 1.19D-05 at cycle  17 NSaved=  17.
 NSaved=17 IEnMin=17 EnMin= -2426.16497777946     IErMin=17 ErrMin= 1.19D-05
 ErrMax= 1.19D-05  0.00D+00 EMaxC= 1.00D-01 BMatC= 3.98D-07 BMatP= 1.10D-06
 IDIUse=1 WtCom= 1.00D+00 WtEn= 0.00D+00
 Coeff-Com:  0.149D-03-0.237D-03-0.745D-03-0.189D-02-0.118D-03 0.105D-01
 Coeff-Com:  0.313D-01-0.343D-02-0.665D-01-0.541D-01 0.106D+00 0.684D-01
 Coeff-Com: -0.454D-01-0.260D+00-0.127D+00 0.420D+00 0.924D+00
 Coeff:      0.149D-03-0.237D-03-0.745D-03-0.189D-02-0.118D-03 0.105D-01
 Coeff:      0.313D-01-0.343D-02-0.665D-01-0.541D-01 0.106D+00 0.684D-01
 Coeff:     -0.454D-01-0.260D+00-0.127D+00 0.420D+00 0.924D+00
 Gap=     0.090 Goal=   None    Shift=    0.000
 Gap=     0.133 Goal=   None    Shift=    0.000
 RMSDP=2.40D-06 MaxDP=3.85D-04 DE=-4.14D-06 OVMax= 2.06D-03

 Cycle  18  Pass 1  IDiag  1:
 RMSU=  5.57D-07    CP:  9.85D-01  2.35D+00  8.91D-01  6.89D-01  1.74D+00
                    CP:  3.00D+00  3.00D+00  3.00D+00  3.00D+00  3.00D+00
                    CP:  3.00D+00  3.00D+00  1.88D+00  2.18D+00  1.77D+00
                    CP:  2.10D+00  1.37D+00
 E= -2426.16497889538     Delta-E=       -0.000001115919 Rises=F Damp=F
 DIIS: error= 8.88D-06 at cycle  18 NSaved=  18.
 NSaved=18 IEnMin=18 EnMin= -2426.16497889538     IErMin=18 ErrMin= 8.88D-06
 ErrMax= 8.88D-06  0.00D+00 EMaxC= 1.00D-01 BMatC= 3.96D-07 BMatP= 3.98D-07
 IDIUse=1 WtCom= 1.00D+00 WtEn= 0.00D+00
 Coeff-Com:  0.119D-03-0.169D-03-0.862D-03-0.276D-02-0.450D-02-0.691D-03
 Coeff-Com:  0.294D-01 0.318D-01-0.317D-01-0.115D+00 0.276D-02 0.121D+00
 Coeff-Com:  0.104D+00-0.535D-01-0.460D+00-0.367D+00 0.724D+00 0.102D+01
 Coeff:      0.119D-03-0.169D-03-0.862D-03-0.276D-02-0.450D-02-0.691D-03
 Coeff:      0.294D-01 0.318D-01-0.317D-01-0.115D+00 0.276D-02 0.121D+00
 Coeff:      0.104D+00-0.535D-01-0.460D+00-0.367D+00 0.724D+00 0.102D+01
 Gap=     0.090 Goal=   None    Shift=    0.000
 Gap=     0.133 Goal=   None    Shift=    0.000
 RMSDP=4.83D-06 MaxDP=7.83D-04 DE=-1.12D-06 OVMax= 6.07D-03

 Cycle  19  Pass 1  IDiag  1:
 RMSU=  3.54D-07    CP:  9.85D-01  2.35D+00  8.91D-01  6.84D-01  1.74D+00
                    CP:  3.00D+00  3.00D+00  3.00D+00  3.00D+00  3.00D+00
                    CP:  3.00D+00  3.00D+00  1.98D+00  2.41D+00  2.27D+00
                    CP:  2.55D+00  2.60D+00  1.50D+00
 E= -2426.16498048756     Delta-E=       -0.000001592178 Rises=F Damp=F
 DIIS: error= 5.55D-06 at cycle  19 NSaved=  19.
 NSaved=19 IEnMin=19 EnMin= -2426.16498048756     IErMin=19 ErrMin= 5.55D-06
 ErrMax= 5.55D-06  0.00D+00 EMaxC= 1.00D-01 BMatC= 9.67D-08 BMatP= 3.96D-07
 IDIUse=1 WtCom= 1.00D+00 WtEn= 0.00D+00
 Coeff-Com: -0.754D-05 0.157D-04 0.164D-03 0.229D-03-0.706D-03-0.399D-02
 Coeff-Com: -0.375D-02 0.112D-01 0.287D-01 0.676D-03-0.461D-01-0.348D-02
 Coeff-Com:  0.617D-01 0.104D+00-0.121D+00-0.370D+00-0.420D-01 0.452D+00
 Coeff-Com:  0.932D+00
 Coeff:     -0.754D-05 0.157D-04 0.164D-03 0.229D-03-0.706D-03-0.399D-02
 Coeff:     -0.375D-02 0.112D-01 0.287D-01 0.676D-03-0.461D-01-0.348D-02
 Coeff:      0.617D-01 0.104D+00-0.121D+00-0.370D+00-0.420D-01 0.452D+00
 Coeff:      0.932D+00
 Gap=     0.090 Goal=   None    Shift=    0.000
 Gap=     0.133 Goal=   None    Shift=    0.000
 RMSDP=2.13D-06 MaxDP=3.98D-04 DE=-1.59D-06 OVMax= 1.83D-03

 Cycle  20  Pass 1  IDiag  1:
 RMSU=  2.44D-07    CP:  9.85D-01  2.35D+00  8.91D-01  6.86D-01  1.74D+00
                    CP:  3.00D+00  3.00D+00  3.00D+00  3.00D+00  3.00D+00
                    CP:  3.00D+00  3.00D+00  1.93D+00  2.40D+00  2.22D+00
                    CP:  3.00D+00  2.88D+00  2.18D+00  1.32D+00
 E= -2426.16498068954     Delta-E=       -0.000000201984 Rises=F Damp=F
 DIIS: error= 3.13D-06 at cycle  20 NSaved=  20.
 NSaved=20 IEnMin=20 EnMin= -2426.16498068954     IErMin=20 ErrMin= 3.13D-06
 ErrMax= 3.13D-06  0.00D+00 EMaxC= 1.00D-01 BMatC= 1.06D-07 BMatP= 9.67D-08
 IDIUse=1 WtCom= 1.00D+00 WtEn= 0.00D+00
 Coeff-Com: -0.343D-04 0.558D-04 0.289D-03 0.653D-03 0.524D-03-0.297D-02
 Coeff-Com: -0.856D-02 0.101D-02 0.201D-01 0.220D-01-0.294D-01-0.310D-01
 Coeff-Com:  0.151D-01 0.768D-01 0.696D-01-0.132D+00-0.235D+00-0.175D+00
 Coeff-Com:  0.676D+00 0.732D+00
 Coeff:     -0.343D-04 0.558D-04 0.289D-03 0.653D-03 0.524D-03-0.297D-02
 Coeff:     -0.856D-02 0.101D-02 0.201D-01 0.220D-01-0.294D-01-0.310D-01
 Coeff:      0.151D-01 0.768D-01 0.696D-01-0.132D+00-0.235D+00-0.175D+00
 Coeff:      0.676D+00 0.732D+00
 Gap=     0.090 Goal=   None    Shift=    0.000
 Gap=     0.133 Goal=   None    Shift=    0.000
 RMSDP=1.75D-06 MaxDP=3.07D-04 DE=-2.02D-07 OVMax= 2.18D-03

 Cycle  21  Pass 1  IDiag  1:
 Restarting incremental Fock formation.
 E= -2426.16498091845     Delta-E=       -0.000000228911 Rises=F Damp=F
 DIIS: error= 1.51D-06 at cycle  21 NSaved=  20.
 NSaved=20 IEnMin=20 EnMin= -2426.16498091845     IErMin=20 ErrMin= 1.51D-06
 ErrMax= 1.51D-06  0.00D+00 EMaxC= 1.00D-01 BMatC= 1.14D-08 BMatP= 9.67D-08
 IDIUse=1 WtCom= 1.00D+00 WtEn= 0.00D+00
 Coeff-Com: -0.260D-05 0.114D-03 0.366D-03 0.925D-03 0.286D-03-0.369D-02
 Coeff-Com: -0.530D-02 0.764D-03 0.189D-01 0.446D-02-0.222D-01-0.175D-01
 Coeff-Com:  0.976D-03 0.976D-01 0.655D-01-0.835D-01-0.325D+00 0.388D-01
 Coeff-Com:  0.324D+00 0.905D+00
 Coeff:     -0.260D-05 0.114D-03 0.366D-03 0.925D-03 0.286D-03-0.369D-02
 Coeff:     -0.530D-02 0.764D-03 0.189D-01 0.446D-02-0.222D-01-0.175D-01
 Coeff:      0.976D-03 0.976D-01 0.655D-01-0.835D-01-0.325D+00 0.388D-01
 Coeff:      0.324D+00 0.905D+00
 Gap=     0.090 Goal=   None    Shift=    0.000
 Gap=     0.133 Goal=   None    Shift=    0.000
 RMSDP=3.41D-07 MaxDP=6.90D-05 DE=-2.29D-07 OVMax= 4.26D-04

 Cycle  22  Pass 1  IDiag  1:
 RMSU=  3.41D-07    CP:  1.00D+00
 E= -2426.16498094260     Delta-E=       -0.000000024154 Rises=F Damp=F
 DIIS: error= 5.61D-07 at cycle  22 NSaved=  20.
 NSaved=20 IEnMin=20 EnMin= -2426.16498094260     IErMin=20 ErrMin= 5.61D-07
 ErrMax= 5.61D-07  0.00D+00 EMaxC= 1.00D-01 BMatC= 2.47D-09 BMatP= 1.14D-08
 IDIUse=1 WtCom= 1.00D+00 WtEn= 0.00D+00
 Coeff-Com: -0.118D-04 0.811D-05 0.211D-03 0.632D-03 0.579D-03-0.177D-02
 Coeff-Com: -0.425D-02 0.909D-03 0.679D-02-0.139D-03-0.859D-02-0.175D-01
 Coeff-Com:  0.159D-01 0.516D-01 0.377D-01-0.739D-01-0.155D+00-0.723D-01
 Coeff-Com:  0.271D+00 0.948D+00
 Coeff:     -0.118D-04 0.811D-05 0.211D-03 0.632D-03 0.579D-03-0.177D-02
 Coeff:     -0.425D-02 0.909D-03 0.679D-02-0.139D-03-0.859D-02-0.175D-01
 Coeff:      0.159D-01 0.516D-01 0.377D-01-0.739D-01-0.155D+00-0.723D-01
 Coeff:      0.271D+00 0.948D+00
 Gap=     0.090 Goal=   None    Shift=    0.000
 Gap=     0.133 Goal=   None    Shift=    0.000
 RMSDP=2.67D-07 MaxDP=4.61D-05 DE=-2.42D-08 OVMax= 3.22D-04

 Cycle  23  Pass 1  IDiag  1:
 RMSU=  1.96D-07    CP:  1.00D+00  1.52D+00
 E= -2426.16498094687     Delta-E=       -0.000000004266 Rises=F Damp=F
 DIIS: error= 3.81D-07 at cycle  23 NSaved=  20.
 NSaved=20 IEnMin=20 EnMin= -2426.16498094687     IErMin=20 ErrMin= 3.81D-07
 ErrMax= 3.81D-07  0.00D+00 EMaxC= 1.00D-01 BMatC= 1.19D-09 BMatP= 2.47D-09
 IDIUse=1 WtCom= 1.00D+00 WtEn= 0.00D+00
 Coeff-Com:  0.290D-04 0.289D-04 0.186D-03 0.217D-03-0.161D-03-0.325D-03
 Coeff-Com: -0.121D-02-0.577D-04 0.299D-02 0.324D-03-0.425D-02-0.126D-01
 Coeff-Com:  0.529D-02 0.262D-01 0.469D-01-0.712D-01-0.834D-01-0.135D+00
 Coeff-Com:  0.435D+00 0.791D+00
 Coeff:      0.290D-04 0.289D-04 0.186D-03 0.217D-03-0.161D-03-0.325D-03
 Coeff:     -0.121D-02-0.577D-04 0.299D-02 0.324D-03-0.425D-02-0.126D-01
 Coeff:      0.529D-02 0.262D-01 0.469D-01-0.712D-01-0.834D-01-0.135D+00
 Coeff:      0.435D+00 0.791D+00
 Gap=     0.090 Goal=   None    Shift=    0.000
 Gap=     0.133 Goal=   None    Shift=    0.000
 RMSDP=1.18D-07 MaxDP=2.35D-05 DE=-4.27D-09 OVMax= 1.39D-04

 Cycle  24  Pass 1  IDiag  1:
 RMSU=  4.97D-08    CP:  1.00D+00  1.48D+00  4.62D-01
 E= -2426.16498094845     Delta-E=       -0.000000001579 Rises=F Damp=F
 DIIS: error= 2.81D-07 at cycle  24 NSaved=  20.
 NSaved=20 IEnMin=20 EnMin= -2426.16498094845     IErMin=20 ErrMin= 2.81D-07
 ErrMax= 2.81D-07  0.00D+00 EMaxC= 1.00D-01 BMatC= 2.58D-10 BMatP= 1.19D-09
 IDIUse=1 WtCom= 1.00D+00 WtEn= 0.00D+00
 Coeff-Com: -0.810D-04-0.126D-03-0.579D-04 0.498D-03 0.113D-02-0.106D-02
 Coeff-Com: -0.213D-02 0.162D-02 0.248D-02 0.244D-02-0.111D-01-0.132D-01
 Coeff-Com:  0.169D-02 0.459D-01 0.155D-01-0.164D-01-0.168D+00-0.951D-01
 Coeff-Com:  0.321D+00 0.916D+00
 Coeff:     -0.810D-04-0.126D-03-0.579D-04 0.498D-03 0.113D-02-0.106D-02
 Coeff:     -0.213D-02 0.162D-02 0.248D-02 0.244D-02-0.111D-01-0.132D-01
 Coeff:      0.169D-02 0.459D-01 0.155D-01-0.164D-01-0.168D+00-0.951D-01
 Coeff:      0.321D+00 0.916D+00
 Gap=     0.090 Goal=   None    Shift=    0.000
 Gap=     0.133 Goal=   None    Shift=    0.000
 RMSDP=3.59D-08 MaxDP=1.14D-05 DE=-1.58D-09 OVMax= 2.92D-05

 Cycle  25  Pass 1  IDiag  1:
 RMSU=  1.22D-08    CP:  1.00D+00  1.55D+00  5.41D-01  1.37D+00
 E= -2426.16498094877     Delta-E=       -0.000000000320 Rises=F Damp=F
 DIIS: error= 1.29D-07 at cycle  25 NSaved=  20.
 NSaved=20 IEnMin=20 EnMin= -2426.16498094877     IErMin=20 ErrMin= 1.29D-07
 ErrMax= 1.29D-07  0.00D+00 EMaxC= 1.00D-01 BMatC= 7.89D-11 BMatP= 2.58D-10
 IDIUse=1 WtCom= 1.00D+00 WtEn= 0.00D+00
 Coeff-Com: -0.156D-04-0.141D-03-0.424D-04 0.385D-03 0.346D-03-0.364D-03
 Coeff-Com: -0.643D-03 0.387D-03 0.149D-02 0.209D-02-0.369D-02-0.825D-02
 Coeff-Com: -0.328D-02 0.253D-01 0.195D-01-0.148D-01-0.145D+00-0.138D+00
 Coeff-Com:  0.312D+00 0.953D+00
 Coeff:     -0.156D-04-0.141D-03-0.424D-04 0.385D-03 0.346D-03-0.364D-03
 Coeff:     -0.643D-03 0.387D-03 0.149D-02 0.209D-02-0.369D-02-0.825D-02
 Coeff:     -0.328D-02 0.253D-01 0.195D-01-0.148D-01-0.145D+00-0.138D+00
 Coeff:      0.312D+00 0.953D+00
 Gap=     0.090 Goal=   None    Shift=    0.000
 Gap=     0.133 Goal=   None    Shift=    0.000
 RMSDP=1.83D-08 MaxDP=5.64D-06 DE=-3.20D-10 OVMax= 1.41D-05

 Cycle  26  Pass 1  IDiag  1:
 RMSU=  7.18D-09    CP:  1.00D+00  1.56D+00  5.14D-01  1.66D+00  1.52D+00
 E= -2426.16498094886     Delta-E=       -0.000000000095 Rises=F Damp=F
 DIIS: error= 9.79D-08 at cycle  26 NSaved=  20.
 NSaved=20 IEnMin=20 EnMin= -2426.16498094886     IErMin=20 ErrMin= 9.79D-08
 ErrMax= 9.79D-08  0.00D+00 EMaxC= 1.00D-01 BMatC= 3.04D-11 BMatP= 7.89D-11
 IDIUse=1 WtCom= 1.00D+00 WtEn= 0.00D+00
 Coeff-Com: -0.576D-04-0.384D-04 0.193D-04 0.101D-03 0.127D-03-0.469D-03
 Coeff-Com:  0.759D-04 0.149D-03 0.253D-02 0.685D-03-0.321D-02-0.902D-02
 Coeff-Com:  0.570D-02 0.947D-02 0.301D-01-0.203D-01-0.144D+00-0.148D+00
 Coeff-Com:  0.368D+00 0.909D+00
 Coeff:     -0.576D-04-0.384D-04 0.193D-04 0.101D-03 0.127D-03-0.469D-03
 Coeff:      0.759D-04 0.149D-03 0.253D-02 0.685D-03-0.321D-02-0.902D-02
 Coeff:      0.570D-02 0.947D-02 0.301D-01-0.203D-01-0.144D+00-0.148D+00
 Coeff:      0.368D+00 0.909D+00
 Gap=     0.090 Goal=   None    Shift=    0.000
 Gap=     0.133 Goal=   None    Shift=    0.000
 RMSDP=1.32D-08 MaxDP=3.90D-06 DE=-9.46D-11 OVMax= 8.57D-06

 Cycle  27  Pass 1  IDiag  1:
 RMSU=  3.54D-09    CP:  1.00D+00  1.56D+00  5.59D-01  1.78D+00  1.90D+00
                    CP:  1.64D+00
 E= -2426.16498094877     Delta-E=        0.000000000089 Rises=F Damp=F
 DIIS: error= 6.96D-08 at cycle  27 NSaved=  20.
 NSaved=20 IEnMin=19 EnMin= -2426.16498094886     IErMin=20 ErrMin= 6.96D-08
 ErrMax= 6.96D-08  0.00D+00 EMaxC= 1.00D-01 BMatC= 2.10D-11 BMatP= 3.04D-11
 IDIUse=1 WtCom= 1.00D+00 WtEn= 0.00D+00
 Coeff-Com: -0.238D-04-0.131D-03 0.812D-05 0.430D-03-0.275D-03-0.403D-03
 Coeff-Com: -0.670D-03 0.201D-02 0.312D-02-0.673D-03-0.692D-02-0.590D-02
 Coeff-Com:  0.381D-02 0.296D-01 0.373D-01-0.631D-01-0.202D+00-0.635D-01
 Coeff-Com:  0.479D+00 0.789D+00
 Coeff:     -0.238D-04-0.131D-03 0.812D-05 0.430D-03-0.275D-03-0.403D-03
 Coeff:     -0.670D-03 0.201D-02 0.312D-02-0.673D-03-0.692D-02-0.590D-02
 Coeff:      0.381D-02 0.296D-01 0.373D-01-0.631D-01-0.202D+00-0.635D-01
 Coeff:      0.479D+00 0.789D+00
 Gap=     0.090 Goal=   None    Shift=    0.000
 Gap=     0.133 Goal=   None    Shift=    0.000
 RMSDP=1.25D-08 MaxDP=2.07D-06 DE= 8.91D-11 OVMax= 1.50D-05

 Cycle  28  Pass 1  IDiag  1:
 RMSU=  2.31D-09    CP:  1.00D+00  1.54D+00  5.16D-01  1.89D+00  2.07D+00
                    CP:  2.08D+00  1.55D+00
 E= -2426.16498094888     Delta-E=       -0.000000000106 Rises=F Damp=F
 DIIS: error= 6.27D-08 at cycle  28 NSaved=  20.
 NSaved=20 IEnMin=20 EnMin= -2426.16498094888     IErMin=20 ErrMin= 6.27D-08
 ErrMax= 6.27D-08  0.00D+00 EMaxC= 1.00D-01 BMatC= 7.03D-12 BMatP= 2.10D-11
 IDIUse=1 WtCom= 1.00D+00 WtEn= 0.00D+00
 Coeff-Com:  0.343D-04-0.436D-04 0.962D-05 0.552D-04-0.473D-04-0.897D-04
 Coeff-Com: -0.739D-03 0.211D-03 0.673D-03 0.414D-02-0.548D-02-0.196D-02
 Coeff-Com: -0.966D-02 0.225D-01 0.538D-01 0.969D-02-0.216D+00-0.256D+00
 Coeff-Com:  0.305D+00 0.109D+01
 Coeff:      0.343D-04-0.436D-04 0.962D-05 0.552D-04-0.473D-04-0.897D-04
 Coeff:     -0.739D-03 0.211D-03 0.673D-03 0.414D-02-0.548D-02-0.196D-02
 Coeff:     -0.966D-02 0.225D-01 0.538D-01 0.969D-02-0.216D+00-0.256D+00
 Coeff:      0.305D+00 0.109D+01
 Gap=     0.090 Goal=   None    Shift=    0.000
 Gap=     0.133 Goal=   None    Shift=    0.000
 RMSDP=9.82D-09 MaxDP=1.75D-06 DE=-1.06D-10 OVMax= 1.12D-05

 Cycle  29  Pass 1  IDiag  1:
 RMSU=  1.86D-09    CP:  1.00D+00  1.53D+00  4.81D-01  1.96D+00  2.17D+00
                    CP:  2.39D+00  2.24D+00  1.91D+00
 E= -2426.16498094921     Delta-E=       -0.000000000331 Rises=F Damp=F
 DIIS: error= 4.06D-08 at cycle  29 NSaved=  20.
 NSaved=20 IEnMin=20 EnMin= -2426.16498094921     IErMin=20 ErrMin= 4.06D-08
 ErrMax= 4.06D-08  0.00D+00 EMaxC= 1.00D-01 BMatC= 3.39D-12 BMatP= 7.03D-12
 IDIUse=1 WtCom= 1.00D+00 WtEn= 0.00D+00
 Coeff-Com: -0.533D-04-0.423D-04 0.149D-03 0.637D-04 0.946D-05-0.114D-02
 Coeff-Com: -0.946D-03 0.114D-02 0.501D-02-0.216D-02-0.316D-02-0.157D-01
 Coeff-Com:  0.195D-02 0.582D-01 0.786D-01-0.114D+00-0.320D+00-0.118D+00
 Coeff-Com:  0.583D+00 0.847D+00
 Coeff:     -0.533D-04-0.423D-04 0.149D-03 0.637D-04 0.946D-05-0.114D-02
 Coeff:     -0.946D-03 0.114D-02 0.501D-02-0.216D-02-0.316D-02-0.157D-01
 Coeff:      0.195D-02 0.582D-01 0.786D-01-0.114D+00-0.320D+00-0.118D+00
 Coeff:      0.583D+00 0.847D+00
 Gap=     0.090 Goal=   None    Shift=    0.000
 Gap=     0.133 Goal=   None    Shift=    0.000
 RMSDP=5.06D-09 MaxDP=9.91D-07 DE=-3.31D-10 OVMax= 4.08D-06

 Error on total polarization charges =  0.02253
 SCF Done:  E(UM062X) =  -2426.16498095     A.U. after   29 cycles
            NFock= 29  Conv=0.51D-08     -V/T= 2.0052
 <Sx>= 0.0000 <Sy>= 0.0000 <Sz>= 0.5000 <S**2>= 0.8223 S= 0.5355
 <L.S>= 0.000000000000E+00
 KE= 2.413674379491D+03 PE=-1.740292990319D+04 EE= 6.709163570958D+03
 Annihilation of the first spin contaminant:
 S**2 before annihilation     0.8223,   after     0.7527
 Leave Link  502 at Sat Oct 25 00:45:07 2025, MaxMem= 30870077440 cpu:          176746.3 elap:            2792.1
 (Enter /public/software/gauss/g16/l601.exe)
 Copying SCF densities to generalized density rwf, IOpCl= 1 IROHF=0.

 **********************************************************************

            Population analysis using the SCF density.

 **********************************************************************

 Orbital symmetries:
 Alpha Orbitals:
       Occupied  (A) (A) (A) (A) (A) (A) (A) (A) (A) (A) (A) (A)
                 (A) (A) (A) (A) (A) (A) (A) (A) (A) (A) (A) (A)
                 (A) (A) (A) (A) (A) (A) (A) (A) (A) (A) (A) (A)
                 (A) (A) (A) (A) (A) (A) (A) (A) (A) (A) (A) (A)
                 (A) (A) (A) (A) (A) (A) (A) (A) (A) (A) (A) (A)
                 (A) (A) (A) (A) (A) (A) (A) (A) (A) (A) (A) (A)
                 (A) (A) (A) (A) (A) (A) (A) (A) (A) (A) (A) (A)
                 (A) (A) (A) (A) (A) (A) (A) (A) (A) (A) (A) (A)
                 (A) (A) (A) (A) (A) (A) (A) (A) (A) (A) (A) (A)
                 (A) (A) (A) (A) (A) (A) (A) (A) (A) (A) (A) (A)
                 (A) (A) (A) (A) (A) (A) (A) (A) (A) (A) (A) (A)
                 (A) (A) (A) (A) (A) (A) (A) (A) (A) (A) (A) (A)
                 (A) (A) (A) (A) (A) (A) (A) (A) (A) (A) (A) (A)
                 (A) (A) (A) (A) (A) (A) (A) (A) (A) (A) (A) (A)
                 (A) (A) (A) (A) (A) (A) (A) (A)
       Virtual   (A) (A) (A) (A) (A) (A) (A) (A) (A) (A) (A) (A)
                 (A) (A) (A) (A) (A) (A) (A) (A) (A) (A) (A) (A)
                 (A) (A) (A) (A) (A) (A) (A) (A) (A) (A) (A) (A)
                 (A) (A) (A) (A) (A) (A) (A) (A) (A) (A) (A) (A)
                 (A) (A) (A) (A) (A) (A) (A) (A) (A) (A) (A) (A)
                 (A) (A) (A) (A) (A) (A) (A) (A) (A) (A) (A) (A)
                 (A) (A) (A) (A) (A) (A) (A) (A) (A) (A) (A) (A)
                 (A) (A) (A) (A) (A) (A) (A) (A) (A) (A) (A) (A)
                 (A) (A) (A) (A) (A) (A) (A) (A) (A) (A) (A) (A)
                 (A) (A) (A) (A) (A) (A) (A) (A) (A) (A) (A) (A)
                 (A) (A) (A) (A) (A) (A) (A) (A) (A) (A) (A) (A)
                 (A) (A) (A) (A) (A) (A) (A) (A) (A) (A) (A) (A)
                 (A) (A) (A) (A) (A) (A) (A) (A) (A) (A) (A) (A)
                 (A) (A) (A) (A) (A) (A) (A) (A) (A) (A) (A) (A)
                 (A) (A) (A) (A) (A) (A) (A) (A) (A) (A) (A) (A)
                 (A) (A) (A) (A) (A) (A) (A) (A) (A) (A) (A) (A)
                 (A) (A) (A) (A) (A) (A) (A) (A) (A) (A) (A) (A)
                 (A) (A) (A) (A) (A) (A) (A) (A) (A) (A) (A) (A)
                 (A) (A) (A) (A) (A) (A) (A) (A) (A) (A) (A) (A)
                 (A) (A) (A) (A) (A) (A) (A) (A) (A) (A) (A) (A)
                 (A) (A) (A) (A) (A) (A) (A) (A) (A) (A) (A) (A)
                 (A) (A) (A) (A) (A) (A) (A) (A) (A) (A) (A) (A)
                 (A) (A) (A) (A) (A) (A) (A) (A) (A) (A) (A) (A)
                 (A) (A) (A) (A) (A) (A) (A) (A) (A) (A) (A) (A)
                 (A) (A) (A) (A) (A) (A) (A) (A) (A) (A) (A) (A)
                 (A) (A) (A) (A) (A) (A) (A) (A) (A) (A) (A) (A)
                 (A) (A) (A) (A) (A) (A) (A) (A) (A) (A) (A) (A)
                 (A) (A) (A) (A) (A) (A) (A) (A) (A) (A) (A) (A)
                 (A) (A) (A) (A) (A) (A) (A) (A) (A) (A) (A) (A)
                 (A) (A) (A) (A) (A) (A) (A) (A) (A) (A) (A) (A)
                 (A) (A) (A) (A) (A) (A) (A) (A) (A) (A) (A) (A)
                 (A) (A) (A) (A) (A) (A) (A) (A) (A) (A) (A) (A)
                 (A) (A) (A) (A) (A) (A) (A) (A) (A) (A) (A) (A)
                 (A) (A) (A) (A) (A) (A) (A) (A) (A) (A) (A) (A)
                 (A) (A) (A) (A) (A) (A) (A) (A) (A) (A) (A) (A)
                 (A) (A) (A) (A) (A) (A) (A) (A) (A) (A) (A) (A)
                 (A) (A) (A) (A) (A) (A) (A) (A) (A) (A) (A) (A)
                 (A) (A) (A) (A) (A) (A) (A) (A) (A) (A) (A) (A)
                 (A) (A) (A) (A) (A) (A) (A) (A) (A) (A) (A) (A)
                 (A) (A) (A) (A) (A) (A) (A) (A) (A) (A) (A) (A)
                 (A) (A) (A) (A) (A) (A) (A) (A) (A) (A) (A) (A)
                 (A) (A) (A) (A) (A) (A) (A) (A) (A) (A) (A) (A)
                 (A) (A) (A) (A) (A) (A) (A) (A) (A) (A) (A) (A)
                 (A) (A) (A) (A) (A) (A) (A) (A) (A) (A) (A) (A)
                 (A) (A) (A) (A) (A) (A) (A) (A) (A) (A) (A) (A)
                 (A) (A) (A) (A) (A) (A) (A) (A) (A) (A) (A) (A)
                 (A) (A) (A) (A) (A) (A) (A) (A) (A) (A) (A) (A)
                 (A) (A) (A) (A) (A) (A) (A) (A) (A) (A) (A) (A)
                 (A) (A) (A) (A) (A) (A) (A) (A) (A) (A) (A) (A)
                 (A) (A) (A) (A) (A) (A) (A) (A) (A) (A) (A) (A)
                 (A) (A) (A) (A) (A) (A) (A) (A) (A) (A) (A) (A)
                 (A) (A) (A) (A) (A) (A) (A) (A) (A) (A) (A) (A)
                 (A) (A) (A) (A) (A) (A) (A) (A) (A) (A) (A) (A)
                 (A) (A) (A) (A) (A) (A) (A) (A) (A) (A) (A) (A)
                 (A) (A) (A) (A) (A) (A) (A) (A) (A) (A) (A) (A)
                 (A) (A) (A) (A) (A) (A) (A) (A) (A) (A) (A) (A)
                 (A) (A) (A) (A) (A) (A) (A) (A) (A) (A) (A) (A)
                 (A) (A) (A) (A) (A) (A) (A) (A) (A) (A) (A) (A)
                 (A) (A) (A) (A) (A) (A) (A) (A) (A) (A) (A) (A)
                 (A) (A) (A) (A) (A) (A) (A) (A) (A) (A) (A) (A)
                 (A) (A) (A) (A) (A) (A) (A) (A) (A) (A) (A) (A)
                 (A) (A) (A) (A) (A) (A) (A) (A) (A) (A) (A) (A)
                 (A) (A) (A) (A) (A) (A) (A) (A) (A) (A) (A) (A)
                 (A) (A) (A) (A) (A) (A) (A) (A) (A) (A) (A) (A)
                 (A) (A) (A) (A) (A) (A) (A) (A) (A) (A) (A) (A)
                 (A) (A) (A) (A) (A) (A) (A) (A) (A) (A) (A) (A)
                 (A) (A) (A) (A) (A) (A) (A) (A) (A) (A) (A) (A)
                 (A) (A) (A) (A) (A) (A) (A) (A) (A) (A) (A) (A)
                 (A) (A) (A) (A) (A) (A) (A) (A) (A) (A) (A) (A)
                 (A) (A) (A) (A) (A) (A) (A) (A) (A) (A) (A) (A)
                 (A) (A) (A) (A) (A) (A) (A) (A) (A) (A) (A) (A)
                 (A) (A) (A) (A) (A) (A) (A) (A) (A) (A) (A) (A)
                 (A) (A) (A) (A) (A) (A) (A) (A) (A) (A) (A) (A)
                 (A) (A) (A) (A) (A) (A) (A) (A) (A) (A) (A) (A)
                 (A) (A) (A) (A) (A) (A) (A) (A) (A) (A) (A) (A)
                 (A) (A) (A) (A) (A) (A) (A) (A) (A) (A) (A) (A)
                 (A) (A) (A) (A) (A) (A) (A) (A) (A) (A) (A) (A)
                 (A) (A) (A) (A) (A) (A) (A) (A) (A) (A) (A) (A)
                 (A) (A) (A) (A) (A) (A) (A) (A) (A) (A) (A) (A)
                 (A) (A) (A) (A) (A) (A) (A) (A) (A) (A) (A) (A)
                 (A) (A) (A) (A) (A) (A) (A) (A) (A) (A) (A) (A)
                 (A) (A) (A) (A) (A) (A) (A) (A) (A) (A) (A) (A)
                 (A) (A) (A) (A) (A) (A) (A) (A) (A) (A) (A) (A)
                 (A) (A) (A) (A) (A) (A) (A) (A) (A) (A) (A) (A)
                 (A) (A) (A) (A) (A) (A) (A) (A) (A) (A) (A) (A)
                 (A) (A) (A) (A) (A) (A) (A) (A) (A) (A) (A) (A)
                 (A) (A) (A) (A) (A) (A) (A) (A) (A) (A) (A) (A)
                 (A) (A) (A) (A) (A) (A) (A) (A) (A) (A) (A) (A)
                 (A) (A) (A) (A) (A) (A) (A) (A) (A) (A) (A) (A)
                 (A) (A) (A) (A) (A) (A) (A) (A) (A) (A) (A) (A)
                 (A) (A) (A) (A) (A) (A) (A) (A) (A) (A) (A) (A)
                 (A) (A) (A) (A) (A) (A) (A) (A) (A) (A) (A) (A)
                 (A) (A) (A) (A) (A) (A) (A) (A) (A) (A) (A) (A)
                 (A) (A) (A) (A) (A) (A) (A) (A) (A) (A) (A) (A)
                 (A) (A) (A) (A) (A) (A) (A) (A) (A) (A) (A) (A)
                 (A) (A) (A) (A) (A) (A) (A) (A) (A) (A) (A) (A)
                 (A) (A) (A) (A) (A) (A) (A) (A) (A) (A) (A) (A)
                 (A) (A) (A) (A) (A) (A) (A) (A) (A) (A) (A) (A)
                 (A) (A) (A) (A) (A) (A) (A) (A) (A) (A) (A) (A)
                 (A) (A) (A) (A) (A) (A) (A) (A) (A) (A) (A) (A)
                 (A) (A) (A) (A) (A) (A) (A) (A) (A) (A) (A) (A)
                 (A) (A) (A) (A) (A) (A) (A) (A) (A) (A) (A) (A)
                 (A) (A) (A) (A) (A) (A) (A) (A) (A) (A) (A) (A)
                 (A) (A) (A) (A) (A) (A) (A) (A) (A) (A) (A) (A)
                 (A) (A) (A) (A) (A) (A) (A) (A) (A) (A) (A) (A)
                 (A) (A) (A) (A) (A) (A) (A) (A) (A) (A) (A) (A)
                 (A) (A) (A) (A) (A) (A) (A) (A) (A) (A) (A) (A)
                 (A) (A) (A) (A) (A) (A) (A) (A) (A) (A) (A) (A)
                 (A) (A) (A) (A) (A) (A) (A) (A) (A) (A) (A) (A)
                 (A) (A) (A) (A) (A) (A) (A) (A) (A) (A) (A) (A)
                 (A) (A) (A) (A) (A) (A) (A) (A) (A) (A) (A) (A)
                 (A) (A) (A) (A) (A) (A) (A) (A) (A) (A) (A) (A)
                 (A) (A) (A) (A) (A) (A) (A) (A) (A) (A) (A) (A)
                 (A) (A) (A) (A) (A) (A) (A) (A) (A) (A) (A) (A)
                 (A) (A) (A) (A) (A) (A) (A) (A) (A) (A) (A) (A)
                 (A) (A) (A) (A) (A) (A) (A) (A) (A) (A) (A) (A)
                 (A) (A) (A) (A) (A) (A) (A) (A) (A) (A) (A) (A)
                 (A) (A) (A) (A) (A) (A) (A) (A) (A) (A) (A) (A)
                 (A) (A) (A) (A) (A) (A) (A) (A) (A) (A) (A) (A)
                 (A) (A) (A) (A) (A) (A) (A) (A) (A) (A) (A) (A)
                 (A) (A) (A) (A) (A) (A) (A) (A) (A) (A) (A) (A)
                 (A) (A) (A) (A) (A) (A) (A) (A) (A) (A) (A) (A)
                 (A) (A) (A) (A) (A) (A) (A) (A) (A) (A) (A) (A)
                 (A) (A) (A) (A) (A) (A) (A) (A) (A) (A) (A) (A)
                 (A) (A) (A) (A) (A) (A) (A) (A) (A) (A) (A) (A)
                 (A) (A) (A) (A) (A) (A) (A) (A) (A) (A) (A) (A)
                 (A) (A) (A) (A) (A) (A) (A) (A) (A) (A) (A) (A)
                 (A) (A) (A) (A) (A) (A) (A) (A) (A) (A) (A) (A)
                 (A) (A) (A) (A) (A) (A) (A) (A) (A) (A) (A) (A)
                 (A) (A) (A) (A) (A) (A) (A) (A) (A) (A) (A) (A)
                 (A) (A) (A) (A) (A) (A) (A) (A) (A) (A) (A) (A)
                 (A) (A) (A) (A) (A) (A) (A) (A) (A) (A) (A) (A)
                 (A) (A) (A) (A) (A) (A) (A) (A) (A) (A) (A) (A)
                 (A) (A) (A) (A) (A) (A) (A) (A) (A) (A) (A) (A)
                 (A) (A) (A) (A) (A) (A) (A) (A) (A) (A) (A) (A)
                 (A) (A) (A) (A) (A) (A) (A) (A) (A) (A) (A) (A)
                 (A) (A) (A) (A) (A) (A) (A) (A) (A) (A) (A) (A)
                 (A) (A) (A) (A) (A) (A) (A) (A) (A) (A) (A) (A)
                 (A) (A) (A) (A) (A) (A) (A) (A) (A) (A) (A) (A)
                 (A) (A) (A) (A) (A) (A) (A) (A) (A) (A) (A) (A)
                 (A) (A) (A) (A) (A) (A) (A) (A) (A) (A) (A) (A)
                 (A) (A) (A) (A)
 Beta  Orbitals:
       Occupied  (A) (A) (A) (A) (A) (A) (A) (A) (A) (A) (A) (A)
                 (A) (A) (A) (A) (A) (A) (A) (A) (A) (A) (A) (A)
                 (A) (A) (A) (A) (A) (A) (A) (A) (A) (A) (A) (A)
                 (A) (A) (A) (A) (A) (A) (A) (A) (A) (A) (A) (A)
                 (A) (A) (A) (A) (A) (A) (A) (A) (A) (A) (A) (A)
                 (A) (A) (A) (A) (A) (A) (A) (A) (A) (A) (A) (A)
                 (A) (A) (A) (A) (A) (A) (A) (A) (A) (A) (A) (A)
                 (A) (A) (A) (A) (A) (A) (A) (A) (A) (A) (A) (A)
                 (A) (A) (A) (A) (A) (A) (A) (A) (A) (A) (A) (A)
                 (A) (A) (A) (A) (A) (A) (A) (A) (A) (A) (A) (A)
                 (A) (A) (A) (A) (A) (A) (A) (A) (A) (A) (A) (A)
                 (A) (A) (A) (A) (A) (A) (A) (A) (A) (A) (A) (A)
                 (A) (A) (A) (A) (A) (A) (A) (A) (A) (A) (A) (A)
                 (A) (A) (A) (A) (A) (A) (A) (A) (A) (A) (A) (A)
                 (A) (A) (A) (A) (A) (A) (A)
       Virtual   (A) (A) (A) (A) (A) (A) (A) (A) (A) (A) (A) (A)
                 (A) (A) (A) (A) (A) (A) (A) (A) (A) (A) (A) (A)
                 (A) (A) (A) (A) (A) (A) (A) (A) (A) (A) (A) (A)
                 (A) (A) (A) (A) (A) (A) (A) (A) (A) (A) (A) (A)
                 (A) (A) (A) (A) (A) (A) (A) (A) (A) (A) (A) (A)
                 (A) (A) (A) (A) (A) (A) (A) (A) (A) (A) (A) (A)
                 (A) (A) (A) (A) (A) (A) (A) (A) (A) (A) (A) (A)
                 (A) (A) (A) (A) (A) (A) (A) (A) (A) (A) (A) (A)
                 (A) (A) (A) (A) (A) (A) (A) (A) (A) (A) (A) (A)
                 (A) (A) (A) (A) (A) (A) (A) (A) (A) (A) (A) (A)
                 (A) (A) (A) (A) (A) (A) (A) (A) (A) (A) (A) (A)
                 (A) (A) (A) (A) (A) (A) (A) (A) (A) (A) (A) (A)
                 (A) (A) (A) (A) (A) (A) (A) (A) (A) (A) (A) (A)
                 (A) (A) (A) (A) (A) (A) (A) (A) (A) (A) (A) (A)
                 (A) (A) (A) (A) (A) (A) (A) (A) (A) (A) (A) (A)
                 (A) (A) (A) (A) (A) (A) (A) (A) (A) (A) (A) (A)
                 (A) (A) (A) (A) (A) (A) (A) (A) (A) (A) (A) (A)
                 (A) (A) (A) (A) (A) (A) (A) (A) (A) (A) (A) (A)
                 (A) (A) (A) (A) (A) (A) (A) (A) (A) (A) (A) (A)
                 (A) (A) (A) (A) (A) (A) (A) (A) (A) (A) (A) (A)
                 (A) (A) (A) (A) (A) (A) (A) (A) (A) (A) (A) (A)
                 (A) (A) (A) (A) (A) (A) (A) (A) (A) (A) (A) (A)
                 (A) (A) (A) (A) (A) (A) (A) (A) (A) (A) (A) (A)
                 (A) (A) (A) (A) (A) (A) (A) (A) (A) (A) (A) (A)
                 (A) (A) (A) (A) (A) (A) (A) (A) (A) (A) (A) (A)
                 (A) (A) (A) (A) (A) (A) (A) (A) (A) (A) (A) (A)
                 (A) (A) (A) (A) (A) (A) (A) (A) (A) (A) (A) (A)
                 (A) (A) (A) (A) (A) (A) (A) (A) (A) (A) (A) (A)
                 (A) (A) (A) (A) (A) (A) (A) (A) (A) (A) (A) (A)
                 (A) (A) (A) (A) (A) (A) (A) (A) (A) (A) (A) (A)
                 (A) (A) (A) (A) (A) (A) (A) (A) (A) (A) (A) (A)
                 (A) (A) (A) (A) (A) (A) (A) (A) (A) (A) (A) (A)
                 (A) (A) (A) (A) (A) (A) (A) (A) (A) (A) (A) (A)
                 (A) (A) (A) (A) (A) (A) (A) (A) (A) (A) (A) (A)
                 (A) (A) (A) (A) (A) (A) (A) (A) (A) (A) (A) (A)
                 (A) (A) (A) (A) (A) (A) (A) (A) (A) (A) (A) (A)
                 (A) (A) (A) (A) (A) (A) (A) (A) (A) (A) (A) (A)
                 (A) (A) (A) (A) (A) (A) (A) (A) (A) (A) (A) (A)
                 (A) (A) (A) (A) (A) (A) (A) (A) (A) (A) (A) (A)
                 (A) (A) (A) (A) (A) (A) (A) (A) (A) (A) (A) (A)
                 (A) (A) (A) (A) (A) (A) (A) (A) (A) (A) (A) (A)
                 (A) (A) (A) (A) (A) (A) (A) (A) (A) (A) (A) (A)
                 (A) (A) (A) (A) (A) (A) (A) (A) (A) (A) (A) (A)
                 (A) (A) (A) (A) (A) (A) (A) (A) (A) (A) (A) (A)
                 (A) (A) (A) (A) (A) (A) (A) (A) (A) (A) (A) (A)
                 (A) (A) (A) (A) (A) (A) (A) (A) (A) (A) (A) (A)
                 (A) (A) (A) (A) (A) (A) (A) (A) (A) (A) (A) (A)
                 (A) (A) (A) (A) (A) (A) (A) (A) (A) (A) (A) (A)
                 (A) (A) (A) (A) (A) (A) (A) (A) (A) (A) (A) (A)
                 (A) (A) (A) (A) (A) (A) (A) (A) (A) (A) (A) (A)
                 (A) (A) (A) (A) (A) (A) (A) (A) (A) (A) (A) (A)
                 (A) (A) (A) (A) (A) (A) (A) (A) (A) (A) (A) (A)
                 (A) (A) (A) (A) (A) (A) (A) (A) (A) (A) (A) (A)
                 (A) (A) (A) (A) (A) (A) (A) (A) (A) (A) (A) (A)
                 (A) (A) (A) (A) (A) (A) (A) (A) (A) (A) (A) (A)
                 (A) (A) (A) (A) (A) (A) (A) (A) (A) (A) (A) (A)
                 (A) (A) (A) (A) (A) (A) (A) (A) (A) (A) (A) (A)
                 (A) (A) (A) (A) (A) (A) (A) (A) (A) (A) (A) (A)
                 (A) (A) (A) (A) (A) (A) (A) (A) (A) (A) (A) (A)
                 (A) (A) (A) (A) (A) (A) (A) (A) (A) (A) (A) (A)
                 (A) (A) (A) (A) (A) (A) (A) (A) (A) (A) (A) (A)
                 (A) (A) (A) (A) (A) (A) (A) (A) (A) (A) (A) (A)
                 (A) (A) (A) (A) (A) (A) (A) (A) (A) (A) (A) (A)
                 (A) (A) (A) (A) (A) (A) (A) (A) (A) (A) (A) (A)
                 (A) (A) (A) (A) (A) (A) (A) (A) (A) (A) (A) (A)
                 (A) (A) (A) (A) (A) (A) (A) (A) (A) (A) (A) (A)
                 (A) (A) (A) (A) (A) (A) (A) (A) (A) (A) (A) (A)
                 (A) (A) (A) (A) (A) (A) (A) (A) (A) (A) (A) (A)
                 (A) (A) (A) (A) (A) (A) (A) (A) (A) (A) (A) (A)
                 (A) (A) (A) (A) (A) (A) (A) (A) (A) (A) (A) (A)
                 (A) (A) (A) (A) (A) (A) (A) (A) (A) (A) (A) (A)
                 (A) (A) (A) (A) (A) (A) (A) (A) (A) (A) (A) (A)
                 (A) (A) (A) (A) (A) (A) (A) (A) (A) (A) (A) (A)
                 (A) (A) (A) (A) (A) (A) (A) (A) (A) (A) (A) (A)
                 (A) (A) (A) (A) (A) (A) (A) (A) (A) (A) (A) (A)
                 (A) (A) (A) (A) (A) (A) (A) (A) (A) (A) (A) (A)
                 (A) (A) (A) (A) (A) (A) (A) (A) (A) (A) (A) (A)
                 (A) (A) (A) (A) (A) (A) (A) (A) (A) (A) (A) (A)
                 (A) (A) (A) (A) (A) (A) (A) (A) (A) (A) (A) (A)
                 (A) (A) (A) (A) (A) (A) (A) (A) (A) (A) (A) (A)
                 (A) (A) (A) (A) (A) (A) (A) (A) (A) (A) (A) (A)
                 (A) (A) (A) (A) (A) (A) (A) (A) (A) (A) (A) (A)
                 (A) (A) (A) (A) (A) (A) (A) (A) (A) (A) (A) (A)
                 (A) (A) (A) (A) (A) (A) (A) (A) (A) (A) (A) (A)
                 (A) (A) (A) (A) (A) (A) (A) (A) (A) (A) (A) (A)
                 (A) (A) (A) (A) (A) (A) (A) (A) (A) (A) (A) (A)
                 (A) (A) (A) (A) (A) (A) (A) (A) (A) (A) (A) (A)
                 (A) (A) (A) (A) (A) (A) (A) (A) (A) (A) (A) (A)
                 (A) (A) (A) (A) (A) (A) (A) (A) (A) (A) (A) (A)
                 (A) (A) (A) (A) (A) (A) (A) (A) (A) (A) (A) (A)
                 (A) (A) (A) (A) (A) (A) (A) (A) (A) (A) (A) (A)
                 (A) (A) (A) (A) (A) (A) (A) (A) (A) (A) (A) (A)
                 (A) (A) (A) (A) (A) (A) (A) (A) (A) (A) (A) (A)
                 (A) (A) (A) (A) (A) (A) (A) (A) (A) (A) (A) (A)
                 (A) (A) (A) (A) (A) (A) (A) (A) (A) (A) (A) (A)
                 (A) (A) (A) (A) (A) (A) (A) (A) (A) (A) (A) (A)
                 (A) (A) (A) (A) (A) (A) (A) (A) (A) (A) (A) (A)
                 (A) (A) (A) (A) (A) (A) (A) (A) (A) (A) (A) (A)
                 (A) (A) (A) (A) (A) (A) (A) (A) (A) (A) (A) (A)
                 (A) (A) (A) (A) (A) (A) (A) (A) (A) (A) (A) (A)
                 (A) (A) (A) (A) (A) (A) (A) (A) (A) (A) (A) (A)
                 (A) (A) (A) (A) (A) (A) (A) (A) (A) (A) (A) (A)
                 (A) (A) (A) (A) (A) (A) (A) (A) (A) (A) (A) (A)
                 (A) (A) (A) (A) (A) (A) (A) (A) (A) (A) (A) (A)
                 (A) (A) (A) (A) (A) (A) (A) (A) (A) (A) (A) (A)
                 (A) (A) (A) (A) (A) (A) (A) (A) (A) (A) (A) (A)
                 (A) (A) (A) (A) (A) (A) (A) (A) (A) (A) (A) (A)
                 (A) (A) (A) (A) (A) (A) (A) (A) (A) (A) (A) (A)
                 (A) (A) (A) (A) (A) (A) (A) (A) (A) (A) (A) (A)
                 (A) (A) (A) (A) (A) (A) (A) (A) (A) (A) (A) (A)
                 (A) (A) (A) (A) (A) (A) (A) (A) (A) (A) (A) (A)
                 (A) (A) (A) (A) (A) (A) (A) (A) (A) (A) (A) (A)
                 (A) (A) (A) (A) (A) (A) (A) (A) (A) (A) (A) (A)
                 (A) (A) (A) (A) (A) (A) (A) (A) (A) (A) (A) (A)
                 (A) (A) (A) (A) (A) (A) (A) (A) (A) (A) (A) (A)
                 (A) (A) (A) (A) (A) (A) (A) (A) (A) (A) (A) (A)
                 (A) (A) (A) (A) (A) (A) (A) (A) (A) (A) (A) (A)
                 (A) (A) (A) (A) (A) (A) (A) (A) (A) (A) (A) (A)
                 (A) (A) (A) (A) (A) (A) (A) (A) (A) (A) (A) (A)
                 (A) (A) (A) (A) (A) (A) (A) (A) (A) (A) (A) (A)
                 (A) (A) (A) (A) (A) (A) (A) (A) (A) (A) (A) (A)
                 (A) (A) (A) (A) (A) (A) (A) (A) (A) (A) (A) (A)
                 (A) (A) (A) (A) (A) (A) (A) (A) (A) (A) (A) (A)
                 (A) (A) (A) (A) (A) (A) (A) (A) (A) (A) (A) (A)
                 (A) (A) (A) (A) (A) (A) (A) (A) (A) (A) (A) (A)
                 (A) (A) (A) (A) (A) (A) (A) (A) (A) (A) (A) (A)
                 (A) (A) (A) (A) (A) (A) (A) (A) (A) (A) (A) (A)
                 (A) (A) (A) (A) (A) (A) (A) (A) (A) (A) (A) (A)
                 (A) (A) (A) (A) (A) (A) (A) (A) (A) (A) (A) (A)
                 (A) (A) (A) (A) (A) (A) (A) (A) (A) (A) (A) (A)
                 (A) (A) (A) (A) (A) (A) (A) (A) (A) (A) (A) (A)
                 (A) (A) (A) (A) (A) (A) (A) (A) (A) (A) (A) (A)
                 (A) (A) (A) (A) (A) (A) (A) (A) (A) (A) (A) (A)
                 (A) (A) (A) (A) (A) (A) (A) (A) (A) (A) (A) (A)
                 (A) (A) (A) (A) (A) (A) (A) (A) (A) (A) (A) (A)
                 (A) (A) (A) (A) (A) (A) (A) (A) (A) (A) (A) (A)
                 (A) (A) (A) (A) (A) (A) (A) (A) (A) (A) (A) (A)
                 (A) (A) (A) (A) (A) (A) (A) (A) (A) (A) (A) (A)
                 (A) (A) (A) (A) (A) (A) (A) (A) (A) (A) (A) (A)
                 (A) (A) (A) (A) (A) (A) (A) (A) (A) (A) (A) (A)
                 (A) (A) (A) (A) (A) (A) (A) (A) (A) (A) (A) (A)
                 (A) (A) (A) (A) (A)
 The electronic state is 2-A.
 Alpha  occ. eigenvalues --  -25.20515 -25.20478 -19.68006 -19.68004 -19.67378
[...]
     8 C(13)  Bbb    -0.0148    -1.980    -0.706    -0.660  0.9565  0.2774 -0.0897
              Bcc     0.0382     5.124     1.828     1.709  0.1564 -0.2285  0.9609
 
              Baa    -0.0286    -3.833    -1.368    -1.279 -0.1136  0.8509  0.5129
     9 C(13)  Bbb    -0.0163    -2.188    -0.781    -0.730  0.9735  0.1984 -0.1136
              Bcc     0.0449     6.021     2.148     2.008  0.1984 -0.4864  0.8509
 
              Baa    -0.0653    -8.768    -3.129    -2.925 -0.4278  0.7574  0.4932
    10 C(13)  Bbb    -0.0430    -5.765    -2.057    -1.923  0.9037  0.3483  0.2491
              Bcc     0.1083    14.533     5.186     4.848 -0.0169 -0.5523  0.8335
 
              Baa    -0.1789    -6.902    -2.463    -2.302 -0.5669  0.8232 -0.0310
    11 N(14)  Bbb    -0.1698    -6.548    -2.337    -2.184  0.7732  0.5447  0.3249
              Bcc     0.3487    13.450     4.799     4.486 -0.2843 -0.1602  0.9452
 
              Baa    -0.3466    25.079     8.949     8.365  0.2175  0.9650  0.1467
    12 O(17)  Bbb    -0.3256    23.562     8.407     7.859  0.9623 -0.2372  0.1333
              Bcc     0.6722   -48.641   -17.356   -16.225 -0.1635 -0.1121  0.9802
 
              Baa    -0.2940    21.273     7.591     7.096  0.8627 -0.4582  0.2139
    13 O(17)  Bbb    -0.2753    19.922     7.108     6.645  0.4059  0.8797  0.2476
              Bcc     0.5693   -41.195   -14.699   -13.741 -0.3016 -0.1268  0.9450
 
              Baa    -0.0632    -8.476    -3.024    -2.827  0.8370  0.5201  0.1700
    14 C(13)  Bbb    -0.0598    -8.025    -2.863    -2.677 -0.5222  0.6666  0.5320
              Bcc     0.1230    16.501     5.888     5.504  0.1634 -0.5341  0.8295
 
              Baa    -0.0474    -1.828    -0.652    -0.610  0.7206  0.2250 -0.6558
    15 N(14)  Bbb    -0.0403    -1.555    -0.555    -0.519 -0.1598  0.9743  0.1587
              Bcc     0.0877     3.384     1.207     1.129  0.6746 -0.0095  0.7381
 
              Baa    -0.1607    11.628     4.149     3.879  0.8330 -0.3994 -0.3828
    16 O(17)  Bbb    -0.1569    11.355     4.052     3.788  0.3221  0.9128 -0.2513
              Bcc     0.3176   -22.983    -8.201    -7.666  0.4498  0.0860  0.8890
 
              Baa    -0.0692     5.007     1.787     1.670 -0.4050  0.6067  0.6840
    17 O(17)  Bbb    -0.0550     3.982     1.421     1.328  0.4591  0.7819 -0.4218
              Bcc     0.1242    -8.990    -3.208    -2.999  0.7907 -0.1431  0.5952
 
              Baa    -0.0804   -10.786    -3.849    -3.598  0.0885 -0.3541  0.9310
    18 C(13)  Bbb     0.0348     4.671     1.667     1.558 -0.1182  0.9243  0.3628
              Bcc     0.0456     6.115     2.182     2.040  0.9890  0.1422 -0.0399
 
              Baa    -0.0597    -2.304    -0.822    -0.769 -0.6154  0.7861  0.0584
    19 N(14)  Bbb    -0.0549    -2.117    -0.755    -0.706  0.7876  0.6162  0.0048
              Bcc     0.1146     4.421     1.578     1.475  0.0322 -0.0489  0.9983
 
              Baa    -0.0405    -5.432    -1.938    -1.812  0.0090 -0.0869  0.9962
    20 C(13)  Bbb     0.0165     2.213     0.790     0.738 -0.6350  0.7691  0.0728
              Bcc     0.0240     3.218     1.148     1.073  0.7724  0.6333  0.0483
 
              Baa    -0.0498    -6.681    -2.384    -2.228 -0.5238  0.8513  0.0303
    21 C(13)  Bbb    -0.0463    -6.218    -2.219    -2.074  0.8515  0.5221  0.0498
              Bcc     0.0961    12.899     4.603     4.303 -0.0266 -0.0518  0.9983
 
              Baa    -0.0016    -0.220    -0.079    -0.074 -0.0592  0.9622  0.2658
    22 C(13)  Bbb     0.0003     0.044     0.016     0.015  0.9845  0.0123  0.1749
              Bcc     0.0013     0.176     0.063     0.059 -0.1650 -0.2720  0.9480
 
              Baa    -0.0020    -0.269    -0.096    -0.090  0.5180  0.2779  0.8090
    23 C(13)  Bbb    -0.0015    -0.206    -0.073    -0.069 -0.3170  0.9408 -0.1201
              Bcc     0.0035     0.474     0.169     0.158  0.7945  0.1942 -0.5754
 
              Baa    -0.0010    -0.131    -0.047    -0.044  0.4088  0.9114  0.0474
    24 C(13)  Bbb    -0.0005    -0.065    -0.023    -0.022  0.1966 -0.1386  0.9706
              Bcc     0.0015     0.196     0.070     0.065  0.8912 -0.3875 -0.2359
 
              Baa    -0.0004    -0.055    -0.020    -0.019 -0.0484 -0.2310  0.9717
    25 C(13)  Bbb     0.0001     0.019     0.007     0.006  0.5660  0.7953  0.2173
              Bcc     0.0003     0.037     0.013     0.012  0.8230 -0.5605 -0.0923
 
              Baa    -0.0001    -0.005    -0.002    -0.002  0.0979  0.8402  0.5333
    26 N(14)  Bbb    -0.0001    -0.004    -0.001    -0.001 -0.0783 -0.5277  0.8458
              Bcc     0.0002     0.008     0.003     0.003  0.9921 -0.1246  0.0141
 
              Baa    -0.0005     0.033     0.012     0.011 -0.1547  0.1102  0.9818
    27 O(17)  Bbb    -0.0002     0.014     0.005     0.005  0.9394 -0.2912  0.1807
              Bcc     0.0007    -0.048    -0.017    -0.016  0.3058  0.9503 -0.0584
 
              Baa    -0.0004     0.028     0.010     0.009  0.3327  0.7101  0.6205
    28 O(17)  Bbb    -0.0000     0.001     0.000     0.000 -0.4689 -0.4463  0.7622
              Bcc     0.0004    -0.028    -0.010    -0.009  0.8182 -0.5445  0.1844
 
              Baa    -0.0011    -0.150    -0.053    -0.050  0.2418  0.9335  0.2647
    29 C(13)  Bbb    -0.0003    -0.039    -0.014    -0.013 -0.2293 -0.2101  0.9504
              Bcc     0.0014     0.189     0.068     0.063  0.9428 -0.2905  0.1633
 
              Baa    -0.0020    -0.273    -0.097    -0.091 -0.5194  0.0172  0.8543
    30 C(13)  Bbb    -0.0017    -0.232    -0.083    -0.077  0.3602  0.9110  0.2006
              Bcc     0.0038     0.505     0.180     0.168  0.7749 -0.4120  0.4794
 
              Baa    -0.0074    -0.999    -0.356    -0.333 -0.0989 -0.0168  0.9950
    31 C(13)  Bbb     0.0029     0.383     0.137     0.128  0.9758 -0.1975  0.0936
              Bcc     0.0046     0.616     0.220     0.205  0.1949  0.9802  0.0359
 
              Baa    -0.0318    -4.272    -1.524    -1.425 -0.6868  0.7268  0.0110
    32 C(13)  Bbb    -0.0294    -3.945    -1.408    -1.316  0.7245  0.6833  0.0911
              Bcc     0.0612     8.218     2.932     2.741 -0.0587 -0.0705  0.9958
 
              Baa    -0.0012    -0.160    -0.057    -0.053 -0.6060  0.7931  0.0619
    33 C(13)  Bbb     0.0001     0.008     0.003     0.003  0.7949  0.6008  0.0841
              Bcc     0.0011     0.152     0.054     0.051 -0.0295 -0.1001  0.9945
 
              Baa    -0.0149    -1.996    -0.712    -0.666 -0.0429 -0.0212  0.9989
    34 C(13)  Bbb     0.0069     0.930     0.332     0.310 -0.6086  0.7934 -0.0093
              Bcc     0.0079     1.066     0.380     0.355  0.7923  0.6083  0.0470
 
              Baa    -0.0450    -6.038    -2.155    -2.014 -0.3678  0.9297  0.0182
    35 C(13)  Bbb    -0.0435    -5.842    -2.085    -1.949  0.9268  0.3649  0.0882
              Bcc     0.0885    11.880     4.239     3.963 -0.0754 -0.0493  0.9959
 
              Baa    -0.0333    -4.474    -1.596    -1.492 -0.1171 -0.1568  0.9807
    36 C(13)  Bbb     0.0149     1.994     0.711     0.665  0.6126  0.7658  0.1956
              Bcc     0.0185     2.480     0.885     0.827  0.7817 -0.6237 -0.0064
 
              Baa    -0.0323    -4.335    -1.547    -1.446 -0.2118  0.9650  0.1548
    37 C(13)  Bbb    -0.0304    -4.077    -1.455    -1.360  0.9707  0.1893  0.1480
              Bcc     0.0627     8.411     3.001     2.806 -0.1135 -0.1816  0.9768
 
              Baa    -0.0117    -1.573    -0.561    -0.525 -0.1169 -0.1767  0.9773
    38 C(13)  Bbb     0.0049     0.658     0.235     0.220  0.1574  0.9683  0.1938
              Bcc     0.0068     0.915     0.326     0.305  0.9806 -0.1765  0.0854
 
              Baa    -0.0075    -1.004    -0.358    -0.335  0.4252  0.8790  0.2157
    39 C(13)  Bbb    -0.0068    -0.909    -0.324    -0.303  0.8956 -0.4431  0.0401
              Bcc     0.0143     1.913     0.683     0.638 -0.1308 -0.1761  0.9756
 
              Baa    -0.0057    -0.769    -0.274    -0.256 -0.1313 -0.1694  0.9768
    40 C(13)  Bbb     0.0025     0.330     0.118     0.110  0.2206  0.9556  0.1954
              Bcc     0.0033     0.439     0.157     0.146  0.9665 -0.2411  0.0881
 
              Baa    -0.0091    -1.223    -0.436    -0.408  0.4282  0.8761  0.2217
    41 C(13)  Bbb    -0.0083    -1.108    -0.395    -0.370  0.8940 -0.4465  0.0379
              Bcc     0.0174     2.331     0.832     0.777 -0.1322 -0.1820  0.9744
 
              Baa    -0.0001    -0.005    -0.002    -0.002  0.6738  0.1729  0.7184
    42 N(14)  Bbb    -0.0000    -0.000    -0.000    -0.000  0.7151  0.0920 -0.6929
              Bcc     0.0002     0.006     0.002     0.002 -0.1859  0.9806 -0.0616
 
              Baa    -0.0090     0.654     0.233     0.218  0.9661  0.1959  0.1682
    43 O(17)  Bbb    -0.0084     0.609     0.217     0.203 -0.2215  0.9635  0.1505
              Bcc     0.0175    -1.263    -0.451    -0.421 -0.1326 -0.1827  0.9742
 
              Baa    -0.0086     0.621     0.222     0.207  0.8836 -0.4670  0.0352
    44 O(17)  Bbb    -0.0084     0.606     0.216     0.202  0.4489  0.8660  0.2203
              Bcc     0.0170    -1.227    -0.438    -0.409 -0.1334 -0.1789  0.9748
 
              Baa    -0.0060    -0.806    -0.287    -0.269 -0.1336 -0.1564  0.9786
    45 C(13)  Bbb     0.0027     0.356     0.127     0.119  0.7029  0.6812  0.2048
              Bcc     0.0034     0.450     0.160     0.150 -0.6986  0.7152  0.0189
 
              Baa    -0.0070    -0.934    -0.333    -0.311  0.4567  0.8615  0.2220
    46 C(13)  Bbb    -0.0069    -0.929    -0.331    -0.310  0.8782 -0.4765  0.0424
              Bcc     0.0139     1.862     0.665     0.621 -0.1423 -0.1755  0.9741
 
              Baa    -0.0124    -0.478    -0.171    -0.160  0.0116 -0.0187  0.9998
    47 N(14)  Bbb     0.0040     0.156     0.056     0.052 -0.3330  0.9427  0.0215
              Bcc     0.0084     0.322     0.115     0.108  0.9429  0.3331 -0.0047
 
              Baa    -0.0009    -0.162    -0.058    -0.054 -0.1186 -0.2181  0.9687
    48 B(11)  Bbb    -0.0003    -0.043    -0.015    -0.014  0.8502  0.4816  0.2125
              Bcc     0.0012     0.205     0.073     0.068 -0.5129  0.8488  0.1283
 
              Baa    -0.0062    -3.138    -1.120    -1.047  0.2454  0.8008 -0.5464
    49 F(19)  Bbb    -0.0042    -2.108    -0.752    -0.703  0.4875  0.3852  0.7835
              Bcc     0.0104     5.246     1.872     1.750  0.8379 -0.4586 -0.2959
 
              Baa    -0.0051    -2.554    -0.911    -0.852  0.4291  0.8575 -0.2840
    50 F(19)  Bbb    -0.0029    -1.433    -0.511    -0.478 -0.1243  0.3674  0.9217
              Bcc     0.0079     3.987     1.423     1.330  0.8947 -0.3602  0.2643
 
              Baa    -0.0005    -0.286    -0.102    -0.096  0.6759  0.3608 -0.6427
    51 H(1)   Bbb    -0.0001    -0.039    -0.014    -0.013  0.6895 -0.0017  0.7242
              Bcc     0.0006     0.325     0.116     0.108 -0.2602  0.9326  0.2499
 
              Baa    -0.0005    -0.266    -0.095    -0.089  0.6809  0.1649  0.7136
    52 H(1)   Bbb    -0.0000    -0.021    -0.007    -0.007  0.7124  0.0770 -0.6975
              Bcc     0.0005     0.287     0.102     0.096 -0.1700  0.9833 -0.0651
 
              Baa    -0.0002    -0.089    -0.032    -0.030 -0.0173  0.0318  0.9993
    53 H(1)   Bbb    -0.0001    -0.060    -0.022    -0.020 -0.1572  0.9870 -0.0341
              Bcc     0.0003     0.150     0.053     0.050  0.9874  0.1577  0.0120
 
              Baa    -0.0012    -0.650    -0.232    -0.217 -0.1267  0.9913  0.0358
    54 H(1)   Bbb    -0.0005    -0.285    -0.102    -0.095  0.0210 -0.0334  0.9992
              Bcc     0.0018     0.935     0.334     0.312  0.9917  0.1273 -0.0166
 
              Baa    -0.0062    -3.287    -1.173    -1.096  0.9874 -0.1123 -0.1111
    55 H(1)   Bbb    -0.0007    -0.377    -0.135    -0.126  0.0712 -0.3108  0.9478
              Bcc     0.0069     3.664     1.307     1.222  0.1410  0.9438  0.2989
 
              Baa    -0.0045    -2.427    -0.866    -0.810 -0.3157  0.8394  0.4424
    56 H(1)   Bbb    -0.0014    -0.728    -0.260    -0.243  0.1757 -0.4065  0.8966
              Bcc     0.0059     3.155     1.126     1.052  0.9324  0.3608 -0.0192
 
              Baa    -0.0034    -1.795    -0.640    -0.599  0.3239  0.8659  0.3813
    57 H(1)   Bbb    -0.0020    -1.055    -0.376    -0.352 -0.0073 -0.4007  0.9162
              Bcc     0.0053     2.850     1.017     0.951  0.9461 -0.2996 -0.1235
 
              Baa    -0.0045    -2.422    -0.864    -0.808 -0.1345 -0.3983  0.9073
    58 H(1)   Bbb     0.0016     0.832     0.297     0.278  0.8023 -0.5812 -0.1363
              Bcc     0.0030     1.589     0.567     0.530  0.5816  0.7096  0.3977
 
              Baa    -0.0041    -2.162    -0.772    -0.721  0.0382  0.9253  0.3773
    59 H(1)   Bbb    -0.0029    -1.523    -0.543    -0.508  0.1288 -0.3790  0.9164
              Bcc     0.0069     3.685     1.315     1.229  0.9909  0.0136 -0.1337
 
              Baa    -0.0007    -0.368    -0.131    -0.123 -0.0180  0.9973  0.0713
    60 H(1)   Bbb    -0.0004    -0.217    -0.077    -0.072  0.7498 -0.0338  0.6608
              Bcc     0.0011     0.585     0.209     0.195 -0.6614 -0.0653  0.7472
 
              Baa    -0.0002    -0.111    -0.040    -0.037  0.3240  0.6816  0.6561
    61 H(1)   Bbb    -0.0002    -0.088    -0.031    -0.029 -0.2279  0.7293 -0.6451
              Bcc     0.0004     0.199     0.071     0.066  0.9182 -0.0595 -0.3916
 
              Baa    -0.0002    -0.106    -0.038    -0.035  0.1644  0.9817  0.0956
    62 H(1)   Bbb    -0.0001    -0.079    -0.028    -0.026 -0.3748 -0.0275  0.9267
              Bcc     0.0003     0.185     0.066     0.062  0.9124 -0.1882  0.3634
 
              Baa    -0.0009    -0.462    -0.165    -0.154 -0.1405  0.9050  0.4015
    63 H(1)   Bbb    -0.0003    -0.166    -0.059    -0.055  0.7913  0.3464 -0.5038
              Bcc     0.0012     0.628     0.224     0.210  0.5950 -0.2470  0.7648
 
              Baa    -0.0008    -0.447    -0.159    -0.149  0.4014 -0.3462  0.8479
    64 H(1)   Bbb    -0.0005    -0.245    -0.087    -0.082 -0.0975  0.9044  0.4154
              Bcc     0.0013     0.692     0.247     0.231  0.9107  0.2494 -0.3293
 
              Baa    -0.0006    -0.323    -0.115    -0.108 -0.6201  0.4281  0.6574
    65 H(1)   Bbb    -0.0006    -0.295    -0.105    -0.098  0.4581 -0.4827  0.7465
              Bcc     0.0012     0.618     0.221     0.206  0.6369  0.7640  0.1032
 
              Baa    -0.0009    -0.466    -0.166    -0.155 -0.4229  0.1351  0.8960
    66 H(1)   Bbb    -0.0004    -0.204    -0.073    -0.068 -0.0872  0.9782 -0.1886
              Bcc     0.0013     0.670     0.239     0.223  0.9020  0.1579  0.4019
 
              Baa    -0.0011    -0.575    -0.205    -0.192 -0.0226 -0.1147  0.9931
    67 H(1)   Bbb    -0.0004    -0.205    -0.073    -0.068 -0.4873  0.8687  0.0892
              Bcc     0.0015     0.780     0.278     0.260  0.8730  0.4819  0.0755
 
              Baa    -0.0013    -0.680    -0.243    -0.227  0.2275  0.3343  0.9146
    68 H(1)   Bbb    -0.0010    -0.522    -0.186    -0.174  0.5173  0.7542 -0.4044
              Bcc     0.0023     1.202     0.429     0.401  0.8250 -0.5651  0.0014
 
              Baa    -0.0033    -1.739    -0.620    -0.580  0.7233 -0.6897 -0.0344
    69 H(1)   Bbb    -0.0010    -0.532    -0.190    -0.178 -0.0909 -0.1445  0.9853
              Bcc     0.0043     2.271     0.810     0.758  0.6846  0.7095  0.1672
 
              Baa    -0.0005    -0.292    -0.104    -0.098 -0.1754 -0.1012  0.9793
    70 H(1)   Bbb    -0.0004    -0.196    -0.070    -0.066  0.7402 -0.6694  0.0634
              Bcc     0.0009     0.489     0.174     0.163  0.6491  0.7360  0.1923
 
              Baa    -0.0004    -0.204    -0.073    -0.068 -0.1161 -0.0605  0.9914
    71 H(1)   Bbb    -0.0000    -0.025    -0.009    -0.008  0.0876  0.9936  0.0709
              Bcc     0.0004     0.229     0.082     0.076  0.9894 -0.0951  0.1101
 
              Baa    -0.0006    -0.299    -0.107    -0.100  0.0664  0.0981  0.9930
    72 H(1)   Bbb    -0.0001    -0.062    -0.022    -0.021  0.9353  0.3406 -0.0962
              Bcc     0.0007     0.361     0.129     0.121 -0.3477  0.9351 -0.0691
 
              Baa    -0.0008    -0.402    -0.144    -0.134  0.6747 -0.0780  0.7340
    73 H(1)   Bbb    -0.0006    -0.298    -0.106    -0.100  0.7349 -0.0216 -0.6778
              Bcc     0.0013     0.701     0.250     0.234  0.0687  0.9967  0.0427
 

 ---------------------------------------------------------------------------------

 No NMR shielding tensors so no spin-rotation constants.
 Leave Link  601 at Sat Oct 25 00:45:10 2025, MaxMem= 30870077440 cpu:             183.9 elap:               3.2
 (Enter /public/software/gauss/g16/l9999.exe)
 1\1\GINC-CU056\SP\UM062X\def2TZVPP\C33H23B1F2N6O8(1-,2)\BAIDING\25-Oct
 -2025\0\\#p M062X/DEF2TZVPP scrf=(solvent=water) em=GD3\\Energy calcul
 ation for BNP_23NO2_NO2_reduced\\-1,2\C,0,-4.823504,-3.298324,0.330474
 \C,0,-3.4254,-2.765078,0.251797\C,0,-2.290023,-3.54077,0.332199\C,0,-1
 .141512,-2.710467,0.213334\C,0,0.182273,-3.250484,0.227671\C,0,1.37677
 ,-2.650985,-0.064575\C,0,2.667084,-3.288876,0.000185\C,0,2.887292,-4.6
 40353,0.405353\C,0,4.152883,-5.171616,0.453988\C,0,5.292451,-4.404948,
 0.107883\N,0,6.559613,-4.919229,0.422943\O,0,6.686091,-6.166037,0.6222
 85\O,0,7.543677,-4.136595,0.53805\C,0,5.076863,-3.076769,-0.366731\N,0
 ,6.09321,-2.296399,-1.021674\O,0,6.036459,-1.050164,-0.932338\O,0,6.95
 9915,-2.880691,-1.696462\C,0,3.794636,-2.539532,-0.383317\N,0,-1.56579
 ,-1.411059,0.084566\C,0,-2.966503,-1.405304,0.099928\C,0,-3.688337,-0.
 206819,0.014831\C,0,-5.18184,-0.23718,-0.017235\C,0,-5.917599,-0.03922
 9,1.161329\C,0,-7.307731,-0.062153,1.139507\C,0,-7.951,-0.279192,-0.07
 8983\N,0,-9.410705,-0.302297,-0.111356\O,0,-9.972992,-0.487954,-1.1956
 23\O,0,-10.026098,-0.135472,0.946835\C,0,-7.247763,-0.475295,-1.267512
 \C,0,-5.857793,-0.454986,-1.227539\C,0,-3.023684,1.038352,-0.027749\C,
 0,-3.518778,2.383649,-0.13671\C,0,-4.930331,2.8748,-0.254044\C,0,-2.40
 4098,3.207256,-0.114567\C,0,-1.246499,2.402196,0.005974\C,0,0.130429,2
 .800927,0.097137\C,0,0.559082,4.081164,-0.06472\C,0,1.932879,4.54158,0
 .034537\C,0,2.199379,5.914301,-0.179455\C,0,3.484929,6.423272,-0.10053
 \C,0,4.536147,5.550517,0.198465\N,0,5.882198,6.068801,0.28564\O,0,6.80
 6963,5.286143,0.553858\O,0,6.069972,7.279718,0.089433\C,0,4.313421,4.1
 84364,0.416738\C,0,3.024074,3.690503,0.334693\N,0,-1.639752,1.090203,0
 .054153\B,0,-0.692291,-0.133347,0.023821\F,0,0.061934,-0.104214,-1.164
 675\F,0,0.185069,-0.085651,1.117746\H,0,-5.395855,-2.835173,1.139596\H
 ,0,-5.381268,-3.128242,-0.595405\H,0,-4.790779,-4.375758,0.511371\H,0,
 -2.253586,-4.615661,0.451023\H,0,0.184404,-4.306365,0.484664\H,0,1.389
 192,-1.620572,-0.395855\H,0,2.051581,-5.2618,0.706338\H,0,4.311236,-6.
 181855,0.808627\H,0,3.66511,-1.531845,-0.76062\H,0,-5.39854,0.130023,2
 .098412\H,0,-7.883741,0.085762,2.043826\H,0,-7.778144,-0.640422,-2.196
 469\H,0,-5.292712,-0.607015,-2.140611\H,0,-5.512605,2.675452,0.651106\
 H,0,-4.927209,3.95532,-0.419352\H,0,-5.461952,2.405824,-1.087249\H,0,-
 2.415385,4.287464,-0.162421\H,0,0.843666,2.016081,0.321795\H,0,-0.1690
 74,4.855252,-0.294846\H,0,1.375313,6.581799,-0.41069\H,0,3.680503,7.47
 5059,-0.265153\H,0,5.144921,3.530642,0.646799\H,0,2.860863,2.632695,0.
 506025\\Version=ES64L-G16RevA.03\State=2-A\HF=-2426.1649809\S2=0.82232
 5\S2-1=0.\S2A=0.752664\RMSD=5.056e-09\Dipole=-14.5929231,4.5154815,0.3
 542464\Quadrupole=-149.7015838,50.0622727,99.6393111,53.7212869,0.9406
 884,-3.3105577\PG=C01 [X(C33H23B1F2N6O8)]\\@


 OPTIMIST - A PESSIMIST WHO LACKS EXPERIENCE
 Job cpu time:       2 days  1 hours 32 minutes 10.3 seconds.
 Elapsed time:       0 days  0 hours 46 minutes 57.5 seconds.
 File lengths (MBytes):  RWF=   3749 Int=      0 D2E=      0 Chk=    244 Scr=      1
 Normal termination of Gaussian 16 at Sat Oct 25 00:45:12 2025.
