 Entering Gaussian System, Link 0=g16
 Input=BNP_CN_reduced_sp.gjf
 Output=BNP_CN_reduced_sp.log
 Initial command:
 /public/software/gauss/g16/l1.exe "/public/home/baiding/1028_sp/tmp_BNP_CN_reduced_sp_1538822/Gau-42914.inp" -scrdir="/public/home/baiding/1028_sp/tmp_BNP_CN_reduced_sp_1538822/"
 Entering Link 1 = /public/software/gauss/g16/l1.exe PID=     42915.
  
 Copyright (c) 1988,1990,1992,1993,1995,1998,2003,2009,2016,
            Gaussian, Inc.  All Rights Reserved.
  
 This is part of the Gaussian(R) 16 program.  It is based on
 the Gaussian(R) 09 system (copyright 2009, Gaussian, Inc.),
 the Gaussian(R) 03 system (copyright 2003, Gaussian, Inc.),
 the Gaussian(R) 98 system (copyright 1998, Gaussian, Inc.),
 the Gaussian(R) 94 system (copyright 1995, Gaussian, Inc.),
 the Gaussian 92(TM) system (copyright 1992, Gaussian, Inc.),
 the Gaussian 90(TM) system (copyright 1990, Gaussian, Inc.),
 the Gaussian 88(TM) system (copyright 1988, Gaussian, Inc.),
 the Gaussian 86(TM) system (copyright 1986, Carnegie Mellon
 University), and the Gaussian 82(TM) system (copyright 1983,
 Carnegie Mellon University). Gaussian is a federally registered
 trademark of Gaussian, Inc.
  
 This software contains proprietary and confidential information,
 including trade secrets, belonging to Gaussian, Inc.
  
 This software is provided under written license and may be
 used, copied, transmitted, or stored only in accord with that
 written license.
  
 The following legend is applicable only to US Government
 contracts under FAR:
  
                    RESTRICTED RIGHTS LEGEND
  
 Use, reproduction and disclosure by the US Government is
 subject to restrictions as set forth in subparagraphs (a)
 and (c) of the Commercial Computer Software - Restricted
 Rights clause in FAR 52.227-19.
  
 Gaussian, Inc.
 340 Quinnipiac St., Bldg. 40, Wallingford CT 06492
  
  
 ---------------------------------------------------------------
 Warning -- This program may not be used in any manner that
 competes with the business of Gaussian, Inc. or will provide
 assistance to any competitor of Gaussian, Inc.  The licensee
 of this program is prohibited from giving any competitor of
 Gaussian, Inc. access to this program.  By using this program,
 the user acknowledges that Gaussian, Inc. is engaged in the
 business of creating and licensing software in the field of
 computational chemistry and represents and warrants to the
 licensee that it is not a competitor of Gaussian, Inc. and that
 it will not use this program in any manner prohibited above.
 ---------------------------------------------------------------
  

 Cite this work as:
 Gaussian 16, Revision A.03,
 M. J. Frisch, G. W. Trucks, H. B. Schlegel, G. E. Scuseria, 
 M. A. Robb, J. R. Cheeseman, G. Scalmani, V. Barone, 
 G. A. Petersson, H. Nakatsuji, X. Li, M. Caricato, A. V. Marenich, 
 J. Bloino, B. G. Janesko, R. Gomperts, B. Mennucci, H. P. Hratchian, 
 J. V. Ortiz, A. F. Izmaylov, J. L. Sonnenberg, D. Williams-Young, 
 F. Ding, F. Lipparini, F. Egidi, J. Goings, B. Peng, A. Petrone, 
 T. Henderson, D. Ranasinghe, V. G. Zakrzewski, J. Gao, N. Rega, 
 G. Zheng, W. Liang, M. Hada, M. Ehara, K. Toyota, R. Fukuda, 
 J. Hasegawa, M. Ishida, T. Nakajima, Y. Honda, O. Kitao, H. Nakai, 
 T. Vreven, K. Throssell, J. A. Montgomery, Jr., J. E. Peralta, 
 F. Ogliaro, M. J. Bearpark, J. J. Heyd, E. N. Brothers, K. N. Kudin, 
 V. N. Staroverov, T. A. Keith, R. Kobayashi, J. Normand, 
 K. Raghavachari, A. P. Rendell, J. C. Burant, S. S. Iyengar, 
 J. Tomasi, M. Cossi, J. M. Millam, M. Klene, C. Adamo, R. Cammi, 
 J. W. Ochterski, R. L. Martin, K. Morokuma, O. Farkas, 
 J. B. Foresman, and D. J. Fox, Gaussian, Inc., Wallingford CT, 2016.
 
 ******************************************
 Gaussian 16:  ES64L-G16RevA.03 25-Dec-2016
                28-Oct-2025 
 ******************************************
 %nprocshared=64
 Will use up to   64 processors via shared memory.
 %mem=230GB
 %chk=BNP_CN_reduced_sp.chk
 ----------------------------------------------
 #p M062X/DEF2TZVPP scrf=(solvent=water) em=GD3
 ----------------------------------------------
 1/38=1,172=1/1;
 2/12=2,17=6,18=5,40=1/2;
 3/5=44,7=202,11=2,25=1,30=1,70=2201,72=1,74=-55,124=31/1,2,3;
 4//1;
 5/5=2,38=5,53=1/2;
 6/7=2,8=2,9=2,10=2,28=1/1;
 99/5=1,9=1/99;
 Leave Link    1 at Tue Oct 28 18:03:02 2025, MaxMem= 30870077440 cpu:              14.8 elap:               0.2
 (Enter /public/software/gauss/g16/l101.exe)
 -------------------------------------
 Energy calculation for BNP_CN_reduced
 -------------------------------------
 Symbolic Z-matrix:
 Charge = -1 Multiplicity = 2
 C                    -2.83115  -3.63495   0.40111 
 C                    -1.61243  -2.78964   0.171 
 C                    -0.3195   -3.30473   0.15012 
 C                     0.59326  -2.24224   0.00869 
 C                     2.02659  -2.27696  -0.05775 
 C                     2.77983  -3.39862   0.10959 
 C                     4.22854  -3.47889   0.02734 
 C                     5.06125  -2.36813  -0.25133 
 C                     6.43752  -2.50174  -0.3164 
 C                     7.03687  -3.76047  -0.10465 
 C                     8.45411  -3.89876  -0.17281 
 N                     9.61522  -4.01189  -0.22862 
 C                     6.22823  -4.87846   0.17394 
 C                     4.85147  -4.73138   0.2369 
 N                    -0.12802  -1.06785  -0.07356 
 C                    -1.48497  -1.37005   0.00358 
 C                    -2.4552   -0.32692  -0.02583 
 C                    -3.89002  -0.64403  -0.01804 
 C                    -4.73889  -0.14081   0.99569 
 C                    -6.08946  -0.43675   1.01771 
 C                    -6.63692  -1.23248  -0.00588 
 N                    -8.0245   -1.52966   0.00082 
 O                    -8.74991  -1.06268   0.91937 
 O                    -8.50477  -2.25435  -0.91145 
 C                    -5.82041  -1.73437  -1.03645 
 C                    -4.46734  -1.45006  -1.0273 
 C                    -2.0315    1.03009  -0.07261 
 C                    -2.75814   2.24354  -0.3158 
 C                    -4.21212   2.45335  -0.62263 
 C                    -1.81986   3.27121  -0.30938 
 C                    -0.5397    2.72036  -0.10246 
 C                     0.7355    3.38789  -0.04044 
 C                     0.89104   4.73697  -0.03738 
 C                     2.15435   5.46795   0.0165 
 C                     2.12381   6.87642  -0.05909 
 C                     3.2959    7.62905  -0.01806 
 C                     4.53396   6.99369   0.10323 
 C                     4.58378   5.59718   0.18502 
 C                     3.4148    4.84342   0.14347 
 N                    -0.68047   1.35634   0.02329 
 B                     0.46139   0.33564   0.19213 
 F                     1.00418   0.39843   1.49065 
 F                     1.49539   0.61024  -0.73044 
 H                    -3.51745  -3.17789   1.11975 
 H                    -3.40434  -3.8195   -0.51347 
 H                    -2.52456  -4.60743   0.7976 
 H                    -0.05859  -4.35152   0.23285 
 H                     2.51257  -1.33141  -0.27171 
 H                     2.27988  -4.33994   0.32817 
 H                     4.62471  -1.38955  -0.41859 
 H                     7.06105  -1.6404   -0.53135 
 H                     6.68634  -5.84812   0.33753 
 H                     4.23252  -5.59722   0.45254 
 H                    -4.31378   0.46565   1.78841 
 H                    -6.72621  -0.07436   1.81444 
 H                    -6.25911  -2.32562  -1.82981 
 H                    -3.83984  -1.82489  -1.82875 
 H                    -4.84769   2.40634   0.26809 
 H                    -4.34816   3.44187  -1.07126 
 H                    -4.59525   1.7071   -1.32473 
 H                    -2.03285   4.31803  -0.48009 
 H                     1.60999   2.74823  -0.00532 
 H                     0.00373   5.36595  -0.08219 
 H                     1.16365   7.37684  -0.1542 
 H                     3.24255   8.71216  -0.08051 
 H                     5.44929   7.5768    0.13612 
 H                     5.54143   5.09404   0.28399 
 H                     3.47976   3.76225   0.21528 
 
 ITRead=  0  0  0  0  0  0  0  0  0  0  0  0  0  0  0  0  0  0  0  0
 ITRead=  0  0  0  0  0  0  0  0  0  0  0  0  0  0  0  0  0  0  0  0
 ITRead=  0  0  0  0  0  0  0  0  0  0  0  0  0  0  0  0  0  0  0  0
 ITRead=  0  0  0  0  0  0  0  0
 MicOpt= -1 -1 -1 -1 -1 -1 -1 -1 -1 -1 -1 -1 -1 -1 -1 -1 -1 -1 -1 -1
 MicOpt= -1 -1 -1 -1 -1 -1 -1 -1 -1 -1 -1 -1 -1 -1 -1 -1 -1 -1 -1 -1
 MicOpt= -1 -1 -1 -1 -1 -1 -1 -1 -1 -1 -1 -1 -1 -1 -1 -1 -1 -1 -1 -1
 MicOpt= -1 -1 -1 -1 -1 -1 -1 -1
 NAtoms=     68 NQM=       68 NQMF=       0 NMMI=      0 NMMIF=      0
                NMic=       0 NMicF=      0.
                    Isotopes and Nuclear Properties:
 (Nuclear quadrupole moments (NQMom) in fm**2, nuclear magnetic moments (NMagM)
  in nuclear magnetons)

  Atom         1           2           3           4           5           6           7           8           9          10
 IAtWgt=          12          12          12          12          12          12          12          12          12          12
 AtmWgt=  12.0000000  12.0000000  12.0000000  12.0000000  12.0000000  12.0000000  12.0000000  12.0000000  12.0000000  12.0000000
 NucSpn=           0           0           0           0           0           0           0           0           0           0
 AtZEff=  -0.0000000  -0.0000000  -0.0000000  -0.0000000  -0.0000000  -0.0000000  -0.0000000  -0.0000000  -0.0000000  -0.0000000
 NQMom=    0.0000000   0.0000000   0.0000000   0.0000000   0.0000000   0.0000000   0.0000000   0.0000000   0.0000000   0.0000000
 NMagM=    0.0000000   0.0000000   0.0000000   0.0000000   0.0000000   0.0000000   0.0000000   0.0000000   0.0000000   0.0000000
 AtZNuc=   6.0000000   6.0000000   6.0000000   6.0000000   6.0000000   6.0000000   6.0000000   6.0000000   6.0000000   6.0000000

  Atom        11          12          13          14          15          16          17          18          19          20
 IAtWgt=          12          14          12          12          14          12          12          12          12          12
 AtmWgt=  12.0000000  14.0030740  12.0000000  12.0000000  14.0030740  12.0000000  12.0000000  12.0000000  12.0000000  12.0000000
 NucSpn=           0           2           0           0           2           0           0           0           0           0
 AtZEff=  -0.0000000  -0.0000000  -0.0000000  -0.0000000  -0.0000000  -0.0000000  -0.0000000  -0.0000000  -0.0000000  -0.0000000
 NQMom=    0.0000000   2.0440000   0.0000000   0.0000000   2.0440000   0.0000000   0.0000000   0.0000000   0.0000000   0.0000000
 NMagM=    0.0000000   0.4037610   0.0000000   0.0000000   0.4037610   0.0000000   0.0000000   0.0000000   0.0000000   0.0000000
 AtZNuc=   6.0000000   7.0000000   6.0000000   6.0000000   7.0000000   6.0000000   6.0000000   6.0000000   6.0000000   6.0000000

  Atom        21          22          23          24          25          26          27          28          29          30
 IAtWgt=          12          14          16          16          12          12          12          12          12          12
 AtmWgt=  12.0000000  14.0030740  15.9949146  15.9949146  12.0000000  12.0000000  12.0000000  12.0000000  12.0000000  12.0000000
 NucSpn=           0           2           0           0           0           0           0           0           0           0
 AtZEff=  -0.0000000  -0.0000000  -0.0000000  -0.0000000  -0.0000000  -0.0000000  -0.0000000  -0.0000000  -0.0000000  -0.0000000
 NQMom=    0.0000000   2.0440000   0.0000000   0.0000000   0.0000000   0.0000000   0.0000000   0.0000000   0.0000000   0.0000000
 NMagM=    0.0000000   0.4037610   0.0000000   0.0000000   0.0000000   0.0000000   0.0000000   0.0000000   0.0000000   0.0000000
 AtZNuc=   6.0000000   7.0000000   8.0000000   8.0000000   6.0000000   6.0000000   6.0000000   6.0000000   6.0000000   6.0000000

  Atom        31          32          33          34          35          36          37          38          39          40
 IAtWgt=          12          12          12          12          12          12          12          12          12          14
 AtmWgt=  12.0000000  12.0000000  12.0000000  12.0000000  12.0000000  12.0000000  12.0000000  12.0000000  12.0000000  14.0030740
 NucSpn=           0           0           0           0           0           0           0           0           0           2
 AtZEff=  -0.0000000  -0.0000000  -0.0000000  -0.0000000  -0.0000000  -0.0000000  -0.0000000  -0.0000000  -0.0000000  -0.0000000
 NQMom=    0.0000000   0.0000000   0.0000000   0.0000000   0.0000000   0.0000000   0.0000000   0.0000000   0.0000000   2.0440000
 NMagM=    0.0000000   0.0000000   0.0000000   0.0000000   0.0000000   0.0000000   0.0000000   0.0000000   0.0000000   0.4037610
 AtZNuc=   6.0000000   6.0000000   6.0000000   6.0000000   6.0000000   6.0000000   6.0000000   6.0000000   6.0000000   7.0000000

  Atom        41          42          43          44          45          46          47          48          49          50
 IAtWgt=          11          19          19           1           1           1           1           1           1           1
 AtmWgt=  11.0093053  18.9984033  18.9984033   1.0078250   1.0078250   1.0078250   1.0078250   1.0078250   1.0078250   1.0078250
 NucSpn=           3           1           1           1           1           1           1           1           1           1
 AtZEff=  -0.0000000  -0.0000000  -0.0000000  -0.0000000  -0.0000000  -0.0000000  -0.0000000  -0.0000000  -0.0000000  -0.0000000
 NQMom=    4.0590000   0.0000000   0.0000000   0.0000000   0.0000000   0.0000000   0.0000000   0.0000000   0.0000000   0.0000000
 NMagM=    2.6886370   2.6288670   2.6288670   2.7928460   2.7928460   2.7928460   2.7928460   2.7928460   2.7928460   2.7928460
 AtZNuc=   5.0000000   9.0000000   9.0000000   1.0000000   1.0000000   1.0000000   1.0000000   1.0000000   1.0000000   1.0000000

  Atom        51          52          53          54          55          56          57          58          59          60
 IAtWgt=           1           1           1           1           1           1           1           1           1           1
 AtmWgt=   1.0078250   1.0078250   1.0078250   1.0078250   1.0078250   1.0078250   1.0078250   1.0078250   1.0078250   1.0078250
 NucSpn=           1           1           1           1           1           1           1           1           1           1
 AtZEff=  -0.0000000  -0.0000000  -0.0000000  -0.0000000  -0.0000000  -0.0000000  -0.0000000  -0.0000000  -0.0000000  -0.0000000
 NQMom=    0.0000000   0.0000000   0.0000000   0.0000000   0.0000000   0.0000000   0.0000000   0.0000000   0.0000000   0.0000000
 NMagM=    2.7928460   2.7928460   2.7928460   2.7928460   2.7928460   2.7928460   2.7928460   2.7928460   2.7928460   2.7928460
 AtZNuc=   1.0000000   1.0000000   1.0000000   1.0000000   1.0000000   1.0000000   1.0000000   1.0000000   1.0000000   1.0000000

  Atom        61          62          63          64          65          66          67          68
 IAtWgt=           1           1           1           1           1           1           1           1
 AtmWgt=   1.0078250   1.0078250   1.0078250   1.0078250   1.0078250   1.0078250   1.0078250   1.0078250
 NucSpn=           1           1           1           1           1           1           1           1
 AtZEff=  -0.0000000  -0.0000000  -0.0000000  -0.0000000  -0.0000000  -0.0000000  -0.0000000  -0.0000000
 NQMom=    0.0000000   0.0000000   0.0000000   0.0000000   0.0000000   0.0000000   0.0000000   0.0000000
 NMagM=    2.7928460   2.7928460   2.7928460   2.7928460   2.7928460   2.7928460   2.7928460   2.7928460
 AtZNuc=   1.0000000   1.0000000   1.0000000   1.0000000   1.0000000   1.0000000   1.0000000   1.0000000
 Leave Link  101 at Tue Oct 28 18:03:02 2025, MaxMem= 30870077440 cpu:               4.9 elap:               0.1
 (Enter /public/software/gauss/g16/l202.exe)
 Stoichiometry    C34H25BF2N4O2(1-,2)
 Framework group  C1[X(C34H25BF2N4O2)]
 Deg. of freedom   198
 Full point group                 C1      NOp   1
 Largest Abelian subgroup         C1      NOp   1
 Largest concise Abelian subgroup C1      NOp   1
                         Standard orientation:                         
 ---------------------------------------------------------------------
 Center     Atomic      Atomic             Coordinates (Angstroms)
 Number     Number       Type             X           Y           Z
 ---------------------------------------------------------------------
      1          6           0       -2.831150   -3.634953    0.401109
      2          6           0       -1.612430   -2.789640    0.170997
      3          6           0       -0.319499   -3.304729    0.150116
      4          6           0        0.593258   -2.242243    0.008686
      5          6           0        2.026586   -2.276956   -0.057749
      6          6           0        2.779825   -3.398622    0.109589
      7          6           0        4.228541   -3.478887    0.027343
      8          6           0        5.061253   -2.368127   -0.251326
      9          6           0        6.437525   -2.501742   -0.316400
     10          6           0        7.036866   -3.760473   -0.104648
     11          6           0        8.454115   -3.898755   -0.172806
     12          7           0        9.615222   -4.011886   -0.228618
     13          6           0        6.228225   -4.878456    0.173943
     14          6           0        4.851465   -4.731383    0.236902
     15          7           0       -0.128016   -1.067846   -0.073562
     16          6           0       -1.484970   -1.370053    0.003577
     17          6           0       -2.455204   -0.326920   -0.025832
     18          6           0       -3.890018   -0.644032   -0.018036
     19          6           0       -4.738893   -0.140805    0.995692
     20          6           0       -6.089461   -0.436754    1.017714
     21          6           0       -6.636921   -1.232478   -0.005877
     22          7           0       -8.024499   -1.529662    0.000824
     23          8           0       -8.749909   -1.062682    0.919370
     24          8           0       -8.504767   -2.254347   -0.911445
     25          6           0       -5.820411   -1.734368   -1.036447
     26          6           0       -4.467343   -1.450060   -1.027296
     27          6           0       -2.031501    1.030094   -0.072607
     28          6           0       -2.758140    2.243539   -0.315803
     29          6           0       -4.212120    2.453353   -0.622633
     30          6           0       -1.819856    3.271213   -0.309380
     31          6           0       -0.539697    2.720355   -0.102455
     32          6           0        0.735500    3.387889   -0.040440
     33          6           0        0.891035    4.736965   -0.037383
     34          6           0        2.154346    5.467946    0.016495
     35          6           0        2.123812    6.876419   -0.059094
     36          6           0        3.295904    7.629048   -0.018057
     37          6           0        4.533956    6.993692    0.103227
     38          6           0        4.583775    5.597177    0.185024
     39          6           0        3.414802    4.843420    0.143474
     40          7           0       -0.680472    1.356335    0.023285
     41          5           0        0.461393    0.335636    0.192133
     42          9           0        1.004176    0.398433    1.490653
     43          9           0        1.495391    0.610236   -0.730436
     44          1           0       -3.517450   -3.177892    1.119754
     45          1           0       -3.404338   -3.819501   -0.513470
     46          1           0       -2.524560   -4.607428    0.797595
     47          1           0       -0.058589   -4.351515    0.232852
     48          1           0        2.512574   -1.331413   -0.271714
     49          1           0        2.279883   -4.339941    0.328171
     50          1           0        4.624712   -1.389550   -0.418589
     51          1           0        7.061051   -1.640396   -0.531351
     52          1           0        6.686342   -5.848123    0.337527
     53          1           0        4.232518   -5.597223    0.452535
     54          1           0       -4.313778    0.465654    1.788408
     55          1           0       -6.726207   -0.074358    1.814443
     56          1           0       -6.259113   -2.325621   -1.829810
     57          1           0       -3.839842   -1.824889   -1.828753
     58          1           0       -4.847691    2.406337    0.268086
     59          1           0       -4.348156    3.441868   -1.071259
     60          1           0       -4.595246    1.707095   -1.324726
     61          1           0       -2.032850    4.318028   -0.480091
     62          1           0        1.609994    2.748229   -0.005318
     63          1           0        0.003730    5.365947   -0.082192
     64          1           0        1.163653    7.376844   -0.154200
     65          1           0        3.242548    8.712164   -0.080505
     66          1           0        5.449294    7.576795    0.136119
     67          1           0        5.541428    5.094037    0.283986
     68          1           0        3.479760    3.762251    0.215276
 ---------------------------------------------------------------------
 Rotational constants (GHZ):           0.0761841           0.0413563           0.0272810
 Leave Link  202 at Tue Oct 28 18:03:02 2025, MaxMem= 30870077440 cpu:               0.2 elap:               0.0
 (Enter /public/software/gauss/g16/l301.exe)
 Standard basis: def2TZVPP (5D, 7F)
 Ernie: Thresh=  0.10000D-02 Tol=  0.10000D-05 Strict=F.
 There are  1923 symmetry adapted cartesian basis functions of A   symmetry.
 There are  1683 symmetry adapted basis functions of A   symmetry.
  1683 basis functions,  2618 primitive gaussians,  1923 cartesian basis functions
   149 alpha electrons      148 beta electrons
       nuclear repulsion energy      4477.2663963706 Hartrees.
 IExCor= 4336 DFT=T Ex+Corr=M062X ExCW=0 ScaHFX=  0.540000
 ScaDFX=  1.000000  1.000000  1.000000  1.000000 ScalE2=  1.000000  1.000000
 IRadAn=      5 IRanWt=     -1 IRanGd=            0 ICorTp=0 IEmpDi=131
 NAtoms=   68 NActive=   68 NUniq=   68 SFac= 1.00D+00 NAtFMM=   60 NAOKFM=T Big=T
 Integral buffers will be    131072 words long.
 Raffenetti 2 integral format.
 Two-electron integral symmetry is turned on.
 R6Disp:  Grimme-D3 Dispersion energy=       -0.0054511476 Hartrees.
 Nuclear repulsion after empirical dispersion term =     4477.2609452230 Hartrees.
 ------------------------------------------------------------------------------
 Polarizable Continuum Model (PCM)
 =================================
 Model                : PCM.
 Atomic radii         : UFF (Universal Force Field).
 Polarization charges : Total charges.
 Charge compensation  : None.
 Solution method      : On-the-fly selection.
 Cavity type          : Scaled VdW (van der Waals Surface) (Alpha=1.100).
 Cavity algorithm     : GePol (No added spheres)
                        Default sphere list used, NSphG=   68.
                        Lebedev-Laikov grids with approx.  5.0 points / Ang**2.
                        Smoothing algorithm: York/Karplus (Gamma=1.0000).
                        Polarization charges: spherical gaussians, with
                                              point-specific exponents (IZeta= 3).
                        Self-potential: point-specific (ISelfS= 7).
                        Self-field    : sphere-specific E.n sum rule (ISelfD= 2).
 Solvent              : Water, Eps=  78.355300 Eps(inf)=   1.777849
 ------------------------------------------------------------------------------
 GePol: Number of generator spheres                  =      68
 GePol: Total number of spheres                      =      68
 GePol: Number of exposed spheres                    =      68 (100.00%)
 GePol: Number of points                             =    5120
 GePol: Average weight of points                     =       0.13
 GePol: Minimum weight of points                     =   0.12D-11
 GePol: Maximum weight of points                     =    0.20577
 GePol: Number of points with low weight             =     325
 GePol: Fraction of low-weight points (<1% of avg)   =       6.35%
 GePol: Cavity surface area                          =    651.820 Ang**2
 GePol: Cavity volume                                =    750.714 Ang**3
 Leave Link  301 at Tue Oct 28 18:03:03 2025, MaxMem= 30870077440 cpu:               3.7 elap:               0.1
 (Enter /public/software/gauss/g16/l302.exe)
 NPDir=0 NMtPBC=     1 NCelOv=     1 NCel=       1 NClECP=     1 NCelD=      1
         NCelK=      1 NCelE2=     1 NClLst=     1 CellRange=     0.0.
 One-electron integrals computed using PRISM.
 One-electron integral symmetry used in STVInt
   1 Symmetry operations used in ECPInt.
 ECPInt:  NShTT=  194376 NPrTT=  563351 LenC2=  126029 LenP2D=  245742.
 LDataN:  DoStor=T MaxTD1= 6 Len=  172
 NBasis=  1683 RedAO= T EigKep=  5.39D-06  NBF=  1683
 NBsUse=  1683 1.00D-06 EigRej= -1.00D+00 NBFU=  1683
 Precomputing XC quadrature grid using
 IXCGrd= 4 IRadAn=           5 IRanWt=          -1 IRanGd=           0 AccXCQ= 0.00D+00.
 Generated NRdTot=       0 NPtTot=           0 NUsed=           0 NTot=          32
 NSgBfM=  1712  1712  1712  1712  1712 MxSgAt=    68 MxSgA2=    68.
 Leave Link  302 at Tue Oct 28 18:03:10 2025, MaxMem= 30870077440 cpu:             474.8 elap:               7.5
 (Enter /public/software/gauss/g16/l303.exe)
 DipDrv:  MaxL=1.
 Leave Link  303 at Tue Oct 28 18:03:11 2025, MaxMem= 30870077440 cpu:              23.5 elap:               0.4
 (Enter /public/software/gauss/g16/l401.exe)
 ExpMin= 6.06D-02 ExpMax= 3.55D+04 ExpMxC= 1.21D+03 IAcc=3 IRadAn=         5 AccDes= 0.00D+00
 Harris functional with IExCor= 1009 and IRadAn=       5 diagonalized for initial guess.
 HarFok:  IExCor= 1009 AccDes= 0.00D+00 IRadAn=         5 IDoV= 1 UseB2=F ITyADJ=14
 ICtDFT=  3500011 ScaDFX=  1.000000  1.000000  1.000000  1.000000
 FoFCou: FMM=F IPFlag=           0 FMFlag=      100000 FMFlg1=        2001
         NFxFlg=           0 DoJE=T BraDBF=F KetDBF=T FulRan=T
         wScrn=  0.000000 ICntrl=       500 IOpCl=  0 I1Cent=   200000004 NGrid=           0
         NMat0=    1 NMatS0=      1 NMatT0=    0 NMatD0=    1 NMtDS0=    0 NMtDT0=    0
 Petite list used in FoFCou.
 Harris En= -1903.97862933375    
 JPrj=0 DoOrth=F DoCkMO=F.
 Initial guess <Sx>= 0.0000 <Sy>= 0.0000 <Sz>= 0.5000 <S**2>= 0.7500 S= 0.5000
 Leave Link  401 at Tue Oct 28 18:03:20 2025, MaxMem= 30870077440 cpu:             584.6 elap:               9.2
 (Enter /public/software/gauss/g16/l502.exe)
 Integral symmetry usage will be decided dynamically.
 UHF open shell SCF:
 Using DIIS extrapolation, IDIIS=  1040.
 NGot= 30870077440 LenX= 30862542386 LenY= 30858842534
 Requested convergence on RMS density matrix=1.00D-08 within 128 cycles.
 Requested convergence on MAX density matrix=1.00D-06.
 Requested convergence on             energy=1.00D-06.
 No special actions if energy rises.
 Fock matrices will be formed incrementally for  20 cycles.

 Cycle   1  Pass 1  IDiag  1:
 FoFJK:  IHMeth= 1 ICntrl=       0 DoSepK=F KAlg= 0 I1Cent=           0 FoldK=F
 IRaf= 620000000 NMat=       1 IRICut=       1 DoRegI=T DoRafI=F ISym2E= 0 IDoP0=0 IntGTp=1.
 FoFCou: FMM=T IPFlag=           0 FMFlag=      100000 FMFlg1=        2001
         NFxFlg=           0 DoJE=F BraDBF=F KetDBF=F FulRan=T
         wScrn=  0.000000 ICntrl=         0 IOpCl=  1 I1Cent=           0 NGrid=           0
         NMat0=    1 NMatS0=      1 NMatT0=    0 NMatD0=    1 NMtDS0=    0 NMtDT0=    0
 Symmetry not used in FoFCou.
 FMM levels:  10  Number of levels for PrismC:   9
 Inv3:  Mode=1 IEnd=    78643200.
 Iteration    1 A*A^-1 deviation from unit magnitude is 7.77D-15 for   2026.
 Iteration    1 A*A^-1 deviation from orthogonality  is 3.48D-15 for   2022   1113.
 Iteration    1 A^-1*A deviation from unit magnitude is 6.88D-15 for   5087.
 Iteration    1 A^-1*A deviation from orthogonality  is 2.26D-15 for   5107   5099.
 E= -1903.84023034431    
 DIIS: error= 3.13D-02 at cycle   1 NSaved=   1.
 NSaved= 1 IEnMin= 1 EnMin= -1903.84023034431     IErMin= 1 ErrMin= 3.13D-02
 ErrMax= 3.13D-02  0.00D+00 EMaxC= 1.00D-01 BMatC= 5.31D+00 BMatP= 5.31D+00
 IDIUse=3 WtCom= 6.87D-01 WtEn= 3.13D-01
 Coeff-Com:  0.100D+01
 Coeff-En:   0.100D+01
 Coeff:      0.100D+01
 Gap=     0.114 Goal=   None    Shift=    0.000
 Gap=     0.125 Goal=   None    Shift=    0.000
 GapD=    0.114 DampG=1.000 DampE=0.500 DampFc=0.5000 IDamp=-1.
 Damping current iteration by 5.00D-01
 RMSDP=1.57D-03 MaxDP=2.93D-01              OVMax= 7.44D-01

 Cycle   2  Pass 1  IDiag  1:
 RMSU=  7.84D-04    CP:  9.85D-01
 E= -1904.32605743361     Delta-E=       -0.485827089299 Rises=F Damp=T
 DIIS: error= 8.13D-03 at cycle   2 NSaved=   2.
 NSaved= 2 IEnMin= 2 EnMin= -1904.32605743361     IErMin= 2 ErrMin= 8.13D-03
 ErrMax= 8.13D-03  0.00D+00 EMaxC= 1.00D-01 BMatC= 5.62D-01 BMatP= 5.31D+00
 IDIUse=3 WtCom= 9.19D-01 WtEn= 8.13D-02
 Coeff-Com: -0.560D-01 0.106D+01
 Coeff-En:   0.000D+00 0.100D+01
 Coeff:     -0.515D-01 0.105D+01
 Gap=     0.019 Goal=   None    Shift=    0.000
 Gap=     0.224 Goal=   None    Shift=    0.000
 RMSDP=7.30D-04 MaxDP=9.67D-02 DE=-4.86D-01 OVMax= 6.79D-01

 Cycle   3  Pass 1  IDiag  1:
 RMSU=  6.71D-04    CP:  9.79D-01  1.36D+00
 E= -1904.78350413128     Delta-E=       -0.457446697672 Rises=F Damp=F
 DIIS: error= 1.96D-02 at cycle   3 NSaved=   3.
 NSaved= 3 IEnMin= 3 EnMin= -1904.78350413128     IErMin= 2 ErrMin= 8.13D-03
 ErrMax= 1.96D-02  0.00D+00 EMaxC= 1.00D-01 BMatC= 4.37D-01 BMatP= 5.62D-01
 IDIUse=3 WtCom= 8.04D-01 WtEn= 1.96D-01
 Coeff-Com: -0.120D+00 0.540D+00 0.580D+00
 Coeff-En:   0.000D+00 0.000D+00 0.100D+01
 Coeff:     -0.965D-01 0.435D+00 0.662D+00
 Gap=     0.060 Goal=   None    Shift=    0.000
 Gap=     0.134 Goal=   None    Shift=    0.000
 RMSDP=2.98D-04 MaxDP=6.25D-02 DE=-4.57D-01 OVMax= 2.16D-01

 Cycle   4  Pass 1  IDiag  1:
 RMSU=  2.67D-04    CP:  9.72D-01  1.35D+00  8.10D-01
 E= -1904.85420678042     Delta-E=       -0.070702649139 Rises=F Damp=F
 DIIS: error= 8.79D-03 at cycle   4 NSaved=   4.
 NSaved= 4 IEnMin= 4 EnMin= -1904.85420678042     IErMin= 2 ErrMin= 8.13D-03
 ErrMax= 8.79D-03  0.00D+00 EMaxC= 1.00D-01 BMatC= 1.05D-01 BMatP= 4.37D-01
 IDIUse=3 WtCom= 9.12D-01 WtEn= 8.79D-02
 Coeff-Com: -0.279D-01 0.868D-01 0.354D+00 0.587D+00
 Coeff-En:   0.000D+00 0.000D+00 0.196D+00 0.804D+00
 Coeff:     -0.255D-01 0.792D-01 0.340D+00 0.606D+00
 Gap=     0.079 Goal=   None    Shift=    0.000
 Gap=     0.136 Goal=   None    Shift=    0.000
 RMSDP=1.31D-04 MaxDP=5.12D-02 DE=-7.07D-02 OVMax= 1.07D-01

 Cycle   5  Pass 1  IDiag  1:
 RMSU=  9.64D-05    CP:  9.73D-01  1.36D+00  8.91D-01  7.38D-01
 E= -1904.87562551808     Delta-E=       -0.021418737660 Rises=F Damp=F
 DIIS: error= 9.38D-04 at cycle   5 NSaved=   5.
 NSaved= 5 IEnMin= 5 EnMin= -1904.87562551808     IErMin= 5 ErrMin= 9.38D-04
 ErrMax= 9.38D-04  0.00D+00 EMaxC= 1.00D-01 BMatC= 5.48D-03 BMatP= 1.05D-01
 IDIUse=3 WtCom= 9.91D-01 WtEn= 9.38D-03
 Coeff-Com: -0.603D-02 0.905D-02 0.128D+00 0.306D+00 0.563D+00
 Coeff-En:   0.000D+00 0.000D+00 0.000D+00 0.000D+00 0.100D+01
 Coeff:     -0.597D-02 0.897D-02 0.127D+00 0.303D+00 0.567D+00
 Gap=     0.083 Goal=   None    Shift=    0.000
 Gap=     0.134 Goal=   None    Shift=    0.000
 RMSDP=4.89D-05 MaxDP=1.73D-02 DE=-2.14D-02 OVMax= 1.75D-02

 Cycle   6  Pass 1  IDiag  1:
 RMSU=  4.20D-05    CP:  9.72D-01  1.35D+00  8.81D-01  8.14D-01  8.96D-01
 E= -1904.87708253942     Delta-E=       -0.001457021345 Rises=F Damp=F
 DIIS: error= 3.85D-04 at cycle   6 NSaved=   6.
 NSaved= 6 IEnMin= 6 EnMin= -1904.87708253942     IErMin= 6 ErrMin= 3.85D-04
 ErrMax= 3.85D-04  0.00D+00 EMaxC= 1.00D-01 BMatC= 5.55D-04 BMatP= 5.48D-03
 IDIUse=3 WtCom= 9.96D-01 WtEn= 3.85D-03
 Coeff-Com:  0.866D-03-0.512D-02 0.163D-02 0.414D-01 0.248D+00 0.713D+00
 Coeff-En:   0.000D+00 0.000D+00 0.000D+00 0.000D+00 0.000D+00 0.100D+01
 Coeff:      0.863D-03-0.510D-02 0.162D-02 0.412D-01 0.247D+00 0.715D+00
 Gap=     0.087 Goal=   None    Shift=    0.000
 Gap=     0.135 Goal=   None    Shift=    0.000
 RMSDP=2.92D-05 MaxDP=1.31D-02 DE=-1.46D-03 OVMax= 2.41D-02

 Cycle   7  Pass 1  IDiag  1:
 RMSU=  1.57D-05    CP:  9.72D-01  1.36D+00  8.90D-01  8.11D-01  1.13D+00
                    CP:  1.17D+00
 E= -1904.87740554072     Delta-E=       -0.000323001294 Rises=F Damp=F
 DIIS: error= 2.23D-04 at cycle   7 NSaved=   7.
 NSaved= 7 IEnMin= 7 EnMin= -1904.87740554072     IErMin= 7 ErrMin= 2.23D-04
 ErrMax= 2.23D-04  0.00D+00 EMaxC= 1.00D-01 BMatC= 1.53D-04 BMatP= 5.55D-04
 IDIUse=3 WtCom= 9.98D-01 WtEn= 2.23D-03
 Coeff-Com:  0.146D-02-0.366D-02-0.298D-01-0.457D-01-0.239D-03 0.329D+00
 Coeff-Com:  0.749D+00
 Coeff-En:   0.000D+00 0.000D+00 0.000D+00 0.000D+00 0.000D+00 0.000D+00
 Coeff-En:   0.100D+01
 Coeff:      0.146D-02-0.365D-02-0.297D-01-0.456D-01-0.239D-03 0.328D+00
 Coeff:      0.750D+00
 Gap=     0.090 Goal=   None    Shift=    0.000
 Gap=     0.135 Goal=   None    Shift=    0.000
 RMSDP=2.08D-05 MaxDP=4.80D-03 DE=-3.23D-04 OVMax= 1.77D-02

 Cycle   8  Pass 1  IDiag  1:
 RMSU=  8.44D-06    CP:  9.72D-01  1.35D+00  8.91D-01  8.30D-01  1.25D+00
                    CP:  1.46D+00  1.49D+00
 E= -1904.87755579227     Delta-E=       -0.000150251548 Rises=F Damp=F
 DIIS: error= 1.74D-04 at cycle   8 NSaved=   8.
 NSaved= 8 IEnMin= 8 EnMin= -1904.87755579227     IErMin= 8 ErrMin= 1.74D-04
 ErrMax= 1.74D-04  0.00D+00 EMaxC= 1.00D-01 BMatC= 4.36D-05 BMatP= 1.53D-04
 IDIUse=3 WtCom= 9.98D-01 WtEn= 1.74D-03
 Coeff-Com: -0.336D-03 0.153D-02-0.102D-01-0.200D-01-0.600D-01-0.104D+00
 Coeff-Com:  0.170D+00 0.102D+01
 Coeff-En:   0.000D+00 0.000D+00 0.000D+00 0.000D+00 0.000D+00 0.000D+00
 Coeff-En:   0.000D+00 0.100D+01
 Coeff:     -0.336D-03 0.152D-02-0.102D-01-0.200D-01-0.599D-01-0.104D+00
 Coeff:      0.170D+00 0.102D+01
 Gap=     0.091 Goal=   None    Shift=    0.000
 Gap=     0.136 Goal=   None    Shift=    0.000
 RMSDP=1.88D-05 MaxDP=5.13D-03 DE=-1.50D-04 OVMax= 1.93D-02

 Cycle   9  Pass 1  IDiag  1:
 RMSU=  5.66D-06    CP:  9.72D-01  1.35D+00  8.93D-01  8.35D-01  1.34D+00
                    CP:  1.66D+00  2.14D+00  1.86D+00
 E= -1904.87764755129     Delta-E=       -0.000091759027 Rises=F Damp=F
 DIIS: error= 9.26D-05 at cycle   9 NSaved=   9.
 NSaved= 9 IEnMin= 9 EnMin= -1904.87764755129     IErMin= 9 ErrMin= 9.26D-05
 ErrMax= 9.26D-05  0.00D+00 EMaxC= 1.00D-01 BMatC= 2.20D-05 BMatP= 4.36D-05
 IDIUse=1 WtCom= 1.00D+00 WtEn= 0.00D+00
 Coeff-Com: -0.669D-03 0.174D-02 0.455D-02 0.103D-01-0.117D-01-0.136D+00
 Coeff-Com: -0.260D+00 0.399D+00 0.993D+00
 Coeff:     -0.669D-03 0.174D-02 0.455D-02 0.103D-01-0.117D-01-0.136D+00
 Coeff:     -0.260D+00 0.399D+00 0.993D+00
 Gap=     0.093 Goal=   None    Shift=    0.000
 Gap=     0.136 Goal=   None    Shift=    0.000
 RMSDP=1.55D-05 MaxDP=3.71D-03 DE=-9.18D-05 OVMax= 1.70D-02

 Cycle  10  Pass 1  IDiag  1:
 RMSU=  3.45D-06    CP:  9.72D-01  1.35D+00  8.94D-01  8.36D-01  1.41D+00
                    CP:  1.80D+00  2.64D+00  2.85D+00  1.88D+00
 E= -1904.87770142467     Delta-E=       -0.000053873374 Rises=F Damp=F
 DIIS: error= 7.59D-05 at cycle  10 NSaved=  10.
 NSaved=10 IEnMin=10 EnMin= -1904.87770142467     IErMin=10 ErrMin= 7.59D-05
 ErrMax= 7.59D-05  0.00D+00 EMaxC= 1.00D-01 BMatC= 9.80D-06 BMatP= 2.20D-05
 IDIUse=1 WtCom= 1.00D+00 WtEn= 0.00D+00
 Coeff-Com: -0.206D-03 0.255D-03 0.489D-02 0.131D-01 0.213D-01-0.191D-01
 Coeff-Com: -0.221D+00-0.143D+00 0.474D+00 0.870D+00
 Coeff:     -0.206D-03 0.255D-03 0.489D-02 0.131D-01 0.213D-01-0.191D-01
 Coeff:     -0.221D+00-0.143D+00 0.474D+00 0.870D+00
 Gap=     0.093 Goal=   None    Shift=    0.000
 Gap=     0.135 Goal=   None    Shift=    0.000
 RMSDP=1.05D-05 MaxDP=1.64D-03 DE=-5.39D-05 OVMax= 1.23D-02

 Cycle  11  Pass 1  IDiag  1:
 RMSU=  5.51D-06    CP:  9.72D-01  1.35D+00  8.94D-01  8.36D-01  1.43D+00
                    CP:  1.88D+00  2.93D+00  3.00D+00  2.66D+00  1.82D+00
 E= -1904.87772887570     Delta-E=       -0.000027451030 Rises=F Damp=F
 DIIS: error= 4.49D-05 at cycle  11 NSaved=  11.
 NSaved=11 IEnMin=11 EnMin= -1904.87772887570     IErMin=11 ErrMin= 4.49D-05
 ErrMax= 4.49D-05  0.00D+00 EMaxC= 1.00D-01 BMatC= 4.23D-06 BMatP= 9.80D-06
 IDIUse=1 WtCom= 1.00D+00 WtEn= 0.00D+00
 Coeff-Com:  0.235D-03-0.704D-03-0.136D-02 0.130D-03 0.190D-01 0.767D-01
 Coeff-Com:  0.246D-01-0.238D+00-0.369D+00 0.385D+00 0.110D+01
 Coeff:      0.235D-03-0.704D-03-0.136D-02 0.130D-03 0.190D-01 0.767D-01
 Coeff:      0.246D-01-0.238D+00-0.369D+00 0.385D+00 0.110D+01
 Gap=     0.094 Goal=   None    Shift=    0.000
 Gap=     0.135 Goal=   None    Shift=    0.000
 RMSDP=9.93D-06 MaxDP=1.68D-03 DE=-2.75D-05 OVMax= 1.24D-02

 Cycle  12  Pass 1  IDiag  1:
 RMSU=  4.16D-06    CP:  9.72D-01  1.35D+00  8.94D-01  8.33D-01  1.45D+00
                    CP:  1.91D+00  3.00D+00  3.00D+00  3.00D+00  2.98D+00
                    CP:  2.09D+00
 E= -1904.87774693057     Delta-E=       -0.000018054876 Rises=F Damp=F
 DIIS: error= 3.43D-05 at cycle  12 NSaved=  12.
 NSaved=12 IEnMin=12 EnMin= -1904.87774693057     IErMin=12 ErrMin= 3.43D-05
 ErrMax= 3.43D-05  0.00D+00 EMaxC= 1.00D-01 BMatC= 2.05D-06 BMatP= 4.23D-06
 IDIUse=1 WtCom= 1.00D+00 WtEn= 0.00D+00
 Coeff-Com:  0.215D-03-0.519D-03-0.338D-02-0.566D-02 0.101D-02 0.457D-01
 Coeff-Com:  0.891D-01-0.288D-01-0.397D+00-0.242D+00 0.625D+00 0.916D+00
 Coeff:      0.215D-03-0.519D-03-0.338D-02-0.566D-02 0.101D-02 0.457D-01
 Coeff:      0.891D-01-0.288D-01-0.397D+00-0.242D+00 0.625D+00 0.916D+00
 Gap=     0.094 Goal=   None    Shift=    0.000
 Gap=     0.135 Goal=   None    Shift=    0.000
 RMSDP=7.05D-06 MaxDP=1.07D-03 DE=-1.81D-05 OVMax= 8.97D-03

 Cycle  13  Pass 1  IDiag  1:
 RMSU=  3.16D-06    CP:  9.72D-01  1.35D+00  8.93D-01  8.32D-01  1.47D+00
                    CP:  1.94D+00  3.00D+00  3.00D+00  3.00D+00  3.00D+00
                    CP:  2.92D+00  1.94D+00
 E= -1904.87775425826     Delta-E=       -0.000007327684 Rises=F Damp=F
 DIIS: error= 1.82D-05 at cycle  13 NSaved=  13.
 NSaved=13 IEnMin=13 EnMin= -1904.87775425826     IErMin=13 ErrMin= 1.82D-05
 ErrMax= 1.82D-05  0.00D+00 EMaxC= 1.00D-01 BMatC= 4.47D-07 BMatP= 2.05D-06
 IDIUse=1 WtCom= 1.00D+00 WtEn= 0.00D+00
 Coeff-Com: -0.305D-04 0.117D-03-0.104D-02-0.210D-02-0.508D-02-0.811D-02
 Coeff-Com:  0.209D-01 0.837D-01-0.283D-01-0.230D+00-0.110D+00 0.257D+00
 Coeff-Com:  0.102D+01
 Coeff:     -0.305D-04 0.117D-03-0.104D-02-0.210D-02-0.508D-02-0.811D-02
 Coeff:      0.209D-01 0.837D-01-0.283D-01-0.230D+00-0.110D+00 0.257D+00
 Coeff:      0.102D+01
 Gap=     0.094 Goal=   None    Shift=    0.000
 Gap=     0.135 Goal=   None    Shift=    0.000
 RMSDP=3.48D-06 MaxDP=5.12D-04 DE=-7.33D-06 OVMax= 4.60D-03

 Cycle  14  Pass 1  IDiag  1:
 RMSU=  1.80D-06    CP:  9.72D-01  1.35D+00  8.93D-01  8.30D-01  1.47D+00
                    CP:  1.95D+00  3.00D+00  3.00D+00  3.00D+00  3.00D+00
                    CP:  3.00D+00  2.40D+00  1.55D+00
 E= -1904.87775613801     Delta-E=       -0.000001879749 Rises=F Damp=F
 DIIS: error= 9.57D-06 at cycle  14 NSaved=  14.
 NSaved=14 IEnMin=14 EnMin= -1904.87775613801     IErMin=14 ErrMin= 9.57D-06
 ErrMax= 9.57D-06  0.00D+00 EMaxC= 1.00D-01 BMatC= 1.56D-07 BMatP= 4.47D-07
 IDIUse=1 WtCom= 1.00D+00 WtEn= 0.00D+00
 Coeff-Com: -0.818D-04 0.204D-03 0.529D-03 0.957D-03-0.202D-02-0.190D-01
 Coeff-Com: -0.230D-01 0.468D-01 0.110D+00-0.144D-01-0.234D+00-0.208D+00
 Coeff-Com:  0.393D+00 0.949D+00
 Coeff:     -0.818D-04 0.204D-03 0.529D-03 0.957D-03-0.202D-02-0.190D-01
 Coeff:     -0.230D-01 0.468D-01 0.110D+00-0.144D-01-0.234D+00-0.208D+00
 Coeff:      0.393D+00 0.949D+00
 Gap=     0.094 Goal=   None    Shift=    0.000
 Gap=     0.135 Goal=   None    Shift=    0.000
 RMSDP=1.86D-06 MaxDP=2.68D-04 DE=-1.88D-06 OVMax= 2.45D-03

 Cycle  15  Pass 1  IDiag  1:
 RMSU=  3.49D-07    CP:  9.72D-01  1.35D+00  8.93D-01  8.30D-01  1.47D+00
                    CP:  1.96D+00  3.00D+00  3.00D+00  3.00D+00  3.00D+00
                    CP:  3.00D+00  2.64D+00  1.82D+00  1.65D+00
 E= -1904.87775662762     Delta-E=       -0.000000489614 Rises=F Damp=F
 DIIS: error= 2.93D-06 at cycle  15 NSaved=  15.
 NSaved=15 IEnMin=15 EnMin= -1904.87775662762     IErMin=15 ErrMin= 2.93D-06
 ErrMax= 2.93D-06  0.00D+00 EMaxC= 1.00D-01 BMatC= 4.22D-08 BMatP= 1.56D-07
 IDIUse=1 WtCom= 1.00D+00 WtEn= 0.00D+00
 Coeff-Com: -0.178D-04 0.338D-04 0.451D-03 0.933D-03 0.105D-02-0.383D-02
 Coeff-Com: -0.140D-01-0.959D-02 0.416D-01 0.694D-01-0.406D-01-0.156D+00
 Coeff-Com: -0.201D+00 0.332D+00 0.979D+00
 Coeff:     -0.178D-04 0.338D-04 0.451D-03 0.933D-03 0.105D-02-0.383D-02
 Coeff:     -0.140D-01-0.959D-02 0.416D-01 0.694D-01-0.406D-01-0.156D+00
 Coeff:     -0.201D+00 0.332D+00 0.979D+00
 Gap=     0.094 Goal=   None    Shift=    0.000
 Gap=     0.135 Goal=   None    Shift=    0.000
 RMSDP=8.73D-07 MaxDP=1.26D-04 DE=-4.90D-07 OVMax= 1.09D-03

 Cycle  16  Pass 1  IDiag  1:
 RMSU=  2.14D-07    CP:  9.72D-01  1.35D+00  8.93D-01  8.30D-01  1.48D+00
                    CP:  1.96D+00  3.00D+00  3.00D+00  3.00D+00  3.00D+00
                    CP:  3.00D+00  2.75D+00  1.94D+00  1.94D+00  1.62D+00
 E= -1904.87775672769     Delta-E=       -0.000000100074 Rises=F Damp=F
 DIIS: error= 1.36D-06 at cycle  16 NSaved=  16.
 NSaved=16 IEnMin=16 EnMin= -1904.87775672769     IErMin=16 ErrMin= 1.36D-06
 ErrMax= 1.36D-06  0.00D+00 EMaxC= 1.00D-01 BMatC= 1.34D-08 BMatP= 4.22D-08
 IDIUse=1 WtCom= 1.00D+00 WtEn= 0.00D+00
 Coeff-Com:  0.147D-04-0.368D-04 0.332D-04 0.110D-03 0.103D-02 0.411D-02
 Coeff-Com:  0.148D-02-0.174D-01-0.155D-01 0.342D-01 0.525D-01-0.532D-02
 Coeff-Com: -0.194D+00-0.115D+00 0.418D+00 0.836D+00
 Coeff:      0.147D-04-0.368D-04 0.332D-04 0.110D-03 0.103D-02 0.411D-02
 Coeff:      0.148D-02-0.174D-01-0.155D-01 0.342D-01 0.525D-01-0.532D-02
 Coeff:     -0.194D+00-0.115D+00 0.418D+00 0.836D+00
 Gap=     0.094 Goal=   None    Shift=    0.000
 Gap=     0.135 Goal=   None    Shift=    0.000
 RMSDP=2.37D-07 MaxDP=2.76D-05 DE=-1.00D-07 OVMax= 1.66D-04

 Cycle  17  Pass 1  IDiag  1:
 RMSU=  8.51D-08    CP:  9.72D-01  1.35D+00  8.93D-01  8.30D-01  1.48D+00
                    CP:  1.96D+00  3.00D+00  3.00D+00  3.00D+00  3.00D+00
                    CP:  3.00D+00  2.76D+00  1.96D+00  2.00D+00  1.97D+00
                    CP:  1.65D+00
 E= -1904.87775674494     Delta-E=       -0.000000017244 Rises=F Damp=F
 DIIS: error= 7.69D-07 at cycle  17 NSaved=  17.
 NSaved=17 IEnMin=17 EnMin= -1904.87775674494     IErMin=17 ErrMin= 7.69D-07
 ErrMax= 7.69D-07  0.00D+00 EMaxC= 1.00D-01 BMatC= 3.57D-09 BMatP= 1.34D-08
 IDIUse=1 WtCom= 1.00D+00 WtEn= 0.00D+00
 Coeff-Com:  0.987D-05-0.241D-04-0.794D-04-0.160D-03 0.717D-04 0.235D-02
 Coeff-Com:  0.361D-02-0.449D-02-0.148D-01-0.645D-02 0.283D-01 0.401D-01
 Coeff-Com: -0.124D-01-0.137D+00-0.149D+00 0.298D+00 0.953D+00
 Coeff:      0.987D-05-0.241D-04-0.794D-04-0.160D-03 0.717D-04 0.235D-02
 Coeff:      0.361D-02-0.449D-02-0.148D-01-0.645D-02 0.283D-01 0.401D-01
 Coeff:     -0.124D-01-0.137D+00-0.149D+00 0.298D+00 0.953D+00
 Gap=     0.094 Goal=   None    Shift=    0.000
 Gap=     0.135 Goal=   None    Shift=    0.000
 RMSDP=1.66D-07 MaxDP=1.85D-05 DE=-1.72D-08 OVMax= 1.18D-04

 Cycle  18  Pass 1  IDiag  1:
 RMSU=  5.17D-08    CP:  9.72D-01  1.35D+00  8.93D-01  8.30D-01  1.48D+00
                    CP:  1.96D+00  3.00D+00  3.00D+00  3.00D+00  3.00D+00
                    CP:  3.00D+00  2.77D+00  1.97D+00  2.03D+00  2.19D+00
                    CP:  2.07D+00  1.37D+00
 E= -1904.87775675074     Delta-E=       -0.000000005799 Rises=F Damp=F
 DIIS: error= 4.21D-07 at cycle  18 NSaved=  18.
 NSaved=18 IEnMin=18 EnMin= -1904.87775675074     IErMin=18 ErrMin= 4.21D-07
 ErrMax= 4.21D-07  0.00D+00 EMaxC= 1.00D-01 BMatC= 9.70D-10 BMatP= 3.57D-09
 IDIUse=1 WtCom= 1.00D+00 WtEn= 0.00D+00
 Coeff-Com: -0.874D-06 0.203D-05-0.323D-04-0.806D-04-0.275D-03-0.305D-03
 Coeff-Com:  0.657D-03 0.326D-02-0.381D-04-0.110D-01-0.403D-02 0.155D-01
 Coeff-Com:  0.468D-01-0.122D-01-0.167D+00-0.124D+00 0.345D+00 0.908D+00
 Coeff:     -0.874D-06 0.203D-05-0.323D-04-0.806D-04-0.275D-03-0.305D-03
 Coeff:      0.657D-03 0.326D-02-0.381D-04-0.110D-01-0.403D-02 0.155D-01
 Coeff:      0.468D-01-0.122D-01-0.167D+00-0.124D+00 0.345D+00 0.908D+00
 Gap=     0.094 Goal=   None    Shift=    0.000
 Gap=     0.135 Goal=   None    Shift=    0.000
 RMSDP=7.76D-08 MaxDP=1.31D-05 DE=-5.80D-09 OVMax= 5.98D-05

 Cycle  19  Pass 1  IDiag  1:
 RMSU=  2.58D-08    CP:  9.72D-01  1.35D+00  8.93D-01  8.30D-01  1.48D+00
                    CP:  1.96D+00  3.00D+00  3.00D+00  3.00D+00  3.00D+00
                    CP:  3.00D+00  2.76D+00  1.97D+00  2.03D+00  2.27D+00
                    CP:  2.28D+00  1.72D+00  1.36D+00
 E= -1904.87775675204     Delta-E=       -0.000000001300 Rises=F Damp=F
 DIIS: error= 2.55D-07 at cycle  19 NSaved=  19.
 NSaved=19 IEnMin=19 EnMin= -1904.87775675204     IErMin=19 ErrMin= 2.55D-07
 ErrMax= 2.55D-07  0.00D+00 EMaxC= 1.00D-01 BMatC= 2.48D-10 BMatP= 9.70D-10
 IDIUse=1 WtCom= 1.00D+00 WtEn= 0.00D+00
 Coeff-Com: -0.294D-05 0.726D-05 0.107D-04 0.962D-05-0.119D-03-0.665D-03
 Coeff-Com: -0.695D-03 0.227D-02 0.373D-02-0.242D-02-0.825D-02-0.417D-02
 Coeff-Com:  0.185D-01 0.314D-01-0.217D-01-0.116D+00-0.132D+00 0.306D+00
 Coeff-Com:  0.924D+00
 Coeff:     -0.294D-05 0.726D-05 0.107D-04 0.962D-05-0.119D-03-0.665D-03
 Coeff:     -0.695D-03 0.227D-02 0.373D-02-0.242D-02-0.825D-02-0.417D-02
 Coeff:      0.185D-01 0.314D-01-0.217D-01-0.116D+00-0.132D+00 0.306D+00
 Coeff:      0.924D+00
 Gap=     0.094 Goal=   None    Shift=    0.000
 Gap=     0.135 Goal=   None    Shift=    0.000
 RMSDP=3.59D-08 MaxDP=3.88D-06 DE=-1.30D-09 OVMax= 2.43D-05

 Cycle  20  Pass 1  IDiag  1:
 RMSU=  1.19D-08    CP:  9.72D-01  1.35D+00  8.93D-01  8.30D-01  1.48D+00
                    CP:  1.96D+00  3.00D+00  3.00D+00  3.00D+00  3.00D+00
                    CP:  3.00D+00  2.76D+00  1.97D+00  2.02D+00  2.30D+00
                    CP:  2.36D+00  1.88D+00  1.64D+00  1.51D+00
 E= -1904.87775675236     Delta-E=       -0.000000000327 Rises=F Damp=F
 DIIS: error= 1.72D-07 at cycle  20 NSaved=  20.
 NSaved=20 IEnMin=20 EnMin= -1904.87775675236     IErMin=20 ErrMin= 1.72D-07
 ErrMax= 1.72D-07  0.00D+00 EMaxC= 1.00D-01 BMatC= 8.19D-11 BMatP= 2.48D-10
 IDIUse=1 WtCom= 1.00D+00 WtEn= 0.00D+00
 Coeff-Com: -0.402D-06 0.865D-06 0.133D-04 0.251D-04 0.261D-04-0.189D-03
 Coeff-Com: -0.538D-03-0.408D-04 0.166D-02 0.201D-02-0.232D-02-0.632D-02
 Coeff-Com: -0.668D-02 0.173D-01 0.384D-01-0.117D-01-0.154D+00-0.112D+00
 Coeff-Com:  0.404D+00 0.831D+00
 Coeff:     -0.402D-06 0.865D-06 0.133D-04 0.251D-04 0.261D-04-0.189D-03
 Coeff:     -0.538D-03-0.408D-04 0.166D-02 0.201D-02-0.232D-02-0.632D-02
 Coeff:     -0.668D-02 0.173D-01 0.384D-01-0.117D-01-0.154D+00-0.112D+00
 Coeff:      0.404D+00 0.831D+00
 Gap=     0.094 Goal=   None    Shift=    0.000
 Gap=     0.135 Goal=   None    Shift=    0.000
 RMSDP=1.89D-08 MaxDP=2.69D-06 DE=-3.27D-10 OVMax= 1.21D-05

 Cycle  21  Pass 1  IDiag  1:
 Restarting incremental Fock formation.
 E= -1904.87775675238     Delta-E=       -0.000000000017 Rises=F Damp=F
 DIIS: error= 9.60D-08 at cycle  21 NSaved=  20.
 NSaved=20 IEnMin=20 EnMin= -1904.87775675238     IErMin=20 ErrMin= 9.60D-08
 ErrMax= 9.60D-08  0.00D+00 EMaxC= 1.00D-01 BMatC= 2.03D-11 BMatP= 8.19D-11
 IDIUse=1 WtCom= 1.00D+00 WtEn= 0.00D+00
 Coeff-Com:  0.174D-06 0.439D-05 0.784D-05 0.273D-04 0.519D-04-0.364D-04
 Coeff-Com: -0.364D-03-0.153D-03 0.976D-03 0.791D-03-0.880D-03-0.490D-02
 Coeff-Com: -0.157D-02 0.140D-01 0.231D-01-0.805D-02-0.105D+00-0.134D+00
 Coeff-Com:  0.207D+00 0.101D+01
 Coeff:      0.174D-06 0.439D-05 0.784D-05 0.273D-04 0.519D-04-0.364D-04
 Coeff:     -0.364D-03-0.153D-03 0.976D-03 0.791D-03-0.880D-03-0.490D-02
 Coeff:     -0.157D-02 0.140D-01 0.231D-01-0.805D-02-0.105D+00-0.134D+00
 Coeff:      0.207D+00 0.101D+01
 Gap=     0.094 Goal=   None    Shift=    0.000
 Gap=     0.135 Goal=   None    Shift=    0.000
 RMSDP=1.03D-08 MaxDP=1.61D-06 DE=-1.73D-11 OVMax= 7.93D-06

 Cycle  22  Pass 1  IDiag  1:
 RMSU=  1.03D-08    CP:  1.00D+00
 E= -1904.87775675259     Delta-E=       -0.000000000206 Rises=F Damp=F
 DIIS: error= 5.99D-08 at cycle  22 NSaved=  20.
 NSaved=20 IEnMin=20 EnMin= -1904.87775675259     IErMin=20 ErrMin= 5.99D-08
 ErrMax= 5.99D-08  0.00D+00 EMaxC= 1.00D-01 BMatC= 8.92D-12 BMatP= 2.03D-11
 IDIUse=1 WtCom= 1.00D+00 WtEn= 0.00D+00
 Coeff-Com: -0.224D-05-0.434D-05 0.647D-05 0.808D-04 0.152D-03-0.162D-03
 Coeff-Com: -0.602D-03-0.201D-03 0.105D-02 0.157D-02-0.466D-04-0.576D-02
 Coeff-Com: -0.494D-02 0.135D-01 0.403D-01-0.152D-01-0.178D+00-0.152D+00
 Coeff-Com:  0.457D+00 0.842D+00
 Coeff:     -0.224D-05-0.434D-05 0.647D-05 0.808D-04 0.152D-03-0.162D-03
 Coeff:     -0.602D-03-0.201D-03 0.105D-02 0.157D-02-0.466D-04-0.576D-02
 Coeff:     -0.494D-02 0.135D-01 0.403D-01-0.152D-01-0.178D+00-0.152D+00
 Coeff:      0.457D+00 0.842D+00
 Gap=     0.094 Goal=   None    Shift=    0.000
 Gap=     0.135 Goal=   None    Shift=    0.000
 RMSDP=6.10D-09 MaxDP=1.13D-06 DE=-2.06D-10 OVMax= 5.48D-06

 Cycle  23  Pass 1  IDiag  1:
 RMSU=  3.16D-09    CP:  1.00D+00  1.51D+00
 E= -1904.87775675254     Delta-E=        0.000000000046 Rises=F Damp=F
 DIIS: error= 3.26D-08 at cycle  23 NSaved=  20.
 NSaved=20 IEnMin=19 EnMin= -1904.87775675259     IErMin=20 ErrMin= 3.26D-08
 ErrMax= 3.26D-08  0.00D+00 EMaxC= 1.00D-01 BMatC= 4.28D-12 BMatP= 8.92D-12
 IDIUse=1 WtCom= 1.00D+00 WtEn= 0.00D+00
 Coeff-Com:  0.133D-05 0.470D-05 0.163D-04 0.313D-04-0.565D-04-0.142D-03
 Coeff-Com: -0.166D-03 0.201D-03 0.695D-03 0.788D-03-0.214D-02-0.514D-02
 Coeff-Com: -0.707D-04 0.205D-01 0.271D-01-0.370D-01-0.156D+00-0.189D+00
 Coeff-Com:  0.477D+00 0.864D+00
 Coeff:      0.133D-05 0.470D-05 0.163D-04 0.313D-04-0.565D-04-0.142D-03
 Coeff:     -0.166D-03 0.201D-03 0.695D-03 0.788D-03-0.214D-02-0.514D-02
 Coeff:     -0.707D-04 0.205D-01 0.271D-01-0.370D-01-0.156D+00-0.189D+00
 Coeff:      0.477D+00 0.864D+00
 Gap=     0.094 Goal=   None    Shift=    0.000
 Gap=     0.135 Goal=   None    Shift=    0.000
 RMSDP=5.94D-09 MaxDP=8.83D-07 DE= 4.64D-11 OVMax= 4.80D-06

 Error on total polarization charges =  0.02622
 SCF Done:  E(UM062X) =  -1904.87775675     A.U. after   23 cycles
            NFock= 23  Conv=0.59D-08     -V/T= 2.0054
 <Sx>= 0.0000 <Sy>= 0.0000 <Sz>= 0.5000 <S**2>= 0.7888 S= 0.5192
 <L.S>= 0.000000000000E+00
 KE= 1.894627466866D+03 PE=-1.342225328365D+04 EE= 5.145487114806D+03
 Annihilation of the first spin contaminant:
 S**2 before annihilation     0.7888,   after     0.7513
 Leave Link  502 at Tue Oct 28 18:34:04 2025, MaxMem= 30870077440 cpu:          116794.7 elap:            1844.5
 (Enter /public/software/gauss/g16/l601.exe)
 Copying SCF densities to generalized density rwf, IOpCl= 1 IROHF=0.

 **********************************************************************

            Population analysis using the SCF density.

 **********************************************************************

 Orbital symmetries:
 Alpha Orbitals:
       Occupied  (A) (A) (A) (A) (A) (A) (A) (A) (A) (A) (A) (A)
                 (A) (A) (A) (A) (A) (A) (A) (A) (A) (A) (A) (A)
                 (A) (A) (A) (A) (A) (A) (A) (A) (A) (A) (A) (A)
                 (A) (A) (A) (A) (A) (A) (A) (A) (A) (A) (A) (A)
                 (A) (A) (A) (A) (A) (A) (A) (A) (A) (A) (A) (A)
                 (A) (A) (A) (A) (A) (A) (A) (A) (A) (A) (A) (A)
                 (A) (A) (A) (A) (A) (A) (A) (A) (A) (A) (A) (A)
                 (A) (A) (A) (A) (A) (A) (A) (A) (A) (A) (A) (A)
                 (A) (A) (A) (A) (A) (A) (A) (A) (A) (A) (A) (A)
                 (A) (A) (A) (A) (A) (A) (A) (A) (A) (A) (A) (A)
                 (A) (A) (A) (A) (A) (A) (A) (A) (A) (A) (A) (A)
                 (A) (A) (A) (A) (A) (A) (A) (A) (A) (A) (A) (A)
                 (A) (A) (A) (A) (A)
       Virtual   (A) (A) (A) (A) (A) (A) (A) (A) (A) (A) (A) (A)
                 (A) (A) (A) (A) (A) (A) (A) (A) (A) (A) (A) (A)
                 (A) (A) (A) (A) (A) (A) (A) (A) (A) (A) (A) (A)
                 (A) (A) (A) (A) (A) (A) (A) (A) (A) (A) (A) (A)
                 (A) (A) (A) (A) (A) (A) (A) (A) (A) (A) (A) (A)
                 (A) (A) (A) (A) (A) (A) (A) (A) (A) (A) (A) (A)
                 (A) (A) (A) (A) (A) (A) (A) (A) (A) (A) (A) (A)
                 (A) (A) (A) (A) (A) (A) (A) (A) (A) (A) (A) (A)
                 (A) (A) (A) (A) (A) (A) (A) (A) (A) (A) (A) (A)
                 (A) (A) (A) (A) (A) (A) (A) (A) (A) (A) (A) (A)
                 (A) (A) (A) (A) (A) (A) (A) (A) (A) (A) (A) (A)
                 (A) (A) (A) (A) (A) (A) (A) (A) (A) (A) (A) (A)
                 (A) (A) (A) (A) (A) (A) (A) (A) (A) (A) (A) (A)
                 (A) (A) (A) (A) (A) (A) (A) (A) (A) (A) (A) (A)
                 (A) (A) (A) (A) (A) (A) (A) (A) (A) (A) (A) (A)
                 (A) (A) (A) (A) (A) (A) (A) (A) (A) (A) (A) (A)
                 (A) (A) (A) (A) (A) (A) (A) (A) (A) (A) (A) (A)
                 (A) (A) (A) (A) (A) (A) (A) (A) (A) (A) (A) (A)
                 (A) (A) (A) (A) (A) (A) (A) (A) (A) (A) (A) (A)
                 (A) (A) (A) (A) (A) (A) (A) (A) (A) (A) (A) (A)
                 (A) (A) (A) (A) (A) (A) (A) (A) (A) (A) (A) (A)
                 (A) (A) (A) (A) (A) (A) (A) (A) (A) (A) (A) (A)
                 (A) (A) (A) (A) (A) (A) (A) (A) (A) (A) (A) (A)
                 (A) (A) (A) (A) (A) (A) (A) (A) (A) (A) (A) (A)
                 (A) (A) (A) (A) (A) (A) (A) (A) (A) (A) (A) (A)
                 (A) (A) (A) (A) (A) (A) (A) (A) (A) (A) (A) (A)
                 (A) (A) (A) (A) (A) (A) (A) (A) (A) (A) (A) (A)
                 (A) (A) (A) (A) (A) (A) (A) (A) (A) (A) (A) (A)
                 (A) (A) (A) (A) (A) (A) (A) (A) (A) (A) (A) (A)
                 (A) (A) (A) (A) (A) (A) (A) (A) (A) (A) (A) (A)
                 (A) (A) (A) (A) (A) (A) (A) (A) (A) (A) (A) (A)
                 (A) (A) (A) (A) (A) (A) (A) (A) (A) (A) (A) (A)
                 (A) (A) (A) (A) (A) (A) (A) (A) (A) (A) (A) (A)
                 (A) (A) (A) (A) (A) (A) (A) (A) (A) (A) (A) (A)
                 (A) (A) (A) (A) (A) (A) (A) (A) (A) (A) (A) (A)
                 (A) (A) (A) (A) (A) (A) (A) (A) (A) (A) (A) (A)
                 (A) (A) (A) (A) (A) (A) (A) (A) (A) (A) (A) (A)
                 (A) (A) (A) (A) (A) (A) (A) (A) (A) (A) (A) (A)
                 (A) (A) (A) (A) (A) (A) (A) (A) (A) (A) (A) (A)
                 (A) (A) (A) (A) (A) (A) (A) (A) (A) (A) (A) (A)
                 (A) (A) (A) (A) (A) (A) (A) (A) (A) (A) (A) (A)
                 (A) (A) (A) (A) (A) (A) (A) (A) (A) (A) (A) (A)
                 (A) (A) (A) (A) (A) (A) (A) (A) (A) (A) (A) (A)
                 (A) (A) (A) (A) (A) (A) (A) (A) (A) (A) (A) (A)
                 (A) (A) (A) (A) (A) (A) (A) (A) (A) (A) (A) (A)
                 (A) (A) (A) (A) (A) (A) (A) (A) (A) (A) (A) (A)
                 (A) (A) (A) (A) (A) (A) (A) (A) (A) (A) (A) (A)
                 (A) (A) (A) (A) (A) (A) (A) (A) (A) (A) (A) (A)
                 (A) (A) (A) (A) (A) (A) (A) (A) (A) (A) (A) (A)
                 (A) (A) (A) (A) (A) (A) (A) (A) (A) (A) (A) (A)
                 (A) (A) (A) (A) (A) (A) (A) (A) (A) (A) (A) (A)
                 (A) (A) (A) (A) (A) (A) (A) (A) (A) (A) (A) (A)
                 (A) (A) (A) (A) (A) (A) (A) (A) (A) (A) (A) (A)
                 (A) (A) (A) (A) (A) (A) (A) (A) (A) (A) (A) (A)
                 (A) (A) (A) (A) (A) (A) (A) (A) (A) (A) (A) (A)
                 (A) (A) (A) (A) (A) (A) (A) (A) (A) (A) (A) (A)
                 (A) (A) (A) (A) (A) (A) (A) (A) (A) (A) (A) (A)
                 (A) (A) (A) (A) (A) (A) (A) (A) (A) (A) (A) (A)
                 (A) (A) (A) (A) (A) (A) (A) (A) (A) (A) (A) (A)
                 (A) (A) (A) (A) (A) (A) (A) (A) (A) (A) (A) (A)
                 (A) (A) (A) (A) (A) (A) (A) (A) (A) (A) (A) (A)
                 (A) (A) (A) (A) (A) (A) (A) (A) (A) (A) (A) (A)
                 (A) (A) (A) (A) (A) (A) (A) (A) (A) (A) (A) (A)
                 (A) (A) (A) (A) (A) (A) (A) (A) (A) (A) (A) (A)
                 (A) (A) (A) (A) (A) (A) (A) (A) (A) (A) (A) (A)
                 (A) (A) (A) (A) (A) (A) (A) (A) (A) (A) (A) (A)
                 (A) (A) (A) (A) (A) (A) (A) (A) (A) (A) (A) (A)
                 (A) (A) (A) (A) (A) (A) (A) (A) (A) (A) (A) (A)
                 (A) (A) (A) (A) (A) (A) (A) (A) (A) (A) (A) (A)
                 (A) (A) (A) (A) (A) (A) (A) (A) (A) (A) (A) (A)
                 (A) (A) (A) (A) (A) (A) (A) (A) (A) (A) (A) (A)
                 (A) (A) (A) (A) (A) (A) (A) (A) (A) (A) (A) (A)
                 (A) (A) (A) (A) (A) (A) (A) (A) (A) (A) (A) (A)
                 (A) (A) (A) (A) (A) (A) (A) (A) (A) (A) (A) (A)
                 (A) (A) (A) (A) (A) (A) (A) (A) (A) (A) (A) (A)
                 (A) (A) (A) (A) (A) (A) (A) (A) (A) (A) (A) (A)
                 (A) (A) (A) (A) (A) (A) (A) (A) (A) (A) (A) (A)
                 (A) (A) (A) (A) (A) (A) (A) (A) (A) (A) (A) (A)
                 (A) (A) (A) (A) (A) (A) (A) (A) (A) (A) (A) (A)
                 (A) (A) (A) (A) (A) (A) (A) (A) (A) (A) (A) (A)
                 (A) (A) (A) (A) (A) (A) (A) (A) (A) (A) (A) (A)
                 (A) (A) (A) (A) (A) (A) (A) (A) (A) (A) (A) (A)
                 (A) (A) (A) (A) (A) (A) (A) (A) (A) (A) (A) (A)
                 (A) (A) (A) (A) (A) (A) (A) (A) (A) (A) (A) (A)
                 (A) (A) (A) (A) (A) (A) (A) (A) (A) (A) (A) (A)
                 (A) (A) (A) (A) (A) (A) (A) (A) (A) (A) (A) (A)
                 (A) (A) (A) (A) (A) (A) (A) (A) (A) (A) (A) (A)
                 (A) (A) (A) (A) (A) (A) (A) (A) (A) (A) (A) (A)
                 (A) (A) (A) (A) (A) (A) (A) (A) (A) (A) (A) (A)
                 (A) (A) (A) (A) (A) (A) (A) (A) (A) (A) (A) (A)
                 (A) (A) (A) (A) (A) (A) (A) (A) (A) (A) (A) (A)
                 (A) (A) (A) (A) (A) (A) (A) (A) (A) (A) (A) (A)
                 (A) (A) (A) (A) (A) (A) (A) (A) (A) (A) (A) (A)
                 (A) (A) (A) (A) (A) (A) (A) (A) (A) (A) (A) (A)
                 (A) (A) (A) (A) (A) (A) (A) (A) (A) (A) (A) (A)
                 (A) (A) (A) (A) (A) (A) (A) (A) (A) (A) (A) (A)
                 (A) (A) (A) (A) (A) (A) (A) (A) (A) (A) (A) (A)
                 (A) (A) (A) (A) (A) (A) (A) (A) (A) (A) (A) (A)
                 (A) (A) (A) (A) (A) (A) (A) (A) (A) (A) (A) (A)
                 (A) (A) (A) (A) (A) (A) (A) (A) (A) (A) (A) (A)
                 (A) (A) (A) (A) (A) (A) (A) (A) (A) (A) (A) (A)
                 (A) (A) (A) (A) (A) (A) (A) (A) (A) (A) (A) (A)
                 (A) (A) (A) (A) (A) (A) (A) (A) (A) (A) (A) (A)
                 (A) (A) (A) (A) (A) (A) (A) (A) (A) (A) (A) (A)
                 (A) (A) (A) (A) (A) (A) (A) (A) (A) (A) (A) (A)
                 (A) (A) (A) (A) (A) (A) (A) (A) (A) (A) (A) (A)
                 (A) (A) (A) (A) (A) (A) (A) (A) (A) (A) (A) (A)
                 (A) (A) (A) (A) (A) (A) (A) (A) (A) (A) (A) (A)
                 (A) (A) (A) (A) (A) (A) (A) (A) (A) (A) (A) (A)
                 (A) (A) (A) (A) (A) (A) (A) (A) (A) (A) (A) (A)
                 (A) (A) (A) (A) (A) (A) (A) (A) (A) (A) (A) (A)
                 (A) (A) (A) (A) (A) (A) (A) (A) (A) (A) (A) (A)
                 (A) (A) (A) (A) (A) (A) (A) (A) (A) (A) (A) (A)
                 (A) (A) (A) (A) (A) (A) (A) (A) (A) (A) (A) (A)
                 (A) (A) (A) (A) (A) (A) (A) (A) (A) (A) (A) (A)
                 (A) (A) (A) (A) (A) (A) (A) (A) (A) (A) (A) (A)
                 (A) (A) (A) (A) (A) (A) (A) (A) (A) (A) (A) (A)
                 (A) (A) (A) (A) (A) (A) (A) (A) (A) (A) (A) (A)
                 (A) (A) (A) (A) (A) (A) (A) (A) (A) (A) (A) (A)
                 (A) (A) (A) (A) (A) (A) (A) (A) (A) (A) (A) (A)
                 (A) (A) (A) (A) (A) (A) (A) (A) (A) (A) (A) (A)
                 (A) (A) (A) (A) (A) (A) (A) (A) (A) (A) (A) (A)
                 (A) (A) (A) (A) (A) (A) (A) (A) (A) (A) (A) (A)
                 (A) (A) (A) (A) (A) (A) (A) (A) (A) (A) (A) (A)
                 (A) (A) (A) (A) (A) (A) (A) (A) (A) (A) (A) (A)
                 (A) (A) (A) (A) (A) (A) (A) (A) (A) (A) (A) (A)
                 (A) (A) (A) (A) (A) (A) (A) (A) (A) (A) (A) (A)
                 (A) (A) (A) (A) (A) (A) (A) (A) (A) (A)
 Beta  Orbitals:
       Occupied  (A) (A) (A) (A) (A) (A) (A) (A) (A) (A) (A) (A)
                 (A) (A) (A) (A) (A) (A) (A) (A) (A) (A) (A) (A)
                 (A) (A) (A) (A) (A) (A) (A) (A) (A) (A) (A) (A)
                 (A) (A) (A) (A) (A) (A) (A) (A) (A) (A) (A) (A)
                 (A) (A) (A) (A) (A) (A) (A) (A) (A) (A) (A) (A)
                 (A) (A) (A) (A) (A) (A) (A) (A) (A) (A) (A) (A)
                 (A) (A) (A) (A) (A) (A) (A) (A) (A) (A) (A) (A)
                 (A) (A) (A) (A) (A) (A) (A) (A) (A) (A) (A) (A)
                 (A) (A) (A) (A) (A) (A) (A) (A) (A) (A) (A) (A)
                 (A) (A) (A) (A) (A) (A) (A) (A) (A) (A) (A) (A)
                 (A) (A) (A) (A) (A) (A) (A) (A) (A) (A) (A) (A)
                 (A) (A) (A) (A) (A) (A) (A) (A) (A) (A) (A) (A)
                 (A) (A) (A) (A)
       Virtual   (A) (A) (A) (A) (A) (A) (A) (A) (A) (A) (A) (A)
                 (A) (A) (A) (A) (A) (A) (A) (A) (A) (A) (A) (A)
                 (A) (A) (A) (A) (A) (A) (A) (A) (A) (A) (A) (A)
                 (A) (A) (A) (A) (A) (A) (A) (A) (A) (A) (A) (A)
                 (A) (A) (A) (A) (A) (A) (A) (A) (A) (A) (A) (A)
                 (A) (A) (A) (A) (A) (A) (A) (A) (A) (A) (A) (A)
                 (A) (A) (A) (A) (A) (A) (A) (A) (A) (A) (A) (A)
                 (A) (A) (A) (A) (A) (A) (A) (A) (A) (A) (A) (A)
                 (A) (A) (A) (A) (A) (A) (A) (A) (A) (A) (A) (A)
                 (A) (A) (A) (A) (A) (A) (A) (A) (A) (A) (A) (A)
                 (A) (A) (A) (A) (A) (A) (A) (A) (A) (A) (A) (A)
                 (A) (A) (A) (A) (A) (A) (A) (A) (A) (A) (A) (A)
                 (A) (A) (A) (A) (A) (A) (A) (A) (A) (A) (A) (A)
                 (A) (A) (A) (A) (A) (A) (A) (A) (A) (A) (A) (A)
                 (A) (A) (A) (A) (A) (A) (A) (A) (A) (A) (A) (A)
                 (A) (A) (A) (A) (A) (A) (A) (A) (A) (A) (A) (A)
                 (A) (A) (A) (A) (A) (A) (A) (A) (A) (A) (A) (A)
                 (A) (A) (A) (A) (A) (A) (A) (A) (A) (A) (A) (A)
                 (A) (A) (A) (A) (A) (A) (A) (A) (A) (A) (A) (A)
                 (A) (A) (A) (A) (A) (A) (A) (A) (A) (A) (A) (A)
                 (A) (A) (A) (A) (A) (A) (A) (A) (A) (A) (A) (A)
                 (A) (A) (A) (A) (A) (A) (A) (A) (A) (A) (A) (A)
                 (A) (A) (A) (A) (A) (A) (A) (A) (A) (A) (A) (A)
                 (A) (A) (A) (A) (A) (A) (A) (A) (A) (A) (A) (A)
                 (A) (A) (A) (A) (A) (A) (A) (A) (A) (A) (A) (A)
                 (A) (A) (A) (A) (A) (A) (A) (A) (A) (A) (A) (A)
                 (A) (A) (A) (A) (A) (A) (A) (A) (A) (A) (A) (A)
                 (A) (A) (A) (A) (A) (A) (A) (A) (A) (A) (A) (A)
                 (A) (A) (A) (A) (A) (A) (A) (A) (A) (A) (A) (A)
                 (A) (A) (A) (A) (A) (A) (A) (A) (A) (A) (A) (A)
                 (A) (A) (A) (A) (A) (A) (A) (A) (A) (A) (A) (A)
                 (A) (A) (A) (A) (A) (A) (A) (A) (A) (A) (A) (A)
                 (A) (A) (A) (A) (A) (A) (A) (A) (A) (A) (A) (A)
                 (A) (A) (A) (A) (A) (A) (A) (A) (A) (A) (A) (A)
                 (A) (A) (A) (A) (A) (A) (A) (A) (A) (A) (A) (A)
                 (A) (A) (A) (A) (A) (A) (A) (A) (A) (A) (A) (A)
                 (A) (A) (A) (A) (A) (A) (A) (A) (A) (A) (A) (A)
                 (A) (A) (A) (A) (A) (A) (A) (A) (A) (A) (A) (A)
                 (A) (A) (A) (A) (A) (A) (A) (A) (A) (A) (A) (A)
                 (A) (A) (A) (A) (A) (A) (A) (A) (A) (A) (A) (A)
                 (A) (A) (A) (A) (A) (A) (A) (A) (A) (A) (A) (A)
                 (A) (A) (A) (A) (A) (A) (A) (A) (A) (A) (A) (A)
                 (A) (A) (A) (A) (A) (A) (A) (A) (A) (A) (A) (A)
                 (A) (A) (A) (A) (A) (A) (A) (A) (A) (A) (A) (A)
                 (A) (A) (A) (A) (A) (A) (A) (A) (A) (A) (A) (A)
                 (A) (A) (A) (A) (A) (A) (A) (A) (A) (A) (A) (A)
                 (A) (A) (A) (A) (A) (A) (A) (A) (A) (A) (A) (A)
                 (A) (A) (A) (A) (A) (A) (A) (A) (A) (A) (A) (A)
                 (A) (A) (A) (A) (A) (A) (A) (A) (A) (A) (A) (A)
                 (A) (A) (A) (A) (A) (A) (A) (A) (A) (A) (A) (A)
                 (A) (A) (A) (A) (A) (A) (A) (A) (A) (A) (A) (A)
                 (A) (A) (A) (A) (A) (A) (A) (A) (A) (A) (A) (A)
                 (A) (A) (A) (A) (A) (A) (A) (A) (A) (A) (A) (A)
                 (A) (A) (A) (A) (A) (A) (A) (A) (A) (A) (A) (A)
                 (A) (A) (A) (A) (A) (A) (A) (A) (A) (A) (A) (A)
                 (A) (A) (A) (A) (A) (A) (A) (A) (A) (A) (A) (A)
                 (A) (A) (A) (A) (A) (A) (A) (A) (A) (A) (A) (A)
                 (A) (A) (A) (A) (A) (A) (A) (A) (A) (A) (A) (A)
                 (A) (A) (A) (A) (A) (A) (A) (A) (A) (A) (A) (A)
                 (A) (A) (A) (A) (A) (A) (A) (A) (A) (A) (A) (A)
                 (A) (A) (A) (A) (A) (A) (A) (A) (A) (A) (A) (A)
                 (A) (A) (A) (A) (A) (A) (A) (A) (A) (A) (A) (A)
                 (A) (A) (A) (A) (A) (A) (A) (A) (A) (A) (A) (A)
                 (A) (A) (A) (A) (A) (A) (A) (A) (A) (A) (A) (A)
                 (A) (A) (A) (A) (A) (A) (A) (A) (A) (A) (A) (A)
                 (A) (A) (A) (A) (A) (A) (A) (A) (A) (A) (A) (A)
                 (A) (A) (A) (A) (A) (A) (A) (A) (A) (A) (A) (A)
                 (A) (A) (A) (A) (A) (A) (A) (A) (A) (A) (A) (A)
                 (A) (A) (A) (A) (A) (A) (A) (A) (A) (A) (A) (A)
                 (A) (A) (A) (A) (A) (A) (A) (A) (A) (A) (A) (A)
                 (A) (A) (A) (A) (A) (A) (A) (A) (A) (A) (A) (A)
                 (A) (A) (A) (A) (A) (A) (A) (A) (A) (A) (A) (A)
                 (A) (A) (A) (A) (A) (A) (A) (A) (A) (A) (A) (A)
                 (A) (A) (A) (A) (A) (A) (A) (A) (A) (A) (A) (A)
                 (A) (A) (A) (A) (A) (A) (A) (A) (A) (A) (A) (A)
                 (A) (A) (A) (A) (A) (A) (A) (A) (A) (A) (A) (A)
                 (A) (A) (A) (A) (A) (A) (A) (A) (A) (A) (A) (A)
                 (A) (A) (A) (A) (A) (A) (A) (A) (A) (A) (A) (A)
                 (A) (A) (A) (A) (A) (A) (A) (A) (A) (A) (A) (A)
                 (A) (A) (A) (A) (A) (A) (A) (A) (A) (A) (A) (A)
                 (A) (A) (A) (A) (A) (A) (A) (A) (A) (A) (A) (A)
                 (A) (A) (A) (A) (A) (A) (A) (A) (A) (A) (A) (A)
                 (A) (A) (A) (A) (A) (A) (A) (A) (A) (A) (A) (A)
                 (A) (A) (A) (A) (A) (A) (A) (A) (A) (A) (A) (A)
                 (A) (A) (A) (A) (A) (A) (A) (A) (A) (A) (A) (A)
                 (A) (A) (A) (A) (A) (A) (A) (A) (A) (A) (A) (A)
                 (A) (A) (A) (A) (A) (A) (A) (A) (A) (A) (A) (A)
                 (A) (A) (A) (A) (A) (A) (A) (A) (A) (A) (A) (A)
                 (A) (A) (A) (A) (A) (A) (A) (A) (A) (A) (A) (A)
                 (A) (A) (A) (A) (A) (A) (A) (A) (A) (A) (A) (A)
                 (A) (A) (A) (A) (A) (A) (A) (A) (A) (A) (A) (A)
                 (A) (A) (A) (A) (A) (A) (A) (A) (A) (A) (A) (A)
                 (A) (A) (A) (A) (A) (A) (A) (A) (A) (A) (A) (A)
                 (A) (A) (A) (A) (A) (A) (A) (A) (A) (A) (A) (A)
                 (A) (A) (A) (A) (A) (A) (A) (A) (A) (A) (A) (A)
                 (A) (A) (A) (A) (A) (A) (A) (A) (A) (A) (A) (A)
                 (A) (A) (A) (A) (A) (A) (A) (A) (A) (A) (A) (A)
                 (A) (A) (A) (A) (A) (A) (A) (A) (A) (A) (A) (A)
                 (A) (A) (A) (A) (A) (A) (A) (A) (A) (A) (A) (A)
                 (A) (A) (A) (A) (A) (A) (A) (A) (A) (A) (A) (A)
                 (A) (A) (A) (A) (A) (A) (A) (A) (A) (A) (A) (A)
                 (A) (A) (A) (A) (A) (A) (A) (A) (A) (A) (A) (A)
                 (A) (A) (A) (A) (A) (A) (A) (A) (A) (A) (A) (A)
                 (A) (A) (A) (A) (A) (A) (A) (A) (A) (A) (A) (A)
                 (A) (A) (A) (A) (A) (A) (A) (A) (A) (A) (A) (A)
                 (A) (A) (A) (A) (A) (A) (A) (A) (A) (A) (A) (A)
                 (A) (A) (A) (A) (A) (A) (A) (A) (A) (A) (A) (A)
                 (A) (A) (A) (A) (A) (A) (A) (A) (A) (A) (A) (A)
                 (A) (A) (A) (A) (A) (A) (A) (A) (A) (A) (A) (A)
                 (A) (A) (A) (A) (A) (A) (A) (A) (A) (A) (A) (A)
                 (A) (A) (A) (A) (A) (A) (A) (A) (A) (A) (A) (A)
                 (A) (A) (A) (A) (A) (A) (A) (A) (A) (A) (A) (A)
                 (A) (A) (A) (A) (A) (A) (A) (A) (A) (A) (A) (A)
                 (A) (A) (A) (A) (A) (A) (A) (A) (A) (A) (A) (A)
                 (A) (A) (A) (A) (A) (A) (A) (A) (A) (A) (A) (A)
                 (A) (A) (A) (A) (A) (A) (A) (A) (A) (A) (A) (A)
                 (A) (A) (A) (A) (A) (A) (A) (A) (A) (A) (A) (A)
                 (A) (A) (A) (A) (A) (A) (A) (A) (A) (A) (A) (A)
                 (A) (A) (A) (A) (A) (A) (A) (A) (A) (A) (A) (A)
                 (A) (A) (A) (A) (A) (A) (A) (A) (A) (A) (A) (A)
                 (A) (A) (A) (A) (A) (A) (A) (A) (A) (A) (A) (A)
                 (A) (A) (A) (A) (A) (A) (A) (A) (A) (A) (A) (A)
                 (A) (A) (A) (A) (A) (A) (A) (A) (A) (A) (A) (A)
                 (A) (A) (A) (A) (A) (A) (A) (A) (A) (A) (A) (A)
                 (A) (A) (A) (A) (A) (A) (A) (A) (A) (A) (A) (A)
                 (A) (A) (A) (A) (A) (A) (A) (A) (A) (A) (A) (A)
                 (A) (A) (A) (A) (A) (A) (A) (A) (A) (A) (A) (A)
                 (A) (A) (A) (A) (A) (A) (A) (A) (A) (A) (A)
 The electronic state is 2-A.
 Alpha  occ. eigenvalues --  -25.19497 -25.19320 -19.66432 -19.66426 -14.99819
 Alpha  occ. eigenvalues --  -14.76399 -14.76322 -14.76242 -10.60654 -10.59343
 Alpha  occ. eigenvalues --  -10.58736 -10.57835 -10.57618 -10.57391 -10.57350
 Alpha  occ. eigenvalues --  -10.57340 -10.57264 -10.57064 -10.57052 -10.56856
 Alpha  occ. eigenvalues --  -10.56844 -10.56311 -10.56066 -10.56056 -10.55799
 Alpha  occ. eigenvalues --  -10.55719 -10.55654 -10.55400 -10.54795 -10.54742
 Alpha  occ. eigenvalues --  -10.54676 -10.54627 -10.54611 -10.54591 -10.54583
 Alpha  occ. eigenvalues --  -10.54541 -10.54478 -10.54467 -10.53172 -10.53109
 Alpha  occ. eigenvalues --  -10.52913 -10.52605  -7.11602  -1.33863  -1.31258
 Alpha  occ. eigenvalues --   -1.28004  -1.15578  -1.08469  -1.06524  -1.02447
 Alpha  occ. eigenvalues --   -0.99790  -0.98236  -0.96626  -0.93968  -0.91706
 Alpha  occ. eigenvalues --   -0.90612  -0.89337  -0.88722  -0.88397  -0.86692
 Alpha  occ. eigenvalues --   -0.86335  -0.85978  -0.84545  -0.84109  -0.80579
 Alpha  occ. eigenvalues --   -0.79719  -0.78998  -0.77884  -0.75359  -0.72730
 Alpha  occ. eigenvalues --   -0.71325  -0.71016  -0.70201  -0.68904  -0.68435
 Alpha  occ. eigenvalues --   -0.67824  -0.66390  -0.64942  -0.64710  -0.63850
 Alpha  occ. eigenvalues --   -0.63171  -0.62939  -0.61536  -0.61149  -0.60489
 Alpha  occ. eigenvalues --   -0.59571  -0.59180  -0.58593  -0.57473  -0.57022
 Alpha  occ. eigenvalues --   -0.56171  -0.54913  -0.54100  -0.53879  -0.53325
 Alpha  occ. eigenvalues --   -0.53027  -0.52443  -0.52053  -0.51513  -0.51211
 Alpha  occ. eigenvalues --   -0.51161  -0.50456  -0.50285  -0.50093  -0.49802
 Alpha  occ. eigenvalues --   -0.48807  -0.48711  -0.48354  -0.48304  -0.48014
 Alpha  occ. eigenvalues --   -0.47373  -0.47088  -0.46930  -0.46692  -0.46053
 Alpha  occ. eigenvalues --   -0.45710  -0.45625  -0.45416  -0.45196  -0.44936
 Alpha  occ. eigenvalues --   -0.44504  -0.43392  -0.43250  -0.42966  -0.42556
 Alpha  occ. eigenvalues --   -0.42373  -0.42014  -0.41642  -0.41141  -0.40578
 Alpha  occ. eigenvalues --   -0.40331  -0.40056  -0.39692  -0.39091  -0.38742
 Alpha  occ. eigenvalues --   -0.38709  -0.38146  -0.37546  -0.35316  -0.33211
 Alpha  occ. eigenvalues --   -0.32982  -0.32320  -0.31411  -0.31051  -0.30711
 Alpha  occ. eigenvalues --   -0.29687  -0.27922  -0.23343  -0.17566
 Alpha virt. eigenvalues --   -0.08136  -0.04738  -0.02200   0.00377   0.00449
 Alpha virt. eigenvalues --    0.01687   0.02561   0.03416   0.05457   0.06261
 Alpha virt. eigenvalues --    0.06459   0.06975   0.07498   0.07927   0.08500
 Alpha virt. eigenvalues --    0.08930   0.09178   0.09508   0.10033   0.10117
 Alpha virt. eigenvalues --    0.10473   0.10966   0.11543   0.11781   0.12021
 Alpha virt. eigenvalues --    0.12366   0.12442   0.13004   0.13431   0.13719
 Alpha virt. eigenvalues --    0.13872   0.14242   0.14370   0.14537   0.14714
 Alpha virt. eigenvalues --    0.14809   0.15607   0.15756   0.16221   0.16303
 Alpha virt. eigenvalues --    0.16361   0.16620   0.17390   0.17793   0.17996
 Alpha virt. eigenvalues --    0.18157   0.18373   0.18640   0.19134   0.19596
 Alpha virt. eigenvalues --    0.19899   0.20441   0.20665   0.21125   0.21390
 Alpha virt. eigenvalues --    0.21455   0.22001   0.22281   0.22393   0.22581
 Alpha virt. eigenvalues --    0.22998   0.23171   0.23447   0.23494   0.23631
 Alpha virt. eigenvalues --    0.24031   0.24195   0.24443   0.24840   0.25034
 Alpha virt. eigenvalues --    0.25220   0.25609   0.26000   0.26069   0.26287
 Alpha virt. eigenvalues --    0.26553   0.26679   0.26813   0.27082   0.27206
 Alpha virt. eigenvalues --    0.27399   0.27829   0.27906   0.28083   0.28485
 Alpha virt. eigenvalues --    0.28680   0.28845   0.29079   0.29310   0.29494
 Alpha virt. eigenvalues --    0.29876   0.30179   0.30437   0.30783   0.31109
 Alpha virt. eigenvalues --    0.31501   0.31701   0.31841   0.31948   0.32492
 Alpha virt. eigenvalues --    0.32630   0.33011   0.33184   0.33439   0.34002
 Alpha virt. eigenvalues --    0.34081   0.34362   0.34706   0.34944   0.34986
 Alpha virt. eigenvalues --    0.35353   0.35759   0.35791   0.35893   0.36324
 Alpha virt. eigenvalues --    0.36596   0.36698   0.36994   0.37298   0.37361
 Alpha virt. eigenvalues --    0.37401   0.37798   0.37949   0.38178   0.38361
 Alpha virt. eigenvalues --    0.38634   0.38889   0.39281   0.39474   0.39633
 Alpha virt. eigenvalues --    0.39854   0.39907   0.40272   0.40400   0.40800
 Alpha virt. eigenvalues --    0.41167   0.41382   0.41479   0.41942   0.41982
 Alpha virt. eigenvalues --    0.42230   0.42623   0.42667   0.42879   0.43109
 Alpha virt. eigenvalues --    0.43186   0.43418   0.43794   0.43925   0.44232
 Alpha virt. eigenvalues --    0.44435   0.44671   0.44869   0.45068   0.45268
 Alpha virt. eigenvalues --    0.45351   0.45763   0.45977   0.46262   0.46375
 Alpha virt. eigenvalues --    0.46578   0.46880   0.47036   0.47435   0.47721
 Alpha virt. eigenvalues --    0.47979   0.48370   0.48702   0.48851   0.49078
 Alpha virt. eigenvalues --    0.49663   0.49797   0.49967   0.50257   0.50469
 Alpha virt. eigenvalues --    0.50666   0.50974   0.51305   0.51717   0.51782
 Alpha virt. eigenvalues --    0.52164   0.52489   0.52679   0.52927   0.53029
 Alpha virt. eigenvalues --    0.53183   0.53452   0.53651   0.53864   0.54167
 Alpha virt. eigenvalues --    0.54316   0.54588   0.55120   0.55342   0.55557
 Alpha virt. eigenvalues --    0.55912   0.56033   0.56557   0.56976   0.57271
 Alpha virt. eigenvalues --    0.57499   0.57844   0.58081   0.58162   0.58634
 Alpha virt. eigenvalues --    0.59397   0.59499   0.59949   0.60051   0.60261
 Alpha virt. eigenvalues --    0.60809   0.60984   0.61479   0.61902   0.62191
 Alpha virt. eigenvalues --    0.62374   0.62846   0.63133   0.63452   0.63651
 Alpha virt. eigenvalues --    0.63841   0.64153   0.64477   0.64832   0.65068
 Alpha virt. eigenvalues --    0.65454   0.65699   0.66020   0.66318   0.66526
 Alpha virt. eigenvalues --    0.66735   0.66808   0.67124   0.67362   0.67794
 Alpha virt. eigenvalues --    0.67994   0.68335   0.68621   0.68693   0.68989
 Alpha virt. eigenvalues --    0.69360   0.69687   0.70012   0.70196   0.70296
 Alpha virt. eigenvalues --    0.70817   0.70951   0.71128   0.71319   0.71402
 Alpha virt. eigenvalues --    0.71910   0.72291   0.72491   0.72733   0.72925
 Alpha virt. eigenvalues --    0.73065   0.73218   0.73816   0.73983   0.74195
 Alpha virt. eigenvalues --    0.74337   0.74495   0.74878   0.75116   0.75445
 Alpha virt. eigenvalues --    0.75807   0.76210   0.76634   0.76963   0.77164
 Alpha virt. eigenvalues --    0.77371   0.77971   0.78130   0.78309   0.78514
 Alpha virt. eigenvalues --    0.78702   0.79086   0.79323   0.79716   0.80045
 Alpha virt. eigenvalues --    0.80569   0.80962   0.81140   0.81424   0.81598
 Alpha virt. eigenvalues --    0.81651   0.82432   0.82718   0.82957   0.83258
 Alpha virt. eigenvalues --    0.83612   0.83721   0.83857   0.84194   0.84656
 Alpha virt. eigenvalues --    0.84882   0.85322   0.85578   0.85978   0.86594
 Alpha virt. eigenvalues --    0.86689   0.86952   0.87144   0.87632   0.88273
 Alpha virt. eigenvalues --    0.88597   0.88806   0.89095   0.89316   0.89900
 Alpha virt. eigenvalues --    0.90420   0.90593   0.90965   0.91582   0.91726
 Alpha virt. eigenvalues --    0.92331   0.92537   0.92955   0.93131   0.93242
 Alpha virt. eigenvalues --    0.93829   0.94189   0.94584   0.94899   0.95696
 Alpha virt. eigenvalues --    0.95824   0.96398   0.96797   0.97043   0.97671
 Alpha virt. eigenvalues --    0.97937   0.98295   0.98804   0.98993   0.99352
 Alpha virt. eigenvalues --    0.99522   0.99707   0.99901   1.00389   1.00581
 Alpha virt. eigenvalues --    1.00976   1.01182   1.01467   1.01741   1.02095
 Alpha virt. eigenvalues --    1.02321   1.02580   1.03236   1.03459   1.03694
 Alpha virt. eigenvalues --    1.03791   1.04127   1.04597   1.05047   1.05276
 Alpha virt. eigenvalues --    1.05331   1.05451   1.05827   1.06203   1.06682
 Alpha virt. eigenvalues --    1.06891   1.07086   1.07552   1.08165   1.08330
 Alpha virt. eigenvalues --    1.08739   1.09021   1.09262   1.09942   1.10549
 Alpha virt. eigenvalues --    1.10748   1.10774   1.11369   1.11822   1.11990
 Alpha virt. eigenvalues --    1.12540   1.12734   1.13092   1.13286   1.13636
 Alpha virt. eigenvalues --    1.14535   1.14664   1.14828   1.14935   1.15842
 Alpha virt. eigenvalues --    1.16025   1.16239   1.16593   1.17224   1.17520
 Alpha virt. eigenvalues --    1.17742   1.17966   1.18429   1.18830   1.18862
 Alpha virt. eigenvalues --    1.19155   1.20062   1.20432   1.20752   1.20998
 Alpha virt. eigenvalues --    1.21374   1.21732   1.21915   1.22243   1.22682
 Alpha virt. eigenvalues --    1.22991   1.23181   1.23444   1.23855   1.24350
 Alpha virt. eigenvalues --    1.24510   1.24676   1.25123   1.25219   1.25291
 Alpha virt. eigenvalues --    1.26170   1.26259   1.26695   1.26954   1.27372
 Alpha virt. eigenvalues --    1.27735   1.27980   1.28402   1.28717   1.28835
 Alpha virt. eigenvalues --    1.29094   1.29489   1.29789   1.30290   1.30577
 Alpha virt. eigenvalues --    1.31045   1.31401   1.31812   1.32824   1.33037
 Alpha virt. eigenvalues --    1.33081   1.33281   1.33549   1.34056   1.34136
 Alpha virt. eigenvalues --    1.34766   1.35291   1.35391   1.35852   1.35935
 Alpha virt. eigenvalues --    1.36672   1.36884   1.37453   1.37651   1.37816
 Alpha virt. eigenvalues --    1.38139   1.38430   1.38972   1.39163   1.39188
 Alpha virt. eigenvalues --    1.39577   1.40056   1.40338   1.40445   1.41009
 Alpha virt. eigenvalues --    1.41455   1.41931   1.42162   1.43322   1.43916
 Alpha virt. eigenvalues --    1.44290   1.44588   1.44774   1.45259   1.45434
 Alpha virt. eigenvalues --    1.45581   1.45828   1.46083   1.46348   1.46793
 Alpha virt. eigenvalues --    1.46849   1.47322   1.47606   1.47869   1.48471
 Alpha virt. eigenvalues --    1.48647   1.49530   1.49939   1.50452   1.50631
 Alpha virt. eigenvalues --    1.50721   1.51143   1.51768   1.51964   1.52066
 Alpha virt. eigenvalues --    1.52524   1.52627   1.52714   1.53030   1.53402
 Alpha virt. eigenvalues --    1.53563   1.53834   1.54685   1.54870   1.55141
 Alpha virt. eigenvalues --    1.55559   1.55950   1.56199   1.56652   1.56862
[...]
     3 C(13)  Bbb     0.0275     3.684     1.314     1.229 -0.1161  0.9911 -0.0646
              Bcc     0.0292     3.917     1.398     1.307  0.9927  0.1137 -0.0403
 
              Baa    -0.0797   -10.694    -3.816    -3.567  0.2270  0.9712 -0.0723
     4 C(13)  Bbb    -0.0771   -10.340    -3.690    -3.449  0.9726 -0.2299 -0.0339
              Bcc     0.1568    21.035     7.506     7.016  0.0495  0.0627  0.9968
 
              Baa    -0.0557    -7.480    -2.669    -2.495  0.0608  0.1724  0.9831
     5 C(13)  Bbb     0.0232     3.111     1.110     1.038  0.3681  0.9117 -0.1826
              Bcc     0.0326     4.369     1.559     1.457  0.9278 -0.3730  0.0081
 
              Baa    -0.0675    -9.051    -3.230    -3.019 -0.3382  0.9252 -0.1720
     6 C(13)  Bbb    -0.0628    -8.434    -3.009    -2.813  0.9396  0.3219 -0.1160
              Bcc     0.1303    17.485     6.239     5.832  0.0520  0.2008  0.9782
 
              Baa    -0.0202    -2.717    -0.970    -0.906  0.0465  0.1984  0.9790
     7 C(13)  Bbb     0.0075     1.012     0.361     0.337 -0.0474  0.9794 -0.1962
              Bcc     0.0127     1.706     0.609     0.569  0.9978  0.0373 -0.0550
 
              Baa    -0.0171    -2.289    -0.817    -0.763  0.1967  0.9595 -0.2019
     8 C(13)  Bbb    -0.0156    -2.100    -0.749    -0.700  0.9778 -0.2072 -0.0322
              Bcc     0.0327     4.388     1.566     1.464  0.0728  0.1910  0.9789
 
              Baa    -0.0130    -1.743    -0.622    -0.581  0.0727  0.1941  0.9783
     9 C(13)  Bbb     0.0054     0.720     0.257     0.240  0.2738  0.9393 -0.2067
              Bcc     0.0076     1.023     0.365     0.341  0.9590 -0.2828 -0.0151
 
              Baa    -0.0227    -3.047    -1.087    -1.016  0.1284  0.9703 -0.2050
    10 C(13)  Bbb    -0.0207    -2.782    -0.993    -0.928  0.9896 -0.1390 -0.0383
              Bcc     0.0434     5.829     2.080     1.944  0.0657  0.1979  0.9780
 
              Baa    -0.0053    -0.716    -0.256    -0.239  0.0645  0.1967  0.9783
    11 C(13)  Bbb    -0.0012    -0.165    -0.059    -0.055  0.0938  0.9748 -0.2022
              Bcc     0.0066     0.881     0.314     0.294  0.9935 -0.1049 -0.0445
 
              Baa    -0.0187    -0.721    -0.257    -0.240  0.9949 -0.0879 -0.0504
    12 N(14)  Bbb    -0.0144    -0.556    -0.198    -0.185  0.0760  0.9763 -0.2025
              Bcc     0.0331     1.277     0.456     0.426  0.0670  0.1977  0.9780
 
              Baa    -0.0119    -1.603    -0.572    -0.535  0.0699  0.1953  0.9783
    13 C(13)  Bbb     0.0048     0.650     0.232     0.217  0.0078  0.9805 -0.1963
              Bcc     0.0071     0.952     0.340     0.318  0.9975 -0.0214 -0.0670
 
              Baa    -0.0173    -2.320    -0.828    -0.774  0.1713  0.9645 -0.2010
    14 C(13)  Bbb    -0.0151    -2.021    -0.721    -0.674  0.9829 -0.1814 -0.0325
              Bcc     0.0323     4.341     1.549     1.448  0.0678  0.1919  0.9791
 
              Baa    -0.0458    -1.767    -0.631    -0.589 -0.2816  0.9593  0.0195
    15 N(14)  Bbb    -0.0375    -1.445    -0.515    -0.482  0.9469  0.2812 -0.1558
              Bcc     0.0833     3.212     1.146     1.071  0.1549  0.0254  0.9876
 
              Baa    -0.0867   -11.630    -4.150    -3.879  0.0427  0.0810  0.9958
    16 C(13)  Bbb     0.0379     5.081     1.813     1.695  0.6381  0.7647 -0.0896
              Bcc     0.0488     6.549     2.337     2.185  0.7688 -0.6392  0.0191
 
              Baa    -0.1890   -25.367    -9.051    -8.461 -0.1716  0.9837 -0.0531
    17 C(13)  Bbb    -0.1831   -24.571    -8.768    -8.196  0.9851  0.1717 -0.0031
              Bcc     0.3721    49.938    17.819    16.657 -0.0061  0.0528  0.9986
 
              Baa    -0.0211    -2.830    -1.010    -0.944  0.0636 -0.3856  0.9205
    18 C(13)  Bbb     0.0085     1.139     0.407     0.380  0.9564  0.2869  0.0541
              Bcc     0.0126     1.690     0.603     0.564 -0.2850  0.8769  0.3870
 
              Baa    -0.0214    -2.868    -1.023    -0.957  0.3264  0.4302  0.8416
    19 C(13)  Bbb    -0.0140    -1.874    -0.669    -0.625  0.8088  0.3337 -0.4843
              Bcc     0.0353     4.742     1.692     1.582 -0.4892  0.8388 -0.2391
 
              Baa    -0.0108    -1.444    -0.515    -0.482 -0.5808  0.7402 -0.3387
    20 C(13)  Bbb     0.0001     0.019     0.007     0.006  0.0471  0.4459  0.8938
              Bcc     0.0106     1.425     0.508     0.475  0.8127  0.5032 -0.2938
 
              Baa    -0.0317    -4.260    -1.520    -1.421 -0.1180  0.5497  0.8270
    21 C(13)  Bbb    -0.0245    -3.293    -1.175    -1.099  0.9772  0.2124 -0.0018
              Bcc     0.0563     7.554     2.695     2.520 -0.1767  0.8079 -0.5622
 
              Baa    -0.0210    -0.811    -0.289    -0.271 -0.1150  0.5362  0.8362
    22 N(14)  Bbb    -0.0179    -0.691    -0.246    -0.230  0.9783  0.2074  0.0016
              Bcc     0.0389     1.502     0.536     0.501 -0.1726  0.8182 -0.5484
 
              Baa    -0.0725     5.248     1.873     1.751 -0.5845  0.3550  0.7296
    23 O(17)  Bbb    -0.0693     5.018     1.790     1.674  0.8004  0.4000  0.4466
              Bcc     0.1419   -10.266    -3.663    -3.424 -0.1333  0.8450 -0.5179
 
              Baa    -0.0733     5.306     1.893     1.770  0.3973  0.5631  0.7246
    24 O(17)  Bbb    -0.0701     5.070     1.809     1.691  0.8896 -0.0424 -0.4549
              Bcc     0.1434   -10.375    -3.702    -3.461 -0.2254  0.8253 -0.5177
 
              Baa    -0.0115    -1.548    -0.552    -0.516  0.1885  0.9080 -0.3742
    25 C(13)  Bbb     0.0008     0.103     0.037     0.034 -0.1967  0.4082  0.8914
              Bcc     0.0108     1.445     0.516     0.482  0.9622 -0.0944  0.2556
 
              Baa    -0.0218    -2.930    -1.045    -0.977 -0.4566  0.2784  0.8450
    26 C(13)  Bbb    -0.0146    -1.965    -0.701    -0.655  0.8835  0.0300  0.4675
              Bcc     0.0365     4.895     1.747     1.633  0.1048  0.9600 -0.2597
 
              Baa    -0.0683    -9.167    -3.271    -3.058 -0.1132  0.0690  0.9912
    27 C(13)  Bbb     0.0296     3.973     1.418     1.325  0.9298 -0.3443  0.1302
              Bcc     0.0387     5.195     1.854     1.733  0.3502  0.9363 -0.0252
 
              Baa    -0.0745    -9.997    -3.567    -3.335  0.8349  0.5484  0.0467
    28 C(13)  Bbb    -0.0727    -9.754    -3.481    -3.254 -0.5262  0.8204 -0.2238
              Bcc     0.1472    19.751     7.048     6.588 -0.1611  0.1623  0.9735
 
              Baa    -0.0015    -0.202    -0.072    -0.067  0.1059  0.5725  0.8130
    29 C(13)  Bbb    -0.0006    -0.077    -0.027    -0.026  0.5994  0.6156 -0.5116
              Bcc     0.0021     0.279     0.100     0.093  0.7934 -0.5415  0.2780
 
              Baa    -0.0423    -5.679    -2.026    -1.894 -0.1497  0.1131  0.9822
    30 C(13)  Bbb     0.0205     2.745     0.980     0.916 -0.0675  0.9899 -0.1243
              Bcc     0.0219     2.934     1.047     0.979  0.9864  0.0849  0.1406
 
              Baa    -0.0873   -11.709    -4.178    -3.906 -0.3072  0.9451 -0.1109
    31 C(13)  Bbb    -0.0855   -11.479    -4.096    -3.829  0.9465  0.3156  0.0677
              Bcc     0.1728    23.188     8.274     7.735 -0.0990  0.0842  0.9915
 
              Baa    -0.0602    -8.082    -2.884    -2.696 -0.0554  0.0025  0.9985
    32 C(13)  Bbb     0.0257     3.443     1.229     1.148  0.7807 -0.6233  0.0449
              Bcc     0.0346     4.639     1.655     1.547  0.6225  0.7819  0.0326
 
              Baa    -0.0667    -8.945    -3.192    -2.984 -0.1094  0.9940 -0.0037
    33 C(13)  Bbb    -0.0631    -8.473    -3.023    -2.826  0.9921  0.1094  0.0615
              Bcc     0.1298    17.417     6.215     5.810 -0.0616 -0.0031  0.9981
 
              Baa    -0.0202    -2.706    -0.965    -0.903 -0.0789  0.0441  0.9959
    34 C(13)  Bbb     0.0082     1.094     0.390     0.365 -0.4182  0.9054 -0.0732
              Bcc     0.0120     1.612     0.575     0.538  0.9049  0.4222  0.0530
 
              Baa    -0.0154    -2.066    -0.737    -0.689 -0.6779  0.7287 -0.0971
    35 C(13)  Bbb    -0.0138    -1.853    -0.661    -0.618  0.7325  0.6807 -0.0057
              Bcc     0.0292     3.920     1.399     1.308 -0.0619  0.0750  0.9953
 
              Baa    -0.0116    -1.551    -0.553    -0.517 -0.0669  0.0560  0.9962
    36 C(13)  Bbb     0.0050     0.675     0.241     0.225 -0.3976  0.9142 -0.0780
              Bcc     0.0065     0.875     0.312     0.292  0.9151  0.4013  0.0389
 
              Baa    -0.0170    -2.285    -0.815    -0.762 -0.5733  0.8152 -0.0826
    37 C(13)  Bbb    -0.0152    -2.035    -0.726    -0.679  0.8164  0.5769  0.0275
              Bcc     0.0322     4.320     1.541     1.441 -0.0701  0.0517  0.9962
 
              Baa    -0.0112    -1.500    -0.535    -0.500 -0.0715  0.0570  0.9958
    38 C(13)  Bbb     0.0048     0.646     0.231     0.216  0.7503 -0.6548  0.0914
              Bcc     0.0064     0.854     0.305     0.285  0.6573  0.7537  0.0040
 
              Baa    -0.0147    -1.975    -0.705    -0.659 -0.5295  0.8419 -0.1045
    39 C(13)  Bbb    -0.0138    -1.858    -0.663    -0.620  0.8442  0.5350  0.0333
              Bcc     0.0286     3.832     1.367     1.278 -0.0839  0.0706  0.9940
 
              Baa    -0.0308    -1.189    -0.424    -0.397 -0.0029  0.9999  0.0122
    40 N(14)  Bbb    -0.0233    -0.899    -0.321    -0.300  0.9566 -0.0008  0.2913
              Bcc     0.0541     2.088     0.745     0.697 -0.2913 -0.0125  0.9565
 
              Baa    -0.0027    -0.461    -0.165    -0.154 -0.0135  0.2497  0.9682
    41 B(11)  Bbb     0.0004     0.067     0.024     0.022  0.9775 -0.2007  0.0653
              Bcc     0.0023     0.394     0.141     0.132  0.2107  0.9473 -0.2414
 
              Baa    -0.0120    -6.009    -2.144    -2.005 -0.3279  0.9058  0.2684
    42 F(19)  Bbb    -0.0096    -4.822    -1.721    -1.608 -0.3681 -0.3841  0.8467
              Bcc     0.0216    10.832     3.865     3.613  0.8701  0.1788  0.4594
 
              Baa    -0.0058    -2.930    -1.045    -0.977  0.2299  0.0101  0.9732
    43 F(19)  Bbb    -0.0040    -1.995    -0.712    -0.666 -0.2079  0.9774  0.0389
              Bcc     0.0098     4.925     1.757     1.643  0.9507  0.2113 -0.2268
 
              Baa    -0.0022    -1.156    -0.413    -0.386  0.1709  0.3571  0.9183
    44 H(1)   Bbb    -0.0004    -0.195    -0.069    -0.065  0.7869 -0.6103  0.0909
              Bcc     0.0025     1.351     0.482     0.451  0.5929  0.7071 -0.3853
 
              Baa    -0.0022    -1.193    -0.426    -0.398 -0.2204 -0.0628  0.9734
    45 H(1)   Bbb    -0.0000    -0.022    -0.008    -0.007  0.7184 -0.6855  0.1184
              Bcc     0.0023     1.215     0.434     0.405  0.6598  0.7254  0.1962
 
              Baa    -0.0015    -0.791    -0.282    -0.264  0.2921  0.1256  0.9481
    46 H(1)   Bbb    -0.0011    -0.590    -0.211    -0.197  0.9044 -0.3586 -0.2311
              Bcc     0.0026     1.381     0.493     0.461  0.3110  0.9250 -0.2183
 
              Baa    -0.0022    -1.188    -0.424    -0.396  0.0119  0.1760  0.9843
    47 H(1)   Bbb    -0.0018    -0.938    -0.335    -0.313 -0.3344  0.9284 -0.1620
              Bcc     0.0040     2.127     0.759     0.709  0.9424  0.3272 -0.0699
 
              Baa    -0.0027    -1.467    -0.523    -0.489  0.2771  0.9473  0.1608
    48 H(1)   Bbb    -0.0024    -1.273    -0.454    -0.425 -0.0327 -0.1580  0.9869
              Bcc     0.0051     2.739     0.978     0.914  0.9603 -0.2788 -0.0128
 
              Baa    -0.0069    -3.683    -1.314    -1.228  0.8694 -0.4918  0.0478
    49 H(1)   Bbb    -0.0017    -0.932    -0.333    -0.311  0.0422  0.1703  0.9845
              Bcc     0.0086     4.615     1.647     1.539  0.4923  0.8539 -0.1688
 
              Baa    -0.0014    -0.739    -0.264    -0.246  0.9125  0.4037 -0.0657
    50 H(1)   Bbb    -0.0010    -0.525    -0.187    -0.175  0.0129  0.1321  0.9911
              Bcc     0.0024     1.263     0.451     0.421 -0.4088  0.9053 -0.1154
 
              Baa    -0.0007    -0.391    -0.139    -0.130  0.0699  0.1810  0.9810
    51 H(1)   Bbb    -0.0004    -0.216    -0.077    -0.072  0.3844  0.9026 -0.1939
              Bcc     0.0011     0.607     0.217     0.202  0.9205 -0.3907  0.0065
 
              Baa    -0.0007    -0.377    -0.135    -0.126  0.0685  0.1863  0.9801
    52 H(1)   Bbb    -0.0003    -0.150    -0.053    -0.050 -0.0555  0.9816 -0.1827
              Bcc     0.0010     0.527     0.188     0.176  0.9961  0.0419 -0.0776
 
              Baa    -0.0011    -0.589    -0.210    -0.196  0.0929  0.1811  0.9791
    53 H(1)   Bbb    -0.0007    -0.400    -0.143    -0.133  0.8799 -0.4752  0.0044
              Bcc     0.0019     0.988     0.353     0.330  0.4660  0.8611 -0.2035
 
              Baa    -0.0026    -1.412    -0.504    -0.471  0.2535 -0.6609  0.7064
    54 H(1)   Bbb     0.0001     0.045     0.016     0.015  0.9254  0.3784  0.0220
              Bcc     0.0026     1.367     0.488     0.456 -0.2819  0.6481  0.7075
 
              Baa    -0.0016    -0.863    -0.308    -0.288  0.2018 -0.6720  0.7125
    55 H(1)   Bbb    -0.0002    -0.120    -0.043    -0.040 -0.0853  0.7126  0.6963
              Bcc     0.0018     0.983     0.351     0.328  0.9757  0.2013 -0.0865
 
              Baa    -0.0016    -0.868    -0.310    -0.290  0.1189 -0.6932  0.7109
    56 H(1)   Bbb    -0.0002    -0.122    -0.043    -0.041 -0.1779  0.6895  0.7021
              Bcc     0.0019     0.990     0.353     0.330  0.9768  0.2099  0.0413
 
              Baa    -0.0028    -1.481    -0.528    -0.494  0.0655 -0.6861  0.7245
    57 H(1)   Bbb    -0.0000    -0.019    -0.007    -0.006  0.9965  0.0834 -0.0111
              Bcc     0.0028     1.499     0.535     0.500 -0.0528  0.7227  0.6892
 
              Baa    -0.0024    -1.284    -0.458    -0.428  0.1994  0.1117  0.9735
    58 H(1)   Bbb    -0.0002    -0.102    -0.036    -0.034  0.2762  0.9468 -0.1652
              Bcc     0.0026     1.386     0.495     0.462  0.9402 -0.3018 -0.1579
 
              Baa    -0.0016    -0.875    -0.312    -0.292 -0.3676  0.0034  0.9300
    59 H(1)   Bbb    -0.0012    -0.653    -0.233    -0.218  0.6160  0.7501  0.2407
              Bcc     0.0029     1.528     0.545     0.510  0.6967 -0.6614  0.2778
 
              Baa    -0.0024    -1.261    -0.450    -0.421 -0.3577  0.2680  0.8945
    60 H(1)   Bbb    -0.0005    -0.249    -0.089    -0.083  0.3687  0.9207 -0.1284
              Bcc     0.0028     1.510     0.539     0.504  0.8580 -0.2838  0.4282
 
              Baa    -0.0024    -1.303    -0.465    -0.435 -0.1482  0.0887  0.9850
    61 H(1)   Bbb    -0.0006    -0.341    -0.122    -0.114  0.0497  0.9954 -0.0822
              Bcc     0.0031     1.644     0.587     0.548  0.9877 -0.0368  0.1519
 
              Baa    -0.0027    -1.418    -0.506    -0.473  0.6412 -0.6411  0.4218
    62 H(1)   Bbb    -0.0024    -1.301    -0.464    -0.434 -0.3227  0.2734  0.9061
              Bcc     0.0051     2.719     0.970     0.907  0.6963  0.7171  0.0315
 
              Baa    -0.0065    -3.483    -1.243    -1.162  0.5761  0.8170  0.0233
    63 H(1)   Bbb    -0.0019    -1.027    -0.367    -0.343 -0.0812  0.0288  0.9963
              Bcc     0.0085     4.510     1.609     1.504  0.8133 -0.5759  0.0829
 
              Baa    -0.0010    -0.554    -0.198    -0.185 -0.0762  0.0051  0.9971
    64 H(1)   Bbb    -0.0007    -0.348    -0.124    -0.116  0.6356  0.7707  0.0447
              Bcc     0.0017     0.902     0.322     0.301  0.7682 -0.6372  0.0619
 
              Baa    -0.0006    -0.324    -0.116    -0.108 -0.0713  0.0484  0.9963
    65 H(1)   Bbb    -0.0002    -0.114    -0.041    -0.038 -0.3537  0.9327 -0.0706
              Bcc     0.0008     0.438     0.156     0.146  0.9326  0.3574  0.0494
 
              Baa    -0.0025    -1.311    -0.468    -0.437 -0.5462  0.8333 -0.0850
    66 H(1)   Bbb    -0.0002    -0.131    -0.047    -0.044 -0.0734  0.0535  0.9959
              Bcc     0.0027     1.443     0.515     0.481  0.8344  0.5502  0.0320
 
              Baa    -0.0006    -0.340    -0.121    -0.113 -0.0625  0.0447  0.9970
    67 H(1)   Bbb    -0.0003    -0.145    -0.052    -0.048  0.7830 -0.6173  0.0768
              Bcc     0.0009     0.484     0.173     0.162  0.6189  0.7855  0.0036
 
              Baa    -0.0011    -0.577    -0.206    -0.193  0.9577  0.1266  0.2585
    68 H(1)   Bbb    -0.0010    -0.516    -0.184    -0.172 -0.2649  0.0364  0.9636
              Bcc     0.0020     1.093     0.390     0.365 -0.1126  0.9913 -0.0684
 

 ---------------------------------------------------------------------------------

 No NMR shielding tensors so no spin-rotation constants.
 Leave Link  601 at Tue Oct 28 18:34:07 2025, MaxMem= 30870077440 cpu:             168.5 elap:               3.0
 (Enter /public/software/gauss/g16/l9999.exe)
 1\1\GINC-CU031\SP\UM062X\def2TZVPP\C34H25B1F2N4O2(1-,2)\BAIDING\28-Oct
 -2025\0\\#p M062X/DEF2TZVPP scrf=(solvent=water) em=GD3\\Energy calcul
 ation for BNP_CN_reduced\\-1,2\C,0,-2.83115,-3.634953,0.401109\C,0,-1.
 61243,-2.78964,0.170997\C,0,-0.319499,-3.304729,0.150116\C,0,0.593258,
 -2.242243,0.008686\C,0,2.026586,-2.276956,-0.057749\C,0,2.779825,-3.39
 8622,0.109589\C,0,4.228541,-3.478887,0.027343\C,0,5.061253,-2.368127,-
 0.251326\C,0,6.437525,-2.501742,-0.3164\C,0,7.036866,-3.760473,-0.1046
 48\C,0,8.454115,-3.898755,-0.172806\N,0,9.615222,-4.011886,-0.228618\C
 ,0,6.228225,-4.878456,0.173943\C,0,4.851465,-4.731383,0.236902\N,0,-0.
 128016,-1.067846,-0.073562\C,0,-1.48497,-1.370053,0.003577\C,0,-2.4552
 04,-0.32692,-0.025832\C,0,-3.890018,-0.644032,-0.018036\C,0,-4.738893,
 -0.140805,0.995692\C,0,-6.089461,-0.436754,1.017714\C,0,-6.636921,-1.2
 32478,-0.005877\N,0,-8.024499,-1.529662,0.000824\O,0,-8.749909,-1.0626
 82,0.91937\O,0,-8.504767,-2.254347,-0.911445\C,0,-5.820411,-1.734368,-
 1.036447\C,0,-4.467343,-1.45006,-1.027296\C,0,-2.031501,1.030094,-0.07
 2607\C,0,-2.75814,2.243539,-0.315803\C,0,-4.21212,2.453353,-0.622633\C
 ,0,-1.819856,3.271213,-0.30938\C,0,-0.539697,2.720355,-0.102455\C,0,0.
 7355,3.387889,-0.04044\C,0,0.891035,4.736965,-0.037383\C,0,2.154346,5.
 467946,0.016495\C,0,2.123812,6.876419,-0.059094\C,0,3.295904,7.629048,
 -0.018057\C,0,4.533956,6.993692,0.103227\C,0,4.583775,5.597177,0.18502
 4\C,0,3.414802,4.84342,0.143474\N,0,-0.680472,1.356335,0.023285\B,0,0.
 461393,0.335636,0.192133\F,0,1.004176,0.398433,1.490653\F,0,1.495391,0
 .610236,-0.730436\H,0,-3.51745,-3.177892,1.119754\H,0,-3.404338,-3.819
 501,-0.51347\H,0,-2.52456,-4.607428,0.797595\H,0,-0.058589,-4.351515,0
 .232852\H,0,2.512574,-1.331413,-0.271714\H,0,2.279883,-4.339941,0.3281
 71\H,0,4.624712,-1.38955,-0.418589\H,0,7.061051,-1.640396,-0.531351\H,
 0,6.686342,-5.848123,0.337527\H,0,4.232518,-5.597223,0.452535\H,0,-4.3
 13778,0.465654,1.788408\H,0,-6.726207,-0.074358,1.814443\H,0,-6.259113
 ,-2.325621,-1.82981\H,0,-3.839842,-1.824889,-1.828753\H,0,-4.847691,2.
 406337,0.268086\H,0,-4.348156,3.441868,-1.071259\H,0,-4.595246,1.70709
 5,-1.324726\H,0,-2.03285,4.318028,-0.480091\H,0,1.609994,2.748229,-0.0
 05318\H,0,0.00373,5.365947,-0.082192\H,0,1.163653,7.376844,-0.1542\H,0
 ,3.242548,8.712164,-0.080505\H,0,5.449294,7.576795,0.136119\H,0,5.5414
 28,5.094037,0.283986\H,0,3.47976,3.762251,0.215276\\Version=ES64L-G16R
 evA.03\State=2-A\HF=-1904.8777568\S2=0.788783\S2-1=0.\S2A=0.75125\RMSD
 =5.936e-09\Dipole=-0.2715422,0.97238,-0.2824075\Quadrupole=-105.166323
 1,57.3129747,47.8533483,9.2104209,2.2577789,-3.057014\PG=C01 [X(C34H25
 B1F2N4O2)]\\@


 CONTRAIWISE...CONTINUED TWEEDLEDEE, IF IT WAS SO, IT MIGHT BE,
 AND IF IT WERE SO, IT WOULD BE.....
 BUT AS IT ISN'T, IT AIN'T....
 THAT'S LOGIC.....
 ALICE THROUGH THE LOOKING GLASS
 Job cpu time:       1 days  8 hours 48 minutes  8.3 seconds.
 Elapsed time:       0 days  0 hours 31 minutes  5.3 seconds.
 File lengths (MBytes):  RWF=   3044 Int=      0 D2E=      0 Chk=    198 Scr=      1
 Normal termination of Gaussian 16 at Tue Oct 28 18:34:08 2025.
