 Entering Gaussian System, Link 0=g16
 Input=BNP_23NO2_NO2_sp.gjf
 Output=BNP_23NO2_NO2_sp.log
 Initial command:
 /public/software/gauss/g16/l1.exe "/public/home/baiding/1030_BNP_sp/tmp_BNP_23NO2_NO2_sp_1546485/Gau-373298.inp" -scrdir="/public/home/baiding/1030_BNP_sp/tmp_BNP_23NO2_NO2_sp_1546485/"
 Entering Link 1 = /public/software/gauss/g16/l1.exe PID=    373299.
  
 Copyright (c) 1988,1990,1992,1993,1995,1998,2003,2009,2016,
            Gaussian, Inc.  All Rights Reserved.
  
 This is part of the Gaussian(R) 16 program.  It is based on
 the Gaussian(R) 09 system (copyright 2009, Gaussian, Inc.),
 the Gaussian(R) 03 system (copyright 2003, Gaussian, Inc.),
 the Gaussian(R) 98 system (copyright 1998, Gaussian, Inc.),
 the Gaussian(R) 94 system (copyright 1995, Gaussian, Inc.),
 the Gaussian 92(TM) system (copyright 1992, Gaussian, Inc.),
 the Gaussian 90(TM) system (copyright 1990, Gaussian, Inc.),
 the Gaussian 88(TM) system (copyright 1988, Gaussian, Inc.),
 the Gaussian 86(TM) system (copyright 1986, Carnegie Mellon
 University), and the Gaussian 82(TM) system (copyright 1983,
 Carnegie Mellon University). Gaussian is a federally registered
 trademark of Gaussian, Inc.
  
 This software contains proprietary and confidential information,
 including trade secrets, belonging to Gaussian, Inc.
  
 This software is provided under written license and may be
 used, copied, transmitted, or stored only in accord with that
 written license.
  
 The following legend is applicable only to US Government
 contracts under FAR:
  
                    RESTRICTED RIGHTS LEGEND
  
 Use, reproduction and disclosure by the US Government is
 subject to restrictions as set forth in subparagraphs (a)
 and (c) of the Commercial Computer Software - Restricted
 Rights clause in FAR 52.227-19.
  
 Gaussian, Inc.
 340 Quinnipiac St., Bldg. 40, Wallingford CT 06492
  
  
 ---------------------------------------------------------------
 Warning -- This program may not be used in any manner that
 competes with the business of Gaussian, Inc. or will provide
 assistance to any competitor of Gaussian, Inc.  The licensee
 of this program is prohibited from giving any competitor of
 Gaussian, Inc. access to this program.  By using this program,
 the user acknowledges that Gaussian, Inc. is engaged in the
 business of creating and licensing software in the field of
 computational chemistry and represents and warrants to the
 licensee that it is not a competitor of Gaussian, Inc. and that
 it will not use this program in any manner prohibited above.
 ---------------------------------------------------------------
  

 Cite this work as:
 Gaussian 16, Revision A.03,
 M. J. Frisch, G. W. Trucks, H. B. Schlegel, G. E. Scuseria, 
 M. A. Robb, J. R. Cheeseman, G. Scalmani, V. Barone, 
 G. A. Petersson, H. Nakatsuji, X. Li, M. Caricato, A. V. Marenich, 
 J. Bloino, B. G. Janesko, R. Gomperts, B. Mennucci, H. P. Hratchian, 
 J. V. Ortiz, A. F. Izmaylov, J. L. Sonnenberg, D. Williams-Young, 
 F. Ding, F. Lipparini, F. Egidi, J. Goings, B. Peng, A. Petrone, 
 T. Henderson, D. Ranasinghe, V. G. Zakrzewski, J. Gao, N. Rega, 
 G. Zheng, W. Liang, M. Hada, M. Ehara, K. Toyota, R. Fukuda, 
 J. Hasegawa, M. Ishida, T. Nakajima, Y. Honda, O. Kitao, H. Nakai, 
 T. Vreven, K. Throssell, J. A. Montgomery, Jr., J. E. Peralta, 
 F. Ogliaro, M. J. Bearpark, J. J. Heyd, E. N. Brothers, K. N. Kudin, 
 V. N. Staroverov, T. A. Keith, R. Kobayashi, J. Normand, 
 K. Raghavachari, A. P. Rendell, J. C. Burant, S. S. Iyengar, 
 J. Tomasi, M. Cossi, J. M. Millam, M. Klene, C. Adamo, R. Cammi, 
 J. W. Ochterski, R. L. Martin, K. Morokuma, O. Farkas, 
 J. B. Foresman, and D. J. Fox, Gaussian, Inc., Wallingford CT, 2016.
 
 ******************************************
 Gaussian 16:  ES64L-G16RevA.03 25-Dec-2016
                31-Oct-2025 
 ******************************************
 %nprocshared=64
 Will use up to   64 processors via shared memory.
 %mem=230GB
 %chk=BNP_23NO2_NO2_sp.chk
 ----------------------------------------------
 #p M062X/DEF2TZVPP scrf=(solvent=water) em=GD3
 ----------------------------------------------
 1/38=1,172=1/1;
 2/12=2,17=6,18=5,40=1/2;
 3/5=44,7=202,11=2,25=1,30=1,70=2201,72=1,74=-55,124=31/1,2,3;
 4//1;
 5/5=2,38=5,53=1/2;
 6/7=2,8=2,9=2,10=2,28=1/1;
 99/5=1,9=1/99;
 Leave Link    1 at Fri Oct 31 00:04:26 2025, MaxMem= 30870077440 cpu:              13.2 elap:               0.2
 (Enter /public/software/gauss/g16/l101.exe)
 ------------------------------------
 Energy calculation for BNP_23NO2_NO2
 ------------------------------------
 Symbolic Z-matrix:
 Charge =  0 Multiplicity = 1
 C                     4.80758  -3.29002  -0.45838 
 C                     3.4109   -2.75408  -0.37498 
 C                     2.26978  -3.52625  -0.50808 
 C                     1.13242  -2.69874  -0.36231 
 C                    -0.20879  -3.2256   -0.40695 
 C                    -1.36825  -2.65701   0.00897 
 C                    -2.68026  -3.28227  -0.07817 
 C                    -2.93731  -4.51191  -0.71841 
 C                    -4.2186   -5.04177  -0.76699 
 C                    -5.28402  -4.36424  -0.1749 
 N                    -6.62236  -4.89263  -0.37199 
 O                    -6.74576  -6.11276  -0.51445 
 O                    -7.56368  -4.09505  -0.41991 
 C                    -5.04277  -3.14515   0.47784 
 N                    -6.07561  -2.44433   1.25246 
 O                    -6.12999  -1.22005   1.14576 
 O                    -6.78605  -3.11396   1.99967 
 C                    -3.76928  -2.60923   0.51939 
 N                     1.55289  -1.41016  -0.16876 
 C                     2.95066  -1.40924  -0.17042 
 C                     3.67463  -0.20607  -0.03369 
 C                     5.1668   -0.24844   0.03008 
 C                     5.92732  -0.04318  -1.13061 
 C                     7.31639  -0.08046  -1.0779 
 C                     7.92981  -0.31954   0.15139 
 N                     9.38911  -0.35855   0.21513 
 O                     9.92482  -0.56598   1.30844 
 O                     10.02829  -0.18296  -0.82701 
 C                     7.19945  -0.52342   1.32189 
 C                     5.81081  -0.48891   1.25272 
 C                     3.01859   1.02941   0.03013 
 C                     3.51748   2.37635   0.17486 
 C                     4.92776   2.85586   0.32585 
 C                     2.40964   3.20047   0.14784 
 C                     1.2494    2.39656  -0.00918 
 C                    -0.12639   2.80687  -0.11784 
 C                    -0.53868   4.0849    0.07453 
 C                    -1.90728   4.5698   -0.03784 
 C                    -2.1524    5.93954   0.2033 
 C                    -3.42954   6.47134   0.11111 
 C                    -4.48401   5.62094  -0.22832 
 N                    -5.82593   6.16525  -0.33077 
 O                    -6.75264   5.40387  -0.63851 
 O                    -5.99574   7.37121  -0.10679 
 C                    -4.28232   4.25794  -0.47355 
 C                    -3.00142   3.74144  -0.37745 
 N                     1.63164   1.09123  -0.07548 
 B                     0.67781  -0.13257  -0.06386 
 F                    -0.05131  -0.12881   1.13773 
 F                    -0.20854  -0.05948  -1.14347 
 H                     5.38532  -2.81031  -1.25386 
 H                     5.36031  -3.1431    0.47425 
 H                     4.77176  -4.36259  -0.66474 
 H                     2.23287  -4.59424  -0.67638 
 H                    -0.23196  -4.24158  -0.79234 
 H                    -1.3543   -1.68077   0.47671 
 H                    -2.13734  -5.05467  -1.20769 
 H                    -4.41487  -5.96636  -1.2957 
 H                    -3.60716  -1.67708   1.04844 
 H                     5.43013   0.14319  -2.07617 
 H                     7.91353   0.07374  -1.96728 
 H                     7.70781  -0.70575   2.25985 
 H                     5.22409  -0.64745   2.15082 
 H                     5.52385   2.65906  -0.57053 
 H                     4.92897   3.93413   0.5029 
 H                     5.43683   2.37051   1.16361 
 H                     2.42085   4.27926   0.21462 
 H                    -0.84031   2.03527  -0.38099 
 H                     0.19413   4.84225   0.34148 
 H                    -1.32217   6.58748   0.46532 
 H                    -3.61295   7.5219    0.29578 
 H                    -5.11985   3.62376  -0.73403 
 H                    -2.85058   2.68526  -0.56846 
 
 ITRead=  0  0  0  0  0  0  0  0  0  0  0  0  0  0  0  0  0  0  0  0
 ITRead=  0  0  0  0  0  0  0  0  0  0  0  0  0  0  0  0  0  0  0  0
 ITRead=  0  0  0  0  0  0  0  0  0  0  0  0  0  0  0  0  0  0  0  0
 ITRead=  0  0  0  0  0  0  0  0  0  0  0  0  0
 MicOpt= -1 -1 -1 -1 -1 -1 -1 -1 -1 -1 -1 -1 -1 -1 -1 -1 -1 -1 -1 -1
 MicOpt= -1 -1 -1 -1 -1 -1 -1 -1 -1 -1 -1 -1 -1 -1 -1 -1 -1 -1 -1 -1
 MicOpt= -1 -1 -1 -1 -1 -1 -1 -1 -1 -1 -1 -1 -1 -1 -1 -1 -1 -1 -1 -1
 MicOpt= -1 -1 -1 -1 -1 -1 -1 -1 -1 -1 -1 -1 -1
 NAtoms=     73 NQM=       73 NQMF=       0 NMMI=      0 NMMIF=      0
                NMic=       0 NMicF=      0.
                    Isotopes and Nuclear Properties:
 (Nuclear quadrupole moments (NQMom) in fm**2, nuclear magnetic moments (NMagM)
  in nuclear magnetons)

  Atom         1           2           3           4           5           6           7           8           9          10
 IAtWgt=          12          12          12          12          12          12          12          12          12          12
 AtmWgt=  12.0000000  12.0000000  12.0000000  12.0000000  12.0000000  12.0000000  12.0000000  12.0000000  12.0000000  12.0000000
 NucSpn=           0           0           0           0           0           0           0           0           0           0
 AtZEff=  -0.0000000  -0.0000000  -0.0000000  -0.0000000  -0.0000000  -0.0000000  -0.0000000  -0.0000000  -0.0000000  -0.0000000
 NQMom=    0.0000000   0.0000000   0.0000000   0.0000000   0.0000000   0.0000000   0.0000000   0.0000000   0.0000000   0.0000000
 NMagM=    0.0000000   0.0000000   0.0000000   0.0000000   0.0000000   0.0000000   0.0000000   0.0000000   0.0000000   0.0000000
 AtZNuc=   6.0000000   6.0000000   6.0000000   6.0000000   6.0000000   6.0000000   6.0000000   6.0000000   6.0000000   6.0000000

  Atom        11          12          13          14          15          16          17          18          19          20
 IAtWgt=          14          16          16          12          14          16          16          12          14          12
 AtmWgt=  14.0030740  15.9949146  15.9949146  12.0000000  14.0030740  15.9949146  15.9949146  12.0000000  14.0030740  12.0000000
 NucSpn=           2           0           0           0           2           0           0           0           2           0
 AtZEff=  -0.0000000  -0.0000000  -0.0000000  -0.0000000  -0.0000000  -0.0000000  -0.0000000  -0.0000000  -0.0000000  -0.0000000
 NQMom=    2.0440000   0.0000000   0.0000000   0.0000000   2.0440000   0.0000000   0.0000000   0.0000000   2.0440000   0.0000000
 NMagM=    0.4037610   0.0000000   0.0000000   0.0000000   0.4037610   0.0000000   0.0000000   0.0000000   0.4037610   0.0000000
 AtZNuc=   7.0000000   8.0000000   8.0000000   6.0000000   7.0000000   8.0000000   8.0000000   6.0000000   7.0000000   6.0000000

  Atom        21          22          23          24          25          26          27          28          29          30
 IAtWgt=          12          12          12          12          12          14          16          16          12          12
 AtmWgt=  12.0000000  12.0000000  12.0000000  12.0000000  12.0000000  14.0030740  15.9949146  15.9949146  12.0000000  12.0000000
 NucSpn=           0           0           0           0           0           2           0           0           0           0
 AtZEff=  -0.0000000  -0.0000000  -0.0000000  -0.0000000  -0.0000000  -0.0000000  -0.0000000  -0.0000000  -0.0000000  -0.0000000
 NQMom=    0.0000000   0.0000000   0.0000000   0.0000000   0.0000000   2.0440000   0.0000000   0.0000000   0.0000000   0.0000000
 NMagM=    0.0000000   0.0000000   0.0000000   0.0000000   0.0000000   0.4037610   0.0000000   0.0000000   0.0000000   0.0000000
 AtZNuc=   6.0000000   6.0000000   6.0000000   6.0000000   6.0000000   7.0000000   8.0000000   8.0000000   6.0000000   6.0000000

  Atom        31          32          33          34          35          36          37          38          39          40
 IAtWgt=          12          12          12          12          12          12          12          12          12          12
 AtmWgt=  12.0000000  12.0000000  12.0000000  12.0000000  12.0000000  12.0000000  12.0000000  12.0000000  12.0000000  12.0000000
 NucSpn=           0           0           0           0           0           0           0           0           0           0
 AtZEff=  -0.0000000  -0.0000000  -0.0000000  -0.0000000  -0.0000000  -0.0000000  -0.0000000  -0.0000000  -0.0000000  -0.0000000
 NQMom=    0.0000000   0.0000000   0.0000000   0.0000000   0.0000000   0.0000000   0.0000000   0.0000000   0.0000000   0.0000000
 NMagM=    0.0000000   0.0000000   0.0000000   0.0000000   0.0000000   0.0000000   0.0000000   0.0000000   0.0000000   0.0000000
 AtZNuc=   6.0000000   6.0000000   6.0000000   6.0000000   6.0000000   6.0000000   6.0000000   6.0000000   6.0000000   6.0000000

  Atom        41          42          43          44          45          46          47          48          49          50
 IAtWgt=          12          14          16          16          12          12          14          11          19          19
 AtmWgt=  12.0000000  14.0030740  15.9949146  15.9949146  12.0000000  12.0000000  14.0030740  11.0093053  18.9984033  18.9984033
 NucSpn=           0           2           0           0           0           0           2           3           1           1
 AtZEff=  -0.0000000  -0.0000000  -0.0000000  -0.0000000  -0.0000000  -0.0000000  -0.0000000  -0.0000000  -0.0000000  -0.0000000
 NQMom=    0.0000000   2.0440000   0.0000000   0.0000000   0.0000000   0.0000000   2.0440000   4.0590000   0.0000000   0.0000000
 NMagM=    0.0000000   0.4037610   0.0000000   0.0000000   0.0000000   0.0000000   0.4037610   2.6886370   2.6288670   2.6288670
 AtZNuc=   6.0000000   7.0000000   8.0000000   8.0000000   6.0000000   6.0000000   7.0000000   5.0000000   9.0000000   9.0000000

  Atom        51          52          53          54          55          56          57          58          59          60
 IAtWgt=           1           1           1           1           1           1           1           1           1           1
 AtmWgt=   1.0078250   1.0078250   1.0078250   1.0078250   1.0078250   1.0078250   1.0078250   1.0078250   1.0078250   1.0078250
 NucSpn=           1           1           1           1           1           1           1           1           1           1
 AtZEff=  -0.0000000  -0.0000000  -0.0000000  -0.0000000  -0.0000000  -0.0000000  -0.0000000  -0.0000000  -0.0000000  -0.0000000
 NQMom=    0.0000000   0.0000000   0.0000000   0.0000000   0.0000000   0.0000000   0.0000000   0.0000000   0.0000000   0.0000000
 NMagM=    2.7928460   2.7928460   2.7928460   2.7928460   2.7928460   2.7928460   2.7928460   2.7928460   2.7928460   2.7928460
 AtZNuc=   1.0000000   1.0000000   1.0000000   1.0000000   1.0000000   1.0000000   1.0000000   1.0000000   1.0000000   1.0000000

  Atom        61          62          63          64          65          66          67          68          69          70
 IAtWgt=           1           1           1           1           1           1           1           1           1           1
 AtmWgt=   1.0078250   1.0078250   1.0078250   1.0078250   1.0078250   1.0078250   1.0078250   1.0078250   1.0078250   1.0078250
 NucSpn=           1           1           1           1           1           1           1           1           1           1
 AtZEff=  -0.0000000  -0.0000000  -0.0000000  -0.0000000  -0.0000000  -0.0000000  -0.0000000  -0.0000000  -0.0000000  -0.0000000
 NQMom=    0.0000000   0.0000000   0.0000000   0.0000000   0.0000000   0.0000000   0.0000000   0.0000000   0.0000000   0.0000000
 NMagM=    2.7928460   2.7928460   2.7928460   2.7928460   2.7928460   2.7928460   2.7928460   2.7928460   2.7928460   2.7928460
 AtZNuc=   1.0000000   1.0000000   1.0000000   1.0000000   1.0000000   1.0000000   1.0000000   1.0000000   1.0000000   1.0000000

  Atom        71          72          73
 IAtWgt=           1           1           1
 AtmWgt=   1.0078250   1.0078250   1.0078250
 NucSpn=           1           1           1
 AtZEff=  -0.0000000  -0.0000000  -0.0000000
 NQMom=    0.0000000   0.0000000   0.0000000
 NMagM=    2.7928460   2.7928460   2.7928460
 AtZNuc=   1.0000000   1.0000000   1.0000000
 Leave Link  101 at Fri Oct 31 00:04:26 2025, MaxMem= 30870077440 cpu:               4.0 elap:               0.1
 (Enter /public/software/gauss/g16/l202.exe)
 Stoichiometry    C33H23BF2N6O8
 Framework group  C1[X(C33H23BF2N6O8)]
 Deg. of freedom   213
 Full point group                 C1      NOp   1
 Largest Abelian subgroup         C1      NOp   1
 Largest concise Abelian subgroup C1      NOp   1
                         Standard orientation:                         
 ---------------------------------------------------------------------
 Center     Atomic      Atomic             Coordinates (Angstroms)
 Number     Number       Type             X           Y           Z
 ---------------------------------------------------------------------
      1          6           0        4.807578   -3.290016   -0.458383
      2          6           0        3.410902   -2.754076   -0.374978
      3          6           0        2.269780   -3.526254   -0.508084
      4          6           0        1.132422   -2.698744   -0.362311
      5          6           0       -0.208792   -3.225597   -0.406951
      6          6           0       -1.368253   -2.657006    0.008970
      7          6           0       -2.680259   -3.282265   -0.078166
      8          6           0       -2.937312   -4.511907   -0.718410
      9          6           0       -4.218597   -5.041766   -0.766988
     10          6           0       -5.284025   -4.364239   -0.174904
     11          7           0       -6.622359   -4.892626   -0.371986
     12          8           0       -6.745759   -6.112761   -0.514447
     13          8           0       -7.563679   -4.095049   -0.419911
     14          6           0       -5.042771   -3.145151    0.477842
     15          7           0       -6.075608   -2.444329    1.252458
     16          8           0       -6.129992   -1.220054    1.145760
     17          8           0       -6.786053   -3.113965    1.999670
     18          6           0       -3.769278   -2.609231    0.519385
     19          7           0        1.552890   -1.410156   -0.168761
     20          6           0        2.950657   -1.409240   -0.170420
     21          6           0        3.674630   -0.206067   -0.033693
     22          6           0        5.166797   -0.248440    0.030082
     23          6           0        5.927316   -0.043183   -1.130605
     24          6           0        7.316386   -0.080464   -1.077900
     25          6           0        7.929809   -0.319543    0.151392
     26          7           0        9.389113   -0.358550    0.215127
     27          8           0        9.924819   -0.565980    1.308443
     28          8           0       10.028285   -0.182956   -0.827008
     29          6           0        7.199454   -0.523419    1.321890
     30          6           0        5.810814   -0.488910    1.252721
     31          6           0        3.018588    1.029412    0.030126
     32          6           0        3.517481    2.376352    0.174860
     33          6           0        4.927757    2.855862    0.325853
     34          6           0        2.409642    3.200465    0.147841
     35          6           0        1.249397    2.396555   -0.009183
     36          6           0       -0.126389    2.806866   -0.117837
     37          6           0       -0.538680    4.084899    0.074530
     38          6           0       -1.907283    4.569796   -0.037837
     39          6           0       -2.152401    5.939542    0.203296
     40          6           0       -3.429537    6.471336    0.111107
     41          6           0       -4.484009    5.620938   -0.228318
     42          7           0       -5.825925    6.165250   -0.330767
     43          8           0       -6.752644    5.403874   -0.638506
     44          8           0       -5.995742    7.371206   -0.106789
     45          6           0       -4.282323    4.257941   -0.473554
     46          6           0       -3.001417    3.741439   -0.377447
     47          7           0        1.631643    1.091232   -0.075484
     48          5           0        0.677807   -0.132568   -0.063856
     49          9           0       -0.051311   -0.128812    1.137726
     50          9           0       -0.208543   -0.059481   -1.143472
     51          1           0        5.385321   -2.810310   -1.253864
     52          1           0        5.360313   -3.143098    0.474246
     53          1           0        4.771758   -4.362592   -0.664737
     54          1           0        2.232871   -4.594238   -0.676380
     55          1           0       -0.231962   -4.241584   -0.792335
     56          1           0       -1.354304   -1.680769    0.476707
     57          1           0       -2.137335   -5.054671   -1.207688
     58          1           0       -4.414870   -5.966364   -1.295699
     59          1           0       -3.607156   -1.677084    1.048438
     60          1           0        5.430128    0.143188   -2.076173
     61          1           0        7.913531    0.073743   -1.967278
     62          1           0        7.707814   -0.705753    2.259845
     63          1           0        5.224093   -0.647446    2.150821
     64          1           0        5.523849    2.659061   -0.570525
     65          1           0        4.928974    3.934125    0.502902
     66          1           0        5.436832    2.370514    1.163608
     67          1           0        2.420849    4.279261    0.214617
     68          1           0       -0.840308    2.035267   -0.380993
     69          1           0        0.194134    4.842251    0.341483
     70          1           0       -1.322166    6.587476    0.465320
     71          1           0       -3.612945    7.521897    0.295783
     72          1           0       -5.119853    3.623760   -0.734025
     73          1           0       -2.850581    2.685256   -0.568462
 ---------------------------------------------------------------------
 Rotational constants (GHZ):           0.0595334           0.0283970           0.0197529
 Leave Link  202 at Fri Oct 31 00:04:26 2025, MaxMem= 30870077440 cpu:               0.2 elap:               0.0
 (Enter /public/software/gauss/g16/l301.exe)
 Standard basis: def2TZVPP (5D, 7F)
 Ernie: Thresh=  0.10000D-02 Tol=  0.10000D-05 Strict=F.
 There are  2145 symmetry adapted cartesian basis functions of A   symmetry.
 There are  1872 symmetry adapted basis functions of A   symmetry.
  1872 basis functions,  2941 primitive gaussians,  2145 cartesian basis functions
   175 alpha electrons      175 beta electrons
       nuclear repulsion energy      5852.2268635454 Hartrees.
 IExCor= 4336 DFT=T Ex+Corr=M062X ExCW=0 ScaHFX=  0.540000
 ScaDFX=  1.000000  1.000000  1.000000  1.000000 ScalE2=  1.000000  1.000000
 IRadAn=      5 IRanWt=     -1 IRanGd=            0 ICorTp=0 IEmpDi=131
 NAtoms=   73 NActive=   73 NUniq=   73 SFac= 1.00D+00 NAtFMM=   60 NAOKFM=T Big=T
 Integral buffers will be    131072 words long.
 Raffenetti 2 integral format.
 Two-electron integral symmetry is turned on.
 R6Disp:  Grimme-D3 Dispersion energy=       -0.0063167207 Hartrees.
 Nuclear repulsion after empirical dispersion term =     5852.2205468248 Hartrees.
 ------------------------------------------------------------------------------
 Polarizable Continuum Model (PCM)
 =================================
 Model                : PCM.
 Atomic radii         : UFF (Universal Force Field).
 Polarization charges : Total charges.
 Charge compensation  : None.
 Solution method      : On-the-fly selection.
 Cavity type          : Scaled VdW (van der Waals Surface) (Alpha=1.100).
 Cavity algorithm     : GePol (No added spheres)
                        Default sphere list used, NSphG=   73.
                        Lebedev-Laikov grids with approx.  5.0 points / Ang**2.
                        Smoothing algorithm: York/Karplus (Gamma=1.0000).
                        Polarization charges: spherical gaussians, with
                                              point-specific exponents (IZeta= 3).
                        Self-potential: point-specific (ISelfS= 7).
                        Self-field    : sphere-specific E.n sum rule (ISelfD= 2).
 Solvent              : Water, Eps=  78.355300 Eps(inf)=   1.777849
 ------------------------------------------------------------------------------
 GePol: Number of generator spheres                  =      73
 GePol: Total number of spheres                      =      73
 GePol: Number of exposed spheres                    =      73 (100.00%)
 GePol: Number of points                             =    5639
 GePol: Average weight of points                     =       0.13
 GePol: Minimum weight of points                     =   0.38D-11
 GePol: Maximum weight of points                     =    0.20577
 GePol: Number of points with low weight             =     345
 GePol: Fraction of low-weight points (<1% of avg)   =       6.12%
 GePol: Cavity surface area                          =    710.634 Ang**2
 GePol: Cavity volume                                =    823.816 Ang**3
 Leave Link  301 at Fri Oct 31 00:04:26 2025, MaxMem= 30870077440 cpu:               3.6 elap:               0.1
 (Enter /public/software/gauss/g16/l302.exe)
 NPDir=0 NMtPBC=     1 NCelOv=     1 NCel=       1 NClECP=     1 NCelD=      1
         NCelK=      1 NCelE2=     1 NClLst=     1 CellRange=     0.0.
 One-electron integrals computed using PRISM.
 One-electron integral symmetry used in STVInt
   1 Symmetry operations used in ECPInt.
 ECPInt:  NShTT=  237016 NPrTT=  702689 LenC2=  144382 LenP2D=  281526.
 LDataN:  DoStor=T MaxTD1= 6 Len=  172
 NBasis=  1872 RedAO= T EigKep=  3.73D-06  NBF=  1872
 NBsUse=  1872 1.00D-06 EigRej= -1.00D+00 NBFU=  1872
 Precomputing XC quadrature grid using
 IXCGrd= 4 IRadAn=           5 IRanWt=          -1 IRanGd=           0 AccXCQ= 0.00D+00.
 Generated NRdTot=       0 NPtTot=           0 NUsed=           0 NTot=          32
 NSgBfM=  1853  1853  1853  1853  1853 MxSgAt=    73 MxSgA2=    73.
 Leave Link  302 at Fri Oct 31 00:04:36 2025, MaxMem= 30870077440 cpu:             605.9 elap:               9.5
 (Enter /public/software/gauss/g16/l303.exe)
 DipDrv:  MaxL=1.
 Leave Link  303 at Fri Oct 31 00:04:36 2025, MaxMem= 30870077440 cpu:              28.0 elap:               0.5
 (Enter /public/software/gauss/g16/l401.exe)
 ExpMin= 6.06D-02 ExpMax= 3.55D+04 ExpMxC= 1.21D+03 IAcc=3 IRadAn=         5 AccDes= 0.00D+00
 Harris functional with IExCor= 1009 and IRadAn=       5 diagonalized for initial guess.
 HarFok:  IExCor= 1009 AccDes= 0.00D+00 IRadAn=         5 IDoV= 1 UseB2=F ITyADJ=14
 ICtDFT=  3500011 ScaDFX=  1.000000  1.000000  1.000000  1.000000
 FoFCou: FMM=F IPFlag=           0 FMFlag=      100000 FMFlg1=        2001
         NFxFlg=           0 DoJE=T BraDBF=F KetDBF=T FulRan=T
         wScrn=  0.000000 ICntrl=       500 IOpCl=  0 I1Cent=   200000004 NGrid=           0
         NMat0=    1 NMatS0=      1 NMatT0=    0 NMatD0=    1 NMtDS0=    0 NMtDT0=    0
 Petite list used in FoFCou.
 Harris En= -2424.81743838666    
 JPrj=0 DoOrth=F DoCkMO=F.
 Leave Link  401 at Fri Oct 31 00:04:47 2025, MaxMem= 30870077440 cpu:             658.6 elap:              10.4
 (Enter /public/software/gauss/g16/l502.exe)
 Integral symmetry usage will be decided dynamically.
 Closed shell SCF:
 Using DIIS extrapolation, IDIIS=  1040.
 NGot= 30870077440 LenX= 30860720245 LenY= 30856117075
 Requested convergence on RMS density matrix=1.00D-08 within 128 cycles.
 Requested convergence on MAX density matrix=1.00D-06.
 Requested convergence on             energy=1.00D-06.
 No special actions if energy rises.
 Fock matrices will be formed incrementally for  20 cycles.

 Cycle   1  Pass 1  IDiag  1:
 FoFJK:  IHMeth= 1 ICntrl=       0 DoSepK=F KAlg= 0 I1Cent=           0 FoldK=F
 IRaf= 570000000 NMat=       1 IRICut=       1 DoRegI=T DoRafI=F ISym2E= 0 IDoP0=0 IntGTp=1.
 FoFCou: FMM=T IPFlag=           0 FMFlag=      100000 FMFlg1=        2001
         NFxFlg=           0 DoJE=F BraDBF=F KetDBF=F FulRan=T
         wScrn=  0.000000 ICntrl=         0 IOpCl=  0 I1Cent=           0 NGrid=           0
         NMat0=    1 NMatS0=      1 NMatT0=    0 NMatD0=    1 NMtDS0=    0 NMtDT0=    0
 Symmetry not used in FoFCou.
 FMM levels:  10  Number of levels for PrismC:   9
 Inv3:  Mode=1 IEnd=    95394963.
 Iteration    1 A*A^-1 deviation from unit magnitude is 1.50D-14 for    943.
 Iteration    1 A*A^-1 deviation from orthogonality  is 6.12D-15 for   5634   1565.
 Iteration    1 A^-1*A deviation from unit magnitude is 1.57D-14 for    943.
 Iteration    1 A^-1*A deviation from orthogonality  is 4.49D-15 for   5449    697.
 E= -2424.72468475862    
 DIIS: error= 2.43D-02 at cycle   1 NSaved=   1.
 NSaved= 1 IEnMin= 1 EnMin= -2424.72468475862     IErMin= 1 ErrMin= 2.43D-02
 ErrMax= 2.43D-02  0.00D+00 EMaxC= 1.00D-01 BMatC= 1.88D+00 BMatP= 1.88D+00
 IDIUse=3 WtCom= 7.57D-01 WtEn= 2.43D-01
 Coeff-Com:  0.100D+01
 Coeff-En:   0.100D+01
 Coeff:      0.100D+01
 Gap=     0.126 Goal=   None    Shift=    0.000
 GapD=    0.126 DampG=1.000 DampE=0.500 DampFc=0.5000 IDamp=-1.
 Damping current iteration by 5.00D-01
 RMSDP=1.45D-03 MaxDP=1.99D-01              OVMax= 2.62D-01

 Cycle   2  Pass 1  IDiag  1:
 RMSU=  7.25D-04    CP:  9.93D-01
 E= -2425.26958837459     Delta-E=       -0.544903615964 Rises=F Damp=T
 DIIS: error= 5.74D-03 at cycle   2 NSaved=   2.
 NSaved= 2 IEnMin= 2 EnMin= -2425.26958837459     IErMin= 2 ErrMin= 5.74D-03
 ErrMax= 5.74D-03  0.00D+00 EMaxC= 1.00D-01 BMatC= 2.08D-01 BMatP= 1.88D+00
 IDIUse=3 WtCom= 9.43D-01 WtEn= 5.74D-02
 Coeff-Com:  0.607D-01 0.939D+00
 Coeff-En:   0.134D+00 0.866D+00
 Coeff:      0.649D-01 0.935D+00
 Gap=     0.154 Goal=   None    Shift=    0.000
 RMSDP=6.00D-04 MaxDP=5.56D-02 DE=-5.45D-01 OVMax= 1.89D-01

 Cycle   3  Pass 1  IDiag  1:
 RMSU=  5.72D-04    CP:  9.78D-01  1.23D+00
 E= -2425.95457681698     Delta-E=       -0.684988442395 Rises=F Damp=F
 DIIS: error= 6.86D-03 at cycle   3 NSaved=   3.
 NSaved= 3 IEnMin= 3 EnMin= -2425.95457681698     IErMin= 2 ErrMin= 5.74D-03
 ErrMax= 6.86D-03  0.00D+00 EMaxC= 1.00D-01 BMatC= 8.67D-02 BMatP= 2.08D-01
 IDIUse=3 WtCom= 9.31D-01 WtEn= 6.86D-02
 Coeff-Com: -0.700D-01 0.384D+00 0.686D+00
 Coeff-En:   0.000D+00 0.000D+00 0.100D+01
 Coeff:     -0.652D-01 0.358D+00 0.707D+00
 Gap=     0.129 Goal=   None    Shift=    0.000
 RMSDP=2.01D-04 MaxDP=2.19D-02 DE=-6.85D-01 OVMax= 4.59D-02

 Cycle   4  Pass 1  IDiag  1:
 RMSU=  1.90D-04    CP:  9.80D-01  1.30D+00  9.20D-01
 E= -2426.01204932718     Delta-E=       -0.057472510201 Rises=F Damp=F
 DIIS: error= 1.70D-03 at cycle   4 NSaved=   4.
 NSaved= 4 IEnMin= 4 EnMin= -2426.01204932718     IErMin= 4 ErrMin= 1.70D-03
 ErrMax= 1.70D-03  0.00D+00 EMaxC= 1.00D-01 BMatC= 1.21D-02 BMatP= 8.67D-02
 IDIUse=3 WtCom= 9.83D-01 WtEn= 1.70D-02
 Coeff-Com: -0.260D-01 0.762D-01 0.327D+00 0.623D+00
 Coeff-En:   0.000D+00 0.000D+00 0.793D-01 0.921D+00
 Coeff:     -0.255D-01 0.749D-01 0.323D+00 0.628D+00
 Gap=     0.131 Goal=   None    Shift=    0.000
 RMSDP=6.62D-05 MaxDP=1.02D-02 DE=-5.75D-02 OVMax= 1.69D-02

 Cycle   5  Pass 1  IDiag  1:
 RMSU=  4.97D-05    CP:  9.79D-01  1.28D+00  9.58D-01  8.09D-01
 E= -2426.02138317410     Delta-E=       -0.009333846918 Rises=F Damp=F
 DIIS: error= 3.97D-04 at cycle   5 NSaved=   5.
 NSaved= 5 IEnMin= 5 EnMin= -2426.02138317410     IErMin= 5 ErrMin= 3.97D-04
 ErrMax= 3.97D-04  0.00D+00 EMaxC= 1.00D-01 BMatC= 8.49D-04 BMatP= 1.21D-02
 IDIUse=3 WtCom= 9.96D-01 WtEn= 3.97D-03
 Coeff-Com: -0.886D-02 0.165D-01 0.126D+00 0.314D+00 0.553D+00
 Coeff-En:   0.000D+00 0.000D+00 0.000D+00 0.000D+00 0.100D+01
 Coeff:     -0.882D-02 0.165D-01 0.125D+00 0.313D+00 0.554D+00
 Gap=     0.132 Goal=   None    Shift=    0.000
 RMSDP=2.05D-05 MaxDP=5.11D-03 DE=-9.33D-03 OVMax= 6.31D-03

 Cycle   6  Pass 1  IDiag  1:
 RMSU=  1.76D-05    CP:  9.79D-01  1.29D+00  9.53D-01  8.32D-01  8.43D-01
 E= -2426.02202175179     Delta-E=       -0.000638577691 Rises=F Damp=F
 DIIS: error= 1.85D-04 at cycle   6 NSaved=   6.
 NSaved= 6 IEnMin= 6 EnMin= -2426.02202175179     IErMin= 6 ErrMin= 1.85D-04
 ErrMax= 1.85D-04  0.00D+00 EMaxC= 1.00D-01 BMatC= 1.03D-04 BMatP= 8.49D-04
 IDIUse=3 WtCom= 9.98D-01 WtEn= 1.85D-03
 Coeff-Com: -0.223D-02 0.186D-02 0.359D-01 0.104D+00 0.297D+00 0.563D+00
 Coeff-En:   0.000D+00 0.000D+00 0.000D+00 0.000D+00 0.000D+00 0.100D+01
 Coeff:     -0.223D-02 0.186D-02 0.358D-01 0.103D+00 0.297D+00 0.564D+00
 Gap=     0.132 Goal=   None    Shift=    0.000
 RMSDP=7.65D-06 MaxDP=1.55D-03 DE=-6.39D-04 OVMax= 2.88D-03

 Cycle   7  Pass 1  IDiag  1:
 RMSU=  6.74D-06    CP:  9.79D-01  1.29D+00  9.55D-01  8.33D-01  9.05D-01
                    CP:  9.27D-01
 E= -2426.02210070380     Delta-E=       -0.000078952011 Rises=F Damp=F
 DIIS: error= 6.24D-05 at cycle   7 NSaved=   7.
 NSaved= 7 IEnMin= 7 EnMin= -2426.02210070380     IErMin= 7 ErrMin= 6.24D-05
 ErrMax= 6.24D-05  0.00D+00 EMaxC= 1.00D-01 BMatC= 1.37D-05 BMatP= 1.03D-04
 IDIUse=1 WtCom= 1.00D+00 WtEn= 0.00D+00
 Coeff-Com:  0.718D-03-0.254D-02-0.752D-02-0.132D-01 0.378D-01 0.283D+00
 Coeff-Com:  0.702D+00
 Coeff:      0.718D-03-0.254D-02-0.752D-02-0.132D-01 0.378D-01 0.283D+00
 Coeff:      0.702D+00
 Gap=     0.133 Goal=   None    Shift=    0.000
 RMSDP=4.27D-06 MaxDP=1.06D-03 DE=-7.90D-05 OVMax= 1.95D-03

 Cycle   8  Pass 1  IDiag  1:
 RMSU=  3.20D-06    CP:  9.79D-01  1.29D+00  9.56D-01  8.38D-01  9.38D-01
                    CP:  1.04D+00  1.06D+00
 E= -2426.02211535179     Delta-E=       -0.000014647983 Rises=F Damp=F
 DIIS: error= 2.27D-05 at cycle   8 NSaved=   8.
 NSaved= 8 IEnMin= 8 EnMin= -2426.02211535179     IErMin= 8 ErrMin= 2.27D-05
 ErrMax= 2.27D-05  0.00D+00 EMaxC= 1.00D-01 BMatC= 1.67D-06 BMatP= 1.37D-05
 IDIUse=1 WtCom= 1.00D+00 WtEn= 0.00D+00
 Coeff-Com:  0.644D-03-0.144D-02-0.840D-02-0.211D-01-0.267D-01 0.451D-01
 Coeff-Com:  0.311D+00 0.701D+00
 Coeff:      0.644D-03-0.144D-02-0.840D-02-0.211D-01-0.267D-01 0.451D-01
 Coeff:      0.311D+00 0.701D+00
 Gap=     0.133 Goal=   None    Shift=    0.000
 RMSDP=1.77D-06 MaxDP=3.05D-04 DE=-1.46D-05 OVMax= 8.60D-04

 Cycle   9  Pass 1  IDiag  1:
 RMSU=  1.10D-06    CP:  9.79D-01  1.29D+00  9.56D-01  8.41D-01  9.55D-01
                    CP:  1.07D+00  1.17D+00  1.05D+00
 E= -2426.02211783605     Delta-E=       -0.000002484263 Rises=F Damp=F
 DIIS: error= 1.01D-05 at cycle   9 NSaved=   9.
 NSaved= 9 IEnMin= 9 EnMin= -2426.02211783605     IErMin= 9 ErrMin= 1.01D-05
 ErrMax= 1.01D-05  0.00D+00 EMaxC= 1.00D-01 BMatC= 2.98D-07 BMatP= 1.67D-06
 IDIUse=1 WtCom= 1.00D+00 WtEn= 0.00D+00
 Coeff-Com:  0.200D-03-0.317D-03-0.270D-02-0.814D-02-0.175D-01-0.151D-01
 Coeff-Com:  0.483D-01 0.326D+00 0.669D+00
 Coeff:      0.200D-03-0.317D-03-0.270D-02-0.814D-02-0.175D-01-0.151D-01
 Coeff:      0.483D-01 0.326D+00 0.669D+00
 Gap=     0.133 Goal=   None    Shift=    0.000
 RMSDP=7.25D-07 MaxDP=2.29D-04 DE=-2.48D-06 OVMax= 3.99D-04

 Cycle  10  Pass 1  IDiag  1:
 RMSU=  4.45D-07    CP:  9.79D-01  1.29D+00  9.56D-01  8.41D-01  9.59D-01
                    CP:  1.08D+00  1.21D+00  1.16D+00  1.08D+00
 E= -2426.02211829044     Delta-E=       -0.000000454396 Rises=F Damp=F
 DIIS: error= 3.07D-06 at cycle  10 NSaved=  10.
 NSaved=10 IEnMin=10 EnMin= -2426.02211829044     IErMin=10 ErrMin= 3.07D-06
 ErrMax= 3.07D-06  0.00D+00 EMaxC= 1.00D-01 BMatC= 3.74D-08 BMatP= 2.98D-07
 IDIUse=1 WtCom= 1.00D+00 WtEn= 0.00D+00
 Coeff-Com: -0.354D-04 0.129D-03 0.497D-03 0.624D-03-0.171D-02-0.120D-01
 Coeff-Com: -0.388D-01-0.970D-02 0.247D+00 0.814D+00
 Coeff:     -0.354D-04 0.129D-03 0.497D-03 0.624D-03-0.171D-02-0.120D-01
 Coeff:     -0.388D-01-0.970D-02 0.247D+00 0.814D+00
 Gap=     0.133 Goal=   None    Shift=    0.000
 RMSDP=3.48D-07 MaxDP=7.95D-05 DE=-4.54D-07 OVMax= 2.50D-04

 Cycle  11  Pass 1  IDiag  1:
 RMSU=  1.89D-07    CP:  9.79D-01  1.29D+00  9.56D-01  8.41D-01  9.61D-01
                    CP:  1.09D+00  1.23D+00  1.21D+00  1.19D+00  1.17D+00
 E= -2426.02211837839     Delta-E=       -0.000000087948 Rises=F Damp=F
 DIIS: error= 1.90D-06 at cycle  11 NSaved=  11.
 NSaved=11 IEnMin=11 EnMin= -2426.02211837839     IErMin=11 ErrMin= 1.90D-06
 ErrMax= 1.90D-06  0.00D+00 EMaxC= 1.00D-01 BMatC= 8.55D-09 BMatP= 3.74D-08
 IDIUse=1 WtCom= 1.00D+00 WtEn= 0.00D+00
 Coeff-Com: -0.449D-04 0.102D-03 0.601D-03 0.149D-02 0.189D-02-0.256D-02
 Coeff-Com: -0.252D-01-0.575D-01-0.632D-04 0.375D+00 0.706D+00
 Coeff:     -0.449D-04 0.102D-03 0.601D-03 0.149D-02 0.189D-02-0.256D-02
 Coeff:     -0.252D-01-0.575D-01-0.632D-04 0.375D+00 0.706D+00
 Gap=     0.133 Goal=   None    Shift=    0.000
 RMSDP=1.55D-07 MaxDP=3.71D-05 DE=-8.79D-08 OVMax= 1.01D-04

 Cycle  12  Pass 1  IDiag  1:
 RMSU=  8.04D-08    CP:  9.79D-01  1.29D+00  9.56D-01  8.41D-01  9.62D-01
                    CP:  1.09D+00  1.24D+00  1.23D+00  1.25D+00  1.32D+00
                    CP:  1.09D+00
 E= -2426.02211839391     Delta-E=       -0.000000015514 Rises=F Damp=F
 DIIS: error= 4.32D-07 at cycle  12 NSaved=  12.
 NSaved=12 IEnMin=12 EnMin= -2426.02211839391     IErMin=12 ErrMin= 4.32D-07
 ErrMax= 4.32D-07  0.00D+00 EMaxC= 1.00D-01 BMatC= 1.02D-09 BMatP= 8.55D-09
 IDIUse=1 WtCom= 1.00D+00 WtEn= 0.00D+00
 Coeff-Com: -0.145D-04 0.267D-04 0.175D-03 0.534D-03 0.102D-02 0.617D-03
 Coeff-Com: -0.548D-02-0.231D-01-0.345D-01 0.432D-01 0.281D+00 0.736D+00
 Coeff:     -0.145D-04 0.267D-04 0.175D-03 0.534D-03 0.102D-02 0.617D-03
 Coeff:     -0.548D-02-0.231D-01-0.345D-01 0.432D-01 0.281D+00 0.736D+00
 Gap=     0.133 Goal=   None    Shift=    0.000
 RMSDP=5.21D-08 MaxDP=5.50D-06 DE=-1.55D-08 OVMax= 3.62D-05

 Cycle  13  Pass 1  IDiag  1:
 RMSU=  3.14D-08    CP:  9.79D-01  1.29D+00  9.56D-01  8.41D-01  9.62D-01
                    CP:  1.09D+00  1.24D+00  1.23D+00  1.27D+00  1.37D+00
                    CP:  1.20D+00  1.07D+00
 E= -2426.02211839577     Delta-E=       -0.000000001863 Rises=F Damp=F
 DIIS: error= 2.60D-07 at cycle  13 NSaved=  13.
 NSaved=13 IEnMin=13 EnMin= -2426.02211839577     IErMin=13 ErrMin= 2.60D-07
 ErrMax= 2.60D-07  0.00D+00 EMaxC= 1.00D-01 BMatC= 2.59D-10 BMatP= 1.02D-09
 IDIUse=1 WtCom= 1.00D+00 WtEn= 0.00D+00
 Coeff-Com: -0.270D-07-0.279D-05-0.159D-04 0.146D-04 0.186D-03 0.762D-03
 Coeff-Com:  0.158D-02-0.136D-02-0.152D-01-0.411D-01 0.752D-02 0.353D+00
 Coeff-Com:  0.695D+00
 Coeff:     -0.270D-07-0.279D-05-0.159D-04 0.146D-04 0.186D-03 0.762D-03
 Coeff:      0.158D-02-0.136D-02-0.152D-01-0.411D-01 0.752D-02 0.353D+00
 Coeff:      0.695D+00
 Gap=     0.133 Goal=   None    Shift=    0.000
 RMSDP=2.44D-08 MaxDP=3.78D-06 DE=-1.86D-09 OVMax= 1.94D-05

 Cycle  14  Pass 1  IDiag  1:
 RMSU=  1.38D-08    CP:  9.79D-01  1.29D+00  9.56D-01  8.41D-01  9.62D-01
                    CP:  1.09D+00  1.24D+00  1.24D+00  1.28D+00  1.39D+00
                    CP:  1.24D+00  1.23D+00  1.11D+00
 E= -2426.02211839626     Delta-E=       -0.000000000489 Rises=F Damp=F
 DIIS: error= 1.31D-07 at cycle  14 NSaved=  14.
 NSaved=14 IEnMin=14 EnMin= -2426.02211839626     IErMin=14 ErrMin= 1.31D-07
 ErrMax= 1.31D-07  0.00D+00 EMaxC= 1.00D-01 BMatC= 6.33D-11 BMatP= 2.59D-10
 IDIUse=1 WtCom= 1.00D+00 WtEn= 0.00D+00
 Coeff-Com:  0.267D-05-0.640D-05-0.426D-04-0.944D-04-0.998D-04 0.284D-03
 Coeff-Com:  0.193D-02 0.394D-02-0.492D-03-0.305D-01-0.560D-01 0.368D-01
 Coeff-Com:  0.365D+00 0.680D+00
 Coeff:      0.267D-05-0.640D-05-0.426D-04-0.944D-04-0.998D-04 0.284D-03
 Coeff:      0.193D-02 0.394D-02-0.492D-03-0.305D-01-0.560D-01 0.368D-01
 Coeff:      0.365D+00 0.680D+00
 Gap=     0.133 Goal=   None    Shift=    0.000
 RMSDP=1.26D-08 MaxDP=1.49D-06 DE=-4.89D-10 OVMax= 1.06D-05

 Cycle  15  Pass 1  IDiag  1:
 RMSU=  6.97D-09    CP:  9.79D-01  1.29D+00  9.56D-01  8.41D-01  9.62D-01
                    CP:  1.09D+00  1.24D+00  1.24D+00  1.28D+00  1.39D+00
                    CP:  1.27D+00  1.28D+00  1.31D+00  1.26D+00
 E= -2426.02211839627     Delta-E=       -0.000000000011 Rises=F Damp=F
 DIIS: error= 7.14D-08 at cycle  15 NSaved=  15.
 NSaved=15 IEnMin=15 EnMin= -2426.02211839627     IErMin=15 ErrMin= 7.14D-08
 ErrMax= 7.14D-08  0.00D+00 EMaxC= 1.00D-01 BMatC= 1.27D-11 BMatP= 6.33D-11
 IDIUse=1 WtCom= 1.00D+00 WtEn= 0.00D+00
 Coeff-Com:  0.118D-05-0.212D-05-0.151D-04-0.471D-04-0.101D-03-0.932D-04
 Coeff-Com:  0.440D-03 0.222D-02 0.406D-02-0.365D-02-0.285D-01-0.814D-01
 Coeff-Com: -0.218D-01 0.308D+00 0.821D+00
 Coeff:      0.118D-05-0.212D-05-0.151D-04-0.471D-04-0.101D-03-0.932D-04
 Coeff:      0.440D-03 0.222D-02 0.406D-02-0.365D-02-0.285D-01-0.814D-01
 Coeff:     -0.218D-01 0.308D+00 0.821D+00
 Gap=     0.133 Goal=   None    Shift=    0.000
 RMSDP=8.66D-09 MaxDP=1.15D-06 DE=-1.09D-11 OVMax= 8.32D-06

 Cycle  16  Pass 1  IDiag  1:
 RMSU=  3.67D-09    CP:  9.79D-01  1.29D+00  9.56D-01  8.41D-01  9.62D-01
                    CP:  1.09D+00  1.24D+00  1.24D+00  1.28D+00  1.39D+00
                    CP:  1.28D+00  1.31D+00  1.46D+00  1.58D+00  1.35D+00
 E= -2426.02211839615     Delta-E=        0.000000000122 Rises=F Damp=F
 DIIS: error= 3.72D-08 at cycle  16 NSaved=  16.
 NSaved=16 IEnMin=15 EnMin= -2426.02211839627     IErMin=16 ErrMin= 3.72D-08
 ErrMax= 3.72D-08  0.00D+00 EMaxC= 1.00D-01 BMatC= 3.08D-12 BMatP= 1.27D-11
 IDIUse=1 WtCom= 1.00D+00 WtEn= 0.00D+00
 Coeff-Com: -0.133D-06 0.627D-06 0.414D-05 0.268D-05-0.199D-04-0.116D-03
 Coeff-Com: -0.295D-03-0.344D-05 0.183D-02 0.594D-02 0.379D-02-0.422D-01
 Coeff-Com: -0.989D-01-0.427D-01 0.350D+00 0.823D+00
 Coeff:     -0.133D-06 0.627D-06 0.414D-05 0.268D-05-0.199D-04-0.116D-03
 Coeff:     -0.295D-03-0.344D-05 0.183D-02 0.594D-02 0.379D-02-0.422D-01
 Coeff:     -0.989D-01-0.427D-01 0.350D+00 0.823D+00
 Gap=     0.133 Goal=   None    Shift=    0.000
 RMSDP=4.50D-09 MaxDP=5.71D-07 DE= 1.22D-10 OVMax= 4.45D-06

 Error on total polarization charges =  0.02091
 SCF Done:  E(RM062X) =  -2426.02211840     A.U. after   16 cycles
            NFock= 16  Conv=0.45D-08     -V/T= 2.0052
 KE= 2.413530371394D+03 PE=-1.736680579112D+04 EE= 6.675032754506D+03
 Leave Link  502 at Fri Oct 31 00:21:23 2025, MaxMem= 30870077440 cpu:           62658.9 elap:             996.5
 (Enter /public/software/gauss/g16/l601.exe)
 Copying SCF densities to generalized density rwf, IOpCl= 0 IROHF=0.

 **********************************************************************

            Population analysis using the SCF density.

 **********************************************************************

 Orbital symmetries:
       Occupied  (A) (A) (A) (A) (A) (A) (A) (A) (A) (A) (A) (A)
                 (A) (A) (A) (A) (A) (A) (A) (A) (A) (A) (A) (A)
                 (A) (A) (A) (A) (A) (A) (A) (A) (A) (A) (A) (A)
                 (A) (A) (A) (A) (A) (A) (A) (A) (A) (A) (A) (A)
                 (A) (A) (A) (A) (A) (A) (A) (A) (A) (A) (A) (A)
                 (A) (A) (A) (A) (A) (A) (A) (A) (A) (A) (A) (A)
                 (A) (A) (A) (A) (A) (A) (A) (A) (A) (A) (A) (A)
                 (A) (A) (A) (A) (A) (A) (A) (A) (A) (A) (A) (A)
                 (A) (A) (A) (A) (A) (A) (A) (A) (A) (A) (A) (A)
                 (A) (A) (A) (A) (A) (A) (A) (A) (A) (A) (A) (A)
                 (A) (A) (A) (A) (A) (A) (A) (A) (A) (A) (A) (A)
                 (A) (A) (A) (A) (A) (A) (A) (A) (A) (A) (A) (A)
                 (A) (A) (A) (A) (A) (A) (A) (A) (A) (A) (A) (A)
                 (A) (A) (A) (A) (A) (A) (A) (A) (A) (A) (A) (A)
                 (A) (A) (A) (A) (A) (A) (A)
       Virtual   (A) (A) (A) (A) (A) (A) (A) (A) (A) (A) (A) (A)
                 (A) (A) (A) (A) (A) (A) (A) (A) (A) (A) (A) (A)
                 (A) (A) (A) (A) (A) (A) (A) (A) (A) (A) (A) (A)
                 (A) (A) (A) (A) (A) (A) (A) (A) (A) (A) (A) (A)
                 (A) (A) (A) (A) (A) (A) (A) (A) (A) (A) (A) (A)
                 (A) (A) (A) (A) (A) (A) (A) (A) (A) (A) (A) (A)
                 (A) (A) (A) (A) (A) (A) (A) (A) (A) (A) (A) (A)
                 (A) (A) (A) (A) (A) (A) (A) (A) (A) (A) (A) (A)
                 (A) (A) (A) (A) (A) (A) (A) (A) (A) (A) (A) (A)
                 (A) (A) (A) (A) (A) (A) (A) (A) (A) (A) (A) (A)
                 (A) (A) (A) (A) (A) (A) (A) (A) (A) (A) (A) (A)
                 (A) (A) (A) (A) (A) (A) (A) (A) (A) (A) (A) (A)
                 (A) (A) (A) (A) (A) (A) (A) (A) (A) (A) (A) (A)
                 (A) (A) (A) (A) (A) (A) (A) (A) (A) (A) (A) (A)
                 (A) (A) (A) (A) (A) (A) (A) (A) (A) (A) (A) (A)
                 (A) (A) (A) (A) (A) (A) (A) (A) (A) (A) (A) (A)
                 (A) (A) (A) (A) (A) (A) (A) (A) (A) (A) (A) (A)
                 (A) (A) (A) (A) (A) (A) (A) (A) (A) (A) (A) (A)
                 (A) (A) (A) (A) (A) (A) (A) (A) (A) (A) (A) (A)
                 (A) (A) (A) (A) (A) (A) (A) (A) (A) (A) (A) (A)
                 (A) (A) (A) (A) (A) (A) (A) (A) (A) (A) (A) (A)
                 (A) (A) (A) (A) (A) (A) (A) (A) (A) (A) (A) (A)
                 (A) (A) (A) (A) (A) (A) (A) (A) (A) (A) (A) (A)
                 (A) (A) (A) (A) (A) (A) (A) (A) (A) (A) (A) (A)
                 (A) (A) (A) (A) (A) (A) (A) (A) (A) (A) (A) (A)
                 (A) (A) (A) (A) (A) (A) (A) (A) (A) (A) (A) (A)
                 (A) (A) (A) (A) (A) (A) (A) (A) (A) (A) (A) (A)
                 (A) (A) (A) (A) (A) (A) (A) (A) (A) (A) (A) (A)
                 (A) (A) (A) (A) (A) (A) (A) (A) (A) (A) (A) (A)
                 (A) (A) (A) (A) (A) (A) (A) (A) (A) (A) (A) (A)
                 (A) (A) (A) (A) (A) (A) (A) (A) (A) (A) (A) (A)
                 (A) (A) (A) (A) (A) (A) (A) (A) (A) (A) (A) (A)
                 (A) (A) (A) (A) (A) (A) (A) (A) (A) (A) (A) (A)
                 (A) (A) (A) (A) (A) (A) (A) (A) (A) (A) (A) (A)
                 (A) (A) (A) (A) (A) (A) (A) (A) (A) (A) (A) (A)
                 (A) (A) (A) (A) (A) (A) (A) (A) (A) (A) (A) (A)
                 (A) (A) (A) (A) (A) (A) (A) (A) (A) (A) (A) (A)
                 (A) (A) (A) (A) (A) (A) (A) (A) (A) (A) (A) (A)
                 (A) (A) (A) (A) (A) (A) (A) (A) (A) (A) (A) (A)
                 (A) (A) (A) (A) (A) (A) (A) (A) (A) (A) (A) (A)
                 (A) (A) (A) (A) (A) (A) (A) (A) (A) (A) (A) (A)
                 (A) (A) (A) (A) (A) (A) (A) (A) (A) (A) (A) (A)
                 (A) (A) (A) (A) (A) (A) (A) (A) (A) (A) (A) (A)
                 (A) (A) (A) (A) (A) (A) (A) (A) (A) (A) (A) (A)
                 (A) (A) (A) (A) (A) (A) (A) (A) (A) (A) (A) (A)
                 (A) (A) (A) (A) (A) (A) (A) (A) (A) (A) (A) (A)
                 (A) (A) (A) (A) (A) (A) (A) (A) (A) (A) (A) (A)
                 (A) (A) (A) (A) (A) (A) (A) (A) (A) (A) (A) (A)
                 (A) (A) (A) (A) (A) (A) (A) (A) (A) (A) (A) (A)
                 (A) (A) (A) (A) (A) (A) (A) (A) (A) (A) (A) (A)
                 (A) (A) (A) (A) (A) (A) (A) (A) (A) (A) (A) (A)
                 (A) (A) (A) (A) (A) (A) (A) (A) (A) (A) (A) (A)
                 (A) (A) (A) (A) (A) (A) (A) (A) (A) (A) (A) (A)
                 (A) (A) (A) (A) (A) (A) (A) (A) (A) (A) (A) (A)
                 (A) (A) (A) (A) (A) (A) (A) (A) (A) (A) (A) (A)
                 (A) (A) (A) (A) (A) (A) (A) (A) (A) (A) (A) (A)
                 (A) (A) (A) (A) (A) (A) (A) (A) (A) (A) (A) (A)
                 (A) (A) (A) (A) (A) (A) (A) (A) (A) (A) (A) (A)
                 (A) (A) (A) (A) (A) (A) (A) (A) (A) (A) (A) (A)
                 (A) (A) (A) (A) (A) (A) (A) (A) (A) (A) (A) (A)
                 (A) (A) (A) (A) (A) (A) (A) (A) (A) (A) (A) (A)
                 (A) (A) (A) (A) (A) (A) (A) (A) (A) (A) (A) (A)
                 (A) (A) (A) (A) (A) (A) (A) (A) (A) (A) (A) (A)
                 (A) (A) (A) (A) (A) (A) (A) (A) (A) (A) (A) (A)
                 (A) (A) (A) (A) (A) (A) (A) (A) (A) (A) (A) (A)
                 (A) (A) (A) (A) (A) (A) (A) (A) (A) (A) (A) (A)
                 (A) (A) (A) (A) (A) (A) (A) (A) (A) (A) (A) (A)
                 (A) (A) (A) (A) (A) (A) (A) (A) (A) (A) (A) (A)
                 (A) (A) (A) (A) (A) (A) (A) (A) (A) (A) (A) (A)
                 (A) (A) (A) (A) (A) (A) (A) (A) (A) (A) (A) (A)
                 (A) (A) (A) (A) (A) (A) (A) (A) (A) (A) (A) (A)
                 (A) (A) (A) (A) (A) (A) (A) (A) (A) (A) (A) (A)
                 (A) (A) (A) (A) (A) (A) (A) (A) (A) (A) (A) (A)
                 (A) (A) (A) (A) (A) (A) (A) (A) (A) (A) (A) (A)
                 (A) (A) (A) (A) (A) (A) (A) (A) (A) (A) (A) (A)
                 (A) (A) (A) (A) (A) (A) (A) (A) (A) (A) (A) (A)
                 (A) (A) (A) (A) (A) (A) (A) (A) (A) (A) (A) (A)
                 (A) (A) (A) (A) (A) (A) (A) (A) (A) (A) (A) (A)
                 (A) (A) (A) (A) (A) (A) (A) (A) (A) (A) (A) (A)
                 (A) (A) (A) (A) (A) (A) (A) (A) (A) (A) (A) (A)
                 (A) (A) (A) (A) (A) (A) (A) (A) (A) (A) (A) (A)
                 (A) (A) (A) (A) (A) (A) (A) (A) (A) (A) (A) (A)
                 (A) (A) (A) (A) (A) (A) (A) (A) (A) (A) (A) (A)
                 (A) (A) (A) (A) (A) (A) (A) (A) (A) (A) (A) (A)
                 (A) (A) (A) (A) (A) (A) (A) (A) (A) (A) (A) (A)
                 (A) (A) (A) (A) (A) (A) (A) (A) (A) (A) (A) (A)
                 (A) (A) (A) (A) (A) (A) (A) (A) (A) (A) (A) (A)
                 (A) (A) (A) (A) (A) (A) (A) (A) (A) (A) (A) (A)
                 (A) (A) (A) (A) (A) (A) (A) (A) (A) (A) (A) (A)
                 (A) (A) (A) (A) (A) (A) (A) (A) (A) (A) (A) (A)
                 (A) (A) (A) (A) (A) (A) (A) (A) (A) (A) (A) (A)
                 (A) (A) (A) (A) (A) (A) (A) (A) (A) (A) (A) (A)
                 (A) (A) (A) (A) (A) (A) (A) (A) (A) (A) (A) (A)
                 (A) (A) (A) (A) (A) (A) (A) (A) (A) (A) (A) (A)
                 (A) (A) (A) (A) (A) (A) (A) (A) (A) (A) (A) (A)
                 (A) (A) (A) (A) (A) (A) (A) (A) (A) (A) (A) (A)
                 (A) (A) (A) (A) (A) (A) (A) (A) (A) (A) (A) (A)
                 (A) (A) (A) (A) (A) (A) (A) (A) (A) (A) (A) (A)
                 (A) (A) (A) (A) (A) (A) (A) (A) (A) (A) (A) (A)
                 (A) (A) (A) (A) (A) (A) (A) (A) (A) (A) (A) (A)
                 (A) (A) (A) (A) (A) (A) (A) (A) (A) (A) (A) (A)
                 (A) (A) (A) (A) (A) (A) (A) (A) (A) (A) (A) (A)
                 (A) (A) (A) (A) (A) (A) (A) (A) (A) (A) (A) (A)
                 (A) (A) (A) (A) (A) (A) (A) (A) (A) (A) (A) (A)
                 (A) (A) (A) (A) (A) (A) (A) (A) (A) (A) (A) (A)
                 (A) (A) (A) (A) (A) (A) (A) (A) (A) (A) (A) (A)
                 (A) (A) (A) (A) (A) (A) (A) (A) (A) (A) (A) (A)
                 (A) (A) (A) (A) (A) (A) (A) (A) (A) (A) (A) (A)
                 (A) (A) (A) (A) (A) (A) (A) (A) (A) (A) (A) (A)
                 (A) (A) (A) (A) (A) (A) (A) (A) (A) (A) (A) (A)
                 (A) (A) (A) (A) (A) (A) (A) (A) (A) (A) (A) (A)
                 (A) (A) (A) (A) (A) (A) (A) (A) (A) (A) (A) (A)
                 (A) (A) (A) (A) (A) (A) (A) (A) (A) (A) (A) (A)
                 (A) (A) (A) (A) (A) (A) (A) (A) (A) (A) (A) (A)
                 (A) (A) (A) (A) (A) (A) (A) (A) (A) (A) (A) (A)
                 (A) (A) (A) (A) (A) (A) (A) (A) (A) (A) (A) (A)
                 (A) (A) (A) (A) (A) (A) (A) (A) (A) (A) (A) (A)
                 (A) (A) (A) (A) (A) (A) (A) (A) (A) (A) (A) (A)
                 (A) (A) (A) (A) (A) (A) (A) (A) (A) (A) (A) (A)
                 (A) (A) (A) (A) (A) (A) (A) (A) (A) (A) (A) (A)
                 (A) (A) (A) (A) (A) (A) (A) (A) (A) (A) (A) (A)
                 (A) (A) (A) (A) (A) (A) (A) (A) (A) (A) (A) (A)
                 (A) (A) (A) (A) (A) (A) (A) (A) (A) (A) (A) (A)
                 (A) (A) (A) (A) (A) (A) (A) (A) (A) (A) (A) (A)
                 (A) (A) (A) (A) (A) (A) (A) (A) (A) (A) (A) (A)
                 (A) (A) (A) (A) (A) (A) (A) (A) (A) (A) (A) (A)
                 (A) (A) (A) (A) (A) (A) (A) (A) (A) (A) (A) (A)
                 (A) (A) (A) (A) (A) (A) (A) (A) (A) (A) (A) (A)
                 (A) (A) (A) (A) (A) (A) (A) (A) (A) (A) (A) (A)
                 (A) (A) (A) (A) (A) (A) (A) (A) (A) (A) (A) (A)
                 (A) (A) (A) (A) (A) (A) (A) (A) (A) (A) (A) (A)
                 (A) (A) (A) (A) (A) (A) (A) (A) (A) (A) (A) (A)
                 (A) (A) (A) (A) (A) (A) (A) (A) (A) (A) (A) (A)
                 (A) (A) (A) (A) (A) (A) (A) (A) (A) (A) (A) (A)
                 (A) (A) (A) (A) (A) (A) (A) (A) (A) (A) (A) (A)
                 (A) (A) (A) (A) (A) (A) (A) (A) (A) (A) (A) (A)
                 (A) (A) (A) (A) (A) (A) (A) (A) (A) (A) (A) (A)
                 (A) (A) (A) (A) (A) (A) (A) (A) (A) (A) (A) (A)
                 (A) (A) (A) (A) (A) (A) (A) (A) (A) (A) (A) (A)
                 (A) (A) (A) (A) (A) (A) (A) (A) (A) (A) (A) (A)
                 (A) (A) (A) (A) (A) (A) (A) (A) (A) (A) (A) (A)
                 (A) (A) (A) (A) (A)
 The electronic state is 1-A.
 Alpha  occ. eigenvalues --  -25.21151 -25.21111 -19.69332 -19.69277 -19.68969
 Alpha  occ. eigenvalues --  -19.68912 -19.68153 -19.68150 -19.67730 -19.67717
 Alpha  occ. eigenvalues --  -15.02780 -15.02581 -15.01625 -15.01231 -14.79556
 Alpha  occ. eigenvalues --  -14.79526 -10.64794 -10.64392 -10.62342 -10.61818
 Alpha  occ. eigenvalues --  -10.61648 -10.61422 -10.61077 -10.60213 -10.60207
 Alpha  occ. eigenvalues --  -10.60175 -10.59659 -10.59560 -10.59502 -10.58850
 Alpha  occ. eigenvalues --  -10.58641 -10.58415 -10.58405 -10.58100 -10.57916
 Alpha  occ. eigenvalues --  -10.57906 -10.57786 -10.57781 -10.57761 -10.57756
 Alpha  occ. eigenvalues --  -10.57585 -10.57384 -10.57247 -10.57245 -10.57176
 Alpha  occ. eigenvalues --  -10.55310 -10.54955 -10.54541 -10.54402  -7.14048
 Alpha  occ. eigenvalues --   -1.38627  -1.37855  -1.37161  -1.36588  -1.33134
 Alpha  occ. eigenvalues --   -1.29884  -1.20219  -1.19497  -1.18679  -1.18082
 Alpha  occ. eigenvalues --   -1.11654  -1.09670  -1.03636  -1.01447  -1.00759
 Alpha  occ. eigenvalues --   -0.96431  -0.95720  -0.94623  -0.93675  -0.92310
 Alpha  occ. eigenvalues --   -0.91437  -0.91323  -0.90342  -0.88749  -0.88139
 Alpha  occ. eigenvalues --   -0.87673  -0.85519  -0.83820  -0.82858  -0.81111
 Alpha  occ. eigenvalues --   -0.80537  -0.80053  -0.78606  -0.75445  -0.73605
 Alpha  occ. eigenvalues --   -0.73353  -0.73014  -0.72583  -0.71046  -0.70691
 Alpha  occ. eigenvalues --   -0.69773  -0.68667  -0.68115  -0.67289  -0.66394
 Alpha  occ. eigenvalues --   -0.66095  -0.65963  -0.65410  -0.64820  -0.63989
 Alpha  occ. eigenvalues --   -0.63945  -0.63614  -0.63514  -0.63265  -0.63185
 Alpha  occ. eigenvalues --   -0.62624  -0.62172  -0.62009  -0.61472  -0.60797
 Alpha  occ. eigenvalues --   -0.59230  -0.59020  -0.58831  -0.57560  -0.56819
 Alpha  occ. eigenvalues --   -0.56107  -0.55496  -0.55111  -0.54707  -0.54345
 Alpha  occ. eigenvalues --   -0.54065  -0.53812  -0.52946  -0.52830  -0.52627
 Alpha  occ. eigenvalues --   -0.52220  -0.52097  -0.51620  -0.50766  -0.50087
 Alpha  occ. eigenvalues --   -0.49912  -0.49573  -0.49210  -0.48769  -0.48488
 Alpha  occ. eigenvalues --   -0.48148  -0.47904  -0.47789  -0.47411  -0.47251
 Alpha  occ. eigenvalues --   -0.47033  -0.46873  -0.45668  -0.44894  -0.44835
 Alpha  occ. eigenvalues --   -0.44360  -0.44280  -0.43588  -0.43252  -0.42554
 Alpha  occ. eigenvalues --   -0.42538  -0.42304  -0.42003  -0.41622  -0.41423
 Alpha  occ. eigenvalues --   -0.41314  -0.41073  -0.40887  -0.40784  -0.39953
 Alpha  occ. eigenvalues --   -0.39924  -0.39913  -0.39567  -0.39509  -0.39357
 Alpha  occ. eigenvalues --   -0.37013  -0.35691  -0.34363  -0.34319  -0.33969
 Alpha  occ. eigenvalues --   -0.33463  -0.32941  -0.31966  -0.30385  -0.24977
 Alpha virt. eigenvalues --   -0.11686  -0.09185  -0.07728  -0.07255  -0.05609
 Alpha virt. eigenvalues --   -0.02789  -0.01329  -0.01161  -0.00991  -0.00174
 Alpha virt. eigenvalues --    0.01786   0.04035   0.05045   0.05414   0.06076
 Alpha virt. eigenvalues --    0.06963   0.07832   0.07885   0.08274   0.08894
 Alpha virt. eigenvalues --    0.09180   0.09254   0.09562   0.09796   0.10098
 Alpha virt. eigenvalues --    0.10337   0.10683   0.11206   0.11473   0.11844
 Alpha virt. eigenvalues --    0.12192   0.12497   0.12815   0.13042   0.13415
 Alpha virt. eigenvalues --    0.13745   0.14508   0.15083   0.15103   0.15335
 Alpha virt. eigenvalues --    0.15603   0.15787   0.16111   0.16610   0.16853
 Alpha virt. eigenvalues --    0.17172   0.17240   0.17540   0.17616   0.17694
 Alpha virt. eigenvalues --    0.18008   0.18242   0.18437   0.19061   0.19499
 Alpha virt. eigenvalues --    0.19590   0.19799   0.20157   0.20589   0.20883
 Alpha virt. eigenvalues --    0.21136   0.21384   0.21762   0.21807   0.22122
 Alpha virt. eigenvalues --    0.22246   0.22609   0.22766   0.22899   0.23030
 Alpha virt. eigenvalues --    0.23310   0.23445   0.23880   0.24006   0.24488
 Alpha virt. eigenvalues --    0.24656   0.24741   0.25027   0.25360   0.26163
 Alpha virt. eigenvalues --    0.26325   0.26464   0.26728   0.26803   0.26864
 Alpha virt. eigenvalues --    0.27039   0.27363   0.27442   0.27685   0.27963
 Alpha virt. eigenvalues --    0.28123   0.28470   0.28624   0.28812   0.29103
 Alpha virt. eigenvalues --    0.29166   0.29530   0.29716   0.29926   0.30270
 Alpha virt. eigenvalues --    0.30435   0.30837   0.31155   0.31329   0.31417
 Alpha virt. eigenvalues --    0.31884   0.32008   0.32360   0.32604   0.32845
 Alpha virt. eigenvalues --    0.32998   0.33193   0.33364   0.33916   0.34239
 Alpha virt. eigenvalues --    0.34340   0.34527   0.34702   0.34903   0.34997
 Alpha virt. eigenvalues --    0.35208   0.35685   0.35783   0.35932   0.35999
 Alpha virt. eigenvalues --    0.36210   0.36337   0.36747   0.37033   0.37145
 Alpha virt. eigenvalues --    0.37370   0.37541   0.37685   0.37846   0.38174
 Alpha virt. eigenvalues --    0.38555   0.38620   0.38891   0.39006   0.39438
 Alpha virt. eigenvalues --    0.39510   0.39809   0.40175   0.40385   0.40680
 Alpha virt. eigenvalues --    0.40735   0.40869   0.41035   0.41350   0.41613
 Alpha virt. eigenvalues --    0.41715   0.41826   0.42197   0.42371   0.42469
 Alpha virt. eigenvalues --    0.42745   0.42885   0.43143   0.43168   0.43508
 Alpha virt. eigenvalues --    0.43705   0.43992   0.44153   0.44247   0.44641
 Alpha virt. eigenvalues --    0.44745   0.45269   0.45552   0.46019   0.46301
 Alpha virt. eigenvalues --    0.46390   0.46635   0.46978   0.47142   0.47440
 Alpha virt. eigenvalues --    0.47554   0.47625   0.47971   0.48076   0.48564
 Alpha virt. eigenvalues --    0.48691   0.48986   0.49074   0.49293   0.49593
 Alpha virt. eigenvalues --    0.50040   0.50147   0.50217   0.50403   0.50828
 Alpha virt. eigenvalues --    0.50919   0.51044   0.51244   0.51341   0.51412
 Alpha virt. eigenvalues --    0.51908   0.52002   0.52119   0.52228   0.52362
 Alpha virt. eigenvalues --    0.52649   0.52786   0.53062   0.53179   0.53336
 Alpha virt. eigenvalues --    0.53483   0.53864   0.54205   0.54330   0.54543
 Alpha virt. eigenvalues --    0.54649   0.55458   0.55683   0.55981   0.56291
 Alpha virt. eigenvalues --    0.56326   0.56680   0.56799   0.57005   0.57360
 Alpha virt. eigenvalues --    0.57564   0.57617   0.58100   0.58737   0.58886
 Alpha virt. eigenvalues --    0.59019   0.59080   0.59371   0.59804   0.60357
 Alpha virt. eigenvalues --    0.60477   0.60677   0.60979   0.61245   0.61724
 Alpha virt. eigenvalues --    0.61952   0.62051   0.62344   0.62487   0.62702
 Alpha virt. eigenvalues --    0.63029   0.63342   0.63403   0.63691   0.63733
 Alpha virt. eigenvalues --    0.64105   0.64224   0.64434   0.64634   0.64998
 Alpha virt. eigenvalues --    0.65304   0.65771   0.65856   0.66146   0.66486
 Alpha virt. eigenvalues --    0.66752   0.66840   0.66961   0.67190   0.67522
 Alpha virt. eigenvalues --    0.67708   0.67814   0.68015   0.68140   0.68520
 Alpha virt. eigenvalues --    0.68851   0.68994   0.69164   0.69300   0.69637
 Alpha virt. eigenvalues --    0.69845   0.70114   0.70385   0.70694   0.70815
 Alpha virt. eigenvalues --    0.71329   0.71347   0.71625   0.72055   0.72161
 Alpha virt. eigenvalues --    0.72501   0.72788   0.73070   0.73366   0.73498
 Alpha virt. eigenvalues --    0.73898   0.74117   0.74382   0.74576   0.74761
 Alpha virt. eigenvalues --    0.75151   0.75264   0.75578   0.76020   0.76059
 Alpha virt. eigenvalues --    0.76469   0.76497   0.76725   0.76985   0.77304
 Alpha virt. eigenvalues --    0.77562   0.77877   0.78786   0.78862   0.78952
 Alpha virt. eigenvalues --    0.79212   0.79425   0.79829   0.80132   0.80374
 Alpha virt. eigenvalues --    0.80780   0.81088   0.81342   0.81684   0.82312
 Alpha virt. eigenvalues --    0.82584   0.82830   0.83060   0.83321   0.83512
 Alpha virt. eigenvalues --    0.83854   0.84229   0.84582   0.84883   0.85405
 Alpha virt. eigenvalues --    0.85789   0.86118   0.86444   0.86542   0.87521
 Alpha virt. eigenvalues --    0.87708   0.88144   0.88460   0.88682   0.89302
 Alpha virt. eigenvalues --    0.89490   0.90192   0.90253   0.90410   0.90838
 Alpha virt. eigenvalues --    0.91230   0.91720   0.91922   0.92298   0.92479
 Alpha virt. eigenvalues --    0.92759   0.93266   0.93914   0.94152   0.94367
 Alpha virt. eigenvalues --    0.94672   0.94776   0.95520   0.95821   0.96024
 Alpha virt. eigenvalues --    0.96235   0.96539   0.97120   0.97573   0.97898
 Alpha virt. eigenvalues --    0.98082   0.98364   0.98574   0.98811   0.99377
 Alpha virt. eigenvalues --    0.99384   0.99732   0.99970   1.00610   1.00723
 Alpha virt. eigenvalues --    1.00824   1.01000   1.01454   1.01924   1.01977
 Alpha virt. eigenvalues --    1.02349   1.02482   1.02809   1.03525   1.03535
 Alpha virt. eigenvalues --    1.03877   1.04088   1.04285   1.04355   1.04810
 Alpha virt. eigenvalues --    1.05336   1.05408   1.05627   1.06088   1.06203
 Alpha virt. eigenvalues --    1.06414   1.06491   1.07269   1.07899   1.08209
 Alpha virt. eigenvalues --    1.08493   1.08622   1.08871   1.09355   1.09844
 Alpha virt. eigenvalues --    1.10094   1.10466   1.10613   1.10889   1.11069
 Alpha virt. eigenvalues --    1.11490   1.11781   1.12184   1.12424   1.12709
 Alpha virt. eigenvalues --    1.13091   1.13797   1.13999   1.14444   1.14630
 Alpha virt. eigenvalues --    1.15054   1.15699   1.15984   1.16150   1.16431
 Alpha virt. eigenvalues --    1.16979   1.17394   1.17540   1.17700   1.18399
 Alpha virt. eigenvalues --    1.18723   1.18937   1.19334   1.19705   1.20217
 Alpha virt. eigenvalues --    1.20505   1.20755   1.21138   1.21273   1.21786
 Alpha virt. eigenvalues --    1.22253   1.22629   1.22865   1.23589   1.23641
 Alpha virt. eigenvalues --    1.23865   1.24275   1.24574   1.24823   1.25027
 Alpha virt. eigenvalues --    1.25202   1.25820   1.26067   1.26211   1.26556
 Alpha virt. eigenvalues --    1.26867   1.27176   1.27477   1.28206   1.28423
 Alpha virt. eigenvalues --    1.28643   1.28877   1.29234   1.29681   1.30117
 Alpha virt. eigenvalues --    1.30190   1.30369   1.30540   1.31057   1.31295
 Alpha virt. eigenvalues --    1.31660   1.32270   1.32702   1.32759   1.33306
 Alpha virt. eigenvalues --    1.33631   1.33962   1.34252   1.34856   1.35040
 Alpha virt. eigenvalues --    1.35362   1.35661   1.35947   1.36426   1.36913
 Alpha virt. eigenvalues --    1.37095   1.37683   1.37986   1.38349   1.38552
 Alpha virt. eigenvalues --    1.38645   1.38939   1.39483   1.39756   1.40257
 Alpha virt. eigenvalues --    1.40578   1.41132   1.42047   1.42542   1.42779
 Alpha virt. eigenvalues --    1.43219   1.43331   1.43599   1.43937   1.44093
 Alpha virt. eigenvalues --    1.44180   1.44905   1.45110   1.45246   1.45370
 Alpha virt. eigenvalues --    1.45470   1.45640   1.46180   1.46297   1.47074
 Alpha virt. eigenvalues --    1.47306   1.47763   1.48213   1.48580   1.49283
 Alpha virt. eigenvalues --    1.49387   1.49906   1.50135   1.50392   1.50584
 Alpha virt. eigenvalues --    1.50988   1.51254   1.51860   1.52064   1.52176
 Alpha virt. eigenvalues --    1.52740   1.52991   1.53375   1.53734   1.53773
 Alpha virt. eigenvalues --    1.54218   1.54499   1.54606   1.54741   1.54846
 Alpha virt. eigenvalues --    1.55676   1.55741   1.55951   1.56275   1.56718
 Alpha virt. eigenvalues --    1.56926   1.57361   1.57674   1.57875   1.58450
 Alpha virt. eigenvalues --    1.58789   1.58970   1.59233   1.59313   1.59530
 Alpha virt. eigenvalues --    1.60072   1.60433   1.60717   1.61178   1.61835
 Alpha virt. eigenvalues --    1.62073   1.62258   1.62604   1.62850   1.63088
 Alpha virt. eigenvalues --    1.63168   1.63616   1.64025   1.64424   1.64519
 Alpha virt. eigenvalues --    1.64546   1.65051   1.65262   1.65660   1.65737
 Alpha virt. eigenvalues --    1.65911   1.66237   1.66780   1.67028   1.67132
 Alpha virt. eigenvalues --    1.67296   1.67773   1.68368   1.68858   1.68991
 Alpha virt. eigenvalues --    1.69753   1.69866   1.70529   1.71254   1.71450
 Alpha virt. eigenvalues --    1.72005   1.72126   1.72250   1.72790   1.73088
 Alpha virt. eigenvalues --    1.73619   1.73874   1.74055   1.74723   1.75364
 Alpha virt. eigenvalues --    1.75819   1.75999   1.76524   1.77222   1.77291
 Alpha virt. eigenvalues --    1.77577   1.77862   1.78371   1.78656   1.79085
 Alpha virt. eigenvalues --    1.79653   1.79897   1.80145   1.80480   1.80715
 Alpha virt. eigenvalues --    1.80923   1.81250   1.81682   1.82325   1.82862
 Alpha virt. eigenvalues --    1.83392   1.83800   1.84240   1.84691   1.84832
 Alpha virt. eigenvalues --    1.85479   1.85721   1.86164   1.87054   1.87592
 Alpha virt. eigenvalues --    1.87831   1.88012   1.88132   1.88985   1.89871
 Alpha virt. eigenvalues --    1.90042   1.90361   1.90666   1.90837   1.92141
 Alpha virt. eigenvalues --    1.92581   1.93203   1.94278   1.94724   1.94888
 Alpha virt. eigenvalues --    1.95260   1.95347   1.95919   1.96328   1.97070
 Alpha virt. eigenvalues --    1.97330   1.97609   1.97994   1.98870   1.99303
 Alpha virt. eigenvalues --    1.99368   1.99646   1.99874   2.00453   2.00638
 Alpha virt. eigenvalues --    2.00942   2.01433   2.01819   2.02257   2.02554
 Alpha virt. eigenvalues --    2.02758   2.02820   2.03139   2.03749   2.04048
 Alpha virt. eigenvalues --    2.04311   2.04745   2.05097   2.05520   2.05780
 Alpha virt. eigenvalues --    2.06481   2.06823   2.07287   2.08135   2.08289
 Alpha virt. eigenvalues --    2.08604   2.08675   2.09052   2.09699   2.10159
 Alpha virt. eigenvalues --    2.10703   2.11207   2.11528   2.11788   2.12681
 Alpha virt. eigenvalues --    2.13152   2.13412   2.13677   2.14006   2.14170
 Alpha virt. eigenvalues --    2.14799   2.15109   2.16125   2.16740   2.16961
 Alpha virt. eigenvalues --    2.17161   2.17268   2.17725   2.18284   2.18736
 Alpha virt. eigenvalues --    2.19578   2.20224   2.20803   2.22037   2.22138
 Alpha virt. eigenvalues --    2.22341   2.22778   2.23189   2.23607   2.24391
 Alpha virt. eigenvalues --    2.25263   2.25540   2.25976   2.26386   2.26779
 Alpha virt. eigenvalues --    2.27275   2.27913   2.28513   2.28676   2.29147
 Alpha virt. eigenvalues --    2.29754   2.30050   2.30382   2.30975   2.31351
 Alpha virt. eigenvalues --    2.31878   2.32001   2.32649   2.33016   2.33276
 Alpha virt. eigenvalues --    2.33989   2.34888   2.34938   2.35552   2.35852
 Alpha virt. eigenvalues --    2.36201   2.36448   2.37077   2.37371   2.37736
 Alpha virt. eigenvalues --    2.38050   2.38577   2.38789   2.38997   2.39731
 Alpha virt. eigenvalues --    2.40701   2.41894   2.42422   2.43287   2.44015
 Alpha virt. eigenvalues --    2.44357   2.45120   2.45704   2.46460   2.46883
 Alpha virt. eigenvalues --    2.47860   2.48618   2.49222   2.49755   2.50389
 Alpha virt. eigenvalues --    2.50565   2.51607   2.52475   2.53554   2.53678
 Alpha virt. eigenvalues --    2.54438   2.54817   2.55524   2.55739   2.56058
 Alpha virt. eigenvalues --    2.56670   2.57264   2.57727   2.58370   2.58723
 Alpha virt. eigenvalues --    2.59530   2.60209   2.60697   2.60852   2.61567
 Alpha virt. eigenvalues --    2.61971   2.62597   2.62850   2.63097   2.63493
 Alpha virt. eigenvalues --    2.64457   2.64733   2.64981   2.65210   2.65319
 Alpha virt. eigenvalues --    2.65740   2.66068   2.66528   2.67824   2.68008
 Alpha virt. eigenvalues --    2.68161   2.68791   2.69516   2.69858   2.70263
 Alpha virt. eigenvalues --    2.71067   2.71381   2.71762   2.71997   2.72170
 Alpha virt. eigenvalues --    2.72357   2.73146   2.73257   2.73517   2.73699
 Alpha virt. eigenvalues --    2.73851   2.74111   2.74558   2.74745   2.74964
 Alpha virt. eigenvalues --    2.75173   2.75654   2.75888   2.76039   2.76458
 Alpha virt. eigenvalues --    2.76620   2.76993   2.77074   2.77611   2.77932
 Alpha virt. eigenvalues --    2.78170   2.78359   2.78702   2.78968   2.79110
 Alpha virt. eigenvalues --    2.79217   2.80274   2.80308   2.80579   2.80920
 Alpha virt. eigenvalues --    2.81391   2.81468   2.81821   2.81913   2.82376
 Alpha virt. eigenvalues --    2.82654   2.82919   2.83421   2.83745   2.84146
 Alpha virt. eigenvalues --    2.84321   2.84795   2.85144   2.85426   2.85588
 Alpha virt. eigenvalues --    2.86331   2.86583   2.86702   2.86841   2.87679
 Alpha virt. eigenvalues --    2.87946   2.88304   2.88514   2.88609   2.88739
 Alpha virt. eigenvalues --    2.89240   2.89661   2.90146   2.90323   2.90456
 Alpha virt. eigenvalues --    2.90678   2.90986   2.91308   2.91386   2.91566
 Alpha virt. eigenvalues --    2.91795   2.92035   2.92354   2.92601   2.93071
 Alpha virt. eigenvalues --    2.93115   2.93663   2.93744   2.94369   2.94391
 Alpha virt. eigenvalues --    2.94546   2.94939   2.95061   2.95420   2.95734
 Alpha virt. eigenvalues --    2.95983   2.96533   2.97309   2.97492   2.97695
 Alpha virt. eigenvalues --    2.97929   2.98443   2.98838   2.99151   2.99176
 Alpha virt. eigenvalues --    2.99857   3.00067   3.00344   3.00596   3.00889
 Alpha virt. eigenvalues --    3.01244   3.01441   3.01520   3.01898   3.02032
 Alpha virt. eigenvalues --    3.02150   3.02409   3.02863   3.03065   3.03222
 Alpha virt. eigenvalues --    3.03660   3.04126   3.04294   3.04553   3.04774
 Alpha virt. eigenvalues --    3.05128   3.05427   3.05842   3.06463   3.06623
 Alpha virt. eigenvalues --    3.06829   3.07132   3.07331   3.07737   3.07990
 Alpha virt. eigenvalues --    3.08351   3.08506   3.08636   3.08955   3.09160
 Alpha virt. eigenvalues --    3.09454   3.09626   3.09877   3.10174   3.10300
 Alpha virt. eigenvalues --    3.10550   3.11034   3.11228   3.11464   3.11912
 Alpha virt. eigenvalues --    3.12232   3.12567   3.12709   3.12910   3.13120
 Alpha virt. eigenvalues --    3.13698   3.13904   3.14291   3.14370   3.14558
 Alpha virt. eigenvalues --    3.14760   3.15173   3.15243   3.15973   3.16091
 Alpha virt. eigenvalues --    3.16167   3.16544   3.16948   3.17363   3.17380
 Alpha virt. eigenvalues --    3.17842   3.18201   3.18312   3.18557   3.19323
 Alpha virt. eigenvalues --    3.19848   3.20234   3.20235   3.20283   3.20768
 Alpha virt. eigenvalues --    3.20973   3.21444   3.21697   3.21757   3.21917
 Alpha virt. eigenvalues --    3.22249   3.22617   3.22953   3.23214   3.23296
 Alpha virt. eigenvalues --    3.23596   3.23820   3.23918   3.24291   3.24836
 Alpha virt. eigenvalues --    3.25064   3.25342   3.25887   3.26054   3.26503
 Alpha virt. eigenvalues --    3.26700   3.26980   3.27471   3.27927   3.28003
 Alpha virt. eigenvalues --    3.28540   3.28731   3.28980   3.29378   3.29562
 Alpha virt. eigenvalues --    3.30007   3.30394   3.30593   3.30773   3.30927
 Alpha virt. eigenvalues --    3.31118   3.31198   3.31771   3.31993   3.32541
 Alpha virt. eigenvalues --    3.32909   3.33229   3.33702   3.33899   3.34291
 Alpha virt. eigenvalues --    3.34539   3.34937   3.35075   3.35513   3.35738
 Alpha virt. eigenvalues --    3.35864   3.36460   3.37144   3.37259   3.37871
 Alpha virt. eigenvalues --    3.38187   3.38446   3.38469   3.39129   3.39304
 Alpha virt. eigenvalues --    3.39434   3.39924   3.40107   3.40869   3.40890
 Alpha virt. eigenvalues --    3.41433   3.41963   3.42227   3.42412   3.42967
 Alpha virt. eigenvalues --    3.43420   3.43833   3.44039   3.44544   3.44862
 Alpha virt. eigenvalues --    3.45577   3.45997   3.46195   3.46611   3.47077
 Alpha virt. eigenvalues --    3.47549   3.47779   3.48187   3.48304   3.48687
 Alpha virt. eigenvalues --    3.49002   3.49079   3.49765   3.49871   3.50536
 Alpha virt. eigenvalues --    3.50772   3.50993   3.51348   3.51569   3.52253
 Alpha virt. eigenvalues --    3.52363   3.52625   3.52992   3.53820   3.54061
 Alpha virt. eigenvalues --    3.54299   3.54568   3.54944   3.55521   3.55793
 Alpha virt. eigenvalues --    3.56309   3.56580   3.57358   3.57475   3.57752
 Alpha virt. eigenvalues --    3.58023   3.58524   3.59121   3.59229   3.59888
 Alpha virt. eigenvalues --    3.60116   3.60862   3.61436   3.61643   3.62101
 Alpha virt. eigenvalues --    3.62225   3.63115   3.63213   3.63345   3.63858
 Alpha virt. eigenvalues --    3.64337   3.65062   3.65440   3.65533   3.65869
 Alpha virt. eigenvalues --    3.66283   3.66696   3.66933   3.67327   3.67915
 Alpha virt. eigenvalues --    3.68020   3.68741   3.69318   3.69663   3.70169
 Alpha virt. eigenvalues --    3.70458   3.70568   3.70916   3.71542   3.72094
 Alpha virt. eigenvalues --    3.72192   3.72573   3.72746   3.73080   3.73389
 Alpha virt. eigenvalues --    3.73591   3.73732   3.74055   3.74472   3.74848
 Alpha virt. eigenvalues --    3.75239   3.75503   3.75992   3.76359   3.77047
 Alpha virt. eigenvalues --    3.77294   3.77465   3.77978   3.78369   3.79311
 Alpha virt. eigenvalues --    3.79947   3.80188   3.80655   3.81544   3.81769
 Alpha virt. eigenvalues --    3.82086   3.82673   3.83118   3.83400   3.83622
 Alpha virt. eigenvalues --    3.83971   3.84259   3.84501   3.85017   3.85529
 Alpha virt. eigenvalues --    3.85832   3.86319   3.86657   3.86981   3.87080
 Alpha virt. eigenvalues --    3.87611   3.88422   3.88545   3.88634   3.89076
 Alpha virt. eigenvalues --    3.89401   3.89765   3.90093   3.90254   3.90397
 Alpha virt. eigenvalues --    3.90929   3.91396   3.91896   3.92084   3.92410
 Alpha virt. eigenvalues --    3.92707   3.93140   3.93318   3.93663   3.93998
 Alpha virt. eigenvalues --    3.94451   3.95169   3.95361   3.95931   3.96631
 Alpha virt. eigenvalues --    3.97138   3.97522   3.97951   3.98347   3.98634
 Alpha virt. eigenvalues --    3.99228   3.99499   4.00044   4.00065   4.00553
 Alpha virt. eigenvalues --    4.01130   4.01344   4.01566   4.01980   4.02135
 Alpha virt. eigenvalues --    4.02893   4.03162   4.03350   4.03429   4.03739
 Alpha virt. eigenvalues --    4.04296   4.04391   4.04715   4.04966   4.05241
 Alpha virt. eigenvalues --    4.05428   4.05750   4.06199   4.06394   4.07123
 Alpha virt. eigenvalues --    4.07286   4.07696   4.08162   4.08513   4.08984
 Alpha virt. eigenvalues --    4.09501   4.09632   4.10237   4.10645   4.11030
 Alpha virt. eigenvalues --    4.11324   4.11731   4.11785   4.12320   4.12922
 Alpha virt. eigenvalues --    4.13178   4.13402   4.13867   4.14027   4.14434
 Alpha virt. eigenvalues --    4.15139   4.15274   4.15469   4.16061   4.16332
 Alpha virt. eigenvalues --    4.16517   4.16697   4.16837   4.17826   4.18238
 Alpha virt. eigenvalues --    4.18885   4.18990   4.19566   4.20074   4.20363
 Alpha virt. eigenvalues --    4.20499   4.20615   4.20861   4.21534   4.21719
 Alpha virt. eigenvalues --    4.21924   4.22728   4.23146   4.23318   4.23575
 Alpha virt. eigenvalues --    4.23840   4.24172   4.24433   4.24976   4.25257
 Alpha virt. eigenvalues --    4.25625   4.25989   4.26087   4.26600   4.27030
 Alpha virt. eigenvalues --    4.27347   4.27490   4.27940   4.28314   4.28608
 Alpha virt. eigenvalues --    4.29385   4.29573   4.30061   4.30491   4.30902
 Alpha virt. eigenvalues --    4.31768   4.31902   4.32768   4.33174   4.33408
 Alpha virt. eigenvalues --    4.33981   4.34800   4.35390   4.35818   4.37018
 Alpha virt. eigenvalues --    4.37486   4.37707   4.37983   4.38318   4.39283
 Alpha virt. eigenvalues --    4.40477   4.41025   4.41436   4.41708   4.42371
 Alpha virt. eigenvalues --    4.42544   4.43871   4.44554   4.46127   4.46594
 Alpha virt. eigenvalues --    4.46838   4.47809   4.47975   4.48705   4.48896
 Alpha virt. eigenvalues --    4.49266   4.49510   4.50393   4.50633   4.51334
 Alpha virt. eigenvalues --    4.51507   4.51814   4.52282   4.53330   4.53851
 Alpha virt. eigenvalues --    4.54150   4.55584   4.56604   4.57302   4.57886
 Alpha virt. eigenvalues --    4.58371   4.58743   4.59127   4.59561   4.60331
 Alpha virt. eigenvalues --    4.60609   4.60768   4.61215   4.61755   4.61892
 Alpha virt. eigenvalues --    4.63410   4.63663   4.63821   4.63990   4.64309
 Alpha virt. eigenvalues --    4.64628   4.64698   4.64927   4.65431   4.66562
 Alpha virt. eigenvalues --    4.67142   4.67789   4.67859   4.68220   4.68777
 Alpha virt. eigenvalues --    4.69136   4.69556   4.70086   4.70586   4.70923
 Alpha virt. eigenvalues --    4.72328   4.72451   4.73099   4.73148   4.74230
 Alpha virt. eigenvalues --    4.74580   4.75149   4.75255   4.75937   4.76072
 Alpha virt. eigenvalues --    4.76769   4.77276   4.78163   4.78530   4.79267
 Alpha virt. eigenvalues --    4.79555   4.80003   4.80933   4.81056   4.81376
 Alpha virt. eigenvalues --    4.81855   4.82624   4.82800   4.83445   4.83914
 Alpha virt. eigenvalues --    4.84595   4.84974   4.85981   4.86235   4.86490
 Alpha virt. eigenvalues --    4.87305   4.88809   4.88958   4.89772   4.90533
 Alpha virt. eigenvalues --    4.91161   4.91350   4.91623   4.91990   4.92544
 Alpha virt. eigenvalues --    4.93177   4.93198   4.93612   4.93711   4.94526
 Alpha virt. eigenvalues --    4.94812   4.94996   4.95941   4.96004   4.97138
 Alpha virt. eigenvalues --    4.97555   4.98437   4.99744   5.00259   5.00913
 Alpha virt. eigenvalues --    5.01441   5.02421   5.03581   5.03826   5.04225
 Alpha virt. eigenvalues --    5.04568   5.05175   5.05726   5.05967   5.06354
 Alpha virt. eigenvalues --    5.06779   5.07335   5.08055   5.08398   5.08731
 Alpha virt. eigenvalues --    5.08875   5.09069   5.09926   5.10522   5.10577
 Alpha virt. eigenvalues --    5.10840   5.11856   5.12191   5.12278   5.13237
 Alpha virt. eigenvalues --    5.13475   5.13871   5.13903   5.14016   5.14332
 Alpha virt. eigenvalues --    5.14588   5.14760   5.14953   5.15191   5.15619
 Alpha virt. eigenvalues --    5.16116   5.17027   5.17561   5.17972   5.18055
 Alpha virt. eigenvalues --    5.18849   5.19288   5.19526   5.19905   5.20913
 Alpha virt. eigenvalues --    5.21472   5.22038   5.22475   5.22809   5.23360
 Alpha virt. eigenvalues --    5.24526   5.24922   5.25475   5.26662   5.27518
 Alpha virt. eigenvalues --    5.28507   5.28681   5.28868   5.28904   5.29069
 Alpha virt. eigenvalues --    5.29511   5.30021   5.30051   5.30500   5.30703
 Alpha virt. eigenvalues --    5.30993   5.31649   5.32697   5.33195   5.33906
 Alpha virt. eigenvalues --    5.34160   5.34913   5.35871   5.36822   5.37240
 Alpha virt. eigenvalues --    5.37417   5.37591   5.38187   5.39330   5.39475
 Alpha virt. eigenvalues --    5.39831   5.40079   5.40481   5.40682   5.40796
 Alpha virt. eigenvalues --    5.42188   5.42426   5.43682   5.43797   5.44198
 Alpha virt. eigenvalues --    5.44834   5.47559   5.48525   5.49415   5.50985
 Alpha virt. eigenvalues --    5.51463   5.52313   5.52486   5.53545   5.54660
 Alpha virt. eigenvalues --    5.56094   5.56499   5.57173   5.57297   5.57968
 Alpha virt. eigenvalues --    5.58343   5.58918   5.59283   5.59980   5.60131
 Alpha virt. eigenvalues --    5.60308   5.60382   5.60893   5.61378   5.61885
 Alpha virt. eigenvalues --    5.63300   5.63736   5.64033   5.65175   5.65614
 Alpha virt. eigenvalues --    5.65719   5.66183   5.67384   5.69022   5.70048
 Alpha virt. eigenvalues --    5.72064   5.72957   5.74512   5.75169   5.76462
 Alpha virt. eigenvalues --    5.78083   5.78415   5.82029   5.83789   5.85205
 Alpha virt. eigenvalues --    5.87453   5.88226   5.88489   5.89627   5.89733
 Alpha virt. eigenvalues --    5.90709   5.91515   5.91618   5.93147   5.94025
 Alpha virt. eigenvalues --    5.98924   6.00791   6.01640   6.04792   6.05813
 Alpha virt. eigenvalues --    6.14097   6.14483   6.15099   6.22189   6.22306
 Alpha virt. eigenvalues --    6.23482   6.24570   6.24913   6.25262   6.28022
 Alpha virt. eigenvalues --    6.28049   6.28514   6.29051   6.30439   6.32088
 Alpha virt. eigenvalues --    6.34966   6.35327   6.35940   6.36083   6.36358
 Alpha virt. eigenvalues --    6.37623   6.38545   6.38758   6.40467   6.40739
 Alpha virt. eigenvalues --    6.41072   6.41687   6.43107   6.43871   6.44878
 Alpha virt. eigenvalues --    6.49196   6.53648   6.66315   6.70391   6.75406
 Alpha virt. eigenvalues --    6.77440   6.80716   6.80729   6.81415   6.82701
 Alpha virt. eigenvalues --    6.83029   6.83066   6.84324   6.85012   6.86245
 Alpha virt. eigenvalues --    6.87207   6.87293   6.87397   6.93564   6.94828
 Alpha virt. eigenvalues --    6.96757   6.98428   6.99199   7.00019   7.04625
 Alpha virt. eigenvalues --    7.04724   7.06149   7.08352   7.08494   7.10933
 Alpha virt. eigenvalues --    7.17042   7.19398   7.19835   7.20380   7.20687
 Alpha virt. eigenvalues --    7.21761   7.23970   7.25008   7.26827   7.28481
 Alpha virt. eigenvalues --    7.31552   7.32345   7.33025   7.33150   7.33254
 Alpha virt. eigenvalues --    7.34378   7.41113   7.44108   7.45237   7.45904
 Alpha virt. eigenvalues --    7.50739   7.52451   8.45815   8.48032   8.56181
 Alpha virt. eigenvalues --    8.60890   8.82114   8.87494   8.90242   8.92241
 Alpha virt. eigenvalues --    8.93434   9.00485  15.86868  22.76737  22.90131
 Alpha virt. eigenvalues --   22.92330  22.98211  23.01097  23.09081  23.11953
 Alpha virt. eigenvalues --   23.13044  23.14373  23.18453  23.19022  23.19744
 Alpha virt. eigenvalues --   23.22463  23.26122  23.28765  23.29769  23.30106
 Alpha virt. eigenvalues --   23.33207  23.33547  23.34248  23.35326  23.38838
 Alpha virt. eigenvalues --   23.46521  23.53519  23.54121  23.60126  23.71581
 Alpha virt. eigenvalues --   23.76962  23.85455  23.88515  24.00880  24.09560
 Alpha virt. eigenvalues --   24.18208  32.50972  32.57883  32.59583  32.66268
 Alpha virt. eigenvalues --   33.14729  33.27787  44.09743  44.13591  44.16136
 Alpha virt. eigenvalues --   44.19217  44.20414  44.20483  44.24979  44.25637
 Alpha virt. eigenvalues --   57.37584  57.58136
          Condensed to atoms (all electrons):
 Mulliken charges:
               1
     1  C   -0.428281
     2  C   -0.000585
     3  C   -0.076310
     4  C   -0.037791
     5  C   -0.039156
     6  C   -0.087059
     7  C    0.042791
     8  C   -0.149775
     9  C   -0.068451
    10  C    0.039153
    11  N    0.457555
    12  O   -0.344840
    13  O   -0.336501
    14  C    0.015140
    15  N    0.436677
    16  O   -0.325788
    17  O   -0.316170
    18  C   -0.042886
    19  N   -0.095200
    20  C    0.097937
    21  C    0.150646
    22  C   -0.267003
    23  C   -0.181679
    24  C   -0.036894
    25  C   -0.026011
    26  N    0.494042
    27  O   -0.365675
    28  O   -0.365668
    29  C   -0.045427
    30  C   -0.153187
    31  C    0.107375
    32  C   -0.012020
    33  C   -0.429314
    34  C   -0.082171
    35  C    0.026890
    36  C   -0.103662
    37  C   -0.045259
    38  C    0.025527
    39  C   -0.129603
    40  C   -0.096968
    41  C   -0.024599
    42  N    0.489610
    43  O   -0.373393
    44  O   -0.374295
    45  C   -0.098913
    46  C   -0.152840
    47  N   -0.078043
    48  B    0.337426
    49  F   -0.338814
    50  F   -0.339513
    51  H    0.161188
    52  H    0.164384
    53  H    0.134294
    54  H    0.167003
    55  H    0.109989
    56  H    0.132284
    57  H    0.168618
    58  H    0.186771
    59  H    0.168880
    60  H    0.186193
    61  H    0.199527
    62  H    0.199118
    63  H    0.180213
    64  H    0.168095
    65  H    0.136040
    66  H    0.159903
    67  H    0.171853
    68  H    0.136317
    69  H    0.120710
    70  H    0.154500
    71  H    0.193974
    72  H    0.192397
    73  H    0.156725
 Sum of Mulliken charges =  -0.00000
 Mulliken charges with hydrogens summed into heavy atoms:
               1
     1  C    0.031584
     2  C   -0.000585
     3  C    0.090693
     4  C   -0.037791
     5  C    0.070833
     6  C    0.045224
     7  C    0.042791
     8  C    0.018844
     9  C    0.118320
    10  C    0.039153
    11  N    0.457555
    12  O   -0.344840
    13  O   -0.336501
    14  C    0.015140
    15  N    0.436677
    16  O   -0.325788
    17  O   -0.316170
    18  C    0.125993
    19  N   -0.095200
    20  C    0.097937
    21  C    0.150646
    22  C   -0.267003
    23  C    0.004514
    24  C    0.162632
    25  C   -0.026011
    26  N    0.494042
    27  O   -0.365675
    28  O   -0.365668
    29  C    0.153691
    30  C    0.027027
    31  C    0.107375
    32  C   -0.012020
    33  C    0.034723
    34  C    0.089682
    35  C    0.026890
    36  C    0.032656
    37  C    0.075451
    38  C    0.025527
    39  C    0.024897
    40  C    0.097006
    41  C   -0.024599
    42  N    0.489610
    43  O   -0.373393
    44  O   -0.374295
    45  C    0.093484
    46  C    0.003884
    47  N   -0.078043
    48  B    0.337426
    49  F   -0.338814
    50  F   -0.339513
 Electronic spatial extent (au):  <R**2>=          48522.6206
 Charge=             -0.0000 electrons
 Dipole moment (field-independent basis, Debye):
    X=             17.6277    Y=             -1.2281    Z=             -2.1900  Tot=             17.8056
 Quadrupole moment (field-independent basis, Debye-Ang):
   XX=           -479.2401   YY=           -277.1570   ZZ=           -287.3528
   XY=             11.6888   XZ=              5.9636   YZ=             16.2589
 Traceless Quadrupole moment (field-independent basis, Debye-Ang):
   XX=           -131.3235   YY=             70.7597   ZZ=             60.5638
   XY=             11.6888   XZ=              5.9636   YZ=             16.2589
 Octapole moment (field-independent basis, Debye-Ang**2):
  XXX=            202.9623  YYY=           -121.9295  ZZZ=             -0.1947  XYY=            541.4036
  XXY=             34.5433  XXZ=            -85.9685  XZZ=             20.6191  YZZ=            -11.8725
  YYZ=            -14.2765  XYZ=            -47.5303
 Hexadecapole moment (field-independent basis, Debye-Ang**3):
 XXXX=         -63656.9288 YYYY=         -21553.7857 ZZZZ=          -1094.5650 XXXY=            135.1857
 XXXZ=            -88.4118 YYYX=           1215.8057 YYYZ=            520.7318 ZZZX=             47.6677
 ZZZY=             -7.7147 XXYY=         -14419.8812 XXZZ=          -7282.5406 YYZZ=          -3643.2935
 XXYZ=            330.7021 YYXZ=            -42.5508 ZZXY=            -20.3219
 N-N= 5.852220546825D+03 E-N=-1.736680580907D+04  KE= 2.413530371394D+03
 No NMR shielding tensors so no spin-rotation constants.
 Leave Link  601 at Fri Oct 31 00:21:26 2025, MaxMem= 30870077440 cpu:             118.0 elap:               2.2
 (Enter /public/software/gauss/g16/l9999.exe)
 1\1\GINC-CU069\SP\RM062X\def2TZVPP\C33H23B1F2N6O8\BAIDING\31-Oct-2025\
 0\\#p M062X/DEF2TZVPP scrf=(solvent=water) em=GD3\\Energy calculation 
 for BNP_23NO2_NO2\\0,1\C,0,4.807578,-3.290016,-0.458383\C,0,3.410902,-
 2.754076,-0.374978\C,0,2.26978,-3.526254,-0.508084\C,0,1.132422,-2.698
 744,-0.362311\C,0,-0.208792,-3.225597,-0.406951\C,0,-1.368253,-2.65700
 6,0.00897\C,0,-2.680259,-3.282265,-0.078166\C,0,-2.937312,-4.511907,-0
 .71841\C,0,-4.218597,-5.041766,-0.766988\C,0,-5.284025,-4.364239,-0.17
 4904\N,0,-6.622359,-4.892626,-0.371986\O,0,-6.745759,-6.112761,-0.5144
 47\O,0,-7.563679,-4.095049,-0.419911\C,0,-5.042771,-3.145151,0.477842\
 N,0,-6.075608,-2.444329,1.252458\O,0,-6.129992,-1.220054,1.14576\O,0,-
 6.786053,-3.113965,1.99967\C,0,-3.769278,-2.609231,0.519385\N,0,1.5528
 9,-1.410156,-0.168761\C,0,2.950657,-1.40924,-0.17042\C,0,3.67463,-0.20
 6067,-0.033693\C,0,5.166797,-0.24844,0.030082\C,0,5.927316,-0.043183,-
 1.130605\C,0,7.316386,-0.080464,-1.0779\C,0,7.929809,-0.319543,0.15139
 2\N,0,9.389113,-0.35855,0.215127\O,0,9.924819,-0.56598,1.308443\O,0,10
 .028285,-0.182956,-0.827008\C,0,7.199454,-0.523419,1.32189\C,0,5.81081
 4,-0.48891,1.252721\C,0,3.018588,1.029412,0.030126\C,0,3.517481,2.3763
 52,0.17486\C,0,4.927757,2.855862,0.325853\C,0,2.409642,3.200465,0.1478
 41\C,0,1.249397,2.396555,-0.009183\C,0,-0.126389,2.806866,-0.117837\C,
 0,-0.53868,4.084899,0.07453\C,0,-1.907283,4.569796,-0.037837\C,0,-2.15
 2401,5.939542,0.203296\C,0,-3.429537,6.471336,0.111107\C,0,-4.484009,5
 .620938,-0.228318\N,0,-5.825925,6.16525,-0.330767\O,0,-6.752644,5.4038
 74,-0.638506\O,0,-5.995742,7.371206,-0.106789\C,0,-4.282323,4.257941,-
 0.473554\C,0,-3.001417,3.741439,-0.377447\N,0,1.631643,1.091232,-0.075
 484\B,0,0.677807,-0.132568,-0.063856\F,0,-0.051311,-0.128812,1.137726\
 F,0,-0.208543,-0.059481,-1.143472\H,0,5.385321,-2.81031,-1.253864\H,0,
 5.360313,-3.143098,0.474246\H,0,4.771758,-4.362592,-0.664737\H,0,2.232
 871,-4.594238,-0.67638\H,0,-0.231962,-4.241584,-0.792335\H,0,-1.354304
 ,-1.680769,0.476707\H,0,-2.137335,-5.054671,-1.207688\H,0,-4.41487,-5.
 966364,-1.295699\H,0,-3.607156,-1.677084,1.048438\H,0,5.430128,0.14318
 8,-2.076173\H,0,7.913531,0.073743,-1.967278\H,0,7.707814,-0.705753,2.2
 59845\H,0,5.224093,-0.647446,2.150821\H,0,5.523849,2.659061,-0.570525\
 H,0,4.928974,3.934125,0.502902\H,0,5.436832,2.370514,1.163608\H,0,2.42
 0849,4.279261,0.214617\H,0,-0.840308,2.035267,-0.380993\H,0,0.194134,4
 .842251,0.341483\H,0,-1.322166,6.587476,0.46532\H,0,-3.612945,7.521897
 ,0.295783\H,0,-5.119853,3.62376,-0.734025\H,0,-2.850581,2.685256,-0.56
 8462\\Version=ES64L-G16RevA.03\State=1-A\HF=-2426.0221184\RMSD=4.500e-
 09\Dipole=6.9352517,-0.4831556,-0.8616144\Quadrupole=-97.6357696,52.60
 80824,45.0276871,8.6903291,4.4337908,12.0881178\PG=C01 [X(C33H23B1F2N6
 O8)]\\@


 IF YOU DON'T HAVE THE LAW - ARGUE THE FACTS.
 IF YOU DON'T HAVE THE FACTS - ARGUE THE LAW.
 IF YOU DON'T HAVE EITHER - POUND THE TABLE.
 Job cpu time:       0 days 17 hours 48 minutes 48.1 seconds.
 Elapsed time:       0 days  0 hours 17 minutes  0.1 seconds.
 File lengths (MBytes):  RWF=   2336 Int=      0 D2E=      0 Chk=    204 Scr=      1
 Normal termination of Gaussian 16 at Fri Oct 31 00:21:27 2025.
