 Entering Gaussian System, Link 0=g16
 Input=BNP_24NO2_NO2_sp.gjf
 Output=BNP_24NO2_NO2_sp.log
 Initial command:
 /public/software/gauss/g16/l1.exe "/public/home/baiding/1024_sp/tmp_BNP_24NO2_NO2_sp_1526250/Gau-2942707.inp" -scrdir="/public/home/baiding/1024_sp/tmp_BNP_24NO2_NO2_sp_1526250/"
 Entering Link 1 = /public/software/gauss/g16/l1.exe PID=   2942708.
  
 Copyright (c) 1988,1990,1992,1993,1995,1998,2003,2009,2016,
            Gaussian, Inc.  All Rights Reserved.
  
 This is part of the Gaussian(R) 16 program.  It is based on
 the Gaussian(R) 09 system (copyright 2009, Gaussian, Inc.),
 the Gaussian(R) 03 system (copyright 2003, Gaussian, Inc.),
 the Gaussian(R) 98 system (copyright 1998, Gaussian, Inc.),
 the Gaussian(R) 94 system (copyright 1995, Gaussian, Inc.),
 the Gaussian 92(TM) system (copyright 1992, Gaussian, Inc.),
 the Gaussian 90(TM) system (copyright 1990, Gaussian, Inc.),
 the Gaussian 88(TM) system (copyright 1988, Gaussian, Inc.),
 the Gaussian 86(TM) system (copyright 1986, Carnegie Mellon
 University), and the Gaussian 82(TM) system (copyright 1983,
 Carnegie Mellon University). Gaussian is a federally registered
 trademark of Gaussian, Inc.
  
 This software contains proprietary and confidential information,
 including trade secrets, belonging to Gaussian, Inc.
  
 This software is provided under written license and may be
 used, copied, transmitted, or stored only in accord with that
 written license.
  
 The following legend is applicable only to US Government
 contracts under FAR:
  
                    RESTRICTED RIGHTS LEGEND
  
 Use, reproduction and disclosure by the US Government is
 subject to restrictions as set forth in subparagraphs (a)
 and (c) of the Commercial Computer Software - Restricted
 Rights clause in FAR 52.227-19.
  
 Gaussian, Inc.
 340 Quinnipiac St., Bldg. 40, Wallingford CT 06492
  
  
 ---------------------------------------------------------------
 Warning -- This program may not be used in any manner that
 competes with the business of Gaussian, Inc. or will provide
 assistance to any competitor of Gaussian, Inc.  The licensee
 of this program is prohibited from giving any competitor of
 Gaussian, Inc. access to this program.  By using this program,
 the user acknowledges that Gaussian, Inc. is engaged in the
 business of creating and licensing software in the field of
 computational chemistry and represents and warrants to the
 licensee that it is not a competitor of Gaussian, Inc. and that
 it will not use this program in any manner prohibited above.
 ---------------------------------------------------------------
  

 Cite this work as:
 Gaussian 16, Revision A.03,
 M. J. Frisch, G. W. Trucks, H. B. Schlegel, G. E. Scuseria, 
 M. A. Robb, J. R. Cheeseman, G. Scalmani, V. Barone, 
 G. A. Petersson, H. Nakatsuji, X. Li, M. Caricato, A. V. Marenich, 
 J. Bloino, B. G. Janesko, R. Gomperts, B. Mennucci, H. P. Hratchian, 
 J. V. Ortiz, A. F. Izmaylov, J. L. Sonnenberg, D. Williams-Young, 
 F. Ding, F. Lipparini, F. Egidi, J. Goings, B. Peng, A. Petrone, 
 T. Henderson, D. Ranasinghe, V. G. Zakrzewski, J. Gao, N. Rega, 
 G. Zheng, W. Liang, M. Hada, M. Ehara, K. Toyota, R. Fukuda, 
 J. Hasegawa, M. Ishida, T. Nakajima, Y. Honda, O. Kitao, H. Nakai, 
 T. Vreven, K. Throssell, J. A. Montgomery, Jr., J. E. Peralta, 
 F. Ogliaro, M. J. Bearpark, J. J. Heyd, E. N. Brothers, K. N. Kudin, 
 V. N. Staroverov, T. A. Keith, R. Kobayashi, J. Normand, 
 K. Raghavachari, A. P. Rendell, J. C. Burant, S. S. Iyengar, 
 J. Tomasi, M. Cossi, J. M. Millam, M. Klene, C. Adamo, R. Cammi, 
 J. W. Ochterski, R. L. Martin, K. Morokuma, O. Farkas, 
 J. B. Foresman, and D. J. Fox, Gaussian, Inc., Wallingford CT, 2016.
 
 ******************************************
 Gaussian 16:  ES64L-G16RevA.03 25-Dec-2016
                25-Oct-2025 
 ******************************************
 %nprocshared=64
 Will use up to   64 processors via shared memory.
 %mem=230GB
 %chk=BNP_24NO2_NO2_sp.chk
 ----------------------------------------------
 #p M062X/DEF2TZVPP scrf=(solvent=water) em=GD3
 ----------------------------------------------
 1/38=1,172=1/1;
 2/12=2,17=6,18=5,40=1/2;
 3/5=44,7=202,11=2,25=1,30=1,70=2201,72=1,74=-55,124=31/1,2,3;
 4//1;
 5/5=2,38=5,53=1/2;
 6/7=2,8=2,9=2,10=2,28=1/1;
 99/5=1,9=1/99;
 Leave Link    1 at Sat Oct 25 03:21:54 2025, MaxMem= 30870077440 cpu:              22.8 elap:               0.4
 (Enter /public/software/gauss/g16/l101.exe)
 ------------------------------------
 Energy calculation for BNP_24NO2_NO2
 ------------------------------------
 Symbolic Z-matrix:
 Charge =  0 Multiplicity = 1
 C                    -4.42611  -3.11693   0.28838 
 C                    -3.08052  -2.47074   0.16867 
 C                    -1.87546  -3.15513   0.19361 
 C                    -0.82486  -2.21839   0.04312 
 C                     0.60019  -2.4206   -0.01908 
 C                     1.21974  -3.56883   0.34086 
 C                     2.64418  -3.86389   0.23737 
 C                     2.99265  -5.22753   0.10405 
 C                     4.29251  -5.65234  -0.11535 
 C                     5.30229  -4.69397  -0.20943 
 N                     6.6733   -5.11384  -0.45653 
 O                     6.90169  -6.32284  -0.56659 
 O                     7.54734  -4.24514  -0.54766 
 C                     5.0346   -3.33849  -0.05653 
 C                     3.72709  -2.94585   0.19099 
 N                     3.57227  -1.51037   0.47682 
 O                     4.22116  -0.72056  -0.21339 
 O                     2.84812  -1.17003   1.41143 
 N                    -1.36576  -0.97289  -0.07103 
 C                    -2.74681  -1.07841   0.00794 
 C                    -3.54105   0.08158  -0.06261 
 C                    -5.02863  -0.05311  -0.03883 
 C                    -5.72644  -0.35013  -1.21885 
 C                    -7.11071  -0.48188  -1.20407 
 C                    -7.782    -0.31959   0.00746 
 N                    -9.23606  -0.46131   0.03185 
 O                    -9.8227   -0.32151   1.10966 
 O                    -9.81997  -0.71538  -1.02635 
 C                    -7.11421  -0.02819   1.19654 
 C                    -5.73041   0.10736   1.1652 
 C                    -2.95684   1.35637  -0.15974 
 C                    -3.55967   2.65188  -0.33694 
 C                    -5.00521   3.02722  -0.44682 
 C                    -2.51165   3.55005  -0.4086 
 C                    -1.28869   2.84968  -0.25916 
 C                    -0.00945   3.51853  -0.2561 
 C                     1.20236   3.02636   0.10506 
 C                     2.46621   3.75076   0.08193 
 C                     3.64245   3.02038   0.36651 
 C                     4.8874    3.63057   0.36115 
 C                     4.962     4.99525   0.07267 
 N                     6.25909   5.64634   0.06726 
 O                     7.26349   4.97065   0.32829 
 O                     6.31536   6.85461  -0.19856 
 C                     3.81989   5.75263  -0.21084 
 C                     2.58329   5.12972  -0.20463 
 N                    -1.56613   1.51865  -0.12064 
 B                    -0.55801   0.34647  -0.03664 
 F                     0.33226   0.39181  -1.11713 
 F                     0.1659    0.39536   1.16795 
 H                    -5.01543  -3.00473  -0.62695 
 H                    -4.30227  -4.18529   0.48187 
 H                    -5.01472  -2.68789   1.10458 
 H                    -1.75281  -4.22563   0.2829 
 H                     1.16797  -1.58272  -0.40134 
 H                     0.61727  -4.4102    0.67378 
 H                     2.19787  -5.96407   0.14752 
 H                     4.52382  -6.70411  -0.22345 
 H                     5.83116  -2.60795  -0.0962 
 H                    -5.18466  -0.47531  -2.14982 
 H                    -7.66028  -0.70736  -2.1088 
 H                    -7.6665    0.0902    2.11974 
 H                    -5.19201   0.33581   2.07843 
 H                    -5.50904   2.48698  -1.25354 
 H                    -5.55433   2.81411   0.47531 
 H                    -5.08741   4.09782  -0.64981 
 H                    -2.59164   4.62066  -0.54112 
 H                    -0.08992   4.55617  -0.56958 
 H                     1.28009   2.00854   0.46178 
 H                     3.56994   1.95717   0.57697 
 H                     5.78719   3.06823   0.57488 
 H                     3.90963   6.80936  -0.42704 
 H                     1.70094   5.72277  -0.41673 
 
 ITRead=  0  0  0  0  0  0  0  0  0  0  0  0  0  0  0  0  0  0  0  0
 ITRead=  0  0  0  0  0  0  0  0  0  0  0  0  0  0  0  0  0  0  0  0
 ITRead=  0  0  0  0  0  0  0  0  0  0  0  0  0  0  0  0  0  0  0  0
 ITRead=  0  0  0  0  0  0  0  0  0  0  0  0  0
 MicOpt= -1 -1 -1 -1 -1 -1 -1 -1 -1 -1 -1 -1 -1 -1 -1 -1 -1 -1 -1 -1
 MicOpt= -1 -1 -1 -1 -1 -1 -1 -1 -1 -1 -1 -1 -1 -1 -1 -1 -1 -1 -1 -1
 MicOpt= -1 -1 -1 -1 -1 -1 -1 -1 -1 -1 -1 -1 -1 -1 -1 -1 -1 -1 -1 -1
 MicOpt= -1 -1 -1 -1 -1 -1 -1 -1 -1 -1 -1 -1 -1
 NAtoms=     73 NQM=       73 NQMF=       0 NMMI=      0 NMMIF=      0
                NMic=       0 NMicF=      0.
                    Isotopes and Nuclear Properties:
 (Nuclear quadrupole moments (NQMom) in fm**2, nuclear magnetic moments (NMagM)
  in nuclear magnetons)

  Atom         1           2           3           4           5           6           7           8           9          10
 IAtWgt=          12          12          12          12          12          12          12          12          12          12
 AtmWgt=  12.0000000  12.0000000  12.0000000  12.0000000  12.0000000  12.0000000  12.0000000  12.0000000  12.0000000  12.0000000
 NucSpn=           0           0           0           0           0           0           0           0           0           0
 AtZEff=  -0.0000000  -0.0000000  -0.0000000  -0.0000000  -0.0000000  -0.0000000  -0.0000000  -0.0000000  -0.0000000  -0.0000000
 NQMom=    0.0000000   0.0000000   0.0000000   0.0000000   0.0000000   0.0000000   0.0000000   0.0000000   0.0000000   0.0000000
 NMagM=    0.0000000   0.0000000   0.0000000   0.0000000   0.0000000   0.0000000   0.0000000   0.0000000   0.0000000   0.0000000
 AtZNuc=   6.0000000   6.0000000   6.0000000   6.0000000   6.0000000   6.0000000   6.0000000   6.0000000   6.0000000   6.0000000

  Atom        11          12          13          14          15          16          17          18          19          20
 IAtWgt=          14          16          16          12          12          14          16          16          14          12
 AtmWgt=  14.0030740  15.9949146  15.9949146  12.0000000  12.0000000  14.0030740  15.9949146  15.9949146  14.0030740  12.0000000
 NucSpn=           2           0           0           0           0           2           0           0           2           0
 AtZEff=  -0.0000000  -0.0000000  -0.0000000  -0.0000000  -0.0000000  -0.0000000  -0.0000000  -0.0000000  -0.0000000  -0.0000000
 NQMom=    2.0440000   0.0000000   0.0000000   0.0000000   0.0000000   2.0440000   0.0000000   0.0000000   2.0440000   0.0000000
 NMagM=    0.4037610   0.0000000   0.0000000   0.0000000   0.0000000   0.4037610   0.0000000   0.0000000   0.4037610   0.0000000
 AtZNuc=   7.0000000   8.0000000   8.0000000   6.0000000   6.0000000   7.0000000   8.0000000   8.0000000   7.0000000   6.0000000

  Atom        21          22          23          24          25          26          27          28          29          30
 IAtWgt=          12          12          12          12          12          14          16          16          12          12
 AtmWgt=  12.0000000  12.0000000  12.0000000  12.0000000  12.0000000  14.0030740  15.9949146  15.9949146  12.0000000  12.0000000
 NucSpn=           0           0           0           0           0           2           0           0           0           0
 AtZEff=  -0.0000000  -0.0000000  -0.0000000  -0.0000000  -0.0000000  -0.0000000  -0.0000000  -0.0000000  -0.0000000  -0.0000000
 NQMom=    0.0000000   0.0000000   0.0000000   0.0000000   0.0000000   2.0440000   0.0000000   0.0000000   0.0000000   0.0000000
 NMagM=    0.0000000   0.0000000   0.0000000   0.0000000   0.0000000   0.4037610   0.0000000   0.0000000   0.0000000   0.0000000
 AtZNuc=   6.0000000   6.0000000   6.0000000   6.0000000   6.0000000   7.0000000   8.0000000   8.0000000   6.0000000   6.0000000

  Atom        31          32          33          34          35          36          37          38          39          40
 IAtWgt=          12          12          12          12          12          12          12          12          12          12
 AtmWgt=  12.0000000  12.0000000  12.0000000  12.0000000  12.0000000  12.0000000  12.0000000  12.0000000  12.0000000  12.0000000
 NucSpn=           0           0           0           0           0           0           0           0           0           0
 AtZEff=  -0.0000000  -0.0000000  -0.0000000  -0.0000000  -0.0000000  -0.0000000  -0.0000000  -0.0000000  -0.0000000  -0.0000000
 NQMom=    0.0000000   0.0000000   0.0000000   0.0000000   0.0000000   0.0000000   0.0000000   0.0000000   0.0000000   0.0000000
 NMagM=    0.0000000   0.0000000   0.0000000   0.0000000   0.0000000   0.0000000   0.0000000   0.0000000   0.0000000   0.0000000
 AtZNuc=   6.0000000   6.0000000   6.0000000   6.0000000   6.0000000   6.0000000   6.0000000   6.0000000   6.0000000   6.0000000

  Atom        41          42          43          44          45          46          47          48          49          50
 IAtWgt=          12          14          16          16          12          12          14          11          19          19
 AtmWgt=  12.0000000  14.0030740  15.9949146  15.9949146  12.0000000  12.0000000  14.0030740  11.0093053  18.9984033  18.9984033
 NucSpn=           0           2           0           0           0           0           2           3           1           1
 AtZEff=  -0.0000000  -0.0000000  -0.0000000  -0.0000000  -0.0000000  -0.0000000  -0.0000000  -0.0000000  -0.0000000  -0.0000000
 NQMom=    0.0000000   2.0440000   0.0000000   0.0000000   0.0000000   0.0000000   2.0440000   4.0590000   0.0000000   0.0000000
 NMagM=    0.0000000   0.4037610   0.0000000   0.0000000   0.0000000   0.0000000   0.4037610   2.6886370   2.6288670   2.6288670
 AtZNuc=   6.0000000   7.0000000   8.0000000   8.0000000   6.0000000   6.0000000   7.0000000   5.0000000   9.0000000   9.0000000

  Atom        51          52          53          54          55          56          57          58          59          60
 IAtWgt=           1           1           1           1           1           1           1           1           1           1
 AtmWgt=   1.0078250   1.0078250   1.0078250   1.0078250   1.0078250   1.0078250   1.0078250   1.0078250   1.0078250   1.0078250
 NucSpn=           1           1           1           1           1           1           1           1           1           1
 AtZEff=  -0.0000000  -0.0000000  -0.0000000  -0.0000000  -0.0000000  -0.0000000  -0.0000000  -0.0000000  -0.0000000  -0.0000000
 NQMom=    0.0000000   0.0000000   0.0000000   0.0000000   0.0000000   0.0000000   0.0000000   0.0000000   0.0000000   0.0000000
 NMagM=    2.7928460   2.7928460   2.7928460   2.7928460   2.7928460   2.7928460   2.7928460   2.7928460   2.7928460   2.7928460
 AtZNuc=   1.0000000   1.0000000   1.0000000   1.0000000   1.0000000   1.0000000   1.0000000   1.0000000   1.0000000   1.0000000

  Atom        61          62          63          64          65          66          67          68          69          70
 IAtWgt=           1           1           1           1           1           1           1           1           1           1
 AtmWgt=   1.0078250   1.0078250   1.0078250   1.0078250   1.0078250   1.0078250   1.0078250   1.0078250   1.0078250   1.0078250
 NucSpn=           1           1           1           1           1           1           1           1           1           1
 AtZEff=  -0.0000000  -0.0000000  -0.0000000  -0.0000000  -0.0000000  -0.0000000  -0.0000000  -0.0000000  -0.0000000  -0.0000000
 NQMom=    0.0000000   0.0000000   0.0000000   0.0000000   0.0000000   0.0000000   0.0000000   0.0000000   0.0000000   0.0000000
 NMagM=    2.7928460   2.7928460   2.7928460   2.7928460   2.7928460   2.7928460   2.7928460   2.7928460   2.7928460   2.7928460
 AtZNuc=   1.0000000   1.0000000   1.0000000   1.0000000   1.0000000   1.0000000   1.0000000   1.0000000   1.0000000   1.0000000

  Atom        71          72          73
 IAtWgt=           1           1           1
 AtmWgt=   1.0078250   1.0078250   1.0078250
 NucSpn=           1           1           1
 AtZEff=  -0.0000000  -0.0000000  -0.0000000
 NQMom=    0.0000000   0.0000000   0.0000000
 NMagM=    2.7928460   2.7928460   2.7928460
 AtZNuc=   1.0000000   1.0000000   1.0000000
 Leave Link  101 at Sat Oct 25 03:21:54 2025, MaxMem= 30870077440 cpu:               4.0 elap:               0.1
 (Enter /public/software/gauss/g16/l202.exe)
 Stoichiometry    C33H23BF2N6O8
 Framework group  C1[X(C33H23BF2N6O8)]
 Deg. of freedom   213
 Full point group                 C1      NOp   1
 Largest Abelian subgroup         C1      NOp   1
 Largest concise Abelian subgroup C1      NOp   1
                         Standard orientation:                         
 ---------------------------------------------------------------------
 Center     Atomic      Atomic             Coordinates (Angstroms)
 Number     Number       Type             X           Y           Z
 ---------------------------------------------------------------------
      1          6           0       -4.426112   -3.116934    0.288382
      2          6           0       -3.080517   -2.470738    0.168667
      3          6           0       -1.875463   -3.155134    0.193607
      4          6           0       -0.824857   -2.218390    0.043118
      5          6           0        0.600189   -2.420604   -0.019076
      6          6           0        1.219743   -3.568828    0.340861
      7          6           0        2.644181   -3.863894    0.237374
      8          6           0        2.992648   -5.227526    0.104048
      9          6           0        4.292507   -5.652337   -0.115352
     10          6           0        5.302289   -4.693973   -0.209434
     11          7           0        6.673303   -5.113838   -0.456532
     12          8           0        6.901692   -6.322836   -0.566587
     13          8           0        7.547343   -4.245144   -0.547659
     14          6           0        5.034605   -3.338491   -0.056531
     15          6           0        3.727090   -2.945845    0.190987
     16          7           0        3.572272   -1.510366    0.476817
     17          8           0        4.221156   -0.720564   -0.213390
     18          8           0        2.848123   -1.170033    1.411429
     19          7           0       -1.365755   -0.972888   -0.071026
     20          6           0       -2.746807   -1.078411    0.007940
     21          6           0       -3.541052    0.081579   -0.062611
     22          6           0       -5.028629   -0.053105   -0.038825
     23          6           0       -5.726442   -0.350129   -1.218848
     24          6           0       -7.110705   -0.481881   -1.204066
     25          6           0       -7.782001   -0.319594    0.007462
     26          7           0       -9.236061   -0.461306    0.031847
     27          8           0       -9.822697   -0.321512    1.109656
     28          8           0       -9.819970   -0.715380   -1.026347
     29          6           0       -7.114213   -0.028189    1.196536
     30          6           0       -5.730413    0.107361    1.165203
     31          6           0       -2.956840    1.356369   -0.159738
     32          6           0       -3.559670    2.651884   -0.336941
     33          6           0       -5.005214    3.027224   -0.446819
     34          6           0       -2.511652    3.550049   -0.408599
     35          6           0       -1.288686    2.849682   -0.259156
     36          6           0       -0.009450    3.518530   -0.256096
     37          6           0        1.202362    3.026356    0.105063
     38          6           0        2.466205    3.750761    0.081933
     39          6           0        3.642448    3.020381    0.366506
     40          6           0        4.887402    3.630567    0.361152
     41          6           0        4.962000    4.995250    0.072670
     42          7           0        6.259091    5.646335    0.067255
     43          8           0        7.263492    4.970645    0.328290
     44          8           0        6.315355    6.854611   -0.198555
     45          6           0        3.819891    5.752630   -0.210837
     46          6           0        2.583287    5.129723   -0.204625
     47          7           0       -1.566130    1.518653   -0.120641
     48          5           0       -0.558009    0.346471   -0.036644
     49          9           0        0.332258    0.391814   -1.117127
     50          9           0        0.165901    0.395362    1.167946
     51          1           0       -5.015428   -3.004731   -0.626948
     52          1           0       -4.302270   -4.185285    0.481874
     53          1           0       -5.014718   -2.687886    1.104576
     54          1           0       -1.752809   -4.225628    0.282898
     55          1           0        1.167974   -1.582717   -0.401338
     56          1           0        0.617267   -4.410201    0.673775
     57          1           0        2.197869   -5.964065    0.147522
     58          1           0        4.523823   -6.704112   -0.223449
     59          1           0        5.831163   -2.607950   -0.096195
     60          1           0       -5.184665   -0.475308   -2.149816
     61          1           0       -7.660283   -0.707356   -2.108801
     62          1           0       -7.666500    0.090197    2.119744
     63          1           0       -5.192010    0.335814    2.078429
     64          1           0       -5.509040    2.486978   -1.253541
     65          1           0       -5.554333    2.814107    0.475306
     66          1           0       -5.087408    4.097818   -0.649814
     67          1           0       -2.591635    4.620659   -0.541116
     68          1           0       -0.089916    4.556170   -0.569579
     69          1           0        1.280090    2.008540    0.461778
     70          1           0        3.569935    1.957171    0.576970
     71          1           0        5.787191    3.068229    0.574880
     72          1           0        3.909632    6.809364   -0.427035
     73          1           0        1.700935    5.722768   -0.416731
 ---------------------------------------------------------------------
 Rotational constants (GHZ):           0.0650156           0.0303768           0.0211336
 Leave Link  202 at Sat Oct 25 03:21:54 2025, MaxMem= 30870077440 cpu:               1.7 elap:               0.0
 (Enter /public/software/gauss/g16/l301.exe)
 Standard basis: def2TZVPP (5D, 7F)
 Ernie: Thresh=  0.10000D-02 Tol=  0.10000D-05 Strict=F.
 There are  2145 symmetry adapted cartesian basis functions of A   symmetry.
 There are  1872 symmetry adapted basis functions of A   symmetry.
  1872 basis functions,  2941 primitive gaussians,  2145 cartesian basis functions
   175 alpha electrons      175 beta electrons
       nuclear repulsion energy      5993.1112250987 Hartrees.
 IExCor= 4336 DFT=T Ex+Corr=M062X ExCW=0 ScaHFX=  0.540000
 ScaDFX=  1.000000  1.000000  1.000000  1.000000 ScalE2=  1.000000  1.000000
 IRadAn=      5 IRanWt=     -1 IRanGd=            0 ICorTp=0 IEmpDi=131
 NAtoms=   73 NActive=   73 NUniq=   73 SFac= 1.00D+00 NAtFMM=   60 NAOKFM=T Big=T
 Integral buffers will be    131072 words long.
 Raffenetti 2 integral format.
 Two-electron integral symmetry is turned on.
 R6Disp:  Grimme-D3 Dispersion energy=       -0.0068596698 Hartrees.
 Nuclear repulsion after empirical dispersion term =     5993.1043654289 Hartrees.
 ------------------------------------------------------------------------------
 Polarizable Continuum Model (PCM)
 =================================
 Model                : PCM.
 Atomic radii         : UFF (Universal Force Field).
 Polarization charges : Total charges.
 Charge compensation  : None.
 Solution method      : On-the-fly selection.
 Cavity type          : Scaled VdW (van der Waals Surface) (Alpha=1.100).
 Cavity algorithm     : GePol (No added spheres)
                        Default sphere list used, NSphG=   73.
                        Lebedev-Laikov grids with approx.  5.0 points / Ang**2.
                        Smoothing algorithm: York/Karplus (Gamma=1.0000).
                        Polarization charges: spherical gaussians, with
                                              point-specific exponents (IZeta= 3).
                        Self-potential: point-specific (ISelfS= 7).
                        Self-field    : sphere-specific E.n sum rule (ISelfD= 2).
 Solvent              : Water, Eps=  78.355300 Eps(inf)=   1.777849
 ------------------------------------------------------------------------------
 GePol: Number of generator spheres                  =      73
 GePol: Total number of spheres                      =      73
 GePol: Number of exposed spheres                    =      73 (100.00%)
 GePol: Number of points                             =    5550
 GePol: Average weight of points                     =       0.13
 GePol: Minimum weight of points                     =   0.84D-11
 GePol: Maximum weight of points                     =    0.20577
 GePol: Number of points with low weight             =     333
 GePol: Fraction of low-weight points (<1% of avg)   =       6.00%
 GePol: Cavity surface area                          =    696.139 Ang**2
 GePol: Cavity volume                                =    819.402 Ang**3
 Leave Link  301 at Sat Oct 25 03:21:54 2025, MaxMem= 30870077440 cpu:               5.6 elap:               0.1
 (Enter /public/software/gauss/g16/l302.exe)
 NPDir=0 NMtPBC=     1 NCelOv=     1 NCel=       1 NClECP=     1 NCelD=      1
         NCelK=      1 NCelE2=     1 NClLst=     1 CellRange=     0.0.
 One-electron integrals computed using PRISM.
 One-electron integral symmetry used in STVInt
   1 Symmetry operations used in ECPInt.
 ECPInt:  NShTT=  237016 NPrTT=  702689 LenC2=  148283 LenP2D=  289553.
 LDataN:  DoStor=T MaxTD1= 6 Len=  172
 NBasis=  1872 RedAO= T EigKep=  3.78D-06  NBF=  1872
 NBsUse=  1872 1.00D-06 EigRej= -1.00D+00 NBFU=  1872
 Precomputing XC quadrature grid using
 IXCGrd= 4 IRadAn=           5 IRanWt=          -1 IRanGd=           0 AccXCQ= 0.00D+00.
 Generated NRdTot=       0 NPtTot=           0 NUsed=           0 NTot=          32
 NSgBfM=  1848  1848  1848  1848  1848 MxSgAt=    73 MxSgA2=    73.
 Leave Link  302 at Sat Oct 25 03:22:04 2025, MaxMem= 30870077440 cpu:             597.8 elap:               9.4
 (Enter /public/software/gauss/g16/l303.exe)
 DipDrv:  MaxL=1.
 Leave Link  303 at Sat Oct 25 03:22:04 2025, MaxMem= 30870077440 cpu:              28.0 elap:               0.5
 (Enter /public/software/gauss/g16/l401.exe)
 ExpMin= 6.06D-02 ExpMax= 3.55D+04 ExpMxC= 1.21D+03 IAcc=3 IRadAn=         5 AccDes= 0.00D+00
 Harris functional with IExCor= 1009 and IRadAn=       5 diagonalized for initial guess.
 HarFok:  IExCor= 1009 AccDes= 0.00D+00 IRadAn=         5 IDoV= 1 UseB2=F ITyADJ=14
 ICtDFT=  3500011 ScaDFX=  1.000000  1.000000  1.000000  1.000000
 FoFCou: FMM=F IPFlag=           0 FMFlag=      100000 FMFlg1=        2001
         NFxFlg=           0 DoJE=T BraDBF=F KetDBF=T FulRan=T
         wScrn=  0.000000 ICntrl=       500 IOpCl=  0 I1Cent=   200000004 NGrid=           0
         NMat0=    1 NMatS0=      1 NMatT0=    0 NMatD0=    1 NMtDS0=    0 NMtDT0=    0
 Petite list used in FoFCou.
 Harris En= -2424.81773162739    
 JPrj=0 DoOrth=F DoCkMO=F.
 Leave Link  401 at Sat Oct 25 03:22:15 2025, MaxMem= 30870077440 cpu:             667.7 elap:              10.5
 (Enter /public/software/gauss/g16/l502.exe)
 Integral symmetry usage will be decided dynamically.
 Closed shell SCF:
 Using DIIS extrapolation, IDIIS=  1040.
 NGot= 30870077440 LenX= 30860720245 LenY= 30856117075
 Requested convergence on RMS density matrix=1.00D-08 within 128 cycles.
 Requested convergence on MAX density matrix=1.00D-06.
 Requested convergence on             energy=1.00D-06.
 No special actions if energy rises.
 Fock matrices will be formed incrementally for  20 cycles.

 Cycle   1  Pass 1  IDiag  1:
 FoFJK:  IHMeth= 1 ICntrl=       0 DoSepK=F KAlg= 0 I1Cent=           0 FoldK=F
 IRaf= 590000000 NMat=       1 IRICut=       1 DoRegI=T DoRafI=F ISym2E= 0 IDoP0=0 IntGTp=1.
 FoFCou: FMM=T IPFlag=           0 FMFlag=      100000 FMFlg1=        2001
         NFxFlg=           0 DoJE=F BraDBF=F KetDBF=F FulRan=T
         wScrn=  0.000000 ICntrl=         0 IOpCl=  0 I1Cent=           0 NGrid=           0
         NMat0=    1 NMatS0=      1 NMatT0=    0 NMatD0=    1 NMtDS0=    0 NMtDT0=    0
 Symmetry not used in FoFCou.
 FMM levels:  10  Number of levels for PrismC:   9
 Inv3:  Mode=1 IEnd=    92407500.
 Iteration    1 A*A^-1 deviation from unit magnitude is 1.67D-14 for    238.
 Iteration    1 A*A^-1 deviation from orthogonality  is 6.83D-15 for   4155   1120.
 Iteration    1 A^-1*A deviation from unit magnitude is 1.69D-14 for    238.
 Iteration    1 A^-1*A deviation from orthogonality  is 4.47D-15 for   5103    425.
 E= -2424.74025974506    
 DIIS: error= 2.88D-02 at cycle   1 NSaved=   1.
 NSaved= 1 IEnMin= 1 EnMin= -2424.74025974506     IErMin= 1 ErrMin= 2.88D-02
 ErrMax= 2.88D-02  0.00D+00 EMaxC= 1.00D-01 BMatC= 1.87D+00 BMatP= 1.87D+00
 IDIUse=3 WtCom= 7.12D-01 WtEn= 2.88D-01
 Coeff-Com:  0.100D+01
 Coeff-En:   0.100D+01
 Coeff:      0.100D+01
 Gap=     0.127 Goal=   None    Shift=    0.000
 GapD=    0.127 DampG=1.000 DampE=0.500 DampFc=0.5000 IDamp=-1.
 Damping current iteration by 5.00D-01
 RMSDP=1.45D-03 MaxDP=1.97D-01              OVMax= 2.62D-01

 Cycle   2  Pass 1  IDiag  1:
 RMSU=  7.23D-04    CP:  9.97D-01
 E= -2425.29245975778     Delta-E=       -0.552200012724 Rises=F Damp=T
 DIIS: error= 5.06D-03 at cycle   2 NSaved=   2.
 NSaved= 2 IEnMin= 2 EnMin= -2425.29245975778     IErMin= 2 ErrMin= 5.06D-03
 ErrMax= 5.06D-03  0.00D+00 EMaxC= 1.00D-01 BMatC= 2.01D-01 BMatP= 1.87D+00
 IDIUse=3 WtCom= 9.49D-01 WtEn= 5.06D-02
 Coeff-Com:  0.509D-01 0.949D+00
 Coeff-En:   0.112D+00 0.888D+00
 Coeff:      0.540D-01 0.946D+00
 Gap=     0.169 Goal=   None    Shift=    0.000
 RMSDP=5.86D-04 MaxDP=5.47D-02 DE=-5.52D-01 OVMax= 1.91D-01

 Cycle   3  Pass 1  IDiag  1:
 RMSU=  5.40D-04    CP:  9.84D-01  1.31D+00
 E= -2425.96502101674     Delta-E=       -0.672561258958 Rises=F Damp=F
 DIIS: error= 6.76D-03 at cycle   3 NSaved=   3.
 NSaved= 3 IEnMin= 3 EnMin= -2425.96502101674     IErMin= 2 ErrMin= 5.06D-03
 ErrMax= 6.76D-03  0.00D+00 EMaxC= 1.00D-01 BMatC= 8.02D-02 BMatP= 2.01D-01
 IDIUse=3 WtCom= 9.32D-01 WtEn= 6.76D-02
 Coeff-Com: -0.729D-01 0.379D+00 0.694D+00
 Coeff-En:   0.000D+00 0.000D+00 0.100D+01
 Coeff:     -0.680D-01 0.354D+00 0.714D+00
 Gap=     0.131 Goal=   None    Shift=    0.000
 RMSDP=1.79D-04 MaxDP=2.12D-02 DE=-6.73D-01 OVMax= 4.53D-02

 Cycle   4  Pass 1  IDiag  1:
 RMSU=  1.77D-04    CP:  9.86D-01  1.33D+00  9.66D-01
 E= -2426.01740893705     Delta-E=       -0.052387920317 Rises=F Damp=F
 DIIS: error= 1.64D-03 at cycle   4 NSaved=   4.
 NSaved= 4 IEnMin= 4 EnMin= -2426.01740893705     IErMin= 4 ErrMin= 1.64D-03
 ErrMax= 1.64D-03  0.00D+00 EMaxC= 1.00D-01 BMatC= 1.01D-02 BMatP= 8.02D-02
 IDIUse=3 WtCom= 9.84D-01 WtEn= 1.64D-02
 Coeff-Com: -0.249D-01 0.693D-01 0.317D+00 0.638D+00
 Coeff-En:   0.000D+00 0.000D+00 0.545D-01 0.946D+00
 Coeff:     -0.245D-01 0.682D-01 0.313D+00 0.643D+00
 Gap=     0.132 Goal=   None    Shift=    0.000
 RMSDP=5.90D-05 MaxDP=9.88D-03 DE=-5.24D-02 OVMax= 1.11D-02

 Cycle   5  Pass 1  IDiag  1:
 RMSU=  4.80D-05    CP:  9.85D-01  1.33D+00  9.94D-01  8.26D-01
 E= -2426.02521358005     Delta-E=       -0.007804642994 Rises=F Damp=F
 DIIS: error= 4.42D-04 at cycle   5 NSaved=   5.
 NSaved= 5 IEnMin= 5 EnMin= -2426.02521358005     IErMin= 5 ErrMin= 4.42D-04
 ErrMax= 4.42D-04  0.00D+00 EMaxC= 1.00D-01 BMatC= 4.60D-04 BMatP= 1.01D-02
 IDIUse=3 WtCom= 9.96D-01 WtEn= 4.42D-03
 Coeff-Com: -0.726D-02 0.124D-01 0.106D+00 0.281D+00 0.608D+00
 Coeff-En:   0.000D+00 0.000D+00 0.000D+00 0.000D+00 0.100D+01
 Coeff:     -0.723D-02 0.123D-01 0.105D+00 0.280D+00 0.610D+00
 Gap=     0.133 Goal=   None    Shift=    0.000
 RMSDP=1.68D-05 MaxDP=1.19D-03 DE=-7.80D-03 OVMax= 4.65D-03

 Cycle   6  Pass 1  IDiag  1:
 RMSU=  1.55D-05    CP:  9.85D-01  1.33D+00  9.92D-01  8.47D-01  8.91D-01
 E= -2426.02559273026     Delta-E=       -0.000379150208 Rises=F Damp=F
 DIIS: error= 1.33D-04 at cycle   6 NSaved=   6.
 NSaved= 6 IEnMin= 6 EnMin= -2426.02559273026     IErMin= 6 ErrMin= 1.33D-04
 ErrMax= 1.33D-04  0.00D+00 EMaxC= 1.00D-01 BMatC= 4.41D-05 BMatP= 4.60D-04
 IDIUse=3 WtCom= 9.99D-01 WtEn= 1.33D-03
 Coeff-Com: -0.114D-02 0.111D-04 0.209D-01 0.679D-01 0.268D+00 0.645D+00
 Coeff-En:   0.000D+00 0.000D+00 0.000D+00 0.000D+00 0.000D+00 0.100D+01
 Coeff:     -0.114D-02 0.111D-04 0.208D-01 0.678D-01 0.267D+00 0.645D+00
 Gap=     0.133 Goal=   None    Shift=    0.000
 RMSDP=8.61D-06 MaxDP=3.07D-03 DE=-3.79D-04 OVMax= 2.57D-03

 Cycle   7  Pass 1  IDiag  1:
 RMSU=  7.29D-06    CP:  9.85D-01  1.33D+00  9.95D-01  8.49D-01  9.72D-01
                    CP:  9.43D-01
 E= -2426.02563357622     Delta-E=       -0.000040845969 Rises=F Damp=F
 DIIS: error= 9.43D-05 at cycle   7 NSaved=   7.
 NSaved= 7 IEnMin= 7 EnMin= -2426.02563357622     IErMin= 7 ErrMin= 9.43D-05
 ErrMax= 9.43D-05  0.00D+00 EMaxC= 1.00D-01 BMatC= 1.16D-05 BMatP= 4.41D-05
 IDIUse=1 WtCom= 1.00D+00 WtEn= 0.00D+00
 Coeff-Com:  0.875D-03-0.266D-02-0.977D-02-0.192D-01 0.297D-01 0.360D+00
 Coeff-Com:  0.641D+00
 Coeff:      0.875D-03-0.266D-02-0.977D-02-0.192D-01 0.297D-01 0.360D+00
 Coeff:      0.641D+00
 Gap=     0.134 Goal=   None    Shift=    0.000
 RMSDP=3.87D-06 MaxDP=6.36D-04 DE=-4.08D-05 OVMax= 1.57D-03

 Cycle   8  Pass 1  IDiag  1:
 RMSU=  2.84D-06    CP:  9.85D-01  1.33D+00  9.96D-01  8.56D-01  1.00D+00
                    CP:  1.05D+00  1.00D+00
 E= -2426.02564581405     Delta-E=       -0.000012237822 Rises=F Damp=F
 DIIS: error= 3.24D-05 at cycle   8 NSaved=   8.
 NSaved= 8 IEnMin= 8 EnMin= -2426.02564581405     IErMin= 8 ErrMin= 3.24D-05
 ErrMax= 3.24D-05  0.00D+00 EMaxC= 1.00D-01 BMatC= 1.67D-06 BMatP= 1.16D-05
 IDIUse=1 WtCom= 1.00D+00 WtEn= 0.00D+00
 Coeff-Com:  0.608D-03-0.129D-02-0.793D-02-0.206D-01-0.317D-01 0.591D-01
 Coeff-Com:  0.318D+00 0.684D+00
 Coeff:      0.608D-03-0.129D-02-0.793D-02-0.206D-01-0.317D-01 0.591D-01
 Coeff:      0.318D+00 0.684D+00
 Gap=     0.134 Goal=   None    Shift=    0.000
 RMSDP=1.85D-06 MaxDP=4.51D-04 DE=-1.22D-05 OVMax= 9.26D-04

 Cycle   9  Pass 1  IDiag  1:
 RMSU=  1.12D-06    CP:  9.85D-01  1.33D+00  9.96D-01  8.58D-01  1.02D+00
                    CP:  1.09D+00  1.13D+00  1.01D+00
 E= -2426.02564814222     Delta-E=       -0.000002328170 Rises=F Damp=F
 DIIS: error= 1.07D-05 at cycle   9 NSaved=   9.
 NSaved= 9 IEnMin= 9 EnMin= -2426.02564814222     IErMin= 9 ErrMin= 1.07D-05
 ErrMax= 1.07D-05  0.00D+00 EMaxC= 1.00D-01 BMatC= 2.56D-07 BMatP= 1.67D-06
 IDIUse=1 WtCom= 1.00D+00 WtEn= 0.00D+00
 Coeff-Com:  0.164D-03-0.231D-03-0.221D-02-0.707D-02-0.189D-01-0.225D-01
 Coeff-Com:  0.601D-01 0.314D+00 0.677D+00
 Coeff:      0.164D-03-0.231D-03-0.221D-02-0.707D-02-0.189D-01-0.225D-01
 Coeff:      0.601D-01 0.314D+00 0.677D+00
 Gap=     0.134 Goal=   None    Shift=    0.000
 RMSDP=8.99D-07 MaxDP=3.28D-04 DE=-2.33D-06 OVMax= 5.00D-04

 Cycle  10  Pass 1  IDiag  1:
 RMSU=  5.12D-07    CP:  9.85D-01  1.33D+00  9.96D-01  8.59D-01  1.03D+00
                    CP:  1.11D+00  1.20D+00  1.15D+00  1.09D+00
 E= -2426.02564861365     Delta-E=       -0.000000471433 Rises=F Damp=F
 DIIS: error= 3.92D-06 at cycle  10 NSaved=  10.
 NSaved=10 IEnMin=10 EnMin= -2426.02564861365     IErMin=10 ErrMin= 3.92D-06
 ErrMax= 3.92D-06  0.00D+00 EMaxC= 1.00D-01 BMatC= 5.06D-08 BMatP= 2.56D-07
 IDIUse=1 WtCom= 1.00D+00 WtEn= 0.00D+00
 Coeff-Com: -0.593D-04 0.178D-03 0.819D-03 0.153D-02-0.905D-03-0.224D-01
 Coeff-Com: -0.447D-01-0.256D-01 0.297D+00 0.794D+00
 Coeff:     -0.593D-04 0.178D-03 0.819D-03 0.153D-02-0.905D-03-0.224D-01
 Coeff:     -0.447D-01-0.256D-01 0.297D+00 0.794D+00
 Gap=     0.134 Goal=   None    Shift=    0.000
 RMSDP=4.65D-07 MaxDP=6.28D-05 DE=-4.71D-07 OVMax= 3.68D-04

 Cycle  11  Pass 1  IDiag  1:
 RMSU=  2.79D-07    CP:  9.85D-01  1.33D+00  9.96D-01  8.59D-01  1.03D+00
                    CP:  1.11D+00  1.22D+00  1.20D+00  1.29D+00  1.20D+00
 E= -2426.02564875443     Delta-E=       -0.000000140781 Rises=F Damp=F
 DIIS: error= 2.60D-06 at cycle  11 NSaved=  11.
 NSaved=11 IEnMin=11 EnMin= -2426.02564875443     IErMin=11 ErrMin= 2.60D-06
 ErrMax= 2.60D-06  0.00D+00 EMaxC= 1.00D-01 BMatC= 1.24D-08 BMatP= 5.06D-08
 IDIUse=1 WtCom= 1.00D+00 WtEn= 0.00D+00
 Coeff-Com: -0.566D-04 0.122D-03 0.754D-03 0.201D-02 0.312D-02-0.604D-02
 Coeff-Com: -0.318D-01-0.742D-01 0.356D-02 0.374D+00 0.728D+00
 Coeff:     -0.566D-04 0.122D-03 0.754D-03 0.201D-02 0.312D-02-0.604D-02
 Coeff:     -0.318D-01-0.742D-01 0.356D-02 0.374D+00 0.728D+00
 Gap=     0.134 Goal=   None    Shift=    0.000
 RMSDP=2.62D-07 MaxDP=6.16D-05 DE=-1.41D-07 OVMax= 2.01D-04

 Cycle  12  Pass 1  IDiag  1:
 RMSU=  1.17D-07    CP:  9.85D-01  1.33D+00  9.96D-01  8.59D-01  1.03D+00
                    CP:  1.11D+00  1.23D+00  1.23D+00  1.39D+00  1.45D+00
                    CP:  1.17D+00
 E= -2426.02564878912     Delta-E=       -0.000000034684 Rises=F Damp=F
 DIIS: error= 1.11D-06 at cycle  12 NSaved=  12.
 NSaved=12 IEnMin=12 EnMin= -2426.02564878912     IErMin=12 ErrMin= 1.11D-06
 ErrMax= 1.11D-06  0.00D+00 EMaxC= 1.00D-01 BMatC= 2.38D-09 BMatP= 1.24D-08
 IDIUse=1 WtCom= 1.00D+00 WtEn= 0.00D+00
 Coeff-Com: -0.126D-04 0.174D-04 0.141D-03 0.543D-03 0.147D-02 0.177D-02
 Coeff-Com: -0.441D-02-0.259D-01-0.602D-01-0.147D-01 0.301D+00 0.801D+00
 Coeff:     -0.126D-04 0.174D-04 0.141D-03 0.543D-03 0.147D-02 0.177D-02
 Coeff:     -0.441D-02-0.259D-01-0.602D-01-0.147D-01 0.301D+00 0.801D+00
 Gap=     0.134 Goal=   None    Shift=    0.000
 RMSDP=1.31D-07 MaxDP=2.00D-05 DE=-3.47D-08 OVMax= 1.17D-04

 Cycle  13  Pass 1  IDiag  1:
 RMSU=  5.32D-08    CP:  9.85D-01  1.33D+00  9.96D-01  8.59D-01  1.03D+00
                    CP:  1.12D+00  1.24D+00  1.24D+00  1.44D+00  1.55D+00
                    CP:  1.45D+00  1.25D+00
 E= -2426.02564879907     Delta-E=       -0.000000009954 Rises=F Damp=F
 DIIS: error= 3.94D-07 at cycle  13 NSaved=  13.
 NSaved=13 IEnMin=13 EnMin= -2426.02564879907     IErMin=13 ErrMin= 3.94D-07
 ErrMax= 3.94D-07  0.00D+00 EMaxC= 1.00D-01 BMatC= 6.93D-10 BMatP= 2.38D-09
 IDIUse=1 WtCom= 1.00D+00 WtEn= 0.00D+00
 Coeff-Com:  0.745D-05-0.204D-04-0.118D-03-0.222D-03-0.441D-04 0.241D-02
 Coeff-Com:  0.595D-02 0.693D-02-0.285D-01-0.105D+00-0.423D-01 0.377D+00
 Coeff-Com:  0.784D+00
 Coeff:      0.745D-05-0.204D-04-0.118D-03-0.222D-03-0.441D-04 0.241D-02
 Coeff:      0.595D-02 0.693D-02-0.285D-01-0.105D+00-0.423D-01 0.377D+00
 Coeff:      0.784D+00
 Gap=     0.134 Goal=   None    Shift=    0.000
 RMSDP=7.30D-08 MaxDP=1.15D-05 DE=-9.95D-09 OVMax= 6.60D-05

 Cycle  14  Pass 1  IDiag  1:
 RMSU=  2.48D-08    CP:  9.85D-01  1.33D+00  9.96D-01  8.59D-01  1.03D+00
                    CP:  1.12D+00  1.24D+00  1.25D+00  1.45D+00  1.62D+00
                    CP:  1.59D+00  1.56D+00  1.25D+00
 E= -2426.02564880170     Delta-E=       -0.000000002634 Rises=F Damp=F
 DIIS: error= 2.19D-07 at cycle  14 NSaved=  14.
 NSaved=14 IEnMin=14 EnMin= -2426.02564880170     IErMin=14 ErrMin= 2.19D-07
 ErrMax= 2.19D-07  0.00D+00 EMaxC= 1.00D-01 BMatC= 1.65D-10 BMatP= 6.93D-10
 IDIUse=1 WtCom= 1.00D+00 WtEn= 0.00D+00
 Coeff-Com:  0.666D-05-0.144D-04-0.910D-04-0.236D-03-0.384D-03 0.767D-03
 Coeff-Com:  0.403D-02 0.102D-01 0.112D-02-0.511D-01-0.939D-01-0.168D-01
 Coeff-Com:  0.379D+00 0.768D+00
 Coeff:      0.666D-05-0.144D-04-0.910D-04-0.236D-03-0.384D-03 0.767D-03
 Coeff:      0.403D-02 0.102D-01 0.112D-02-0.511D-01-0.939D-01-0.168D-01
 Coeff:      0.379D+00 0.768D+00
 Gap=     0.134 Goal=   None    Shift=    0.000
 RMSDP=3.70D-08 MaxDP=5.39D-06 DE=-2.63D-09 OVMax= 3.31D-05

 Cycle  15  Pass 1  IDiag  1:
 RMSU=  1.19D-08    CP:  9.85D-01  1.33D+00  9.96D-01  8.59D-01  1.03D+00
                    CP:  1.12D+00  1.24D+00  1.25D+00  1.46D+00  1.64D+00
                    CP:  1.67D+00  1.69D+00  1.52D+00  1.24D+00
 E= -2426.02564880244     Delta-E=       -0.000000000735 Rises=F Damp=F
 DIIS: error= 1.11D-07 at cycle  15 NSaved=  15.
 NSaved=15 IEnMin=15 EnMin= -2426.02564880244     IErMin=15 ErrMin= 1.11D-07
 ErrMax= 1.11D-07  0.00D+00 EMaxC= 1.00D-01 BMatC= 4.10D-11 BMatP= 1.65D-10
 IDIUse=1 WtCom= 1.00D+00 WtEn= 0.00D+00
 Coeff-Com:  0.175D-05-0.286D-05-0.192D-04-0.697D-04-0.198D-03-0.178D-03
 Coeff-Com:  0.663D-03 0.369D-02 0.664D-02-0.349D-02-0.343D-01-0.937D-01
 Coeff-Com:  0.153D-01 0.403D+00 0.702D+00
 Coeff:      0.175D-05-0.286D-05-0.192D-04-0.697D-04-0.198D-03-0.178D-03
 Coeff:      0.663D-03 0.369D-02 0.664D-02-0.349D-02-0.343D-01-0.937D-01
 Coeff:      0.153D-01 0.403D+00 0.702D+00
 Gap=     0.134 Goal=   None    Shift=    0.000
 RMSDP=1.46D-08 MaxDP=1.88D-06 DE=-7.35D-10 OVMax= 1.27D-05

 Cycle  16  Pass 1  IDiag  1:
 RMSU=  5.51D-09    CP:  9.85D-01  1.33D+00  9.96D-01  8.59D-01  1.03D+00
                    CP:  1.12D+00  1.24D+00  1.25D+00  1.47D+00  1.65D+00
                    CP:  1.69D+00  1.74D+00  1.64D+00  1.47D+00  1.05D+00
 E= -2426.02564880205     Delta-E=        0.000000000384 Rises=F Damp=F
 DIIS: error= 4.77D-08 at cycle  16 NSaved=  16.
 NSaved=16 IEnMin=15 EnMin= -2426.02564880244     IErMin=16 ErrMin= 4.77D-08
 ErrMax= 4.77D-08  0.00D+00 EMaxC= 1.00D-01 BMatC= 6.25D-12 BMatP= 4.10D-11
 IDIUse=1 WtCom= 1.00D+00 WtEn= 0.00D+00
 Coeff-Com: -0.235D-06 0.945D-06 0.661D-05 0.671D-05-0.333D-04-0.220D-03
 Coeff-Com: -0.389D-03 0.313D-04 0.281D-02 0.721D-02 0.269D-02-0.431D-01
 Coeff-Com: -0.638D-01 0.569D-01 0.326D+00 0.712D+00
 Coeff:     -0.235D-06 0.945D-06 0.661D-05 0.671D-05-0.333D-04-0.220D-03
 Coeff:     -0.389D-03 0.313D-04 0.281D-02 0.721D-02 0.269D-02-0.431D-01
 Coeff:     -0.638D-01 0.569D-01 0.326D+00 0.712D+00
 Gap=     0.134 Goal=   None    Shift=    0.000
 RMSDP=4.82D-09 MaxDP=5.62D-07 DE= 3.84D-10 OVMax= 3.96D-06

 Error on total polarization charges =  0.02070
 SCF Done:  E(RM062X) =  -2426.02564880     A.U. after   16 cycles
            NFock= 16  Conv=0.48D-08     -V/T= 2.0052
 KE= 2.413534707270D+03 PE=-1.765024231446D+04 EE= 6.817577592962D+03
 Leave Link  502 at Sat Oct 25 03:39:55 2025, MaxMem= 30870077440 cpu:           66757.9 elap:            1060.3
 (Enter /public/software/gauss/g16/l601.exe)
 Copying SCF densities to generalized density rwf, IOpCl= 0 IROHF=0.

 **********************************************************************

            Population analysis using the SCF density.

 **********************************************************************

 Orbital symmetries:
       Occupied  (A) (A) (A) (A) (A) (A) (A) (A) (A) (A) (A) (A)
                 (A) (A) (A) (A) (A) (A) (A) (A) (A) (A) (A) (A)
                 (A) (A) (A) (A) (A) (A) (A) (A) (A) (A) (A) (A)
                 (A) (A) (A) (A) (A) (A) (A) (A) (A) (A) (A) (A)
                 (A) (A) (A) (A) (A) (A) (A) (A) (A) (A) (A) (A)
                 (A) (A) (A) (A) (A) (A) (A) (A) (A) (A) (A) (A)
                 (A) (A) (A) (A) (A) (A) (A) (A) (A) (A) (A) (A)
                 (A) (A) (A) (A) (A) (A) (A) (A) (A) (A) (A) (A)
                 (A) (A) (A) (A) (A) (A) (A) (A) (A) (A) (A) (A)
                 (A) (A) (A) (A) (A) (A) (A) (A) (A) (A) (A) (A)
                 (A) (A) (A) (A) (A) (A) (A) (A) (A) (A) (A) (A)
                 (A) (A) (A) (A) (A) (A) (A) (A) (A) (A) (A) (A)
                 (A) (A) (A) (A) (A) (A) (A) (A) (A) (A) (A) (A)
                 (A) (A) (A) (A) (A) (A) (A) (A) (A) (A) (A) (A)
                 (A) (A) (A) (A) (A) (A) (A)
       Virtual   (A) (A) (A) (A) (A) (A) (A) (A) (A) (A) (A) (A)
                 (A) (A) (A) (A) (A) (A) (A) (A) (A) (A) (A) (A)
                 (A) (A) (A) (A) (A) (A) (A) (A) (A) (A) (A) (A)
                 (A) (A) (A) (A) (A) (A) (A) (A) (A) (A) (A) (A)
                 (A) (A) (A) (A) (A) (A) (A) (A) (A) (A) (A) (A)
                 (A) (A) (A) (A) (A) (A) (A) (A) (A) (A) (A) (A)
                 (A) (A) (A) (A) (A) (A) (A) (A) (A) (A) (A) (A)
                 (A) (A) (A) (A) (A) (A) (A) (A) (A) (A) (A) (A)
                 (A) (A) (A) (A) (A) (A) (A) (A) (A) (A) (A) (A)
                 (A) (A) (A) (A) (A) (A) (A) (A) (A) (A) (A) (A)
                 (A) (A) (A) (A) (A) (A) (A) (A) (A) (A) (A) (A)
                 (A) (A) (A) (A) (A) (A) (A) (A) (A) (A) (A) (A)
                 (A) (A) (A) (A) (A) (A) (A) (A) (A) (A) (A) (A)
                 (A) (A) (A) (A) (A) (A) (A) (A) (A) (A) (A) (A)
                 (A) (A) (A) (A) (A) (A) (A) (A) (A) (A) (A) (A)
                 (A) (A) (A) (A) (A) (A) (A) (A) (A) (A) (A) (A)
                 (A) (A) (A) (A) (A) (A) (A) (A) (A) (A) (A) (A)
                 (A) (A) (A) (A) (A) (A) (A) (A) (A) (A) (A) (A)
                 (A) (A) (A) (A) (A) (A) (A) (A) (A) (A) (A) (A)
                 (A) (A) (A) (A) (A) (A) (A) (A) (A) (A) (A) (A)
                 (A) (A) (A) (A) (A) (A) (A) (A) (A) (A) (A) (A)
                 (A) (A) (A) (A) (A) (A) (A) (A) (A) (A) (A) (A)
                 (A) (A) (A) (A) (A) (A) (A) (A) (A) (A) (A) (A)
                 (A) (A) (A) (A) (A) (A) (A) (A) (A) (A) (A) (A)
                 (A) (A) (A) (A) (A) (A) (A) (A) (A) (A) (A) (A)
                 (A) (A) (A) (A) (A) (A) (A) (A) (A) (A) (A) (A)
                 (A) (A) (A) (A) (A) (A) (A) (A) (A) (A) (A) (A)
                 (A) (A) (A) (A) (A) (A) (A) (A) (A) (A) (A) (A)
                 (A) (A) (A) (A) (A) (A) (A) (A) (A) (A) (A) (A)
                 (A) (A) (A) (A) (A) (A) (A) (A) (A) (A) (A) (A)
                 (A) (A) (A) (A) (A) (A) (A) (A) (A) (A) (A) (A)
                 (A) (A) (A) (A) (A) (A) (A) (A) (A) (A) (A) (A)
                 (A) (A) (A) (A) (A) (A) (A) (A) (A) (A) (A) (A)
                 (A) (A) (A) (A) (A) (A) (A) (A) (A) (A) (A) (A)
                 (A) (A) (A) (A) (A) (A) (A) (A) (A) (A) (A) (A)
                 (A) (A) (A) (A) (A) (A) (A) (A) (A) (A) (A) (A)
                 (A) (A) (A) (A) (A) (A) (A) (A) (A) (A) (A) (A)
                 (A) (A) (A) (A) (A) (A) (A) (A) (A) (A) (A) (A)
                 (A) (A) (A) (A) (A) (A) (A) (A) (A) (A) (A) (A)
                 (A) (A) (A) (A) (A) (A) (A) (A) (A) (A) (A) (A)
                 (A) (A) (A) (A) (A) (A) (A) (A) (A) (A) (A) (A)
                 (A) (A) (A) (A) (A) (A) (A) (A) (A) (A) (A) (A)
                 (A) (A) (A) (A) (A) (A) (A) (A) (A) (A) (A) (A)
                 (A) (A) (A) (A) (A) (A) (A) (A) (A) (A) (A) (A)
                 (A) (A) (A) (A) (A) (A) (A) (A) (A) (A) (A) (A)
                 (A) (A) (A) (A) (A) (A) (A) (A) (A) (A) (A) (A)
                 (A) (A) (A) (A) (A) (A) (A) (A) (A) (A) (A) (A)
                 (A) (A) (A) (A) (A) (A) (A) (A) (A) (A) (A) (A)
                 (A) (A) (A) (A) (A) (A) (A) (A) (A) (A) (A) (A)
                 (A) (A) (A) (A) (A) (A) (A) (A) (A) (A) (A) (A)
                 (A) (A) (A) (A) (A) (A) (A) (A) (A) (A) (A) (A)
                 (A) (A) (A) (A) (A) (A) (A) (A) (A) (A) (A) (A)
                 (A) (A) (A) (A) (A) (A) (A) (A) (A) (A) (A) (A)
                 (A) (A) (A) (A) (A) (A) (A) (A) (A) (A) (A) (A)
                 (A) (A) (A) (A) (A) (A) (A) (A) (A) (A) (A) (A)
                 (A) (A) (A) (A) (A) (A) (A) (A) (A) (A) (A) (A)
                 (A) (A) (A) (A) (A) (A) (A) (A) (A) (A) (A) (A)
                 (A) (A) (A) (A) (A) (A) (A) (A) (A) (A) (A) (A)
                 (A) (A) (A) (A) (A) (A) (A) (A) (A) (A) (A) (A)
                 (A) (A) (A) (A) (A) (A) (A) (A) (A) (A) (A) (A)
                 (A) (A) (A) (A) (A) (A) (A) (A) (A) (A) (A) (A)
                 (A) (A) (A) (A) (A) (A) (A) (A) (A) (A) (A) (A)
                 (A) (A) (A) (A) (A) (A) (A) (A) (A) (A) (A) (A)
                 (A) (A) (A) (A) (A) (A) (A) (A) (A) (A) (A) (A)
                 (A) (A) (A) (A) (A) (A) (A) (A) (A) (A) (A) (A)
                 (A) (A) (A) (A) (A) (A) (A) (A) (A) (A) (A) (A)
                 (A) (A) (A) (A) (A) (A) (A) (A) (A) (A) (A) (A)
                 (A) (A) (A) (A) (A) (A) (A) (A) (A) (A) (A) (A)
                 (A) (A) (A) (A) (A) (A) (A) (A) (A) (A) (A) (A)
                 (A) (A) (A) (A) (A) (A) (A) (A) (A) (A) (A) (A)
                 (A) (A) (A) (A) (A) (A) (A) (A) (A) (A) (A) (A)
                 (A) (A) (A) (A) (A) (A) (A) (A) (A) (A) (A) (A)
                 (A) (A) (A) (A) (A) (A) (A) (A) (A) (A) (A) (A)
                 (A) (A) (A) (A) (A) (A) (A) (A) (A) (A) (A) (A)
                 (A) (A) (A) (A) (A) (A) (A) (A) (A) (A) (A) (A)
                 (A) (A) (A) (A) (A) (A) (A) (A) (A) (A) (A) (A)
                 (A) (A) (A) (A) (A) (A) (A) (A) (A) (A) (A) (A)
                 (A) (A) (A) (A) (A) (A) (A) (A) (A) (A) (A) (A)
                 (A) (A) (A) (A) (A) (A) (A) (A) (A) (A) (A) (A)
                 (A) (A) (A) (A) (A) (A) (A) (A) (A) (A) (A) (A)
                 (A) (A) (A) (A) (A) (A) (A) (A) (A) (A) (A) (A)
                 (A) (A) (A) (A) (A) (A) (A) (A) (A) (A) (A) (A)
                 (A) (A) (A) (A) (A) (A) (A) (A) (A) (A) (A) (A)
                 (A) (A) (A) (A) (A) (A) (A) (A) (A) (A) (A) (A)
                 (A) (A) (A) (A) (A) (A) (A) (A) (A) (A) (A) (A)
                 (A) (A) (A) (A) (A) (A) (A) (A) (A) (A) (A) (A)
                 (A) (A) (A) (A) (A) (A) (A) (A) (A) (A) (A) (A)
                 (A) (A) (A) (A) (A) (A) (A) (A) (A) (A) (A) (A)
                 (A) (A) (A) (A) (A) (A) (A) (A) (A) (A) (A) (A)
                 (A) (A) (A) (A) (A) (A) (A) (A) (A) (A) (A) (A)
                 (A) (A) (A) (A) (A) (A) (A) (A) (A) (A) (A) (A)
                 (A) (A) (A) (A) (A) (A) (A) (A) (A) (A) (A) (A)
                 (A) (A) (A) (A) (A) (A) (A) (A) (A) (A) (A) (A)
                 (A) (A) (A) (A) (A) (A) (A) (A) (A) (A) (A) (A)
                 (A) (A) (A) (A) (A) (A) (A) (A) (A) (A) (A) (A)
                 (A) (A) (A) (A) (A) (A) (A) (A) (A) (A) (A) (A)
                 (A) (A) (A) (A) (A) (A) (A) (A) (A) (A) (A) (A)
                 (A) (A) (A) (A) (A) (A) (A) (A) (A) (A) (A) (A)
                 (A) (A) (A) (A) (A) (A) (A) (A) (A) (A) (A) (A)
                 (A) (A) (A) (A) (A) (A) (A) (A) (A) (A) (A) (A)
                 (A) (A) (A) (A) (A) (A) (A) (A) (A) (A) (A) (A)
                 (A) (A) (A) (A) (A) (A) (A) (A) (A) (A) (A) (A)
                 (A) (A) (A) (A) (A) (A) (A) (A) (A) (A) (A) (A)
                 (A) (A) (A) (A) (A) (A) (A) (A) (A) (A) (A) (A)
                 (A) (A) (A) (A) (A) (A) (A) (A) (A) (A) (A) (A)
                 (A) (A) (A) (A) (A) (A) (A) (A) (A) (A) (A) (A)
                 (A) (A) (A) (A) (A) (A) (A) (A) (A) (A) (A) (A)
                 (A) (A) (A) (A) (A) (A) (A) (A) (A) (A) (A) (A)
                 (A) (A) (A) (A) (A) (A) (A) (A) (A) (A) (A) (A)
                 (A) (A) (A) (A) (A) (A) (A) (A) (A) (A) (A) (A)
                 (A) (A) (A) (A) (A) (A) (A) (A) (A) (A) (A) (A)
                 (A) (A) (A) (A) (A) (A) (A) (A) (A) (A) (A) (A)
                 (A) (A) (A) (A) (A) (A) (A) (A) (A) (A) (A) (A)
                 (A) (A) (A) (A) (A) (A) (A) (A) (A) (A) (A) (A)
                 (A) (A) (A) (A) (A) (A) (A) (A) (A) (A) (A) (A)
                 (A) (A) (A) (A) (A) (A) (A) (A) (A) (A) (A) (A)
                 (A) (A) (A) (A) (A) (A) (A) (A) (A) (A) (A) (A)
                 (A) (A) (A) (A) (A) (A) (A) (A) (A) (A) (A) (A)
                 (A) (A) (A) (A) (A) (A) (A) (A) (A) (A) (A) (A)
                 (A) (A) (A) (A) (A) (A) (A) (A) (A) (A) (A) (A)
                 (A) (A) (A) (A) (A) (A) (A) (A) (A) (A) (A) (A)
                 (A) (A) (A) (A) (A) (A) (A) (A) (A) (A) (A) (A)
                 (A) (A) (A) (A) (A) (A) (A) (A) (A) (A) (A) (A)
                 (A) (A) (A) (A) (A) (A) (A) (A) (A) (A) (A) (A)
                 (A) (A) (A) (A) (A) (A) (A) (A) (A) (A) (A) (A)
                 (A) (A) (A) (A) (A) (A) (A) (A) (A) (A) (A) (A)
                 (A) (A) (A) (A) (A) (A) (A) (A) (A) (A) (A) (A)
                 (A) (A) (A) (A) (A) (A) (A) (A) (A) (A) (A) (A)
                 (A) (A) (A) (A) (A) (A) (A) (A) (A) (A) (A) (A)
                 (A) (A) (A) (A) (A) (A) (A) (A) (A) (A) (A) (A)
                 (A) (A) (A) (A) (A) (A) (A) (A) (A) (A) (A) (A)
                 (A) (A) (A) (A) (A) (A) (A) (A) (A) (A) (A) (A)
                 (A) (A) (A) (A) (A) (A) (A) (A) (A) (A) (A) (A)
                 (A) (A) (A) (A) (A) (A) (A) (A) (A) (A) (A) (A)
                 (A) (A) (A) (A) (A) (A) (A) (A) (A) (A) (A) (A)
                 (A) (A) (A) (A) (A) (A) (A) (A) (A) (A) (A) (A)
                 (A) (A) (A) (A) (A) (A) (A) (A) (A) (A) (A) (A)
                 (A) (A) (A) (A) (A) (A) (A) (A) (A) (A) (A) (A)
                 (A) (A) (A) (A) (A) (A) (A) (A) (A) (A) (A) (A)
                 (A) (A) (A) (A) (A) (A) (A) (A) (A) (A) (A) (A)
                 (A) (A) (A) (A) (A) (A) (A) (A) (A) (A) (A) (A)
                 (A) (A) (A) (A) (A)
 The electronic state is 1-A.
 Alpha  occ. eigenvalues --  -25.21137 -25.20911 -19.69115 -19.69063 -19.68522
 Alpha  occ. eigenvalues --  -19.68509 -19.68154 -19.68152 -19.67653 -19.67645
 Alpha  occ. eigenvalues --  -15.02414 -15.02095 -15.01627 -15.01156 -14.79543
 Alpha  occ. eigenvalues --  -14.79435 -10.64079 -10.63283 -10.62343 -10.61725
 Alpha  occ. eigenvalues --  -10.61678 -10.61522 -10.61450 -10.61254 -10.60446
 Alpha  occ. eigenvalues --  -10.60318 -10.60109 -10.59673 -10.59500 -10.58665
 Alpha  occ. eigenvalues --  -10.58601 -10.58414 -10.58410 -10.58163 -10.57970
 Alpha  occ. eigenvalues --  -10.57916 -10.57884 -10.57796 -10.57792 -10.57791
 Alpha  occ. eigenvalues --  -10.57759 -10.57244 -10.57079 -10.56944 -10.56910
 Alpha  occ. eigenvalues --  -10.55284 -10.55058 -10.54492 -10.54464  -7.13929
 Alpha  occ. eigenvalues --   -1.38163  -1.37527  -1.37165  -1.36510  -1.33031
 Alpha  occ. eigenvalues --   -1.29781  -1.19725  -1.19074  -1.18684  -1.18002
 Alpha  occ. eigenvalues --   -1.11706  -1.09746  -1.03408  -1.01451  -1.00580
 Alpha  occ. eigenvalues --   -0.96641  -0.96044  -0.94302  -0.93629  -0.92192
 Alpha  occ. eigenvalues --   -0.91463  -0.91248  -0.90278  -0.88661  -0.88141
 Alpha  occ. eigenvalues --   -0.87511  -0.84853  -0.83800  -0.83136  -0.81365
 Alpha  occ. eigenvalues --   -0.80817  -0.80399  -0.78844  -0.75185  -0.73149
 Alpha  occ. eigenvalues --   -0.73105  -0.72967  -0.72182  -0.70833  -0.70725
 Alpha  occ. eigenvalues --   -0.69675  -0.68794  -0.67923  -0.67333  -0.66397
 Alpha  occ. eigenvalues --   -0.66070  -0.65838  -0.65155  -0.64251  -0.64059
 Alpha  occ. eigenvalues --   -0.64010  -0.63615  -0.63255  -0.63114  -0.62885
 Alpha  occ. eigenvalues --   -0.62174  -0.62075  -0.61944  -0.61396  -0.60875
 Alpha  occ. eigenvalues --   -0.59550  -0.59072  -0.58897  -0.57832  -0.56849
 Alpha  occ. eigenvalues --   -0.56221  -0.56073  -0.54959  -0.54427  -0.54149
 Alpha  occ. eigenvalues --   -0.53975  -0.53748  -0.53006  -0.52934  -0.52754
 Alpha  occ. eigenvalues --   -0.52418  -0.52139  -0.51495  -0.50797  -0.50234
 Alpha  occ. eigenvalues --   -0.49869  -0.49599  -0.48917  -0.48599  -0.48397
 Alpha  occ. eigenvalues --   -0.48172  -0.47683  -0.47572  -0.47286  -0.47182
 Alpha  occ. eigenvalues --   -0.47072  -0.46926  -0.46347  -0.44964  -0.44877
 Alpha  occ. eigenvalues --   -0.44367  -0.44271  -0.43887  -0.43127  -0.42650
 Alpha  occ. eigenvalues --   -0.42173  -0.41849  -0.41496  -0.41442  -0.41314
 Alpha  occ. eigenvalues --   -0.40994  -0.40691  -0.40381  -0.40238  -0.40218
 Alpha  occ. eigenvalues --   -0.39924  -0.39922  -0.39581  -0.39510  -0.39430
 Alpha  occ. eigenvalues --   -0.36950  -0.35664  -0.34357  -0.34335  -0.33823
 Alpha  occ. eigenvalues --   -0.33580  -0.32901  -0.31981  -0.30471  -0.25085
 Alpha virt. eigenvalues --   -0.11695  -0.08941  -0.07722  -0.06969  -0.06926
 Alpha virt. eigenvalues --   -0.02337  -0.01070  -0.00902  -0.00674   0.00020
 Alpha virt. eigenvalues --    0.01803   0.03993   0.05061   0.05451   0.06967
 Alpha virt. eigenvalues --    0.07564   0.07719   0.08185   0.08308   0.08899
 Alpha virt. eigenvalues --    0.09152   0.09442   0.09707   0.09921   0.10211
 Alpha virt. eigenvalues --    0.10656   0.10826   0.11174   0.11468   0.11938
 Alpha virt. eigenvalues --    0.12330   0.12426   0.12871   0.13153   0.13290
 Alpha virt. eigenvalues --    0.13897   0.14472   0.14839   0.15042   0.15183
 Alpha virt. eigenvalues --    0.15363   0.15717   0.15905   0.16241   0.16529
 Alpha virt. eigenvalues --    0.16960   0.17122   0.17471   0.17719   0.17853
 Alpha virt. eigenvalues --    0.18023   0.18240   0.18527   0.18952   0.19522
 Alpha virt. eigenvalues --    0.19717   0.19873   0.20015   0.20327   0.20984
 Alpha virt. eigenvalues --    0.21236   0.21272   0.21668   0.21846   0.22133
 Alpha virt. eigenvalues --    0.22344   0.22389   0.22558   0.22775   0.23031
 Alpha virt. eigenvalues --    0.23114   0.23294   0.23743   0.23980   0.24285
 Alpha virt. eigenvalues --    0.24515   0.24969   0.25104   0.25608   0.25970
 Alpha virt. eigenvalues --    0.26219   0.26411   0.26640   0.26848   0.26911
 Alpha virt. eigenvalues --    0.27128   0.27230   0.27300   0.27611   0.27796
 Alpha virt. eigenvalues --    0.28140   0.28350   0.28444   0.28613   0.29285
 Alpha virt. eigenvalues --    0.29427   0.29599   0.29838   0.30135   0.30281
 Alpha virt. eigenvalues --    0.30474   0.30585   0.30890   0.31078   0.31454
 Alpha virt. eigenvalues --    0.32124   0.32299   0.32546   0.32823   0.32903
 Alpha virt. eigenvalues --    0.33137   0.33386   0.33548   0.33970   0.34136
 Alpha virt. eigenvalues --    0.34427   0.34585   0.34854   0.35052   0.35125
 Alpha virt. eigenvalues --    0.35214   0.35517   0.35743   0.35901   0.36165
 Alpha virt. eigenvalues --    0.36479   0.36695   0.36817   0.37044   0.37159
 Alpha virt. eigenvalues --    0.37194   0.37435   0.37829   0.37980   0.38309
 Alpha virt. eigenvalues --    0.38501   0.38738   0.38790   0.39357   0.39460
 Alpha virt. eigenvalues --    0.39582   0.39834   0.40074   0.40255   0.40534
 Alpha virt. eigenvalues --    0.40698   0.40818   0.41048   0.41303   0.41454
 Alpha virt. eigenvalues --    0.41614   0.41784   0.42178   0.42292   0.42500
 Alpha virt. eigenvalues --    0.42699   0.42852   0.43122   0.43310   0.43541
 Alpha virt. eigenvalues --    0.43702   0.44335   0.44478   0.44511   0.44727
 Alpha virt. eigenvalues --    0.45159   0.45654   0.46112   0.46154   0.46413
 Alpha virt. eigenvalues --    0.46713   0.46812   0.46961   0.47126   0.47502
 Alpha virt. eigenvalues --    0.47653   0.47780   0.47919   0.48353   0.48408
 Alpha virt. eigenvalues --    0.48641   0.48760   0.48911   0.49014   0.49288
 Alpha virt. eigenvalues --    0.49515   0.49989   0.50018   0.50052   0.50503
 Alpha virt. eigenvalues --    0.50680   0.51036   0.51167   0.51577   0.51766
 Alpha virt. eigenvalues --    0.51840   0.51899   0.52205   0.52405   0.52507
 Alpha virt. eigenvalues --    0.52640   0.52835   0.53041   0.53543   0.53666
 Alpha virt. eigenvalues --    0.54010   0.54254   0.54642   0.54784   0.55506
 Alpha virt. eigenvalues --    0.55651   0.55833   0.56088   0.56144   0.56417
 Alpha virt. eigenvalues --    0.56516   0.56820   0.57014   0.57481   0.57675
 Alpha virt. eigenvalues --    0.57974   0.58195   0.58490   0.58634   0.59019
 Alpha virt. eigenvalues --    0.59418   0.59713   0.59844   0.60365   0.60755
 Alpha virt. eigenvalues --    0.60903   0.61327   0.61345   0.61766   0.61885
 Alpha virt. eigenvalues --    0.62174   0.62440   0.62679   0.62799   0.63112
 Alpha virt. eigenvalues --    0.63360   0.63453   0.63796   0.64161   0.64311
 Alpha virt. eigenvalues --    0.64568   0.64835   0.65320   0.65376   0.65688
 Alpha virt. eigenvalues --    0.65971   0.66129   0.66378   0.66525   0.66788
 Alpha virt. eigenvalues --    0.66850   0.67179   0.67288   0.67415   0.67587
 Alpha virt. eigenvalues --    0.68178   0.68260   0.68457   0.68500   0.68716
 Alpha virt. eigenvalues --    0.68874   0.69033   0.69320   0.69646   0.69855
 Alpha virt. eigenvalues --    0.70014   0.70747   0.70866   0.71002   0.71207
 Alpha virt. eigenvalues --    0.71546   0.71988   0.72172   0.72232   0.72444
 Alpha virt. eigenvalues --    0.72867   0.73094   0.73498   0.73660   0.73786
 Alpha virt. eigenvalues --    0.74193   0.74307   0.74890   0.75113   0.75467
 Alpha virt. eigenvalues --    0.75758   0.76065   0.76293   0.76345   0.76793
 Alpha virt. eigenvalues --    0.76965   0.77294   0.77619   0.77995   0.78303
 Alpha virt. eigenvalues --    0.78632   0.78823   0.79089   0.79308   0.79423
 Alpha virt. eigenvalues --    0.80125   0.80322   0.80768   0.80986   0.81007
 Alpha virt. eigenvalues --    0.81588   0.81937   0.82651   0.83037   0.83157
 Alpha virt. eigenvalues --    0.83444   0.83556   0.84051   0.84390   0.84650
 Alpha virt. eigenvalues --    0.84696   0.84901   0.85472   0.85715   0.86133
 Alpha virt. eigenvalues --    0.86328   0.86590   0.86815   0.87409   0.87984
 Alpha virt. eigenvalues --    0.88230   0.88710   0.88968   0.89113   0.89771
 Alpha virt. eigenvalues --    0.90444   0.90863   0.91297   0.91556   0.91687
 Alpha virt. eigenvalues --    0.91803   0.92104   0.92397   0.92557   0.92735
 Alpha virt. eigenvalues --    0.93190   0.93526   0.93673   0.94294   0.94579
 Alpha virt. eigenvalues --    0.94914   0.95492   0.95752   0.95770   0.96169
 Alpha virt. eigenvalues --    0.96416   0.97096   0.97175   0.97674   0.98220
 Alpha virt. eigenvalues --    0.98665   0.99128   0.99188   0.99314   0.99507
 Alpha virt. eigenvalues --    0.99820   1.00127   1.00393   1.00732   1.00745
 Alpha virt. eigenvalues --    1.01100   1.01632   1.01848   1.02158   1.02487
 Alpha virt. eigenvalues --    1.02719   1.03046   1.03352   1.03383   1.03727
 Alpha virt. eigenvalues --    1.04186   1.04543   1.05059   1.05191   1.05381
 Alpha virt. eigenvalues --    1.05834   1.06127   1.06379   1.06442   1.06761
 Alpha virt. eigenvalues --    1.07111   1.07580   1.07839   1.08269   1.08320
 Alpha virt. eigenvalues --    1.08359   1.08679   1.09191   1.09463   1.09869
 Alpha virt. eigenvalues --    1.10065   1.10555   1.10943   1.11053   1.11231
 Alpha virt. eigenvalues --    1.11642   1.12497   1.12731   1.12831   1.13101
 Alpha virt. eigenvalues --    1.13494   1.13766   1.14259   1.14731   1.15054
 Alpha virt. eigenvalues --    1.15131   1.15362   1.16190   1.16555   1.16948
 Alpha virt. eigenvalues --    1.17127   1.17260   1.17773   1.18046   1.18344
 Alpha virt. eigenvalues --    1.18566   1.18767   1.19401   1.19974   1.20287
 Alpha virt. eigenvalues --    1.20345   1.20555   1.20964   1.21304   1.21693
 Alpha virt. eigenvalues --    1.22038   1.22570   1.22755   1.23108   1.23330
 Alpha virt. eigenvalues --    1.23822   1.24199   1.24269   1.24901   1.25132
 Alpha virt. eigenvalues --    1.25163   1.25321   1.25781   1.26060   1.26205
 Alpha virt. eigenvalues --    1.26788   1.27149   1.27612   1.27840   1.28326
 Alpha virt. eigenvalues --    1.28590   1.28967   1.29099   1.29825   1.30137
 Alpha virt. eigenvalues --    1.30317   1.30536   1.30792   1.31240   1.31442
 Alpha virt. eigenvalues --    1.31534   1.32062   1.32401   1.32607   1.33265
 Alpha virt. eigenvalues --    1.33654   1.33967   1.34167   1.34434   1.34582
 Alpha virt. eigenvalues --    1.35013   1.35511   1.35812   1.35968   1.36556
 Alpha virt. eigenvalues --    1.36813   1.37339   1.37653   1.37987   1.38225
 Alpha virt. eigenvalues --    1.38966   1.39021   1.39147   1.39675   1.39984
 Alpha virt. eigenvalues --    1.40682   1.40959   1.42047   1.42172   1.42552
 Alpha virt. eigenvalues --    1.42938   1.43381   1.43750   1.43843   1.44231
 Alpha virt. eigenvalues --    1.44389   1.44783   1.45153   1.45602   1.45797
 Alpha virt. eigenvalues --    1.45884   1.46116   1.46351   1.46915   1.47291
 Alpha virt. eigenvalues --    1.47627   1.47981   1.48349   1.48567   1.49498
 Alpha virt. eigenvalues --    1.49673   1.50098   1.50560   1.50890   1.51355
 Alpha virt. eigenvalues --    1.51826   1.52168   1.52338   1.52735   1.52818
 Alpha virt. eigenvalues --    1.53149   1.53305   1.53622   1.53898   1.54098
 Alpha virt. eigenvalues --    1.54339   1.54659   1.54802   1.54980   1.55275
 Alpha virt. eigenvalues --    1.55555   1.55878   1.56449   1.56717   1.57134
 Alpha virt. eigenvalues --    1.57309   1.57819   1.58173   1.58553   1.58854
 Alpha virt. eigenvalues --    1.58945   1.59469   1.59942   1.60061   1.60285
 Alpha virt. eigenvalues --    1.60703   1.60769   1.61142   1.61379   1.62275
 Alpha virt. eigenvalues --    1.62402   1.62709   1.62879   1.63090   1.63408
 Alpha virt. eigenvalues --    1.63613   1.63800   1.64303   1.64818   1.65222
 Alpha virt. eigenvalues --    1.65436   1.65495   1.65731   1.66008   1.66343
 Alpha virt. eigenvalues --    1.66543   1.66752   1.67049   1.67592   1.68047
 Alpha virt. eigenvalues --    1.68407   1.68567   1.68743   1.68839   1.69593
 Alpha virt. eigenvalues --    1.69882   1.71010   1.71268   1.71386   1.71578
 Alpha virt. eigenvalues --    1.72129   1.72397   1.72630   1.72978   1.73649
 Alpha virt. eigenvalues --    1.73877   1.74073   1.74837   1.75579   1.75695
 Alpha virt. eigenvalues --    1.76234   1.76658   1.77496   1.77688   1.77874
 Alpha virt. eigenvalues --    1.78199   1.78379   1.78931   1.79298   1.79452
 Alpha virt. eigenvalues --    1.80045   1.80138   1.80368   1.80860   1.81139
 Alpha virt. eigenvalues --    1.81201   1.81425   1.82128   1.82286   1.82689
 Alpha virt. eigenvalues --    1.83022   1.83573   1.84031   1.84456   1.84517
 Alpha virt. eigenvalues --    1.85056   1.85571   1.85977   1.86654   1.87109
 Alpha virt. eigenvalues --    1.87836   1.87906   1.88170   1.88931   1.89846
 Alpha virt. eigenvalues --    1.90211   1.90443   1.90714   1.91265   1.92315
 Alpha virt. eigenvalues --    1.92473   1.93200   1.93756   1.94309   1.95028
 Alpha virt. eigenvalues --    1.95301   1.95660   1.96445   1.96744   1.97159
 Alpha virt. eigenvalues --    1.97683   1.98185   1.98338   1.98788   1.99318
 Alpha virt. eigenvalues --    1.99774   2.00015   2.00601   2.00721   2.01066
 Alpha virt. eigenvalues --    2.01719   2.01903   2.02095   2.02361   2.02738
 Alpha virt. eigenvalues --    2.02919   2.03634   2.03738   2.04038   2.04527
 Alpha virt. eigenvalues --    2.05289   2.05649   2.05761   2.06143   2.06277
 Alpha virt. eigenvalues --    2.06853   2.07427   2.07554   2.08017   2.08518
 Alpha virt. eigenvalues --    2.08947   2.09155   2.10004   2.10663   2.10869
 Alpha virt. eigenvalues --    2.11396   2.11630   2.12089   2.12582   2.12805
 Alpha virt. eigenvalues --    2.13330   2.13584   2.13844   2.14156   2.14639
 Alpha virt. eigenvalues --    2.15386   2.15757   2.16568   2.16739   2.17125
 Alpha virt. eigenvalues --    2.17288   2.17820   2.18025   2.18494   2.19331
 Alpha virt. eigenvalues --    2.19918   2.20314   2.21074   2.21754   2.22010
 Alpha virt. eigenvalues --    2.22397   2.22774   2.22937   2.23117   2.23488
 Alpha virt. eigenvalues --    2.24746   2.25055   2.25492   2.26207   2.26990
 Alpha virt. eigenvalues --    2.27488   2.28116   2.28340   2.29197   2.29884
 Alpha virt. eigenvalues --    2.30050   2.30305   2.30650   2.31123   2.31419
 Alpha virt. eigenvalues --    2.32182   2.32558   2.32975   2.33774   2.34089
 Alpha virt. eigenvalues --    2.34772   2.35135   2.35493   2.36426   2.36651
 Alpha virt. eigenvalues --    2.36739   2.36933   2.37275   2.37701   2.37924
 Alpha virt. eigenvalues --    2.38252   2.38479   2.38987   2.39291   2.40021
 Alpha virt. eigenvalues --    2.40910   2.41281   2.42384   2.43546   2.43835
 Alpha virt. eigenvalues --    2.44622   2.45859   2.46339   2.47228   2.47529
 Alpha virt. eigenvalues --    2.48570   2.49065   2.50041   2.50656   2.51376
 Alpha virt. eigenvalues --    2.51653   2.52248   2.53163   2.53843   2.53975
 Alpha virt. eigenvalues --    2.54589   2.54688   2.55548   2.55994   2.56894
 Alpha virt. eigenvalues --    2.57213   2.57344   2.58214   2.58544   2.59436
 Alpha virt. eigenvalues --    2.59575   2.60000   2.60548   2.61102   2.61369
 Alpha virt. eigenvalues --    2.61568   2.62060   2.63001   2.63134   2.64232
 Alpha virt. eigenvalues --    2.64652   2.64889   2.65048   2.65506   2.65962
 Alpha virt. eigenvalues --    2.66528   2.67023   2.67697   2.68201   2.68684
 Alpha virt. eigenvalues --    2.69002   2.69599   2.70120   2.70549   2.70827
 Alpha virt. eigenvalues --    2.71146   2.71916   2.72096   2.72386   2.72674
 Alpha virt. eigenvalues --    2.73098   2.73232   2.73566   2.73624   2.74055
 Alpha virt. eigenvalues --    2.74162   2.74412   2.74673   2.74955   2.75171
 Alpha virt. eigenvalues --    2.75479   2.76108   2.76226   2.76745   2.76938
 Alpha virt. eigenvalues --    2.77186   2.77732   2.77923   2.78076   2.78279
 Alpha virt. eigenvalues --    2.78494   2.78570   2.78846   2.79173   2.79269
 Alpha virt. eigenvalues --    2.79725   2.80083   2.80599   2.81031   2.81185
 Alpha virt. eigenvalues --    2.81463   2.81738   2.82203   2.82390   2.82568
 Alpha virt. eigenvalues --    2.82769   2.83188   2.83352   2.83782   2.83840
 Alpha virt. eigenvalues --    2.84211   2.84613   2.85066   2.85648   2.85813
 Alpha virt. eigenvalues --    2.86033   2.86525   2.87045   2.87172   2.87795
 Alpha virt. eigenvalues --    2.88371   2.88389   2.88699   2.89018   2.89180
 Alpha virt. eigenvalues --    2.89542   2.89979   2.90445   2.90814   2.90905
 Alpha virt. eigenvalues --    2.91062   2.91203   2.91468   2.91689   2.91890
 Alpha virt. eigenvalues --    2.92248   2.92301   2.92622   2.92949   2.93288
 Alpha virt. eigenvalues --    2.93687   2.93856   2.94189   2.94428   2.94581
 Alpha virt. eigenvalues --    2.94701   2.94977   2.95637   2.96020   2.96634
 Alpha virt. eigenvalues --    2.96759   2.96913   2.97644   2.97825   2.98338
 Alpha virt. eigenvalues --    2.98513   2.99130   2.99316   2.99435   2.99510
 Alpha virt. eigenvalues --    2.99848   3.00333   3.00573   3.00971   3.01148
 Alpha virt. eigenvalues --    3.01653   3.01803   3.01875   3.02121   3.02728
 Alpha virt. eigenvalues --    3.02884   3.03249   3.03461   3.03893   3.04041
 Alpha virt. eigenvalues --    3.04323   3.04598   3.04705   3.05004   3.05205
 Alpha virt. eigenvalues --    3.05455   3.05741   3.06073   3.06688   3.07124
 Alpha virt. eigenvalues --    3.07318   3.07634   3.07890   3.07948   3.08388
 Alpha virt. eigenvalues --    3.08508   3.08678   3.09057   3.09490   3.09778
 Alpha virt. eigenvalues --    3.09856   3.10301   3.10543   3.10741   3.10903
 Alpha virt. eigenvalues --    3.11187   3.11744   3.11886   3.12235   3.12405
 Alpha virt. eigenvalues --    3.12582   3.12992   3.13265   3.13452   3.13702
 Alpha virt. eigenvalues --    3.13980   3.14214   3.14327   3.14626   3.15116
 Alpha virt. eigenvalues --    3.15592   3.15860   3.16080   3.16180   3.16365
 Alpha virt. eigenvalues --    3.16756   3.16961   3.17597   3.17831   3.18108
 Alpha virt. eigenvalues --    3.18178   3.18495   3.18596   3.19202   3.19492
 Alpha virt. eigenvalues --    3.19627   3.20076   3.20497   3.20843   3.21219
 Alpha virt. eigenvalues --    3.21395   3.21524   3.22196   3.22396   3.22516
 Alpha virt. eigenvalues --    3.22813   3.23008   3.23443   3.23669   3.24274
 Alpha virt. eigenvalues --    3.24619   3.24717   3.24973   3.25097   3.25324
 Alpha virt. eigenvalues --    3.25589   3.25886   3.26464   3.26661   3.27039
 Alpha virt. eigenvalues --    3.27261   3.27756   3.27863   3.28140   3.28463
 Alpha virt. eigenvalues --    3.28880   3.29374   3.29658   3.29742   3.30049
 Alpha virt. eigenvalues --    3.30227   3.30527   3.30714   3.30911   3.31149
 Alpha virt. eigenvalues --    3.31479   3.31936   3.32047   3.32293   3.32398
 Alpha virt. eigenvalues --    3.32962   3.33165   3.33585   3.34078   3.34362
 Alpha virt. eigenvalues --    3.34567   3.34947   3.35341   3.35765   3.36136
 Alpha virt. eigenvalues --    3.36314   3.36629   3.37105   3.37140   3.37278
 Alpha virt. eigenvalues --    3.38113   3.38375   3.38652   3.38868   3.39259
 Alpha virt. eigenvalues --    3.39635   3.39799   3.40040   3.40427   3.41302
 Alpha virt. eigenvalues --    3.41396   3.42043   3.42314   3.42895   3.43263
 Alpha virt. eigenvalues --    3.44145   3.44295   3.44779   3.45007   3.45368
 Alpha virt. eigenvalues --    3.45436   3.45890   3.46379   3.46786   3.47357
 Alpha virt. eigenvalues --    3.47722   3.47941   3.48274   3.48524   3.48854
 Alpha virt. eigenvalues --    3.48965   3.49345   3.49612   3.50163   3.50446
 Alpha virt. eigenvalues --    3.50619   3.50725   3.51431   3.51683   3.51768
 Alpha virt. eigenvalues --    3.52111   3.52453   3.52716   3.53525   3.53657
 Alpha virt. eigenvalues --    3.54049   3.54810   3.55164   3.55561   3.55961
 Alpha virt. eigenvalues --    3.56045   3.56722   3.57308   3.57548   3.57729
 Alpha virt. eigenvalues --    3.58055   3.58839   3.59091   3.59429   3.59919
 Alpha virt. eigenvalues --    3.60569   3.60669   3.61485   3.61600   3.61755
 Alpha virt. eigenvalues --    3.62484   3.62947   3.63414   3.63647   3.63851
 Alpha virt. eigenvalues --    3.64288   3.64754   3.65195   3.65660   3.66148
 Alpha virt. eigenvalues --    3.66577   3.67059   3.67188   3.67650   3.67878
 Alpha virt. eigenvalues --    3.68177   3.68881   3.69112   3.69463   3.70041
 Alpha virt. eigenvalues --    3.70295   3.70393   3.70549   3.71326   3.71690
 Alpha virt. eigenvalues --    3.71825   3.72250   3.72449   3.72613   3.73021
 Alpha virt. eigenvalues --    3.73586   3.73911   3.74556   3.74811   3.75298
 Alpha virt. eigenvalues --    3.75774   3.76014   3.76227   3.76723   3.77325
 Alpha virt. eigenvalues --    3.77698   3.78323   3.78582   3.79291   3.79758
 Alpha virt. eigenvalues --    3.80430   3.80853   3.81163   3.81478   3.81828
 Alpha virt. eigenvalues --    3.82365   3.82602   3.83314   3.83606   3.84030
 Alpha virt. eigenvalues --    3.84173   3.84779   3.85231   3.85430   3.85820
 Alpha virt. eigenvalues --    3.86027   3.86251   3.86870   3.87267   3.87508
 Alpha virt. eigenvalues --    3.87923   3.88531   3.88669   3.89071   3.89552
 Alpha virt. eigenvalues --    3.89622   3.89935   3.90269   3.90431   3.90894
 Alpha virt. eigenvalues --    3.91022   3.91611   3.91960   3.92156   3.92294
 Alpha virt. eigenvalues --    3.92628   3.92848   3.93434   3.93737   3.94023
 Alpha virt. eigenvalues --    3.94289   3.94505   3.94999   3.95831   3.96767
 Alpha virt. eigenvalues --    3.97041   3.97304   3.97813   3.98781   3.98951
 Alpha virt. eigenvalues --    3.99283   3.99883   4.00129   4.00439   4.00494
 Alpha virt. eigenvalues --    4.01151   4.01295   4.01735   4.02285   4.02523
 Alpha virt. eigenvalues --    4.02707   4.03071   4.03268   4.03507   4.03925
 Alpha virt. eigenvalues --    4.04183   4.04474   4.04719   4.04906   4.05044
 Alpha virt. eigenvalues --    4.05279   4.05444   4.05789   4.06177   4.06410
 Alpha virt. eigenvalues --    4.06602   4.07671   4.08020   4.08277   4.08730
 Alpha virt. eigenvalues --    4.09196   4.09382   4.09750   4.10012   4.10853
 Alpha virt. eigenvalues --    4.11406   4.11641   4.11783   4.12255   4.12685
 Alpha virt. eigenvalues --    4.12860   4.13439   4.13780   4.14214   4.14966
 Alpha virt. eigenvalues --    4.15009   4.15421   4.15828   4.15971   4.16588
 Alpha virt. eigenvalues --    4.17001   4.17029   4.17237   4.17796   4.17991
 Alpha virt. eigenvalues --    4.18322   4.18787   4.19519   4.19590   4.20092
 Alpha virt. eigenvalues --    4.20647   4.20737   4.20792   4.20972   4.21315
 Alpha virt. eigenvalues --    4.21732   4.22205   4.22548   4.23027   4.23315
 Alpha virt. eigenvalues --    4.24016   4.24260   4.24341   4.24607   4.25500
 Alpha virt. eigenvalues --    4.25563   4.25800   4.26027   4.26287   4.26827
 Alpha virt. eigenvalues --    4.27066   4.27332   4.27911   4.28352   4.29391
 Alpha virt. eigenvalues --    4.29668   4.29958   4.30405   4.30516   4.30822
 Alpha virt. eigenvalues --    4.31392   4.31439   4.32188   4.32623   4.33115
 Alpha virt. eigenvalues --    4.34112   4.35079   4.35572   4.36254   4.36733
 Alpha virt. eigenvalues --    4.37221   4.37702   4.38772   4.38947   4.39823
 Alpha virt. eigenvalues --    4.40332   4.41596   4.42194   4.42538   4.43629
 Alpha virt. eigenvalues --    4.44251   4.44529   4.45763   4.46079   4.46719
 Alpha virt. eigenvalues --    4.46965   4.47438   4.47590   4.48500   4.48824
 Alpha virt. eigenvalues --    4.49146   4.49454   4.50064   4.50173   4.51130
 Alpha virt. eigenvalues --    4.52005   4.52156   4.52627   4.52921   4.53418
 Alpha virt. eigenvalues --    4.54232   4.54554   4.55770   4.56236   4.57099
 Alpha virt. eigenvalues --    4.58418   4.58868   4.59351   4.60097   4.60243
 Alpha virt. eigenvalues --    4.60575   4.61093   4.61438   4.62200   4.62509
 Alpha virt. eigenvalues --    4.63451   4.63720   4.63990   4.64186   4.64497
 Alpha virt. eigenvalues --    4.64759   4.64938   4.65387   4.66054   4.66214
 Alpha virt. eigenvalues --    4.67513   4.67850   4.67966   4.68552   4.69058
 Alpha virt. eigenvalues --    4.69798   4.69911   4.70110   4.70753   4.71396
 Alpha virt. eigenvalues --    4.72160   4.72401   4.72976   4.73180   4.73831
 Alpha virt. eigenvalues --    4.74140   4.74399   4.74959   4.75580   4.76556
 Alpha virt. eigenvalues --    4.76622   4.76696   4.78042   4.78606   4.78977
 Alpha virt. eigenvalues --    4.79455   4.79745   4.79937   4.80972   4.81422
 Alpha virt. eigenvalues --    4.81854   4.82224   4.83204   4.83583   4.83671
 Alpha virt. eigenvalues --    4.84804   4.85097   4.85154   4.86363   4.86894
 Alpha virt. eigenvalues --    4.87259   4.88508   4.89249   4.89996   4.90104
 Alpha virt. eigenvalues --    4.90651   4.91279   4.91535   4.92205   4.92660
 Alpha virt. eigenvalues --    4.92848   4.93233   4.93395   4.93682   4.93983
 Alpha virt. eigenvalues --    4.94967   4.95386   4.95629   4.96231   4.96656
 Alpha virt. eigenvalues --    4.96916   4.97447   4.98892   5.00238   5.00706
 Alpha virt. eigenvalues --    5.02030   5.02297   5.03232   5.03690   5.04431
 Alpha virt. eigenvalues --    5.04852   5.05173   5.05470   5.05849   5.06051
 Alpha virt. eigenvalues --    5.06649   5.07111   5.07927   5.08398   5.09022
 Alpha virt. eigenvalues --    5.09631   5.09700   5.10398   5.10463   5.10842
 Alpha virt. eigenvalues --    5.11057   5.11622   5.11975   5.12633   5.13177
 Alpha virt. eigenvalues --    5.13640   5.13900   5.14025   5.14257   5.14404
 Alpha virt. eigenvalues --    5.14658   5.14986   5.15107   5.15813   5.16362
 Alpha virt. eigenvalues --    5.16935   5.17222   5.17510   5.18286   5.18603
 Alpha virt. eigenvalues --    5.18876   5.19478   5.19949   5.20171   5.20725
 Alpha virt. eigenvalues --    5.21219   5.21821   5.22845   5.23347   5.23965
 Alpha virt. eigenvalues --    5.24289   5.25093   5.25388   5.25900   5.27602
 Alpha virt. eigenvalues --    5.28361   5.28683   5.28795   5.28909   5.29001
 Alpha virt. eigenvalues --    5.29062   5.29363   5.29865   5.30189   5.30639
 Alpha virt. eigenvalues --    5.31193   5.31381   5.32571   5.33157   5.33510
 Alpha virt. eigenvalues --    5.33873   5.34825   5.35481   5.36027   5.36610
 Alpha virt. eigenvalues --    5.37105   5.38250   5.38468   5.38697   5.39499
 Alpha virt. eigenvalues --    5.39608   5.40134   5.40588   5.40955   5.41729
 Alpha virt. eigenvalues --    5.42041   5.42985   5.43459   5.43960   5.44573
 Alpha virt. eigenvalues --    5.44859   5.49105   5.49228   5.50249   5.51007
 Alpha virt. eigenvalues --    5.51587   5.51902   5.52705   5.53699   5.54449
 Alpha virt. eigenvalues --    5.54944   5.56138   5.57173   5.57360   5.58212
 Alpha virt. eigenvalues --    5.58546   5.58799   5.59197   5.59447   5.60150
 Alpha virt. eigenvalues --    5.60249   5.60460   5.60643   5.61100   5.61491
 Alpha virt. eigenvalues --    5.62787   5.63452   5.63812   5.65063   5.65420
 Alpha virt. eigenvalues --    5.65688   5.67305   5.68697   5.69688   5.70831
 Alpha virt. eigenvalues --    5.70986   5.72409   5.73712   5.75004   5.76198
 Alpha virt. eigenvalues --    5.78078   5.79088   5.81486   5.83821   5.84810
 Alpha virt. eigenvalues --    5.85530   5.87321   5.89120   5.90061   5.91138
 Alpha virt. eigenvalues --    5.91544   5.91637   5.91842   5.93149   5.93485
 Alpha virt. eigenvalues --    5.97233   6.00810   6.03622   6.04915   6.07145
 Alpha virt. eigenvalues --    6.13661   6.14305   6.14994   6.21675   6.22188
 Alpha virt. eigenvalues --    6.22367   6.24960   6.24985   6.25266   6.25754
 Alpha virt. eigenvalues --    6.27770   6.28055   6.28094   6.29206   6.31293
 Alpha virt. eigenvalues --    6.34355   6.35114   6.35383   6.35810   6.36205
 Alpha virt. eigenvalues --    6.38188   6.38537   6.39811   6.40706   6.40997
 Alpha virt. eigenvalues --    6.41711   6.41945   6.43109   6.43828   6.44215
 Alpha virt. eigenvalues --    6.45255   6.53132   6.69293   6.75409   6.75768
 Alpha virt. eigenvalues --    6.77462   6.80380   6.80718   6.80781   6.82752
 Alpha virt. eigenvalues --    6.83070   6.83078   6.83562   6.85569   6.87108
 Alpha virt. eigenvalues --    6.87232   6.87401   6.89731   6.93892   6.95311
 Alpha virt. eigenvalues --    6.97301   6.98629   6.99798   7.00357   7.04864
 Alpha virt. eigenvalues --    7.08072   7.08350   7.08538   7.08792   7.11201
 Alpha virt. eigenvalues --    7.17137   7.20222   7.20405   7.20692   7.21607
 Alpha virt. eigenvalues --    7.21946   7.24300   7.25094   7.27258   7.32332
 Alpha virt. eigenvalues --    7.32909   7.33041   7.33441   7.34313   7.37373
 Alpha virt. eigenvalues --    7.40450   7.45198   7.45557   7.46067   7.50726
 Alpha virt. eigenvalues --    7.50807   7.52531   8.46170   8.49661   8.56809
 Alpha virt. eigenvalues --    8.61842   8.82603   8.88679   8.91022   8.92909
 Alpha virt. eigenvalues --    8.95049   9.01114  15.88219  22.79336  22.90249
 Alpha virt. eigenvalues --   22.93230  22.97738  23.00088  23.07619  23.10493
 Alpha virt. eigenvalues --   23.12630  23.15001  23.18378  23.18985  23.21529
 Alpha virt. eigenvalues --   23.24685  23.25572  23.28866  23.29546  23.30314
 Alpha virt. eigenvalues --   23.32172  23.33245  23.33854  23.35019  23.37799
 Alpha virt. eigenvalues --   23.46183  23.51806  23.54527  23.59495  23.71517
 Alpha virt. eigenvalues --   23.76760  23.85437  23.88378  23.99267  24.09549
 Alpha virt. eigenvalues --   24.17858  32.57545  32.57903  32.59563  32.60964
 Alpha virt. eigenvalues --   33.15261  33.27371  44.15564  44.20342  44.20426
 Alpha virt. eigenvalues --   44.20618  44.21496  44.24928  44.25462  44.25806
 Alpha virt. eigenvalues --   57.40540  57.60999
          Condensed to atoms (all electrons):
 Mulliken charges:
               1
     1  C   -0.426926
     2  C   -0.010093
     3  C   -0.070295
     4  C    0.075428
     5  C   -0.153513
     6  C   -0.079789
     7  C    0.045542
     8  C   -0.096344
     9  C   -0.085299
    10  C   -0.050816
    11  N    0.495520
    12  O   -0.361347
    13  O   -0.363476
    14  C   -0.004832
    15  C    0.006554
    16  N    0.415641
    17  O   -0.338057
    18  O   -0.306133
    19  N   -0.084386
    20  C    0.103076
    21  C    0.147348
    22  C   -0.272108
    23  C   -0.169312
    24  C   -0.040313
    25  C   -0.025768
    26  N    0.493804
    27  O   -0.365560
    28  O   -0.365523
    29  C   -0.044240
    30  C   -0.157357
    31  C    0.106053
    32  C   -0.002116
    33  C   -0.425724
    34  C   -0.073446
    35  C   -0.019878
    36  C   -0.057337
    37  C   -0.063685
    38  C    0.068863
    39  C   -0.120339
    40  C   -0.097792
    41  C   -0.031088
    42  N    0.488942
    43  O   -0.375222
    44  O   -0.374790
    45  C   -0.097615
    46  C   -0.162987
    47  N   -0.082772
    48  B    0.324184
    49  F   -0.333528
    50  F   -0.330226
    51  H    0.166619
    52  H    0.135349
    53  H    0.158238
    54  H    0.175741
    55  H    0.149857
    56  H    0.122039
    57  H    0.151883
    58  H    0.200435
    59  H    0.206874
    60  H    0.183964
    61  H    0.199504
    62  H    0.199148
    63  H    0.182110
    64  H    0.160208
    65  H    0.166494
    66  H    0.135165
    67  H    0.168716
    68  H    0.110271
    69  H    0.099923
    70  H    0.128808
    71  H    0.192798
    72  H    0.191812
    73  H    0.163116
 Sum of Mulliken charges =  -0.00000
 Mulliken charges with hydrogens summed into heavy atoms:
               1
     1  C    0.033281
     2  C   -0.010093
     3  C    0.105447
     4  C    0.075428
     5  C   -0.003656
     6  C    0.042249
     7  C    0.045542
     8  C    0.055540
     9  C    0.115136
    10  C   -0.050816
    11  N    0.495520
    12  O   -0.361347
    13  O   -0.363476
    14  C    0.202041
    15  C    0.006554
    16  N    0.415641
    17  O   -0.338057
    18  O   -0.306133
    19  N   -0.084386
    20  C    0.103076
    21  C    0.147348
    22  C   -0.272108
    23  C    0.014651
    24  C    0.159191
    25  C   -0.025768
    26  N    0.493804
    27  O   -0.365560
    28  O   -0.365523
    29  C    0.154908
    30  C    0.024753
    31  C    0.106053
    32  C   -0.002116
    33  C    0.036143
    34  C    0.095270
    35  C   -0.019878
    36  C    0.052934
    37  C    0.036239
    38  C    0.068863
    39  C    0.008469
    40  C    0.095007
    41  C   -0.031088
    42  N    0.488942
    43  O   -0.375222
    44  O   -0.374790
    45  C    0.094198
    46  C    0.000130
    47  N   -0.082772
    48  B    0.324184
    49  F   -0.333528
    50  F   -0.330226
 Electronic spatial extent (au):  <R**2>=          45331.8946
 Charge=              0.0000 electrons
 Dipole moment (field-independent basis, Debye):
    X=            -13.3291    Y=             -5.8488    Z=             -0.2882  Tot=             14.5587
 Quadrupole moment (field-independent basis, Debye-Ang):
   XX=           -439.7072   YY=           -264.8816   ZZ=           -288.1161
   XY=            -35.4228   XZ=              7.7838   YZ=             -8.3123
 Traceless Quadrupole moment (field-independent basis, Debye-Ang):
   XX=           -108.8056   YY=             66.0201   ZZ=             42.7855
   XY=            -35.4228   XZ=              7.7838   YZ=             -8.3123
 Octapole moment (field-independent basis, Debye-Ang**2):
  XXX=             22.1949  YYY=           -231.0994  ZZZ=             -4.0207  XYY=           -463.9328
  XXY=            -46.6035  XXZ=             42.7774  XZZ=            -11.9391  YZZ=             -1.9389
  YYZ=             12.5939  XYZ=            -31.2207
 Hexadecapole moment (field-independent basis, Debye-Ang**3):
 XXXX=         -59152.2841 YYYY=         -19451.5228 ZZZZ=           -848.2379 XXXY=          -1339.3569
 XXXZ=            489.4294 YYYX=          -1282.3708 YYYZ=           -301.0597 ZZZX=            -32.2072
 ZZZY=             50.2979 XXYY=         -13575.8019 XXZZ=          -6690.2841 YYZZ=          -3398.9478
 XXYZ=           -303.6595 YYXZ=            194.3252 ZZXY=             18.8277
 N-N= 5.993104365429D+03 E-N=-1.765024232567D+04  KE= 2.413534707270D+03
 No NMR shielding tensors so no spin-rotation constants.
 Leave Link  601 at Sat Oct 25 03:39:58 2025, MaxMem= 30870077440 cpu:             135.4 elap:               2.5
 (Enter /public/software/gauss/g16/l9999.exe)
 1\1\GINC-CU056\SP\RM062X\def2TZVPP\C33H23B1F2N6O8\BAIDING\25-Oct-2025\
 0\\#p M062X/DEF2TZVPP scrf=(solvent=water) em=GD3\\Energy calculation 
 for BNP_24NO2_NO2\\0,1\C,0,-4.426112,-3.116934,0.288382\C,0,-3.080517,
 -2.470738,0.168667\C,0,-1.875463,-3.155134,0.193607\C,0,-0.824857,-2.2
 1839,0.043118\C,0,0.600189,-2.420604,-0.019076\C,0,1.219743,-3.568828,
 0.340861\C,0,2.644181,-3.863894,0.237374\C,0,2.992648,-5.227526,0.1040
 48\C,0,4.292507,-5.652337,-0.115352\C,0,5.302289,-4.693973,-0.209434\N
 ,0,6.673303,-5.113838,-0.456532\O,0,6.901692,-6.322836,-0.566587\O,0,7
 .547343,-4.245144,-0.547659\C,0,5.034605,-3.338491,-0.056531\C,0,3.727
 09,-2.945845,0.190987\N,0,3.572272,-1.510366,0.476817\O,0,4.221156,-0.
 720564,-0.21339\O,0,2.848123,-1.170033,1.411429\N,0,-1.365755,-0.97288
 8,-0.071026\C,0,-2.746807,-1.078411,0.00794\C,0,-3.541052,0.081579,-0.
 062611\C,0,-5.028629,-0.053105,-0.038825\C,0,-5.726442,-0.350129,-1.21
 8848\C,0,-7.110705,-0.481881,-1.204066\C,0,-7.782001,-0.319594,0.00746
 2\N,0,-9.236061,-0.461306,0.031847\O,0,-9.822697,-0.321512,1.109656\O,
 0,-9.81997,-0.71538,-1.026347\C,0,-7.114213,-0.028189,1.196536\C,0,-5.
 730413,0.107361,1.165203\C,0,-2.95684,1.356369,-0.159738\C,0,-3.55967,
 2.651884,-0.336941\C,0,-5.005214,3.027224,-0.446819\C,0,-2.511652,3.55
 0049,-0.408599\C,0,-1.288686,2.849682,-0.259156\C,0,-0.00945,3.51853,-
 0.256096\C,0,1.202362,3.026356,0.105063\C,0,2.466205,3.750761,0.081933
 \C,0,3.642448,3.020381,0.366506\C,0,4.887402,3.630567,0.361152\C,0,4.9
 62,4.99525,0.07267\N,0,6.259091,5.646335,0.067255\O,0,7.263492,4.97064
 5,0.32829\O,0,6.315355,6.854611,-0.198555\C,0,3.819891,5.75263,-0.2108
 37\C,0,2.583287,5.129723,-0.204625\N,0,-1.56613,1.518653,-0.120641\B,0
 ,-0.558009,0.346471,-0.036644\F,0,0.332258,0.391814,-1.117127\F,0,0.16
 5901,0.395362,1.167946\H,0,-5.015428,-3.004731,-0.626948\H,0,-4.30227,
 -4.185285,0.481874\H,0,-5.014718,-2.687886,1.104576\H,0,-1.752809,-4.2
 25628,0.282898\H,0,1.167974,-1.582717,-0.401338\H,0,0.617267,-4.410201
 ,0.673775\H,0,2.197869,-5.964065,0.147522\H,0,4.523823,-6.704112,-0.22
 3449\H,0,5.831163,-2.60795,-0.096195\H,0,-5.184665,-0.475308,-2.149816
 \H,0,-7.660283,-0.707356,-2.108801\H,0,-7.6665,0.090197,2.119744\H,0,-
 5.19201,0.335814,2.078429\H,0,-5.50904,2.486978,-1.253541\H,0,-5.55433
 3,2.814107,0.475306\H,0,-5.087408,4.097818,-0.649814\H,0,-2.591635,4.6
 20659,-0.541116\H,0,-0.089916,4.55617,-0.569579\H,0,1.28009,2.00854,0.
 461778\H,0,3.569935,1.957171,0.57697\H,0,5.787191,3.068229,0.57488\H,0
 ,3.909632,6.809364,-0.427035\H,0,1.700935,5.722768,-0.416731\\Version=
 ES64L-G16RevA.03\State=1-A\HF=-2426.0256488\RMSD=4.817e-09\Dipole=-5.2
 44067,-2.3011029,-0.1133924\Quadrupole=-80.894291,49.084315,31.8099761
 ,-26.3359871,5.7870651,-6.1799799\PG=C01 [X(C33H23B1F2N6O8)]\\@


 ERWIN WITH HIS PSI CAN DO
 CALCULATIONS QUITE A FEW.
 BUT ONE THING HAS NOT BEEN SEEN
 JUST WHAT DOES PSI REALLY MEAN.
 -- WALTER HUCKEL, TRANS. BY FELIX BLOCH
 Job cpu time:       0 days 18 hours 57 minutes 19.3 seconds.
 Elapsed time:       0 days  0 hours 18 minutes  4.1 seconds.
 File lengths (MBytes):  RWF=   2319 Int=      0 D2E=      0 Chk=    204 Scr=      1
 Normal termination of Gaussian 16 at Sat Oct 25 03:39:58 2025.
