 Entering Gaussian System, Link 0=g16
 Input=BNP_CN_CN_reduced_sp.gjf
 Output=BNP_CN_CN_reduced_sp.log
 Initial command:
 /public/software/gauss/g16/l1.exe "/public/home/baiding/1024_sp/tmp_BNP_CN_CN_reduced_sp_1526250/Gau-2952696.inp" -scrdir="/public/home/baiding/1024_sp/tmp_BNP_CN_CN_reduced_sp_1526250/"
 Entering Link 1 = /public/software/gauss/g16/l1.exe PID=   2952697.
  
 Copyright (c) 1988,1990,1992,1993,1995,1998,2003,2009,2016,
            Gaussian, Inc.  All Rights Reserved.
  
 This is part of the Gaussian(R) 16 program.  It is based on
 the Gaussian(R) 09 system (copyright 2009, Gaussian, Inc.),
 the Gaussian(R) 03 system (copyright 2003, Gaussian, Inc.),
 the Gaussian(R) 98 system (copyright 1998, Gaussian, Inc.),
 the Gaussian(R) 94 system (copyright 1995, Gaussian, Inc.),
 the Gaussian 92(TM) system (copyright 1992, Gaussian, Inc.),
 the Gaussian 90(TM) system (copyright 1990, Gaussian, Inc.),
 the Gaussian 88(TM) system (copyright 1988, Gaussian, Inc.),
 the Gaussian 86(TM) system (copyright 1986, Carnegie Mellon
 University), and the Gaussian 82(TM) system (copyright 1983,
 Carnegie Mellon University). Gaussian is a federally registered
 trademark of Gaussian, Inc.
  
 This software contains proprietary and confidential information,
 including trade secrets, belonging to Gaussian, Inc.
  
 This software is provided under written license and may be
 used, copied, transmitted, or stored only in accord with that
 written license.
  
 The following legend is applicable only to US Government
 contracts under FAR:
  
                    RESTRICTED RIGHTS LEGEND
  
 Use, reproduction and disclosure by the US Government is
 subject to restrictions as set forth in subparagraphs (a)
 and (c) of the Commercial Computer Software - Restricted
 Rights clause in FAR 52.227-19.
  
 Gaussian, Inc.
 340 Quinnipiac St., Bldg. 40, Wallingford CT 06492
  
  
 ---------------------------------------------------------------
 Warning -- This program may not be used in any manner that
 competes with the business of Gaussian, Inc. or will provide
 assistance to any competitor of Gaussian, Inc.  The licensee
 of this program is prohibited from giving any competitor of
 Gaussian, Inc. access to this program.  By using this program,
 the user acknowledges that Gaussian, Inc. is engaged in the
 business of creating and licensing software in the field of
 computational chemistry and represents and warrants to the
 licensee that it is not a competitor of Gaussian, Inc. and that
 it will not use this program in any manner prohibited above.
 ---------------------------------------------------------------
  

 Cite this work as:
 Gaussian 16, Revision A.03,
 M. J. Frisch, G. W. Trucks, H. B. Schlegel, G. E. Scuseria, 
 M. A. Robb, J. R. Cheeseman, G. Scalmani, V. Barone, 
 G. A. Petersson, H. Nakatsuji, X. Li, M. Caricato, A. V. Marenich, 
 J. Bloino, B. G. Janesko, R. Gomperts, B. Mennucci, H. P. Hratchian, 
 J. V. Ortiz, A. F. Izmaylov, J. L. Sonnenberg, D. Williams-Young, 
 F. Ding, F. Lipparini, F. Egidi, J. Goings, B. Peng, A. Petrone, 
 T. Henderson, D. Ranasinghe, V. G. Zakrzewski, J. Gao, N. Rega, 
 G. Zheng, W. Liang, M. Hada, M. Ehara, K. Toyota, R. Fukuda, 
 J. Hasegawa, M. Ishida, T. Nakajima, Y. Honda, O. Kitao, H. Nakai, 
 T. Vreven, K. Throssell, J. A. Montgomery, Jr., J. E. Peralta, 
 F. Ogliaro, M. J. Bearpark, J. J. Heyd, E. N. Brothers, K. N. Kudin, 
 V. N. Staroverov, T. A. Keith, R. Kobayashi, J. Normand, 
 K. Raghavachari, A. P. Rendell, J. C. Burant, S. S. Iyengar, 
 J. Tomasi, M. Cossi, J. M. Millam, M. Klene, C. Adamo, R. Cammi, 
 J. W. Ochterski, R. L. Martin, K. Morokuma, O. Farkas, 
 J. B. Foresman, and D. J. Fox, Gaussian, Inc., Wallingford CT, 2016.
 
 ******************************************
 Gaussian 16:  ES64L-G16RevA.03 25-Dec-2016
                25-Oct-2025 
 ******************************************
 %nprocshared=64
 Will use up to   64 processors via shared memory.
 %mem=230GB
 %chk=BNP_CN_CN_reduced_sp.chk
 ----------------------------------------------
 #p M062X/DEF2TZVPP scrf=(solvent=water) em=GD3
 ----------------------------------------------
 1/38=1,172=1/1;
 2/12=2,17=6,18=5,40=1/2;
 3/5=44,7=202,11=2,25=1,30=1,70=2201,72=1,74=-55,124=31/1,2,3;
 4//1;
 5/5=2,38=5,53=1/2;
 6/7=2,8=2,9=2,10=2,28=1/1;
 99/5=1,9=1/99;
 Leave Link    1 at Sat Oct 25 06:08:51 2025, MaxMem= 30870077440 cpu:              14.8 elap:               0.2
 (Enter /public/software/gauss/g16/l101.exe)
 ----------------------------------------
 Energy calculation for BNP_CN_CN_reduced
 ----------------------------------------
 Symbolic Z-matrix:
 Charge = -1 Multiplicity = 2
 C                    -3.88017   3.17919   0.29215 
 C                    -2.49878   2.62072   0.11032 
 C                    -1.35133   3.40645   0.0917 
 C                    -0.22304   2.56918  -0.01375 
 C                     1.1654    2.91806  -0.06238 
 C                     1.65255   4.18406   0.0778 
 C                     3.04924   4.57473   0.01935 
 C                     3.3809    5.94077   0.18412 
 C                     4.69392   6.38134   0.14201 
 C                     5.73451   5.45633  -0.0686 
 C                     7.08919   5.8966   -0.11301 
 N                     8.19966   6.25733  -0.14923 
 C                     5.42774   4.08964  -0.23488 
 C                     4.11221   3.66205  -0.19141 
 N                    -0.66922   1.26117  -0.07564 
 C                    -2.05963   1.25879  -0.01625 
 C                    -2.77594   0.02973  -0.02714 
 C                    -4.25102   0.02416  -0.0171 
 C                    -4.96279  -0.58115   1.04186 
 C                    -6.34757  -0.58929   1.06586 
 C                    -7.04945  -0.00155   0.00329 
 N                    -8.48354  -0.01363   0.01415 
 O                    -9.07711  -0.56265   0.96595 
 O                    -9.10048   0.52539  -0.92848 
 C                    -6.37377   0.59692  -1.07033 
 C                    -4.98896   0.61345  -1.06713 
 C                    -2.06526  -1.20323  -0.05965 
 C                    -2.51442  -2.55244  -0.26336 
 C                    -3.89619  -3.0792   -0.52124 
 C                    -1.37526  -3.34934  -0.26172 
 C                    -0.24104  -2.52933  -0.09129 
 C                     1.14266  -2.89982  -0.05148 
 C                     1.59815  -4.185    -0.04178 
 C                     2.98892  -4.60043  -0.01891 
 C                     4.07977  -3.69644  -0.00843 
 C                     5.3874   -4.1493    0.01472 
 C                     5.65792  -5.53355   0.02742 
 C                     7.00445  -5.99995   0.05001 
 N                     8.10819  -6.38205   0.06837 
 C                     4.5891   -6.45023   0.01708 
 C                     3.28437  -5.98447  -0.00535 
 N                    -0.67786  -1.2225    0.01599 
 B                     0.20961   0.023     0.19952 
 F                     1.29344  -0.01613  -0.70757 
 F                     0.73707   0.07622   1.50601 
 H                    -4.45818   2.61543   1.03029 
 H                    -3.80758   4.2139    0.64003 
 H                    -4.46522   3.18447  -0.63365 
 H                    -1.32864   4.48666   0.15137 
 H                     1.85287   2.09787  -0.23764 
 H                     0.95425   4.99986   0.25295 
 H                     2.58328   6.65959   0.3471 
 H                     4.92565   7.43337   0.27033 
 H                     6.22928   3.37654  -0.39629 
 H                     3.90407   2.60559  -0.32071 
 H                    -4.41321  -1.02732   1.86375 
 H                    -6.88836  -1.03178   1.89255 
 H                    -6.93467   1.02766  -1.88979 
 H                    -4.46014   1.06426  -1.89983 
 H                    -4.5118   -3.12114   0.38372 
 H                    -4.44118  -2.46863  -1.24731 
 H                    -3.82763  -4.09593  -0.91927 
 H                    -1.35706  -4.42086  -0.41089 
 H                     1.85515  -2.08291  -0.03811 
 H                     0.876    -4.99876  -0.04987 
 H                     3.89986  -2.627    -0.01877 
 H                     6.21062  -3.44262   0.02243 
 H                     4.79282  -7.51575   0.02669 
 H                     2.46475  -6.69699  -0.01304 
 
 ITRead=  0  0  0  0  0  0  0  0  0  0  0  0  0  0  0  0  0  0  0  0
 ITRead=  0  0  0  0  0  0  0  0  0  0  0  0  0  0  0  0  0  0  0  0
 ITRead=  0  0  0  0  0  0  0  0  0  0  0  0  0  0  0  0  0  0  0  0
 ITRead=  0  0  0  0  0  0  0  0  0
 MicOpt= -1 -1 -1 -1 -1 -1 -1 -1 -1 -1 -1 -1 -1 -1 -1 -1 -1 -1 -1 -1
 MicOpt= -1 -1 -1 -1 -1 -1 -1 -1 -1 -1 -1 -1 -1 -1 -1 -1 -1 -1 -1 -1
 MicOpt= -1 -1 -1 -1 -1 -1 -1 -1 -1 -1 -1 -1 -1 -1 -1 -1 -1 -1 -1 -1
 MicOpt= -1 -1 -1 -1 -1 -1 -1 -1 -1
 NAtoms=     69 NQM=       69 NQMF=       0 NMMI=      0 NMMIF=      0
                NMic=       0 NMicF=      0.
                    Isotopes and Nuclear Properties:
 (Nuclear quadrupole moments (NQMom) in fm**2, nuclear magnetic moments (NMagM)
  in nuclear magnetons)

  Atom         1           2           3           4           5           6           7           8           9          10
 IAtWgt=          12          12          12          12          12          12          12          12          12          12
 AtmWgt=  12.0000000  12.0000000  12.0000000  12.0000000  12.0000000  12.0000000  12.0000000  12.0000000  12.0000000  12.0000000
 NucSpn=           0           0           0           0           0           0           0           0           0           0
 AtZEff=  -0.0000000  -0.0000000  -0.0000000  -0.0000000  -0.0000000  -0.0000000  -0.0000000  -0.0000000  -0.0000000  -0.0000000
 NQMom=    0.0000000   0.0000000   0.0000000   0.0000000   0.0000000   0.0000000   0.0000000   0.0000000   0.0000000   0.0000000
 NMagM=    0.0000000   0.0000000   0.0000000   0.0000000   0.0000000   0.0000000   0.0000000   0.0000000   0.0000000   0.0000000
 AtZNuc=   6.0000000   6.0000000   6.0000000   6.0000000   6.0000000   6.0000000   6.0000000   6.0000000   6.0000000   6.0000000

  Atom        11          12          13          14          15          16          17          18          19          20
 IAtWgt=          12          14          12          12          14          12          12          12          12          12
 AtmWgt=  12.0000000  14.0030740  12.0000000  12.0000000  14.0030740  12.0000000  12.0000000  12.0000000  12.0000000  12.0000000
 NucSpn=           0           2           0           0           2           0           0           0           0           0
 AtZEff=  -0.0000000  -0.0000000  -0.0000000  -0.0000000  -0.0000000  -0.0000000  -0.0000000  -0.0000000  -0.0000000  -0.0000000
 NQMom=    0.0000000   2.0440000   0.0000000   0.0000000   2.0440000   0.0000000   0.0000000   0.0000000   0.0000000   0.0000000
 NMagM=    0.0000000   0.4037610   0.0000000   0.0000000   0.4037610   0.0000000   0.0000000   0.0000000   0.0000000   0.0000000
 AtZNuc=   6.0000000   7.0000000   6.0000000   6.0000000   7.0000000   6.0000000   6.0000000   6.0000000   6.0000000   6.0000000

  Atom        21          22          23          24          25          26          27          28          29          30
 IAtWgt=          12          14          16          16          12          12          12          12          12          12
 AtmWgt=  12.0000000  14.0030740  15.9949146  15.9949146  12.0000000  12.0000000  12.0000000  12.0000000  12.0000000  12.0000000
 NucSpn=           0           2           0           0           0           0           0           0           0           0
 AtZEff=  -0.0000000  -0.0000000  -0.0000000  -0.0000000  -0.0000000  -0.0000000  -0.0000000  -0.0000000  -0.0000000  -0.0000000
 NQMom=    0.0000000   2.0440000   0.0000000   0.0000000   0.0000000   0.0000000   0.0000000   0.0000000   0.0000000   0.0000000
 NMagM=    0.0000000   0.4037610   0.0000000   0.0000000   0.0000000   0.0000000   0.0000000   0.0000000   0.0000000   0.0000000
 AtZNuc=   6.0000000   7.0000000   8.0000000   8.0000000   6.0000000   6.0000000   6.0000000   6.0000000   6.0000000   6.0000000

  Atom        31          32          33          34          35          36          37          38          39          40
 IAtWgt=          12          12          12          12          12          12          12          12          14          12
 AtmWgt=  12.0000000  12.0000000  12.0000000  12.0000000  12.0000000  12.0000000  12.0000000  12.0000000  14.0030740  12.0000000
 NucSpn=           0           0           0           0           0           0           0           0           2           0
 AtZEff=  -0.0000000  -0.0000000  -0.0000000  -0.0000000  -0.0000000  -0.0000000  -0.0000000  -0.0000000  -0.0000000  -0.0000000
 NQMom=    0.0000000   0.0000000   0.0000000   0.0000000   0.0000000   0.0000000   0.0000000   0.0000000   2.0440000   0.0000000
 NMagM=    0.0000000   0.0000000   0.0000000   0.0000000   0.0000000   0.0000000   0.0000000   0.0000000   0.4037610   0.0000000
 AtZNuc=   6.0000000   6.0000000   6.0000000   6.0000000   6.0000000   6.0000000   6.0000000   6.0000000   7.0000000   6.0000000

  Atom        41          42          43          44          45          46          47          48          49          50
 IAtWgt=          12          14          11          19          19           1           1           1           1           1
 AtmWgt=  12.0000000  14.0030740  11.0093053  18.9984033  18.9984033   1.0078250   1.0078250   1.0078250   1.0078250   1.0078250
 NucSpn=           0           2           3           1           1           1           1           1           1           1
 AtZEff=  -0.0000000  -0.0000000  -0.0000000  -0.0000000  -0.0000000  -0.0000000  -0.0000000  -0.0000000  -0.0000000  -0.0000000
 NQMom=    0.0000000   2.0440000   4.0590000   0.0000000   0.0000000   0.0000000   0.0000000   0.0000000   0.0000000   0.0000000
 NMagM=    0.0000000   0.4037610   2.6886370   2.6288670   2.6288670   2.7928460   2.7928460   2.7928460   2.7928460   2.7928460
 AtZNuc=   6.0000000   7.0000000   5.0000000   9.0000000   9.0000000   1.0000000   1.0000000   1.0000000   1.0000000   1.0000000

  Atom        51          52          53          54          55          56          57          58          59          60
 IAtWgt=           1           1           1           1           1           1           1           1           1           1
 AtmWgt=   1.0078250   1.0078250   1.0078250   1.0078250   1.0078250   1.0078250   1.0078250   1.0078250   1.0078250   1.0078250
 NucSpn=           1           1           1           1           1           1           1           1           1           1
 AtZEff=  -0.0000000  -0.0000000  -0.0000000  -0.0000000  -0.0000000  -0.0000000  -0.0000000  -0.0000000  -0.0000000  -0.0000000
 NQMom=    0.0000000   0.0000000   0.0000000   0.0000000   0.0000000   0.0000000   0.0000000   0.0000000   0.0000000   0.0000000
 NMagM=    2.7928460   2.7928460   2.7928460   2.7928460   2.7928460   2.7928460   2.7928460   2.7928460   2.7928460   2.7928460
 AtZNuc=   1.0000000   1.0000000   1.0000000   1.0000000   1.0000000   1.0000000   1.0000000   1.0000000   1.0000000   1.0000000

  Atom        61          62          63          64          65          66          67          68          69
 IAtWgt=           1           1           1           1           1           1           1           1           1
 AtmWgt=   1.0078250   1.0078250   1.0078250   1.0078250   1.0078250   1.0078250   1.0078250   1.0078250   1.0078250
 NucSpn=           1           1           1           1           1           1           1           1           1
 AtZEff=  -0.0000000  -0.0000000  -0.0000000  -0.0000000  -0.0000000  -0.0000000  -0.0000000  -0.0000000  -0.0000000
 NQMom=    0.0000000   0.0000000   0.0000000   0.0000000   0.0000000   0.0000000   0.0000000   0.0000000   0.0000000
 NMagM=    2.7928460   2.7928460   2.7928460   2.7928460   2.7928460   2.7928460   2.7928460   2.7928460   2.7928460
 AtZNuc=   1.0000000   1.0000000   1.0000000   1.0000000   1.0000000   1.0000000   1.0000000   1.0000000   1.0000000
 Leave Link  101 at Sat Oct 25 06:08:51 2025, MaxMem= 30870077440 cpu:               4.4 elap:               0.1
 (Enter /public/software/gauss/g16/l202.exe)
 Stoichiometry    C35H24BF2N5O2(1-,2)
 Framework group  C1[X(C35H24BF2N5O2)]
 Deg. of freedom   201
 Full point group                 C1      NOp   1
 Largest Abelian subgroup         C1      NOp   1
 Largest concise Abelian subgroup C1      NOp   1
                         Standard orientation:                         
 ---------------------------------------------------------------------
 Center     Atomic      Atomic             Coordinates (Angstroms)
 Number     Number       Type             X           Y           Z
 ---------------------------------------------------------------------
      1          6           0        3.880169   -3.179191    0.292145
      2          6           0        2.498779   -2.620715    0.110323
      3          6           0        1.351333   -3.406451    0.091696
      4          6           0        0.223041   -2.569180   -0.013747
      5          6           0       -1.165402   -2.918062   -0.062384
      6          6           0       -1.652546   -4.184058    0.077801
      7          6           0       -3.049243   -4.574729    0.019349
      8          6           0       -3.380896   -5.940774    0.184118
      9          6           0       -4.693917   -6.381336    0.142013
     10          6           0       -5.734512   -5.456329   -0.068595
     11          6           0       -7.089187   -5.896603   -0.113013
     12          7           0       -8.199661   -6.257327   -0.149226
     13          6           0       -5.427744   -4.089643   -0.234876
     14          6           0       -4.112214   -3.662048   -0.191405
     15          7           0        0.669224   -1.261169   -0.075642
     16          6           0        2.059632   -1.258792   -0.016248
     17          6           0        2.775937   -0.029734   -0.027138
     18          6           0        4.251024   -0.024155   -0.017098
     19          6           0        4.962786    0.581147    1.041859
     20          6           0        6.347569    0.589290    1.065862
     21          6           0        7.049454    0.001551    0.003293
     22          7           0        8.483544    0.013634    0.014148
     23          8           0        9.077107    0.562653    0.965952
     24          8           0        9.100484   -0.525390   -0.928477
     25          6           0        6.373774   -0.596917   -1.070326
     26          6           0        4.988956   -0.613448   -1.067131
     27          6           0        2.065263    1.203228   -0.059646
     28          6           0        2.514422    2.552442   -0.263363
     29          6           0        3.896193    3.079196   -0.521237
     30          6           0        1.375264    3.349339   -0.261719
     31          6           0        0.241044    2.529331   -0.091292
     32          6           0       -1.142662    2.899821   -0.051482
     33          6           0       -1.598149    4.184996   -0.041780
     34          6           0       -2.988922    4.600434   -0.018908
     35          6           0       -4.079766    3.696439   -0.008425
     36          6           0       -5.387403    4.149303    0.014724
     37          6           0       -5.657919    5.533549    0.027424
     38          6           0       -7.004453    5.999954    0.050005
     39          7           0       -8.108190    6.382052    0.068374
     40          6           0       -4.589105    6.450230    0.017079
     41          6           0       -3.284374    5.984467   -0.005354
     42          7           0        0.677856    1.222496    0.015991
     43          5           0       -0.209608   -0.022998    0.199524
     44          9           0       -1.293436    0.016134   -0.707572
     45          9           0       -0.737067   -0.076215    1.506006
     46          1           0        4.458178   -2.615431    1.030286
     47          1           0        3.807581   -4.213896    0.640026
     48          1           0        4.465215   -3.184467   -0.633648
     49          1           0        1.328640   -4.486658    0.151373
     50          1           0       -1.852867   -2.097869   -0.237640
     51          1           0       -0.954249   -4.999862    0.252946
     52          1           0       -2.583282   -6.659589    0.347100
     53          1           0       -4.925654   -7.433368    0.270331
     54          1           0       -6.229283   -3.376537   -0.396289
     55          1           0       -3.904067   -2.605592   -0.320713
     56          1           0        4.413214    1.027320    1.863748
     57          1           0        6.888358    1.031776    1.892549
     58          1           0        6.934668   -1.027659   -1.889789
     59          1           0        4.460143   -1.064258   -1.899829
     60          1           0        4.511798    3.121142    0.383718
     61          1           0        4.441182    2.468634   -1.247309
     62          1           0        3.827631    4.095929   -0.919272
     63          1           0        1.357056    4.420861   -0.410890
     64          1           0       -1.855153    2.082905   -0.038113
     65          1           0       -0.876001    4.998764   -0.049872
     66          1           0       -3.899856    2.626995   -0.018771
     67          1           0       -6.210623    3.442618    0.022432
     68          1           0       -4.792821    7.515753    0.026690
     69          1           0       -2.464752    6.696988   -0.013036
 ---------------------------------------------------------------------
 Rotational constants (GHZ):           0.0639586           0.0375340           0.0240228
 Leave Link  202 at Sat Oct 25 06:08:51 2025, MaxMem= 30870077440 cpu:               0.2 elap:               0.0
 (Enter /public/software/gauss/g16/l301.exe)
 Standard basis: def2TZVPP (5D, 7F)
 Ernie: Thresh=  0.10000D-02 Tol=  0.10000D-05 Strict=F.
 There are  1980 symmetry adapted cartesian basis functions of A   symmetry.
 There are  1731 symmetry adapted basis functions of A   symmetry.
  1731 basis functions,  2703 primitive gaussians,  1980 cartesian basis functions
   155 alpha electrons      154 beta electrons
       nuclear repulsion energy      4712.4160459208 Hartrees.
 IExCor= 4336 DFT=T Ex+Corr=M062X ExCW=0 ScaHFX=  0.540000
 ScaDFX=  1.000000  1.000000  1.000000  1.000000 ScalE2=  1.000000  1.000000
 IRadAn=      5 IRanWt=     -1 IRanGd=            0 ICorTp=0 IEmpDi=131
 NAtoms=   69 NActive=   69 NUniq=   69 SFac= 1.00D+00 NAtFMM=   60 NAOKFM=T Big=T
 Integral buffers will be    131072 words long.
 Raffenetti 2 integral format.
 Two-electron integral symmetry is turned on.
 R6Disp:  Grimme-D3 Dispersion energy=       -0.0055726829 Hartrees.
 Nuclear repulsion after empirical dispersion term =     4712.4104732378 Hartrees.
 ------------------------------------------------------------------------------
 Polarizable Continuum Model (PCM)
 =================================
 Model                : PCM.
 Atomic radii         : UFF (Universal Force Field).
 Polarization charges : Total charges.
 Charge compensation  : None.
 Solution method      : On-the-fly selection.
 Cavity type          : Scaled VdW (van der Waals Surface) (Alpha=1.100).
 Cavity algorithm     : GePol (No added spheres)
                        Default sphere list used, NSphG=   69.
                        Lebedev-Laikov grids with approx.  5.0 points / Ang**2.
                        Smoothing algorithm: York/Karplus (Gamma=1.0000).
                        Polarization charges: spherical gaussians, with
                                              point-specific exponents (IZeta= 3).
                        Self-potential: point-specific (ISelfS= 7).
                        Self-field    : sphere-specific E.n sum rule (ISelfD= 2).
 Solvent              : Water, Eps=  78.355300 Eps(inf)=   1.777849
 ------------------------------------------------------------------------------
 GePol: Number of generator spheres                  =      69
 GePol: Total number of spheres                      =      69
 GePol: Number of exposed spheres                    =      69 (100.00%)
 GePol: Number of points                             =    5303
 GePol: Average weight of points                     =       0.13
 GePol: Minimum weight of points                     =   0.21D-10
 GePol: Maximum weight of points                     =    0.20577
 GePol: Number of points with low weight             =     336
 GePol: Fraction of low-weight points (<1% of avg)   =       6.34%
 GePol: Cavity surface area                          =    677.927 Ang**2
 GePol: Cavity volume                                =    778.498 Ang**3
 Leave Link  301 at Sat Oct 25 06:08:51 2025, MaxMem= 30870077440 cpu:               3.6 elap:               0.1
 (Enter /public/software/gauss/g16/l302.exe)
 NPDir=0 NMtPBC=     1 NCelOv=     1 NCel=       1 NClECP=     1 NCelD=      1
         NCelK=      1 NCelE2=     1 NClLst=     1 CellRange=     0.0.
 One-electron integrals computed using PRISM.
 One-electron integral symmetry used in STVInt
   1 Symmetry operations used in ECPInt.
 ECPInt:  NShTT=  204480 NPrTT=  597840 LenC2=  129762 LenP2D=  253108.
 LDataN:  DoStor=T MaxTD1= 6 Len=  172
 NBasis=  1731 RedAO= T EigKep=  5.17D-06  NBF=  1731
 NBsUse=  1731 1.00D-06 EigRej= -1.00D+00 NBFU=  1731
 Precomputing XC quadrature grid using
 IXCGrd= 4 IRadAn=           5 IRanWt=          -1 IRanGd=           0 AccXCQ= 0.00D+00.
 Generated NRdTot=       0 NPtTot=           0 NUsed=           0 NTot=          32
 NSgBfM=  1745  1745  1745  1745  1745 MxSgAt=    69 MxSgA2=    69.
 Leave Link  302 at Sat Oct 25 06:08:59 2025, MaxMem= 30870077440 cpu:             495.3 elap:               7.8
 (Enter /public/software/gauss/g16/l303.exe)
 DipDrv:  MaxL=1.
 Leave Link  303 at Sat Oct 25 06:08:59 2025, MaxMem= 30870077440 cpu:              24.2 elap:               0.4
 (Enter /public/software/gauss/g16/l401.exe)
 ExpMin= 6.06D-02 ExpMax= 3.55D+04 ExpMxC= 1.21D+03 IAcc=3 IRadAn=         5 AccDes= 0.00D+00
 Harris functional with IExCor= 1009 and IRadAn=       5 diagonalized for initial guess.
 HarFok:  IExCor= 1009 AccDes= 0.00D+00 IRadAn=         5 IDoV= 1 UseB2=F ITyADJ=14
 ICtDFT=  3500011 ScaDFX=  1.000000  1.000000  1.000000  1.000000
 FoFCou: FMM=F IPFlag=           0 FMFlag=      100000 FMFlg1=        2001
         NFxFlg=           0 DoJE=T BraDBF=F KetDBF=T FulRan=T
         wScrn=  0.000000 ICntrl=       500 IOpCl=  0 I1Cent=   200000004 NGrid=           0
         NMat0=    1 NMatS0=      1 NMatT0=    0 NMatD0=    1 NMtDS0=    0 NMtDT0=    0
 Petite list used in FoFCou.
 Harris En= -1996.14756680463    
 JPrj=0 DoOrth=F DoCkMO=F.
 Initial guess <Sx>= 0.0000 <Sy>= 0.0000 <Sz>= 0.5000 <S**2>= 0.7500 S= 0.5000
 Leave Link  401 at Sat Oct 25 06:09:09 2025, MaxMem= 30870077440 cpu:             606.6 elap:               9.6
 (Enter /public/software/gauss/g16/l502.exe)
 Integral symmetry usage will be decided dynamically.
 UHF open shell SCF:
 Using DIIS extrapolation, IDIIS=  1040.
 NGot= 30870077440 LenX= 30862093359 LenY= 30858170979
 Requested convergence on RMS density matrix=1.00D-08 within 128 cycles.
 Requested convergence on MAX density matrix=1.00D-06.
 Requested convergence on             energy=1.00D-06.
 No special actions if energy rises.
 Fock matrices will be formed incrementally for  20 cycles.

 Cycle   1  Pass 1  IDiag  1:
 FoFJK:  IHMeth= 1 ICntrl=       0 DoSepK=F KAlg= 0 I1Cent=           0 FoldK=F
 IRaf= 600000000 NMat=       1 IRICut=       1 DoRegI=T DoRafI=F ISym2E= 0 IDoP0=0 IntGTp=1.
 FoFCou: FMM=T IPFlag=           0 FMFlag=      100000 FMFlg1=        2001
         NFxFlg=           0 DoJE=F BraDBF=F KetDBF=F FulRan=T
         wScrn=  0.000000 ICntrl=         0 IOpCl=  1 I1Cent=           0 NGrid=           0
         NMat0=    1 NMatS0=      1 NMatT0=    0 NMatD0=    1 NMtDS0=    0 NMtDT0=    0
 Symmetry not used in FoFCou.
 FMM levels:  10  Number of levels for PrismC:   9
 Inv3:  Mode=1 IEnd=    84365427.
 Iteration    1 A*A^-1 deviation from unit magnitude is 1.51D-14 for    391.
 Iteration    1 A*A^-1 deviation from orthogonality  is 5.24D-15 for   4879    724.
 Iteration    1 A^-1*A deviation from unit magnitude is 1.49D-14 for    391.
 Iteration    1 A^-1*A deviation from orthogonality  is 5.04D-15 for   3348    798.
 E= -1996.09917669177    
 DIIS: error= 3.12D-02 at cycle   1 NSaved=   1.
 NSaved= 1 IEnMin= 1 EnMin= -1996.09917669177     IErMin= 1 ErrMin= 3.12D-02
 ErrMax= 3.12D-02  0.00D+00 EMaxC= 1.00D-01 BMatC= 5.41D+00 BMatP= 5.41D+00
 IDIUse=3 WtCom= 6.88D-01 WtEn= 3.12D-01
 Coeff-Com:  0.100D+01
 Coeff-En:   0.100D+01
 Coeff:      0.100D+01
 Gap=     0.118 Goal=   None    Shift=    0.000
 Gap=     0.124 Goal=   None    Shift=    0.000
 GapD=    0.118 DampG=1.000 DampE=0.500 DampFc=0.5000 IDamp=-1.
 Damping current iteration by 5.00D-01
 RMSDP=1.61D-03 MaxDP=2.98D-01              OVMax= 6.99D-01

 Cycle   2  Pass 1  IDiag  1:
 RMSU=  8.01D-04    CP:  9.86D-01
 E= -1996.58534556527     Delta-E=       -0.486168873509 Rises=F Damp=T
 DIIS: error= 7.38D-03 at cycle   2 NSaved=   2.
 NSaved= 2 IEnMin= 2 EnMin= -1996.58534556527     IErMin= 2 ErrMin= 7.38D-03
 ErrMax= 7.38D-03  0.00D+00 EMaxC= 1.00D-01 BMatC= 5.80D-01 BMatP= 5.41D+00
 IDIUse=3 WtCom= 9.26D-01 WtEn= 7.38D-02
 Coeff-Com: -0.621D-01 0.106D+01
 Coeff-En:   0.000D+00 0.100D+01
 Coeff:     -0.575D-01 0.106D+01
 Gap=     0.028 Goal=   None    Shift=    0.000
 Gap=     0.223 Goal=   None    Shift=    0.000
 RMSDP=7.09D-04 MaxDP=9.76D-02 DE=-4.86D-01 OVMax= 6.35D-01

 Cycle   3  Pass 1  IDiag  1:
 RMSU=  6.50D-04    CP:  9.77D-01  1.35D+00
 E= -1997.04232793796     Delta-E=       -0.456982372682 Rises=F Damp=F
 DIIS: error= 1.88D-02 at cycle   3 NSaved=   3.
 NSaved= 3 IEnMin= 3 EnMin= -1997.04232793796     IErMin= 2 ErrMin= 7.38D-03
 ErrMax= 1.88D-02  0.00D+00 EMaxC= 1.00D-01 BMatC= 4.35D-01 BMatP= 5.80D-01
 IDIUse=3 WtCom= 8.12D-01 WtEn= 1.88D-01
 Coeff-Com: -0.125D+00 0.539D+00 0.586D+00
 Coeff-En:   0.000D+00 0.000D+00 0.100D+01
 Coeff:     -0.101D+00 0.437D+00 0.664D+00
 Gap=     0.068 Goal=   None    Shift=    0.000
 Gap=     0.132 Goal=   None    Shift=    0.000
 RMSDP=2.68D-04 MaxDP=5.70D-02 DE=-4.57D-01 OVMax= 1.33D-01

 Cycle   4  Pass 1  IDiag  1:
 RMSU=  2.46D-04    CP:  9.71D-01  1.34D+00  8.40D-01
 E= -1997.11389434407     Delta-E=       -0.071566406114 Rises=F Damp=F
 DIIS: error= 7.62D-03 at cycle   4 NSaved=   4.
 NSaved= 4 IEnMin= 4 EnMin= -1997.11389434407     IErMin= 2 ErrMin= 7.38D-03
 ErrMax= 7.62D-03  0.00D+00 EMaxC= 1.00D-01 BMatC= 9.53D-02 BMatP= 4.35D-01
 IDIUse=3 WtCom= 9.24D-01 WtEn= 7.62D-02
 Coeff-Com: -0.297D-01 0.920D-01 0.348D+00 0.590D+00
 Coeff-En:   0.000D+00 0.000D+00 0.175D+00 0.825D+00
 Coeff:     -0.275D-01 0.850D-01 0.335D+00 0.608D+00
 Gap=     0.084 Goal=   None    Shift=    0.000
 Gap=     0.132 Goal=   None    Shift=    0.000
 RMSDP=1.19D-04 MaxDP=4.77D-02 DE=-7.16D-02 OVMax= 8.47D-02

 Cycle   5  Pass 1  IDiag  1:
 RMSU=  9.53D-05    CP:  9.72D-01  1.34D+00  9.06D-01  7.71D-01
 E= -1997.13321481254     Delta-E=       -0.019320468472 Rises=F Damp=F
 DIIS: error= 7.47D-04 at cycle   5 NSaved=   5.
 NSaved= 5 IEnMin= 5 EnMin= -1997.13321481254     IErMin= 5 ErrMin= 7.47D-04
 ErrMax= 7.47D-04  0.00D+00 EMaxC= 1.00D-01 BMatC= 5.77D-03 BMatP= 9.53D-02
 IDIUse=3 WtCom= 9.93D-01 WtEn= 7.47D-03
 Coeff-Com: -0.750D-02 0.133D-01 0.128D+00 0.312D+00 0.554D+00
 Coeff-En:   0.000D+00 0.000D+00 0.000D+00 0.000D+00 0.100D+01
 Coeff:     -0.744D-02 0.132D-01 0.127D+00 0.309D+00 0.558D+00
 Gap=     0.090 Goal=   None    Shift=    0.000
 Gap=     0.133 Goal=   None    Shift=    0.000
 RMSDP=4.49D-05 MaxDP=1.58D-02 DE=-1.93D-02 OVMax= 2.58D-02

 Cycle   6  Pass 1  IDiag  1:
 RMSU=  4.02D-05    CP:  9.71D-01  1.34D+00  8.98D-01  8.42D-01  9.31D-01
 E= -1997.13474556252     Delta-E=       -0.001530749978 Rises=F Damp=F
 DIIS: error= 5.11D-04 at cycle   6 NSaved=   6.
 NSaved= 6 IEnMin= 6 EnMin= -1997.13474556252     IErMin= 6 ErrMin= 5.11D-04
 ErrMax= 5.11D-04  0.00D+00 EMaxC= 1.00D-01 BMatC= 5.53D-04 BMatP= 5.77D-03
 IDIUse=3 WtCom= 9.95D-01 WtEn= 5.11D-03
 Coeff-Com:  0.252D-03-0.346D-02 0.585D-02 0.473D-01 0.237D+00 0.713D+00
 Coeff-En:   0.000D+00 0.000D+00 0.000D+00 0.000D+00 0.000D+00 0.100D+01
 Coeff:      0.251D-03-0.344D-02 0.582D-02 0.471D-01 0.236D+00 0.714D+00
 Gap=     0.094 Goal=   None    Shift=    0.000
 Gap=     0.134 Goal=   None    Shift=    0.000
 RMSDP=2.91D-05 MaxDP=1.29D-02 DE=-1.53D-03 OVMax= 2.63D-02

 Cycle   7  Pass 1  IDiag  1:
 RMSU=  1.65D-05    CP:  9.71D-01  1.34D+00  9.05D-01  8.45D-01  1.15D+00
                    CP:  1.24D+00
 E= -1997.13510659035     Delta-E=       -0.000361027825 Rises=F Damp=F
 DIIS: error= 1.85D-04 at cycle   7 NSaved=   7.
 NSaved= 7 IEnMin= 7 EnMin= -1997.13510659035     IErMin= 7 ErrMin= 1.85D-04
 ErrMax= 1.85D-04  0.00D+00 EMaxC= 1.00D-01 BMatC= 1.83D-04 BMatP= 5.53D-04
 IDIUse=3 WtCom= 9.98D-01 WtEn= 1.85D-03
 Coeff-Com:  0.204D-02-0.490D-02-0.355D-01-0.636D-01-0.262D-01 0.355D+00
 Coeff-Com:  0.773D+00
 Coeff-En:   0.000D+00 0.000D+00 0.000D+00 0.000D+00 0.000D+00 0.000D+00
 Coeff-En:   0.100D+01
 Coeff:      0.203D-02-0.489D-02-0.354D-01-0.634D-01-0.261D-01 0.354D+00
 Coeff:      0.774D+00
 Gap=     0.097 Goal=   None    Shift=    0.000
 Gap=     0.135 Goal=   None    Shift=    0.000
 RMSDP=2.49D-05 MaxDP=6.62D-03 DE=-3.61D-04 OVMax= 2.19D-02

 Cycle   8  Pass 1  IDiag  1:
 RMSU=  8.12D-06    CP:  9.71D-01  1.34D+00  9.06D-01  8.67D-01  1.31D+00
                    CP:  1.60D+00  1.59D+00
 E= -1997.13530431872     Delta-E=       -0.000197728377 Rises=F Damp=F
 DIIS: error= 1.45D-04 at cycle   8 NSaved=   8.
 NSaved= 8 IEnMin= 8 EnMin= -1997.13530431872     IErMin= 8 ErrMin= 1.45D-04
 ErrMax= 1.45D-04  0.00D+00 EMaxC= 1.00D-01 BMatC= 4.34D-05 BMatP= 1.83D-04
 IDIUse=3 WtCom= 9.99D-01 WtEn= 1.45D-03
 Coeff-Com: -0.810D-04 0.105D-02-0.106D-01-0.267D-01-0.677D-01-0.130D+00
 Coeff-Com:  0.159D+00 0.107D+01
 Coeff-En:   0.000D+00 0.000D+00 0.000D+00 0.000D+00 0.000D+00 0.000D+00
 Coeff-En:   0.000D+00 0.100D+01
 Coeff:     -0.809D-04 0.105D-02-0.106D-01-0.267D-01-0.676D-01-0.130D+00
 Coeff:      0.159D+00 0.107D+01
 Gap=     0.099 Goal=   None    Shift=    0.000
 Gap=     0.135 Goal=   None    Shift=    0.000
 RMSDP=2.14D-05 MaxDP=6.09D-03 DE=-1.98D-04 OVMax= 1.96D-02

 Cycle   9  Pass 1  IDiag  1:
 RMSU=  5.22D-06    CP:  9.71D-01  1.34D+00  9.07D-01  8.77D-01  1.42D+00
                    CP:  1.88D+00  2.30D+00  1.82D+00
 E= -1997.13540113936     Delta-E=       -0.000096820639 Rises=F Damp=F
 DIIS: error= 6.19D-05 at cycle   9 NSaved=   9.
 NSaved= 9 IEnMin= 9 EnMin= -1997.13540113936     IErMin= 9 ErrMin= 6.19D-05
 ErrMax= 6.19D-05  0.00D+00 EMaxC= 1.00D-01 BMatC= 1.78D-05 BMatP= 4.34D-05
 IDIUse=1 WtCom= 1.00D+00 WtEn= 0.00D+00
 Coeff-Com: -0.763D-03 0.212D-02 0.673D-02 0.108D-01-0.115D-01-0.159D+00
 Coeff-Com: -0.219D+00 0.461D+00 0.909D+00
 Coeff:     -0.763D-03 0.212D-02 0.673D-02 0.108D-01-0.115D-01-0.159D+00
 Coeff:     -0.219D+00 0.461D+00 0.909D+00
 Gap=     0.101 Goal=   None    Shift=    0.000
 Gap=     0.135 Goal=   None    Shift=    0.000
 RMSDP=1.35D-05 MaxDP=4.70D-03 DE=-9.68D-05 OVMax= 1.22D-02

 Cycle  10  Pass 1  IDiag  1:
 RMSU=  3.14D-06    CP:  9.71D-01  1.34D+00  9.08D-01  8.77D-01  1.49D+00
                    CP:  2.02D+00  2.79D+00  2.46D+00  1.57D+00
 E= -1997.13543326761     Delta-E=       -0.000032128249 Rises=F Damp=F
 DIIS: error= 3.17D-05 at cycle  10 NSaved=  10.
 NSaved=10 IEnMin=10 EnMin= -1997.13543326761     IErMin=10 ErrMin= 3.17D-05
 ErrMax= 3.17D-05  0.00D+00 EMaxC= 1.00D-01 BMatC= 6.81D-06 BMatP= 1.78D-05
 IDIUse=1 WtCom= 1.00D+00 WtEn= 0.00D+00
 Coeff-Com: -0.282D-03 0.509D-03 0.620D-02 0.136D-01 0.164D-01-0.400D-01
 Coeff-Com: -0.173D+00-0.865D-01 0.498D+00 0.765D+00
 Coeff:     -0.282D-03 0.509D-03 0.620D-02 0.136D-01 0.164D-01-0.400D-01
 Coeff:     -0.173D+00-0.865D-01 0.498D+00 0.765D+00
 Gap=     0.101 Goal=   None    Shift=    0.000
 Gap=     0.135 Goal=   None    Shift=    0.000
 RMSDP=6.35D-06 MaxDP=1.21D-03 DE=-3.21D-05 OVMax= 5.91D-03

 Cycle  11  Pass 1  IDiag  1:
 RMSU=  1.67D-06    CP:  9.71D-01  1.34D+00  9.08D-01  8.79D-01  1.51D+00
                    CP:  2.09D+00  2.97D+00  2.86D+00  1.99D+00  1.35D+00
 E= -1997.13544243790     Delta-E=       -0.000009170289 Rises=F Damp=F
 DIIS: error= 2.05D-05 at cycle  11 NSaved=  11.
 NSaved=11 IEnMin=11 EnMin= -1997.13544243790     IErMin=11 ErrMin= 2.05D-05
 ErrMax= 2.05D-05  0.00D+00 EMaxC= 1.00D-01 BMatC= 1.46D-06 BMatP= 6.81D-06
 IDIUse=1 WtCom= 1.00D+00 WtEn= 0.00D+00
 Coeff-Com:  0.846D-04-0.309D-03 0.434D-03 0.217D-02 0.106D-01 0.338D-01
 Coeff-Com: -0.677D-02-0.158D+00-0.603D-01 0.296D+00 0.882D+00
 Coeff:      0.846D-04-0.309D-03 0.434D-03 0.217D-02 0.106D-01 0.338D-01
 Coeff:     -0.677D-02-0.158D+00-0.603D-01 0.296D+00 0.882D+00
 Gap=     0.101 Goal=   None    Shift=    0.000
 Gap=     0.135 Goal=   None    Shift=    0.000
 RMSDP=3.04D-06 MaxDP=9.26D-04 DE=-9.17D-06 OVMax= 2.91D-03

 Cycle  12  Pass 1  IDiag  1:
 RMSU=  1.28D-06    CP:  9.71D-01  1.34D+00  9.08D-01  8.77D-01  1.52D+00
                    CP:  2.09D+00  3.00D+00  3.00D+00  2.23D+00  1.80D+00
                    CP:  1.44D+00
 E= -1997.13544518660     Delta-E=       -0.000002748700 Rises=F Damp=F
 DIIS: error= 1.28D-05 at cycle  12 NSaved=  12.
 NSaved=12 IEnMin=12 EnMin= -1997.13544518660     IErMin=12 ErrMin= 1.28D-05
 ErrMax= 1.28D-05  0.00D+00 EMaxC= 1.00D-01 BMatC= 4.28D-07 BMatP= 1.46D-06
 IDIUse=1 WtCom= 1.00D+00 WtEn= 0.00D+00
 Coeff-Com:  0.111D-03-0.262D-03-0.171D-02-0.323D-02-0.882D-03 0.215D-01
 Coeff-Com:  0.405D-01-0.208D-01-0.150D+00-0.139D+00 0.310D+00 0.943D+00
 Coeff:      0.111D-03-0.262D-03-0.171D-02-0.323D-02-0.882D-03 0.215D-01
 Coeff:      0.405D-01-0.208D-01-0.150D+00-0.139D+00 0.310D+00 0.943D+00
 Gap=     0.101 Goal=   None    Shift=    0.000
 Gap=     0.135 Goal=   None    Shift=    0.000
 RMSDP=1.77D-06 MaxDP=3.58D-04 DE=-2.75D-06 OVMax= 2.01D-03

 Cycle  13  Pass 1  IDiag  1:
 RMSU=  8.32D-07    CP:  9.71D-01  1.34D+00  9.08D-01  8.77D-01  1.52D+00
                    CP:  2.10D+00  3.00D+00  3.00D+00  2.36D+00  2.06D+00
                    CP:  1.89D+00  1.56D+00
 E= -1997.13544625219     Delta-E=       -0.000001065589 Rises=F Damp=F
 DIIS: error= 7.98D-06 at cycle  13 NSaved=  13.
 NSaved=13 IEnMin=13 EnMin= -1997.13544625219     IErMin=13 ErrMin= 7.98D-06
 ErrMax= 7.98D-06  0.00D+00 EMaxC= 1.00D-01 BMatC= 1.38D-07 BMatP= 4.28D-07
 IDIUse=1 WtCom= 1.00D+00 WtEn= 0.00D+00
 Coeff-Com: -0.409D-05 0.363D-04-0.546D-03-0.135D-02-0.259D-02-0.384D-02
 Coeff-Com:  0.986D-02 0.393D-01-0.202D-01-0.126D+00-0.163D+00 0.246D+00
 Coeff-Com:  0.102D+01
 Coeff:     -0.409D-05 0.363D-04-0.546D-03-0.135D-02-0.259D-02-0.384D-02
 Coeff:      0.986D-02 0.393D-01-0.202D-01-0.126D+00-0.163D+00 0.246D+00
 Coeff:      0.102D+01
 Gap=     0.101 Goal=   None    Shift=    0.000
 Gap=     0.135 Goal=   None    Shift=    0.000
 RMSDP=1.10D-06 MaxDP=2.93D-04 DE=-1.07D-06 OVMax= 1.21D-03

 Cycle  14  Pass 1  IDiag  1:
 RMSU=  2.88D-07    CP:  9.71D-01  1.34D+00  9.08D-01  8.77D-01  1.53D+00
                    CP:  2.10D+00  3.00D+00  3.00D+00  2.42D+00  2.22D+00
                    CP:  2.17D+00  1.98D+00  1.50D+00
 E= -1997.13544663728     Delta-E=       -0.000000385091 Rises=F Damp=F
 DIIS: error= 4.56D-06 at cycle  14 NSaved=  14.
 NSaved=14 IEnMin=14 EnMin= -1997.13544663728     IErMin=14 ErrMin= 4.56D-06
 ErrMax= 4.56D-06  0.00D+00 EMaxC= 1.00D-01 BMatC= 5.17D-08 BMatP= 1.38D-07
 IDIUse=1 WtCom= 1.00D+00 WtEn= 0.00D+00
 Coeff-Com: -0.515D-04 0.133D-03 0.461D-03 0.717D-03-0.733D-03-0.113D-01
 Coeff-Com: -0.137D-01 0.282D-01 0.529D-01-0.142D-03-0.201D+00-0.262D+00
 Coeff-Com:  0.443D+00 0.963D+00
 Coeff:     -0.515D-04 0.133D-03 0.461D-03 0.717D-03-0.733D-03-0.113D-01
 Coeff:     -0.137D-01 0.282D-01 0.529D-01-0.142D-03-0.201D+00-0.262D+00
 Coeff:      0.443D+00 0.963D+00
 Gap=     0.101 Goal=   None    Shift=    0.000
 Gap=     0.135 Goal=   None    Shift=    0.000
 RMSDP=7.06D-07 MaxDP=2.03D-04 DE=-3.85D-07 OVMax= 7.74D-04

 Cycle  15  Pass 1  IDiag  1:
 RMSU=  1.75D-07    CP:  9.71D-01  1.34D+00  9.08D-01  8.77D-01  1.53D+00
                    CP:  2.11D+00  3.00D+00  3.00D+00  2.45D+00  2.30D+00
                    CP:  2.32D+00  2.26D+00  1.83D+00  1.71D+00
 E= -1997.13544676883     Delta-E=       -0.000000131551 Rises=F Damp=F
 DIIS: error= 1.91D-06 at cycle  15 NSaved=  15.
 NSaved=15 IEnMin=15 EnMin= -1997.13544676883     IErMin=15 ErrMin= 1.91D-06
 ErrMax= 1.91D-06  0.00D+00 EMaxC= 1.00D-01 BMatC= 1.34D-08 BMatP= 5.17D-08
 IDIUse=1 WtCom= 1.00D+00 WtEn= 0.00D+00
 Coeff-Com: -0.136D-04 0.286D-04 0.311D-03 0.619D-03 0.573D-03-0.219D-02
 Coeff-Com: -0.719D-02-0.359D-02 0.207D-01 0.402D-01-0.892D-02-0.154D+00
 Coeff-Com: -0.197D+00 0.316D+00 0.995D+00
 Coeff:     -0.136D-04 0.286D-04 0.311D-03 0.619D-03 0.573D-03-0.219D-02
 Coeff:     -0.719D-02-0.359D-02 0.207D-01 0.402D-01-0.892D-02-0.154D+00
 Coeff:     -0.197D+00 0.316D+00 0.995D+00
 Gap=     0.101 Goal=   None    Shift=    0.000
 Gap=     0.135 Goal=   None    Shift=    0.000
 RMSDP=3.38D-07 MaxDP=1.13D-04 DE=-1.32D-07 OVMax= 3.05D-04

 Cycle  16  Pass 1  IDiag  1:
 RMSU=  8.48D-08    CP:  9.71D-01  1.34D+00  9.08D-01  8.77D-01  1.53D+00
                    CP:  2.11D+00  3.00D+00  3.00D+00  2.47D+00  2.34D+00
                    CP:  2.37D+00  2.39D+00  1.97D+00  2.23D+00  1.49D+00
 E= -1997.13544679546     Delta-E=       -0.000000026625 Rises=F Damp=F
 DIIS: error= 9.85D-07 at cycle  16 NSaved=  16.
 NSaved=16 IEnMin=16 EnMin= -1997.13544679546     IErMin=16 ErrMin= 9.85D-07
 ErrMax= 9.85D-07  0.00D+00 EMaxC= 1.00D-01 BMatC= 3.69D-09 BMatP= 1.34D-08
 IDIUse=1 WtCom= 1.00D+00 WtEn= 0.00D+00
 Coeff-Com:  0.682D-05-0.182D-04 0.280D-04 0.917D-04 0.382D-03 0.192D-02
 Coeff-Com:  0.603D-03-0.865D-02-0.438D-02 0.168D-01 0.450D-01-0.157D-02
 Coeff-Com: -0.179D+00-0.937D-01 0.382D+00 0.840D+00
 Coeff:      0.682D-05-0.182D-04 0.280D-04 0.917D-04 0.382D-03 0.192D-02
 Coeff:      0.603D-03-0.865D-02-0.438D-02 0.168D-01 0.450D-01-0.157D-02
 Coeff:     -0.179D+00-0.937D-01 0.382D+00 0.840D+00
 Gap=     0.101 Goal=   None    Shift=    0.000
 Gap=     0.135 Goal=   None    Shift=    0.000
 RMSDP=1.04D-07 MaxDP=2.47D-05 DE=-2.66D-08 OVMax= 5.88D-05

 Cycle  17  Pass 1  IDiag  1:
 RMSU=  3.65D-08    CP:  9.71D-01  1.34D+00  9.08D-01  8.77D-01  1.53D+00
                    CP:  2.11D+00  3.00D+00  3.00D+00  2.47D+00  2.34D+00
                    CP:  2.38D+00  2.41D+00  2.00D+00  2.43D+00  1.75D+00
                    CP:  1.49D+00
 E= -1997.13544679999     Delta-E=       -0.000000004536 Rises=F Damp=F
 DIIS: error= 5.29D-07 at cycle  17 NSaved=  17.
 NSaved=17 IEnMin=17 EnMin= -1997.13544679999     IErMin=17 ErrMin= 5.29D-07
 ErrMax= 5.29D-07  0.00D+00 EMaxC= 1.00D-01 BMatC= 1.07D-09 BMatP= 3.69D-09
 IDIUse=1 WtCom= 1.00D+00 WtEn= 0.00D+00
 Coeff-Com:  0.544D-05-0.131D-04-0.552D-04-0.105D-03-0.613D-04 0.109D-02
 Coeff-Com:  0.187D-02-0.223D-02-0.563D-02-0.438D-02 0.170D-01 0.375D-01
 Coeff-Com: -0.168D-02-0.120D+00-0.158D+00 0.320D+00 0.914D+00
 Coeff:      0.544D-05-0.131D-04-0.552D-04-0.105D-03-0.613D-04 0.109D-02
 Coeff:      0.187D-02-0.223D-02-0.563D-02-0.438D-02 0.170D-01 0.375D-01
 Coeff:     -0.168D-02-0.120D+00-0.158D+00 0.320D+00 0.914D+00
 Gap=     0.101 Goal=   None    Shift=    0.000
 Gap=     0.135 Goal=   None    Shift=    0.000
 RMSDP=5.93D-08 MaxDP=1.73D-05 DE=-4.54D-09 OVMax= 3.05D-05

 Cycle  18  Pass 1  IDiag  1:
 RMSU=  2.25D-08    CP:  9.71D-01  1.34D+00  9.08D-01  8.77D-01  1.53D+00
                    CP:  2.11D+00  3.00D+00  3.00D+00  2.47D+00  2.34D+00
                    CP:  2.38D+00  2.42D+00  1.99D+00  2.51D+00  1.88D+00
                    CP:  1.89D+00  1.55D+00
 E= -1997.13544680121     Delta-E=       -0.000000001218 Rises=F Damp=F
 DIIS: error= 2.80D-07 at cycle  18 NSaved=  18.
 NSaved=18 IEnMin=18 EnMin= -1997.13544680121     IErMin=18 ErrMin= 2.80D-07
 ErrMax= 2.80D-07  0.00D+00 EMaxC= 1.00D-01 BMatC= 2.84D-10 BMatP= 1.07D-09
 IDIUse=1 WtCom= 1.00D+00 WtEn= 0.00D+00
 Coeff-Com:  0.295D-07 0.267D-06-0.233D-04-0.569D-04-0.140D-03-0.131D-03
 Coeff-Com:  0.490D-03 0.149D-02-0.405D-03-0.575D-02-0.581D-02 0.132D-01
 Coeff-Com:  0.498D-01-0.162D-01-0.167D+00-0.113D+00 0.345D+00 0.899D+00
 Coeff:      0.295D-07 0.267D-06-0.233D-04-0.569D-04-0.140D-03-0.131D-03
 Coeff:      0.490D-03 0.149D-02-0.405D-03-0.575D-02-0.581D-02 0.132D-01
 Coeff:      0.498D-01-0.162D-01-0.167D+00-0.113D+00 0.345D+00 0.899D+00
 Gap=     0.101 Goal=   None    Shift=    0.000
 Gap=     0.135 Goal=   None    Shift=    0.000
 RMSDP=3.37D-08 MaxDP=4.70D-06 DE=-1.22D-09 OVMax= 3.84D-05

 Cycle  19  Pass 1  IDiag  1:
 RMSU=  1.19D-08    CP:  9.71D-01  1.34D+00  9.08D-01  8.77D-01  1.53D+00
                    CP:  2.11D+00  3.00D+00  3.00D+00  2.47D+00  2.34D+00
                    CP:  2.37D+00  2.41D+00  1.98D+00  2.54D+00  1.94D+00
                    CP:  2.08D+00  1.90D+00  1.36D+00
 E= -1997.13544680165     Delta-E=       -0.000000000445 Rises=F Damp=F
 DIIS: error= 1.05D-07 at cycle  19 NSaved=  19.
 NSaved=19 IEnMin=19 EnMin= -1997.13544680165     IErMin=19 ErrMin= 1.05D-07
 ErrMax= 1.05D-07  0.00D+00 EMaxC= 1.00D-01 BMatC= 6.24D-11 BMatP= 2.84D-10
 IDIUse=1 WtCom= 1.00D+00 WtEn= 0.00D+00
 Coeff-Com: -0.157D-05 0.393D-05 0.995D-05 0.112D-04-0.362D-04-0.335D-03
 Coeff-Com: -0.326D-03 0.105D-02 0.147D-02-0.582D-03-0.658D-02-0.594D-02
 Coeff-Com:  0.170D-01 0.265D-01-0.160D-01-0.115D+00-0.128D+00 0.289D+00
 Coeff-Com:  0.938D+00
 Coeff:     -0.157D-05 0.393D-05 0.995D-05 0.112D-04-0.362D-04-0.335D-03
 Coeff:     -0.326D-03 0.105D-02 0.147D-02-0.582D-03-0.658D-02-0.594D-02
 Coeff:      0.170D-01 0.265D-01-0.160D-01-0.115D+00-0.128D+00 0.289D+00
 Coeff:      0.938D+00
 Gap=     0.101 Goal=   None    Shift=    0.000
 Gap=     0.135 Goal=   None    Shift=    0.000
 RMSDP=1.68D-08 MaxDP=2.11D-06 DE=-4.45D-10 OVMax= 2.00D-05

 Cycle  20  Pass 1  IDiag  1:
 RMSU=  5.19D-09    CP:  9.71D-01  1.34D+00  9.08D-01  8.77D-01  1.53D+00
                    CP:  2.11D+00  3.00D+00  3.00D+00  2.47D+00  2.33D+00
                    CP:  2.37D+00  2.41D+00  1.98D+00  2.55D+00  1.96D+00
                    CP:  2.16D+00  2.07D+00  1.66D+00  1.45D+00
 E= -1997.13544680187     Delta-E=       -0.000000000211 Rises=F Damp=F
 DIIS: error= 5.40D-08 at cycle  20 NSaved=  20.
 NSaved=20 IEnMin=20 EnMin= -1997.13544680187     IErMin=20 ErrMin= 5.40D-08
 ErrMax= 5.40D-08  0.00D+00 EMaxC= 1.00D-01 BMatC= 1.75D-11 BMatP= 6.24D-11
 IDIUse=1 WtCom= 1.00D+00 WtEn= 0.00D+00
 Coeff-Com: -0.416D-06 0.921D-06 0.908D-05 0.160D-04 0.111D-04-0.120D-03
 Coeff-Com: -0.252D-03 0.110D-03 0.724D-03 0.101D-02-0.152D-02-0.534D-02
 Coeff-Com: -0.362D-02 0.152D-01 0.292D-01-0.222D-01-0.130D+00-0.644D-01
 Coeff-Com:  0.409D+00 0.772D+00
 Coeff:     -0.416D-06 0.921D-06 0.908D-05 0.160D-04 0.111D-04-0.120D-03
 Coeff:     -0.252D-03 0.110D-03 0.724D-03 0.101D-02-0.152D-02-0.534D-02
 Coeff:     -0.362D-02 0.152D-01 0.292D-01-0.222D-01-0.130D+00-0.644D-01
 Coeff:      0.409D+00 0.772D+00
 Gap=     0.101 Goal=   None    Shift=    0.000
 Gap=     0.135 Goal=   None    Shift=    0.000
 RMSDP=5.45D-09 MaxDP=7.05D-07 DE=-2.11D-10 OVMax= 5.69D-06

 Error on total polarization charges =  0.02627
 SCF Done:  E(UM062X) =  -1997.13544680     A.U. after   20 cycles
            NFock= 20  Conv=0.55D-08     -V/T= 2.0054
 <Sx>= 0.0000 <Sy>= 0.0000 <Sz>= 0.5000 <S**2>= 0.7970 S= 0.5232
 <L.S>= 0.000000000000E+00
 KE= 1.986413765278D+03 PE=-1.410601718085D+04 EE= 5.410057495532D+03
 Annihilation of the first spin contaminant:
 S**2 before annihilation     0.7970,   after     0.7517
 Leave Link  502 at Sat Oct 25 06:36:36 2025, MaxMem= 30870077440 cpu:          104151.0 elap:            1647.6
 (Enter /public/software/gauss/g16/l601.exe)
 Copying SCF densities to generalized density rwf, IOpCl= 1 IROHF=0.

 **********************************************************************

            Population analysis using the SCF density.

 **********************************************************************

 Orbital symmetries:
 Alpha Orbitals:
       Occupied  (A) (A) (A) (A) (A) (A) (A) (A) (A) (A) (A) (A)
                 (A) (A) (A) (A) (A) (A) (A) (A) (A) (A) (A) (A)
                 (A) (A) (A) (A) (A) (A) (A) (A) (A) (A) (A) (A)
                 (A) (A) (A) (A) (A) (A) (A) (A) (A) (A) (A) (A)
                 (A) (A) (A) (A) (A) (A) (A) (A) (A) (A) (A) (A)
                 (A) (A) (A) (A) (A) (A) (A) (A) (A) (A) (A) (A)
                 (A) (A) (A) (A) (A) (A) (A) (A) (A) (A) (A) (A)
                 (A) (A) (A) (A) (A) (A) (A) (A) (A) (A) (A) (A)
                 (A) (A) (A) (A) (A) (A) (A) (A) (A) (A) (A) (A)
                 (A) (A) (A) (A) (A) (A) (A) (A) (A) (A) (A) (A)
                 (A) (A) (A) (A) (A) (A) (A) (A) (A) (A) (A) (A)
                 (A) (A) (A) (A) (A) (A) (A) (A) (A) (A) (A) (A)
                 (A) (A) (A) (A) (A) (A) (A) (A) (A) (A) (A)
       Virtual   (A) (A) (A) (A) (A) (A) (A) (A) (A) (A) (A) (A)
                 (A) (A) (A) (A) (A) (A) (A) (A) (A) (A) (A) (A)
                 (A) (A) (A) (A) (A) (A) (A) (A) (A) (A) (A) (A)
                 (A) (A) (A) (A) (A) (A) (A) (A) (A) (A) (A) (A)
                 (A) (A) (A) (A) (A) (A) (A) (A) (A) (A) (A) (A)
                 (A) (A) (A) (A) (A) (A) (A) (A) (A) (A) (A) (A)
                 (A) (A) (A) (A) (A) (A) (A) (A) (A) (A) (A) (A)
                 (A) (A) (A) (A) (A) (A) (A) (A) (A) (A) (A) (A)
                 (A) (A) (A) (A) (A) (A) (A) (A) (A) (A) (A) (A)
                 (A) (A) (A) (A) (A) (A) (A) (A) (A) (A) (A) (A)
                 (A) (A) (A) (A) (A) (A) (A) (A) (A) (A) (A) (A)
                 (A) (A) (A) (A) (A) (A) (A) (A) (A) (A) (A) (A)
                 (A) (A) (A) (A) (A) (A) (A) (A) (A) (A) (A) (A)
                 (A) (A) (A) (A) (A) (A) (A) (A) (A) (A) (A) (A)
                 (A) (A) (A) (A) (A) (A) (A) (A) (A) (A) (A) (A)
                 (A) (A) (A) (A) (A) (A) (A) (A) (A) (A) (A) (A)
                 (A) (A) (A) (A) (A) (A) (A) (A) (A) (A) (A) (A)
                 (A) (A) (A) (A) (A) (A) (A) (A) (A) (A) (A) (A)
                 (A) (A) (A) (A) (A) (A) (A) (A) (A) (A) (A) (A)
                 (A) (A) (A) (A) (A) (A) (A) (A) (A) (A) (A) (A)
                 (A) (A) (A) (A) (A) (A) (A) (A) (A) (A) (A) (A)
                 (A) (A) (A) (A) (A) (A) (A) (A) (A) (A) (A) (A)
                 (A) (A) (A) (A) (A) (A) (A) (A) (A) (A) (A) (A)
                 (A) (A) (A) (A) (A) (A) (A) (A) (A) (A) (A) (A)
                 (A) (A) (A) (A) (A) (A) (A) (A) (A) (A) (A) (A)
                 (A) (A) (A) (A) (A) (A) (A) (A) (A) (A) (A) (A)
                 (A) (A) (A) (A) (A) (A) (A) (A) (A) (A) (A) (A)
                 (A) (A) (A) (A) (A) (A) (A) (A) (A) (A) (A) (A)
                 (A) (A) (A) (A) (A) (A) (A) (A) (A) (A) (A) (A)
                 (A) (A) (A) (A) (A) (A) (A) (A) (A) (A) (A) (A)
                 (A) (A) (A) (A) (A) (A) (A) (A) (A) (A) (A) (A)
                 (A) (A) (A) (A) (A) (A) (A) (A) (A) (A) (A) (A)
                 (A) (A) (A) (A) (A) (A) (A) (A) (A) (A) (A) (A)
                 (A) (A) (A) (A) (A) (A) (A) (A) (A) (A) (A) (A)
                 (A) (A) (A) (A) (A) (A) (A) (A) (A) (A) (A) (A)
                 (A) (A) (A) (A) (A) (A) (A) (A) (A) (A) (A) (A)
                 (A) (A) (A) (A) (A) (A) (A) (A) (A) (A) (A) (A)
                 (A) (A) (A) (A) (A) (A) (A) (A) (A) (A) (A) (A)
                 (A) (A) (A) (A) (A) (A) (A) (A) (A) (A) (A) (A)
                 (A) (A) (A) (A) (A) (A) (A) (A) (A) (A) (A) (A)
                 (A) (A) (A) (A) (A) (A) (A) (A) (A) (A) (A) (A)
                 (A) (A) (A) (A) (A) (A) (A) (A) (A) (A) (A) (A)
                 (A) (A) (A) (A) (A) (A) (A) (A) (A) (A) (A) (A)
                 (A) (A) (A) (A) (A) (A) (A) (A) (A) (A) (A) (A)
                 (A) (A) (A) (A) (A) (A) (A) (A) (A) (A) (A) (A)
                 (A) (A) (A) (A) (A) (A) (A) (A) (A) (A) (A) (A)
                 (A) (A) (A) (A) (A) (A) (A) (A) (A) (A) (A) (A)
                 (A) (A) (A) (A) (A) (A) (A) (A) (A) (A) (A) (A)
                 (A) (A) (A) (A) (A) (A) (A) (A) (A) (A) (A) (A)
                 (A) (A) (A) (A) (A) (A) (A) (A) (A) (A) (A) (A)
                 (A) (A) (A) (A) (A) (A) (A) (A) (A) (A) (A) (A)
                 (A) (A) (A) (A) (A) (A) (A) (A) (A) (A) (A) (A)
                 (A) (A) (A) (A) (A) (A) (A) (A) (A) (A) (A) (A)
                 (A) (A) (A) (A) (A) (A) (A) (A) (A) (A) (A) (A)
                 (A) (A) (A) (A) (A) (A) (A) (A) (A) (A) (A) (A)
                 (A) (A) (A) (A) (A) (A) (A) (A) (A) (A) (A) (A)
                 (A) (A) (A) (A) (A) (A) (A) (A) (A) (A) (A) (A)
                 (A) (A) (A) (A) (A) (A) (A) (A) (A) (A) (A) (A)
                 (A) (A) (A) (A) (A) (A) (A) (A) (A) (A) (A) (A)
                 (A) (A) (A) (A) (A) (A) (A) (A) (A) (A) (A) (A)
                 (A) (A) (A) (A) (A) (A) (A) (A) (A) (A) (A) (A)
                 (A) (A) (A) (A) (A) (A) (A) (A) (A) (A) (A) (A)
                 (A) (A) (A) (A) (A) (A) (A) (A) (A) (A) (A) (A)
                 (A) (A) (A) (A) (A) (A) (A) (A) (A) (A) (A) (A)
                 (A) (A) (A) (A) (A) (A) (A) (A) (A) (A) (A) (A)
                 (A) (A) (A) (A) (A) (A) (A) (A) (A) (A) (A) (A)
                 (A) (A) (A) (A) (A) (A) (A) (A) (A) (A) (A) (A)
                 (A) (A) (A) (A) (A) (A) (A) (A) (A) (A) (A) (A)
                 (A) (A) (A) (A) (A) (A) (A) (A) (A) (A) (A) (A)
                 (A) (A) (A) (A) (A) (A) (A) (A) (A) (A) (A) (A)
                 (A) (A) (A) (A) (A) (A) (A) (A) (A) (A) (A) (A)
                 (A) (A) (A) (A) (A) (A) (A) (A) (A) (A) (A) (A)
                 (A) (A) (A) (A) (A) (A) (A) (A) (A) (A) (A) (A)
                 (A) (A) (A) (A) (A) (A) (A) (A) (A) (A) (A) (A)
                 (A) (A) (A) (A) (A) (A) (A) (A) (A) (A) (A) (A)
                 (A) (A) (A) (A) (A) (A) (A) (A) (A) (A) (A) (A)
                 (A) (A) (A) (A) (A) (A) (A) (A) (A) (A) (A) (A)
                 (A) (A) (A) (A) (A) (A) (A) (A) (A) (A) (A) (A)
                 (A) (A) (A) (A) (A) (A) (A) (A) (A) (A) (A) (A)
                 (A) (A) (A) (A) (A) (A) (A) (A) (A) (A) (A) (A)
                 (A) (A) (A) (A) (A) (A) (A) (A) (A) (A) (A) (A)
                 (A) (A) (A) (A) (A) (A) (A) (A) (A) (A) (A) (A)
                 (A) (A) (A) (A) (A) (A) (A) (A) (A) (A) (A) (A)
                 (A) (A) (A) (A) (A) (A) (A) (A) (A) (A) (A) (A)
                 (A) (A) (A) (A) (A) (A) (A) (A) (A) (A) (A) (A)
                 (A) (A) (A) (A) (A) (A) (A) (A) (A) (A) (A) (A)
                 (A) (A) (A) (A) (A) (A) (A) (A) (A) (A) (A) (A)
                 (A) (A) (A) (A) (A) (A) (A) (A) (A) (A) (A) (A)
                 (A) (A) (A) (A) (A) (A) (A) (A) (A) (A) (A) (A)
                 (A) (A) (A) (A) (A) (A) (A) (A) (A) (A) (A) (A)
                 (A) (A) (A) (A) (A) (A) (A) (A) (A) (A) (A) (A)
                 (A) (A) (A) (A) (A) (A) (A) (A) (A) (A) (A) (A)
                 (A) (A) (A) (A) (A) (A) (A) (A) (A) (A) (A) (A)
                 (A) (A) (A) (A) (A) (A) (A) (A) (A) (A) (A) (A)
                 (A) (A) (A) (A) (A) (A) (A) (A) (A) (A) (A) (A)
                 (A) (A) (A) (A) (A) (A) (A) (A) (A) (A) (A) (A)
                 (A) (A) (A) (A) (A) (A) (A) (A) (A) (A) (A) (A)
                 (A) (A) (A) (A) (A) (A) (A) (A) (A) (A) (A) (A)
                 (A) (A) (A) (A) (A) (A) (A) (A) (A) (A) (A) (A)
                 (A) (A) (A) (A) (A) (A) (A) (A) (A) (A) (A) (A)
                 (A) (A) (A) (A) (A) (A) (A) (A) (A) (A) (A) (A)
                 (A) (A) (A) (A) (A) (A) (A) (A) (A) (A) (A) (A)
                 (A) (A) (A) (A) (A) (A) (A) (A) (A) (A) (A) (A)
                 (A) (A) (A) (A) (A) (A) (A) (A) (A) (A) (A) (A)
                 (A) (A) (A) (A) (A) (A) (A) (A) (A) (A) (A) (A)
                 (A) (A) (A) (A) (A) (A) (A) (A) (A) (A) (A) (A)
                 (A) (A) (A) (A) (A) (A) (A) (A) (A) (A) (A) (A)
                 (A) (A) (A) (A) (A) (A) (A) (A) (A) (A) (A) (A)
                 (A) (A) (A) (A) (A) (A) (A) (A) (A) (A) (A) (A)
                 (A) (A) (A) (A) (A) (A) (A) (A) (A) (A) (A) (A)
                 (A) (A) (A) (A) (A) (A) (A) (A) (A) (A) (A) (A)
                 (A) (A) (A) (A) (A) (A) (A) (A) (A) (A) (A) (A)
                 (A) (A) (A) (A) (A) (A) (A) (A) (A) (A) (A) (A)
                 (A) (A) (A) (A) (A) (A) (A) (A) (A) (A) (A) (A)
                 (A) (A) (A) (A) (A) (A) (A) (A) (A) (A) (A) (A)
                 (A) (A) (A) (A) (A) (A) (A) (A) (A) (A) (A) (A)
                 (A) (A) (A) (A) (A) (A) (A) (A) (A) (A) (A) (A)
                 (A) (A) (A) (A) (A) (A) (A) (A) (A) (A) (A) (A)
                 (A) (A) (A) (A) (A) (A) (A) (A) (A) (A) (A) (A)
                 (A) (A) (A) (A) (A) (A) (A) (A) (A) (A) (A) (A)
                 (A) (A) (A) (A) (A) (A) (A) (A) (A) (A) (A) (A)
                 (A) (A) (A) (A) (A) (A) (A) (A) (A) (A) (A) (A)
                 (A) (A) (A) (A) (A) (A) (A) (A) (A) (A) (A) (A)
                 (A) (A) (A) (A) (A) (A) (A) (A) (A) (A) (A) (A)
                 (A) (A) (A) (A) (A) (A) (A) (A) (A) (A) (A) (A)
                 (A) (A) (A) (A) (A) (A) (A) (A) (A) (A) (A) (A)
                 (A) (A) (A) (A) (A) (A) (A) (A) (A) (A) (A) (A)
                 (A) (A) (A) (A) (A) (A) (A) (A) (A) (A) (A) (A)
                 (A) (A) (A) (A) (A) (A) (A) (A) (A) (A) (A) (A)
                 (A) (A) (A) (A) (A) (A) (A) (A) (A) (A) (A) (A)
                 (A) (A) (A) (A) (A) (A) (A) (A) (A) (A) (A) (A)
                 (A) (A) (A) (A)
 Beta  Orbitals:
       Occupied  (A) (A) (A) (A) (A) (A) (A) (A) (A) (A) (A) (A)
                 (A) (A) (A) (A) (A) (A) (A) (A) (A) (A) (A) (A)
                 (A) (A) (A) (A) (A) (A) (A) (A) (A) (A) (A) (A)
                 (A) (A) (A) (A) (A) (A) (A) (A) (A) (A) (A) (A)
                 (A) (A) (A) (A) (A) (A) (A) (A) (A) (A) (A) (A)
                 (A) (A) (A) (A) (A) (A) (A) (A) (A) (A) (A) (A)
                 (A) (A) (A) (A) (A) (A) (A) (A) (A) (A) (A) (A)
                 (A) (A) (A) (A) (A) (A) (A) (A) (A) (A) (A) (A)
                 (A) (A) (A) (A) (A) (A) (A) (A) (A) (A) (A) (A)
                 (A) (A) (A) (A) (A) (A) (A) (A) (A) (A) (A) (A)
                 (A) (A) (A) (A) (A) (A) (A) (A) (A) (A) (A) (A)
                 (A) (A) (A) (A) (A) (A) (A) (A) (A) (A) (A) (A)
                 (A) (A) (A) (A) (A) (A) (A) (A) (A) (A)
       Virtual   (A) (A) (A) (A) (A) (A) (A) (A) (A) (A) (A) (A)
                 (A) (A) (A) (A) (A) (A) (A) (A) (A) (A) (A) (A)
                 (A) (A) (A) (A) (A) (A) (A) (A) (A) (A) (A) (A)
                 (A) (A) (A) (A) (A) (A) (A) (A) (A) (A) (A) (A)
                 (A) (A) (A) (A) (A) (A) (A) (A) (A) (A) (A) (A)
                 (A) (A) (A) (A) (A) (A) (A) (A) (A) (A) (A) (A)
                 (A) (A) (A) (A) (A) (A) (A) (A) (A) (A) (A) (A)
                 (A) (A) (A) (A) (A) (A) (A) (A) (A) (A) (A) (A)
                 (A) (A) (A) (A) (A) (A) (A) (A) (A) (A) (A) (A)
                 (A) (A) (A) (A) (A) (A) (A) (A) (A) (A) (A) (A)
                 (A) (A) (A) (A) (A) (A) (A) (A) (A) (A) (A) (A)
                 (A) (A) (A) (A) (A) (A) (A) (A) (A) (A) (A) (A)
                 (A) (A) (A) (A) (A) (A) (A) (A) (A) (A) (A) (A)
                 (A) (A) (A) (A) (A) (A) (A) (A) (A) (A) (A) (A)
                 (A) (A) (A) (A) (A) (A) (A) (A) (A) (A) (A) (A)
                 (A) (A) (A) (A) (A) (A) (A) (A) (A) (A) (A) (A)
                 (A) (A) (A) (A) (A) (A) (A) (A) (A) (A) (A) (A)
                 (A) (A) (A) (A) (A) (A) (A) (A) (A) (A) (A) (A)
                 (A) (A) (A) (A) (A) (A) (A) (A) (A) (A) (A) (A)
                 (A) (A) (A) (A) (A) (A) (A) (A) (A) (A) (A) (A)
                 (A) (A) (A) (A) (A) (A) (A) (A) (A) (A) (A) (A)
                 (A) (A) (A) (A) (A) (A) (A) (A) (A) (A) (A) (A)
                 (A) (A) (A) (A) (A) (A) (A) (A) (A) (A) (A) (A)
                 (A) (A) (A) (A) (A) (A) (A) (A) (A) (A) (A) (A)
                 (A) (A) (A) (A) (A) (A) (A) (A) (A) (A) (A) (A)
                 (A) (A) (A) (A) (A) (A) (A) (A) (A) (A) (A) (A)
                 (A) (A) (A) (A) (A) (A) (A) (A) (A) (A) (A) (A)
                 (A) (A) (A) (A) (A) (A) (A) (A) (A) (A) (A) (A)
                 (A) (A) (A) (A) (A) (A) (A) (A) (A) (A) (A) (A)
                 (A) (A) (A) (A) (A) (A) (A) (A) (A) (A) (A) (A)
                 (A) (A) (A) (A) (A) (A) (A) (A) (A) (A) (A) (A)
                 (A) (A) (A) (A) (A) (A) (A) (A) (A) (A) (A) (A)
                 (A) (A) (A) (A) (A) (A) (A) (A) (A) (A) (A) (A)
                 (A) (A) (A) (A) (A) (A) (A) (A) (A) (A) (A) (A)
                 (A) (A) (A) (A) (A) (A) (A) (A) (A) (A) (A) (A)
                 (A) (A) (A) (A) (A) (A) (A) (A) (A) (A) (A) (A)
                 (A) (A) (A) (A) (A) (A) (A) (A) (A) (A) (A) (A)
                 (A) (A) (A) (A) (A) (A) (A) (A) (A) (A) (A) (A)
                 (A) (A) (A) (A) (A) (A) (A) (A) (A) (A) (A) (A)
                 (A) (A) (A) (A) (A) (A) (A) (A) (A) (A) (A) (A)
                 (A) (A) (A) (A) (A) (A) (A) (A) (A) (A) (A) (A)
                 (A) (A) (A) (A) (A) (A) (A) (A) (A) (A) (A) (A)
                 (A) (A) (A) (A) (A) (A) (A) (A) (A) (A) (A) (A)
                 (A) (A) (A) (A) (A) (A) (A) (A) (A) (A) (A) (A)
                 (A) (A) (A) (A) (A) (A) (A) (A) (A) (A) (A) (A)
                 (A) (A) (A) (A) (A) (A) (A) (A) (A) (A) (A) (A)
                 (A) (A) (A) (A) (A) (A) (A) (A) (A) (A) (A) (A)
                 (A) (A) (A) (A) (A) (A) (A) (A) (A) (A) (A) (A)
                 (A) (A) (A) (A) (A) (A) (A) (A) (A) (A) (A) (A)
                 (A) (A) (A) (A) (A) (A) (A) (A) (A) (A) (A) (A)
                 (A) (A) (A) (A) (A) (A) (A) (A) (A) (A) (A) (A)
                 (A) (A) (A) (A) (A) (A) (A) (A) (A) (A) (A) (A)
                 (A) (A) (A) (A) (A) (A) (A) (A) (A) (A) (A) (A)
                 (A) (A) (A) (A) (A) (A) (A) (A) (A) (A) (A) (A)
                 (A) (A) (A) (A) (A) (A) (A) (A) (A) (A) (A) (A)
                 (A) (A) (A) (A) (A) (A) (A) (A) (A) (A) (A) (A)
                 (A) (A) (A) (A) (A) (A) (A) (A) (A) (A) (A) (A)
                 (A) (A) (A) (A) (A) (A) (A) (A) (A) (A) (A) (A)
                 (A) (A) (A) (A) (A) (A) (A) (A) (A) (A) (A) (A)
                 (A) (A) (A) (A) (A) (A) (A) (A) (A) (A) (A) (A)
                 (A) (A) (A) (A) (A) (A) (A) (A) (A) (A) (A) (A)
                 (A) (A) (A) (A) (A) (A) (A) (A) (A) (A) (A) (A)
                 (A) (A) (A) (A) (A) (A) (A) (A) (A) (A) (A) (A)
                 (A) (A) (A) (A) (A) (A) (A) (A) (A) (A) (A) (A)
                 (A) (A) (A) (A) (A) (A) (A) (A) (A) (A) (A) (A)
                 (A) (A) (A) (A) (A) (A) (A) (A) (A) (A) (A) (A)
                 (A) (A) (A) (A) (A) (A) (A) (A) (A) (A) (A) (A)
                 (A) (A) (A) (A) (A) (A) (A) (A) (A) (A) (A) (A)
                 (A) (A) (A) (A) (A) (A) (A) (A) (A) (A) (A) (A)
                 (A) (A) (A) (A) (A) (A) (A) (A) (A) (A) (A) (A)
                 (A) (A) (A) (A) (A) (A) (A) (A) (A) (A) (A) (A)
                 (A) (A) (A) (A) (A) (A) (A) (A) (A) (A) (A) (A)
                 (A) (A) (A) (A) (A) (A) (A) (A) (A) (A) (A) (A)
                 (A) (A) (A) (A) (A) (A) (A) (A) (A) (A) (A) (A)
                 (A) (A) (A) (A) (A) (A) (A) (A) (A) (A) (A) (A)
                 (A) (A) (A) (A) (A) (A) (A) (A) (A) (A) (A) (A)
                 (A) (A) (A) (A) (A) (A) (A) (A) (A) (A) (A) (A)
                 (A) (A) (A) (A) (A) (A) (A) (A) (A) (A) (A) (A)
                 (A) (A) (A) (A) (A) (A) (A) (A) (A) (A) (A) (A)
                 (A) (A) (A) (A) (A) (A) (A) (A) (A) (A) (A) (A)
                 (A) (A) (A) (A) (A) (A) (A) (A) (A) (A) (A) (A)
                 (A) (A) (A) (A) (A) (A) (A) (A) (A) (A) (A) (A)
                 (A) (A) (A) (A) (A) (A) (A) (A) (A) (A) (A) (A)
                 (A) (A) (A) (A) (A) (A) (A) (A) (A) (A) (A) (A)
                 (A) (A) (A) (A) (A) (A) (A) (A) (A) (A) (A) (A)
                 (A) (A) (A) (A) (A) (A) (A) (A) (A) (A) (A) (A)
                 (A) (A) (A) (A) (A) (A) (A) (A) (A) (A) (A) (A)
                 (A) (A) (A) (A) (A) (A) (A) (A) (A) (A) (A) (A)
                 (A) (A) (A) (A) (A) (A) (A) (A) (A) (A) (A) (A)
                 (A) (A) (A) (A) (A) (A) (A) (A) (A) (A) (A) (A)
                 (A) (A) (A) (A) (A) (A) (A) (A) (A) (A) (A) (A)
                 (A) (A) (A) (A) (A) (A) (A) (A) (A) (A) (A) (A)
                 (A) (A) (A) (A) (A) (A) (A) (A) (A) (A) (A) (A)
                 (A) (A) (A) (A) (A) (A) (A) (A) (A) (A) (A) (A)
                 (A) (A) (A) (A) (A) (A) (A) (A) (A) (A) (A) (A)
                 (A) (A) (A) (A) (A) (A) (A) (A) (A) (A) (A) (A)
                 (A) (A) (A) (A) (A) (A) (A) (A) (A) (A) (A) (A)
                 (A) (A) (A) (A) (A) (A) (A) (A) (A) (A) (A) (A)
                 (A) (A) (A) (A) (A) (A) (A) (A) (A) (A) (A) (A)
                 (A) (A) (A) (A) (A) (A) (A) (A) (A) (A) (A) (A)
                 (A) (A) (A) (A) (A) (A) (A) (A) (A) (A) (A) (A)
                 (A) (A) (A) (A) (A) (A) (A) (A) (A) (A) (A) (A)
                 (A) (A) (A) (A) (A) (A) (A) (A) (A) (A) (A) (A)
                 (A) (A) (A) (A) (A) (A) (A) (A) (A) (A) (A) (A)
                 (A) (A) (A) (A) (A) (A) (A) (A) (A) (A) (A) (A)
                 (A) (A) (A) (A) (A) (A) (A) (A) (A) (A) (A) (A)
                 (A) (A) (A) (A) (A) (A) (A) (A) (A) (A) (A) (A)
                 (A) (A) (A) (A) (A) (A) (A) (A) (A) (A) (A) (A)
                 (A) (A) (A) (A) (A) (A) (A) (A) (A) (A) (A) (A)
                 (A) (A) (A) (A) (A) (A) (A) (A) (A) (A) (A) (A)
                 (A) (A) (A) (A) (A) (A) (A) (A) (A) (A) (A) (A)
                 (A) (A) (A) (A) (A) (A) (A) (A) (A) (A) (A) (A)
                 (A) (A) (A) (A) (A) (A) (A) (A) (A) (A) (A) (A)
                 (A) (A) (A) (A) (A) (A) (A) (A) (A) (A) (A) (A)
                 (A) (A) (A) (A) (A) (A) (A) (A) (A) (A) (A) (A)
                 (A) (A) (A) (A) (A) (A) (A) (A) (A) (A) (A) (A)
                 (A) (A) (A) (A) (A) (A) (A) (A) (A) (A) (A) (A)
                 (A) (A) (A) (A) (A) (A) (A) (A) (A) (A) (A) (A)
                 (A) (A) (A) (A) (A) (A) (A) (A) (A) (A) (A) (A)
                 (A) (A) (A) (A) (A) (A) (A) (A) (A) (A) (A) (A)
                 (A) (A) (A) (A) (A) (A) (A) (A) (A) (A) (A) (A)
                 (A) (A) (A) (A) (A) (A) (A) (A) (A) (A) (A) (A)
                 (A) (A) (A) (A) (A) (A) (A) (A) (A) (A) (A) (A)
                 (A) (A) (A) (A) (A) (A) (A) (A) (A) (A) (A) (A)
                 (A) (A) (A) (A) (A) (A) (A) (A) (A) (A) (A) (A)
                 (A) (A) (A) (A) (A) (A) (A) (A) (A) (A) (A) (A)
                 (A) (A) (A) (A) (A) (A) (A) (A) (A) (A) (A) (A)
                 (A) (A) (A) (A) (A) (A) (A) (A) (A) (A) (A) (A)
                 (A) (A) (A) (A) (A) (A) (A) (A) (A) (A) (A) (A)
                 (A) (A) (A) (A) (A) (A) (A) (A) (A) (A) (A) (A)
                 (A) (A) (A) (A) (A) (A) (A) (A) (A) (A) (A) (A)
                 (A) (A) (A) (A) (A)
 The electronic state is 2-A.
 Alpha  occ. eigenvalues --  -25.19546 -25.19332 -19.67065 -19.67063 -15.00530
 Alpha  occ. eigenvalues --  -14.76463 -14.76398 -14.76393 -14.76300 -10.61027
 Alpha  occ. eigenvalues --  -10.59342 -10.59337 -10.58724 -10.58718 -10.58027
 Alpha  occ. eigenvalues --  -10.57755 -10.57708 -10.57406 -10.57371 -10.57347
 Alpha  occ. eigenvalues --  -10.57340 -10.57293 -10.57291 -10.56853 -10.56846
 Alpha  occ. eigenvalues --  -10.56837 -10.56833 -10.56330 -10.56289 -10.56279
 Alpha  occ. eigenvalues --  -10.55717 -10.55710 -10.55647 -10.55645 -10.55450
 Alpha  occ. eigenvalues --  -10.55414 -10.54763 -10.54756 -10.54716 -10.54635
 Alpha  occ. eigenvalues --  -10.53231 -10.53197 -10.53026 -10.52960  -7.11644
 Alpha  occ. eigenvalues --   -1.35234  -1.31272  -1.28010  -1.16811  -1.08576
 Alpha  occ. eigenvalues --   -1.06604  -1.02437  -1.02434  -1.00053  -0.98222
 Alpha  occ. eigenvalues --   -0.98214  -0.94062  -0.91804  -0.91634  -0.89547
 Alpha  occ. eigenvalues --   -0.88879  -0.88798  -0.86920  -0.86711  -0.86285
 Alpha  occ. eigenvalues --   -0.86213  -0.85330  -0.80732  -0.80471  -0.79142
 Alpha  occ. eigenvalues --   -0.78196  -0.76232  -0.74088  -0.71590  -0.71407
 Alpha  occ. eigenvalues --   -0.71007  -0.70787  -0.68625  -0.68203  -0.67515
 Alpha  occ. eigenvalues --   -0.65303  -0.65189  -0.63881  -0.63826  -0.63294
 Alpha  occ. eigenvalues --   -0.63273  -0.62337  -0.61272  -0.61040  -0.59618
 Alpha  occ. eigenvalues --   -0.59360  -0.57758  -0.57112  -0.56445  -0.56434
 Alpha  occ. eigenvalues --   -0.54595  -0.54487  -0.54235  -0.53536  -0.52862
 Alpha  occ. eigenvalues --   -0.52793  -0.51934  -0.51676  -0.51410  -0.50852
 Alpha  occ. eigenvalues --   -0.50598  -0.50399  -0.50304  -0.50231  -0.49292
 Alpha  occ. eigenvalues --   -0.48693  -0.48465  -0.48305  -0.48301  -0.47939
 Alpha  occ. eigenvalues --   -0.47241  -0.47029  -0.46921  -0.46636  -0.46153
 Alpha  occ. eigenvalues --   -0.45925  -0.45687  -0.45416  -0.45351  -0.44872
 Alpha  occ. eigenvalues --   -0.43545  -0.43494  -0.43308  -0.43214  -0.42948
 Alpha  occ. eigenvalues --   -0.42896  -0.42628  -0.42530  -0.41955  -0.41385
 Alpha  occ. eigenvalues --   -0.41095  -0.40669  -0.40091  -0.39967  -0.39182
 Alpha  occ. eigenvalues --   -0.39118  -0.38868  -0.38722  -0.37566  -0.35346
 Alpha  occ. eigenvalues --   -0.33315  -0.32993  -0.32991  -0.32602  -0.31387
 Alpha  occ. eigenvalues --   -0.30886  -0.29847  -0.28304  -0.23504  -0.17822
 Alpha virt. eigenvalues --   -0.07724  -0.05424  -0.03883   0.00037   0.00455
 Alpha virt. eigenvalues --    0.00465   0.02434   0.02589   0.03459   0.06158
 Alpha virt. eigenvalues --    0.06343   0.06519   0.06848   0.07428   0.07734
 Alpha virt. eigenvalues --    0.08059   0.08505   0.08984   0.09412   0.09527
 Alpha virt. eigenvalues --    0.09774   0.10220   0.10805   0.10974   0.11694
 Alpha virt. eigenvalues --    0.11735   0.11867   0.12312   0.12344   0.12394
 Alpha virt. eigenvalues --    0.13233   0.13702   0.13747   0.14158   0.14348
 Alpha virt. eigenvalues --    0.14384   0.14548   0.14871   0.15676   0.15682
 Alpha virt. eigenvalues --    0.16158   0.16288   0.16345   0.16592   0.17249
 Alpha virt. eigenvalues --    0.17654   0.17817   0.18063   0.18170   0.18554
 Alpha virt. eigenvalues --    0.18884   0.19282   0.19763   0.20036   0.20283
 Alpha virt. eigenvalues --    0.20872   0.21193   0.21442   0.21622   0.21885
 Alpha virt. eigenvalues --    0.22200   0.22383   0.22560   0.22629   0.23218
 Alpha virt. eigenvalues --    0.23302   0.23509   0.23702   0.24055   0.24199
 Alpha virt. eigenvalues --    0.24762   0.24971   0.25056   0.25439   0.25816
 Alpha virt. eigenvalues --    0.26069   0.26256   0.26509   0.26764   0.26875
 Alpha virt. eigenvalues --    0.26913   0.27097   0.27475   0.27608   0.27691
 Alpha virt. eigenvalues --    0.27858   0.28270   0.28380   0.28461   0.28840
 Alpha virt. eigenvalues --    0.29130   0.29280   0.29374   0.29653   0.29809
 Alpha virt. eigenvalues --    0.30099   0.30600   0.30940   0.31176   0.31395
 Alpha virt. eigenvalues --    0.31726   0.31905   0.32113   0.32220   0.32514
 Alpha virt. eigenvalues --    0.32657   0.33017   0.33563   0.33668   0.34247
 Alpha virt. eigenvalues --    0.34388   0.34685   0.34833   0.35164   0.35331
 Alpha virt. eigenvalues --    0.35434   0.35757   0.35949   0.36224   0.36422
 Alpha virt. eigenvalues --    0.36601   0.36648   0.36883   0.36965   0.37335
 Alpha virt. eigenvalues --    0.37481   0.37621   0.37812   0.38076   0.38470
 Alpha virt. eigenvalues --    0.38757   0.38943   0.39043   0.39511   0.39645
 Alpha virt. eigenvalues --    0.39782   0.39909   0.40068   0.40489   0.40627
 Alpha virt. eigenvalues --    0.40902   0.41257   0.41546   0.41674   0.41810
 Alpha virt. eigenvalues --    0.42206   0.42294   0.42569   0.42639   0.43097
 Alpha virt. eigenvalues --    0.43236   0.43528   0.43758   0.43939   0.44236
 Alpha virt. eigenvalues --    0.44528   0.44800   0.44912   0.45175   0.45374
 Alpha virt. eigenvalues --    0.45562   0.45901   0.45954   0.46016   0.46271
 Alpha virt. eigenvalues --    0.46588   0.46615   0.46733   0.47130   0.47396
 Alpha virt. eigenvalues --    0.47818   0.48063   0.48465   0.48830   0.49127
 Alpha virt. eigenvalues --    0.49347   0.49611   0.49762   0.50096   0.50306
 Alpha virt. eigenvalues --    0.50742   0.50907   0.50936   0.51295   0.51453
 Alpha virt. eigenvalues --    0.51628   0.52305   0.52491   0.52634   0.52825
 Alpha virt. eigenvalues --    0.52968   0.53289   0.53432   0.53651   0.53729
 Alpha virt. eigenvalues --    0.54063   0.54692   0.54764   0.55103   0.55316
 Alpha virt. eigenvalues --    0.55751   0.55962   0.56147   0.56315   0.57270
 Alpha virt. eigenvalues --    0.57513   0.57615   0.57676   0.57939   0.58565
 Alpha virt. eigenvalues --    0.59148   0.59461   0.59584   0.59706   0.59953
 Alpha virt. eigenvalues --    0.60140   0.60544   0.60777   0.61264   0.61475
 Alpha virt. eigenvalues --    0.62073   0.62209   0.62320   0.62708   0.62881
 Alpha virt. eigenvalues --    0.63268   0.63375   0.63532   0.63773   0.64054
 Alpha virt. eigenvalues --    0.64674   0.65007   0.65160   0.65437   0.65664
 Alpha virt. eigenvalues --    0.65843   0.66055   0.66280   0.66417   0.66727
 Alpha virt. eigenvalues --    0.66950   0.67240   0.67429   0.67570   0.67833
 Alpha virt. eigenvalues --    0.68278   0.68634   0.68863   0.69074   0.69178
 Alpha virt. eigenvalues --    0.69566   0.69615   0.69928   0.70043   0.70271
 Alpha virt. eigenvalues --    0.70628   0.71047   0.71244   0.71379   0.71486
 Alpha virt. eigenvalues --    0.72174   0.72337   0.72578   0.72971   0.73085
 Alpha virt. eigenvalues --    0.73393   0.73633   0.73794   0.74118   0.74561
 Alpha virt. eigenvalues --    0.74697   0.74928   0.75155   0.75350   0.75708
 Alpha virt. eigenvalues --    0.76344   0.76507   0.76918   0.77112   0.77245
 Alpha virt. eigenvalues --    0.77757   0.77822   0.78167   0.78468   0.78774
 Alpha virt. eigenvalues --    0.79006   0.79319   0.79562   0.80003   0.80349
 Alpha virt. eigenvalues --    0.80611   0.80765   0.81229   0.81491   0.82075
 Alpha virt. eigenvalues --    0.82555   0.82856   0.82937   0.83268   0.83386
 Alpha virt. eigenvalues --    0.83663   0.83751   0.83817   0.84055   0.84477
 Alpha virt. eigenvalues --    0.84768   0.85104   0.85315   0.85571   0.85899
 Alpha virt. eigenvalues --    0.86043   0.86578   0.86872   0.87587   0.87718
 Alpha virt. eigenvalues --    0.88543   0.88801   0.89240   0.89339   0.89579
 Alpha virt. eigenvalues --    0.89841   0.90488   0.90663   0.91210   0.91456
 Alpha virt. eigenvalues --    0.91858   0.92181   0.92520   0.92594   0.92811
 Alpha virt. eigenvalues --    0.93111   0.93377   0.94406   0.94623   0.95056
 Alpha virt. eigenvalues --    0.95529   0.95653   0.96520   0.96538   0.96994
 Alpha virt. eigenvalues --    0.97887   0.98061   0.98376   0.98706   0.98946
 Alpha virt. eigenvalues --    0.99256   0.99497   0.99602   1.00157   1.00413
 Alpha virt. eigenvalues --    1.00600   1.00872   1.01082   1.01624   1.02060
 Alpha virt. eigenvalues --    1.02380   1.02557   1.03004   1.03098   1.03384
 Alpha virt. eigenvalues --    1.03605   1.03859   1.04308   1.04664   1.04806
 Alpha virt. eigenvalues --    1.05032   1.05223   1.05406   1.05486   1.06038
 Alpha virt. eigenvalues --    1.06371   1.06776   1.06903   1.07529   1.07865
 Alpha virt. eigenvalues --    1.08122   1.08573   1.09022   1.09211   1.09375
 Alpha virt. eigenvalues --    1.09741   1.10602   1.10755   1.10961   1.11243
 Alpha virt. eigenvalues --    1.12058   1.12470   1.12914   1.13100   1.13424
 Alpha virt. eigenvalues --    1.13511   1.13782   1.14398   1.14938   1.15075
 Alpha virt. eigenvalues --    1.15395   1.15600   1.16456   1.16530   1.16859
 Alpha virt. eigenvalues --    1.17125   1.17420   1.17747   1.17957   1.18185
 Alpha virt. eigenvalues --    1.18308   1.18955   1.19058   1.19972   1.20115
 Alpha virt. eigenvalues --    1.20527   1.20941   1.21001   1.21687   1.22102
 Alpha virt. eigenvalues --    1.22184   1.22371   1.22837   1.23292   1.23568
 Alpha virt. eigenvalues --    1.23715   1.24036   1.24237   1.24443   1.24836
 Alpha virt. eigenvalues --    1.24998   1.25242   1.25425   1.25575   1.26357
 Alpha virt. eigenvalues --    1.26636   1.27057   1.27153   1.27649   1.27898
 Alpha virt. eigenvalues --    1.28238   1.28285   1.28702   1.28877   1.29428
 Alpha virt. eigenvalues --    1.29673   1.29782   1.30310   1.30688   1.30912
 Alpha virt. eigenvalues --    1.31412   1.32068   1.32738   1.32986   1.33192
 Alpha virt. eigenvalues --    1.33349   1.33751   1.33922   1.34400   1.34884
 Alpha virt. eigenvalues --    1.35380   1.35841   1.36489   1.36513   1.37038
 Alpha virt. eigenvalues --    1.37468   1.37737   1.38091   1.38284   1.38633
 Alpha virt. eigenvalues --    1.38922   1.39167   1.39380   1.39489   1.39800
 Alpha virt. eigenvalues --    1.40173   1.40548   1.40805   1.41429   1.41819
 Alpha virt. eigenvalues --    1.42113   1.43222   1.43752   1.44405   1.44505
 Alpha virt. eigenvalues --    1.44640   1.45017   1.45309   1.45502   1.45530
 Alpha virt. eigenvalues --    1.45667   1.46010   1.46291   1.46344   1.46530
 Alpha virt. eigenvalues --    1.46905   1.47139   1.47482   1.48064   1.48338
 Alpha virt. eigenvalues --    1.49145   1.49470   1.49831   1.50475   1.50740
 Alpha virt. eigenvalues --    1.50758   1.51491   1.51623   1.51900   1.52088
 Alpha virt. eigenvalues --    1.52311   1.52401   1.52876   1.53140   1.53276
 Alpha virt. eigenvalues --    1.53822   1.54330   1.54657   1.55199   1.55423
 Alpha virt. eigenvalues --    1.55721   1.55903   1.56370   1.56675   1.56940
 Alpha virt. eigenvalues --    1.57021   1.57258   1.57637   1.57737   1.58034
 Alpha virt. eigenvalues --    1.58342   1.58547   1.58887   1.59062   1.59254
 Alpha virt. eigenvalues --    1.59436   1.59546   1.60217   1.60981   1.61365
 Alpha virt. eigenvalues --    1.61916   1.61962   1.62477   1.62690   1.63328
 Alpha virt. eigenvalues --    1.63450   1.63930   1.63988   1.64353   1.64881
 Alpha virt. eigenvalues --    1.65391   1.65738   1.65839   1.66108   1.66848
 Alpha virt. eigenvalues --    1.67305   1.67615   1.67737   1.67802   1.68040
 Alpha virt. eigenvalues --    1.68610   1.68925   1.69476   1.69514   1.70508
 Alpha virt. eigenvalues --    1.70776   1.71038   1.71292   1.71624   1.72097
 Alpha virt. eigenvalues --    1.72417   1.72708   1.73627   1.74035   1.74729
 Alpha virt. eigenvalues --    1.75007   1.75360   1.75894   1.76628   1.77008
 Alpha virt. eigenvalues --    1.77398   1.77478   1.77847   1.78187   1.78828
 Alpha virt. eigenvalues --    1.79187   1.79565   1.80030   1.80388   1.80728
 Alpha virt. eigenvalues --    1.81376   1.81617   1.81928   1.82265   1.83119
 Alpha virt. eigenvalues --    1.83891   1.84217   1.84791   1.85555   1.86372
 Alpha virt. eigenvalues --    1.86941   1.87247   1.87844   1.88063   1.88646
 Alpha virt. eigenvalues --    1.88940   1.89213   1.89499   1.89977   1.90264
 Alpha virt. eigenvalues --    1.90775   1.91253   1.91689   1.92169   1.92391
 Alpha virt. eigenvalues --    1.93065   1.93335   1.93689   1.94020   1.94573
 Alpha virt. eigenvalues --    1.95067   1.95308   1.95420   1.96746   1.97121
 Alpha virt. eigenvalues --    1.97330   1.97626   1.97927   1.99311   1.99860
 Alpha virt. eigenvalues --    2.00320   2.00687   2.00761   2.01661   2.02832
 Alpha virt. eigenvalues --    2.02958   2.03123   2.03455   2.03799   2.04013
 Alpha virt. eigenvalues --    2.04926   2.05321   2.05755   2.06466   2.06686
 Alpha virt. eigenvalues --    2.06856   2.07241   2.07933   2.08044   2.08485
 Alpha virt. eigenvalues --    2.08717   2.09002   2.09507   2.09955   2.10671
[...]
     4 C(13)  Bbb    -0.0862   -11.570    -4.128    -3.859  0.9032  0.4285  0.0244
              Bcc     0.1752    23.504     8.387     7.840 -0.0443  0.0365  0.9984
 
              Baa    -0.0632    -8.484    -3.027    -2.830 -0.0742  0.1286  0.9889
     5 C(13)  Bbb     0.0264     3.538     1.263     1.180 -0.5633  0.8129 -0.1480
              Bcc     0.0369     4.946     1.765     1.650  0.8229  0.5680 -0.0122
 
              Baa    -0.0766   -10.276    -3.667    -3.428  0.1428  0.9797 -0.1404
     6 C(13)  Bbb    -0.0715    -9.589    -3.422    -3.199  0.9872 -0.1308  0.0917
              Bcc     0.1480    19.865     7.088     6.626 -0.0714  0.1517  0.9858
 
              Baa    -0.0233    -3.125    -1.115    -1.042 -0.0651  0.1444  0.9874
     7 C(13)  Bbb     0.0087     1.171     0.418     0.391 -0.1682  0.9737 -0.1535
              Bcc     0.0146     1.954     0.697     0.652  0.9836  0.1760  0.0391
 
              Baa    -0.0197    -2.643    -0.943    -0.882 -0.3750  0.9144 -0.1527
     8 C(13)  Bbb    -0.0173    -2.315    -0.826    -0.772  0.9235  0.3828  0.0241
              Bcc     0.0370     4.958     1.769     1.654 -0.0805  0.1319  0.9880
 
              Baa    -0.0137    -1.836    -0.655    -0.612 -0.0820  0.1354  0.9874
     9 C(13)  Bbb     0.0056     0.748     0.267     0.250 -0.2196  0.9639 -0.1504
              Bcc     0.0081     1.088     0.388     0.363  0.9721  0.2292  0.0493
 
              Baa    -0.0259    -3.471    -1.238    -1.158 -0.3399  0.9271 -0.1578
    10 C(13)  Bbb    -0.0237    -3.176    -1.133    -1.059  0.9373  0.3477  0.0240
              Bcc     0.0495     6.647     2.372     2.217 -0.0771  0.1397  0.9872
 
              Baa    -0.0061    -0.821    -0.293    -0.274 -0.0757  0.1381  0.9875
    11 C(13)  Bbb    -0.0014    -0.184    -0.066    -0.061 -0.3084  0.9386 -0.1549
              Bcc     0.0075     1.005     0.359     0.335  0.9482  0.3163  0.0284
 
              Baa    -0.0213    -0.823    -0.294    -0.275  0.9532  0.3005  0.0330
    12 N(14)  Bbb    -0.0164    -0.633    -0.226    -0.211 -0.2921  0.9436 -0.1557
              Bcc     0.0378     1.456     0.520     0.486 -0.0779  0.1388  0.9873
 
              Baa    -0.0149    -1.994    -0.712    -0.665 -0.0816  0.1343  0.9876
    13 C(13)  Bbb     0.0062     0.828     0.296     0.276 -0.4800  0.8631 -0.1570
              Bcc     0.0087     1.166     0.416     0.389  0.8734  0.4869  0.0059
 
              Baa    -0.0194    -2.605    -0.930    -0.869 -0.4117  0.8988 -0.1505
    14 C(13)  Bbb    -0.0179    -2.405    -0.858    -0.802  0.9078  0.4190  0.0193
              Bcc     0.0373     5.010     1.788     1.671 -0.0804  0.1287  0.9884
 
              Baa    -0.0480    -1.853    -0.661    -0.618  0.0631  0.9979  0.0175
    15 N(14)  Bbb    -0.0386    -1.489    -0.531    -0.497  0.9916 -0.0647  0.1125
              Bcc     0.0866     3.342     1.192     1.115 -0.1133 -0.0102  0.9935
 
              Baa    -0.0927   -12.435    -4.437    -4.148 -0.0480  0.0435  0.9979
    16 C(13)  Bbb     0.0408     5.471     1.952     1.825  0.8000 -0.5965  0.0645
              Bcc     0.0519     6.963     2.485     2.323  0.5981  0.8014 -0.0061
 
              Baa    -0.2034   -27.297    -9.740    -9.105  0.0063  0.9996 -0.0289
    17 C(13)  Bbb    -0.1982   -26.596    -9.490    -8.871  1.0000 -0.0061  0.0058
              Bcc     0.4016    53.893    19.230    17.977 -0.0056  0.0289  0.9996
 
              Baa    -0.0214    -2.870    -1.024    -0.957  0.0106 -0.6131  0.7900
    18 C(13)  Bbb     0.0102     1.365     0.487     0.455  0.9931 -0.0859 -0.0799
              Bcc     0.0112     1.506     0.537     0.502  0.1168  0.7854  0.6079
 
              Baa    -0.0193    -2.586    -0.923    -0.862 -0.4808  0.3050  0.8221
    19 C(13)  Bbb    -0.0120    -1.615    -0.576    -0.539  0.8015 -0.2273  0.5531
              Bcc     0.0313     4.201     1.499     1.401  0.3556  0.9248 -0.1351
 
              Baa    -0.0118    -1.584    -0.565    -0.528  0.2776  0.8791 -0.3875
    20 C(13)  Bbb     0.0019     0.261     0.093     0.087 -0.1143  0.4307  0.8952
              Bcc     0.0099     1.323     0.472     0.441  0.9539 -0.2042  0.2201
 
              Baa    -0.0225    -3.013    -1.075    -1.005 -0.0117  0.5083  0.8611
    21 C(13)  Bbb    -0.0176    -2.363    -0.843    -0.788  0.9999  0.0091  0.0082
              Bcc     0.0401     5.376     1.918     1.793 -0.0036  0.8611 -0.5084
 
              Baa    -0.0070    -0.271    -0.097    -0.091 -0.0112  0.4857  0.8740
    22 N(14)  Bbb    -0.0053    -0.205    -0.073    -0.068  0.9999  0.0072  0.0088
              Bcc     0.0124     0.477     0.170     0.159 -0.0021  0.8741 -0.4858
 
              Baa    -0.0349     2.524     0.901     0.842  0.3024  0.4427  0.8441
    23 O(17)  Bbb    -0.0339     2.451     0.874     0.817  0.9500 -0.0680 -0.3047
              Bcc     0.0688    -4.975    -1.775    -1.659 -0.0775  0.8941 -0.4411
 
              Baa    -0.0350     2.530     0.903     0.844 -0.3242  0.4378  0.8386
    24 O(17)  Bbb    -0.0340     2.457     0.877     0.819  0.9434  0.0846  0.3206
              Bcc     0.0689    -4.987    -1.780    -1.664  0.0694  0.8951 -0.4405
 
              Baa    -0.0117    -1.566    -0.559    -0.522 -0.2840  0.8765 -0.3887
    25 C(13)  Bbb     0.0020     0.262     0.094     0.087  0.0945  0.4290  0.8983
              Bcc     0.0097     1.303     0.465     0.435  0.9542  0.2184 -0.2046
 
              Baa    -0.0194    -2.608    -0.931    -0.870  0.4531  0.3109  0.8355
    26 C(13)  Bbb    -0.0123    -1.646    -0.587    -0.549  0.8131  0.2400 -0.5303
              Bcc     0.0317     4.254     1.518     1.419 -0.3654  0.9196 -0.1440
 
              Baa    -0.0901   -12.094    -4.316    -4.034  0.0699  0.0857  0.9939
    27 C(13)  Bbb     0.0398     5.338     1.905     1.781  0.7914  0.6017 -0.1075
              Bcc     0.0503     6.756     2.411     2.253 -0.6072  0.7941 -0.0258
 
              Baa    -0.0703    -9.431    -3.365    -3.146  0.9808 -0.1817 -0.0712
    28 C(13)  Bbb    -0.0690    -9.255    -3.303    -3.087  0.1663  0.9690 -0.1828
              Bcc     0.1393    18.686     6.668     6.233  0.1022  0.1675  0.9806
 
              Baa    -0.0012    -0.156    -0.056    -0.052 -0.3840  0.5890  0.7111
    29 C(13)  Bbb    -0.0007    -0.096    -0.034    -0.032  0.6826 -0.3375  0.6482
              Bcc     0.0019     0.251     0.090     0.084  0.6218  0.7343 -0.2724
 
              Baa    -0.0593    -7.962    -2.841    -2.656  0.0950  0.1297  0.9870
    30 C(13)  Bbb     0.0287     3.846     1.372     1.283  0.1218  0.9825 -0.1408
              Bcc     0.0307     4.116     1.469     1.373  0.9880 -0.1336 -0.0776
 
              Baa    -0.0855   -11.473    -4.094    -3.827  0.4276  0.8974 -0.1087
    31 C(13)  Bbb    -0.0828   -11.118    -3.967    -3.708  0.9018 -0.4317 -0.0170
              Bcc     0.1683    22.590     8.061     7.535  0.0621  0.0908  0.9939
 
              Baa    -0.0615    -8.250    -2.944    -2.752  0.0367  0.0092  0.9993
    32 C(13)  Bbb     0.0257     3.444     1.229     1.149  0.5811  0.8133 -0.0288
              Bcc     0.0358     4.807     1.715     1.603  0.8130 -0.5817 -0.0245
 
              Baa    -0.0743    -9.975    -3.559    -3.327 -0.1154  0.9933  0.0090
    33 C(13)  Bbb    -0.0693    -9.303    -3.319    -3.103  0.9929  0.1157 -0.0272
              Bcc     0.1437    19.278     6.879     6.431  0.0280 -0.0058  0.9996
 
              Baa    -0.0226    -3.032    -1.082    -1.012  0.0320 -0.0114  0.9994
    34 C(13)  Bbb     0.0085     1.135     0.405     0.379  0.1940  0.9810  0.0050
              Bcc     0.0141     1.897     0.677     0.633  0.9805 -0.1937 -0.0336
 
              Baa    -0.0188    -2.529    -0.902    -0.844  0.4397  0.8981 -0.0023
    35 C(13)  Bbb    -0.0174    -2.334    -0.833    -0.778  0.8981 -0.4397 -0.0076
              Bcc     0.0362     4.863     1.735     1.622  0.0078 -0.0013  1.0000
 
              Baa    -0.0144    -1.937    -0.691    -0.646  0.0091 -0.0038  1.0000
    36 C(13)  Bbb     0.0060     0.804     0.287     0.268  0.5058  0.8626 -0.0013
              Bcc     0.0084     1.133     0.404     0.378  0.8626 -0.5058 -0.0098
 
              Baa    -0.0251    -3.368    -1.202    -1.124  0.3674  0.9301  0.0016
    37 C(13)  Bbb    -0.0230    -3.082    -1.100    -1.028  0.9299 -0.3673 -0.0166
              Bcc     0.0481     6.450     2.302     2.152  0.0149 -0.0076  0.9999
 
              Baa    -0.0059    -0.797    -0.284    -0.266  0.0156 -0.0085  0.9998
    38 C(13)  Bbb    -0.0013    -0.179    -0.064    -0.060  0.3352  0.9422  0.0028
              Bcc     0.0073     0.976     0.348     0.325  0.9420 -0.3351 -0.0176
 
              Baa    -0.0207    -0.799    -0.285    -0.266  0.9479 -0.3183 -0.0150
    39 N(14)  Bbb    -0.0159    -0.614    -0.219    -0.205  0.3184  0.9480  0.0030
              Bcc     0.0366     1.413     0.504     0.471  0.0133 -0.0076  0.9999
 
              Baa    -0.0133    -1.779    -0.635    -0.594  0.0127 -0.0054  0.9999
    40 C(13)  Bbb     0.0054     0.724     0.258     0.242  0.2478  0.9688  0.0021
              Bcc     0.0079     1.055     0.376     0.352  0.9687 -0.2477 -0.0136
 
              Baa    -0.0191    -2.563    -0.915    -0.855  0.4017  0.9158 -0.0019
    41 C(13)  Bbb    -0.0167    -2.244    -0.801    -0.748  0.9156 -0.4017 -0.0159
              Bcc     0.0358     4.807     1.715     1.603  0.0153 -0.0047  0.9999
 
              Baa    -0.0483    -1.863    -0.665    -0.621 -0.0723  0.9956 -0.0602
    42 N(14)  Bbb    -0.0392    -1.511    -0.539    -0.504  0.9828  0.0608 -0.1744
              Bcc     0.0875     3.373     1.204     1.125  0.1700  0.0717  0.9828
 
              Baa    -0.0027    -0.465    -0.166    -0.155 -0.0816  0.2301  0.9697
    43 B(11)  Bbb     0.0005     0.085     0.030     0.028  0.9348  0.3551 -0.0056
              Bcc     0.0022     0.380     0.136     0.127 -0.3457  0.9061 -0.2441
 
              Baa    -0.0071    -3.579    -1.277    -1.194 -0.2180 -0.0087  0.9759
    44 F(19)  Bbb    -0.0048    -2.424    -0.865    -0.808 -0.0136  0.9999  0.0059
              Bcc     0.0120     6.002     2.142     2.002  0.9759  0.0120  0.2181
 
              Baa    -0.0143    -7.201    -2.570    -2.402  0.1051  0.9622  0.2511
    45 F(19)  Bbb    -0.0119    -5.965    -2.128    -1.990  0.4678 -0.2706  0.8414
              Bcc     0.0262    13.166     4.698     4.392  0.8776  0.0291 -0.4786
 
              Baa    -0.0022    -1.188    -0.424    -0.396 -0.3011  0.2071  0.9308
    46 H(1)   Bbb    -0.0005    -0.246    -0.088    -0.082  0.5502  0.8350 -0.0078
              Bcc     0.0027     1.434     0.512     0.478  0.7788 -0.5099  0.3653
 
              Baa    -0.0016    -0.829    -0.296    -0.277 -0.4216 -0.0750  0.9037
    47 H(1)   Bbb    -0.0012    -0.657    -0.234    -0.219  0.7363  0.5534  0.3894
              Bcc     0.0028     1.486     0.530     0.496 -0.5293  0.8295 -0.1780
 
              Baa    -0.0022    -1.173    -0.419    -0.391  0.2752 -0.0157  0.9613
    48 H(1)   Bbb    -0.0004    -0.206    -0.074    -0.069  0.5146  0.8470 -0.1335
              Bcc     0.0026     1.379     0.492     0.460  0.8121 -0.5314 -0.2412
 
              Baa    -0.0024    -1.285    -0.459    -0.429 -0.0348  0.1344  0.9903
    49 H(1)   Bbb    -0.0020    -1.074    -0.383    -0.358  0.1279  0.9834 -0.1289
              Bcc     0.0044     2.359     0.842     0.787  0.9912 -0.1222  0.0514
 
              Baa    -0.0030    -1.625    -0.580    -0.542 -0.4871  0.8634  0.1313
    50 H(1)   Bbb    -0.0027    -1.415    -0.505    -0.472  0.0594 -0.1172  0.9913
              Bcc     0.0057     3.039     1.085     1.014  0.8713  0.4907  0.0058
 
              Baa    -0.0079    -4.241    -1.513    -1.415  0.7396  0.6715 -0.0451
    51 H(1)   Bbb    -0.0019    -1.023    -0.365    -0.341 -0.0577  0.1300  0.9898
              Bcc     0.0099     5.264     1.878     1.756 -0.6705  0.7295 -0.1349
 
              Baa    -0.0012    -0.657    -0.234    -0.219 -0.1022  0.1198  0.9875
    52 H(1)   Bbb    -0.0009    -0.486    -0.173    -0.162  0.7537  0.6572 -0.0018
              Bcc     0.0021     1.143     0.408     0.381 -0.6493  0.7441 -0.1575
 
              Baa    -0.0008    -0.423    -0.151    -0.141 -0.0782  0.1282  0.9887
    53 H(1)   Bbb    -0.0003    -0.170    -0.061    -0.057 -0.1491  0.9790 -0.1387
              Bcc     0.0011     0.594     0.212     0.198  0.9857  0.1583  0.0574
 
              Baa    -0.0008    -0.439    -0.157    -0.146 -0.0800  0.1258  0.9888
    54 H(1)   Bbb    -0.0005    -0.241    -0.086    -0.080 -0.5864  0.7963 -0.1487
              Bcc     0.0013     0.680     0.243     0.227  0.8061  0.5917 -0.0101
 
              Baa    -0.0016    -0.866    -0.309    -0.289  0.9817 -0.1869  0.0359
    55 H(1)   Bbb    -0.0011    -0.582    -0.208    -0.194 -0.0186  0.0935  0.9954
              Bcc     0.0027     1.448     0.517     0.483  0.1894  0.9779 -0.0883
 
              Baa    -0.0028    -1.507    -0.538    -0.503  0.1362  0.7305 -0.6692
    56 H(1)   Bbb    -0.0004    -0.205    -0.073    -0.068  0.9489 -0.2902 -0.1237
              Bcc     0.0032     1.712     0.611     0.571  0.2846  0.6181  0.7328
 
              Baa    -0.0012    -0.660    -0.236    -0.220  0.0493  0.7471 -0.6629
    57 H(1)   Bbb    -0.0003    -0.177    -0.063    -0.059 -0.1142  0.6635  0.7394
              Bcc     0.0016     0.837     0.299     0.279  0.9922  0.0392  0.1180
 
              Baa    -0.0012    -0.665    -0.237    -0.222 -0.0512  0.7402 -0.6704
    58 H(1)   Bbb    -0.0003    -0.180    -0.064    -0.060  0.0901  0.6720  0.7351
              Bcc     0.0016     0.845     0.301     0.282  0.9946 -0.0228 -0.1011
 
              Baa    -0.0028    -1.493    -0.533    -0.498 -0.1602  0.7196 -0.6757
    59 H(1)   Bbb    -0.0004    -0.188    -0.067    -0.063  0.9444  0.3109  0.1072
              Bcc     0.0032     1.681     0.600     0.561 -0.2873  0.6209  0.7294
 
              Baa    -0.0021    -1.147    -0.409    -0.383 -0.2584  0.0481  0.9649
    60 H(1)   Bbb    -0.0004    -0.190    -0.068    -0.064 -0.5125  0.8398 -0.1790
              Bcc     0.0025     1.338     0.477     0.446  0.8189  0.5407  0.1923
 
              Baa    -0.0022    -1.184    -0.422    -0.395  0.3255  0.2376  0.9152
    61 H(1)   Bbb    -0.0005    -0.260    -0.093    -0.087 -0.5666  0.8239 -0.0124
              Bcc     0.0027     1.444     0.515     0.482  0.7570  0.5145 -0.4028
 
              Baa    -0.0015    -0.807    -0.288    -0.269  0.4453 -0.0347  0.8947
    62 H(1)   Bbb    -0.0012    -0.638    -0.228    -0.213  0.7202 -0.5798 -0.3809
              Bcc     0.0027     1.445     0.516     0.482  0.5320  0.8140 -0.2333
 
              Baa    -0.0024    -1.260    -0.450    -0.420  0.1075 -0.0175  0.9940
    63 H(1)   Bbb    -0.0019    -0.996    -0.355    -0.332 -0.1091  0.9936  0.0293
              Bcc     0.0042     2.257     0.805     0.753  0.9882  0.1116 -0.1049
 
              Baa    -0.0030    -1.593    -0.569    -0.531  0.4680  0.8008 -0.3737
    64 H(1)   Bbb    -0.0026    -1.371    -0.489    -0.457  0.2083  0.3110  0.9273
              Bcc     0.0056     2.964     1.058     0.989  0.8588 -0.5118 -0.0213
 
              Baa    -0.0077    -4.104    -1.464    -1.369  0.7232 -0.6906 -0.0110
    65 H(1)   Bbb    -0.0019    -1.005    -0.359    -0.335  0.0407  0.0267  0.9988
              Bcc     0.0096     5.110     1.823     1.704  0.6895  0.7228 -0.0474
 
              Baa    -0.0016    -0.840    -0.300    -0.280  0.9845  0.1662 -0.0560
    66 H(1)   Bbb    -0.0011    -0.572    -0.204    -0.191  0.0522  0.0271  0.9983
              Bcc     0.0026     1.412     0.504     0.471 -0.1674  0.9857 -0.0180
 
              Baa    -0.0008    -0.429    -0.153    -0.143  0.0095 -0.0100  0.9999
    67 H(1)   Bbb    -0.0004    -0.234    -0.084    -0.078  0.6102  0.7922  0.0021
              Bcc     0.0012     0.664     0.237     0.221  0.7922 -0.6101 -0.0136
 
              Baa    -0.0008    -0.413    -0.147    -0.138  0.0139 -0.0046  0.9999
    68 H(1)   Bbb    -0.0003    -0.164    -0.059    -0.055  0.1786  0.9839  0.0020
              Bcc     0.0011     0.577     0.206     0.192  0.9838 -0.1786 -0.0145
 
              Baa    -0.0012    -0.641    -0.229    -0.214 -0.0069  0.0149  0.9999
    69 H(1)   Bbb    -0.0009    -0.464    -0.165    -0.155  0.7412 -0.6711  0.0151
              Bcc     0.0021     1.105     0.394     0.369  0.6712  0.7412 -0.0064
 

 ---------------------------------------------------------------------------------

 No NMR shielding tensors so no spin-rotation constants.
 Leave Link  601 at Sat Oct 25 06:36:40 2025, MaxMem= 30870077440 cpu:             177.5 elap:               3.1
 (Enter /public/software/gauss/g16/l9999.exe)
 1\1\GINC-CU056\SP\UM062X\def2TZVPP\C35H24B1F2N5O2(1-,2)\BAIDING\25-Oct
 -2025\0\\#p M062X/DEF2TZVPP scrf=(solvent=water) em=GD3\\Energy calcul
 ation for BNP_CN_CN_reduced\\-1,2\C,0,-3.880169,3.179191,0.292145\C,0,
 -2.498779,2.620715,0.110323\C,0,-1.351333,3.406451,0.091696\C,0,-0.223
 041,2.56918,-0.013747\C,0,1.165402,2.918062,-0.062384\C,0,1.652546,4.1
 84058,0.077801\C,0,3.049243,4.574729,0.019349\C,0,3.380896,5.940774,0.
 184118\C,0,4.693917,6.381336,0.142013\C,0,5.734512,5.456329,-0.068595\
 C,0,7.089187,5.896603,-0.113013\N,0,8.199661,6.257327,-0.149226\C,0,5.
 427744,4.089643,-0.234876\C,0,4.112214,3.662048,-0.191405\N,0,-0.66922
 4,1.261169,-0.075642\C,0,-2.059632,1.258792,-0.016248\C,0,-2.775937,0.
 029734,-0.027138\C,0,-4.251024,0.024155,-0.017098\C,0,-4.962786,-0.581
 147,1.041859\C,0,-6.347569,-0.58929,1.065862\C,0,-7.049454,-0.001551,0
 .003293\N,0,-8.483544,-0.013634,0.014148\O,0,-9.077107,-0.562653,0.965
 952\O,0,-9.100484,0.52539,-0.928477\C,0,-6.373774,0.596917,-1.070326\C
 ,0,-4.988956,0.613448,-1.067131\C,0,-2.065263,-1.203228,-0.059646\C,0,
 -2.514422,-2.552442,-0.263363\C,0,-3.896193,-3.079196,-0.521237\C,0,-1
 .375264,-3.349339,-0.261719\C,0,-0.241044,-2.529331,-0.091292\C,0,1.14
 2662,-2.899821,-0.051482\C,0,1.598149,-4.184996,-0.04178\C,0,2.988922,
 -4.600434,-0.018908\C,0,4.079766,-3.696439,-0.008425\C,0,5.387403,-4.1
 49303,0.014724\C,0,5.657919,-5.533549,0.027424\C,0,7.004453,-5.999954,
 0.050005\N,0,8.10819,-6.382052,0.068374\C,0,4.589105,-6.45023,0.017079
 \C,0,3.284374,-5.984467,-0.005354\N,0,-0.677856,-1.222496,0.015991\B,0
 ,0.209608,0.022998,0.199524\F,0,1.293436,-0.016134,-0.707572\F,0,0.737
 067,0.076215,1.506006\H,0,-4.458178,2.615431,1.030286\H,0,-3.807581,4.
 213896,0.640026\H,0,-4.465215,3.184467,-0.633648\H,0,-1.32864,4.486658
 ,0.151373\H,0,1.852867,2.097869,-0.23764\H,0,0.954249,4.999862,0.25294
 6\H,0,2.583282,6.659589,0.3471\H,0,4.925654,7.433368,0.270331\H,0,6.22
 9283,3.376537,-0.396289\H,0,3.904067,2.605592,-0.320713\H,0,-4.413214,
 -1.02732,1.863748\H,0,-6.888358,-1.031776,1.892549\H,0,-6.934668,1.027
 659,-1.889789\H,0,-4.460143,1.064258,-1.899829\H,0,-4.511798,-3.121142
 ,0.383718\H,0,-4.441182,-2.468634,-1.247309\H,0,-3.827631,-4.095929,-0
 .919272\H,0,-1.357056,-4.420861,-0.41089\H,0,1.855153,-2.082905,-0.038
 113\H,0,0.876001,-4.998764,-0.049872\H,0,3.899856,-2.626995,-0.018771\
 H,0,6.210623,-3.442618,0.022432\H,0,4.792821,-7.515753,0.02669\H,0,2.4
 64752,-6.696988,-0.013036\\Version=ES64L-G16RevA.03\State=2-A\HF=-1997
 .1354468\S2=0.797032\S2-1=0.\S2A=0.751735\RMSD=5.454e-09\Dipole=-3.600
 5804,0.0598875,-0.391022\Quadrupole=-116.5641156,44.4852517,72.0788639
 ,0.2144915,0.3788341,2.2269575\PG=C01 [X(C35H24B1F2N5O2)]\\@


 THE POLHOLDE ROLLS WITHOUT SLIPPING ON THE HERPOLHOLDE LYING IN
 THE INVARIABLE PLANE.
 H.GOLDSTEIN, "CLASSICAL MECHANICS", PG 161
 Job cpu time:       1 days  5 hours 18 minutes 38.1 seconds.
 Elapsed time:       0 days  0 hours 27 minutes 49.6 seconds.
 File lengths (MBytes):  RWF=   3227 Int=      0 D2E=      0 Chk=    209 Scr=      1
 Normal termination of Gaussian 16 at Sat Oct 25 06:36:41 2025.
