 Entering Gaussian System, Link 0=g16
 Input=BNP_N3_sp.gjf
 Output=BNP_N3_sp.log
 Initial command:
 /public/software/gauss/g16/l1.exe "/public/home/baiding/1028_sp/tmp_BNP_N3_sp_1538822/Gau-49321.inp" -scrdir="/public/home/baiding/1028_sp/tmp_BNP_N3_sp_1538822/"
 Entering Link 1 = /public/software/gauss/g16/l1.exe PID=     49322.
  
 Copyright (c) 1988,1990,1992,1993,1995,1998,2003,2009,2016,
            Gaussian, Inc.  All Rights Reserved.
  
 This is part of the Gaussian(R) 16 program.  It is based on
 the Gaussian(R) 09 system (copyright 2009, Gaussian, Inc.),
 the Gaussian(R) 03 system (copyright 2003, Gaussian, Inc.),
 the Gaussian(R) 98 system (copyright 1998, Gaussian, Inc.),
 the Gaussian(R) 94 system (copyright 1995, Gaussian, Inc.),
 the Gaussian 92(TM) system (copyright 1992, Gaussian, Inc.),
 the Gaussian 90(TM) system (copyright 1990, Gaussian, Inc.),
 the Gaussian 88(TM) system (copyright 1988, Gaussian, Inc.),
 the Gaussian 86(TM) system (copyright 1986, Carnegie Mellon
 University), and the Gaussian 82(TM) system (copyright 1983,
 Carnegie Mellon University). Gaussian is a federally registered
 trademark of Gaussian, Inc.
  
 This software contains proprietary and confidential information,
 including trade secrets, belonging to Gaussian, Inc.
  
 This software is provided under written license and may be
 used, copied, transmitted, or stored only in accord with that
 written license.
  
 The following legend is applicable only to US Government
 contracts under FAR:
  
                    RESTRICTED RIGHTS LEGEND
  
 Use, reproduction and disclosure by the US Government is
 subject to restrictions as set forth in subparagraphs (a)
 and (c) of the Commercial Computer Software - Restricted
 Rights clause in FAR 52.227-19.
  
 Gaussian, Inc.
 340 Quinnipiac St., Bldg. 40, Wallingford CT 06492
  
  
 ---------------------------------------------------------------
 Warning -- This program may not be used in any manner that
 competes with the business of Gaussian, Inc. or will provide
 assistance to any competitor of Gaussian, Inc.  The licensee
 of this program is prohibited from giving any competitor of
 Gaussian, Inc. access to this program.  By using this program,
 the user acknowledges that Gaussian, Inc. is engaged in the
 business of creating and licensing software in the field of
 computational chemistry and represents and warrants to the
 licensee that it is not a competitor of Gaussian, Inc. and that
 it will not use this program in any manner prohibited above.
 ---------------------------------------------------------------
  

 Cite this work as:
 Gaussian 16, Revision A.03,
 M. J. Frisch, G. W. Trucks, H. B. Schlegel, G. E. Scuseria, 
 M. A. Robb, J. R. Cheeseman, G. Scalmani, V. Barone, 
 G. A. Petersson, H. Nakatsuji, X. Li, M. Caricato, A. V. Marenich, 
 J. Bloino, B. G. Janesko, R. Gomperts, B. Mennucci, H. P. Hratchian, 
 J. V. Ortiz, A. F. Izmaylov, J. L. Sonnenberg, D. Williams-Young, 
 F. Ding, F. Lipparini, F. Egidi, J. Goings, B. Peng, A. Petrone, 
 T. Henderson, D. Ranasinghe, V. G. Zakrzewski, J. Gao, N. Rega, 
 G. Zheng, W. Liang, M. Hada, M. Ehara, K. Toyota, R. Fukuda, 
 J. Hasegawa, M. Ishida, T. Nakajima, Y. Honda, O. Kitao, H. Nakai, 
 T. Vreven, K. Throssell, J. A. Montgomery, Jr., J. E. Peralta, 
 F. Ogliaro, M. J. Bearpark, J. J. Heyd, E. N. Brothers, K. N. Kudin, 
 V. N. Staroverov, T. A. Keith, R. Kobayashi, J. Normand, 
 K. Raghavachari, A. P. Rendell, J. C. Burant, S. S. Iyengar, 
 J. Tomasi, M. Cossi, J. M. Millam, M. Klene, C. Adamo, R. Cammi, 
 J. W. Ochterski, R. L. Martin, K. Morokuma, O. Farkas, 
 J. B. Foresman, and D. J. Fox, Gaussian, Inc., Wallingford CT, 2016.
 
 ******************************************
 Gaussian 16:  ES64L-G16RevA.03 25-Dec-2016
                28-Oct-2025 
 ******************************************
 %nprocshared=64
 Will use up to   64 processors via shared memory.
 %mem=230GB
 %chk=BNP_N3_sp.chk
 ----------------------------------------------
 #p M062X/DEF2TZVPP scrf=(solvent=water) em=GD3
 ----------------------------------------------
 1/38=1,172=1/1;
 2/12=2,17=6,18=5,40=1/2;
 3/5=44,7=202,11=2,25=1,30=1,70=2201,72=1,74=-55,124=31/1,2,3;
 4//1;
 5/5=2,38=5,53=1/2;
 6/7=2,8=2,9=2,10=2,28=1/1;
 99/5=1,9=1/99;
 Leave Link    1 at Tue Oct 28 20:09:18 2025, MaxMem= 30870077440 cpu:              23.7 elap:               0.4
 (Enter /public/software/gauss/g16/l101.exe)
 -----------------------------
 Energy calculation for BNP_N3
 -----------------------------
 Symbolic Z-matrix:
 Charge =  0 Multiplicity = 1
 C                     2.89034  -3.70537  -0.12641 
 C                     1.69014  -2.809    -0.0849 
 C                     0.38084  -3.25624  -0.10115 
 C                    -0.48521  -2.13351  -0.0673 
 C                    -1.92547  -2.10337  -0.07365 
 C                    -2.69644  -3.21542   0.02927 
 C                    -4.15207  -3.26705   0.02184 
 C                    -4.78677  -4.51821   0.16602 
 C                    -6.1702   -4.63451   0.17081 
 C                    -6.96297  -3.48987   0.02947 
 N                    -8.36621  -3.69646   0.04577 
 N                    -9.11318  -2.71713  -0.07187 
 N                    -9.91563  -1.91262  -0.16914 
 C                    -6.35691  -2.23151  -0.1179 
 C                    -4.97406  -2.12778  -0.12114 
 N                     0.27748  -1.00211  -0.03814 
 C                     1.62421  -1.37257  -0.04131 
 C                     2.63147  -0.39322  -0.02848 
 C                     4.06612  -0.81251  -0.01911 
 C                     4.7541   -1.00474  -1.22654 
 C                     6.08886  -1.39503  -1.22397 
 C                     6.72372  -1.58855   0.00272 
 N                     8.12548  -1.99815   0.01412 
 O                     8.70015  -2.16064  -1.06725 
 O                     8.68113  -2.16562   1.10463 
 C                     6.066    -1.40488   1.21886 
 C                     4.73118  -1.01475   1.19954 
 C                     2.3119    0.97503  -0.03405 
 C                     3.1423    2.1489   -0.06798 
 C                     4.6367    2.25766  -0.09719 
 C                     2.28081   3.23194  -0.08665 
 C                     0.94636   2.75355  -0.0628 
 C                    -0.28319   3.50642  -0.07889 
 C                    -0.32954   4.85774   0.02385 
 C                    -1.5247    5.69627   0.00481 
 C                    -1.36499   7.09196   0.12431 
 C                    -2.46543   7.94651   0.11295 
 C                    -3.75423   7.42481  -0.01809 
 C                    -3.93121   6.0413   -0.13724 
 C                    -2.83414   5.18603  -0.12636 
 N                     0.97792   1.38962  -0.03611 
 B                    -0.23243   0.44551   0.18253 
 F                    -1.25046   0.74454  -0.73914 
 F                    -0.73546   0.59139   1.48275 
 H                     3.50277  -3.52913  -1.01605 
 H                     3.53952  -3.5633    0.74281 
 H                     2.56612  -4.74899  -0.14047 
 H                     0.06689  -4.28954  -0.15139 
 H                    -2.38654  -1.12772  -0.1739 
 H                    -2.20886  -4.18237   0.13543 
 H                    -4.17745  -5.41046   0.27667 
 H                    -6.64653  -5.60253   0.2834 
 H                    -6.96385  -1.33828  -0.22991 
 H                    -4.52846  -1.14548  -0.2376 
 H                     4.24228  -0.84861  -2.16982 
 H                     6.62892  -1.54691  -2.14956 
 H                     6.58865  -1.56419   2.15317 
 H                     4.20183  -0.86631   2.13434 
 H                     5.06494   1.78952  -0.98887 
 H                     4.92579   3.31169  -0.09747 
 H                     5.10076   1.77886   0.77026 
 H                     2.57426   4.27146  -0.13162 
 H                    -1.19615   2.93323  -0.1902 
 H                     0.60479   5.40401   0.13679 
 H                    -0.36298   7.49986   0.22636 
 H                    -2.31716   9.01821   0.20628 
 H                    -4.61445   8.08727  -0.02716 
 H                    -4.93103   5.62968  -0.23898 
 H                    -2.9952    4.11694  -0.21928 
 
 ITRead=  0  0  0  0  0  0  0  0  0  0  0  0  0  0  0  0  0  0  0  0
 ITRead=  0  0  0  0  0  0  0  0  0  0  0  0  0  0  0  0  0  0  0  0
 ITRead=  0  0  0  0  0  0  0  0  0  0  0  0  0  0  0  0  0  0  0  0
 ITRead=  0  0  0  0  0  0  0  0  0
 MicOpt= -1 -1 -1 -1 -1 -1 -1 -1 -1 -1 -1 -1 -1 -1 -1 -1 -1 -1 -1 -1
 MicOpt= -1 -1 -1 -1 -1 -1 -1 -1 -1 -1 -1 -1 -1 -1 -1 -1 -1 -1 -1 -1
 MicOpt= -1 -1 -1 -1 -1 -1 -1 -1 -1 -1 -1 -1 -1 -1 -1 -1 -1 -1 -1 -1
 MicOpt= -1 -1 -1 -1 -1 -1 -1 -1 -1
 NAtoms=     69 NQM=       69 NQMF=       0 NMMI=      0 NMMIF=      0
                NMic=       0 NMicF=      0.
                    Isotopes and Nuclear Properties:
 (Nuclear quadrupole moments (NQMom) in fm**2, nuclear magnetic moments (NMagM)
  in nuclear magnetons)

  Atom         1           2           3           4           5           6           7           8           9          10
 IAtWgt=          12          12          12          12          12          12          12          12          12          12
 AtmWgt=  12.0000000  12.0000000  12.0000000  12.0000000  12.0000000  12.0000000  12.0000000  12.0000000  12.0000000  12.0000000
 NucSpn=           0           0           0           0           0           0           0           0           0           0
 AtZEff=  -0.0000000  -0.0000000  -0.0000000  -0.0000000  -0.0000000  -0.0000000  -0.0000000  -0.0000000  -0.0000000  -0.0000000
 NQMom=    0.0000000   0.0000000   0.0000000   0.0000000   0.0000000   0.0000000   0.0000000   0.0000000   0.0000000   0.0000000
 NMagM=    0.0000000   0.0000000   0.0000000   0.0000000   0.0000000   0.0000000   0.0000000   0.0000000   0.0000000   0.0000000
 AtZNuc=   6.0000000   6.0000000   6.0000000   6.0000000   6.0000000   6.0000000   6.0000000   6.0000000   6.0000000   6.0000000

  Atom        11          12          13          14          15          16          17          18          19          20
 IAtWgt=          14          14          14          12          12          14          12          12          12          12
 AtmWgt=  14.0030740  14.0030740  14.0030740  12.0000000  12.0000000  14.0030740  12.0000000  12.0000000  12.0000000  12.0000000
 NucSpn=           2           2           2           0           0           2           0           0           0           0
 AtZEff=  -0.0000000  -0.0000000  -0.0000000  -0.0000000  -0.0000000  -0.0000000  -0.0000000  -0.0000000  -0.0000000  -0.0000000
 NQMom=    2.0440000   2.0440000   2.0440000   0.0000000   0.0000000   2.0440000   0.0000000   0.0000000   0.0000000   0.0000000
 NMagM=    0.4037610   0.4037610   0.4037610   0.0000000   0.0000000   0.4037610   0.0000000   0.0000000   0.0000000   0.0000000
 AtZNuc=   7.0000000   7.0000000   7.0000000   6.0000000   6.0000000   7.0000000   6.0000000   6.0000000   6.0000000   6.0000000

  Atom        21          22          23          24          25          26          27          28          29          30
 IAtWgt=          12          12          14          16          16          12          12          12          12          12
 AtmWgt=  12.0000000  12.0000000  14.0030740  15.9949146  15.9949146  12.0000000  12.0000000  12.0000000  12.0000000  12.0000000
 NucSpn=           0           0           2           0           0           0           0           0           0           0
 AtZEff=  -0.0000000  -0.0000000  -0.0000000  -0.0000000  -0.0000000  -0.0000000  -0.0000000  -0.0000000  -0.0000000  -0.0000000
 NQMom=    0.0000000   0.0000000   2.0440000   0.0000000   0.0000000   0.0000000   0.0000000   0.0000000   0.0000000   0.0000000
 NMagM=    0.0000000   0.0000000   0.4037610   0.0000000   0.0000000   0.0000000   0.0000000   0.0000000   0.0000000   0.0000000
 AtZNuc=   6.0000000   6.0000000   7.0000000   8.0000000   8.0000000   6.0000000   6.0000000   6.0000000   6.0000000   6.0000000

  Atom        31          32          33          34          35          36          37          38          39          40
 IAtWgt=          12          12          12          12          12          12          12          12          12          12
 AtmWgt=  12.0000000  12.0000000  12.0000000  12.0000000  12.0000000  12.0000000  12.0000000  12.0000000  12.0000000  12.0000000
 NucSpn=           0           0           0           0           0           0           0           0           0           0
 AtZEff=  -0.0000000  -0.0000000  -0.0000000  -0.0000000  -0.0000000  -0.0000000  -0.0000000  -0.0000000  -0.0000000  -0.0000000
 NQMom=    0.0000000   0.0000000   0.0000000   0.0000000   0.0000000   0.0000000   0.0000000   0.0000000   0.0000000   0.0000000
 NMagM=    0.0000000   0.0000000   0.0000000   0.0000000   0.0000000   0.0000000   0.0000000   0.0000000   0.0000000   0.0000000
 AtZNuc=   6.0000000   6.0000000   6.0000000   6.0000000   6.0000000   6.0000000   6.0000000   6.0000000   6.0000000   6.0000000

  Atom        41          42          43          44          45          46          47          48          49          50
 IAtWgt=          14          11          19          19           1           1           1           1           1           1
 AtmWgt=  14.0030740  11.0093053  18.9984033  18.9984033   1.0078250   1.0078250   1.0078250   1.0078250   1.0078250   1.0078250
 NucSpn=           2           3           1           1           1           1           1           1           1           1
 AtZEff=  -0.0000000  -0.0000000  -0.0000000  -0.0000000  -0.0000000  -0.0000000  -0.0000000  -0.0000000  -0.0000000  -0.0000000
 NQMom=    2.0440000   4.0590000   0.0000000   0.0000000   0.0000000   0.0000000   0.0000000   0.0000000   0.0000000   0.0000000
 NMagM=    0.4037610   2.6886370   2.6288670   2.6288670   2.7928460   2.7928460   2.7928460   2.7928460   2.7928460   2.7928460
 AtZNuc=   7.0000000   5.0000000   9.0000000   9.0000000   1.0000000   1.0000000   1.0000000   1.0000000   1.0000000   1.0000000

  Atom        51          52          53          54          55          56          57          58          59          60
 IAtWgt=           1           1           1           1           1           1           1           1           1           1
 AtmWgt=   1.0078250   1.0078250   1.0078250   1.0078250   1.0078250   1.0078250   1.0078250   1.0078250   1.0078250   1.0078250
 NucSpn=           1           1           1           1           1           1           1           1           1           1
 AtZEff=  -0.0000000  -0.0000000  -0.0000000  -0.0000000  -0.0000000  -0.0000000  -0.0000000  -0.0000000  -0.0000000  -0.0000000
 NQMom=    0.0000000   0.0000000   0.0000000   0.0000000   0.0000000   0.0000000   0.0000000   0.0000000   0.0000000   0.0000000
 NMagM=    2.7928460   2.7928460   2.7928460   2.7928460   2.7928460   2.7928460   2.7928460   2.7928460   2.7928460   2.7928460
 AtZNuc=   1.0000000   1.0000000   1.0000000   1.0000000   1.0000000   1.0000000   1.0000000   1.0000000   1.0000000   1.0000000

  Atom        61          62          63          64          65          66          67          68          69
 IAtWgt=           1           1           1           1           1           1           1           1           1
 AtmWgt=   1.0078250   1.0078250   1.0078250   1.0078250   1.0078250   1.0078250   1.0078250   1.0078250   1.0078250
 NucSpn=           1           1           1           1           1           1           1           1           1
 AtZEff=  -0.0000000  -0.0000000  -0.0000000  -0.0000000  -0.0000000  -0.0000000  -0.0000000  -0.0000000  -0.0000000
 NQMom=    0.0000000   0.0000000   0.0000000   0.0000000   0.0000000   0.0000000   0.0000000   0.0000000   0.0000000
 NMagM=    2.7928460   2.7928460   2.7928460   2.7928460   2.7928460   2.7928460   2.7928460   2.7928460   2.7928460
 AtZNuc=   1.0000000   1.0000000   1.0000000   1.0000000   1.0000000   1.0000000   1.0000000   1.0000000   1.0000000
 Leave Link  101 at Tue Oct 28 20:09:18 2025, MaxMem= 30870077440 cpu:               4.0 elap:               0.1
 (Enter /public/software/gauss/g16/l202.exe)
 Stoichiometry    C33H25BF2N6O2
 Framework group  C1[X(C33H25BF2N6O2)]
 Deg. of freedom   201
 Full point group                 C1      NOp   1
 Largest Abelian subgroup         C1      NOp   1
 Largest concise Abelian subgroup C1      NOp   1
                         Standard orientation:                         
 ---------------------------------------------------------------------
 Center     Atomic      Atomic             Coordinates (Angstroms)
 Number     Number       Type             X           Y           Z
 ---------------------------------------------------------------------
      1          6           0        2.890344   -3.705367   -0.126405
      2          6           0        1.690141   -2.809002   -0.084897
      3          6           0        0.380835   -3.256239   -0.101152
      4          6           0       -0.485210   -2.133513   -0.067295
      5          6           0       -1.925474   -2.103368   -0.073652
      6          6           0       -2.696436   -3.215418    0.029272
      7          6           0       -4.152066   -3.267049    0.021836
      8          6           0       -4.786769   -4.518214    0.166022
      9          6           0       -6.170199   -4.634512    0.170814
     10          6           0       -6.962965   -3.489868    0.029473
     11          7           0       -8.366209   -3.696455    0.045770
     12          7           0       -9.113178   -2.717129   -0.071873
     13          7           0       -9.915630   -1.912620   -0.169141
     14          6           0       -6.356905   -2.231505   -0.117897
     15          6           0       -4.974056   -2.127781   -0.121135
     16          7           0        0.277482   -1.002107   -0.038135
     17          6           0        1.624210   -1.372570   -0.041310
     18          6           0        2.631467   -0.393223   -0.028476
     19          6           0        4.066116   -0.812511   -0.019107
     20          6           0        4.754099   -1.004741   -1.226544
     21          6           0        6.088858   -1.395028   -1.223968
     22          6           0        6.723724   -1.588550    0.002723
     23          7           0        8.125477   -1.998148    0.014121
     24          8           0        8.700145   -2.160642   -1.067249
     25          8           0        8.681131   -2.165622    1.104626
     26          6           0        6.065995   -1.404880    1.218856
     27          6           0        4.731181   -1.014748    1.199540
     28          6           0        2.311900    0.975030   -0.034050
     29          6           0        3.142297    2.148896   -0.067978
     30          6           0        4.636703    2.257664   -0.097194
     31          6           0        2.280814    3.231940   -0.086646
     32          6           0        0.946360    2.753548   -0.062802
     33          6           0       -0.283186    3.506424   -0.078888
     34          6           0       -0.329536    4.857737    0.023845
     35          6           0       -1.524697    5.696270    0.004813
     36          6           0       -1.364992    7.091960    0.124306
     37          6           0       -2.465429    7.946506    0.112952
     38          6           0       -3.754225    7.424807   -0.018085
     39          6           0       -3.931212    6.041303   -0.137236
     40          6           0       -2.834136    5.186032   -0.126360
     41          7           0        0.977922    1.389622   -0.036110
     42          5           0       -0.232430    0.445507    0.182526
     43          9           0       -1.250457    0.744536   -0.739144
     44          9           0       -0.735460    0.591392    1.482750
     45          1           0        3.502772   -3.529132   -1.016046
     46          1           0        3.539516   -3.563298    0.742811
     47          1           0        2.566116   -4.748990   -0.140468
     48          1           0        0.066894   -4.289539   -0.151390
     49          1           0       -2.386539   -1.127717   -0.173904
     50          1           0       -2.208857   -4.182366    0.135434
     51          1           0       -4.177452   -5.410458    0.276665
     52          1           0       -6.646527   -5.602533    0.283399
     53          1           0       -6.963848   -1.338281   -0.229911
     54          1           0       -4.528462   -1.145481   -0.237599
     55          1           0        4.242278   -0.848610   -2.169820
     56          1           0        6.628920   -1.546907   -2.149562
     57          1           0        6.588647   -1.564188    2.153174
     58          1           0        4.201826   -0.866313    2.134342
     59          1           0        5.064936    1.789522   -0.988868
     60          1           0        4.925786    3.311685   -0.097469
     61          1           0        5.100765    1.778856    0.770264
     62          1           0        2.574255    4.271456   -0.131622
     63          1           0       -1.196153    2.933228   -0.190202
     64          1           0        0.604788    5.404010    0.136788
     65          1           0       -0.362982    7.499855    0.226363
     66          1           0       -2.317159    9.018211    0.206275
     67          1           0       -4.614451    8.087272   -0.027157
     68          1           0       -4.931026    5.629683   -0.238980
     69          1           0       -2.995204    4.116940   -0.219282
 ---------------------------------------------------------------------
 Rotational constants (GHZ):           0.0735196           0.0374591           0.0252800
 Leave Link  202 at Tue Oct 28 20:09:18 2025, MaxMem= 30870077440 cpu:               0.2 elap:               0.0
 (Enter /public/software/gauss/g16/l301.exe)
 Standard basis: def2TZVPP (5D, 7F)
 Ernie: Thresh=  0.10000D-02 Tol=  0.10000D-05 Strict=F.
 There are  1959 symmetry adapted cartesian basis functions of A   symmetry.
 There are  1714 symmetry adapted basis functions of A   symmetry.
  1714 basis functions,  2669 primitive gaussians,  1959 cartesian basis functions
   152 alpha electrons      152 beta electrons
       nuclear repulsion energy      4649.8459629130 Hartrees.
 IExCor= 4336 DFT=T Ex+Corr=M062X ExCW=0 ScaHFX=  0.540000
 ScaDFX=  1.000000  1.000000  1.000000  1.000000 ScalE2=  1.000000  1.000000
 IRadAn=      5 IRanWt=     -1 IRanGd=            0 ICorTp=0 IEmpDi=131
 NAtoms=   69 NActive=   69 NUniq=   69 SFac= 1.00D+00 NAtFMM=   60 NAOKFM=T Big=T
 Integral buffers will be    131072 words long.
 Raffenetti 2 integral format.
 Two-electron integral symmetry is turned on.
 R6Disp:  Grimme-D3 Dispersion energy=       -0.0055427105 Hartrees.
 Nuclear repulsion after empirical dispersion term =     4649.8404202025 Hartrees.
 ------------------------------------------------------------------------------
 Polarizable Continuum Model (PCM)
 =================================
 Model                : PCM.
 Atomic radii         : UFF (Universal Force Field).
 Polarization charges : Total charges.
 Charge compensation  : None.
 Solution method      : On-the-fly selection.
 Cavity type          : Scaled VdW (van der Waals Surface) (Alpha=1.100).
 Cavity algorithm     : GePol (No added spheres)
                        Default sphere list used, NSphG=   69.
                        Lebedev-Laikov grids with approx.  5.0 points / Ang**2.
                        Smoothing algorithm: York/Karplus (Gamma=1.0000).
                        Polarization charges: spherical gaussians, with
                                              point-specific exponents (IZeta= 3).
                        Self-potential: point-specific (ISelfS= 7).
                        Self-field    : sphere-specific E.n sum rule (ISelfD= 2).
 Solvent              : Water, Eps=  78.355300 Eps(inf)=   1.777849
 ------------------------------------------------------------------------------
 GePol: Number of generator spheres                  =      69
 GePol: Total number of spheres                      =      69
 GePol: Number of exposed spheres                    =      69 (100.00%)
 GePol: Number of points                             =    5252
 GePol: Average weight of points                     =       0.13
 GePol: Minimum weight of points                     =   0.66D-11
 GePol: Maximum weight of points                     =    0.20577
 GePol: Number of points with low weight             =     356
 GePol: Fraction of low-weight points (<1% of avg)   =       6.78%
 GePol: Cavity surface area                          =    663.114 Ang**2
 GePol: Cavity volume                                =    761.083 Ang**3
 Leave Link  301 at Tue Oct 28 20:09:18 2025, MaxMem= 30870077440 cpu:               4.0 elap:               0.1
 (Enter /public/software/gauss/g16/l302.exe)
 NPDir=0 NMtPBC=     1 NCelOv=     1 NCel=       1 NClECP=     1 NCelD=      1
         NCelK=      1 NCelE2=     1 NClLst=     1 CellRange=     0.0.
 One-electron integrals computed using PRISM.
 One-electron integral symmetry used in STVInt
   1 Symmetry operations used in ECPInt.
 ECPInt:  NShTT=  201295 NPrTT=  584783 LenC2=  128203 LenP2D=  249782.
 LDataN:  DoStor=T MaxTD1= 6 Len=  172
 NBasis=  1714 RedAO= T EigKep=  3.60D-06  NBF=  1714
 NBsUse=  1714 1.00D-06 EigRej= -1.00D+00 NBFU=  1714
 Precomputing XC quadrature grid using
 IXCGrd= 4 IRadAn=           5 IRanWt=          -1 IRanGd=           0 AccXCQ= 0.00D+00.
 Generated NRdTot=       0 NPtTot=           0 NUsed=           0 NTot=          32
 NSgBfM=  1751  1748  1748  1751  1751 MxSgAt=    69 MxSgA2=    69.
 Leave Link  302 at Tue Oct 28 20:09:26 2025, MaxMem= 30870077440 cpu:             488.9 elap:               7.7
 (Enter /public/software/gauss/g16/l303.exe)
 DipDrv:  MaxL=1.
 Leave Link  303 at Tue Oct 28 20:09:26 2025, MaxMem= 30870077440 cpu:              23.8 elap:               0.4
 (Enter /public/software/gauss/g16/l401.exe)
 ExpMin= 6.06D-02 ExpMax= 3.55D+04 ExpMxC= 1.21D+03 IAcc=3 IRadAn=         5 AccDes= 0.00D+00
 Harris functional with IExCor= 1009 and IRadAn=       5 diagonalized for initial guess.
 HarFok:  IExCor= 1009 AccDes= 0.00D+00 IRadAn=         5 IDoV= 1 UseB2=F ITyADJ=14
 ICtDFT=  3500011 ScaDFX=  1.000000  1.000000  1.000000  1.000000
 FoFCou: FMM=F IPFlag=           0 FMFlag=      100000 FMFlg1=        2001
         NFxFlg=           0 DoJE=T BraDBF=F KetDBF=T FulRan=T
         wScrn=  0.000000 ICntrl=       500 IOpCl=  0 I1Cent=   200000004 NGrid=           0
         NMat0=    1 NMatS0=      1 NMatT0=    0 NMatD0=    1 NMtDS0=    0 NMtDT0=    0
 Petite list used in FoFCou.
 Harris En= -1975.07256911672    
 JPrj=0 DoOrth=F DoCkMO=F.
 Leave Link  401 at Tue Oct 28 20:09:35 2025, MaxMem= 30870077440 cpu:             561.3 elap:               8.8
 (Enter /public/software/gauss/g16/l502.exe)
 Integral symmetry usage will be decided dynamically.
 Closed shell SCF:
 Using DIIS extrapolation, IDIIS=  1040.
 NGot= 30870077440 LenX= 30862260289 LenY= 30858420649
 Requested convergence on RMS density matrix=1.00D-08 within 128 cycles.
 Requested convergence on MAX density matrix=1.00D-06.
 Requested convergence on             energy=1.00D-06.
 No special actions if energy rises.
 Fock matrices will be formed incrementally for  20 cycles.

 Cycle   1  Pass 1  IDiag  1:
 FoFJK:  IHMeth= 1 ICntrl=       0 DoSepK=F KAlg= 0 I1Cent=           0 FoldK=F
 IRaf= 600000000 NMat=       1 IRICut=       1 DoRegI=T DoRafI=F ISym2E= 0 IDoP0=0 IntGTp=1.
 FoFCou: FMM=T IPFlag=           0 FMFlag=      100000 FMFlg1=        2001
         NFxFlg=           0 DoJE=F BraDBF=F KetDBF=F FulRan=T
         wScrn=  0.000000 ICntrl=         0 IOpCl=  0 I1Cent=           0 NGrid=           0
         NMat0=    1 NMatS0=      1 NMatT0=    0 NMatD0=    1 NMtDS0=    0 NMtDT0=    0
 Symmetry not used in FoFCou.
 FMM levels:  10  Number of levels for PrismC:   9
 Inv3:  Mode=1 IEnd=    82750512.
 Iteration    1 A*A^-1 deviation from unit magnitude is 1.31D-14 for    633.
 Iteration    1 A*A^-1 deviation from orthogonality  is 6.56D-15 for   4894   1396.
 Iteration    1 A^-1*A deviation from unit magnitude is 1.35D-14 for    633.
 Iteration    1 A^-1*A deviation from orthogonality  is 4.52D-15 for   4276    567.
 E= -1975.06837690952    
 DIIS: error= 2.97D-02 at cycle   1 NSaved=   1.
 NSaved= 1 IEnMin= 1 EnMin= -1975.06837690952     IErMin= 1 ErrMin= 2.97D-02
 ErrMax= 2.97D-02  0.00D+00 EMaxC= 1.00D-01 BMatC= 1.33D+00 BMatP= 1.33D+00
 IDIUse=3 WtCom= 7.03D-01 WtEn= 2.97D-01
 Coeff-Com:  0.100D+01
 Coeff-En:   0.100D+01
 Coeff:      0.100D+01
 Gap=     0.164 Goal=   None    Shift=    0.000
 GapD=    0.164 DampG=1.000 DampE=0.500 DampFc=0.5000 IDamp=-1.
 Damping current iteration by 5.00D-01
 RMSDP=1.30D-03 MaxDP=8.85D-02              OVMax= 2.62D-01

 Cycle   2  Pass 1  IDiag  1:
 RMSU=  6.45D-04    CP:  9.81D-01
 E= -1975.56101747759     Delta-E=       -0.492640568066 Rises=F Damp=T
 DIIS: error= 5.40D-03 at cycle   2 NSaved=   2.
 NSaved= 2 IEnMin= 2 EnMin= -1975.56101747759     IErMin= 2 ErrMin= 5.40D-03
 ErrMax= 5.40D-03  0.00D+00 EMaxC= 1.00D-01 BMatC= 1.37D-01 BMatP= 1.33D+00
 IDIUse=3 WtCom= 9.46D-01 WtEn= 5.40D-02
 Coeff-Com: -0.613D-01 0.106D+01
 Coeff-En:   0.000D+00 0.100D+01
 Coeff:     -0.580D-01 0.106D+01
 Gap=     0.173 Goal=   None    Shift=    0.000
 RMSDP=6.36D-04 MaxDP=5.00D-02 DE=-4.93D-01 OVMax= 2.14D-01

 Cycle   3  Pass 1  IDiag  1:
 RMSU=  5.62D-04    CP:  9.62D-01  1.45D+00
 E= -1976.02955957721     Delta-E=       -0.468542099628 Rises=F Damp=F
 DIIS: error= 1.20D-02 at cycle   3 NSaved=   3.
 NSaved= 3 IEnMin= 3 EnMin= -1976.02955957721     IErMin= 2 ErrMin= 5.40D-03
 ErrMax= 1.20D-02  0.00D+00 EMaxC= 1.00D-01 BMatC= 7.98D-02 BMatP= 1.37D-01
 IDIUse=3 WtCom= 8.80D-01 WtEn= 1.20D-01
 Coeff-Com: -0.117D+00 0.491D+00 0.626D+00
 Coeff-En:   0.000D+00 0.000D+00 0.100D+01
 Coeff:     -0.103D+00 0.432D+00 0.671D+00
 Gap=     0.133 Goal=   None    Shift=    0.000
 RMSDP=1.80D-04 MaxDP=2.83D-02 DE=-4.69D-01 OVMax= 7.92D-02

 Cycle   4  Pass 1  IDiag  1:
 RMSU=  1.73D-04    CP:  9.63D-01  1.47D+00  9.14D-01
 E= -1976.07674054302     Delta-E=       -0.047180965805 Rises=F Damp=F
 DIIS: error= 4.34D-03 at cycle   4 NSaved=   4.
 NSaved= 4 IEnMin= 4 EnMin= -1976.07674054302     IErMin= 4 ErrMin= 4.34D-03
 ErrMax= 4.34D-03  0.00D+00 EMaxC= 1.00D-01 BMatC= 1.73D-02 BMatP= 7.98D-02
 IDIUse=3 WtCom= 9.57D-01 WtEn= 4.34D-02
 Coeff-Com: -0.391D-01 0.111D+00 0.363D+00 0.564D+00
 Coeff-En:   0.000D+00 0.000D+00 0.177D+00 0.823D+00
 Coeff:     -0.374D-01 0.107D+00 0.355D+00 0.576D+00
 Gap=     0.134 Goal=   None    Shift=    0.000
 RMSDP=7.16D-05 MaxDP=1.33D-02 DE=-4.72D-02 OVMax= 2.50D-02

 Cycle   5  Pass 1  IDiag  1:
 RMSU=  5.44D-05    CP:  9.62D-01  1.47D+00  9.39D-01  7.44D-01
 E= -1976.08916881015     Delta-E=       -0.012428267130 Rises=F Damp=F
 DIIS: error= 1.10D-03 at cycle   5 NSaved=   5.
 NSaved= 5 IEnMin= 5 EnMin= -1976.08916881015     IErMin= 5 ErrMin= 1.10D-03
 ErrMax= 1.10D-03  0.00D+00 EMaxC= 1.00D-01 BMatC= 1.41D-03 BMatP= 1.73D-02
 IDIUse=3 WtCom= 9.89D-01 WtEn= 1.10D-02
 Coeff-Com: -0.144D-01 0.312D-01 0.166D+00 0.333D+00 0.485D+00
 Coeff-En:   0.000D+00 0.000D+00 0.000D+00 0.000D+00 0.100D+01
 Coeff:     -0.143D-01 0.309D-01 0.164D+00 0.329D+00 0.490D+00
 Gap=     0.135 Goal=   None    Shift=    0.000
 RMSDP=2.17D-05 MaxDP=5.73D-03 DE=-1.24D-02 OVMax= 1.19D-02

 Cycle   6  Pass 1  IDiag  1:
 RMSU=  1.85D-05    CP:  9.62D-01  1.47D+00  9.39D-01  7.63D-01  8.03D-01
 E= -1976.09029195414     Delta-E=       -0.001123143993 Rises=F Damp=F
 DIIS: error= 3.61D-04 at cycle   6 NSaved=   6.
 NSaved= 6 IEnMin= 6 EnMin= -1976.09029195414     IErMin= 6 ErrMin= 3.61D-04
 ErrMax= 3.61D-04  0.00D+00 EMaxC= 1.00D-01 BMatC= 1.44D-04 BMatP= 1.41D-03
 IDIUse=3 WtCom= 9.96D-01 WtEn= 3.61D-03
 Coeff-Com: -0.281D-02 0.286D-02 0.434D-01 0.106D+00 0.277D+00 0.573D+00
 Coeff-En:   0.000D+00 0.000D+00 0.000D+00 0.000D+00 0.245D-01 0.975D+00
 Coeff:     -0.280D-02 0.285D-02 0.433D-01 0.105D+00 0.276D+00 0.575D+00
 Gap=     0.136 Goal=   None    Shift=    0.000
 RMSDP=1.07D-05 MaxDP=2.20D-03 DE=-1.12D-03 OVMax= 2.89D-03

 Cycle   7  Pass 1  IDiag  1:
 RMSU=  9.12D-06    CP:  9.62D-01  1.47D+00  9.42D-01  7.57D-01  8.95D-01
                    CP:  9.24D-01
 E= -1976.09042566585     Delta-E=       -0.000133711712 Rises=F Damp=F
 DIIS: error= 6.59D-05 at cycle   7 NSaved=   7.
 NSaved= 7 IEnMin= 7 EnMin= -1976.09042566585     IErMin= 7 ErrMin= 6.59D-05
 ErrMax= 6.59D-05  0.00D+00 EMaxC= 1.00D-01 BMatC= 9.86D-06 BMatP= 1.44D-04
 IDIUse=1 WtCom= 1.00D+00 WtEn= 0.00D+00
 Coeff-Com:  0.129D-02-0.383D-02-0.111D-01-0.159D-01 0.240D-01 0.209D+00
 Coeff-Com:  0.797D+00
 Coeff:      0.129D-02-0.383D-02-0.111D-01-0.159D-01 0.240D-01 0.209D+00
 Coeff:      0.797D+00
 Gap=     0.136 Goal=   None    Shift=    0.000
 RMSDP=4.96D-06 MaxDP=6.65D-04 DE=-1.34D-04 OVMax= 2.59D-03

 Cycle   8  Pass 1  IDiag  1:
 RMSU=  3.68D-06    CP:  9.62D-01  1.47D+00  9.43D-01  7.58D-01  9.37D-01
                    CP:  9.84D-01  1.22D+00
 E= -1976.09044452146     Delta-E=       -0.000018855604 Rises=F Damp=F
 DIIS: error= 3.61D-05 at cycle   8 NSaved=   8.
 NSaved= 8 IEnMin= 8 EnMin= -1976.09044452146     IErMin= 8 ErrMin= 3.61D-05
 ErrMax= 3.61D-05  0.00D+00 EMaxC= 1.00D-01 BMatC= 1.67D-06 BMatP= 9.86D-06
 IDIUse=1 WtCom= 1.00D+00 WtEn= 0.00D+00
 Coeff-Com:  0.892D-03-0.186D-02-0.104D-01-0.213D-01-0.327D-01-0.961D-02
 Coeff-Com:  0.309D+00 0.766D+00
 Coeff:      0.892D-03-0.186D-02-0.104D-01-0.213D-01-0.327D-01-0.961D-02
 Coeff:      0.309D+00 0.766D+00
 Gap=     0.137 Goal=   None    Shift=    0.000
 RMSDP=2.26D-06 MaxDP=2.20D-04 DE=-1.89D-05 OVMax= 1.60D-03

 Cycle   9  Pass 1  IDiag  1:
 RMSU=  1.46D-06    CP:  9.62D-01  1.47D+00  9.43D-01  7.60D-01  9.52D-01
                    CP:  1.02D+00  1.35D+00  1.08D+00
 E= -1976.09044882076     Delta-E=       -0.000004299307 Rises=F Damp=F
 DIIS: error= 1.26D-05 at cycle   9 NSaved=   9.
 NSaved= 9 IEnMin= 9 EnMin= -1976.09044882076     IErMin= 9 ErrMin= 1.26D-05
 ErrMax= 1.26D-05  0.00D+00 EMaxC= 1.00D-01 BMatC= 3.78D-07 BMatP= 1.67D-06
 IDIUse=1 WtCom= 1.00D+00 WtEn= 0.00D+00
 Coeff-Com:  0.186D-03-0.219D-03-0.275D-02-0.676D-02-0.187D-01-0.387D-01
 Coeff-Com:  0.500D-02 0.324D+00 0.738D+00
 Coeff:      0.186D-03-0.219D-03-0.275D-02-0.676D-02-0.187D-01-0.387D-01
 Coeff:      0.500D-02 0.324D+00 0.738D+00
 Gap=     0.137 Goal=   None    Shift=    0.000
 RMSDP=1.21D-06 MaxDP=1.75D-04 DE=-4.30D-06 OVMax= 8.82D-04

 Cycle  10  Pass 1  IDiag  1:
 RMSU=  6.36D-07    CP:  9.62D-01  1.47D+00  9.44D-01  7.59D-01  9.57D-01
                    CP:  1.03D+00  1.43D+00  1.23D+00  1.20D+00
 E= -1976.09044983634     Delta-E=       -0.000001015580 Rises=F Damp=F
 DIIS: error= 7.31D-06 at cycle  10 NSaved=  10.
 NSaved=10 IEnMin=10 EnMin= -1976.09044983634     IErMin=10 ErrMin= 7.31D-06
 ErrMax= 7.31D-06  0.00D+00 EMaxC= 1.00D-01 BMatC= 8.15D-08 BMatP= 3.78D-07
 IDIUse=1 WtCom= 1.00D+00 WtEn= 0.00D+00
 Coeff-Com: -0.152D-03 0.390D-03 0.167D-02 0.303D-02 0.771D-03-0.125D-01
 Coeff-Com: -0.747D-01-0.597D-01 0.305D+00 0.836D+00
 Coeff:     -0.152D-03 0.390D-03 0.167D-02 0.303D-02 0.771D-03-0.125D-01
 Coeff:     -0.747D-01-0.597D-01 0.305D+00 0.836D+00
 Gap=     0.137 Goal=   None    Shift=    0.000
 RMSDP=6.58D-07 MaxDP=6.48D-05 DE=-1.02D-06 OVMax= 6.16D-04

 Cycle  11  Pass 1  IDiag  1:
 RMSU=  3.69D-07    CP:  9.62D-01  1.47D+00  9.44D-01  7.59D-01  9.59D-01
                    CP:  1.03D+00  1.46D+00  1.29D+00  1.45D+00  1.26D+00
 E= -1976.09045013898     Delta-E=       -0.000000302633 Rises=F Damp=F
 DIIS: error= 3.59D-06 at cycle  11 NSaved=  11.
 NSaved=11 IEnMin=11 EnMin= -1976.09045013898     IErMin=11 ErrMin= 3.59D-06
 ErrMax= 3.59D-06  0.00D+00 EMaxC= 1.00D-01 BMatC= 1.72D-08 BMatP= 8.15D-08
 IDIUse=1 WtCom= 1.00D+00 WtEn= 0.00D+00
 Coeff-Com: -0.840D-04 0.178D-03 0.111D-02 0.241D-02 0.325D-02 0.191D-02
 Coeff-Com: -0.295D-01-0.805D-01-0.197D-01 0.318D+00 0.803D+00
 Coeff:     -0.840D-04 0.178D-03 0.111D-02 0.241D-02 0.325D-02 0.191D-02
 Coeff:     -0.295D-01-0.805D-01-0.197D-01 0.318D+00 0.803D+00
 Gap=     0.137 Goal=   None    Shift=    0.000
 RMSDP=3.15D-07 MaxDP=2.63D-05 DE=-3.03D-07 OVMax= 3.15D-04

 Cycle  12  Pass 1  IDiag  1:
 RMSU=  1.70D-07    CP:  9.62D-01  1.47D+00  9.44D-01  7.58D-01  9.58D-01
                    CP:  1.03D+00  1.46D+00  1.32D+00  1.55D+00  1.52D+00
                    CP:  1.11D+00
 E= -1976.09045020414     Delta-E=       -0.000000065159 Rises=F Damp=F
 DIIS: error= 2.30D-06 at cycle  12 NSaved=  12.
 NSaved=12 IEnMin=12 EnMin= -1976.09045020414     IErMin=12 ErrMin= 2.30D-06
 ErrMax= 2.30D-06  0.00D+00 EMaxC= 1.00D-01 BMatC= 5.53D-09 BMatP= 1.72D-08
 IDIUse=1 WtCom= 1.00D+00 WtEn= 0.00D+00
 Coeff-Com: -0.271D-06-0.156D-04 0.114D-03 0.430D-03 0.116D-02 0.371D-02
 Coeff-Com:  0.342D-02-0.232D-01-0.818D-01-0.516D-01 0.404D+00 0.743D+00
 Coeff:     -0.271D-06-0.156D-04 0.114D-03 0.430D-03 0.116D-02 0.371D-02
 Coeff:      0.342D-02-0.232D-01-0.818D-01-0.516D-01 0.404D+00 0.743D+00
 Gap=     0.137 Goal=   None    Shift=    0.000
 RMSDP=1.55D-07 MaxDP=1.46D-05 DE=-6.52D-08 OVMax= 1.66D-04

 Cycle  13  Pass 1  IDiag  1:
 RMSU=  6.62D-08    CP:  9.62D-01  1.47D+00  9.44D-01  7.58D-01  9.58D-01
                    CP:  1.03D+00  1.47D+00  1.33D+00  1.60D+00  1.61D+00
                    CP:  1.32D+00  1.23D+00
 E= -1976.09045022177     Delta-E=       -0.000000017635 Rises=F Damp=F
 DIIS: error= 8.50D-07 at cycle  13 NSaved=  13.
 NSaved=13 IEnMin=13 EnMin= -1976.09045022177     IErMin=13 ErrMin= 8.50D-07
 ErrMax= 8.50D-07  0.00D+00 EMaxC= 1.00D-01 BMatC= 1.02D-09 BMatP= 5.53D-09
 IDIUse=1 WtCom= 1.00D+00 WtEn= 0.00D+00
 Coeff-Com:  0.222D-04-0.541D-04-0.238D-03-0.432D-03-0.312D-03 0.138D-02
 Coeff-Com:  0.101D-01 0.117D-01-0.341D-01-0.116D+00-0.225D-01 0.311D+00
 Coeff-Com:  0.839D+00
 Coeff:      0.222D-04-0.541D-04-0.238D-03-0.432D-03-0.312D-03 0.138D-02
 Coeff:      0.101D-01 0.117D-01-0.341D-01-0.116D+00-0.225D-01 0.311D+00
 Coeff:      0.839D+00
 Gap=     0.137 Goal=   None    Shift=    0.000
 RMSDP=8.49D-08 MaxDP=1.01D-05 DE=-1.76D-08 OVMax= 8.92D-05

 Cycle  14  Pass 1  IDiag  1:
 RMSU=  2.97D-08    CP:  9.62D-01  1.47D+00  9.44D-01  7.58D-01  9.58D-01
                    CP:  1.04D+00  1.47D+00  1.33D+00  1.62D+00  1.67D+00
                    CP:  1.43D+00  1.48D+00  1.26D+00
 E= -1976.09045022596     Delta-E=       -0.000000004191 Rises=F Damp=F
 DIIS: error= 3.53D-07 at cycle  14 NSaved=  14.
 NSaved=14 IEnMin=14 EnMin= -1976.09045022596     IErMin=14 ErrMin= 3.53D-07
 ErrMax= 3.53D-07  0.00D+00 EMaxC= 1.00D-01 BMatC= 1.76D-10 BMatP= 1.02D-09
 IDIUse=1 WtCom= 1.00D+00 WtEn= 0.00D+00
 Coeff-Com:  0.740D-05-0.158D-04-0.103D-03-0.225D-03-0.294D-03-0.193D-03
 Coeff-Com:  0.288D-02 0.818D-02 0.203D-02-0.329D-01-0.718D-01-0.259D-01
 Coeff-Com:  0.330D+00 0.789D+00
 Coeff:      0.740D-05-0.158D-04-0.103D-03-0.225D-03-0.294D-03-0.193D-03
 Coeff:      0.288D-02 0.818D-02 0.203D-02-0.329D-01-0.718D-01-0.259D-01
 Coeff:      0.330D+00 0.789D+00
 Gap=     0.137 Goal=   None    Shift=    0.000
 RMSDP=2.80D-08 MaxDP=3.04D-06 DE=-4.19D-09 OVMax= 2.86D-05

 Cycle  15  Pass 1  IDiag  1:
 RMSU=  1.19D-08    CP:  9.62D-01  1.47D+00  9.44D-01  7.58D-01  9.58D-01
                    CP:  1.04D+00  1.47D+00  1.34D+00  1.63D+00  1.68D+00
                    CP:  1.47D+00  1.54D+00  1.45D+00  1.24D+00
 E= -1976.09045022670     Delta-E=       -0.000000000737 Rises=F Damp=F
 DIIS: error= 1.10D-07 at cycle  15 NSaved=  15.
 NSaved=15 IEnMin=15 EnMin= -1976.09045022670     IErMin=15 ErrMin= 1.10D-07
 ErrMax= 1.10D-07  0.00D+00 EMaxC= 1.00D-01 BMatC= 3.24D-11 BMatP= 1.76D-10
 IDIUse=1 WtCom= 1.00D+00 WtEn= 0.00D+00
 Coeff-Com: -0.770D-06 0.280D-05-0.327D-05-0.253D-04-0.645D-04-0.326D-03
 Coeff-Com: -0.450D-03 0.155D-02 0.628D-02 0.492D-02-0.247D-01-0.703D-01
 Coeff-Com: -0.383D-02 0.326D+00 0.761D+00
 Coeff:     -0.770D-06 0.280D-05-0.327D-05-0.253D-04-0.645D-04-0.326D-03
 Coeff:     -0.450D-03 0.155D-02 0.628D-02 0.492D-02-0.247D-01-0.703D-01
 Coeff:     -0.383D-02 0.326D+00 0.761D+00
 Gap=     0.137 Goal=   None    Shift=    0.000
 RMSDP=1.13D-08 MaxDP=1.09D-06 DE=-7.37D-10 OVMax= 1.04D-05

 Cycle  16  Pass 1  IDiag  1:
 RMSU=  5.15D-09    CP:  9.62D-01  1.47D+00  9.44D-01  7.58D-01  9.58D-01
                    CP:  1.04D+00  1.47D+00  1.34D+00  1.63D+00  1.68D+00
                    CP:  1.48D+00  1.57D+00  1.53D+00  1.37D+00  1.18D+00
 E= -1976.09045022688     Delta-E=       -0.000000000177 Rises=F Damp=F
 DIIS: error= 3.95D-08 at cycle  16 NSaved=  16.
 NSaved=16 IEnMin=16 EnMin= -1976.09045022688     IErMin=16 ErrMin= 3.95D-08
 ErrMax= 3.95D-08  0.00D+00 EMaxC= 1.00D-01 BMatC= 5.64D-12 BMatP= 3.24D-11
 IDIUse=1 WtCom= 1.00D+00 WtEn= 0.00D+00
 Coeff-Com: -0.143D-05 0.350D-05 0.143D-04 0.227D-04 0.206D-04-0.107D-03
 Coeff-Com: -0.628D-03-0.578D-03 0.221D-02 0.732D-02 0.239D-02-0.256D-01
 Coeff-Com: -0.523D-01-0.816D-02 0.313D+00 0.762D+00
 Coeff:     -0.143D-05 0.350D-05 0.143D-04 0.227D-04 0.206D-04-0.107D-03
 Coeff:     -0.628D-03-0.578D-03 0.221D-02 0.732D-02 0.239D-02-0.256D-01
 Coeff:     -0.523D-01-0.816D-02 0.313D+00 0.762D+00
 Gap=     0.137 Goal=   None    Shift=    0.000
 RMSDP=3.85D-09 MaxDP=3.50D-07 DE=-1.77D-10 OVMax= 3.01D-06

 Error on total polarization charges =  0.02388
 SCF Done:  E(RM062X) =  -1976.09045023     A.U. after   16 cycles
            NFock= 16  Conv=0.38D-08     -V/T= 2.0054
 KE= 1.965526096363D+03 PE=-1.390481493645D+04 EE= 5.313357969659D+03
 Leave Link  502 at Tue Oct 28 20:23:47 2025, MaxMem= 30870077440 cpu:           53560.7 elap:             851.5
 (Enter /public/software/gauss/g16/l601.exe)
 Copying SCF densities to generalized density rwf, IOpCl= 0 IROHF=0.

 **********************************************************************

            Population analysis using the SCF density.

 **********************************************************************

 Orbital symmetries:
       Occupied  (A) (A) (A) (A) (A) (A) (A) (A) (A) (A) (A) (A)
                 (A) (A) (A) (A) (A) (A) (A) (A) (A) (A) (A) (A)
                 (A) (A) (A) (A) (A) (A) (A) (A) (A) (A) (A) (A)
                 (A) (A) (A) (A) (A) (A) (A) (A) (A) (A) (A) (A)
                 (A) (A) (A) (A) (A) (A) (A) (A) (A) (A) (A) (A)
                 (A) (A) (A) (A) (A) (A) (A) (A) (A) (A) (A) (A)
                 (A) (A) (A) (A) (A) (A) (A) (A) (A) (A) (A) (A)
                 (A) (A) (A) (A) (A) (A) (A) (A) (A) (A) (A) (A)
                 (A) (A) (A) (A) (A) (A) (A) (A) (A) (A) (A) (A)
                 (A) (A) (A) (A) (A) (A) (A) (A) (A) (A) (A) (A)
                 (A) (A) (A) (A) (A) (A) (A) (A) (A) (A) (A) (A)
                 (A) (A) (A) (A) (A) (A) (A) (A) (A) (A) (A) (A)
                 (A) (A) (A) (A) (A) (A) (A) (A)
       Virtual   (A) (A) (A) (A) (A) (A) (A) (A) (A) (A) (A) (A)
                 (A) (A) (A) (A) (A) (A) (A) (A) (A) (A) (A) (A)
                 (A) (A) (A) (A) (A) (A) (A) (A) (A) (A) (A) (A)
                 (A) (A) (A) (A) (A) (A) (A) (A) (A) (A) (A) (A)
                 (A) (A) (A) (A) (A) (A) (A) (A) (A) (A) (A) (A)
                 (A) (A) (A) (A) (A) (A) (A) (A) (A) (A) (A) (A)
                 (A) (A) (A) (A) (A) (A) (A) (A) (A) (A) (A) (A)
                 (A) (A) (A) (A) (A) (A) (A) (A) (A) (A) (A) (A)
                 (A) (A) (A) (A) (A) (A) (A) (A) (A) (A) (A) (A)
                 (A) (A) (A) (A) (A) (A) (A) (A) (A) (A) (A) (A)
                 (A) (A) (A) (A) (A) (A) (A) (A) (A) (A) (A) (A)
                 (A) (A) (A) (A) (A) (A) (A) (A) (A) (A) (A) (A)
                 (A) (A) (A) (A) (A) (A) (A) (A) (A) (A) (A) (A)
                 (A) (A) (A) (A) (A) (A) (A) (A) (A) (A) (A) (A)
                 (A) (A) (A) (A) (A) (A) (A) (A) (A) (A) (A) (A)
                 (A) (A) (A) (A) (A) (A) (A) (A) (A) (A) (A) (A)
                 (A) (A) (A) (A) (A) (A) (A) (A) (A) (A) (A) (A)
                 (A) (A) (A) (A) (A) (A) (A) (A) (A) (A) (A) (A)
                 (A) (A) (A) (A) (A) (A) (A) (A) (A) (A) (A) (A)
                 (A) (A) (A) (A) (A) (A) (A) (A) (A) (A) (A) (A)
                 (A) (A) (A) (A) (A) (A) (A) (A) (A) (A) (A) (A)
                 (A) (A) (A) (A) (A) (A) (A) (A) (A) (A) (A) (A)
                 (A) (A) (A) (A) (A) (A) (A) (A) (A) (A) (A) (A)
                 (A) (A) (A) (A) (A) (A) (A) (A) (A) (A) (A) (A)
                 (A) (A) (A) (A) (A) (A) (A) (A) (A) (A) (A) (A)
                 (A) (A) (A) (A) (A) (A) (A) (A) (A) (A) (A) (A)
                 (A) (A) (A) (A) (A) (A) (A) (A) (A) (A) (A) (A)
                 (A) (A) (A) (A) (A) (A) (A) (A) (A) (A) (A) (A)
                 (A) (A) (A) (A) (A) (A) (A) (A) (A) (A) (A) (A)
                 (A) (A) (A) (A) (A) (A) (A) (A) (A) (A) (A) (A)
                 (A) (A) (A) (A) (A) (A) (A) (A) (A) (A) (A) (A)
                 (A) (A) (A) (A) (A) (A) (A) (A) (A) (A) (A) (A)
                 (A) (A) (A) (A) (A) (A) (A) (A) (A) (A) (A) (A)
                 (A) (A) (A) (A) (A) (A) (A) (A) (A) (A) (A) (A)
                 (A) (A) (A) (A) (A) (A) (A) (A) (A) (A) (A) (A)
                 (A) (A) (A) (A) (A) (A) (A) (A) (A) (A) (A) (A)
                 (A) (A) (A) (A) (A) (A) (A) (A) (A) (A) (A) (A)
                 (A) (A) (A) (A) (A) (A) (A) (A) (A) (A) (A) (A)
                 (A) (A) (A) (A) (A) (A) (A) (A) (A) (A) (A) (A)
                 (A) (A) (A) (A) (A) (A) (A) (A) (A) (A) (A) (A)
                 (A) (A) (A) (A) (A) (A) (A) (A) (A) (A) (A) (A)
                 (A) (A) (A) (A) (A) (A) (A) (A) (A) (A) (A) (A)
                 (A) (A) (A) (A) (A) (A) (A) (A) (A) (A) (A) (A)
                 (A) (A) (A) (A) (A) (A) (A) (A) (A) (A) (A) (A)
                 (A) (A) (A) (A) (A) (A) (A) (A) (A) (A) (A) (A)
                 (A) (A) (A) (A) (A) (A) (A) (A) (A) (A) (A) (A)
                 (A) (A) (A) (A) (A) (A) (A) (A) (A) (A) (A) (A)
                 (A) (A) (A) (A) (A) (A) (A) (A) (A) (A) (A) (A)
                 (A) (A) (A) (A) (A) (A) (A) (A) (A) (A) (A) (A)
                 (A) (A) (A) (A) (A) (A) (A) (A) (A) (A) (A) (A)
                 (A) (A) (A) (A) (A) (A) (A) (A) (A) (A) (A) (A)
                 (A) (A) (A) (A) (A) (A) (A) (A) (A) (A) (A) (A)
                 (A) (A) (A) (A) (A) (A) (A) (A) (A) (A) (A) (A)
                 (A) (A) (A) (A) (A) (A) (A) (A) (A) (A) (A) (A)
                 (A) (A) (A) (A) (A) (A) (A) (A) (A) (A) (A) (A)
                 (A) (A) (A) (A) (A) (A) (A) (A) (A) (A) (A) (A)
                 (A) (A) (A) (A) (A) (A) (A) (A) (A) (A) (A) (A)
                 (A) (A) (A) (A) (A) (A) (A) (A) (A) (A) (A) (A)
                 (A) (A) (A) (A) (A) (A) (A) (A) (A) (A) (A) (A)
                 (A) (A) (A) (A) (A) (A) (A) (A) (A) (A) (A) (A)
                 (A) (A) (A) (A) (A) (A) (A) (A) (A) (A) (A) (A)
                 (A) (A) (A) (A) (A) (A) (A) (A) (A) (A) (A) (A)
                 (A) (A) (A) (A) (A) (A) (A) (A) (A) (A) (A) (A)
                 (A) (A) (A) (A) (A) (A) (A) (A) (A) (A) (A) (A)
                 (A) (A) (A) (A) (A) (A) (A) (A) (A) (A) (A) (A)
                 (A) (A) (A) (A) (A) (A) (A) (A) (A) (A) (A) (A)
                 (A) (A) (A) (A) (A) (A) (A) (A) (A) (A) (A) (A)
                 (A) (A) (A) (A) (A) (A) (A) (A) (A) (A) (A) (A)
                 (A) (A) (A) (A) (A) (A) (A) (A) (A) (A) (A) (A)
                 (A) (A) (A) (A) (A) (A) (A) (A) (A) (A) (A) (A)
                 (A) (A) (A) (A) (A) (A) (A) (A) (A) (A) (A) (A)
                 (A) (A) (A) (A) (A) (A) (A) (A) (A) (A) (A) (A)
                 (A) (A) (A) (A) (A) (A) (A) (A) (A) (A) (A) (A)
                 (A) (A) (A) (A) (A) (A) (A) (A) (A) (A) (A) (A)
                 (A) (A) (A) (A) (A) (A) (A) (A) (A) (A) (A) (A)
                 (A) (A) (A) (A) (A) (A) (A) (A) (A) (A) (A) (A)
                 (A) (A) (A) (A) (A) (A) (A) (A) (A) (A) (A) (A)
                 (A) (A) (A) (A) (A) (A) (A) (A) (A) (A) (A) (A)
                 (A) (A) (A) (A) (A) (A) (A) (A) (A) (A) (A) (A)
                 (A) (A) (A) (A) (A) (A) (A) (A) (A) (A) (A) (A)
                 (A) (A) (A) (A) (A) (A) (A) (A) (A) (A) (A) (A)
                 (A) (A) (A) (A) (A) (A) (A) (A) (A) (A) (A) (A)
                 (A) (A) (A) (A) (A) (A) (A) (A) (A) (A) (A) (A)
                 (A) (A) (A) (A) (A) (A) (A) (A) (A) (A) (A) (A)
                 (A) (A) (A) (A) (A) (A) (A) (A) (A) (A) (A) (A)
                 (A) (A) (A) (A) (A) (A) (A) (A) (A) (A) (A) (A)
                 (A) (A) (A) (A) (A) (A) (A) (A) (A) (A) (A) (A)
                 (A) (A) (A) (A) (A) (A) (A) (A) (A) (A) (A) (A)
                 (A) (A) (A) (A) (A) (A) (A) (A) (A) (A) (A) (A)
                 (A) (A) (A) (A) (A) (A) (A) (A) (A) (A) (A) (A)
                 (A) (A) (A) (A) (A) (A) (A) (A) (A) (A) (A) (A)
                 (A) (A) (A) (A) (A) (A) (A) (A) (A) (A) (A) (A)
                 (A) (A) (A) (A) (A) (A) (A) (A) (A) (A) (A) (A)
                 (A) (A) (A) (A) (A) (A) (A) (A) (A) (A) (A) (A)
                 (A) (A) (A) (A) (A) (A) (A) (A) (A) (A) (A) (A)
                 (A) (A) (A) (A) (A) (A) (A) (A) (A) (A) (A) (A)
                 (A) (A) (A) (A) (A) (A) (A) (A) (A) (A) (A) (A)
                 (A) (A) (A) (A) (A) (A) (A) (A) (A) (A) (A) (A)
                 (A) (A) (A) (A) (A) (A) (A) (A) (A) (A) (A) (A)
                 (A) (A) (A) (A) (A) (A) (A) (A) (A) (A) (A) (A)
                 (A) (A) (A) (A) (A) (A) (A) (A) (A) (A) (A) (A)
                 (A) (A) (A) (A) (A) (A) (A) (A) (A) (A) (A) (A)
                 (A) (A) (A) (A) (A) (A) (A) (A) (A) (A) (A) (A)
                 (A) (A) (A) (A) (A) (A) (A) (A) (A) (A) (A) (A)
                 (A) (A) (A) (A) (A) (A) (A) (A) (A) (A) (A) (A)
                 (A) (A) (A) (A) (A) (A) (A) (A) (A) (A) (A) (A)
                 (A) (A) (A) (A) (A) (A) (A) (A) (A) (A) (A) (A)
                 (A) (A) (A) (A) (A) (A) (A) (A) (A) (A) (A) (A)
                 (A) (A) (A) (A) (A) (A) (A) (A) (A) (A) (A) (A)
                 (A) (A) (A) (A) (A) (A) (A) (A) (A) (A) (A) (A)
                 (A) (A) (A) (A) (A) (A) (A) (A) (A) (A) (A) (A)
                 (A) (A) (A) (A) (A) (A) (A) (A) (A) (A) (A) (A)
                 (A) (A) (A) (A) (A) (A) (A) (A) (A) (A) (A) (A)
                 (A) (A) (A) (A) (A) (A) (A) (A) (A) (A) (A) (A)
                 (A) (A) (A) (A) (A) (A) (A) (A) (A) (A) (A) (A)
                 (A) (A) (A) (A) (A) (A) (A) (A) (A) (A) (A) (A)
                 (A) (A) (A) (A) (A) (A) (A) (A) (A) (A) (A) (A)
                 (A) (A) (A) (A) (A) (A) (A) (A) (A) (A) (A) (A)
                 (A) (A) (A) (A) (A) (A) (A) (A) (A) (A) (A) (A)
                 (A) (A) (A) (A) (A) (A) (A) (A) (A) (A) (A) (A)
                 (A) (A) (A) (A) (A) (A) (A) (A) (A) (A) (A) (A)
                 (A) (A) (A) (A) (A) (A) (A) (A) (A) (A) (A) (A)
                 (A) (A) (A) (A) (A) (A) (A) (A) (A) (A) (A) (A)
                 (A) (A) (A) (A) (A) (A) (A) (A) (A) (A) (A) (A)
                 (A) (A) (A) (A) (A) (A) (A) (A) (A) (A) (A) (A)
                 (A) (A) (A) (A) (A) (A) (A) (A) (A) (A) (A) (A)
                 (A) (A) (A) (A) (A) (A) (A) (A) (A) (A) (A) (A)
                 (A) (A) (A) (A) (A) (A) (A) (A) (A) (A) (A) (A)
                 (A) (A) (A) (A) (A) (A) (A) (A) (A) (A) (A) (A)
                 (A) (A) (A) (A) (A) (A) (A) (A) (A) (A) (A) (A)
                 (A) (A)
 The electronic state is 1-A.
 Alpha  occ. eigenvalues --  -25.20812 -25.20594 -19.68071 -19.68069 -15.01545
 Alpha  occ. eigenvalues --  -14.95299 -14.85472 -14.82088 -14.78752 -14.78749
 Alpha  occ. eigenvalues --  -10.62188 -10.61271 -10.60717 -10.60670 -10.60654
 Alpha  occ. eigenvalues --  -10.59415 -10.59366 -10.59345 -10.58272 -10.58267
 Alpha  occ. eigenvalues --  -10.57581 -10.57579 -10.57351 -10.57319 -10.56919
 Alpha  occ. eigenvalues --  -10.56779 -10.56737 -10.56556 -10.56304 -10.56184
 Alpha  occ. eigenvalues --  -10.56101 -10.56045 -10.56039 -10.55771 -10.55443
 Alpha  occ. eigenvalues --  -10.55408 -10.55292 -10.55175 -10.55116 -10.54552
 Alpha  occ. eigenvalues --  -10.54517 -10.54242 -10.54231  -7.13457  -1.37071
 Alpha  occ. eigenvalues --   -1.32642  -1.29390  -1.28193  -1.18585  -1.11103
 Alpha  occ. eigenvalues --   -1.10948  -1.09032  -1.01239  -0.98312  -0.97456
 Alpha  occ. eigenvalues --   -0.95701  -0.92602  -0.92045  -0.91237  -0.90627
 Alpha  occ. eigenvalues --   -0.89740  -0.87964  -0.86985  -0.86292  -0.85435
 Alpha  occ. eigenvalues --   -0.85074  -0.81869  -0.81236  -0.80502  -0.79463
 Alpha  occ. eigenvalues --   -0.76739  -0.74121  -0.72840  -0.72170  -0.71445
 Alpha  occ. eigenvalues --   -0.70379  -0.69747  -0.69251  -0.67673  -0.66458
 Alpha  occ. eigenvalues --   -0.66260  -0.65338  -0.64994  -0.64304  -0.63532
 Alpha  occ. eigenvalues --   -0.63012  -0.62086  -0.61826  -0.61504  -0.60898
 Alpha  occ. eigenvalues --   -0.60687  -0.59602  -0.58704  -0.58277  -0.57566
 Alpha  occ. eigenvalues --   -0.56276  -0.55886  -0.55839  -0.54562  -0.54291
 Alpha  occ. eigenvalues --   -0.53870  -0.53335  -0.53128  -0.52749  -0.52423
 Alpha  occ. eigenvalues --   -0.52100  -0.51892  -0.51799  -0.51434  -0.50510
 Alpha  occ. eigenvalues --   -0.50055  -0.49609  -0.49393  -0.49225  -0.48773
 Alpha  occ. eigenvalues --   -0.48233  -0.48155  -0.47574  -0.47420  -0.47079
 Alpha  occ. eigenvalues --   -0.47007  -0.46879  -0.46756  -0.45930  -0.45829
 Alpha  occ. eigenvalues --   -0.44717  -0.44264  -0.44085  -0.43848  -0.43362
 Alpha  occ. eigenvalues --   -0.42738  -0.41815  -0.41502  -0.41452  -0.41223
 Alpha  occ. eigenvalues --   -0.40740  -0.40209  -0.39950  -0.39856  -0.39463
 Alpha  occ. eigenvalues --   -0.38682  -0.37085  -0.34200  -0.34178  -0.34107
 Alpha  occ. eigenvalues --   -0.32828  -0.32450  -0.31913  -0.31482  -0.30488
 Alpha  occ. eigenvalues --   -0.27713  -0.23521
 Alpha virt. eigenvalues --   -0.09854  -0.07598  -0.04142  -0.02250  -0.01083
 Alpha virt. eigenvalues --   -0.00260   0.00054   0.01202   0.01943   0.02758
 Alpha virt. eigenvalues --    0.04806   0.05530   0.06739   0.06815   0.07644
 Alpha virt. eigenvalues --    0.08067   0.08540   0.08630   0.09258   0.09432
 Alpha virt. eigenvalues --    0.09503   0.09696   0.09987   0.10305   0.11399
 Alpha virt. eigenvalues --    0.11581   0.11795   0.12130   0.12775   0.12914
 Alpha virt. eigenvalues --    0.13013   0.13232   0.13543   0.13660   0.13953
 Alpha virt. eigenvalues --    0.14350   0.14688   0.15438   0.15579   0.15621
 Alpha virt. eigenvalues --    0.15751   0.16194   0.16320   0.16670   0.17097
 Alpha virt. eigenvalues --    0.17525   0.17739   0.17765   0.18081   0.18231
 Alpha virt. eigenvalues --    0.18645   0.19010   0.19419   0.20009   0.20247
 Alpha virt. eigenvalues --    0.20558   0.20930   0.21187   0.21351   0.21652
 Alpha virt. eigenvalues --    0.21820   0.22123   0.22316   0.22514   0.22587
 Alpha virt. eigenvalues --    0.22756   0.23152   0.23549   0.23852   0.24112
 Alpha virt. eigenvalues --    0.24264   0.24448   0.24862   0.25240   0.25493
 Alpha virt. eigenvalues --    0.25790   0.25910   0.26469   0.26625   0.26676
 Alpha virt. eigenvalues --    0.26893   0.27100   0.27202   0.27335   0.27875
 Alpha virt. eigenvalues --    0.27969   0.28123   0.28363   0.28466   0.29167
 Alpha virt. eigenvalues --    0.29291   0.29618   0.29833   0.29893   0.30242
 Alpha virt. eigenvalues --    0.30686   0.30822   0.31285   0.31341   0.31560
 Alpha virt. eigenvalues --    0.31728   0.32070   0.32438   0.32543   0.32923
 Alpha virt. eigenvalues --    0.33120   0.33340   0.33521   0.33808   0.34140
 Alpha virt. eigenvalues --    0.34241   0.34369   0.34709   0.34993   0.35070
 Alpha virt. eigenvalues --    0.35162   0.35280   0.35684   0.35941   0.36051
 Alpha virt. eigenvalues --    0.36230   0.36489   0.37028   0.37144   0.37311
 Alpha virt. eigenvalues --    0.37716   0.37869   0.37954   0.38252   0.38584
 Alpha virt. eigenvalues --    0.38908   0.39250   0.39372   0.39398   0.39606
 Alpha virt. eigenvalues --    0.39917   0.40005   0.40287   0.40497   0.40589
 Alpha virt. eigenvalues --    0.41118   0.41266   0.41581   0.41660   0.41936
 Alpha virt. eigenvalues --    0.42168   0.42339   0.42502   0.42634   0.42846
 Alpha virt. eigenvalues --    0.43020   0.43158   0.43313   0.43634   0.43840
 Alpha virt. eigenvalues --    0.44326   0.44421   0.44694   0.44940   0.45313
 Alpha virt. eigenvalues --    0.45528   0.45852   0.45902   0.46454   0.46723
 Alpha virt. eigenvalues --    0.47096   0.47273   0.47535   0.47596   0.47946
 Alpha virt. eigenvalues --    0.47991   0.48297   0.48805   0.49049   0.49207
 Alpha virt. eigenvalues --    0.49391   0.49543   0.50088   0.50219   0.50436
 Alpha virt. eigenvalues --    0.50761   0.50968   0.51274   0.51357   0.51764
 Alpha virt. eigenvalues --    0.51988   0.52128   0.52352   0.52454   0.52597
 Alpha virt. eigenvalues --    0.52790   0.52865   0.53219   0.53454   0.53646
 Alpha virt. eigenvalues --    0.53833   0.54357   0.54418   0.55047   0.55292
 Alpha virt. eigenvalues --    0.55408   0.55997   0.56294   0.56494   0.56645
 Alpha virt. eigenvalues --    0.56914   0.57047   0.57086   0.57394   0.58099
 Alpha virt. eigenvalues --    0.58326   0.58636   0.58888   0.59137   0.59772
 Alpha virt. eigenvalues --    0.60168   0.60957   0.61310   0.61525   0.61829
 Alpha virt. eigenvalues --    0.62295   0.62333   0.62659   0.62934   0.63308
 Alpha virt. eigenvalues --    0.63647   0.63863   0.64021   0.64375   0.64708
 Alpha virt. eigenvalues --    0.64961   0.65532   0.65750   0.65923   0.66297
 Alpha virt. eigenvalues --    0.66519   0.66923   0.67086   0.67364   0.67574
 Alpha virt. eigenvalues --    0.67652   0.67930   0.68168   0.68620   0.68836
 Alpha virt. eigenvalues --    0.68993   0.69299   0.69551   0.69719   0.69956
 Alpha virt. eigenvalues --    0.70098   0.70255   0.70475   0.70508   0.70572
 Alpha virt. eigenvalues --    0.71476   0.71534   0.71705   0.71945   0.72138
 Alpha virt. eigenvalues --    0.72695   0.72831   0.72913   0.73417   0.73520
 Alpha virt. eigenvalues --    0.73969   0.74410   0.74582   0.74832   0.75229
 Alpha virt. eigenvalues --    0.75270   0.75505   0.75768   0.76070   0.76357
 Alpha virt. eigenvalues --    0.76732   0.77065   0.77321   0.77519   0.77744
 Alpha virt. eigenvalues --    0.78098   0.78438   0.78512   0.78745   0.79170
 Alpha virt. eigenvalues --    0.79393   0.79691   0.80500   0.80585   0.80879
 Alpha virt. eigenvalues --    0.81245   0.81737   0.82317   0.82706   0.82816
 Alpha virt. eigenvalues --    0.82911   0.83113   0.83840   0.84052   0.84572
 Alpha virt. eigenvalues --    0.85278   0.85900   0.85954   0.86000   0.86225
 Alpha virt. eigenvalues --    0.86669   0.86844   0.87348   0.87693   0.87999
 Alpha virt. eigenvalues --    0.88126   0.88602   0.88718   0.88969   0.89442
 Alpha virt. eigenvalues --    0.89655   0.89973   0.90744   0.90898   0.90936
 Alpha virt. eigenvalues --    0.91271   0.91824   0.92008   0.92354   0.92836
 Alpha virt. eigenvalues --    0.93674   0.93789   0.95125   0.95231   0.95406
 Alpha virt. eigenvalues --    0.95603   0.95688   0.96086   0.96424   0.96831
 Alpha virt. eigenvalues --    0.97159   0.97397   0.97674   0.97786   0.98557
 Alpha virt. eigenvalues --    0.98813   0.99183   0.99419   0.99759   0.99931
 Alpha virt. eigenvalues --    1.00163   1.00249   1.00566   1.00816   1.00967
 Alpha virt. eigenvalues --    1.01282   1.01349   1.01839   1.02095   1.02287
 Alpha virt. eigenvalues --    1.02723   1.02863   1.03489   1.03660   1.03914
 Alpha virt. eigenvalues --    1.04339   1.04689   1.04782   1.04932   1.05258
 Alpha virt. eigenvalues --    1.05450   1.05993   1.06271   1.06635   1.07320
 Alpha virt. eigenvalues --    1.07742   1.08080   1.08404   1.08719   1.09345
 Alpha virt. eigenvalues --    1.09428   1.09670   1.10323   1.10760   1.11239
 Alpha virt. eigenvalues --    1.11533   1.11854   1.11974   1.12176   1.12360
 Alpha virt. eigenvalues --    1.12606   1.13042   1.13607   1.13754   1.13991
 Alpha virt. eigenvalues --    1.14268   1.14725   1.15184   1.15557   1.15969
 Alpha virt. eigenvalues --    1.16488   1.17029   1.17483   1.17773   1.18078
 Alpha virt. eigenvalues --    1.18427   1.18524   1.18988   1.19169   1.19815
 Alpha virt. eigenvalues --    1.20125   1.20863   1.21336   1.21469   1.21655
 Alpha virt. eigenvalues --    1.21905   1.22212   1.22761   1.23002   1.23666
 Alpha virt. eigenvalues --    1.23761   1.24027   1.24348   1.24952   1.25132
 Alpha virt. eigenvalues --    1.25392   1.25856   1.26025   1.26156   1.26630
 Alpha virt. eigenvalues --    1.26834   1.27252   1.27433   1.27792   1.28309
 Alpha virt. eigenvalues --    1.29146   1.29294   1.29408   1.29651   1.29954
 Alpha virt. eigenvalues --    1.30222   1.30800   1.31340   1.31357   1.31848
 Alpha virt. eigenvalues --    1.32017   1.32428   1.32642   1.33120   1.33316
 Alpha virt. eigenvalues --    1.33903   1.34560   1.34683   1.35072   1.35372
 Alpha virt. eigenvalues --    1.35572   1.35840   1.36084   1.36385   1.36483
 Alpha virt. eigenvalues --    1.36682   1.36785   1.37374   1.37940   1.38357
 Alpha virt. eigenvalues --    1.38798   1.39330   1.39417   1.39798   1.39900
 Alpha virt. eigenvalues --    1.39960   1.40626   1.42060   1.42198   1.42596
 Alpha virt. eigenvalues --    1.43280   1.43443   1.44031   1.44323   1.44750
 Alpha virt. eigenvalues --    1.44789   1.44922   1.45279   1.45524   1.45744
 Alpha virt. eigenvalues --    1.45953   1.46351   1.46703   1.47187   1.47341
 Alpha virt. eigenvalues --    1.47992   1.48185   1.48495   1.49098   1.49650
 Alpha virt. eigenvalues --    1.49739   1.50216   1.50634   1.50746   1.51064
 Alpha virt. eigenvalues --    1.51384   1.51887   1.52055   1.52247   1.52412
 Alpha virt. eigenvalues --    1.52661   1.53027   1.53090   1.53403   1.53505
 Alpha virt. eigenvalues --    1.54362   1.54399   1.54654   1.55117   1.55536
 Alpha virt. eigenvalues --    1.55966   1.56109   1.56399   1.56934   1.57065
 Alpha virt. eigenvalues --    1.57335   1.57416   1.57720   1.58197   1.58402
 Alpha virt. eigenvalues --    1.58907   1.59041   1.59843   1.59882   1.60443
 Alpha virt. eigenvalues --    1.60845   1.61473   1.61571   1.61766   1.62300
 Alpha virt. eigenvalues --    1.62718   1.62910   1.63061   1.63258   1.64180
 Alpha virt. eigenvalues --    1.65114   1.65467   1.65533   1.65940   1.66263
 Alpha virt. eigenvalues --    1.66333   1.66856   1.67088   1.67719   1.67892
 Alpha virt. eigenvalues --    1.68431   1.68582   1.68834   1.69006   1.69229
 Alpha virt. eigenvalues --    1.69474   1.70279   1.70480   1.71205   1.71378
 Alpha virt. eigenvalues --    1.71699   1.71819   1.72214   1.72985   1.73738
 Alpha virt. eigenvalues --    1.74354   1.74609   1.75179   1.75216   1.75591
 Alpha virt. eigenvalues --    1.76117   1.76833   1.77125   1.77410   1.77472
 Alpha virt. eigenvalues --    1.78002   1.78709   1.78994   1.79509   1.80051
 Alpha virt. eigenvalues --    1.80654   1.80981   1.81415   1.81666   1.82063
 Alpha virt. eigenvalues --    1.82573   1.83357   1.83812   1.84254   1.84369
 Alpha virt. eigenvalues --    1.84763   1.85779   1.86138   1.86894   1.87093
 Alpha virt. eigenvalues --    1.87276   1.87709   1.87871   1.88538   1.88677
 Alpha virt. eigenvalues --    1.89224   1.89891   1.90453   1.91188   1.91908
 Alpha virt. eigenvalues --    1.92218   1.92417   1.93733   1.93861   1.94726
 Alpha virt. eigenvalues --    1.96077   1.96287   1.96603   1.96819   1.97054
 Alpha virt. eigenvalues --    1.97361   1.97469   1.98397   1.98979   1.99161
 Alpha virt. eigenvalues --    1.99455   1.99762   2.00356   2.00546   2.01199
 Alpha virt. eigenvalues --    2.01607   2.01913   2.02317   2.03040   2.03657
 Alpha virt. eigenvalues --    2.04207   2.04756   2.04812   2.05177   2.05620
 Alpha virt. eigenvalues --    2.05788   2.06222   2.06787   2.07123   2.07704
 Alpha virt. eigenvalues --    2.08262   2.08413   2.08980   2.09234   2.09858
 Alpha virt. eigenvalues --    2.10136   2.10463   2.10823   2.11667   2.11711
 Alpha virt. eigenvalues --    2.12263   2.12498   2.13651   2.13787   2.14825
 Alpha virt. eigenvalues --    2.15579   2.15798   2.16698   2.17204   2.17893
 Alpha virt. eigenvalues --    2.18026   2.18689   2.19577   2.19823   2.20576
 Alpha virt. eigenvalues --    2.21575   2.22573   2.23266   2.23686   2.24153
 Alpha virt. eigenvalues --    2.24913   2.25732   2.26356   2.26609   2.26683
 Alpha virt. eigenvalues --    2.26801   2.27780   2.28360   2.28589   2.28997
 Alpha virt. eigenvalues --    2.30149   2.30376   2.31181   2.31350   2.31886
 Alpha virt. eigenvalues --    2.31926   2.33248   2.34031   2.34129   2.34675
 Alpha virt. eigenvalues --    2.34903   2.35005   2.36009   2.36206   2.36568
 Alpha virt. eigenvalues --    2.37227   2.37681   2.37864   2.37889   2.38599
 Alpha virt. eigenvalues --    2.38682   2.39174   2.39487   2.39833   2.40206
 Alpha virt. eigenvalues --    2.40810   2.42388   2.42717   2.43747   2.43932
 Alpha virt. eigenvalues --    2.44685   2.45287   2.46276   2.46835   2.47282
 Alpha virt. eigenvalues --    2.47945   2.48396   2.49701   2.49743   2.51341
 Alpha virt. eigenvalues --    2.52558   2.52994   2.53864   2.54620   2.54886
 Alpha virt. eigenvalues --    2.55253   2.55317   2.55894   2.56514   2.58184
 Alpha virt. eigenvalues --    2.58577   2.59425   2.59618   2.60379   2.61533
 Alpha virt. eigenvalues --    2.62105   2.62519   2.62843   2.63162   2.63853
 Alpha virt. eigenvalues --    2.64509   2.64745   2.65266   2.65616   2.66047
 Alpha virt. eigenvalues --    2.66773   2.66843   2.67384   2.67504   2.68035
 Alpha virt. eigenvalues --    2.68781   2.69126   2.69833   2.70018   2.70821
 Alpha virt. eigenvalues --    2.71269   2.72127   2.72411   2.72740   2.73336
 Alpha virt. eigenvalues --    2.73638   2.73826   2.74266   2.74369   2.74795
 Alpha virt. eigenvalues --    2.74982   2.75129   2.75469   2.76077   2.76622
 Alpha virt. eigenvalues --    2.76747   2.76830   2.77068   2.77235   2.77559
 Alpha virt. eigenvalues --    2.77736   2.77931   2.78473   2.78672   2.78898
 Alpha virt. eigenvalues --    2.79145   2.79463   2.79578   2.80098   2.80379
 Alpha virt. eigenvalues --    2.80789   2.80895   2.81504   2.81611   2.81985
 Alpha virt. eigenvalues --    2.82015   2.82646   2.82935   2.83263   2.83625
 Alpha virt. eigenvalues --    2.84331   2.84560   2.85501   2.85688   2.86071
 Alpha virt. eigenvalues --    2.86370   2.86511   2.86882   2.87296   2.87358
 Alpha virt. eigenvalues --    2.87739   2.88617   2.88913   2.89130   2.89416
 Alpha virt. eigenvalues --    2.90468   2.90563   2.90632   2.90801   2.90951
 Alpha virt. eigenvalues --    2.91301   2.91503   2.91870   2.92063   2.92359
 Alpha virt. eigenvalues --    2.92545   2.92709   2.93207   2.93742   2.94149
 Alpha virt. eigenvalues --    2.94477   2.94659   2.94924   2.95200   2.95244
 Alpha virt. eigenvalues --    2.95520   2.96352   2.97033   2.97309   2.97825
 Alpha virt. eigenvalues --    2.97960   2.98139   2.98657   2.99156   2.99517
 Alpha virt. eigenvalues --    2.99777   3.00239   3.00321   3.00830   3.01089
 Alpha virt. eigenvalues --    3.01173   3.01662   3.01945   3.02083   3.02366
 Alpha virt. eigenvalues --    3.02568   3.02705   3.03109   3.03353   3.03633
 Alpha virt. eigenvalues --    3.03710   3.03924   3.04079   3.04405   3.04638
 Alpha virt. eigenvalues --    3.04669   3.05184   3.05387   3.05557   3.06032
 Alpha virt. eigenvalues --    3.06046   3.07101   3.07829   3.08064   3.08168
 Alpha virt. eigenvalues --    3.08254   3.08454   3.08708   3.09264   3.09310
 Alpha virt. eigenvalues --    3.09437   3.09758   3.09952   3.10030   3.10321
 Alpha virt. eigenvalues --    3.10406   3.11128   3.11332   3.12035   3.12424
 Alpha virt. eigenvalues --    3.12731   3.13123   3.13260   3.13432   3.13746
 Alpha virt. eigenvalues --    3.14246   3.14540   3.14810   3.15267   3.15393
 Alpha virt. eigenvalues --    3.15697   3.15886   3.16139   3.16463   3.16833
 Alpha virt. eigenvalues --    3.17141   3.17703   3.17903   3.18323   3.18399
 Alpha virt. eigenvalues --    3.18456   3.19452   3.19924   3.20123   3.20181
 Alpha virt. eigenvalues --    3.20390   3.20573   3.20855   3.21576   3.21768
 Alpha virt. eigenvalues --    3.22043   3.22671   3.22855   3.22907   3.23198
 Alpha virt. eigenvalues --    3.23649   3.23808   3.24309   3.24648   3.25210
 Alpha virt. eigenvalues --    3.25723   3.25957   3.26097   3.26459   3.26805
 Alpha virt. eigenvalues --    3.26914   3.27525   3.27785   3.28226   3.28580
 Alpha virt. eigenvalues --    3.28739   3.29346   3.29507   3.30036   3.30127
 Alpha virt. eigenvalues --    3.30518   3.30613   3.30984   3.31054   3.31298
 Alpha virt. eigenvalues --    3.31710   3.32137   3.32257   3.32589   3.32833
 Alpha virt. eigenvalues --    3.33112   3.33271   3.33582   3.33845   3.34122
 Alpha virt. eigenvalues --    3.34296   3.35206   3.35399   3.35516   3.35974
 Alpha virt. eigenvalues --    3.36240   3.36747   3.36910   3.37066   3.37434
 Alpha virt. eigenvalues --    3.37815   3.38141   3.38611   3.38745   3.39013
 Alpha virt. eigenvalues --    3.39474   3.40162   3.40437   3.40790   3.40973
 Alpha virt. eigenvalues --    3.41784   3.41946   3.42224   3.42409   3.42722
 Alpha virt. eigenvalues --    3.43163   3.43421   3.43908   3.44219   3.44648
 Alpha virt. eigenvalues --    3.45640   3.46305   3.46859   3.47415   3.47656
 Alpha virt. eigenvalues --    3.47797   3.48024   3.48078   3.48520   3.48955
 Alpha virt. eigenvalues --    3.49303   3.49922   3.50173   3.50265   3.50499
 Alpha virt. eigenvalues --    3.50955   3.51066   3.51447   3.52073   3.52178
 Alpha virt. eigenvalues --    3.52303   3.52458   3.52552   3.52982   3.53226
 Alpha virt. eigenvalues --    3.53578   3.53681   3.53916   3.54164   3.54761
 Alpha virt. eigenvalues --    3.54920   3.56078   3.56231   3.56350   3.56867
 Alpha virt. eigenvalues --    3.57116   3.57619   3.58233   3.58489   3.58522
 Alpha virt. eigenvalues --    3.59117   3.59856   3.60060   3.60412   3.60768
 Alpha virt. eigenvalues --    3.61272   3.61558   3.61993   3.62278   3.62702
 Alpha virt. eigenvalues --    3.62928   3.63018   3.63648   3.64061   3.64734
 Alpha virt. eigenvalues --    3.64951   3.65355   3.65862   3.66246   3.66707
 Alpha virt. eigenvalues --    3.67112   3.67287   3.67935   3.68038   3.68677
 Alpha virt. eigenvalues --    3.69880   3.70318   3.70373   3.70777   3.70805
 Alpha virt. eigenvalues --    3.71325   3.71677   3.71845   3.72347   3.72420
 Alpha virt. eigenvalues --    3.72544   3.72781   3.73487   3.73659   3.74001
 Alpha virt. eigenvalues --    3.74291   3.74949   3.75060   3.75310   3.76255
 Alpha virt. eigenvalues --    3.76434   3.76677   3.77007   3.77201   3.77517
 Alpha virt. eigenvalues --    3.78157   3.78476   3.78789   3.78843   3.79620
 Alpha virt. eigenvalues --    3.79710   3.80149   3.80487   3.80963   3.81344
 Alpha virt. eigenvalues --    3.81505   3.81742   3.82489   3.83572   3.83891
 Alpha virt. eigenvalues --    3.84466   3.84542   3.84963   3.85387   3.85549
 Alpha virt. eigenvalues --    3.85875   3.86069   3.86198   3.86653   3.87238
 Alpha virt. eigenvalues --    3.88077   3.88233   3.88717   3.88895   3.89331
 Alpha virt. eigenvalues --    3.89413   3.90035   3.90454   3.90638   3.90928
 Alpha virt. eigenvalues --    3.91283   3.91691   3.91832   3.92220   3.92375
 Alpha virt. eigenvalues --    3.93261   3.93359   3.93610   3.94362   3.94552
 Alpha virt. eigenvalues --    3.94918   3.95159   3.95414   3.96493   3.97046
 Alpha virt. eigenvalues --    3.97215   3.97574   3.98071   3.98223   3.99185
 Alpha virt. eigenvalues --    3.99204   3.99853   4.00577   4.01041   4.01143
 Alpha virt. eigenvalues --    4.01373   4.01488   4.01792   4.02272   4.02543
 Alpha virt. eigenvalues --    4.02636   4.02753   4.03168   4.03620   4.03777
 Alpha virt. eigenvalues --    4.04269   4.04507   4.04787   4.05403   4.05918
 Alpha virt. eigenvalues --    4.06076   4.06610   4.07015   4.07293   4.07784
 Alpha virt. eigenvalues --    4.07976   4.08737   4.09242   4.09549   4.09881
 Alpha virt. eigenvalues --    4.10119   4.10615   4.10854   4.11112   4.11207
 Alpha virt. eigenvalues --    4.12000   4.12111   4.12943   4.13418   4.13882
 Alpha virt. eigenvalues --    4.14216   4.14768   4.14807   4.14928   4.15634
 Alpha virt. eigenvalues --    4.15836   4.16393   4.16495   4.16547   4.16868
 Alpha virt. eigenvalues --    4.17781   4.17993   4.18534   4.18930   4.19101
 Alpha virt. eigenvalues --    4.19514   4.19712   4.20099   4.20290   4.20614
 Alpha virt. eigenvalues --    4.20803   4.21068   4.21302   4.21407   4.22096
 Alpha virt. eigenvalues --    4.22347   4.23021   4.23249   4.23591   4.23727
 Alpha virt. eigenvalues --    4.23907   4.24226   4.24382   4.24790   4.25511
 Alpha virt. eigenvalues --    4.25577   4.25854   4.26124   4.26454   4.27284
 Alpha virt. eigenvalues --    4.27480   4.27855   4.28353   4.28478   4.28853
 Alpha virt. eigenvalues --    4.30123   4.30165   4.30474   4.30576   4.31563
 Alpha virt. eigenvalues --    4.31830   4.32273   4.32374   4.32750   4.33322
 Alpha virt. eigenvalues --    4.33847   4.34462   4.35507   4.36479   4.36892
 Alpha virt. eigenvalues --    4.37755   4.37957   4.38158   4.38435   4.38764
 Alpha virt. eigenvalues --    4.39059   4.41333   4.41944   4.42148   4.42223
 Alpha virt. eigenvalues --    4.42651   4.42761   4.43373   4.44984   4.46327
 Alpha virt. eigenvalues --    4.46868   4.47521   4.48850   4.48890   4.49133
 Alpha virt. eigenvalues --    4.49317   4.49749   4.50123   4.50573   4.50653
 Alpha virt. eigenvalues --    4.51976   4.52517   4.52607   4.52829   4.53853
 Alpha virt. eigenvalues --    4.54185   4.54576   4.54999   4.56963   4.57564
 Alpha virt. eigenvalues --    4.58102   4.58579   4.58906   4.59360   4.60138
 Alpha virt. eigenvalues --    4.60325   4.60854   4.61659   4.61828   4.62424
 Alpha virt. eigenvalues --    4.62498   4.63115   4.63683   4.63965   4.64336
 Alpha virt. eigenvalues --    4.64841   4.65833   4.66641   4.67159   4.67510
 Alpha virt. eigenvalues --    4.67870   4.68097   4.69030   4.69242   4.69503
 Alpha virt. eigenvalues --    4.69598   4.70397   4.71227   4.71303   4.71618
 Alpha virt. eigenvalues --    4.72012   4.72298   4.72634   4.72940   4.73448
 Alpha virt. eigenvalues --    4.74789   4.74915   4.75207   4.76227   4.76955
 Alpha virt. eigenvalues --    4.77620   4.78178   4.78980   4.79590   4.79744
 Alpha virt. eigenvalues --    4.79986   4.81658   4.82078   4.82371   4.83713
 Alpha virt. eigenvalues --    4.84455   4.85309   4.85565   4.86445   4.86931
 Alpha virt. eigenvalues --    4.87443   4.88242   4.89493   4.90773   4.90786
 Alpha virt. eigenvalues --    4.91085   4.91592   4.92075   4.92527   4.92906
 Alpha virt. eigenvalues --    4.93175   4.93407   4.93722   4.94167   4.94294
 Alpha virt. eigenvalues --    4.95267   4.95805   4.95853   4.96198   4.96471
 Alpha virt. eigenvalues --    4.97043   4.97749   4.98408   4.99280   4.99646
 Alpha virt. eigenvalues --    5.01495   5.01874   5.02248   5.03615   5.03689
 Alpha virt. eigenvalues --    5.04396   5.04550   5.05723   5.06385   5.06762
 Alpha virt. eigenvalues --    5.07817   5.08124   5.08629   5.09418   5.09578
 Alpha virt. eigenvalues --    5.09975   5.10569   5.10798   5.11489   5.11725
 Alpha virt. eigenvalues --    5.11935   5.12685   5.13084   5.13670   5.13974
 Alpha virt. eigenvalues --    5.14644   5.15270   5.16216   5.16637   5.17368
 Alpha virt. eigenvalues --    5.18307   5.18946   5.19289   5.20618   5.21285
 Alpha virt. eigenvalues --    5.21447   5.22241   5.22947   5.24038   5.24746
 Alpha virt. eigenvalues --    5.24971   5.26067   5.27905   5.28169   5.28268
 Alpha virt. eigenvalues --    5.28463   5.28652   5.29067   5.29294   5.29997
 Alpha virt. eigenvalues --    5.30196   5.30978   5.31574   5.31633   5.32293
 Alpha virt. eigenvalues --    5.33270   5.34252   5.34890   5.35147   5.35801
 Alpha virt. eigenvalues --    5.36718   5.37555   5.38128   5.38428   5.38879
 Alpha virt. eigenvalues --    5.40080   5.40256   5.40545   5.41057   5.42186
 Alpha virt. eigenvalues --    5.43005   5.43550   5.43890   5.45100   5.45902
 Alpha virt. eigenvalues --    5.49718   5.50850   5.51097   5.51978   5.52871
 Alpha virt. eigenvalues --    5.53246   5.53775   5.55721   5.56720   5.57256
 Alpha virt. eigenvalues --    5.57576   5.58019   5.58284   5.58747   5.59367
 Alpha virt. eigenvalues --    5.60280   5.61231   5.61543   5.62026   5.63166
 Alpha virt. eigenvalues --    5.63529   5.63961   5.64897   5.65671   5.66153
 Alpha virt. eigenvalues --    5.67307   5.68694   5.69745   5.70426   5.72332
 Alpha virt. eigenvalues --    5.73439   5.74606   5.76311   5.77394   5.78759
 Alpha virt. eigenvalues --    5.79473   5.83739   5.83844   5.84844   5.87957
 Alpha virt. eigenvalues --    5.90026   5.91676   5.92678   5.94083   5.95890
 Alpha virt. eigenvalues --    5.96613   5.97267   6.02355   6.03837   6.04859
 Alpha virt. eigenvalues --    6.10396   6.10817   6.13713   6.15426   6.19009
 Alpha virt. eigenvalues --    6.22252   6.25278   6.28084   6.36174   6.37193
 Alpha virt. eigenvalues --    6.38427   6.39448   6.40847   6.43152   6.58495
 Alpha virt. eigenvalues --    6.58580   6.65277   6.75458   6.76825   6.80759
 Alpha virt. eigenvalues --    6.83101   6.85049   6.87413   6.94181   6.94540
 Alpha virt. eigenvalues --    6.97181   6.98740   6.98985   6.99860   7.04876
 Alpha virt. eigenvalues --    7.08424   7.10724   7.16967   7.20706   7.23000
 Alpha virt. eigenvalues --    7.23701   7.27328   7.32983   7.33530   7.33981
 Alpha virt. eigenvalues --    7.34427   7.45358   7.50869   8.46029   8.46789
 Alpha virt. eigenvalues --    8.55888   8.57841   8.82383   8.85857   8.90833
 Alpha virt. eigenvalues --    8.91452   8.92178   8.99659  15.85775  22.86144
 Alpha virt. eigenvalues --   22.88223  22.96801  22.98702  23.03345  23.11294
 Alpha virt. eigenvalues --   23.12537  23.14328  23.16415  23.19504  23.22021
 Alpha virt. eigenvalues --   23.23934  23.25449  23.28506  23.29088  23.29776
 Alpha virt. eigenvalues --   23.31232  23.33731  23.34705  23.34751  23.36613
 Alpha virt. eigenvalues --   23.39346  23.47243  23.54144  23.55545  23.61472
 Alpha virt. eigenvalues --   23.73198  23.78192  23.86867  23.88868  24.08816
 Alpha virt. eigenvalues --   24.14322  24.19261  31.89698  32.56380  32.59569
 Alpha virt. eigenvalues --   33.13556  33.29174  33.38375  44.20407  44.25097
 Alpha virt. eigenvalues --   57.34882  57.54057
          Condensed to atoms (all electrons):
 Mulliken charges:
               1
     1  C   -0.433571
     2  C   -0.022940
     3  C   -0.088731
     4  C    0.017395
     5  C   -0.123269
     6  C   -0.053958
     7  C   -0.008408
     8  C   -0.124441
     9  C   -0.170398
    10  C    0.186901
    11  N   -0.379977
    12  N    0.425932
    13  N   -0.174517
    14  C   -0.149230
    15  C   -0.185190
    16  N   -0.103055
    17  C    0.103750
    18  C    0.157755
    19  C   -0.258032
    20  C   -0.186250
    21  C   -0.037405
    22  C   -0.028047
    23  N    0.493430
    24  O   -0.366853
    25  O   -0.366844
    26  C   -0.046374
    27  C   -0.156557
    28  C    0.102660
    29  C   -0.023785
    30  C   -0.433928
    31  C   -0.090318
    32  C    0.019546
    33  C   -0.132176
    34  C   -0.055665
    35  C    0.041171
    36  C   -0.145849
    37  C   -0.160092
    38  C   -0.147398
    39  C   -0.153533
    40  C   -0.173831
    41  N   -0.103945
    42  B    0.344983
    43  F   -0.366232
    44  F   -0.334164
    45  H    0.163271
    46  H    0.159662
    47  H    0.133763
    48  H    0.166965
    49  H    0.139220
    50  H    0.114595
    51  H    0.146152
    52  H    0.162526
    53  H    0.144395
    54  H    0.154585
    55  H    0.184005
    56  H    0.198687
    57  H    0.198161
    58  H    0.178045
    59  H    0.163537
    60  H    0.133632
    61  H    0.159664
    62  H    0.166107
    63  H    0.139448
    64  H    0.116836
    65  H    0.141544
    66  H    0.158275
    67  H    0.160702
    68  H    0.158317
    69  H    0.149346
 Sum of Mulliken charges =  -0.00000
 Mulliken charges with hydrogens summed into heavy atoms:
               1
     1  C    0.023125
     2  C   -0.022940
     3  C    0.078234
     4  C    0.017395
     5  C    0.015951
     6  C    0.060637
     7  C   -0.008408
     8  C    0.021711
     9  C   -0.007872
    10  C    0.186901
    11  N   -0.379977
    12  N    0.425932
    13  N   -0.174517
    14  C   -0.004834
    15  C   -0.030606
    16  N   -0.103055
    17  C    0.103750
    18  C    0.157755
    19  C   -0.258032
    20  C   -0.002245
    21  C    0.161282
    22  C   -0.028047
    23  N    0.493430
    24  O   -0.366853
    25  O   -0.366844
    26  C    0.151787
    27  C    0.021488
    28  C    0.102660
    29  C   -0.023785
    30  C    0.022906
    31  C    0.075789
    32  C    0.019546
    33  C    0.007273
    34  C    0.061172
    35  C    0.041171
    36  C   -0.004305
    37  C   -0.001816
    38  C    0.013304
    39  C    0.004784
    40  C   -0.024485
    41  N   -0.103945
    42  B    0.344983
    43  F   -0.366232
    44  F   -0.334164
 Electronic spatial extent (au):  <R**2>=          38261.9221
 Charge=             -0.0000 electrons
 Dipole moment (field-independent basis, Debye):
    X=             -0.2716    Y=              0.7316    Z=             -1.1460  Tot=              1.3865
 Quadrupole moment (field-independent basis, Debye-Ang):
   XX=           -304.2109   YY=           -206.4238   ZZ=           -261.2715
   XY=             16.3749   XZ=              0.3939   YZ=             -0.4191
 Traceless Quadrupole moment (field-independent basis, Debye-Ang):
   XX=            -46.9088   YY=             50.8783   ZZ=             -3.9694
   XY=             16.3749   XZ=              0.3939   YZ=             -0.4191
 Octapole moment (field-independent basis, Debye-Ang**2):
  XXX=           -569.9536  YYY=            137.0292  ZZZ=             -0.7951  XYY=            -71.0751
  XXY=            287.6145  XXZ=             -6.6803  XZZ=             59.1529  YZZ=            -31.5921
  YYZ=             16.9645  XYZ=              7.2916
 Hexadecapole moment (field-independent basis, Debye-Ang**3):
 XXXX=         -43098.4526 YYYY=         -15234.2876 ZZZZ=           -691.5511 XXXY=           1439.0173
 XXXZ=            -40.2592 YYYX=           -256.3427 YYYZ=             67.6667 ZZZX=              4.1612
 ZZZY=              2.1863 XXYY=          -8627.9025 XXZZ=          -5761.2245 YYZZ=          -3457.5886
 XXYZ=            -25.4835 YYXZ=            -30.9867 ZZXY=            -21.1465
 N-N= 4.649840420203D+03 E-N=-1.390481492160D+04  KE= 1.965526096363D+03
 No NMR shielding tensors so no spin-rotation constants.
 Leave Link  601 at Tue Oct 28 20:23:49 2025, MaxMem= 30870077440 cpu:             123.0 elap:               2.4
 (Enter /public/software/gauss/g16/l9999.exe)
 1\1\GINC-CU031\SP\RM062X\def2TZVPP\C33H25B1F2N6O2\BAIDING\28-Oct-2025\
 0\\#p M062X/DEF2TZVPP scrf=(solvent=water) em=GD3\\Energy calculation 
 for BNP_N3\\0,1\C,0,2.890344,-3.705367,-0.126405\C,0,1.690141,-2.80900
 2,-0.084897\C,0,0.380835,-3.256239,-0.101152\C,0,-0.48521,-2.133513,-0
 .067295\C,0,-1.925474,-2.103368,-0.073652\C,0,-2.696436,-3.215418,0.02
 9272\C,0,-4.152066,-3.267049,0.021836\C,0,-4.786769,-4.518214,0.166022
 \C,0,-6.170199,-4.634512,0.170814\C,0,-6.962965,-3.489868,0.029473\N,0
 ,-8.366209,-3.696455,0.04577\N,0,-9.113178,-2.717129,-0.071873\N,0,-9.
 91563,-1.91262,-0.169141\C,0,-6.356905,-2.231505,-0.117897\C,0,-4.9740
 56,-2.127781,-0.121135\N,0,0.277482,-1.002107,-0.038135\C,0,1.62421,-1
 .37257,-0.04131\C,0,2.631467,-0.393223,-0.028476\C,0,4.066116,-0.81251
 1,-0.019107\C,0,4.754099,-1.004741,-1.226544\C,0,6.088858,-1.395028,-1
 .223968\C,0,6.723724,-1.58855,0.002723\N,0,8.125477,-1.998148,0.014121
 \O,0,8.700145,-2.160642,-1.067249\O,0,8.681131,-2.165622,1.104626\C,0,
 6.065995,-1.40488,1.218856\C,0,4.731181,-1.014748,1.19954\C,0,2.3119,0
 .97503,-0.03405\C,0,3.142297,2.148896,-0.067978\C,0,4.636703,2.257664,
 -0.097194\C,0,2.280814,3.23194,-0.086646\C,0,0.94636,2.753548,-0.06280
 2\C,0,-0.283186,3.506424,-0.078888\C,0,-0.329536,4.857737,0.023845\C,0
 ,-1.524697,5.69627,0.004813\C,0,-1.364992,7.09196,0.124306\C,0,-2.4654
 29,7.946506,0.112952\C,0,-3.754225,7.424807,-0.018085\C,0,-3.931212,6.
 041303,-0.137236\C,0,-2.834136,5.186032,-0.12636\N,0,0.977922,1.389622
 ,-0.03611\B,0,-0.23243,0.445507,0.182526\F,0,-1.250457,0.744536,-0.739
 144\F,0,-0.73546,0.591392,1.48275\H,0,3.502772,-3.529132,-1.016046\H,0
 ,3.539516,-3.563298,0.742811\H,0,2.566116,-4.74899,-0.140468\H,0,0.066
 894,-4.289539,-0.15139\H,0,-2.386539,-1.127717,-0.173904\H,0,-2.208857
 ,-4.182366,0.135434\H,0,-4.177452,-5.410458,0.276665\H,0,-6.646527,-5.
 602533,0.283399\H,0,-6.963848,-1.338281,-0.229911\H,0,-4.528462,-1.145
 481,-0.237599\H,0,4.242278,-0.84861,-2.16982\H,0,6.62892,-1.546907,-2.
 149562\H,0,6.588647,-1.564188,2.153174\H,0,4.201826,-0.866313,2.134342
 \H,0,5.064936,1.789522,-0.988868\H,0,4.925786,3.311685,-0.097469\H,0,5
 .100765,1.778856,0.770264\H,0,2.574255,4.271456,-0.131622\H,0,-1.19615
 3,2.933228,-0.190202\H,0,0.604788,5.40401,0.136788\H,0,-0.362982,7.499
 855,0.226363\H,0,-2.317159,9.018211,0.206275\H,0,-4.614451,8.087272,-0
 .027157\H,0,-4.931026,5.629683,-0.23898\H,0,-2.995204,4.11694,-0.21928
 2\\Version=ES64L-G16RevA.03\State=1-A\HF=-1976.0904502\RMSD=3.848e-09\
 Dipole=-0.1068608,0.2878193,-0.4508871\Quadrupole=-34.875567,37.826731
 9,-2.9511649,12.1743103,0.292821,-0.3115677\PG=C01 [X(C33H25B1F2N6O2)]
 \\@


    THE DOUGHNUT CREED
 AS YOU RAMBLE ON THROUGH LIFE, BROTHER
 WHATEVER BE YOUR GOAL
 KEEP YOUR EYE UPON THE DOUGHNUT
 AND NOT UPON THE HOLE.
 Job cpu time:       0 days 15 hours 13 minutes 36.3 seconds.
 Elapsed time:       0 days  0 hours 14 minutes 31.9 seconds.
 File lengths (MBytes):  RWF=   1975 Int=      0 D2E=      0 Chk=    172 Scr=      1
 Normal termination of Gaussian 16 at Tue Oct 28 20:23:50 2025.
