 Entering Gaussian System, Link 0=g16
 Input=BNP_CHO_sp.gjf
 Output=BNP_CHO_sp.log
 Initial command:
 /public/software/gauss/g16/l1.exe "/public/home/baiding/1024_sp/tmp_BNP_CHO_sp_1526250/Gau-2951742.inp" -scrdir="/public/home/baiding/1024_sp/tmp_BNP_CHO_sp_1526250/"
 Entering Link 1 = /public/software/gauss/g16/l1.exe PID=   2951743.
  
 Copyright (c) 1988,1990,1992,1993,1995,1998,2003,2009,2016,
            Gaussian, Inc.  All Rights Reserved.
  
 This is part of the Gaussian(R) 16 program.  It is based on
 the Gaussian(R) 09 system (copyright 2009, Gaussian, Inc.),
 the Gaussian(R) 03 system (copyright 2003, Gaussian, Inc.),
 the Gaussian(R) 98 system (copyright 1998, Gaussian, Inc.),
 the Gaussian(R) 94 system (copyright 1995, Gaussian, Inc.),
 the Gaussian 92(TM) system (copyright 1992, Gaussian, Inc.),
 the Gaussian 90(TM) system (copyright 1990, Gaussian, Inc.),
 the Gaussian 88(TM) system (copyright 1988, Gaussian, Inc.),
 the Gaussian 86(TM) system (copyright 1986, Carnegie Mellon
 University), and the Gaussian 82(TM) system (copyright 1983,
 Carnegie Mellon University). Gaussian is a federally registered
 trademark of Gaussian, Inc.
  
 This software contains proprietary and confidential information,
 including trade secrets, belonging to Gaussian, Inc.
  
 This software is provided under written license and may be
 used, copied, transmitted, or stored only in accord with that
 written license.
  
 The following legend is applicable only to US Government
 contracts under FAR:
  
                    RESTRICTED RIGHTS LEGEND
  
 Use, reproduction and disclosure by the US Government is
 subject to restrictions as set forth in subparagraphs (a)
 and (c) of the Commercial Computer Software - Restricted
 Rights clause in FAR 52.227-19.
  
 Gaussian, Inc.
 340 Quinnipiac St., Bldg. 40, Wallingford CT 06492
  
  
 ---------------------------------------------------------------
 Warning -- This program may not be used in any manner that
 competes with the business of Gaussian, Inc. or will provide
 assistance to any competitor of Gaussian, Inc.  The licensee
 of this program is prohibited from giving any competitor of
 Gaussian, Inc. access to this program.  By using this program,
 the user acknowledges that Gaussian, Inc. is engaged in the
 business of creating and licensing software in the field of
 computational chemistry and represents and warrants to the
 licensee that it is not a competitor of Gaussian, Inc. and that
 it will not use this program in any manner prohibited above.
 ---------------------------------------------------------------
  

 Cite this work as:
 Gaussian 16, Revision A.03,
 M. J. Frisch, G. W. Trucks, H. B. Schlegel, G. E. Scuseria, 
 M. A. Robb, J. R. Cheeseman, G. Scalmani, V. Barone, 
 G. A. Petersson, H. Nakatsuji, X. Li, M. Caricato, A. V. Marenich, 
 J. Bloino, B. G. Janesko, R. Gomperts, B. Mennucci, H. P. Hratchian, 
 J. V. Ortiz, A. F. Izmaylov, J. L. Sonnenberg, D. Williams-Young, 
 F. Ding, F. Lipparini, F. Egidi, J. Goings, B. Peng, A. Petrone, 
 T. Henderson, D. Ranasinghe, V. G. Zakrzewski, J. Gao, N. Rega, 
 G. Zheng, W. Liang, M. Hada, M. Ehara, K. Toyota, R. Fukuda, 
 J. Hasegawa, M. Ishida, T. Nakajima, Y. Honda, O. Kitao, H. Nakai, 
 T. Vreven, K. Throssell, J. A. Montgomery, Jr., J. E. Peralta, 
 F. Ogliaro, M. J. Bearpark, J. J. Heyd, E. N. Brothers, K. N. Kudin, 
 V. N. Staroverov, T. A. Keith, R. Kobayashi, J. Normand, 
 K. Raghavachari, A. P. Rendell, J. C. Burant, S. S. Iyengar, 
 J. Tomasi, M. Cossi, J. M. Millam, M. Klene, C. Adamo, R. Cammi, 
 J. W. Ochterski, R. L. Martin, K. Morokuma, O. Farkas, 
 J. B. Foresman, and D. J. Fox, Gaussian, Inc., Wallingford CT, 2016.
 
 ******************************************
 Gaussian 16:  ES64L-G16RevA.03 25-Dec-2016
                25-Oct-2025 
 ******************************************
 %nprocshared=64
 Will use up to   64 processors via shared memory.
 %mem=230GB
 %chk=BNP_CHO_sp.chk
 ----------------------------------------------
 #p M062X/DEF2TZVPP scrf=(solvent=water) em=GD3
 ----------------------------------------------
 1/38=1,172=1/1;
 2/12=2,17=6,18=5,40=1/2;
 3/5=44,7=202,11=2,25=1,30=1,70=2201,72=1,74=-55,124=31/1,2,3;
 4//1;
 5/5=2,38=5,53=1/2;
 6/7=2,8=2,9=2,10=2,28=1/1;
 99/5=1,9=1/99;
 Leave Link    1 at Sat Oct 25 05:56:00 2025, MaxMem= 30870077440 cpu:              18.5 elap:               0.3
 (Enter /public/software/gauss/g16/l101.exe)
 ------------------------------
 Energy calculation for BNP_CHO
 ------------------------------
 Symbolic Z-matrix:
 Charge =  0 Multiplicity = 1
 C                     2.68127  -3.7076   -0.13884 
 C                     1.48284  -2.80855  -0.09949 
 C                     0.1712   -3.25398  -0.12265 
 C                    -0.69039  -2.13091  -0.08958 
 C                    -2.13098  -2.09464  -0.10413 
 C                    -2.90995  -3.1999    0.00369 
 C                    -4.36715  -3.23141  -0.01473 
 C                    -5.1696   -2.08238  -0.19287 
 C                    -6.55255  -2.18283  -0.19659 
 C                    -7.18083  -3.42885  -0.02341 
 C                    -8.64563  -3.50534  -0.03023 
 O                    -9.29341  -4.54006   0.1171 
 C                    -6.39287  -4.57951   0.15295 
 C                    -5.01137  -4.47935   0.15567 
 N                     0.07485  -0.99992  -0.05388 
 C                     1.41772  -1.37387  -0.05155 
 C                     2.43011  -0.39372  -0.0292 
 C                     3.86302  -0.81844  -0.01384 
 C                     4.52032  -1.02833   1.20763 
 C                     5.85333  -1.42432   1.23227 
 C                     6.51652  -1.6061    0.01888 
 N                     7.91658  -2.02178   0.03597 
 O                     8.49629  -2.18161  -1.04303 
 O                     8.46543  -2.19672   1.12867 
 C                     5.88907  -1.40507  -1.21037 
 C                     4.55602  -1.00908  -1.21857 
 C                     2.11397   0.97124  -0.03131 
 C                     2.94854   2.14596  -0.05531 
 C                     4.44285   2.24947  -0.07461 
 C                     2.09087   3.22907  -0.07454 
 C                     0.75313   2.75258  -0.06078 
 C                    -0.47288   3.50916  -0.08088 
 C                    -0.51188   4.86093   0.02399 
 C                    -1.70203   5.70545   0.00435 
 C                    -3.01395   5.20145  -0.12639 
 C                    -4.10626   6.06254  -0.13795 
 C                    -3.92137   7.44515  -0.01975 
 C                    -2.63      7.96055   0.11107 
 C                    -1.5342    7.10027   0.1231 
 N                     0.7804    1.3902   -0.03948 
 B                    -0.43422   0.44822   0.16862 
 F                    -0.94384   0.59041   1.46573 
 F                    -1.44475   0.75226  -0.75872 
 H                     3.29899  -3.52895  -1.02427 
 H                     3.32587  -3.57184   0.73475 
 H                     2.3542   -4.75021  -0.15974 
 H                    -0.14487  -4.28639  -0.17799 
 H                    -2.58505  -1.11679  -0.21455 
 H                    -2.43345  -4.17026   0.12434 
 H                    -4.70787  -1.11073  -0.33065 
 H                    -7.16234  -1.29397  -0.33488 
 H                    -9.16413  -2.53901  -0.18154 
 H                    -6.87866  -5.5408    0.28599 
 H                    -4.40354  -5.36907   0.29199 
 H                     3.98671  -0.88119   2.14019 
 H                     6.37044  -1.58936   2.16867 
 H                     6.43338  -1.55557  -2.13369 
 H                     4.04972  -0.84715  -2.16384 
 H                     4.87423   1.78038  -0.96418 
 H                     4.73577   3.30232  -0.07124 
 H                     4.89845   1.76684   0.79519 
 H                     2.38623   4.26818  -0.11321 
 H                    -1.38807   2.94049  -0.19607 
 H                     0.4251    5.40185   0.13971 
 H                    -3.18044   4.13312  -0.21799 
 H                    -5.10835   5.65652  -0.23921 
 H                    -4.77807   8.11216  -0.02921 
 H                    -2.47635   9.0315    0.20373 
 H                    -0.52994   7.5025    0.22497 
 
 ITRead=  0  0  0  0  0  0  0  0  0  0  0  0  0  0  0  0  0  0  0  0
 ITRead=  0  0  0  0  0  0  0  0  0  0  0  0  0  0  0  0  0  0  0  0
 ITRead=  0  0  0  0  0  0  0  0  0  0  0  0  0  0  0  0  0  0  0  0
 ITRead=  0  0  0  0  0  0  0  0  0
 MicOpt= -1 -1 -1 -1 -1 -1 -1 -1 -1 -1 -1 -1 -1 -1 -1 -1 -1 -1 -1 -1
 MicOpt= -1 -1 -1 -1 -1 -1 -1 -1 -1 -1 -1 -1 -1 -1 -1 -1 -1 -1 -1 -1
 MicOpt= -1 -1 -1 -1 -1 -1 -1 -1 -1 -1 -1 -1 -1 -1 -1 -1 -1 -1 -1 -1
 MicOpt= -1 -1 -1 -1 -1 -1 -1 -1 -1
 NAtoms=     69 NQM=       69 NQMF=       0 NMMI=      0 NMMIF=      0
                NMic=       0 NMicF=      0.
                    Isotopes and Nuclear Properties:
 (Nuclear quadrupole moments (NQMom) in fm**2, nuclear magnetic moments (NMagM)
  in nuclear magnetons)

  Atom         1           2           3           4           5           6           7           8           9          10
 IAtWgt=          12          12          12          12          12          12          12          12          12          12
 AtmWgt=  12.0000000  12.0000000  12.0000000  12.0000000  12.0000000  12.0000000  12.0000000  12.0000000  12.0000000  12.0000000
 NucSpn=           0           0           0           0           0           0           0           0           0           0
 AtZEff=  -0.0000000  -0.0000000  -0.0000000  -0.0000000  -0.0000000  -0.0000000  -0.0000000  -0.0000000  -0.0000000  -0.0000000
 NQMom=    0.0000000   0.0000000   0.0000000   0.0000000   0.0000000   0.0000000   0.0000000   0.0000000   0.0000000   0.0000000
 NMagM=    0.0000000   0.0000000   0.0000000   0.0000000   0.0000000   0.0000000   0.0000000   0.0000000   0.0000000   0.0000000
 AtZNuc=   6.0000000   6.0000000   6.0000000   6.0000000   6.0000000   6.0000000   6.0000000   6.0000000   6.0000000   6.0000000

  Atom        11          12          13          14          15          16          17          18          19          20
 IAtWgt=          12          16          12          12          14          12          12          12          12          12
 AtmWgt=  12.0000000  15.9949146  12.0000000  12.0000000  14.0030740  12.0000000  12.0000000  12.0000000  12.0000000  12.0000000
 NucSpn=           0           0           0           0           2           0           0           0           0           0
 AtZEff=  -0.0000000  -0.0000000  -0.0000000  -0.0000000  -0.0000000  -0.0000000  -0.0000000  -0.0000000  -0.0000000  -0.0000000
 NQMom=    0.0000000   0.0000000   0.0000000   0.0000000   2.0440000   0.0000000   0.0000000   0.0000000   0.0000000   0.0000000
 NMagM=    0.0000000   0.0000000   0.0000000   0.0000000   0.4037610   0.0000000   0.0000000   0.0000000   0.0000000   0.0000000
 AtZNuc=   6.0000000   8.0000000   6.0000000   6.0000000   7.0000000   6.0000000   6.0000000   6.0000000   6.0000000   6.0000000

  Atom        21          22          23          24          25          26          27          28          29          30
 IAtWgt=          12          14          16          16          12          12          12          12          12          12
 AtmWgt=  12.0000000  14.0030740  15.9949146  15.9949146  12.0000000  12.0000000  12.0000000  12.0000000  12.0000000  12.0000000
 NucSpn=           0           2           0           0           0           0           0           0           0           0
 AtZEff=  -0.0000000  -0.0000000  -0.0000000  -0.0000000  -0.0000000  -0.0000000  -0.0000000  -0.0000000  -0.0000000  -0.0000000
 NQMom=    0.0000000   2.0440000   0.0000000   0.0000000   0.0000000   0.0000000   0.0000000   0.0000000   0.0000000   0.0000000
 NMagM=    0.0000000   0.4037610   0.0000000   0.0000000   0.0000000   0.0000000   0.0000000   0.0000000   0.0000000   0.0000000
 AtZNuc=   6.0000000   7.0000000   8.0000000   8.0000000   6.0000000   6.0000000   6.0000000   6.0000000   6.0000000   6.0000000

  Atom        31          32          33          34          35          36          37          38          39          40
 IAtWgt=          12          12          12          12          12          12          12          12          12          14
 AtmWgt=  12.0000000  12.0000000  12.0000000  12.0000000  12.0000000  12.0000000  12.0000000  12.0000000  12.0000000  14.0030740
 NucSpn=           0           0           0           0           0           0           0           0           0           2
 AtZEff=  -0.0000000  -0.0000000  -0.0000000  -0.0000000  -0.0000000  -0.0000000  -0.0000000  -0.0000000  -0.0000000  -0.0000000
 NQMom=    0.0000000   0.0000000   0.0000000   0.0000000   0.0000000   0.0000000   0.0000000   0.0000000   0.0000000   2.0440000
 NMagM=    0.0000000   0.0000000   0.0000000   0.0000000   0.0000000   0.0000000   0.0000000   0.0000000   0.0000000   0.4037610
 AtZNuc=   6.0000000   6.0000000   6.0000000   6.0000000   6.0000000   6.0000000   6.0000000   6.0000000   6.0000000   7.0000000

  Atom        41          42          43          44          45          46          47          48          49          50
 IAtWgt=          11          19          19           1           1           1           1           1           1           1
 AtmWgt=  11.0093053  18.9984033  18.9984033   1.0078250   1.0078250   1.0078250   1.0078250   1.0078250   1.0078250   1.0078250
 NucSpn=           3           1           1           1           1           1           1           1           1           1
 AtZEff=  -0.0000000  -0.0000000  -0.0000000  -0.0000000  -0.0000000  -0.0000000  -0.0000000  -0.0000000  -0.0000000  -0.0000000
 NQMom=    4.0590000   0.0000000   0.0000000   0.0000000   0.0000000   0.0000000   0.0000000   0.0000000   0.0000000   0.0000000
 NMagM=    2.6886370   2.6288670   2.6288670   2.7928460   2.7928460   2.7928460   2.7928460   2.7928460   2.7928460   2.7928460
 AtZNuc=   5.0000000   9.0000000   9.0000000   1.0000000   1.0000000   1.0000000   1.0000000   1.0000000   1.0000000   1.0000000

  Atom        51          52          53          54          55          56          57          58          59          60
 IAtWgt=           1           1           1           1           1           1           1           1           1           1
 AtmWgt=   1.0078250   1.0078250   1.0078250   1.0078250   1.0078250   1.0078250   1.0078250   1.0078250   1.0078250   1.0078250
 NucSpn=           1           1           1           1           1           1           1           1           1           1
 AtZEff=  -0.0000000  -0.0000000  -0.0000000  -0.0000000  -0.0000000  -0.0000000  -0.0000000  -0.0000000  -0.0000000  -0.0000000
 NQMom=    0.0000000   0.0000000   0.0000000   0.0000000   0.0000000   0.0000000   0.0000000   0.0000000   0.0000000   0.0000000
 NMagM=    2.7928460   2.7928460   2.7928460   2.7928460   2.7928460   2.7928460   2.7928460   2.7928460   2.7928460   2.7928460
 AtZNuc=   1.0000000   1.0000000   1.0000000   1.0000000   1.0000000   1.0000000   1.0000000   1.0000000   1.0000000   1.0000000

  Atom        61          62          63          64          65          66          67          68          69
 IAtWgt=           1           1           1           1           1           1           1           1           1
 AtmWgt=   1.0078250   1.0078250   1.0078250   1.0078250   1.0078250   1.0078250   1.0078250   1.0078250   1.0078250
 NucSpn=           1           1           1           1           1           1           1           1           1
 AtZEff=  -0.0000000  -0.0000000  -0.0000000  -0.0000000  -0.0000000  -0.0000000  -0.0000000  -0.0000000  -0.0000000
 NQMom=    0.0000000   0.0000000   0.0000000   0.0000000   0.0000000   0.0000000   0.0000000   0.0000000   0.0000000
 NMagM=    2.7928460   2.7928460   2.7928460   2.7928460   2.7928460   2.7928460   2.7928460   2.7928460   2.7928460
 AtZNuc=   1.0000000   1.0000000   1.0000000   1.0000000   1.0000000   1.0000000   1.0000000   1.0000000   1.0000000
 Leave Link  101 at Sat Oct 25 05:56:00 2025, MaxMem= 30870077440 cpu:               3.9 elap:               0.1
 (Enter /public/software/gauss/g16/l202.exe)
 Stoichiometry    C34H26BF2N3O3
 Framework group  C1[X(C34H26BF2N3O3)]
 Deg. of freedom   201
 Full point group                 C1      NOp   1
 Largest Abelian subgroup         C1      NOp   1
 Largest concise Abelian subgroup C1      NOp   1
                         Standard orientation:                         
 ---------------------------------------------------------------------
 Center     Atomic      Atomic             Coordinates (Angstroms)
 Number     Number       Type             X           Y           Z
 ---------------------------------------------------------------------
      1          6           0        2.681265   -3.707595   -0.138838
      2          6           0        1.482837   -2.808547   -0.099488
      3          6           0        0.171198   -3.253982   -0.122649
      4          6           0       -0.690394   -2.130911   -0.089580
      5          6           0       -2.130983   -2.094635   -0.104128
      6          6           0       -2.909953   -3.199903    0.003686
      7          6           0       -4.367150   -3.231414   -0.014725
      8          6           0       -5.169605   -2.082384   -0.192874
      9          6           0       -6.552552   -2.182825   -0.196589
     10          6           0       -7.180833   -3.428853   -0.023410
     11          6           0       -8.645632   -3.505335   -0.030228
     12          8           0       -9.293411   -4.540059    0.117104
     13          6           0       -6.392868   -4.579506    0.152951
     14          6           0       -5.011368   -4.479353    0.155670
     15          7           0        0.074848   -0.999919   -0.053875
     16          6           0        1.417723   -1.373873   -0.051549
     17          6           0        2.430113   -0.393719   -0.029198
     18          6           0        3.863019   -0.818435   -0.013838
     19          6           0        4.520322   -1.028329    1.207627
     20          6           0        5.853332   -1.424321    1.232271
     21          6           0        6.516518   -1.606095    0.018877
     22          7           0        7.916579   -2.021776    0.035968
     23          8           0        8.496288   -2.181605   -1.043025
     24          8           0        8.465428   -2.196718    1.128666
     25          6           0        5.889073   -1.405074   -1.210369
     26          6           0        4.556020   -1.009076   -1.218567
     27          6           0        2.113968    0.971239   -0.031305
     28          6           0        2.948539    2.145961   -0.055309
     29          6           0        4.442846    2.249471   -0.074607
     30          6           0        2.090872    3.229071   -0.074540
     31          6           0        0.753130    2.752579   -0.060782
     32          6           0       -0.472877    3.509155   -0.080875
     33          6           0       -0.511881    4.860934    0.023986
     34          6           0       -1.702028    5.705448    0.004350
     35          6           0       -3.013950    5.201447   -0.126394
     36          6           0       -4.106262    6.062539   -0.137950
     37          6           0       -3.921373    7.445152   -0.019745
     38          6           0       -2.629997    7.960547    0.111072
     39          6           0       -1.534200    7.100271    0.123101
     40          7           0        0.780401    1.390202   -0.039481
     41          5           0       -0.434215    0.448219    0.168619
     42          9           0       -0.943840    0.590405    1.465726
     43          9           0       -1.444750    0.752257   -0.758721
     44          1           0        3.298991   -3.528950   -1.024266
     45          1           0        3.325870   -3.571839    0.734754
     46          1           0        2.354200   -4.750209   -0.159743
     47          1           0       -0.144871   -4.286386   -0.177990
     48          1           0       -2.585047   -1.116794   -0.214552
     49          1           0       -2.433448   -4.170255    0.124344
     50          1           0       -4.707872   -1.110733   -0.330647
     51          1           0       -7.162344   -1.293971   -0.334881
     52          1           0       -9.164134   -2.539014   -0.181535
     53          1           0       -6.878657   -5.540803    0.285990
     54          1           0       -4.403542   -5.369070    0.291985
     55          1           0        3.986708   -0.881192    2.140190
     56          1           0        6.370443   -1.589364    2.168672
     57          1           0        6.433377   -1.555565   -2.133692
     58          1           0        4.049721   -0.847151   -2.163838
     59          1           0        4.874229    1.780375   -0.964180
     60          1           0        4.735767    3.302317   -0.071239
     61          1           0        4.898447    1.766840    0.795187
     62          1           0        2.386225    4.268182   -0.113208
     63          1           0       -1.388067    2.940490   -0.196074
     64          1           0        0.425102    5.401848    0.139707
     65          1           0       -3.180441    4.133120   -0.217987
     66          1           0       -5.108351    5.656522   -0.239205
     67          1           0       -4.778065    8.112164   -0.029205
     68          1           0       -2.476353    9.031497    0.203732
     69          1           0       -0.529941    7.502501    0.224973
 ---------------------------------------------------------------------
 Rotational constants (GHZ):           0.0721140           0.0414425           0.0268416
 Leave Link  202 at Sat Oct 25 05:56:00 2025, MaxMem= 30870077440 cpu:               0.8 elap:               0.0
 (Enter /public/software/gauss/g16/l301.exe)
 Standard basis: def2TZVPP (5D, 7F)
 Ernie: Thresh=  0.10000D-02 Tol=  0.10000D-05 Strict=F.
 There are  1938 symmetry adapted cartesian basis functions of A   symmetry.
 There are  1697 symmetry adapted basis functions of A   symmetry.
  1697 basis functions,  2635 primitive gaussians,  1938 cartesian basis functions
   149 alpha electrons      149 beta electrons
       nuclear repulsion energy      4521.4372367033 Hartrees.
 IExCor= 4336 DFT=T Ex+Corr=M062X ExCW=0 ScaHFX=  0.540000
 ScaDFX=  1.000000  1.000000  1.000000  1.000000 ScalE2=  1.000000  1.000000
 IRadAn=      5 IRanWt=     -1 IRanGd=            0 ICorTp=0 IEmpDi=131
 NAtoms=   69 NActive=   69 NUniq=   69 SFac= 1.00D+00 NAtFMM=   60 NAOKFM=T Big=T
 Integral buffers will be    131072 words long.
 Raffenetti 2 integral format.
 Two-electron integral symmetry is turned on.
 R6Disp:  Grimme-D3 Dispersion energy=       -0.0055143738 Hartrees.
 Nuclear repulsion after empirical dispersion term =     4521.4317223295 Hartrees.
 ------------------------------------------------------------------------------
 Polarizable Continuum Model (PCM)
 =================================
 Model                : PCM.
 Atomic radii         : UFF (Universal Force Field).
 Polarization charges : Total charges.
 Charge compensation  : None.
 Solution method      : On-the-fly selection.
 Cavity type          : Scaled VdW (van der Waals Surface) (Alpha=1.100).
 Cavity algorithm     : GePol (No added spheres)
                        Default sphere list used, NSphG=   69.
                        Lebedev-Laikov grids with approx.  5.0 points / Ang**2.
                        Smoothing algorithm: York/Karplus (Gamma=1.0000).
                        Polarization charges: spherical gaussians, with
                                              point-specific exponents (IZeta= 3).
                        Self-potential: point-specific (ISelfS= 7).
                        Self-field    : sphere-specific E.n sum rule (ISelfD= 2).
 Solvent              : Water, Eps=  78.355300 Eps(inf)=   1.777849
 ------------------------------------------------------------------------------
 GePol: Number of generator spheres                  =      69
 GePol: Total number of spheres                      =      69
 GePol: Number of exposed spheres                    =      69 (100.00%)
 GePol: Number of points                             =    5189
 GePol: Average weight of points                     =       0.13
 GePol: Minimum weight of points                     =   0.14D-10
 GePol: Maximum weight of points                     =    0.20577
 GePol: Number of points with low weight             =     362
 GePol: Fraction of low-weight points (<1% of avg)   =       6.98%
 GePol: Cavity surface area                          =    652.147 Ang**2
 GePol: Cavity volume                                =    750.304 Ang**3
 Leave Link  301 at Sat Oct 25 05:56:00 2025, MaxMem= 30870077440 cpu:               3.7 elap:               0.1
 (Enter /public/software/gauss/g16/l302.exe)
 NPDir=0 NMtPBC=     1 NCelOv=     1 NCel=       1 NClECP=     1 NCelD=      1
         NCelK=      1 NCelE2=     1 NClLst=     1 CellRange=     0.0.
 One-electron integrals computed using PRISM.
 One-electron integral symmetry used in STVInt
   1 Symmetry operations used in ECPInt.
 ECPInt:  NShTT=  198135 NPrTT=  571870 LenC2=  127369 LenP2D=  247914.
 LDataN:  DoStor=T MaxTD1= 6 Len=  172
 NBasis=  1697 RedAO= T EigKep=  3.60D-06  NBF=  1697
 NBsUse=  1697 1.00D-06 EigRej= -1.00D+00 NBFU=  1697
 Precomputing XC quadrature grid using
 IXCGrd= 4 IRadAn=           5 IRanWt=          -1 IRanGd=           0 AccXCQ= 0.00D+00.
 Generated NRdTot=       0 NPtTot=           0 NUsed=           0 NTot=          32
 NSgBfM=  1726  1723  1726  1726  1726 MxSgAt=    69 MxSgA2=    69.
 Leave Link  302 at Sat Oct 25 05:56:08 2025, MaxMem= 30870077440 cpu:             483.3 elap:               7.6
 (Enter /public/software/gauss/g16/l303.exe)
 DipDrv:  MaxL=1.
 Leave Link  303 at Sat Oct 25 05:56:08 2025, MaxMem= 30870077440 cpu:              23.7 elap:               0.4
 (Enter /public/software/gauss/g16/l401.exe)
 ExpMin= 6.06D-02 ExpMax= 3.55D+04 ExpMxC= 1.21D+03 IAcc=3 IRadAn=         5 AccDes= 0.00D+00
 Harris functional with IExCor= 1009 and IRadAn=       5 diagonalized for initial guess.
 HarFok:  IExCor= 1009 AccDes= 0.00D+00 IRadAn=         5 IDoV= 1 UseB2=F ITyADJ=14
 ICtDFT=  3500011 ScaDFX=  1.000000  1.000000  1.000000  1.000000
 FoFCou: FMM=F IPFlag=           0 FMFlag=      100000 FMFlg1=        2001
         NFxFlg=           0 DoJE=T BraDBF=F KetDBF=T FulRan=T
         wScrn=  0.000000 ICntrl=       500 IOpCl=  0 I1Cent=   200000004 NGrid=           0
         NMat0=    1 NMatS0=      1 NMatT0=    0 NMatD0=    1 NMtDS0=    0 NMtDT0=    0
 Petite list used in FoFCou.
 Harris En= -1924.84397856502    
 JPrj=0 DoOrth=F DoCkMO=F.
 Leave Link  401 at Sat Oct 25 05:56:17 2025, MaxMem= 30870077440 cpu:             549.9 elap:               8.7
 (Enter /public/software/gauss/g16/l502.exe)
 Integral symmetry usage will be decided dynamically.
 Closed shell SCF:
 Using DIIS extrapolation, IDIIS=  1040.
 NGot= 30870077440 LenX= 30862425455 LenY= 30858667673
 Requested convergence on RMS density matrix=1.00D-08 within 128 cycles.
 Requested convergence on MAX density matrix=1.00D-06.
 Requested convergence on             energy=1.00D-06.
 No special actions if energy rises.
 Fock matrices will be formed incrementally for  20 cycles.

 Cycle   1  Pass 1  IDiag  1:
 FoFJK:  IHMeth= 1 ICntrl=       0 DoSepK=F KAlg= 0 I1Cent=           0 FoldK=F
 IRaf= 610000000 NMat=       1 IRICut=       1 DoRegI=T DoRafI=F ISym2E= 0 IDoP0=0 IntGTp=1.
 FoFCou: FMM=T IPFlag=           0 FMFlag=      100000 FMFlg1=        2001
         NFxFlg=           0 DoJE=F BraDBF=F KetDBF=F FulRan=T
         wScrn=  0.000000 ICntrl=         0 IOpCl=  0 I1Cent=           0 NGrid=           0
         NMat0=    1 NMatS0=      1 NMatT0=    0 NMatD0=    1 NMtDS0=    0 NMtDT0=    0
 Symmetry not used in FoFCou.
 FMM levels:  10  Number of levels for PrismC:   9
 Inv3:  Mode=1 IEnd=    80777163.
 Iteration    1 A*A^-1 deviation from unit magnitude is 6.88D-15 for   5181.
 Iteration    1 A*A^-1 deviation from orthogonality  is 5.25D-15 for   5159   1739.
 Iteration    1 A^-1*A deviation from unit magnitude is 6.88D-15 for   5181.
 Iteration    1 A^-1*A deviation from orthogonality  is 5.70D-15 for   5175   1885.
 E= -1924.85137441208    
 DIIS: error= 3.37D-02 at cycle   1 NSaved=   1.
 NSaved= 1 IEnMin= 1 EnMin= -1924.85137441208     IErMin= 1 ErrMin= 3.37D-02
 ErrMax= 3.37D-02  0.00D+00 EMaxC= 1.00D-01 BMatC= 1.30D+00 BMatP= 1.30D+00
 IDIUse=3 WtCom= 6.63D-01 WtEn= 3.37D-01
 Coeff-Com:  0.100D+01
 Coeff-En:   0.100D+01
 Coeff:      0.100D+01
 Gap=     0.133 Goal=   None    Shift=    0.000
 GapD=    0.133 DampG=1.000 DampE=0.500 DampFc=0.5000 IDamp=-1.
 Damping current iteration by 5.00D-01
 RMSDP=1.49D-03 MaxDP=5.04D-01              OVMax= 2.62D-01

 Cycle   2  Pass 1  IDiag  1:
 RMSU=  7.45D-04    CP:  9.86D-01
 E= -1925.32331355573     Delta-E=       -0.471939143659 Rises=F Damp=T
 DIIS: error= 5.53D-03 at cycle   2 NSaved=   2.
 NSaved= 2 IEnMin= 2 EnMin= -1925.32331355573     IErMin= 2 ErrMin= 5.53D-03
 ErrMax= 5.53D-03  0.00D+00 EMaxC= 1.00D-01 BMatC= 1.32D-01 BMatP= 1.30D+00
 IDIUse=3 WtCom= 9.45D-01 WtEn= 5.53D-02
 Coeff-Com: -0.640D-01 0.106D+01
 Coeff-En:   0.000D+00 0.100D+01
 Coeff:     -0.605D-01 0.106D+01
 Gap=     0.179 Goal=   None    Shift=    0.000
 RMSDP=6.52D-04 MaxDP=1.05D-01 DE=-4.72D-01 OVMax= 2.07D-01

 Cycle   3  Pass 1  IDiag  1:
 RMSU=  6.25D-04    CP:  9.63D-01  1.22D+00
 E= -1925.76762162083     Delta-E=       -0.444308065097 Rises=F Damp=F
 DIIS: error= 1.36D-02 at cycle   3 NSaved=   3.
 NSaved= 3 IEnMin= 3 EnMin= -1925.76762162083     IErMin= 2 ErrMin= 5.53D-03
 ErrMax= 1.36D-02  0.00D+00 EMaxC= 1.00D-01 BMatC= 7.59D-02 BMatP= 1.32D-01
 IDIUse=3 WtCom= 8.64D-01 WtEn= 1.36D-01
 Coeff-Com: -0.119D+00 0.490D+00 0.628D+00
 Coeff-En:   0.000D+00 0.000D+00 0.100D+01
 Coeff:     -0.102D+00 0.424D+00 0.679D+00
 Gap=     0.134 Goal=   None    Shift=    0.000
 RMSDP=1.86D-04 MaxDP=3.76D-02 DE=-4.44D-01 OVMax= 8.12D-02

 Cycle   4  Pass 1  IDiag  1:
 RMSU=  1.69D-04    CP:  9.66D-01  1.28D+00  9.00D-01
 E= -1925.81381073166     Delta-E=       -0.046189110831 Rises=F Damp=F
 DIIS: error= 5.34D-03 at cycle   4 NSaved=   4.
 NSaved= 4 IEnMin= 4 EnMin= -1925.81381073166     IErMin= 4 ErrMin= 5.34D-03
 ErrMax= 5.34D-03  0.00D+00 EMaxC= 1.00D-01 BMatC= 1.46D-02 BMatP= 7.59D-02
 IDIUse=3 WtCom= 9.47D-01 WtEn= 5.34D-02
 Coeff-Com: -0.317D-01 0.865D-01 0.347D+00 0.599D+00
 Coeff-En:   0.000D+00 0.000D+00 0.152D+00 0.848D+00
 Coeff:     -0.300D-01 0.819D-01 0.336D+00 0.612D+00
 Gap=     0.135 Goal=   None    Shift=    0.000
 RMSDP=6.80D-05 MaxDP=2.10D-02 DE=-4.62D-02 OVMax= 2.26D-02

 Cycle   5  Pass 1  IDiag  1:
 RMSU=  4.67D-05    CP:  9.65D-01  1.25D+00  9.36D-01  7.68D-01
 E= -1925.82457669108     Delta-E=       -0.010765959420 Rises=F Damp=F
 DIIS: error= 4.84D-04 at cycle   5 NSaved=   5.
 NSaved= 5 IEnMin= 5 EnMin= -1925.82457669108     IErMin= 5 ErrMin= 4.84D-04
 ErrMax= 4.84D-04  0.00D+00 EMaxC= 1.00D-01 BMatC= 3.72D-04 BMatP= 1.46D-02
 IDIUse=3 WtCom= 9.95D-01 WtEn= 4.84D-03
 Coeff-Com: -0.745D-02 0.134D-01 0.115D+00 0.262D+00 0.617D+00
 Coeff-En:   0.000D+00 0.000D+00 0.000D+00 0.000D+00 0.100D+01
 Coeff:     -0.741D-02 0.133D-01 0.114D+00 0.261D+00 0.619D+00
 Gap=     0.136 Goal=   None    Shift=    0.000
 RMSDP=1.48D-05 MaxDP=1.83D-03 DE=-1.08D-02 OVMax= 4.07D-03

 Cycle   6  Pass 1  IDiag  1:
 RMSU=  1.38D-05    CP:  9.65D-01  1.25D+00  9.35D-01  7.83D-01  9.06D-01
 E= -1925.82489651989     Delta-E=       -0.000319828805 Rises=F Damp=F
 DIIS: error= 9.93D-05 at cycle   6 NSaved=   6.
 NSaved= 6 IEnMin= 6 EnMin= -1925.82489651989     IErMin= 6 ErrMin= 9.93D-05
 ErrMax= 9.93D-05  0.00D+00 EMaxC= 1.00D-01 BMatC= 2.68D-05 BMatP= 3.72D-04
 IDIUse=1 WtCom= 1.00D+00 WtEn= 0.00D+00
 Coeff-Com: -0.238D-03-0.154D-02 0.149D-01 0.449D-01 0.239D+00 0.703D+00
 Coeff:     -0.238D-03-0.154D-02 0.149D-01 0.449D-01 0.239D+00 0.703D+00
 Gap=     0.137 Goal=   None    Shift=    0.000
 RMSDP=7.22D-06 MaxDP=2.06D-03 DE=-3.20D-04 OVMax= 2.68D-03

 Cycle   7  Pass 1  IDiag  1:
 RMSU=  5.98D-06    CP:  9.65D-01  1.25D+00  9.38D-01  7.79D-01  9.68D-01
                    CP:  9.03D-01
 E= -1925.82492678533     Delta-E=       -0.000030265439 Rises=F Damp=F
 DIIS: error= 3.65D-05 at cycle   7 NSaved=   7.
 NSaved= 7 IEnMin= 7 EnMin= -1925.82492678533     IErMin= 7 ErrMin= 3.65D-05
 ErrMax= 3.65D-05  0.00D+00 EMaxC= 1.00D-01 BMatC= 4.49D-06 BMatP= 2.68D-05
 IDIUse=1 WtCom= 1.00D+00 WtEn= 0.00D+00
 Coeff-Com:  0.100D-02-0.273D-02-0.102D-01-0.194D-01 0.196D-01 0.306D+00
 Coeff-Com:  0.705D+00
 Coeff:      0.100D-02-0.273D-02-0.102D-01-0.194D-01 0.196D-01 0.306D+00
 Coeff:      0.705D+00
 Gap=     0.137 Goal=   None    Shift=    0.000
 RMSDP=3.01D-06 MaxDP=5.53D-04 DE=-3.03D-05 OVMax= 1.34D-03

 Cycle   8  Pass 1  IDiag  1:
 RMSU=  2.05D-06    CP:  9.65D-01  1.25D+00  9.38D-01  7.84D-01  1.00D+00
                    CP:  9.85D-01  1.05D+00
 E= -1925.82493301651     Delta-E=       -0.000006231187 Rises=F Damp=F
 DIIS: error= 1.83D-05 at cycle   8 NSaved=   8.
 NSaved= 8 IEnMin= 8 EnMin= -1925.82493301651     IErMin= 8 ErrMin= 1.83D-05
 ErrMax= 1.83D-05  0.00D+00 EMaxC= 1.00D-01 BMatC= 9.43D-07 BMatP= 4.49D-06
 IDIUse=1 WtCom= 1.00D+00 WtEn= 0.00D+00
 Coeff-Com:  0.517D-03-0.107D-02-0.737D-02-0.175D-01-0.301D-01 0.277D-01
 Coeff-Com:  0.347D+00 0.681D+00
 Coeff:      0.517D-03-0.107D-02-0.737D-02-0.175D-01-0.301D-01 0.277D-01
 Coeff:      0.347D+00 0.681D+00
 Gap=     0.137 Goal=   None    Shift=    0.000
 RMSDP=1.45D-06 MaxDP=5.20D-04 DE=-6.23D-06 OVMax= 7.50D-04

 Cycle   9  Pass 1  IDiag  1:
 RMSU=  8.85D-07    CP:  9.65D-01  1.25D+00  9.39D-01  7.85D-01  1.01D+00
                    CP:  1.00D+00  1.19D+00  1.01D+00
 E= -1925.82493442749     Delta-E=       -0.000001410973 Rises=F Damp=F
 DIIS: error= 6.39D-06 at cycle   9 NSaved=   9.
 NSaved= 9 IEnMin= 9 EnMin= -1925.82493442749     IErMin= 9 ErrMin= 6.39D-06
 ErrMax= 6.39D-06  0.00D+00 EMaxC= 1.00D-01 BMatC= 8.35D-08 BMatP= 9.43D-07
 IDIUse=1 WtCom= 1.00D+00 WtEn= 0.00D+00
 Coeff-Com:  0.297D-04 0.260D-04-0.106D-02-0.355D-02-0.123D-01-0.321D-01
 Coeff-Com:  0.259D-01 0.227D+00 0.796D+00
 Coeff:      0.297D-04 0.260D-04-0.106D-02-0.355D-02-0.123D-01-0.321D-01
 Coeff:      0.259D-01 0.227D+00 0.796D+00
 Gap=     0.137 Goal=   None    Shift=    0.000
 RMSDP=5.37D-07 MaxDP=1.28D-04 DE=-1.41D-06 OVMax= 3.10D-04

 Cycle  10  Pass 1  IDiag  1:
 RMSU=  3.68D-07    CP:  9.65D-01  1.25D+00  9.39D-01  7.84D-01  1.01D+00
                    CP:  1.01D+00  1.22D+00  1.13D+00  1.04D+00
 E= -1925.82493460541     Delta-E=       -0.000000177927 Rises=F Damp=F
 DIIS: error= 3.40D-06 at cycle  10 NSaved=  10.
 NSaved=10 IEnMin=10 EnMin= -1925.82493460541     IErMin=10 ErrMin= 3.40D-06
 ErrMax= 3.40D-06  0.00D+00 EMaxC= 1.00D-01 BMatC= 2.77D-08 BMatP= 8.35D-08
 IDIUse=1 WtCom= 1.00D+00 WtEn= 0.00D+00
 Coeff-Com: -0.740D-04 0.198D-03 0.749D-03 0.123D-02-0.674D-03-0.203D-01
 Coeff-Com: -0.460D-01-0.156D-01 0.409D+00 0.671D+00
 Coeff:     -0.740D-04 0.198D-03 0.749D-03 0.123D-02-0.674D-03-0.203D-01
 Coeff:     -0.460D-01-0.156D-01 0.409D+00 0.671D+00
 Gap=     0.137 Goal=   None    Shift=    0.000
 RMSDP=2.44D-07 MaxDP=8.42D-05 DE=-1.78D-07 OVMax= 1.54D-04

 Cycle  11  Pass 1  IDiag  1:
 RMSU=  1.26D-07    CP:  9.65D-01  1.25D+00  9.39D-01  7.84D-01  1.01D+00
                    CP:  1.01D+00  1.25D+00  1.16D+00  1.17D+00  1.05D+00
 E= -1925.82493464701     Delta-E=       -0.000000041599 Rises=F Damp=F
 DIIS: error= 1.35D-06 at cycle  11 NSaved=  11.
 NSaved=11 IEnMin=11 EnMin= -1925.82493464701     IErMin=11 ErrMin= 1.35D-06
 ErrMax= 1.35D-06  0.00D+00 EMaxC= 1.00D-01 BMatC= 2.92D-09 BMatP= 2.77D-08
 IDIUse=1 WtCom= 1.00D+00 WtEn= 0.00D+00
 Coeff-Com: -0.379D-04 0.863D-04 0.502D-03 0.109D-02 0.143D-02-0.543D-02
 Coeff-Com: -0.261D-01-0.452D-01 0.802D-01 0.292D+00 0.702D+00
 Coeff:     -0.379D-04 0.863D-04 0.502D-03 0.109D-02 0.143D-02-0.543D-02
 Coeff:     -0.261D-01-0.452D-01 0.802D-01 0.292D+00 0.702D+00
 Gap=     0.137 Goal=   None    Shift=    0.000
 RMSDP=9.29D-08 MaxDP=3.85D-05 DE=-4.16D-08 OVMax= 4.54D-05

 Cycle  12  Pass 1  IDiag  1:
 RMSU=  4.44D-08    CP:  9.65D-01  1.25D+00  9.39D-01  7.84D-01  1.01D+00
                    CP:  1.01D+00  1.25D+00  1.18D+00  1.21D+00  1.14D+00
                    CP:  1.08D+00
 E= -1925.82493465085     Delta-E=       -0.000000003841 Rises=F Damp=F
 DIIS: error= 6.31D-07 at cycle  12 NSaved=  12.
 NSaved=12 IEnMin=12 EnMin= -1925.82493465085     IErMin=12 ErrMin= 6.31D-07
 ErrMax= 6.31D-07  0.00D+00 EMaxC= 1.00D-01 BMatC= 3.99D-10 BMatP= 2.92D-09
 IDIUse=1 WtCom= 1.00D+00 WtEn= 0.00D+00
 Coeff-Com: -0.492D-05 0.819D-05 0.101D-03 0.272D-03 0.684D-03 0.553D-03
 Coeff-Com: -0.381D-02-0.166D-01-0.168D-01 0.287D-01 0.300D+00 0.707D+00
 Coeff:     -0.492D-05 0.819D-05 0.101D-03 0.272D-03 0.684D-03 0.553D-03
 Coeff:     -0.381D-02-0.166D-01-0.168D-01 0.287D-01 0.300D+00 0.707D+00
 Gap=     0.137 Goal=   None    Shift=    0.000
 RMSDP=2.35D-08 MaxDP=2.66D-06 DE=-3.84D-09 OVMax= 1.53D-05

 Cycle  13  Pass 1  IDiag  1:
 RMSU=  1.75D-08    CP:  9.65D-01  1.25D+00  9.39D-01  7.84D-01  1.01D+00
                    CP:  1.01D+00  1.25D+00  1.18D+00  1.22D+00  1.15D+00
                    CP:  1.15D+00  1.09D+00
 E= -1925.82493465132     Delta-E=       -0.000000000461 Rises=F Damp=F
 DIIS: error= 1.41D-07 at cycle  13 NSaved=  13.
 NSaved=13 IEnMin=13 EnMin= -1925.82493465132     IErMin=13 ErrMin= 1.41D-07
 ErrMax= 1.41D-07  0.00D+00 EMaxC= 1.00D-01 BMatC= 6.90D-11 BMatP= 3.99D-10
 IDIUse=1 WtCom= 1.00D+00 WtEn= 0.00D+00
 Coeff-Com:  0.294D-05-0.796D-05-0.215D-04-0.214D-04 0.129D-03 0.973D-03
 Coeff-Com:  0.188D-02-0.162D-02-0.175D-01-0.300D-01 0.306D-01 0.326D+00
 Coeff-Com:  0.690D+00
 Coeff:      0.294D-05-0.796D-05-0.215D-04-0.214D-04 0.129D-03 0.973D-03
 Coeff:      0.188D-02-0.162D-02-0.175D-01-0.300D-01 0.306D-01 0.326D+00
 Coeff:      0.690D+00
 Gap=     0.137 Goal=   None    Shift=    0.000
 RMSDP=1.31D-08 MaxDP=4.60D-06 DE=-4.61D-10 OVMax= 7.42D-06

 Cycle  14  Pass 1  IDiag  1:
 RMSU=  7.45D-09    CP:  9.65D-01  1.25D+00  9.39D-01  7.84D-01  1.01D+00
                    CP:  1.01D+00  1.25D+00  1.18D+00  1.22D+00  1.16D+00
                    CP:  1.20D+00  1.19D+00  1.02D+00
 E= -1925.82493465135     Delta-E=       -0.000000000039 Rises=F Damp=F
 DIIS: error= 4.79D-08 at cycle  14 NSaved=  14.
 NSaved=14 IEnMin=14 EnMin= -1925.82493465135     IErMin=14 ErrMin= 4.79D-08
 ErrMax= 4.79D-08  0.00D+00 EMaxC= 1.00D-01 BMatC= 7.24D-12 BMatP= 6.90D-11
 IDIUse=1 WtCom= 1.00D+00 WtEn= 0.00D+00
 Coeff-Com:  0.157D-05-0.363D-05-0.214D-04-0.448D-04-0.491D-04 0.247D-03
 Coeff-Com:  0.119D-02 0.171D-02-0.323D-02-0.161D-01-0.374D-01 0.959D-02
 Coeff-Com:  0.227D+00 0.817D+00
 Coeff:      0.157D-05-0.363D-05-0.214D-04-0.448D-04-0.491D-04 0.247D-03
 Coeff:      0.119D-02 0.171D-02-0.323D-02-0.161D-01-0.374D-01 0.959D-02
 Coeff:      0.227D+00 0.817D+00
 Gap=     0.137 Goal=   None    Shift=    0.000
 RMSDP=5.20D-09 MaxDP=9.46D-07 DE=-3.91D-11 OVMax= 4.70D-06

 Error on total polarization charges =  0.02371
 SCF Done:  E(RM062X) =  -1925.82493465     A.U. after   14 cycles
            NFock= 14  Conv=0.52D-08     -V/T= 2.0054
 KE= 1.915549088705D+03 PE=-1.353132808976D+04 EE= 5.168522344072D+03
 Leave Link  502 at Sat Oct 25 06:08:48 2025, MaxMem= 30870077440 cpu:           47163.0 elap:             750.9
 (Enter /public/software/gauss/g16/l601.exe)
 Copying SCF densities to generalized density rwf, IOpCl= 0 IROHF=0.

 **********************************************************************

            Population analysis using the SCF density.

 **********************************************************************

 Orbital symmetries:
       Occupied  (A) (A) (A) (A) (A) (A) (A) (A) (A) (A) (A) (A)
                 (A) (A) (A) (A) (A) (A) (A) (A) (A) (A) (A) (A)
                 (A) (A) (A) (A) (A) (A) (A) (A) (A) (A) (A) (A)
                 (A) (A) (A) (A) (A) (A) (A) (A) (A) (A) (A) (A)
                 (A) (A) (A) (A) (A) (A) (A) (A) (A) (A) (A) (A)
                 (A) (A) (A) (A) (A) (A) (A) (A) (A) (A) (A) (A)
                 (A) (A) (A) (A) (A) (A) (A) (A) (A) (A) (A) (A)
                 (A) (A) (A) (A) (A) (A) (A) (A) (A) (A) (A) (A)
                 (A) (A) (A) (A) (A) (A) (A) (A) (A) (A) (A) (A)
                 (A) (A) (A) (A) (A) (A) (A) (A) (A) (A) (A) (A)
                 (A) (A) (A) (A) (A) (A) (A) (A) (A) (A) (A) (A)
                 (A) (A) (A) (A) (A) (A) (A) (A) (A) (A) (A) (A)
                 (A) (A) (A) (A) (A)
       Virtual   (A) (A) (A) (A) (A) (A) (A) (A) (A) (A) (A) (A)
                 (A) (A) (A) (A) (A) (A) (A) (A) (A) (A) (A) (A)
                 (A) (A) (A) (A) (A) (A) (A) (A) (A) (A) (A) (A)
                 (A) (A) (A) (A) (A) (A) (A) (A) (A) (A) (A) (A)
                 (A) (A) (A) (A) (A) (A) (A) (A) (A) (A) (A) (A)
                 (A) (A) (A) (A) (A) (A) (A) (A) (A) (A) (A) (A)
                 (A) (A) (A) (A) (A) (A) (A) (A) (A) (A) (A) (A)
                 (A) (A) (A) (A) (A) (A) (A) (A) (A) (A) (A) (A)
                 (A) (A) (A) (A) (A) (A) (A) (A) (A) (A) (A) (A)
                 (A) (A) (A) (A) (A) (A) (A) (A) (A) (A) (A) (A)
                 (A) (A) (A) (A) (A) (A) (A) (A) (A) (A) (A) (A)
                 (A) (A) (A) (A) (A) (A) (A) (A) (A) (A) (A) (A)
                 (A) (A) (A) (A) (A) (A) (A) (A) (A) (A) (A) (A)
                 (A) (A) (A) (A) (A) (A) (A) (A) (A) (A) (A) (A)
                 (A) (A) (A) (A) (A) (A) (A) (A) (A) (A) (A) (A)
                 (A) (A) (A) (A) (A) (A) (A) (A) (A) (A) (A) (A)
                 (A) (A) (A) (A) (A) (A) (A) (A) (A) (A) (A) (A)
                 (A) (A) (A) (A) (A) (A) (A) (A) (A) (A) (A) (A)
                 (A) (A) (A) (A) (A) (A) (A) (A) (A) (A) (A) (A)
                 (A) (A) (A) (A) (A) (A) (A) (A) (A) (A) (A) (A)
                 (A) (A) (A) (A) (A) (A) (A) (A) (A) (A) (A) (A)
                 (A) (A) (A) (A) (A) (A) (A) (A) (A) (A) (A) (A)
                 (A) (A) (A) (A) (A) (A) (A) (A) (A) (A) (A) (A)
                 (A) (A) (A) (A) (A) (A) (A) (A) (A) (A) (A) (A)
                 (A) (A) (A) (A) (A) (A) (A) (A) (A) (A) (A) (A)
                 (A) (A) (A) (A) (A) (A) (A) (A) (A) (A) (A) (A)
                 (A) (A) (A) (A) (A) (A) (A) (A) (A) (A) (A) (A)
                 (A) (A) (A) (A) (A) (A) (A) (A) (A) (A) (A) (A)
                 (A) (A) (A) (A) (A) (A) (A) (A) (A) (A) (A) (A)
                 (A) (A) (A) (A) (A) (A) (A) (A) (A) (A) (A) (A)
                 (A) (A) (A) (A) (A) (A) (A) (A) (A) (A) (A) (A)
                 (A) (A) (A) (A) (A) (A) (A) (A) (A) (A) (A) (A)
                 (A) (A) (A) (A) (A) (A) (A) (A) (A) (A) (A) (A)
                 (A) (A) (A) (A) (A) (A) (A) (A) (A) (A) (A) (A)
                 (A) (A) (A) (A) (A) (A) (A) (A) (A) (A) (A) (A)
                 (A) (A) (A) (A) (A) (A) (A) (A) (A) (A) (A) (A)
                 (A) (A) (A) (A) (A) (A) (A) (A) (A) (A) (A) (A)
                 (A) (A) (A) (A) (A) (A) (A) (A) (A) (A) (A) (A)
                 (A) (A) (A) (A) (A) (A) (A) (A) (A) (A) (A) (A)
                 (A) (A) (A) (A) (A) (A) (A) (A) (A) (A) (A) (A)
                 (A) (A) (A) (A) (A) (A) (A) (A) (A) (A) (A) (A)
                 (A) (A) (A) (A) (A) (A) (A) (A) (A) (A) (A) (A)
                 (A) (A) (A) (A) (A) (A) (A) (A) (A) (A) (A) (A)
                 (A) (A) (A) (A) (A) (A) (A) (A) (A) (A) (A) (A)
                 (A) (A) (A) (A) (A) (A) (A) (A) (A) (A) (A) (A)
                 (A) (A) (A) (A) (A) (A) (A) (A) (A) (A) (A) (A)
                 (A) (A) (A) (A) (A) (A) (A) (A) (A) (A) (A) (A)
                 (A) (A) (A) (A) (A) (A) (A) (A) (A) (A) (A) (A)
                 (A) (A) (A) (A) (A) (A) (A) (A) (A) (A) (A) (A)
                 (A) (A) (A) (A) (A) (A) (A) (A) (A) (A) (A) (A)
                 (A) (A) (A) (A) (A) (A) (A) (A) (A) (A) (A) (A)
                 (A) (A) (A) (A) (A) (A) (A) (A) (A) (A) (A) (A)
                 (A) (A) (A) (A) (A) (A) (A) (A) (A) (A) (A) (A)
                 (A) (A) (A) (A) (A) (A) (A) (A) (A) (A) (A) (A)
                 (A) (A) (A) (A) (A) (A) (A) (A) (A) (A) (A) (A)
                 (A) (A) (A) (A) (A) (A) (A) (A) (A) (A) (A) (A)
                 (A) (A) (A) (A) (A) (A) (A) (A) (A) (A) (A) (A)
                 (A) (A) (A) (A) (A) (A) (A) (A) (A) (A) (A) (A)
                 (A) (A) (A) (A) (A) (A) (A) (A) (A) (A) (A) (A)
                 (A) (A) (A) (A) (A) (A) (A) (A) (A) (A) (A) (A)
                 (A) (A) (A) (A) (A) (A) (A) (A) (A) (A) (A) (A)
                 (A) (A) (A) (A) (A) (A) (A) (A) (A) (A) (A) (A)
                 (A) (A) (A) (A) (A) (A) (A) (A) (A) (A) (A) (A)
                 (A) (A) (A) (A) (A) (A) (A) (A) (A) (A) (A) (A)
                 (A) (A) (A) (A) (A) (A) (A) (A) (A) (A) (A) (A)
                 (A) (A) (A) (A) (A) (A) (A) (A) (A) (A) (A) (A)
                 (A) (A) (A) (A) (A) (A) (A) (A) (A) (A) (A) (A)
                 (A) (A) (A) (A) (A) (A) (A) (A) (A) (A) (A) (A)
                 (A) (A) (A) (A) (A) (A) (A) (A) (A) (A) (A) (A)
                 (A) (A) (A) (A) (A) (A) (A) (A) (A) (A) (A) (A)
                 (A) (A) (A) (A) (A) (A) (A) (A) (A) (A) (A) (A)
                 (A) (A) (A) (A) (A) (A) (A) (A) (A) (A) (A) (A)
                 (A) (A) (A) (A) (A) (A) (A) (A) (A) (A) (A) (A)
                 (A) (A) (A) (A) (A) (A) (A) (A) (A) (A) (A) (A)
                 (A) (A) (A) (A) (A) (A) (A) (A) (A) (A) (A) (A)
                 (A) (A) (A) (A) (A) (A) (A) (A) (A) (A) (A) (A)
                 (A) (A) (A) (A) (A) (A) (A) (A) (A) (A) (A) (A)
                 (A) (A) (A) (A) (A) (A) (A) (A) (A) (A) (A) (A)
                 (A) (A) (A) (A) (A) (A) (A) (A) (A) (A) (A) (A)
                 (A) (A) (A) (A) (A) (A) (A) (A) (A) (A) (A) (A)
                 (A) (A) (A) (A) (A) (A) (A) (A) (A) (A) (A) (A)
                 (A) (A) (A) (A) (A) (A) (A) (A) (A) (A) (A) (A)
                 (A) (A) (A) (A) (A) (A) (A) (A) (A) (A) (A) (A)
                 (A) (A) (A) (A) (A) (A) (A) (A) (A) (A) (A) (A)
                 (A) (A) (A) (A) (A) (A) (A) (A) (A) (A) (A) (A)
                 (A) (A) (A) (A) (A) (A) (A) (A) (A) (A) (A) (A)
                 (A) (A) (A) (A) (A) (A) (A) (A) (A) (A) (A) (A)
                 (A) (A) (A) (A) (A) (A) (A) (A) (A) (A) (A) (A)
                 (A) (A) (A) (A) (A) (A) (A) (A) (A) (A) (A) (A)
                 (A) (A) (A) (A) (A) (A) (A) (A) (A) (A) (A) (A)
                 (A) (A) (A) (A) (A) (A) (A) (A) (A) (A) (A) (A)
                 (A) (A) (A) (A) (A) (A) (A) (A) (A) (A) (A) (A)
                 (A) (A) (A) (A) (A) (A) (A) (A) (A) (A) (A) (A)
                 (A) (A) (A) (A) (A) (A) (A) (A) (A) (A) (A) (A)
                 (A) (A) (A) (A) (A) (A) (A) (A) (A) (A) (A) (A)
                 (A) (A) (A) (A) (A) (A) (A) (A) (A) (A) (A) (A)
                 (A) (A) (A) (A) (A) (A) (A) (A) (A) (A) (A) (A)
                 (A) (A) (A) (A) (A) (A) (A) (A) (A) (A) (A) (A)
                 (A) (A) (A) (A) (A) (A) (A) (A) (A) (A) (A) (A)
                 (A) (A) (A) (A) (A) (A) (A) (A) (A) (A) (A) (A)
                 (A) (A) (A) (A) (A) (A) (A) (A) (A) (A) (A) (A)
                 (A) (A) (A) (A) (A) (A) (A) (A) (A) (A) (A) (A)
                 (A) (A) (A) (A) (A) (A) (A) (A) (A) (A) (A) (A)
                 (A) (A) (A) (A) (A) (A) (A) (A) (A) (A) (A) (A)
                 (A) (A) (A) (A) (A) (A) (A) (A) (A) (A) (A) (A)
                 (A) (A) (A) (A) (A) (A) (A) (A) (A) (A) (A) (A)
                 (A) (A) (A) (A) (A) (A) (A) (A) (A) (A) (A) (A)
                 (A) (A) (A) (A) (A) (A) (A) (A) (A) (A) (A) (A)
                 (A) (A) (A) (A) (A) (A) (A) (A) (A) (A) (A) (A)
                 (A) (A) (A) (A) (A) (A) (A) (A) (A) (A) (A) (A)
                 (A) (A) (A) (A) (A) (A) (A) (A) (A) (A) (A) (A)
                 (A) (A) (A) (A) (A) (A) (A) (A) (A) (A) (A) (A)
                 (A) (A) (A) (A) (A) (A) (A) (A) (A) (A) (A) (A)
                 (A) (A) (A) (A) (A) (A) (A) (A) (A) (A) (A) (A)
                 (A) (A) (A) (A) (A) (A) (A) (A) (A) (A) (A) (A)
                 (A) (A) (A) (A) (A) (A) (A) (A) (A) (A) (A) (A)
                 (A) (A) (A) (A) (A) (A) (A) (A) (A) (A) (A) (A)
                 (A) (A) (A) (A) (A) (A) (A) (A) (A) (A) (A) (A)
                 (A) (A) (A) (A) (A) (A) (A) (A) (A) (A) (A) (A)
                 (A) (A) (A) (A) (A) (A) (A) (A) (A) (A) (A) (A)
                 (A) (A) (A) (A) (A) (A) (A) (A) (A) (A) (A) (A)
                 (A) (A) (A) (A) (A) (A) (A) (A) (A) (A) (A) (A)
                 (A) (A) (A) (A) (A) (A) (A) (A) (A) (A) (A) (A)
                 (A) (A) (A) (A) (A) (A) (A) (A) (A) (A) (A) (A)
                 (A) (A) (A) (A) (A) (A) (A) (A) (A) (A) (A) (A)
                 (A) (A) (A) (A) (A) (A) (A) (A) (A) (A) (A) (A)
                 (A) (A) (A) (A) (A) (A) (A) (A) (A) (A) (A) (A)
                 (A) (A) (A) (A) (A) (A) (A) (A) (A) (A) (A) (A)
                 (A) (A) (A) (A) (A) (A) (A) (A) (A) (A) (A) (A)
 The electronic state is 1-A.
 Alpha  occ. eigenvalues --  -25.20950 -25.20720 -19.68092 -19.68089 -19.63611
 Alpha  occ. eigenvalues --  -15.01565 -14.78992 -14.78940 -10.64014 -10.62226
 Alpha  occ. eigenvalues --  -10.61088 -10.60865 -10.60648 -10.59627 -10.59496
 Alpha  occ. eigenvalues --  -10.59482 -10.58309 -10.58304 -10.57901 -10.57634
 Alpha  occ. eigenvalues --  -10.57632 -10.57631 -10.57330 -10.57048 -10.56963
 Alpha  occ. eigenvalues --  -10.56719 -10.56683 -10.56643 -10.56533 -10.56401
 Alpha  occ. eigenvalues --  -10.56198 -10.56187 -10.56126 -10.55542 -10.55509
 Alpha  occ. eigenvalues --  -10.55382 -10.55241 -10.55180 -10.54776 -10.54637
 Alpha  occ. eigenvalues --  -10.54348 -10.54248  -7.13620  -1.37094  -1.32788
 Alpha  occ. eigenvalues --   -1.29534  -1.18609  -1.17156  -1.11163  -1.09246
 Alpha  occ. eigenvalues --   -1.01293  -0.98640  -0.97562  -0.95829  -0.92846
 Alpha  occ. eigenvalues --   -0.92238  -0.91413  -0.90756  -0.89885  -0.88009
 Alpha  occ. eigenvalues --   -0.87265  -0.86278  -0.85542  -0.85165  -0.81958
 Alpha  occ. eigenvalues --   -0.81396  -0.80581  -0.79600  -0.76977  -0.74430
 Alpha  occ. eigenvalues --   -0.72888  -0.71857  -0.71007  -0.70585  -0.69844
 Alpha  occ. eigenvalues --   -0.69677  -0.68151  -0.66710  -0.66297  -0.66208
 Alpha  occ. eigenvalues --   -0.65107  -0.64375  -0.63553  -0.63189  -0.62109
 Alpha  occ. eigenvalues --   -0.61513  -0.60934  -0.59839  -0.59444  -0.58943
 Alpha  occ. eigenvalues --   -0.58576  -0.57043  -0.56266  -0.55945  -0.54900
 Alpha  occ. eigenvalues --   -0.54306  -0.54234  -0.53684  -0.53293  -0.52829
 Alpha  occ. eigenvalues --   -0.52717  -0.52502  -0.52073  -0.51936  -0.51721
 Alpha  occ. eigenvalues --   -0.50962  -0.50356  -0.49784  -0.49673  -0.49480
 Alpha  occ. eigenvalues --   -0.49314  -0.49263  -0.48879  -0.48340  -0.48240
 Alpha  occ. eigenvalues --   -0.47515  -0.47206  -0.47068  -0.47006  -0.46935
 Alpha  occ. eigenvalues --   -0.45984  -0.45923  -0.45426  -0.44661  -0.44223
 Alpha  occ. eigenvalues --   -0.44105  -0.43891  -0.43334  -0.42695  -0.41570
 Alpha  occ. eigenvalues --   -0.41324  -0.41248  -0.40802  -0.40427  -0.40304
 Alpha  occ. eigenvalues --   -0.39872  -0.39826  -0.38661  -0.35593  -0.34777
 Alpha  occ. eigenvalues --   -0.34239  -0.34176  -0.32954  -0.32599  -0.31987
 Alpha  occ. eigenvalues --   -0.31777  -0.31612  -0.28970  -0.23994
 Alpha virt. eigenvalues --   -0.10289  -0.07623  -0.05838  -0.02845  -0.01156
 Alpha virt. eigenvalues --    0.00381   0.00831   0.01165   0.01900   0.04696
 Alpha virt. eigenvalues --    0.05501   0.06526   0.06735   0.07459   0.08043
 Alpha virt. eigenvalues --    0.08501   0.08598   0.09242   0.09469   0.09500
 Alpha virt. eigenvalues --    0.09638   0.09964   0.10449   0.11086   0.11585
 Alpha virt. eigenvalues --    0.11816   0.12291   0.12736   0.12794   0.12897
 Alpha virt. eigenvalues --    0.13007   0.13475   0.13581   0.13871   0.14295
 Alpha virt. eigenvalues --    0.14547   0.15025   0.15266   0.15582   0.15613
 Alpha virt. eigenvalues --    0.15784   0.16212   0.16313   0.16887   0.17345
 Alpha virt. eigenvalues --    0.17512   0.17664   0.17724   0.17911   0.18032
 Alpha virt. eigenvalues --    0.18420   0.19179   0.19533   0.20138   0.20282
 Alpha virt. eigenvalues --    0.20493   0.20648   0.21063   0.21264   0.21505
 Alpha virt. eigenvalues --    0.21710   0.22123   0.22338   0.22408   0.22603
 Alpha virt. eigenvalues --    0.23056   0.23139   0.23412   0.23824   0.24105
 Alpha virt. eigenvalues --    0.24161   0.24427   0.24898   0.25278   0.25362
 Alpha virt. eigenvalues --    0.25809   0.25839   0.26493   0.26755   0.26840
 Alpha virt. eigenvalues --    0.26973   0.27045   0.27145   0.27493   0.27625
 Alpha virt. eigenvalues --    0.27981   0.28256   0.28312   0.28817   0.29091
 Alpha virt. eigenvalues --    0.29406   0.29629   0.29812   0.30051   0.30488
 Alpha virt. eigenvalues --    0.30552   0.31018   0.31235   0.31484   0.31719
 Alpha virt. eigenvalues --    0.31909   0.32051   0.32481   0.32727   0.33011
 Alpha virt. eigenvalues --    0.33216   0.33451   0.33612   0.33717   0.33851
 Alpha virt. eigenvalues --    0.34207   0.34394   0.34485   0.34846   0.35270
 Alpha virt. eigenvalues --    0.35366   0.35408   0.35687   0.36006   0.36196
 Alpha virt. eigenvalues --    0.36491   0.36653   0.36860   0.37093   0.37158
 Alpha virt. eigenvalues --    0.37546   0.37995   0.38344   0.38523   0.38738
 Alpha virt. eigenvalues --    0.39218   0.39363   0.39539   0.39647   0.39658
 Alpha virt. eigenvalues --    0.39830   0.40281   0.40429   0.41061   0.41159
 Alpha virt. eigenvalues --    0.41413   0.41616   0.41871   0.41949   0.42139
 Alpha virt. eigenvalues --    0.42361   0.42513   0.42823   0.42927   0.43218
 Alpha virt. eigenvalues --    0.43631   0.43945   0.44007   0.44363   0.44560
 Alpha virt. eigenvalues --    0.44777   0.44944   0.45365   0.45658   0.45830
 Alpha virt. eigenvalues --    0.46039   0.46704   0.47005   0.47138   0.47270
 Alpha virt. eigenvalues --    0.47529   0.47589   0.47729   0.48056   0.48752
 Alpha virt. eigenvalues --    0.49018   0.49180   0.49338   0.49397   0.49798
 Alpha virt. eigenvalues --    0.50091   0.50520   0.50754   0.50937   0.51078
 Alpha virt. eigenvalues --    0.51248   0.51508   0.51886   0.52018   0.52140
 Alpha virt. eigenvalues --    0.52329   0.52430   0.52640   0.52749   0.52798
 Alpha virt. eigenvalues --    0.53162   0.53449   0.53665   0.54070   0.54170
 Alpha virt. eigenvalues --    0.54409   0.54638   0.55072   0.55259   0.55522
 Alpha virt. eigenvalues --    0.56150   0.56358   0.56657   0.56902   0.56959
 Alpha virt. eigenvalues --    0.57220   0.57659   0.57921   0.58388   0.58616
 Alpha virt. eigenvalues --    0.58977   0.59055   0.59897   0.60534   0.61114
 Alpha virt. eigenvalues --    0.61329   0.61464   0.61905   0.62317   0.62335
 Alpha virt. eigenvalues --    0.62616   0.63177   0.63330   0.63586   0.64009
 Alpha virt. eigenvalues --    0.64259   0.64785   0.64795   0.65335   0.65762
 Alpha virt. eigenvalues --    0.65850   0.66194   0.66289   0.66642   0.66919
 Alpha virt. eigenvalues --    0.67044   0.67365   0.67689   0.67848   0.68061
 Alpha virt. eigenvalues --    0.68323   0.68654   0.69072   0.69191   0.69432
 Alpha virt. eigenvalues --    0.69553   0.69754   0.70076   0.70094   0.70276
 Alpha virt. eigenvalues --    0.70570   0.70667   0.71177   0.71456   0.71606
 Alpha virt. eigenvalues --    0.71655   0.71932   0.72210   0.72597   0.72744
 Alpha virt. eigenvalues --    0.73020   0.73079   0.73808   0.74270   0.74357
 Alpha virt. eigenvalues --    0.74585   0.74709   0.74946   0.75106   0.75354
 Alpha virt. eigenvalues --    0.75814   0.76144   0.76368   0.76640   0.76978
 Alpha virt. eigenvalues --    0.77414   0.77708   0.77873   0.78328   0.78406
 Alpha virt. eigenvalues --    0.78677   0.78918   0.79087   0.79382   0.79692
 Alpha virt. eigenvalues --    0.80353   0.80522   0.80935   0.81291   0.81560
 Alpha virt. eigenvalues --    0.81891   0.82055   0.82818   0.82967   0.83664
 Alpha virt. eigenvalues --    0.83993   0.84267   0.84593   0.85250   0.85648
 Alpha virt. eigenvalues --    0.85827   0.85959   0.86303   0.86685   0.86933
 Alpha virt. eigenvalues --    0.87113   0.87606   0.87818   0.88153   0.88549
 Alpha virt. eigenvalues --    0.88862   0.89205   0.89739   0.90193   0.90418
 Alpha virt. eigenvalues --    0.90759   0.90906   0.91178   0.91432   0.92264
 Alpha virt. eigenvalues --    0.92664   0.93028   0.93559   0.93835   0.94439
 Alpha virt. eigenvalues --    0.94882   0.95162   0.95437   0.95699   0.96141
 Alpha virt. eigenvalues --    0.96319   0.96471   0.96858   0.97227   0.97552
 Alpha virt. eigenvalues --    0.97695   0.98309   0.98433   0.98644   0.98998
 Alpha virt. eigenvalues --    0.99315   0.99722   0.99934   1.00296   1.00348
 Alpha virt. eigenvalues --    1.00573   1.00832   1.00922   1.01068   1.01288
 Alpha virt. eigenvalues --    1.01754   1.02174   1.02189   1.02744   1.02991
 Alpha virt. eigenvalues --    1.03486   1.03566   1.04171   1.04466   1.04714
 Alpha virt. eigenvalues --    1.04907   1.05139   1.05760   1.05964   1.06361
 Alpha virt. eigenvalues --    1.06624   1.07115   1.07341   1.08048   1.08184
 Alpha virt. eigenvalues --    1.08580   1.09111   1.09427   1.09651   1.10287
 Alpha virt. eigenvalues --    1.10554   1.10972   1.11169   1.11352   1.11745
 Alpha virt. eigenvalues --    1.11903   1.12265   1.12376   1.12671   1.13110
 Alpha virt. eigenvalues --    1.13556   1.13797   1.14157   1.14644   1.15398
 Alpha virt. eigenvalues --    1.15839   1.16060   1.16598   1.17054   1.17182
 Alpha virt. eigenvalues --    1.17668   1.17955   1.18205   1.18565   1.18892
 Alpha virt. eigenvalues --    1.19523   1.19663   1.20039   1.20219   1.20874
 Alpha virt. eigenvalues --    1.21377   1.21491   1.21612   1.21752   1.22675
 Alpha virt. eigenvalues --    1.23097   1.23534   1.23620   1.24208   1.24396
 Alpha virt. eigenvalues --    1.24527   1.25226   1.25374   1.25663   1.25998
 Alpha virt. eigenvalues --    1.26324   1.26598   1.26714   1.27148   1.27503
 Alpha virt. eigenvalues --    1.28151   1.28250   1.28545   1.28876   1.29391
 Alpha virt. eigenvalues --    1.29654   1.30153   1.30391   1.30803   1.31186
 Alpha virt. eigenvalues --    1.31434   1.31576   1.31912   1.32638   1.32684
 Alpha virt. eigenvalues --    1.32911   1.33384   1.33639   1.34068   1.34520
 Alpha virt. eigenvalues --    1.35014   1.35021   1.35545   1.35913   1.36140
 Alpha virt. eigenvalues --    1.36205   1.36323   1.36518   1.37316   1.37650
 Alpha virt. eigenvalues --    1.38188   1.38529   1.38660   1.39050   1.39359
 Alpha virt. eigenvalues --    1.39643   1.39836   1.40237   1.40779   1.42190
 Alpha virt. eigenvalues --    1.42382   1.43173   1.43346   1.43583   1.44224
 Alpha virt. eigenvalues --    1.44509   1.44711   1.44764   1.45121   1.45394
 Alpha virt. eigenvalues --    1.45571   1.45946   1.46289   1.46510   1.46754
 Alpha virt. eigenvalues --    1.47233   1.47608   1.47898   1.48124   1.48899
 Alpha virt. eigenvalues --    1.49496   1.49736   1.50028   1.50318   1.50699
 Alpha virt. eigenvalues --    1.50839   1.51085   1.51549   1.52026   1.52219
 Alpha virt. eigenvalues --    1.52475   1.52840   1.52957   1.53258   1.53338
 Alpha virt. eigenvalues --    1.54293   1.54436   1.54631   1.55414   1.55599
 Alpha virt. eigenvalues --    1.55925   1.56155   1.56324   1.56806   1.56878
 Alpha virt. eigenvalues --    1.57195   1.57340   1.57532   1.57672   1.58015
 Alpha virt. eigenvalues --    1.58526   1.58705   1.59002   1.59038   1.59798
 Alpha virt. eigenvalues --    1.60152   1.60509   1.60903   1.61508   1.61679
 Alpha virt. eigenvalues --    1.62122   1.62364   1.62713   1.62868   1.63105
 Alpha virt. eigenvalues --    1.63764   1.64692   1.65000   1.65351   1.65574
 Alpha virt. eigenvalues --    1.65944   1.66103   1.66411   1.66813   1.67147
 Alpha virt. eigenvalues --    1.67759   1.68267   1.68573   1.68708   1.69029
 Alpha virt. eigenvalues --    1.69274   1.69478   1.70539   1.70926   1.71311
 Alpha virt. eigenvalues --    1.71453   1.71746   1.72073   1.73029   1.73622
 Alpha virt. eigenvalues --    1.74348   1.74526   1.75017   1.75172   1.75530
 Alpha virt. eigenvalues --    1.75756   1.76508   1.77131   1.77408   1.77730
 Alpha virt. eigenvalues --    1.78126   1.78537   1.79235   1.79625   1.80213
 Alpha virt. eigenvalues --    1.80596   1.81050   1.81298   1.81751   1.82228
 Alpha virt. eigenvalues --    1.82389   1.83086   1.83310   1.83826   1.84219
 Alpha virt. eigenvalues --    1.84287   1.84645   1.85785   1.86145   1.86853
 Alpha virt. eigenvalues --    1.87032   1.87483   1.87857   1.88451   1.88693
 Alpha virt. eigenvalues --    1.89217   1.89881   1.90029   1.90518   1.91862
 Alpha virt. eigenvalues --    1.91964   1.92340   1.93287   1.93864   1.94763
 Alpha virt. eigenvalues --    1.95606   1.96038   1.96322   1.96695   1.97370
 Alpha virt. eigenvalues --    1.97821   1.98545   1.98903   1.98970   1.99348
 Alpha virt. eigenvalues --    1.99619   2.00315   2.00563   2.00943   2.01357
 Alpha virt. eigenvalues --    2.01455   2.01553   2.02009   2.03084   2.03624
 Alpha virt. eigenvalues --    2.04421   2.05130   2.05244   2.05602   2.06118
 Alpha virt. eigenvalues --    2.06533   2.06770   2.07375   2.07782   2.07991
 Alpha virt. eigenvalues --    2.08519   2.08820   2.09140   2.09472   2.09768
 Alpha virt. eigenvalues --    2.09942   2.10507   2.11127   2.11496   2.11991
 Alpha virt. eigenvalues --    2.12544   2.13555   2.14338   2.14637   2.15400
 Alpha virt. eigenvalues --    2.15610   2.16490   2.16883   2.17195   2.18077
 Alpha virt. eigenvalues --    2.18894   2.19457   2.19546   2.21456   2.22500
 Alpha virt. eigenvalues --    2.23317   2.23414   2.24074   2.24268   2.25191
 Alpha virt. eigenvalues --    2.25223   2.26298   2.26625   2.26677   2.27410
 Alpha virt. eigenvalues --    2.28292   2.28435   2.28974   2.30107   2.30331
 Alpha virt. eigenvalues --    2.31085   2.31469   2.32920   2.33146   2.33767
 Alpha virt. eigenvalues --    2.33942   2.34535   2.34711   2.34899   2.34943
 Alpha virt. eigenvalues --    2.35896   2.36460   2.36501   2.37134   2.37313
 Alpha virt. eigenvalues --    2.37776   2.38004   2.38130   2.38521   2.39030
 Alpha virt. eigenvalues --    2.39422   2.39754   2.40296   2.41167   2.42627
 Alpha virt. eigenvalues --    2.43657   2.44336   2.45093   2.45204   2.46372
 Alpha virt. eigenvalues --    2.46972   2.47171   2.47982   2.49166   2.49551
 Alpha virt. eigenvalues --    2.49972   2.51831   2.52660   2.53034   2.53708
 Alpha virt. eigenvalues --    2.54682   2.55216   2.55365   2.55853   2.55909
 Alpha virt. eigenvalues --    2.57088   2.58300   2.58468   2.59466   2.60160
 Alpha virt. eigenvalues --    2.60706   2.61695   2.62192   2.62576   2.62791
 Alpha virt. eigenvalues --    2.63056   2.63939   2.64237   2.64531   2.65332
 Alpha virt. eigenvalues --    2.65463   2.65989   2.66274   2.66957   2.67310
 Alpha virt. eigenvalues --    2.67372   2.67890   2.68386   2.68816   2.69420
 Alpha virt. eigenvalues --    2.69722   2.69805   2.69960   2.71267   2.72047
 Alpha virt. eigenvalues --    2.72504   2.72700   2.73312   2.73458   2.73709
 Alpha virt. eigenvalues --    2.74190   2.74332   2.74421   2.74839   2.74941
 Alpha virt. eigenvalues --    2.75154   2.75629   2.76078   2.76259   2.76576
 Alpha virt. eigenvalues --    2.76731   2.76973   2.77081   2.77611   2.77831
 Alpha virt. eigenvalues --    2.78087   2.78465   2.78718   2.78855   2.79377
 Alpha virt. eigenvalues --    2.79524   2.80014   2.80275   2.80578   2.81278
 Alpha virt. eigenvalues --    2.81484   2.81772   2.81989   2.82350   2.82413
 Alpha virt. eigenvalues --    2.82866   2.83100   2.83928   2.84209   2.84257
 Alpha virt. eigenvalues --    2.85358   2.85506   2.85784   2.86236   2.86465
 Alpha virt. eigenvalues --    2.86670   2.86993   2.87163   2.87539   2.88392
 Alpha virt. eigenvalues --    2.88491   2.88884   2.89245   2.90054   2.90197
 Alpha virt. eigenvalues --    2.90440   2.90519   2.90690   2.90850   2.91242
 Alpha virt. eigenvalues --    2.91507   2.91757   2.92000   2.92146   2.92556
 Alpha virt. eigenvalues --    2.92748   2.92982   2.93183   2.93843   2.94024
 Alpha virt. eigenvalues --    2.94383   2.94691   2.95251   2.95475   2.95789
 Alpha virt. eigenvalues --    2.96873   2.97136   2.97272   2.97561   2.97902
 Alpha virt. eigenvalues --    2.98064   2.98216   2.98808   2.99353   2.99427
 Alpha virt. eigenvalues --    2.99584   3.00015   3.00423   3.00655   3.00787
 Alpha virt. eigenvalues --    3.01077   3.01555   3.01727   3.01856   3.02234
 Alpha virt. eigenvalues --    3.02498   3.02615   3.02935   3.03287   3.03419
 Alpha virt. eigenvalues --    3.03681   3.03866   3.04040   3.04270   3.04518
 Alpha virt. eigenvalues --    3.04986   3.05061   3.05506   3.05714   3.05952
 Alpha virt. eigenvalues --    3.06178   3.06506   3.07301   3.07773   3.07883
 Alpha virt. eigenvalues --    3.08098   3.08328   3.08578   3.08680   3.09118
 Alpha virt. eigenvalues --    3.09291   3.09371   3.09655   3.09741   3.09994
 Alpha virt. eigenvalues --    3.10091   3.10602   3.11222   3.11681   3.11940
 Alpha virt. eigenvalues --    3.12471   3.12652   3.12976   3.13143   3.13292
 Alpha virt. eigenvalues --    3.13396   3.13780   3.14159   3.14712   3.14854
 Alpha virt. eigenvalues --    3.15227   3.15605   3.15819   3.16089   3.16349
 Alpha virt. eigenvalues --    3.16882   3.17185   3.17644   3.17951   3.18235
 Alpha virt. eigenvalues --    3.18377   3.18604   3.19391   3.19835   3.19916
 Alpha virt. eigenvalues --    3.20249   3.20409   3.20474   3.20638   3.20885
 Alpha virt. eigenvalues --    3.21429   3.21629   3.21704   3.22061   3.22659
 Alpha virt. eigenvalues --    3.22808   3.23173   3.23456   3.23714   3.24022
 Alpha virt. eigenvalues --    3.24175   3.24895   3.25331   3.25615   3.25807
 Alpha virt. eigenvalues --    3.26198   3.26360   3.26702   3.26808   3.27552
 Alpha virt. eigenvalues --    3.27629   3.28172   3.28554   3.29028   3.29064
 Alpha virt. eigenvalues --    3.29669   3.29986   3.30267   3.30759   3.31210
 Alpha virt. eigenvalues --    3.31229   3.31477   3.31958   3.32080   3.32558
 Alpha virt. eigenvalues --    3.32881   3.32920   3.33156   3.33452   3.33564
 Alpha virt. eigenvalues --    3.34000   3.34151   3.34313   3.34826   3.35020
 Alpha virt. eigenvalues --    3.35266   3.35494   3.36128   3.36775   3.36861
 Alpha virt. eigenvalues --    3.37258   3.37390   3.37809   3.38257   3.38377
 Alpha virt. eigenvalues --    3.38534   3.38763   3.39532   3.39994   3.40380
 Alpha virt. eigenvalues --    3.40654   3.41378   3.41651   3.41809   3.42234
 Alpha virt. eigenvalues --    3.42424   3.42590   3.43003   3.43443   3.43977
 Alpha virt. eigenvalues --    3.44220   3.44784   3.45745   3.46272   3.46524
 Alpha virt. eigenvalues --    3.46909   3.47318   3.47536   3.47853   3.48067
 Alpha virt. eigenvalues --    3.48195   3.48572   3.48852   3.49630   3.49861
 Alpha virt. eigenvalues --    3.50040   3.50313   3.50423   3.50792   3.51067
 Alpha virt. eigenvalues --    3.51440   3.51707   3.52002   3.52227   3.52494
 Alpha virt. eigenvalues --    3.52824   3.53042   3.53540   3.53721   3.54019
 Alpha virt. eigenvalues --    3.54428   3.54642   3.55582   3.56009   3.56279
 Alpha virt. eigenvalues --    3.56305   3.57031   3.57203   3.57794   3.58193
 Alpha virt. eigenvalues --    3.58642   3.58869   3.59096   3.59425   3.59890
 Alpha virt. eigenvalues --    3.60244   3.60523   3.60680   3.61286   3.61737
 Alpha virt. eigenvalues --    3.62232   3.62387   3.62534   3.62881   3.63863
 Alpha virt. eigenvalues --    3.64124   3.64710   3.65629   3.65856   3.66092
 Alpha virt. eigenvalues --    3.66831   3.66878   3.67375   3.67737   3.67904
 Alpha virt. eigenvalues --    3.68408   3.68987   3.69259   3.70156   3.70286
 Alpha virt. eigenvalues --    3.70851   3.71086   3.71477   3.71630   3.71781
 Alpha virt. eigenvalues --    3.72325   3.72339   3.72441   3.72665   3.73211
 Alpha virt. eigenvalues --    3.73475   3.73766   3.73923   3.74926   3.75198
 Alpha virt. eigenvalues --    3.75971   3.76345   3.76881   3.77363   3.77797
 Alpha virt. eigenvalues --    3.78077   3.78518   3.78757   3.79213   3.79458
 Alpha virt. eigenvalues --    3.79984   3.80314   3.80551   3.80874   3.81160
 Alpha virt. eigenvalues --    3.81479   3.81733   3.82743   3.83118   3.83563
 Alpha virt. eigenvalues --    3.83656   3.84406   3.84602   3.84893   3.85325
 Alpha virt. eigenvalues --    3.85410   3.85888   3.85998   3.86146   3.86471
 Alpha virt. eigenvalues --    3.86749   3.87487   3.87630   3.88553   3.88643
 Alpha virt. eigenvalues --    3.88783   3.89161   3.89833   3.90081   3.90415
 Alpha virt. eigenvalues --    3.90539   3.90846   3.91465   3.91785   3.92012
 Alpha virt. eigenvalues --    3.92149   3.92703   3.93244   3.93325   3.93604
 Alpha virt. eigenvalues --    3.94381   3.94715   3.95051   3.95110   3.96152
 Alpha virt. eigenvalues --    3.97003   3.97356   3.97676   3.98183   3.98883
 Alpha virt. eigenvalues --    3.99125   3.99695   3.99973   4.00452   4.00706
 Alpha virt. eigenvalues --    4.01032   4.01310   4.01459   4.01796   4.02228
 Alpha virt. eigenvalues --    4.02392   4.02528   4.02968   4.03391   4.03887
 Alpha virt. eigenvalues --    4.04144   4.04809   4.05322   4.05511   4.06034
 Alpha virt. eigenvalues --    4.06676   4.06905   4.07063   4.07480   4.08004
 Alpha virt. eigenvalues --    4.08149   4.08541   4.09056   4.09482   4.09907
 Alpha virt. eigenvalues --    4.10211   4.10793   4.11106   4.11412   4.11893
 Alpha virt. eigenvalues --    4.11911   4.12483   4.13123   4.13730   4.13977
 Alpha virt. eigenvalues --    4.14218   4.14709   4.14892   4.15204   4.15737
 Alpha virt. eigenvalues --    4.15888   4.16312   4.16574   4.16836   4.17818
 Alpha virt. eigenvalues --    4.18065   4.18264   4.18944   4.19083   4.19407
 Alpha virt. eigenvalues --    4.19759   4.19853   4.20233   4.20546   4.20753
 Alpha virt. eigenvalues --    4.21210   4.21389   4.21714   4.21835   4.22784
 Alpha virt. eigenvalues --    4.23100   4.23242   4.23590   4.23849   4.24223
 Alpha virt. eigenvalues --    4.24740   4.24918   4.25314   4.25501   4.25536
 Alpha virt. eigenvalues --    4.26066   4.26562   4.26603   4.27590   4.27762
 Alpha virt. eigenvalues --    4.28215   4.28430   4.28807   4.29036   4.29952
 Alpha virt. eigenvalues --    4.30204   4.30685   4.31551   4.31764   4.32082
 Alpha virt. eigenvalues --    4.32141   4.32524   4.32644   4.33742   4.34065
 Alpha virt. eigenvalues --    4.34803   4.35847   4.36592   4.37371   4.37760
 Alpha virt. eigenvalues --    4.38012   4.38497   4.38948   4.41460   4.41867
 Alpha virt. eigenvalues --    4.42147   4.42182   4.42648   4.42949   4.43541
 Alpha virt. eigenvalues --    4.44964   4.46275   4.46822   4.47501   4.48776
 Alpha virt. eigenvalues --    4.49049   4.49192   4.49514   4.50000   4.50381
 Alpha virt. eigenvalues --    4.51687   4.52108   4.52391   4.52561   4.52922
 Alpha virt. eigenvalues --    4.54037   4.54542   4.54656   4.56932   4.57490
 Alpha virt. eigenvalues --    4.57981   4.58615   4.59653   4.59967   4.60283
 Alpha virt. eigenvalues --    4.60772   4.61002   4.61434   4.61950   4.62345
 Alpha virt. eigenvalues --    4.62658   4.63180   4.63648   4.63985   4.64372
 Alpha virt. eigenvalues --    4.64655   4.64809   4.65968   4.67344   4.67687
 Alpha virt. eigenvalues --    4.68073   4.68564   4.68977   4.69469   4.69536
 Alpha virt. eigenvalues --    4.69875   4.70485   4.71214   4.71299   4.71370
 Alpha virt. eigenvalues --    4.72248   4.72423   4.72551   4.72988   4.74329
 Alpha virt. eigenvalues --    4.74463   4.75070   4.75970   4.76815   4.77563
 Alpha virt. eigenvalues --    4.79184   4.79570   4.79912   4.81565   4.81750
 Alpha virt. eigenvalues --    4.82883   4.84334   4.85099   4.85449   4.85996
 Alpha virt. eigenvalues --    4.86463   4.86778   4.87212   4.88606   4.90153
 Alpha virt. eigenvalues --    4.90941   4.91040   4.91460   4.91965   4.92357
 Alpha virt. eigenvalues --    4.92823   4.93039   4.93095   4.93593   4.93823
 Alpha virt. eigenvalues --    4.94152   4.95215   4.95411   4.95756   4.96231
 Alpha virt. eigenvalues --    4.96552   4.97492   4.98403   4.99058   4.99535
 Alpha virt. eigenvalues --    5.00702   5.01474   5.02226   5.03251   5.03668
 Alpha virt. eigenvalues --    5.04189   5.04430   5.05295   5.06106   5.06805
 Alpha virt. eigenvalues --    5.07094   5.07886   5.08506   5.08768   5.09430
 Alpha virt. eigenvalues --    5.09679   5.10348   5.10545   5.11421   5.11839
 Alpha virt. eigenvalues --    5.11930   5.12650   5.13119   5.13597   5.13955
 Alpha virt. eigenvalues --    5.14623   5.15427   5.16223   5.16676   5.18191
 Alpha virt. eigenvalues --    5.18732   5.19242   5.20410   5.20581   5.20936
 Alpha virt. eigenvalues --    5.21322   5.21471   5.23295   5.23509   5.23913
 Alpha virt. eigenvalues --    5.24710   5.24917   5.25803   5.26225   5.27890
 Alpha virt. eigenvalues --    5.28166   5.28415   5.28710   5.29115   5.29985
 Alpha virt. eigenvalues --    5.30128   5.30954   5.31532   5.31558   5.32245
 Alpha virt. eigenvalues --    5.32574   5.33292   5.34257   5.35066   5.36082
 Alpha virt. eigenvalues --    5.36568   5.37587   5.38083   5.38487   5.38748
 Alpha virt. eigenvalues --    5.39572   5.40365   5.40515   5.41106   5.41668
 Alpha virt. eigenvalues --    5.42992   5.43488   5.43743   5.45184   5.45832
 Alpha virt. eigenvalues --    5.49646   5.50804   5.51153   5.52445   5.52820
 Alpha virt. eigenvalues --    5.53225   5.53481   5.56360   5.57109   5.57234
 Alpha virt. eigenvalues --    5.58005   5.58376   5.58965   5.59614   5.60258
 Alpha virt. eigenvalues --    5.61365   5.61583   5.61908   5.62925   5.63456
 Alpha virt. eigenvalues --    5.63957   5.64884   5.65636   5.66311   5.67094
 Alpha virt. eigenvalues --    5.68694   5.69598   5.70874   5.71820   5.73315
 Alpha virt. eigenvalues --    5.75163   5.75708   5.77096   5.78674   5.79098
 Alpha virt. eigenvalues --    5.82670   5.83744   5.85198   5.86073   5.88135
 Alpha virt. eigenvalues --    5.90099   5.91668   5.94219   5.96353   5.97023
 Alpha virt. eigenvalues --    5.99107   6.02229   6.03796   6.05526   6.08394
 Alpha virt. eigenvalues --    6.10757   6.12540   6.15330   6.16732   6.22237
 Alpha virt. eigenvalues --    6.25274   6.27019   6.28074   6.36137   6.36167
 Alpha virt. eigenvalues --    6.36470   6.38415   6.39090   6.40833   6.43139
 Alpha virt. eigenvalues --    6.50194   6.57166   6.65271   6.75446   6.77490
 Alpha virt. eigenvalues --    6.80749   6.83092   6.85148   6.87410   6.94056
 Alpha virt. eigenvalues --    6.94404   6.97065   6.98633   6.98885   6.99777
 Alpha virt. eigenvalues --    7.03682   7.04799   7.08407   7.08527   7.10620
 Alpha virt. eigenvalues --    7.16846   7.20704   7.22893   7.23622   7.27257
 Alpha virt. eigenvalues --    7.32998   7.33919   7.34377   7.45335   7.50836
 Alpha virt. eigenvalues --    8.45968   8.46687   8.55777   8.57750   8.82411
 Alpha virt. eigenvalues --    8.85807   8.90769   8.91408   8.92063   8.99542
 Alpha virt. eigenvalues --   15.85721  22.85293  22.88047  22.96977  22.98653
 Alpha virt. eigenvalues --   23.03544  23.12332  23.13314  23.14664  23.18696
 Alpha virt. eigenvalues --   23.19946  23.22261  23.23145  23.25393  23.28444
 Alpha virt. eigenvalues --   23.28969  23.29747  23.30703  23.33490  23.34511
 Alpha virt. eigenvalues --   23.34660  23.36013  23.38836  23.47053  23.53076
 Alpha virt. eigenvalues --   23.55478  23.56200  23.61711  23.73260  23.78207
 Alpha virt. eigenvalues --   23.87055  23.88970  24.12920  24.14322  24.19233
 Alpha virt. eigenvalues --   32.59581  33.13369  33.28989  44.00857  44.20409
 Alpha virt. eigenvalues --   44.25086  57.34864  57.54084
          Condensed to atoms (all electrons):
 Mulliken charges:
               1
     1  C   -0.433449
     2  C   -0.020460
     3  C   -0.086701
     4  C    0.009701
     5  C   -0.108394
     6  C   -0.065110
     7  C    0.032621
     8  C   -0.170670
     9  C   -0.109775
    10  C   -0.012222
    11  C    0.166919
    12  O   -0.379975
    13  C   -0.141040
    14  C   -0.125321
    15  N   -0.101408
    16  C    0.104306
    17  C    0.157533
    18  C   -0.260093
    19  C   -0.155840
    20  C   -0.045674
    21  C   -0.027826
    22  N    0.493561
    23  O   -0.366555
    24  O   -0.366550
    25  C   -0.036577
    26  C   -0.186146
    27  C    0.110279
    28  C   -0.025516
    29  C   -0.432773
    30  C   -0.086331
    31  C    0.025208
    32  C   -0.129961
    33  C   -0.050661
    34  C    0.040640
    35  C   -0.172386
    36  C   -0.153343
    37  C   -0.145240
    38  C   -0.160045
    39  C   -0.144291
    40  N   -0.100919
    41  B    0.342681
    42  F   -0.332204
    43  F   -0.364845
    44  H    0.163197
    45  H    0.159579
    46  H    0.133760
    47  H    0.167473
    48  H    0.143014
    49  H    0.117331
    50  H    0.153788
    51  H    0.156665
    52  H    0.091213
    53  H    0.163683
    54  H    0.147762
    55  H    0.178452
    56  H    0.198392
    57  H    0.198907
    58  H    0.184478
    59  H    0.164600
    60  H    0.134494
    61  H    0.160854
    62  H    0.167635
    63  H    0.140510
    64  H    0.118169
    65  H    0.149840
    66  H    0.158836
    67  H    0.161228
    68  H    0.158812
    69  H    0.142182
 Sum of Mulliken charges =  -0.00000
 Mulliken charges with hydrogens summed into heavy atoms:
               1
     1  C    0.023087
     2  C   -0.020460
     3  C    0.080771
     4  C    0.009701
     5  C    0.034620
     6  C    0.052221
     7  C    0.032621
     8  C   -0.016882
     9  C    0.046890
    10  C   -0.012222
    11  C    0.258133
    12  O   -0.379975
    13  C    0.022644
    14  C    0.022441
    15  N   -0.101408
    16  C    0.104306
    17  C    0.157533
    18  C   -0.260093
    19  C    0.022611
    20  C    0.152718
    21  C   -0.027826
    22  N    0.493561
    23  O   -0.366555
    24  O   -0.366550
    25  C    0.162330
    26  C   -0.001668
    27  C    0.110279
    28  C   -0.025516
    29  C    0.027176
    30  C    0.081304
    31  C    0.025208
    32  C    0.010549
    33  C    0.067507
    34  C    0.040640
    35  C   -0.022546
    36  C    0.005493
    37  C    0.015987
    38  C   -0.001233
    39  C   -0.002109
    40  N   -0.100919
    41  B    0.342681
    42  F   -0.332204
    43  F   -0.364845
 Electronic spatial extent (au):  <R**2>=          36369.1700
 Charge=             -0.0000 electrons
 Dipole moment (field-independent basis, Debye):
    X=              3.4405    Y=              4.7610    Z=             -1.4789  Tot=              6.0573
 Quadrupole moment (field-independent basis, Debye-Ang):
   XX=           -334.7584   YY=           -217.9480   ZZ=           -255.5681
   XY=            -20.2930   XZ=              3.8597   YZ=              0.7326
 Traceless Quadrupole moment (field-independent basis, Debye-Ang):
   XX=            -65.3336   YY=             51.4768   ZZ=             13.8568
   XY=            -20.2930   XZ=              3.8597   YZ=              0.7326
 Octapole moment (field-independent basis, Debye-Ang**2):
  XXX=           -146.1483  YYY=            264.0831  ZZZ=              0.8827  XYY=            125.8702
  XXY=            663.4957  XXZ=            -42.7941  XZZ=             59.8249  YZZ=            -34.2900
  YYZ=             12.9474  XYZ=             -1.9062
 Hexadecapole moment (field-independent basis, Debye-Ang**3):
 XXXX=         -43290.3207 YYYY=         -15914.8364 ZZZZ=           -686.3784 XXXY=          -2513.7290
 XXXZ=            272.3324 YYYX=          -1370.5077 YYYZ=             86.6252 ZZZX=             -4.6232
 ZZZY=             -3.4558 XXYY=         -10261.3252 XXZZ=          -5271.1910 YYZZ=          -3490.2875
 XXYZ=             79.0492 YYXZ=              5.5652 ZZXY=              7.4548
 N-N= 4.521431722329D+03 E-N=-1.353132811274D+04  KE= 1.915549088705D+03
 No NMR shielding tensors so no spin-rotation constants.
 Leave Link  601 at Sat Oct 25 06:08:50 2025, MaxMem= 30870077440 cpu:             115.2 elap:               2.1
 (Enter /public/software/gauss/g16/l9999.exe)
 1\1\GINC-CU056\SP\RM062X\def2TZVPP\C34H26B1F2N3O3\BAIDING\25-Oct-2025\
 0\\#p M062X/DEF2TZVPP scrf=(solvent=water) em=GD3\\Energy calculation 
 for BNP_CHO\\0,1\C,0,2.681265,-3.707595,-0.138838\C,0,1.482837,-2.8085
 47,-0.099488\C,0,0.171198,-3.253982,-0.122649\C,0,-0.690394,-2.130911,
 -0.08958\C,0,-2.130983,-2.094635,-0.104128\C,0,-2.909953,-3.199903,0.0
 03686\C,0,-4.36715,-3.231414,-0.014725\C,0,-5.169605,-2.082384,-0.1928
 74\C,0,-6.552552,-2.182825,-0.196589\C,0,-7.180833,-3.428853,-0.02341\
 C,0,-8.645632,-3.505335,-0.030228\O,0,-9.293411,-4.540059,0.117104\C,0
 ,-6.392868,-4.579506,0.152951\C,0,-5.011368,-4.479353,0.15567\N,0,0.07
 4848,-0.999919,-0.053875\C,0,1.417723,-1.373873,-0.051549\C,0,2.430113
 ,-0.393719,-0.029198\C,0,3.863019,-0.818435,-0.013838\C,0,4.520322,-1.
 028329,1.207627\C,0,5.853332,-1.424321,1.232271\C,0,6.516518,-1.606095
 ,0.018877\N,0,7.916579,-2.021776,0.035968\O,0,8.496288,-2.181605,-1.04
 3025\O,0,8.465428,-2.196718,1.128666\C,0,5.889073,-1.405074,-1.210369\
 C,0,4.55602,-1.009076,-1.218567\C,0,2.113968,0.971239,-0.031305\C,0,2.
 948539,2.145961,-0.055309\C,0,4.442846,2.249471,-0.074607\C,0,2.090872
 ,3.229071,-0.07454\C,0,0.75313,2.752579,-0.060782\C,0,-0.472877,3.5091
 55,-0.080875\C,0,-0.511881,4.860934,0.023986\C,0,-1.702028,5.705448,0.
 00435\C,0,-3.01395,5.201447,-0.126394\C,0,-4.106262,6.062539,-0.13795\
 C,0,-3.921373,7.445152,-0.019745\C,0,-2.629997,7.960547,0.111072\C,0,-
 1.5342,7.100271,0.123101\N,0,0.780401,1.390202,-0.039481\B,0,-0.434215
 ,0.448219,0.168619\F,0,-0.94384,0.590405,1.465726\F,0,-1.44475,0.75225
 7,-0.758721\H,0,3.298991,-3.52895,-1.024266\H,0,3.32587,-3.571839,0.73
 4754\H,0,2.3542,-4.750209,-0.159743\H,0,-0.144871,-4.286386,-0.17799\H
 ,0,-2.585047,-1.116794,-0.214552\H,0,-2.433448,-4.170255,0.124344\H,0,
 -4.707872,-1.110733,-0.330647\H,0,-7.162344,-1.293971,-0.334881\H,0,-9
 .164134,-2.539014,-0.181535\H,0,-6.878657,-5.540803,0.28599\H,0,-4.403
 542,-5.36907,0.291985\H,0,3.986708,-0.881192,2.14019\H,0,6.370443,-1.5
 89364,2.168672\H,0,6.433377,-1.555565,-2.133692\H,0,4.049721,-0.847151
 ,-2.163838\H,0,4.874229,1.780375,-0.96418\H,0,4.735767,3.302317,-0.071
 239\H,0,4.898447,1.76684,0.795187\H,0,2.386225,4.268182,-0.113208\H,0,
 -1.388067,2.94049,-0.196074\H,0,0.425102,5.401848,0.139707\H,0,-3.1804
 41,4.13312,-0.217987\H,0,-5.108351,5.656522,-0.239205\H,0,-4.778065,8.
 112164,-0.029205\H,0,-2.476353,9.031497,0.203732\H,0,-0.529941,7.50250
 1,0.224973\\Version=ES64L-G16RevA.03\State=1-A\HF=-1925.8249347\RMSD=5
 .197e-09\Dipole=1.3536052,1.873102,-0.5818517\Quadrupole=-48.5739208,3
 8.2717496,10.3021711,-15.0873324,2.8696269,0.5446908\PG=C01 [X(C34H26B
 1F2N3O3)]\\@


 THE SCIENTIFIC THEORIST IS NOT TO BE ENVIED. FOR NATURE, OR MORE
 PRECISELY EXPERIMENT, IS AN INEXORABLE AND NOT VERY FRIENDLY JUDGE OF HIS
 WORK.  IT NEVER SAYS "YES" TO A THEORY. IN THE MOST FAVORABLE CASES
 IT SAYS "MAYBE", AND IN THE GREAT MAJORITY OF CASES SIMPLY "NO"...
 PROBABLY EVERY THEORY WILL SOME DAY EXPERIENCE ITS "NO" - MOST
 THEORIES, SOON AFTER CONCEPTION.  -- A.EINSTEIN, NOV 11, 1922.
 Job cpu time:       0 days 13 hours 26 minutes 26.7 seconds.
 Elapsed time:       0 days  0 hours 12 minutes 50.6 seconds.
 File lengths (MBytes):  RWF=   1935 Int=      0 D2E=      0 Chk=    168 Scr=      1
 Normal termination of Gaussian 16 at Sat Oct 25 06:08:51 2025.
