 Entering Gaussian System, Link 0=g16
 Input=BNP_CHO_CHO_reduced_sp.gjf
 Output=BNP_CHO_CHO_reduced_sp.log
 Initial command:
 /public/software/gauss/g16/l1.exe "/public/home/baiding/1024_sp/tmp_BNP_CHO_CHO_reduced_sp_1526250/Gau-2947367.inp" -scrdir="/public/home/baiding/1024_sp/tmp_BNP_CHO_CHO_reduced_sp_1526250/"
 Entering Link 1 = /public/software/gauss/g16/l1.exe PID=   2947368.
  
 Copyright (c) 1988,1990,1992,1993,1995,1998,2003,2009,2016,
            Gaussian, Inc.  All Rights Reserved.
  
 This is part of the Gaussian(R) 16 program.  It is based on
 the Gaussian(R) 09 system (copyright 2009, Gaussian, Inc.),
 the Gaussian(R) 03 system (copyright 2003, Gaussian, Inc.),
 the Gaussian(R) 98 system (copyright 1998, Gaussian, Inc.),
 the Gaussian(R) 94 system (copyright 1995, Gaussian, Inc.),
 the Gaussian 92(TM) system (copyright 1992, Gaussian, Inc.),
 the Gaussian 90(TM) system (copyright 1990, Gaussian, Inc.),
 the Gaussian 88(TM) system (copyright 1988, Gaussian, Inc.),
 the Gaussian 86(TM) system (copyright 1986, Carnegie Mellon
 University), and the Gaussian 82(TM) system (copyright 1983,
 Carnegie Mellon University). Gaussian is a federally registered
 trademark of Gaussian, Inc.
  
 This software contains proprietary and confidential information,
 including trade secrets, belonging to Gaussian, Inc.
  
 This software is provided under written license and may be
 used, copied, transmitted, or stored only in accord with that
 written license.
  
 The following legend is applicable only to US Government
 contracts under FAR:
  
                    RESTRICTED RIGHTS LEGEND
  
 Use, reproduction and disclosure by the US Government is
 subject to restrictions as set forth in subparagraphs (a)
 and (c) of the Commercial Computer Software - Restricted
 Rights clause in FAR 52.227-19.
  
 Gaussian, Inc.
 340 Quinnipiac St., Bldg. 40, Wallingford CT 06492
  
  
 ---------------------------------------------------------------
 Warning -- This program may not be used in any manner that
 competes with the business of Gaussian, Inc. or will provide
 assistance to any competitor of Gaussian, Inc.  The licensee
 of this program is prohibited from giving any competitor of
 Gaussian, Inc. access to this program.  By using this program,
 the user acknowledges that Gaussian, Inc. is engaged in the
 business of creating and licensing software in the field of
 computational chemistry and represents and warrants to the
 licensee that it is not a competitor of Gaussian, Inc. and that
 it will not use this program in any manner prohibited above.
 ---------------------------------------------------------------
  

 Cite this work as:
 Gaussian 16, Revision A.03,
 M. J. Frisch, G. W. Trucks, H. B. Schlegel, G. E. Scuseria, 
 M. A. Robb, J. R. Cheeseman, G. Scalmani, V. Barone, 
 G. A. Petersson, H. Nakatsuji, X. Li, M. Caricato, A. V. Marenich, 
 J. Bloino, B. G. Janesko, R. Gomperts, B. Mennucci, H. P. Hratchian, 
 J. V. Ortiz, A. F. Izmaylov, J. L. Sonnenberg, D. Williams-Young, 
 F. Ding, F. Lipparini, F. Egidi, J. Goings, B. Peng, A. Petrone, 
 T. Henderson, D. Ranasinghe, V. G. Zakrzewski, J. Gao, N. Rega, 
 G. Zheng, W. Liang, M. Hada, M. Ehara, K. Toyota, R. Fukuda, 
 J. Hasegawa, M. Ishida, T. Nakajima, Y. Honda, O. Kitao, H. Nakai, 
 T. Vreven, K. Throssell, J. A. Montgomery, Jr., J. E. Peralta, 
 F. Ogliaro, M. J. Bearpark, J. J. Heyd, E. N. Brothers, K. N. Kudin, 
 V. N. Staroverov, T. A. Keith, R. Kobayashi, J. Normand, 
 K. Raghavachari, A. P. Rendell, J. C. Burant, S. S. Iyengar, 
 J. Tomasi, M. Cossi, J. M. Millam, M. Klene, C. Adamo, R. Cammi, 
 J. W. Ochterski, R. L. Martin, K. Morokuma, O. Farkas, 
 J. B. Foresman, and D. J. Fox, Gaussian, Inc., Wallingford CT, 2016.
 
 ******************************************
 Gaussian 16:  ES64L-G16RevA.03 25-Dec-2016
                25-Oct-2025 
 ******************************************
 %nprocshared=64
 Will use up to   64 processors via shared memory.
 %mem=230GB
 %chk=BNP_CHO_CHO_reduced_sp.chk
 ----------------------------------------------
 #p M062X/DEF2TZVPP scrf=(solvent=water) em=GD3
 ----------------------------------------------
 1/38=1,172=1/1;
 2/12=2,17=6,18=5,40=1/2;
 3/5=44,7=202,11=2,25=1,30=1,70=2201,72=1,74=-55,124=31/1,2,3;
 4//1;
 5/5=2,38=5,53=1/2;
 6/7=2,8=2,9=2,10=2,28=1/1;
 99/5=1,9=1/99;
 Leave Link    1 at Sat Oct 25 04:38:15 2025, MaxMem= 30870077440 cpu:              16.3 elap:               0.3
 (Enter /public/software/gauss/g16/l101.exe)
 ------------------------------------------
 Energy calculation for BNP_CHO_CHO_reduced
 ------------------------------------------
 Symbolic Z-matrix:
 Charge = -1 Multiplicity = 2
 C                    -3.99254   3.08355  -0.47694 
 C                    -2.60645   2.55728  -0.24222 
 C                    -1.46889   3.35409  -0.24186 
 C                    -0.33131   2.53352  -0.08375 
 C                     1.04921   2.90486  -0.0486 
 C                     1.50461   4.19288  -0.03765 
 C                     2.89126   4.6093   -0.01838 
 C                     3.98593   3.70248  -0.01225 
 C                     5.28897   4.15929   0.00749 
 C                     5.56771   5.54323   0.02136 
 C                     6.93632   6.04496   0.0407 
 O                     7.95128   5.3428    0.04699 
 C                     4.49374   6.45206   0.01568 
 C                     3.18599   5.9949   -0.00352 
 N                    -0.76756   1.22467   0.01584 
 C                    -2.15468   1.20557  -0.05379 
 C                    -2.86416  -0.02623  -0.02369 
 C                    -4.34317  -0.02139  -0.01983 
 C                    -5.05752   0.53574   1.06133 
 C                    -6.44375   0.54374   1.07846 
 C                    -7.13636   0.00233  -0.0117 
 N                    -8.57723   0.01384  -0.00728 
 O                    -9.18496  -0.47956  -0.97512 
 O                    -9.17111   0.51671   0.96427 
 C                    -6.45917  -0.54915  -1.10661 
 C                    -5.07305  -0.56402  -1.09805 
 C                    -2.14955  -1.25437  -0.01065 
 C                    -2.59321  -2.61749   0.09894 
 C                    -3.98004  -3.17176   0.24967 
 C                    -1.44831  -3.40446   0.08885 
 C                    -0.31534  -2.56857   0.00076 
 C                     1.0693   -2.92135  -0.04025 
 C                     1.55194  -4.19258   0.0944 
 C                     2.9434   -4.58837   0.03907 
 C                     4.01294  -3.67662  -0.17437 
 C                     5.32241  -4.11267  -0.21772 
 C                     5.63313  -5.47966  -0.05007 
 C                     7.00909  -5.95871  -0.09538 
 O                     8.00274  -5.25063  -0.28198 
 C                     4.58443  -6.39306   0.16341 
 C                     3.27013  -5.95671   0.20667 
 N                    -0.75947  -1.25856  -0.05656 
 B                     0.11823  -0.01947   0.21634 
 F                     0.63451  -0.06214   1.52791 
 F                     1.21      0.01196  -0.68145 
 H                    -4.60081   3.09823   0.43381 
 H                    -3.93213   4.11071  -0.8485 
 H                    -4.54027   2.48981  -1.21485 
 H                    -1.45244   4.42685  -0.3821 
 H                     1.7629    2.08898  -0.0399 
 H                     0.78      5.0046   -0.0413 
 H                     3.80158   2.63343  -0.02337 
 H                     6.11603   3.45597   0.01185 
 H                     7.02655   7.14882   0.04995 
 H                     4.69939   7.51951   0.02643 
 H                     2.36416   6.70533  -0.00768 
 H                    -4.51164   0.94741   1.90342 
 H                    -6.98946   0.95196   1.91943 
 H                    -7.01663  -0.94657  -1.94505 
 H                    -4.53951  -0.98009  -1.9457 
 H                    -4.56481  -2.62286   0.99376 
 H                    -4.55197  -3.15004  -0.68407 
 H                    -3.91852  -4.21512   0.57277 
 H                    -1.42831  -4.48518   0.13958 
 H                     1.76159  -2.10302  -0.20443 
 H                     0.84792  -5.00521   0.26172 
 H                     3.80361  -2.62031  -0.30603 
 H                     6.13012  -3.40606  -0.38194 
 H                     7.12681  -7.04996   0.05307 
 H                     4.81427  -7.44759   0.29385 
 H                     2.46806  -6.67063   0.37122 
 
 ITRead=  0  0  0  0  0  0  0  0  0  0  0  0  0  0  0  0  0  0  0  0
 ITRead=  0  0  0  0  0  0  0  0  0  0  0  0  0  0  0  0  0  0  0  0
 ITRead=  0  0  0  0  0  0  0  0  0  0  0  0  0  0  0  0  0  0  0  0
 ITRead=  0  0  0  0  0  0  0  0  0  0  0
 MicOpt= -1 -1 -1 -1 -1 -1 -1 -1 -1 -1 -1 -1 -1 -1 -1 -1 -1 -1 -1 -1
 MicOpt= -1 -1 -1 -1 -1 -1 -1 -1 -1 -1 -1 -1 -1 -1 -1 -1 -1 -1 -1 -1
 MicOpt= -1 -1 -1 -1 -1 -1 -1 -1 -1 -1 -1 -1 -1 -1 -1 -1 -1 -1 -1 -1
 MicOpt= -1 -1 -1 -1 -1 -1 -1 -1 -1 -1 -1
 NAtoms=     71 NQM=       71 NQMF=       0 NMMI=      0 NMMIF=      0
                NMic=       0 NMicF=      0.
                    Isotopes and Nuclear Properties:
 (Nuclear quadrupole moments (NQMom) in fm**2, nuclear magnetic moments (NMagM)
  in nuclear magnetons)

  Atom         1           2           3           4           5           6           7           8           9          10
 IAtWgt=          12          12          12          12          12          12          12          12          12          12
 AtmWgt=  12.0000000  12.0000000  12.0000000  12.0000000  12.0000000  12.0000000  12.0000000  12.0000000  12.0000000  12.0000000
 NucSpn=           0           0           0           0           0           0           0           0           0           0
 AtZEff=  -0.0000000  -0.0000000  -0.0000000  -0.0000000  -0.0000000  -0.0000000  -0.0000000  -0.0000000  -0.0000000  -0.0000000
 NQMom=    0.0000000   0.0000000   0.0000000   0.0000000   0.0000000   0.0000000   0.0000000   0.0000000   0.0000000   0.0000000
 NMagM=    0.0000000   0.0000000   0.0000000   0.0000000   0.0000000   0.0000000   0.0000000   0.0000000   0.0000000   0.0000000
 AtZNuc=   6.0000000   6.0000000   6.0000000   6.0000000   6.0000000   6.0000000   6.0000000   6.0000000   6.0000000   6.0000000

  Atom        11          12          13          14          15          16          17          18          19          20
 IAtWgt=          12          16          12          12          14          12          12          12          12          12
 AtmWgt=  12.0000000  15.9949146  12.0000000  12.0000000  14.0030740  12.0000000  12.0000000  12.0000000  12.0000000  12.0000000
 NucSpn=           0           0           0           0           2           0           0           0           0           0
 AtZEff=  -0.0000000  -0.0000000  -0.0000000  -0.0000000  -0.0000000  -0.0000000  -0.0000000  -0.0000000  -0.0000000  -0.0000000
 NQMom=    0.0000000   0.0000000   0.0000000   0.0000000   2.0440000   0.0000000   0.0000000   0.0000000   0.0000000   0.0000000
 NMagM=    0.0000000   0.0000000   0.0000000   0.0000000   0.4037610   0.0000000   0.0000000   0.0000000   0.0000000   0.0000000
 AtZNuc=   6.0000000   8.0000000   6.0000000   6.0000000   7.0000000   6.0000000   6.0000000   6.0000000   6.0000000   6.0000000

  Atom        21          22          23          24          25          26          27          28          29          30
 IAtWgt=          12          14          16          16          12          12          12          12          12          12
 AtmWgt=  12.0000000  14.0030740  15.9949146  15.9949146  12.0000000  12.0000000  12.0000000  12.0000000  12.0000000  12.0000000
 NucSpn=           0           2           0           0           0           0           0           0           0           0
 AtZEff=  -0.0000000  -0.0000000  -0.0000000  -0.0000000  -0.0000000  -0.0000000  -0.0000000  -0.0000000  -0.0000000  -0.0000000
 NQMom=    0.0000000   2.0440000   0.0000000   0.0000000   0.0000000   0.0000000   0.0000000   0.0000000   0.0000000   0.0000000
 NMagM=    0.0000000   0.4037610   0.0000000   0.0000000   0.0000000   0.0000000   0.0000000   0.0000000   0.0000000   0.0000000
 AtZNuc=   6.0000000   7.0000000   8.0000000   8.0000000   6.0000000   6.0000000   6.0000000   6.0000000   6.0000000   6.0000000

  Atom        31          32          33          34          35          36          37          38          39          40
 IAtWgt=          12          12          12          12          12          12          12          12          16          12
 AtmWgt=  12.0000000  12.0000000  12.0000000  12.0000000  12.0000000  12.0000000  12.0000000  12.0000000  15.9949146  12.0000000
 NucSpn=           0           0           0           0           0           0           0           0           0           0
 AtZEff=  -0.0000000  -0.0000000  -0.0000000  -0.0000000  -0.0000000  -0.0000000  -0.0000000  -0.0000000  -0.0000000  -0.0000000
 NQMom=    0.0000000   0.0000000   0.0000000   0.0000000   0.0000000   0.0000000   0.0000000   0.0000000   0.0000000   0.0000000
 NMagM=    0.0000000   0.0000000   0.0000000   0.0000000   0.0000000   0.0000000   0.0000000   0.0000000   0.0000000   0.0000000
 AtZNuc=   6.0000000   6.0000000   6.0000000   6.0000000   6.0000000   6.0000000   6.0000000   6.0000000   8.0000000   6.0000000

  Atom        41          42          43          44          45          46          47          48          49          50
 IAtWgt=          12          14          11          19          19           1           1           1           1           1
 AtmWgt=  12.0000000  14.0030740  11.0093053  18.9984033  18.9984033   1.0078250   1.0078250   1.0078250   1.0078250   1.0078250
 NucSpn=           0           2           3           1           1           1           1           1           1           1
 AtZEff=  -0.0000000  -0.0000000  -0.0000000  -0.0000000  -0.0000000  -0.0000000  -0.0000000  -0.0000000  -0.0000000  -0.0000000
 NQMom=    0.0000000   2.0440000   4.0590000   0.0000000   0.0000000   0.0000000   0.0000000   0.0000000   0.0000000   0.0000000
 NMagM=    0.0000000   0.4037610   2.6886370   2.6288670   2.6288670   2.7928460   2.7928460   2.7928460   2.7928460   2.7928460
 AtZNuc=   6.0000000   7.0000000   5.0000000   9.0000000   9.0000000   1.0000000   1.0000000   1.0000000   1.0000000   1.0000000

  Atom        51          52          53          54          55          56          57          58          59          60
 IAtWgt=           1           1           1           1           1           1           1           1           1           1
 AtmWgt=   1.0078250   1.0078250   1.0078250   1.0078250   1.0078250   1.0078250   1.0078250   1.0078250   1.0078250   1.0078250
 NucSpn=           1           1           1           1           1           1           1           1           1           1
 AtZEff=  -0.0000000  -0.0000000  -0.0000000  -0.0000000  -0.0000000  -0.0000000  -0.0000000  -0.0000000  -0.0000000  -0.0000000
 NQMom=    0.0000000   0.0000000   0.0000000   0.0000000   0.0000000   0.0000000   0.0000000   0.0000000   0.0000000   0.0000000
 NMagM=    2.7928460   2.7928460   2.7928460   2.7928460   2.7928460   2.7928460   2.7928460   2.7928460   2.7928460   2.7928460
 AtZNuc=   1.0000000   1.0000000   1.0000000   1.0000000   1.0000000   1.0000000   1.0000000   1.0000000   1.0000000   1.0000000

  Atom        61          62          63          64          65          66          67          68          69          70
 IAtWgt=           1           1           1           1           1           1           1           1           1           1
 AtmWgt=   1.0078250   1.0078250   1.0078250   1.0078250   1.0078250   1.0078250   1.0078250   1.0078250   1.0078250   1.0078250
 NucSpn=           1           1           1           1           1           1           1           1           1           1
 AtZEff=  -0.0000000  -0.0000000  -0.0000000  -0.0000000  -0.0000000  -0.0000000  -0.0000000  -0.0000000  -0.0000000  -0.0000000
 NQMom=    0.0000000   0.0000000   0.0000000   0.0000000   0.0000000   0.0000000   0.0000000   0.0000000   0.0000000   0.0000000
 NMagM=    2.7928460   2.7928460   2.7928460   2.7928460   2.7928460   2.7928460   2.7928460   2.7928460   2.7928460   2.7928460
 AtZNuc=   1.0000000   1.0000000   1.0000000   1.0000000   1.0000000   1.0000000   1.0000000   1.0000000   1.0000000   1.0000000

  Atom        71
 IAtWgt=           1
 AtmWgt=   1.0078250
 NucSpn=           1
 AtZEff=  -0.0000000
 NQMom=    0.0000000
 NMagM=    2.7928460
 AtZNuc=   1.0000000
 Leave Link  101 at Sat Oct 25 04:38:16 2025, MaxMem= 30870077440 cpu:               3.9 elap:               0.1
 (Enter /public/software/gauss/g16/l202.exe)
 Stoichiometry    C35H26BF2N3O4(1-,2)
 Framework group  C1[X(C35H26BF2N3O4)]
 Deg. of freedom   207
 Full point group                 C1      NOp   1
 Largest Abelian subgroup         C1      NOp   1
 Largest concise Abelian subgroup C1      NOp   1
                         Standard orientation:                         
 ---------------------------------------------------------------------
 Center     Atomic      Atomic             Coordinates (Angstroms)
 Number     Number       Type             X           Y           Z
 ---------------------------------------------------------------------
      1          6           0       -3.992544    3.083551   -0.476936
      2          6           0       -2.606445    2.557282   -0.242221
      3          6           0       -1.468885    3.354086   -0.241864
      4          6           0       -0.331314    2.533521   -0.083751
      5          6           0        1.049214    2.904861   -0.048604
      6          6           0        1.504608    4.192880   -0.037653
      7          6           0        2.891260    4.609304   -0.018381
      8          6           0        3.985932    3.702478   -0.012246
      9          6           0        5.288967    4.159289    0.007490
     10          6           0        5.567708    5.543234    0.021361
     11          6           0        6.936316    6.044962    0.040697
     12          8           0        7.951284    5.342797    0.046988
     13          6           0        4.493740    6.452059    0.015678
     14          6           0        3.185993    5.994902   -0.003524
     15          7           0       -0.767562    1.224666    0.015836
     16          6           0       -2.154677    1.205574   -0.053792
     17          6           0       -2.864157   -0.026232   -0.023685
     18          6           0       -4.343174   -0.021386   -0.019828
     19          6           0       -5.057523    0.535739    1.061329
     20          6           0       -6.443750    0.543735    1.078459
     21          6           0       -7.136359    0.002333   -0.011696
     22          7           0       -8.577235    0.013841   -0.007276
     23          8           0       -9.184962   -0.479562   -0.975122
     24          8           0       -9.171106    0.516710    0.964273
     25          6           0       -6.459169   -0.549146   -1.106609
     26          6           0       -5.073047   -0.564015   -1.098053
     27          6           0       -2.149554   -1.254374   -0.010654
     28          6           0       -2.593214   -2.617487    0.098943
     29          6           0       -3.980043   -3.171756    0.249665
     30          6           0       -1.448305   -3.404462    0.088853
     31          6           0       -0.315342   -2.568566    0.000762
     32          6           0        1.069298   -2.921350   -0.040254
     33          6           0        1.551940   -4.192576    0.094398
     34          6           0        2.943398   -4.588369    0.039070
     35          6           0        4.012939   -3.676617   -0.174374
     36          6           0        5.322407   -4.112673   -0.217721
     37          6           0        5.633132   -5.479661   -0.050065
     38          6           0        7.009090   -5.958709   -0.095382
     39          8           0        8.002738   -5.250635   -0.281979
     40          6           0        4.584429   -6.393055    0.163413
     41          6           0        3.270132   -5.956714    0.206666
     42          7           0       -0.759473   -1.258558   -0.056563
     43          5           0        0.118231   -0.019468    0.216339
     44          9           0        0.634512   -0.062135    1.527910
     45          9           0        1.209998    0.011956   -0.681446
     46          1           0       -4.600813    3.098227    0.433814
     47          1           0       -3.932125    4.110707   -0.848504
     48          1           0       -4.540271    2.489813   -1.214849
     49          1           0       -1.452435    4.426848   -0.382095
     50          1           0        1.762898    2.088983   -0.039899
     51          1           0        0.780001    5.004597   -0.041304
     52          1           0        3.801578    2.633432   -0.023365
     53          1           0        6.116033    3.455973    0.011851
     54          1           0        7.026553    7.148822    0.049953
     55          1           0        4.699393    7.519508    0.026427
     56          1           0        2.364158    6.705325   -0.007679
     57          1           0       -4.511643    0.947409    1.903416
     58          1           0       -6.989459    0.951964    1.919434
     59          1           0       -7.016629   -0.946566   -1.945052
     60          1           0       -4.539510   -0.980089   -1.945698
     61          1           0       -4.564808   -2.622863    0.993759
     62          1           0       -4.551966   -3.150042   -0.684074
     63          1           0       -3.918523   -4.215123    0.572767
     64          1           0       -1.428308   -4.485178    0.139580
     65          1           0        1.761591   -2.103015   -0.204429
     66          1           0        0.847921   -5.005205    0.261717
     67          1           0        3.803607   -2.620314   -0.306033
     68          1           0        6.130123   -3.406058   -0.381941
     69          1           0        7.126812   -7.049961    0.053065
     70          1           0        4.814265   -7.447591    0.293847
     71          1           0        2.468062   -6.670633    0.371215
 ---------------------------------------------------------------------
 Rotational constants (GHZ):           0.0646379           0.0366706           0.0237690
 Leave Link  202 at Sat Oct 25 04:38:16 2025, MaxMem= 30870077440 cpu:               0.2 elap:               0.0
 (Enter /public/software/gauss/g16/l301.exe)
 Standard basis: def2TZVPP (5D, 7F)
 Ernie: Thresh=  0.10000D-02 Tol=  0.10000D-05 Strict=F.
 There are  2010 symmetry adapted cartesian basis functions of A   symmetry.
 There are  1759 symmetry adapted basis functions of A   symmetry.
  1759 basis functions,  2737 primitive gaussians,  2010 cartesian basis functions
   157 alpha electrons      156 beta electrons
       nuclear repulsion energy      4809.3447600424 Hartrees.
 IExCor= 4336 DFT=T Ex+Corr=M062X ExCW=0 ScaHFX=  0.540000
 ScaDFX=  1.000000  1.000000  1.000000  1.000000 ScalE2=  1.000000  1.000000
 IRadAn=      5 IRanWt=     -1 IRanGd=            0 ICorTp=0 IEmpDi=131
 NAtoms=   71 NActive=   71 NUniq=   71 SFac= 1.00D+00 NAtFMM=   60 NAOKFM=T Big=T
 Integral buffers will be    131072 words long.
 Raffenetti 2 integral format.
 Two-electron integral symmetry is turned on.
 R6Disp:  Grimme-D3 Dispersion energy=       -0.0056961257 Hartrees.
 Nuclear repulsion after empirical dispersion term =     4809.3390639167 Hartrees.
 ------------------------------------------------------------------------------
 Polarizable Continuum Model (PCM)
 =================================
 Model                : PCM.
 Atomic radii         : UFF (Universal Force Field).
 Polarization charges : Total charges.
 Charge compensation  : None.
 Solution method      : On-the-fly selection.
 Cavity type          : Scaled VdW (van der Waals Surface) (Alpha=1.100).
 Cavity algorithm     : GePol (No added spheres)
                        Default sphere list used, NSphG=   71.
                        Lebedev-Laikov grids with approx.  5.0 points / Ang**2.
                        Smoothing algorithm: York/Karplus (Gamma=1.0000).
                        Polarization charges: spherical gaussians, with
                                              point-specific exponents (IZeta= 3).
                        Self-potential: point-specific (ISelfS= 7).
                        Self-field    : sphere-specific E.n sum rule (ISelfD= 2).
 Solvent              : Water, Eps=  78.355300 Eps(inf)=   1.777849
 ------------------------------------------------------------------------------
 GePol: Number of generator spheres                  =      71
 GePol: Total number of spheres                      =      71
 GePol: Number of exposed spheres                    =      71 (100.00%)
 GePol: Number of points                             =    5348
 GePol: Average weight of points                     =       0.13
 GePol: Minimum weight of points                     =   0.11D-10
 GePol: Maximum weight of points                     =    0.20577
 GePol: Number of points with low weight             =     349
 GePol: Fraction of low-weight points (<1% of avg)   =       6.53%
 GePol: Cavity surface area                          =    677.483 Ang**2
 GePol: Cavity volume                                =    779.627 Ang**3
 Leave Link  301 at Sat Oct 25 04:38:16 2025, MaxMem= 30870077440 cpu:               4.3 elap:               0.1
 (Enter /public/software/gauss/g16/l302.exe)
 NPDir=0 NMtPBC=     1 NCelOv=     1 NCel=       1 NClECP=     1 NCelD=      1
         NCelK=      1 NCelE2=     1 NClLst=     1 CellRange=     0.0.
 One-electron integrals computed using PRISM.
 One-electron integral symmetry used in STVInt
   1 Symmetry operations used in ECPInt.
 ECPInt:  NShTT=  212226 NPrTT=  615454 LenC2=  132684 LenP2D=  257785.
 LDataN:  DoStor=T MaxTD1= 6 Len=  172
 NBasis=  1759 RedAO= T EigKep=  5.02D-06  NBF=  1759
 NBsUse=  1759 1.00D-06 EigRej= -1.00D+00 NBFU=  1759
 Precomputing XC quadrature grid using
 IXCGrd= 4 IRadAn=           5 IRanWt=          -1 IRanGd=           0 AccXCQ= 0.00D+00.
 Generated NRdTot=       0 NPtTot=           0 NUsed=           0 NTot=          32
 NSgBfM=  1787  1787  1787  1787  1787 MxSgAt=    71 MxSgA2=    71.
 Leave Link  302 at Sat Oct 25 04:38:24 2025, MaxMem= 30870077440 cpu:             520.8 elap:               8.2
 (Enter /public/software/gauss/g16/l303.exe)
 DipDrv:  MaxL=1.
 Leave Link  303 at Sat Oct 25 04:38:24 2025, MaxMem= 30870077440 cpu:              24.9 elap:               0.4
 (Enter /public/software/gauss/g16/l401.exe)
 ExpMin= 6.06D-02 ExpMax= 3.55D+04 ExpMxC= 1.21D+03 IAcc=3 IRadAn=         5 AccDes= 0.00D+00
 Harris functional with IExCor= 1009 and IRadAn=       5 diagonalized for initial guess.
 HarFok:  IExCor= 1009 AccDes= 0.00D+00 IRadAn=         5 IDoV= 1 UseB2=F ITyADJ=14
 ICtDFT=  3500011 ScaDFX=  1.000000  1.000000  1.000000  1.000000
 FoFCou: FMM=F IPFlag=           0 FMFlag=      100000 FMFlg1=        2001
         NFxFlg=           0 DoJE=T BraDBF=F KetDBF=T FulRan=T
         wScrn=  0.000000 ICntrl=       500 IOpCl=  0 I1Cent=   200000004 NGrid=           0
         NMat0=    1 NMatS0=      1 NMatT0=    0 NMatD0=    1 NMtDS0=    0 NMtDT0=    0
 Petite list used in FoFCou.
 Harris En= -2038.32576745783    
 JPrj=0 DoOrth=F DoCkMO=F.
 Initial guess <Sx>= 0.0000 <Sy>= 0.0000 <Sz>= 0.5000 <S**2>= 0.7500 S= 0.5000
 Leave Link  401 at Sat Oct 25 04:38:34 2025, MaxMem= 30870077440 cpu:             612.1 elap:               9.6
 (Enter /public/software/gauss/g16/l502.exe)
 Integral symmetry usage will be decided dynamically.
 UHF open shell SCF:
 Using DIIS extrapolation, IDIIS=  1040.
 NGot= 30870077440 LenX= 30861851757 LenY= 30857809647
 Requested convergence on RMS density matrix=1.00D-08 within 128 cycles.
 Requested convergence on MAX density matrix=1.00D-06.
 Requested convergence on             energy=1.00D-06.
 No special actions if energy rises.
 Fock matrices will be formed incrementally for  20 cycles.

 Cycle   1  Pass 1  IDiag  1:
 FoFJK:  IHMeth= 1 ICntrl=       0 DoSepK=F KAlg= 0 I1Cent=           0 FoldK=F
 IRaf= 590000000 NMat=       1 IRICut=       1 DoRegI=T DoRafI=F ISym2E= 0 IDoP0=0 IntGTp=1.
 FoFCou: FMM=T IPFlag=           0 FMFlag=      100000 FMFlg1=        2001
         NFxFlg=           0 DoJE=F BraDBF=F KetDBF=F FulRan=T
         wScrn=  0.000000 ICntrl=         0 IOpCl=  1 I1Cent=           0 NGrid=           0
         NMat0=    1 NMatS0=      1 NMatT0=    0 NMatD0=    1 NMtDS0=    0 NMtDT0=    0
 Symmetry not used in FoFCou.
 FMM levels:  10  Number of levels for PrismC:   9
 Inv3:  Mode=1 IEnd=    85803312.
 Iteration    1 A*A^-1 deviation from unit magnitude is 5.77D-15 for   5344.
 Iteration    1 A*A^-1 deviation from orthogonality  is 3.97D-15 for   2000     41.
 Iteration    1 A^-1*A deviation from unit magnitude is 5.77D-15 for   5344.
 Iteration    1 A^-1*A deviation from orthogonality  is 3.22D-15 for   5337   1829.
 E= -2038.22368292242    
 DIIS: error= 2.10D-02 at cycle   1 NSaved=   1.
 NSaved= 1 IEnMin= 1 EnMin= -2038.22368292242     IErMin= 1 ErrMin= 2.10D-02
 ErrMax= 2.10D-02  0.00D+00 EMaxC= 1.00D-01 BMatC= 5.63D+00 BMatP= 5.63D+00
 IDIUse=3 WtCom= 7.90D-01 WtEn= 2.10D-01
 Coeff-Com:  0.100D+01
 Coeff-En:   0.100D+01
 Coeff:      0.100D+01
 Gap=     0.106 Goal=   None    Shift=    0.000
 Gap=     0.124 Goal=   None    Shift=    0.000
 GapD=    0.106 DampG=1.000 DampE=0.500 DampFc=0.5000 IDamp=-1.
 Damping current iteration by 5.00D-01
 RMSDP=2.15D-03 MaxDP=6.28D-01              OVMax= 7.34D-01

 Cycle   2  Pass 1  IDiag  1:
 RMSU=  1.08D-03    CP:  1.01D+00
 E= -2038.72032703307     Delta-E=       -0.496644110656 Rises=F Damp=T
 DIIS: error= 6.41D-03 at cycle   2 NSaved=   2.
 NSaved= 2 IEnMin= 2 EnMin= -2038.72032703307     IErMin= 2 ErrMin= 6.41D-03
 ErrMax= 6.41D-03  0.00D+00 EMaxC= 1.00D-01 BMatC= 5.92D-01 BMatP= 5.63D+00
 IDIUse=3 WtCom= 9.36D-01 WtEn= 6.41D-02
 Coeff-Com: -0.453D-01 0.105D+01
 Coeff-En:   0.000D+00 0.100D+01
 Coeff:     -0.424D-01 0.104D+01
 Gap=     0.018 Goal=   None    Shift=    0.000
 Gap=     0.224 Goal=   None    Shift=    0.000
 RMSDP=7.65D-04 MaxDP=1.37D-01 DE=-4.97D-01 OVMax= 6.62D-01

 Cycle   3  Pass 1  IDiag  1:
 RMSU=  7.63D-04    CP:  9.96D-01  1.01D+00
 E= -2039.20693761885     Delta-E=       -0.486610585773 Rises=F Damp=F
 DIIS: error= 1.22D-02 at cycle   3 NSaved=   3.
 NSaved= 3 IEnMin= 3 EnMin= -2039.20693761885     IErMin= 2 ErrMin= 6.41D-03
 ErrMax= 1.22D-02  0.00D+00 EMaxC= 1.00D-01 BMatC= 4.17D-01 BMatP= 5.92D-01
 IDIUse=3 WtCom= 8.78D-01 WtEn= 1.22D-01
 Coeff-Com: -0.116D+00 0.516D+00 0.600D+00
 Coeff-En:   0.000D+00 0.000D+00 0.100D+01
 Coeff:     -0.102D+00 0.453D+00 0.649D+00
 Gap=     0.068 Goal=   None    Shift=    0.000
 Gap=     0.129 Goal=   None    Shift=    0.000
 RMSDP=2.66D-04 MaxDP=5.48D-02 DE=-4.87D-01 OVMax= 1.14D-01

 Cycle   4  Pass 1  IDiag  1:
 RMSU=  2.36D-04    CP:  9.92D-01  1.04D+00  8.49D-01
 E= -2039.28056576561     Delta-E=       -0.073628146765 Rises=F Damp=F
 DIIS: error= 4.01D-03 at cycle   4 NSaved=   4.
 NSaved= 4 IEnMin= 4 EnMin= -2039.28056576561     IErMin= 4 ErrMin= 4.01D-03
 ErrMax= 4.01D-03  0.00D+00 EMaxC= 1.00D-01 BMatC= 5.86D-02 BMatP= 4.17D-01
 IDIUse=3 WtCom= 9.60D-01 WtEn= 4.01D-02
 Coeff-Com: -0.326D-01 0.924D-01 0.310D+00 0.631D+00
 Coeff-En:   0.000D+00 0.000D+00 0.744D-01 0.926D+00
 Coeff:     -0.313D-01 0.887D-01 0.300D+00 0.642D+00
 Gap=     0.083 Goal=   None    Shift=    0.000
 Gap=     0.130 Goal=   None    Shift=    0.000
 RMSDP=1.13D-04 MaxDP=4.72D-02 DE=-7.36D-02 OVMax= 8.08D-02

 Cycle   5  Pass 1  IDiag  1:
 RMSU=  9.66D-05    CP:  9.92D-01  1.03D+00  9.06D-01  8.37D-01
 E= -2039.29277519481     Delta-E=       -0.012209429194 Rises=F Damp=F
 DIIS: error= 7.17D-04 at cycle   5 NSaved=   5.
 NSaved= 5 IEnMin= 5 EnMin= -2039.29277519481     IErMin= 5 ErrMin= 7.17D-04
 ErrMax= 7.17D-04  0.00D+00 EMaxC= 1.00D-01 BMatC= 4.49D-03 BMatP= 5.86D-02
 IDIUse=3 WtCom= 9.93D-01 WtEn= 7.17D-03
 Coeff-Com: -0.942D-02 0.165D-01 0.104D+00 0.311D+00 0.577D+00
 Coeff-En:   0.000D+00 0.000D+00 0.000D+00 0.000D+00 0.100D+01
 Coeff:     -0.936D-02 0.164D-01 0.104D+00 0.309D+00 0.580D+00
 Gap=     0.090 Goal=   None    Shift=    0.000
 Gap=     0.131 Goal=   None    Shift=    0.000
 RMSDP=4.64D-05 MaxDP=1.88D-02 DE=-1.22D-02 OVMax= 2.70D-02

 Cycle   6  Pass 1  IDiag  1:
 RMSU=  4.12D-05    CP:  9.91D-01  1.02D+00  8.97D-01  9.12D-01  9.85D-01
 E= -2039.29412383959     Delta-E=       -0.001348644789 Rises=F Damp=F
 DIIS: error= 3.51D-04 at cycle   6 NSaved=   6.
 NSaved= 6 IEnMin= 6 EnMin= -2039.29412383959     IErMin= 6 ErrMin= 3.51D-04
 ErrMax= 3.51D-04  0.00D+00 EMaxC= 1.00D-01 BMatC= 4.68D-04 BMatP= 4.49D-03
 IDIUse=3 WtCom= 9.96D-01 WtEn= 3.51D-03
 Coeff-Com:  0.622D-03-0.366D-02-0.691D-02 0.187D-01 0.206D+00 0.785D+00
 Coeff-En:   0.000D+00 0.000D+00 0.000D+00 0.000D+00 0.000D+00 0.100D+01
 Coeff:      0.620D-03-0.364D-02-0.689D-02 0.186D-01 0.206D+00 0.786D+00
 Gap=     0.096 Goal=   None    Shift=    0.000
 Gap=     0.132 Goal=   None    Shift=    0.000
 RMSDP=3.64D-05 MaxDP=1.81D-02 DE=-1.35D-03 OVMax= 3.13D-02

 Cycle   7  Pass 1  IDiag  1:
 RMSU=  2.00D-05    CP:  9.91D-01  1.02D+00  9.06D-01  9.19D-01  1.27D+00
                    CP:  1.25D+00
 E= -2039.29454391341     Delta-E=       -0.000420073814 Rises=F Damp=F
 DIIS: error= 1.99D-04 at cycle   7 NSaved=   7.
 NSaved= 7 IEnMin= 7 EnMin= -2039.29454391341     IErMin= 7 ErrMin= 1.99D-04
 ErrMax= 1.99D-04  0.00D+00 EMaxC= 1.00D-01 BMatC= 1.96D-04 BMatP= 4.68D-04
 IDIUse=3 WtCom= 9.98D-01 WtEn= 1.99D-03
 Coeff-Com:  0.311D-02-0.694D-02-0.356D-01-0.801D-01-0.587D-01 0.401D+00
 Coeff-Com:  0.777D+00
 Coeff-En:   0.000D+00 0.000D+00 0.000D+00 0.000D+00 0.000D+00 0.000D+00
 Coeff-En:   0.100D+01
 Coeff:      0.311D-02-0.693D-02-0.355D-01-0.799D-01-0.585D-01 0.400D+00
 Coeff:      0.778D+00
 Gap=     0.099 Goal=   None    Shift=    0.000
 Gap=     0.133 Goal=   None    Shift=    0.000
 RMSDP=2.83D-05 MaxDP=8.91D-03 DE=-4.20D-04 OVMax= 2.19D-02

 Cycle   8  Pass 1  IDiag  1:
 RMSU=  8.94D-06    CP:  9.90D-01  1.02D+00  9.06D-01  9.54D-01  1.43D+00
                    CP:  1.68D+00  1.44D+00
 E= -2039.29476186535     Delta-E=       -0.000217951938 Rises=F Damp=F
 DIIS: error= 1.12D-04 at cycle   8 NSaved=   8.
 NSaved= 8 IEnMin= 8 EnMin= -2039.29476186535     IErMin= 8 ErrMin= 1.12D-04
 ErrMax= 1.12D-04  0.00D+00 EMaxC= 1.00D-01 BMatC= 4.42D-05 BMatP= 1.96D-04
 IDIUse=3 WtCom= 9.99D-01 WtEn= 1.12D-03
 Coeff-Com:  0.979D-04 0.827D-03-0.596D-02-0.248D-01-0.814D-01-0.149D+00
 Coeff-Com:  0.211D+00 0.105D+01
 Coeff-En:   0.000D+00 0.000D+00 0.000D+00 0.000D+00 0.000D+00 0.000D+00
 Coeff-En:   0.000D+00 0.100D+01
 Coeff:      0.978D-04 0.826D-03-0.595D-02-0.247D-01-0.813D-01-0.149D+00
 Coeff:      0.210D+00 0.105D+01
 Gap=     0.101 Goal=   None    Shift=    0.000
 Gap=     0.134 Goal=   None    Shift=    0.000
 RMSDP=2.26D-05 MaxDP=8.78D-03 DE=-2.18D-04 OVMax= 1.77D-02

 Cycle   9  Pass 1  IDiag  1:
 RMSU=  5.41D-06    CP:  9.90D-01  1.02D+00  9.09D-01  9.63D-01  1.56D+00
                    CP:  1.94D+00  2.09D+00  1.56D+00
 E= -2039.29484947666     Delta-E=       -0.000087611314 Rises=F Damp=F
 DIIS: error= 4.56D-05 at cycle   9 NSaved=   9.
 NSaved= 9 IEnMin= 9 EnMin= -2039.29484947666     IErMin= 9 ErrMin= 4.56D-05
 ErrMax= 4.56D-05  0.00D+00 EMaxC= 1.00D-01 BMatC= 1.25D-05 BMatP= 4.42D-05
 IDIUse=1 WtCom= 1.00D+00 WtEn= 0.00D+00
 Coeff-Com: -0.809D-03 0.201D-02 0.805D-02 0.164D-01-0.154D-02-0.151D+00
 Coeff-Com: -0.191D+00 0.314D+00 0.100D+01
 Coeff:     -0.809D-03 0.201D-02 0.805D-02 0.164D-01-0.154D-02-0.151D+00
 Coeff:     -0.191D+00 0.314D+00 0.100D+01
 Gap=     0.102 Goal=   None    Shift=    0.000
 Gap=     0.134 Goal=   None    Shift=    0.000
 RMSDP=1.21D-05 MaxDP=3.82D-03 DE=-8.76D-05 OVMax= 8.75D-03

 Cycle  10  Pass 1  IDiag  1:
 RMSU=  2.29D-06    CP:  9.90D-01  1.02D+00  9.09D-01  9.67D-01  1.62D+00
                    CP:  2.09D+00  2.42D+00  2.08D+00  1.53D+00
 E= -2039.29487087122     Delta-E=       -0.000021394556 Rises=F Damp=F
 DIIS: error= 3.01D-05 at cycle  10 NSaved=  10.
 NSaved=10 IEnMin=10 EnMin= -2039.29487087122     IErMin=10 ErrMin= 3.01D-05
 ErrMax= 3.01D-05  0.00D+00 EMaxC= 1.00D-01 BMatC= 3.52D-06 BMatP= 1.25D-05
 IDIUse=1 WtCom= 1.00D+00 WtEn= 0.00D+00
 Coeff-Com: -0.305D-03 0.517D-03 0.413D-02 0.117D-01 0.178D-01-0.245D-01
 Coeff-Com: -0.121D+00-0.979D-01 0.422D+00 0.788D+00
 Coeff:     -0.305D-03 0.517D-03 0.413D-02 0.117D-01 0.178D-01-0.245D-01
 Coeff:     -0.121D+00-0.979D-01 0.422D+00 0.788D+00
 Gap=     0.102 Goal=   None    Shift=    0.000
 Gap=     0.134 Goal=   None    Shift=    0.000
 RMSDP=3.80D-06 MaxDP=1.36D-03 DE=-2.14D-05 OVMax= 2.41D-03

 Cycle  11  Pass 1  IDiag  1:
 RMSU=  1.11D-06    CP:  9.91D-01  1.02D+00  9.09D-01  9.68D-01  1.63D+00
                    CP:  2.12D+00  2.52D+00  2.23D+00  1.81D+00  1.44D+00
 E= -2039.29487464028     Delta-E=       -0.000003769067 Rises=F Damp=F
 DIIS: error= 1.35D-05 at cycle  11 NSaved=  11.
 NSaved=11 IEnMin=11 EnMin= -2039.29487464028     IErMin=11 ErrMin= 1.35D-05
 ErrMax= 1.35D-05  0.00D+00 EMaxC= 1.00D-01 BMatC= 7.27D-07 BMatP= 3.52D-06
 IDIUse=1 WtCom= 1.00D+00 WtEn= 0.00D+00
 Coeff-Com:  0.823D-04-0.259D-03-0.564D-03-0.408D-04 0.607D-02 0.255D-01
 Coeff-Com:  0.276D-02-0.100D+00-0.814D-01 0.241D+00 0.907D+00
 Coeff:      0.823D-04-0.259D-03-0.564D-03-0.408D-04 0.607D-02 0.255D-01
 Coeff:      0.276D-02-0.100D+00-0.814D-01 0.241D+00 0.907D+00
 Gap=     0.102 Goal=   None    Shift=    0.000
 Gap=     0.134 Goal=   None    Shift=    0.000
 RMSDP=1.78D-06 MaxDP=6.23D-04 DE=-3.77D-06 OVMax= 1.50D-03

 Cycle  12  Pass 1  IDiag  1:
 RMSU=  6.27D-07    CP:  9.91D-01  1.02D+00  9.09D-01  9.67D-01  1.64D+00
                    CP:  2.12D+00  2.56D+00  2.28D+00  1.96D+00  1.77D+00
                    CP:  1.51D+00
 E= -2039.29487594648     Delta-E=       -0.000001306194 Rises=F Damp=F
 DIIS: error= 9.28D-06 at cycle  12 NSaved=  12.
 NSaved=12 IEnMin=12 EnMin= -2039.29487594648     IErMin=12 ErrMin= 9.28D-06
 ErrMax= 9.28D-06  0.00D+00 EMaxC= 1.00D-01 BMatC= 3.49D-07 BMatP= 7.27D-07
 IDIUse=1 WtCom= 1.00D+00 WtEn= 0.00D+00
 Coeff-Com:  0.102D-03-0.217D-03-0.127D-02-0.291D-02-0.137D-02 0.175D-01
 Coeff-Com:  0.305D-01-0.174D-01-0.139D+00-0.115D+00 0.441D+00 0.787D+00
 Coeff:      0.102D-03-0.217D-03-0.127D-02-0.291D-02-0.137D-02 0.175D-01
 Coeff:      0.305D-01-0.174D-01-0.139D+00-0.115D+00 0.441D+00 0.787D+00
 Gap=     0.102 Goal=   None    Shift=    0.000
 Gap=     0.134 Goal=   None    Shift=    0.000
 RMSDP=1.04D-06 MaxDP=2.95D-04 DE=-1.31D-06 OVMax= 9.99D-04

 Cycle  13  Pass 1  IDiag  1:
 RMSU=  3.50D-07    CP:  9.91D-01  1.02D+00  9.09D-01  9.67D-01  1.64D+00
                    CP:  2.12D+00  2.57D+00  2.30D+00  2.03D+00  1.99D+00
                    CP:  1.94D+00  1.49D+00
 E= -2039.29487649859     Delta-E=       -0.000000552111 Rises=F Damp=F
 DIIS: error= 6.50D-06 at cycle  13 NSaved=  13.
 NSaved=13 IEnMin=13 EnMin= -2039.29487649859     IErMin=13 ErrMin= 6.50D-06
 ErrMax= 6.50D-06  0.00D+00 EMaxC= 1.00D-01 BMatC= 9.90D-08 BMatP= 3.49D-07
 IDIUse=1 WtCom= 1.00D+00 WtEn= 0.00D+00
 Coeff-Com: -0.731D-05 0.432D-04-0.111D-03-0.746D-03-0.232D-02-0.540D-02
 Coeff-Com:  0.650D-02 0.323D-01-0.662D-02-0.137D+00-0.183D+00 0.190D+00
 Coeff-Com:  0.111D+01
 Coeff:     -0.731D-05 0.432D-04-0.111D-03-0.746D-03-0.232D-02-0.540D-02
 Coeff:      0.650D-02 0.323D-01-0.662D-02-0.137D+00-0.183D+00 0.190D+00
 Coeff:      0.111D+01
 Gap=     0.102 Goal=   None    Shift=    0.000
 Gap=     0.134 Goal=   None    Shift=    0.000
 RMSDP=8.74D-07 MaxDP=2.93D-04 DE=-5.52D-07 OVMax= 9.02D-04

 Cycle  14  Pass 1  IDiag  1:
 RMSU=  2.44D-07    CP:  9.91D-01  1.02D+00  9.09D-01  9.67D-01  1.64D+00
                    CP:  2.12D+00  2.58D+00  2.31D+00  2.08D+00  2.15D+00
                    CP:  2.31D+00  2.11D+00  1.69D+00
 E= -2039.29487681195     Delta-E=       -0.000000313361 Rises=F Damp=F
 DIIS: error= 3.35D-06 at cycle  14 NSaved=  14.
 NSaved=14 IEnMin=14 EnMin= -2039.29487681195     IErMin=14 ErrMin= 3.35D-06
 ErrMax= 3.35D-06  0.00D+00 EMaxC= 1.00D-01 BMatC= 4.18D-08 BMatP= 9.90D-08
 IDIUse=1 WtCom= 1.00D+00 WtEn= 0.00D+00
 Coeff-Com: -0.473D-04 0.114D-03 0.460D-03 0.804D-03-0.319D-03-0.980D-02
 Coeff-Com: -0.950D-02 0.216D-01 0.512D-01-0.216D-01-0.244D+00-0.230D+00
 Coeff-Com:  0.489D+00 0.952D+00
 Coeff:     -0.473D-04 0.114D-03 0.460D-03 0.804D-03-0.319D-03-0.980D-02
 Coeff:     -0.950D-02 0.216D-01 0.512D-01-0.216D-01-0.244D+00-0.230D+00
 Coeff:      0.489D+00 0.952D+00
 Gap=     0.102 Goal=   None    Shift=    0.000
 Gap=     0.134 Goal=   None    Shift=    0.000
 RMSDP=6.07D-07 MaxDP=2.18D-04 DE=-3.13D-07 OVMax= 5.80D-04

 Cycle  15  Pass 1  IDiag  1:
 RMSU=  1.29D-07    CP:  9.91D-01  1.02D+00  9.09D-01  9.67D-01  1.64D+00
                    CP:  2.12D+00  2.59D+00  2.31D+00  2.10D+00  2.23D+00
                    CP:  2.54D+00  2.57D+00  2.31D+00  1.50D+00
 E= -2039.29487692229     Delta-E=       -0.000000110340 Rises=F Damp=F
 DIIS: error= 1.45D-06 at cycle  15 NSaved=  15.
 NSaved=15 IEnMin=15 EnMin= -2039.29487692229     IErMin=15 ErrMin= 1.45D-06
 ErrMax= 1.45D-06  0.00D+00 EMaxC= 1.00D-01 BMatC= 1.15D-08 BMatP= 4.18D-08
 IDIUse=1 WtCom= 1.00D+00 WtEn= 0.00D+00
 Coeff-Com: -0.117D-04 0.214D-04 0.185D-03 0.519D-03 0.790D-03-0.130D-02
 Coeff-Com: -0.564D-02-0.479D-02 0.186D-01 0.422D-01-0.857D-02-0.153D+00
 Coeff-Com: -0.258D+00 0.350D+00 0.102D+01
 Coeff:     -0.117D-04 0.214D-04 0.185D-03 0.519D-03 0.790D-03-0.130D-02
 Coeff:     -0.564D-02-0.479D-02 0.186D-01 0.422D-01-0.857D-02-0.153D+00
 Coeff:     -0.258D+00 0.350D+00 0.102D+01
 Gap=     0.102 Goal=   None    Shift=    0.000
 Gap=     0.134 Goal=   None    Shift=    0.000
 RMSDP=3.38D-07 MaxDP=1.26D-04 DE=-1.10D-07 OVMax= 2.81D-04

 Cycle  16  Pass 1  IDiag  1:
 RMSU=  6.57D-08    CP:  9.91D-01  1.02D+00  9.09D-01  9.67D-01  1.64D+00
                    CP:  2.13D+00  2.59D+00  2.32D+00  2.12D+00  2.27D+00
                    CP:  2.64D+00  2.80D+00  2.67D+00  2.02D+00  1.43D+00
 E= -2039.29487694809     Delta-E=       -0.000000025801 Rises=F Damp=F
 DIIS: error= 6.65D-07 at cycle  16 NSaved=  16.
 NSaved=16 IEnMin=16 EnMin= -2039.29487694809     IErMin=16 ErrMin= 6.65D-07
 ErrMax= 6.65D-07  0.00D+00 EMaxC= 1.00D-01 BMatC= 2.20D-09 BMatP= 1.15D-08
 IDIUse=1 WtCom= 1.00D+00 WtEn= 0.00D+00
 Coeff-Com:  0.569D-05-0.139D-04-0.329D-04-0.519D-05 0.234D-03 0.172D-02
 Coeff-Com:  0.252D-03-0.596D-02-0.543D-02 0.172D-01 0.485D-01 0.739D-02
 Coeff-Com: -0.168D+00-0.902D-01 0.258D+00 0.937D+00
 Coeff:      0.569D-05-0.139D-04-0.329D-04-0.519D-05 0.234D-03 0.172D-02
 Coeff:      0.252D-03-0.596D-02-0.543D-02 0.172D-01 0.485D-01 0.739D-02
 Coeff:     -0.168D+00-0.902D-01 0.258D+00 0.937D+00
 Gap=     0.102 Goal=   None    Shift=    0.000
 Gap=     0.134 Goal=   None    Shift=    0.000
 RMSDP=8.74D-08 MaxDP=2.81D-05 DE=-2.58D-08 OVMax= 4.95D-05

 Cycle  17  Pass 1  IDiag  1:
 RMSU=  2.98D-08    CP:  9.91D-01  1.02D+00  9.09D-01  9.67D-01  1.64D+00
                    CP:  2.13D+00  2.59D+00  2.32D+00  2.12D+00  2.27D+00
                    CP:  2.66D+00  2.84D+00  2.74D+00  2.17D+00  1.69D+00
                    CP:  1.45D+00
 E= -2039.29487695104     Delta-E=       -0.000000002948 Rises=F Damp=F
 DIIS: error= 4.01D-07 at cycle  17 NSaved=  17.
 NSaved=17 IEnMin=17 EnMin= -2039.29487695104     IErMin=17 ErrMin= 4.01D-07
 ErrMax= 4.01D-07  0.00D+00 EMaxC= 1.00D-01 BMatC= 9.46D-10 BMatP= 2.20D-09
 IDIUse=1 WtCom= 1.00D+00 WtEn= 0.00D+00
 Coeff-Com:  0.559D-05-0.125D-04-0.555D-04-0.120D-03-0.125D-03 0.113D-02
 Coeff-Com:  0.144D-02-0.156D-02-0.679D-02-0.183D-02 0.225D-01 0.415D-01
 Coeff-Com: -0.134D-01-0.128D+00-0.147D+00 0.455D+00 0.777D+00
 Coeff:      0.559D-05-0.125D-04-0.555D-04-0.120D-03-0.125D-03 0.113D-02
 Coeff:      0.144D-02-0.156D-02-0.679D-02-0.183D-02 0.225D-01 0.415D-01
 Coeff:     -0.134D-01-0.128D+00-0.147D+00 0.455D+00 0.777D+00
 Gap=     0.102 Goal=   None    Shift=    0.000
 Gap=     0.134 Goal=   None    Shift=    0.000
 RMSDP=3.68D-08 MaxDP=8.96D-06 DE=-2.95D-09 OVMax= 2.13D-05

 Cycle  18  Pass 1  IDiag  1:
 RMSU=  1.79D-08    CP:  9.91D-01  1.02D+00  9.09D-01  9.67D-01  1.64D+00
                    CP:  2.13D+00  2.60D+00  2.32D+00  2.12D+00  2.27D+00
                    CP:  2.66D+00  2.85D+00  2.75D+00  2.23D+00  1.78D+00
                    CP:  1.75D+00  1.33D+00
 E= -2039.29487695166     Delta-E=       -0.000000000627 Rises=F Damp=F
 DIIS: error= 2.93D-07 at cycle  18 NSaved=  18.
 NSaved=18 IEnMin=18 EnMin= -2039.29487695166     IErMin=18 ErrMin= 2.93D-07
 ErrMax= 2.93D-07  0.00D+00 EMaxC= 1.00D-01 BMatC= 3.37D-10 BMatP= 9.46D-10
 IDIUse=1 WtCom= 1.00D+00 WtEn= 0.00D+00
 Coeff-Com:  0.106D-05-0.222D-05-0.149D-04-0.520D-04-0.141D-03 0.912D-04
 Coeff-Com:  0.641D-03 0.939D-03-0.168D-02-0.551D-02-0.333D-02 0.190D-01
 Coeff-Com:  0.435D-01-0.363D-01-0.156D+00-0.545D-01 0.432D+00 0.761D+00
 Coeff:      0.106D-05-0.222D-05-0.149D-04-0.520D-04-0.141D-03 0.912D-04
 Coeff:      0.641D-03 0.939D-03-0.168D-02-0.551D-02-0.333D-02 0.190D-01
 Coeff:      0.435D-01-0.363D-01-0.156D+00-0.545D-01 0.432D+00 0.761D+00
 Gap=     0.102 Goal=   None    Shift=    0.000
 Gap=     0.134 Goal=   None    Shift=    0.000
 RMSDP=2.00D-08 MaxDP=2.80D-06 DE=-6.27D-10 OVMax= 1.80D-05

 Cycle  19  Pass 1  IDiag  1:
 RMSU=  9.18D-09    CP:  9.91D-01  1.02D+00  9.09D-01  9.67D-01  1.64D+00
                    CP:  2.13D+00  2.59D+00  2.32D+00  2.12D+00  2.27D+00
                    CP:  2.66D+00  2.85D+00  2.75D+00  2.24D+00  1.81D+00
                    CP:  1.89D+00  1.69D+00  1.13D+00
 E= -2039.29487695212     Delta-E=       -0.000000000457 Rises=F Damp=F
 DIIS: error= 1.16D-07 at cycle  19 NSaved=  19.
 NSaved=19 IEnMin=19 EnMin= -2039.29487695212     IErMin=19 ErrMin= 1.16D-07
 ErrMax= 1.16D-07  0.00D+00 EMaxC= 1.00D-01 BMatC= 7.72D-11 BMatP= 3.37D-10
 IDIUse=1 WtCom= 1.00D+00 WtEn= 0.00D+00
 Coeff-Com: -0.138D-05 0.321D-05 0.124D-04 0.156D-04-0.280D-04-0.318D-03
 Coeff-Com: -0.170D-03 0.911D-03 0.142D-02-0.174D-02-0.843D-02-0.458D-02
 Coeff-Com:  0.243D-01 0.244D-01-0.224D-01-0.174D+00-0.485D-01 0.341D+00
 Coeff-Com:  0.868D+00
 Coeff:     -0.138D-05 0.321D-05 0.124D-04 0.156D-04-0.280D-04-0.318D-03
 Coeff:     -0.170D-03 0.911D-03 0.142D-02-0.174D-02-0.843D-02-0.458D-02
 Coeff:      0.243D-01 0.244D-01-0.224D-01-0.174D+00-0.485D-01 0.341D+00
 Coeff:      0.868D+00
 Gap=     0.102 Goal=   None    Shift=    0.000
 Gap=     0.134 Goal=   None    Shift=    0.000
 RMSDP=1.46D-08 MaxDP=3.06D-06 DE=-4.57D-10 OVMax= 1.48D-05

 Cycle  20  Pass 1  IDiag  1:
 RMSU=  4.60D-09    CP:  9.91D-01  1.02D+00  9.09D-01  9.67D-01  1.64D+00
                    CP:  2.13D+00  2.59D+00  2.32D+00  2.12D+00  2.27D+00
                    CP:  2.66D+00  2.84D+00  2.74D+00  2.24D+00  1.81D+00
                    CP:  1.96D+00  1.85D+00  1.46D+00  1.33D+00
 E= -2039.29487695211     Delta-E=        0.000000000014 Rises=F Damp=F
 DIIS: error= 5.63D-08 at cycle  20 NSaved=  20.
 NSaved=20 IEnMin=19 EnMin= -2039.29487695212     IErMin=20 ErrMin= 5.63D-08
 ErrMax= 5.63D-08  0.00D+00 EMaxC= 1.00D-01 BMatC= 2.18D-11 BMatP= 7.72D-11
 IDIUse=1 WtCom= 1.00D+00 WtEn= 0.00D+00
 Coeff-Com: -0.675D-06 0.146D-05 0.874D-05 0.179D-04 0.177D-04-0.174D-03
 Coeff-Com: -0.235D-03 0.187D-03 0.105D-02 0.597D-03-0.302D-02-0.687D-02
 Coeff-Com: -0.558D-04 0.198D-01 0.308D-01-0.644D-01-0.133D+00-0.357D-01
 Coeff-Com:  0.416D+00 0.775D+00
 Coeff:     -0.675D-06 0.146D-05 0.874D-05 0.179D-04 0.177D-04-0.174D-03
 Coeff:     -0.235D-03 0.187D-03 0.105D-02 0.597D-03-0.302D-02-0.687D-02
 Coeff:     -0.558D-04 0.198D-01 0.308D-01-0.644D-01-0.133D+00-0.357D-01
 Coeff:      0.416D+00 0.775D+00
 Gap=     0.102 Goal=   None    Shift=    0.000
 Gap=     0.134 Goal=   None    Shift=    0.000
 RMSDP=6.25D-09 MaxDP=1.00D-06 DE= 1.36D-11 OVMax= 5.93D-06

 Cycle  21  Pass 1  IDiag  1:
 Restarting incremental Fock formation.
 E= -2039.29487695208     Delta-E=        0.000000000028 Rises=F Damp=F
 DIIS: error= 2.78D-08 at cycle  21 NSaved=  20.
 NSaved=20 IEnMin=18 EnMin= -2039.29487695212     IErMin=20 ErrMin= 2.78D-08
 ErrMax= 2.78D-08  0.00D+00 EMaxC= 1.00D-01 BMatC= 5.13D-12 BMatP= 2.18D-11
 IDIUse=1 WtCom= 1.00D+00 WtEn= 0.00D+00
 Coeff-Com: -0.261D-07 0.144D-05 0.522D-05 0.170D-04 0.274D-05-0.648D-04
 Coeff-Com: -0.163D-03 0.970D-04 0.807D-03 0.914D-03-0.169D-02-0.645D-02
 Coeff-Com:  0.190D-02 0.192D-01 0.187D-01-0.416D-01-0.105D+00-0.642D-01
 Coeff-Com:  0.313D+00 0.865D+00
 Coeff:     -0.261D-07 0.144D-05 0.522D-05 0.170D-04 0.274D-05-0.648D-04
 Coeff:     -0.163D-03 0.970D-04 0.807D-03 0.914D-03-0.169D-02-0.645D-02
 Coeff:      0.190D-02 0.192D-01 0.187D-01-0.416D-01-0.105D+00-0.642D-01
 Coeff:      0.313D+00 0.865D+00
 Gap=     0.102 Goal=   None    Shift=    0.000
 Gap=     0.134 Goal=   None    Shift=    0.000
 RMSDP=4.99D-09 MaxDP=1.85D-06 DE= 2.82D-11 OVMax= 3.18D-06

 Cycle  22  Pass 1  IDiag  1:
 RMSU=  4.95D-09    CP:  1.00D+00
 E= -2039.29487695226     Delta-E=       -0.000000000178 Rises=F Damp=F
 DIIS: error= 1.37D-08 at cycle  22 NSaved=  20.
 NSaved=20 IEnMin=20 EnMin= -2039.29487695226     IErMin=20 ErrMin= 1.37D-08
 ErrMax= 1.37D-08  0.00D+00 EMaxC= 1.00D-01 BMatC= 1.43D-12 BMatP= 5.13D-12
 IDIUse=1 WtCom= 1.00D+00 WtEn= 0.00D+00
 Coeff-Com: -0.479D-06-0.426D-06 0.346D-05 0.312D-04 0.224D-04-0.963D-04
 Coeff-Com: -0.160D-03 0.200D-03 0.817D-03 0.840D-03-0.222D-02-0.369D-02
 Coeff-Com:  0.122D-03 0.228D-01 0.150D-01-0.371D-01-0.133D+00-0.614D-01
 Coeff-Com:  0.371D+00 0.827D+00
 Coeff:     -0.479D-06-0.426D-06 0.346D-05 0.312D-04 0.224D-04-0.963D-04
 Coeff:     -0.160D-03 0.200D-03 0.817D-03 0.840D-03-0.222D-02-0.369D-02
 Coeff:      0.122D-03 0.228D-01 0.150D-01-0.371D-01-0.133D+00-0.614D-01
 Coeff:      0.371D+00 0.827D+00
 Gap=     0.102 Goal=   None    Shift=    0.000
 Gap=     0.134 Goal=   None    Shift=    0.000
 RMSDP=2.28D-09 MaxDP=6.24D-07 DE=-1.78D-10 OVMax= 1.29D-06

 Error on total polarization charges =  0.02522
 SCF Done:  E(UM062X) =  -2039.29487695     A.U. after   22 cycles
            NFock= 22  Conv=0.23D-08     -V/T= 2.0053
 <Sx>= 0.0000 <Sy>= 0.0000 <Sz>= 0.5000 <S**2>= 0.8034 S= 0.5264
 <L.S>= 0.000000000000E+00
 KE= 2.028477850303D+03 PE=-1.440432516203D+04 EE= 5.527213370860D+03
 Annihilation of the first spin contaminant:
 S**2 before annihilation     0.8034,   after     0.7522
 Leave Link  502 at Sat Oct 25 05:09:28 2025, MaxMem= 30870077440 cpu:          117268.3 elap:            1853.8
 (Enter /public/software/gauss/g16/l601.exe)
 Copying SCF densities to generalized density rwf, IOpCl= 1 IROHF=0.

 **********************************************************************

            Population analysis using the SCF density.

 **********************************************************************

 Orbital symmetries:
 Alpha Orbitals:
       Occupied  (A) (A) (A) (A) (A) (A) (A) (A) (A) (A) (A) (A)
                 (A) (A) (A) (A) (A) (A) (A) (A) (A) (A) (A) (A)
                 (A) (A) (A) (A) (A) (A) (A) (A) (A) (A) (A) (A)
                 (A) (A) (A) (A) (A) (A) (A) (A) (A) (A) (A) (A)
                 (A) (A) (A) (A) (A) (A) (A) (A) (A) (A) (A) (A)
                 (A) (A) (A) (A) (A) (A) (A) (A) (A) (A) (A) (A)
                 (A) (A) (A) (A) (A) (A) (A) (A) (A) (A) (A) (A)
                 (A) (A) (A) (A) (A) (A) (A) (A) (A) (A) (A) (A)
                 (A) (A) (A) (A) (A) (A) (A) (A) (A) (A) (A) (A)
                 (A) (A) (A) (A) (A) (A) (A) (A) (A) (A) (A) (A)
                 (A) (A) (A) (A) (A) (A) (A) (A) (A) (A) (A) (A)
                 (A) (A) (A) (A) (A) (A) (A) (A) (A) (A) (A) (A)
                 (A) (A) (A) (A) (A) (A) (A) (A) (A) (A) (A) (A)
                 (A)
       Virtual   (A) (A) (A) (A) (A) (A) (A) (A) (A) (A) (A) (A)
                 (A) (A) (A) (A) (A) (A) (A) (A) (A) (A) (A) (A)
                 (A) (A) (A) (A) (A) (A) (A) (A) (A) (A) (A) (A)
                 (A) (A) (A) (A) (A) (A) (A) (A) (A) (A) (A) (A)
                 (A) (A) (A) (A) (A) (A) (A) (A) (A) (A) (A) (A)
                 (A) (A) (A) (A) (A) (A) (A) (A) (A) (A) (A) (A)
                 (A) (A) (A) (A) (A) (A) (A) (A) (A) (A) (A) (A)
                 (A) (A) (A) (A) (A) (A) (A) (A) (A) (A) (A) (A)
                 (A) (A) (A) (A) (A) (A) (A) (A) (A) (A) (A) (A)
                 (A) (A) (A) (A) (A) (A) (A) (A) (A) (A) (A) (A)
                 (A) (A) (A) (A) (A) (A) (A) (A) (A) (A) (A) (A)
                 (A) (A) (A) (A) (A) (A) (A) (A) (A) (A) (A) (A)
                 (A) (A) (A) (A) (A) (A) (A) (A) (A) (A) (A) (A)
                 (A) (A) (A) (A) (A) (A) (A) (A) (A) (A) (A) (A)
                 (A) (A) (A) (A) (A) (A) (A) (A) (A) (A) (A) (A)
                 (A) (A) (A) (A) (A) (A) (A) (A) (A) (A) (A) (A)
                 (A) (A) (A) (A) (A) (A) (A) (A) (A) (A) (A) (A)
                 (A) (A) (A) (A) (A) (A) (A) (A) (A) (A) (A) (A)
                 (A) (A) (A) (A) (A) (A) (A) (A) (A) (A) (A) (A)
                 (A) (A) (A) (A) (A) (A) (A) (A) (A) (A) (A) (A)
                 (A) (A) (A) (A) (A) (A) (A) (A) (A) (A) (A) (A)
                 (A) (A) (A) (A) (A) (A) (A) (A) (A) (A) (A) (A)
                 (A) (A) (A) (A) (A) (A) (A) (A) (A) (A) (A) (A)
                 (A) (A) (A) (A) (A) (A) (A) (A) (A) (A) (A) (A)
                 (A) (A) (A) (A) (A) (A) (A) (A) (A) (A) (A) (A)
                 (A) (A) (A) (A) (A) (A) (A) (A) (A) (A) (A) (A)
                 (A) (A) (A) (A) (A) (A) (A) (A) (A) (A) (A) (A)
                 (A) (A) (A) (A) (A) (A) (A) (A) (A) (A) (A) (A)
                 (A) (A) (A) (A) (A) (A) (A) (A) (A) (A) (A) (A)
                 (A) (A) (A) (A) (A) (A) (A) (A) (A) (A) (A) (A)
                 (A) (A) (A) (A) (A) (A) (A) (A) (A) (A) (A) (A)
                 (A) (A) (A) (A) (A) (A) (A) (A) (A) (A) (A) (A)
                 (A) (A) (A) (A) (A) (A) (A) (A) (A) (A) (A) (A)
                 (A) (A) (A) (A) (A) (A) (A) (A) (A) (A) (A) (A)
                 (A) (A) (A) (A) (A) (A) (A) (A) (A) (A) (A) (A)
                 (A) (A) (A) (A) (A) (A) (A) (A) (A) (A) (A) (A)
                 (A) (A) (A) (A) (A) (A) (A) (A) (A) (A) (A) (A)
                 (A) (A) (A) (A) (A) (A) (A) (A) (A) (A) (A) (A)
                 (A) (A) (A) (A) (A) (A) (A) (A) (A) (A) (A) (A)
                 (A) (A) (A) (A) (A) (A) (A) (A) (A) (A) (A) (A)
                 (A) (A) (A) (A) (A) (A) (A) (A) (A) (A) (A) (A)
                 (A) (A) (A) (A) (A) (A) (A) (A) (A) (A) (A) (A)
                 (A) (A) (A) (A) (A) (A) (A) (A) (A) (A) (A) (A)
                 (A) (A) (A) (A) (A) (A) (A) (A) (A) (A) (A) (A)
                 (A) (A) (A) (A) (A) (A) (A) (A) (A) (A) (A) (A)
                 (A) (A) (A) (A) (A) (A) (A) (A) (A) (A) (A) (A)
                 (A) (A) (A) (A) (A) (A) (A) (A) (A) (A) (A) (A)
                 (A) (A) (A) (A) (A) (A) (A) (A) (A) (A) (A) (A)
                 (A) (A) (A) (A) (A) (A) (A) (A) (A) (A) (A) (A)
                 (A) (A) (A) (A) (A) (A) (A) (A) (A) (A) (A) (A)
                 (A) (A) (A) (A) (A) (A) (A) (A) (A) (A) (A) (A)
                 (A) (A) (A) (A) (A) (A) (A) (A) (A) (A) (A) (A)
                 (A) (A) (A) (A) (A) (A) (A) (A) (A) (A) (A) (A)
                 (A) (A) (A) (A) (A) (A) (A) (A) (A) (A) (A) (A)
                 (A) (A) (A) (A) (A) (A) (A) (A) (A) (A) (A) (A)
                 (A) (A) (A) (A) (A) (A) (A) (A) (A) (A) (A) (A)
                 (A) (A) (A) (A) (A) (A) (A) (A) (A) (A) (A) (A)
                 (A) (A) (A) (A) (A) (A) (A) (A) (A) (A) (A) (A)
                 (A) (A) (A) (A) (A) (A) (A) (A) (A) (A) (A) (A)
                 (A) (A) (A) (A) (A) (A) (A) (A) (A) (A) (A) (A)
                 (A) (A) (A) (A) (A) (A) (A) (A) (A) (A) (A) (A)
                 (A) (A) (A) (A) (A) (A) (A) (A) (A) (A) (A) (A)
                 (A) (A) (A) (A) (A) (A) (A) (A) (A) (A) (A) (A)
                 (A) (A) (A) (A) (A) (A) (A) (A) (A) (A) (A) (A)
                 (A) (A) (A) (A) (A) (A) (A) (A) (A) (A) (A) (A)
                 (A) (A) (A) (A) (A) (A) (A) (A) (A) (A) (A) (A)
                 (A) (A) (A) (A) (A) (A) (A) (A) (A) (A) (A) (A)
                 (A) (A) (A) (A) (A) (A) (A) (A) (A) (A) (A) (A)
                 (A) (A) (A) (A) (A) (A) (A) (A) (A) (A) (A) (A)
                 (A) (A) (A) (A) (A) (A) (A) (A) (A) (A) (A) (A)
                 (A) (A) (A) (A) (A) (A) (A) (A) (A) (A) (A) (A)
                 (A) (A) (A) (A) (A) (A) (A) (A) (A) (A) (A) (A)
                 (A) (A) (A) (A) (A) (A) (A) (A) (A) (A) (A) (A)
                 (A) (A) (A) (A) (A) (A) (A) (A) (A) (A) (A) (A)
                 (A) (A) (A) (A) (A) (A) (A) (A) (A) (A) (A) (A)
                 (A) (A) (A) (A) (A) (A) (A) (A) (A) (A) (A) (A)
                 (A) (A) (A) (A) (A) (A) (A) (A) (A) (A) (A) (A)
                 (A) (A) (A) (A) (A) (A) (A) (A) (A) (A) (A) (A)
                 (A) (A) (A) (A) (A) (A) (A) (A) (A) (A) (A) (A)
                 (A) (A) (A) (A) (A) (A) (A) (A) (A) (A) (A) (A)
                 (A) (A) (A) (A) (A) (A) (A) (A) (A) (A) (A) (A)
                 (A) (A) (A) (A) (A) (A) (A) (A) (A) (A) (A) (A)
                 (A) (A) (A) (A) (A) (A) (A) (A) (A) (A) (A) (A)
                 (A) (A) (A) (A) (A) (A) (A) (A) (A) (A) (A) (A)
                 (A) (A) (A) (A) (A) (A) (A) (A) (A) (A) (A) (A)
                 (A) (A) (A) (A) (A) (A) (A) (A) (A) (A) (A) (A)
                 (A) (A) (A) (A) (A) (A) (A) (A) (A) (A) (A) (A)
                 (A) (A) (A) (A) (A) (A) (A) (A) (A) (A) (A) (A)
                 (A) (A) (A) (A) (A) (A) (A) (A) (A) (A) (A) (A)
                 (A) (A) (A) (A) (A) (A) (A) (A) (A) (A) (A) (A)
                 (A) (A) (A) (A) (A) (A) (A) (A) (A) (A) (A) (A)
                 (A) (A) (A) (A) (A) (A) (A) (A) (A) (A) (A) (A)
                 (A) (A) (A) (A) (A) (A) (A) (A) (A) (A) (A) (A)
                 (A) (A) (A) (A) (A) (A) (A) (A) (A) (A) (A) (A)
                 (A) (A) (A) (A) (A) (A) (A) (A) (A) (A) (A) (A)
                 (A) (A) (A) (A) (A) (A) (A) (A) (A) (A) (A) (A)
                 (A) (A) (A) (A) (A) (A) (A) (A) (A) (A) (A) (A)
                 (A) (A) (A) (A) (A) (A) (A) (A) (A) (A) (A) (A)
                 (A) (A) (A) (A) (A) (A) (A) (A) (A) (A) (A) (A)
                 (A) (A) (A) (A) (A) (A) (A) (A) (A) (A) (A) (A)
                 (A) (A) (A) (A) (A) (A) (A) (A) (A) (A) (A) (A)
                 (A) (A) (A) (A) (A) (A) (A) (A) (A) (A) (A) (A)
                 (A) (A) (A) (A) (A) (A) (A) (A) (A) (A) (A) (A)
                 (A) (A) (A) (A) (A) (A) (A) (A) (A) (A) (A) (A)
                 (A) (A) (A) (A) (A) (A) (A) (A) (A) (A) (A) (A)
                 (A) (A) (A) (A) (A) (A) (A) (A) (A) (A) (A) (A)
                 (A) (A) (A) (A) (A) (A) (A) (A) (A) (A) (A) (A)
                 (A) (A) (A) (A) (A) (A) (A) (A) (A) (A) (A) (A)
                 (A) (A) (A) (A) (A) (A) (A) (A) (A) (A) (A) (A)
                 (A) (A) (A) (A) (A) (A) (A) (A) (A) (A) (A) (A)
                 (A) (A) (A) (A) (A) (A) (A) (A) (A) (A) (A) (A)
                 (A) (A) (A) (A) (A) (A) (A) (A) (A) (A) (A) (A)
                 (A) (A) (A) (A) (A) (A) (A) (A) (A) (A) (A) (A)
                 (A) (A) (A) (A) (A) (A) (A) (A) (A) (A) (A) (A)
                 (A) (A) (A) (A) (A) (A) (A) (A) (A) (A) (A) (A)
                 (A) (A) (A) (A) (A) (A) (A) (A) (A) (A) (A) (A)
                 (A) (A) (A) (A) (A) (A) (A) (A) (A) (A) (A) (A)
                 (A) (A) (A) (A) (A) (A) (A) (A) (A) (A) (A) (A)
                 (A) (A) (A) (A) (A) (A) (A) (A) (A) (A) (A) (A)
                 (A) (A) (A) (A) (A) (A) (A) (A) (A) (A) (A) (A)
                 (A) (A) (A) (A) (A) (A) (A) (A) (A) (A) (A) (A)
                 (A) (A) (A) (A) (A) (A) (A) (A) (A) (A) (A) (A)
                 (A) (A) (A) (A) (A) (A) (A) (A) (A) (A) (A) (A)
                 (A) (A) (A) (A) (A) (A) (A) (A) (A) (A) (A) (A)
                 (A) (A) (A) (A) (A) (A) (A) (A) (A) (A) (A) (A)
                 (A) (A) (A) (A) (A) (A) (A) (A) (A) (A) (A) (A)
                 (A) (A) (A) (A) (A) (A) (A) (A) (A) (A) (A) (A)
                 (A) (A) (A) (A) (A) (A) (A) (A) (A) (A) (A) (A)
                 (A) (A) (A) (A) (A) (A) (A) (A) (A) (A) (A) (A)
                 (A) (A) (A) (A) (A) (A) (A) (A) (A) (A) (A) (A)
                 (A) (A) (A) (A) (A) (A) (A) (A) (A) (A) (A) (A)
                 (A) (A) (A) (A) (A) (A) (A) (A) (A) (A) (A) (A)
                 (A) (A) (A) (A) (A) (A) (A) (A) (A) (A) (A) (A)
                 (A) (A) (A) (A) (A) (A)
 Beta  Orbitals:
       Occupied  (A) (A) (A) (A) (A) (A) (A) (A) (A) (A) (A) (A)
                 (A) (A) (A) (A) (A) (A) (A) (A) (A) (A) (A) (A)
                 (A) (A) (A) (A) (A) (A) (A) (A) (A) (A) (A) (A)
                 (A) (A) (A) (A) (A) (A) (A) (A) (A) (A) (A) (A)
                 (A) (A) (A) (A) (A) (A) (A) (A) (A) (A) (A) (A)
                 (A) (A) (A) (A) (A) (A) (A) (A) (A) (A) (A) (A)
                 (A) (A) (A) (A) (A) (A) (A) (A) (A) (A) (A) (A)
                 (A) (A) (A) (A) (A) (A) (A) (A) (A) (A) (A) (A)
                 (A) (A) (A) (A) (A) (A) (A) (A) (A) (A) (A) (A)
                 (A) (A) (A) (A) (A) (A) (A) (A) (A) (A) (A) (A)
                 (A) (A) (A) (A) (A) (A) (A) (A) (A) (A) (A) (A)
                 (A) (A) (A) (A) (A) (A) (A) (A) (A) (A) (A) (A)
                 (A) (A) (A) (A) (A) (A) (A) (A) (A) (A) (A) (A)
       Virtual   (A) (A) (A) (A) (A) (A) (A) (A) (A) (A) (A) (A)
                 (A) (A) (A) (A) (A) (A) (A) (A) (A) (A) (A) (A)
                 (A) (A) (A) (A) (A) (A) (A) (A) (A) (A) (A) (A)
                 (A) (A) (A) (A) (A) (A) (A) (A) (A) (A) (A) (A)
                 (A) (A) (A) (A) (A) (A) (A) (A) (A) (A) (A) (A)
                 (A) (A) (A) (A) (A) (A) (A) (A) (A) (A) (A) (A)
                 (A) (A) (A) (A) (A) (A) (A) (A) (A) (A) (A) (A)
                 (A) (A) (A) (A) (A) (A) (A) (A) (A) (A) (A) (A)
                 (A) (A) (A) (A) (A) (A) (A) (A) (A) (A) (A) (A)
                 (A) (A) (A) (A) (A) (A) (A) (A) (A) (A) (A) (A)
                 (A) (A) (A) (A) (A) (A) (A) (A) (A) (A) (A) (A)
                 (A) (A) (A) (A) (A) (A) (A) (A) (A) (A) (A) (A)
                 (A) (A) (A) (A) (A) (A) (A) (A) (A) (A) (A) (A)
                 (A) (A) (A) (A) (A) (A) (A) (A) (A) (A) (A) (A)
                 (A) (A) (A) (A) (A) (A) (A) (A) (A) (A) (A) (A)
                 (A) (A) (A) (A) (A) (A) (A) (A) (A) (A) (A) (A)
                 (A) (A) (A) (A) (A) (A) (A) (A) (A) (A) (A) (A)
                 (A) (A) (A) (A) (A) (A) (A) (A) (A) (A) (A) (A)
                 (A) (A) (A) (A) (A) (A) (A) (A) (A) (A) (A) (A)
                 (A) (A) (A) (A) (A) (A) (A) (A) (A) (A) (A) (A)
                 (A) (A) (A) (A) (A) (A) (A) (A) (A) (A) (A) (A)
                 (A) (A) (A) (A) (A) (A) (A) (A) (A) (A) (A) (A)
                 (A) (A) (A) (A) (A) (A) (A) (A) (A) (A) (A) (A)
                 (A) (A) (A) (A) (A) (A) (A) (A) (A) (A) (A) (A)
                 (A) (A) (A) (A) (A) (A) (A) (A) (A) (A) (A) (A)
                 (A) (A) (A) (A) (A) (A) (A) (A) (A) (A) (A) (A)
                 (A) (A) (A) (A) (A) (A) (A) (A) (A) (A) (A) (A)
                 (A) (A) (A) (A) (A) (A) (A) (A) (A) (A) (A) (A)
                 (A) (A) (A) (A) (A) (A) (A) (A) (A) (A) (A) (A)
                 (A) (A) (A) (A) (A) (A) (A) (A) (A) (A) (A) (A)
                 (A) (A) (A) (A) (A) (A) (A) (A) (A) (A) (A) (A)
                 (A) (A) (A) (A) (A) (A) (A) (A) (A) (A) (A) (A)
                 (A) (A) (A) (A) (A) (A) (A) (A) (A) (A) (A) (A)
                 (A) (A) (A) (A) (A) (A) (A) (A) (A) (A) (A) (A)
                 (A) (A) (A) (A) (A) (A) (A) (A) (A) (A) (A) (A)
                 (A) (A) (A) (A) (A) (A) (A) (A) (A) (A) (A) (A)
                 (A) (A) (A) (A) (A) (A) (A) (A) (A) (A) (A) (A)
                 (A) (A) (A) (A) (A) (A) (A) (A) (A) (A) (A) (A)
                 (A) (A) (A) (A) (A) (A) (A) (A) (A) (A) (A) (A)
                 (A) (A) (A) (A) (A) (A) (A) (A) (A) (A) (A) (A)
                 (A) (A) (A) (A) (A) (A) (A) (A) (A) (A) (A) (A)
                 (A) (A) (A) (A) (A) (A) (A) (A) (A) (A) (A) (A)
                 (A) (A) (A) (A) (A) (A) (A) (A) (A) (A) (A) (A)
                 (A) (A) (A) (A) (A) (A) (A) (A) (A) (A) (A) (A)
                 (A) (A) (A) (A) (A) (A) (A) (A) (A) (A) (A) (A)
                 (A) (A) (A) (A) (A) (A) (A) (A) (A) (A) (A) (A)
                 (A) (A) (A) (A) (A) (A) (A) (A) (A) (A) (A) (A)
                 (A) (A) (A) (A) (A) (A) (A) (A) (A) (A) (A) (A)
                 (A) (A) (A) (A) (A) (A) (A) (A) (A) (A) (A) (A)
                 (A) (A) (A) (A) (A) (A) (A) (A) (A) (A) (A) (A)
                 (A) (A) (A) (A) (A) (A) (A) (A) (A) (A) (A) (A)
                 (A) (A) (A) (A) (A) (A) (A) (A) (A) (A) (A) (A)
                 (A) (A) (A) (A) (A) (A) (A) (A) (A) (A) (A) (A)
                 (A) (A) (A) (A) (A) (A) (A) (A) (A) (A) (A) (A)
                 (A) (A) (A) (A) (A) (A) (A) (A) (A) (A) (A) (A)
                 (A) (A) (A) (A) (A) (A) (A) (A) (A) (A) (A) (A)
                 (A) (A) (A) (A) (A) (A) (A) (A) (A) (A) (A) (A)
                 (A) (A) (A) (A) (A) (A) (A) (A) (A) (A) (A) (A)
                 (A) (A) (A) (A) (A) (A) (A) (A) (A) (A) (A) (A)
                 (A) (A) (A) (A) (A) (A) (A) (A) (A) (A) (A) (A)
                 (A) (A) (A) (A) (A) (A) (A) (A) (A) (A) (A) (A)
                 (A) (A) (A) (A) (A) (A) (A) (A) (A) (A) (A) (A)
                 (A) (A) (A) (A) (A) (A) (A) (A) (A) (A) (A) (A)
                 (A) (A) (A) (A) (A) (A) (A) (A) (A) (A) (A) (A)
                 (A) (A) (A) (A) (A) (A) (A) (A) (A) (A) (A) (A)
                 (A) (A) (A) (A) (A) (A) (A) (A) (A) (A) (A) (A)
                 (A) (A) (A) (A) (A) (A) (A) (A) (A) (A) (A) (A)
                 (A) (A) (A) (A) (A) (A) (A) (A) (A) (A) (A) (A)
                 (A) (A) (A) (A) (A) (A) (A) (A) (A) (A) (A) (A)
                 (A) (A) (A) (A) (A) (A) (A) (A) (A) (A) (A) (A)
                 (A) (A) (A) (A) (A) (A) (A) (A) (A) (A) (A) (A)
                 (A) (A) (A) (A) (A) (A) (A) (A) (A) (A) (A) (A)
                 (A) (A) (A) (A) (A) (A) (A) (A) (A) (A) (A) (A)
                 (A) (A) (A) (A) (A) (A) (A) (A) (A) (A) (A) (A)
                 (A) (A) (A) (A) (A) (A) (A) (A) (A) (A) (A) (A)
                 (A) (A) (A) (A) (A) (A) (A) (A) (A) (A) (A) (A)
                 (A) (A) (A) (A) (A) (A) (A) (A) (A) (A) (A) (A)
                 (A) (A) (A) (A) (A) (A) (A) (A) (A) (A) (A) (A)
                 (A) (A) (A) (A) (A) (A) (A) (A) (A) (A) (A) (A)
                 (A) (A) (A) (A) (A) (A) (A) (A) (A) (A) (A) (A)
                 (A) (A) (A) (A) (A) (A) (A) (A) (A) (A) (A) (A)
                 (A) (A) (A) (A) (A) (A) (A) (A) (A) (A) (A) (A)
                 (A) (A) (A) (A) (A) (A) (A) (A) (A) (A) (A) (A)
                 (A) (A) (A) (A) (A) (A) (A) (A) (A) (A) (A) (A)
                 (A) (A) (A) (A) (A) (A) (A) (A) (A) (A) (A) (A)
                 (A) (A) (A) (A) (A) (A) (A) (A) (A) (A) (A) (A)
                 (A) (A) (A) (A) (A) (A) (A) (A) (A) (A) (A) (A)
                 (A) (A) (A) (A) (A) (A) (A) (A) (A) (A) (A) (A)
                 (A) (A) (A) (A) (A) (A) (A) (A) (A) (A) (A) (A)
                 (A) (A) (A) (A) (A) (A) (A) (A) (A) (A) (A) (A)
                 (A) (A) (A) (A) (A) (A) (A) (A) (A) (A) (A) (A)
                 (A) (A) (A) (A) (A) (A) (A) (A) (A) (A) (A) (A)
                 (A) (A) (A) (A) (A) (A) (A) (A) (A) (A) (A) (A)
                 (A) (A) (A) (A) (A) (A) (A) (A) (A) (A) (A) (A)
                 (A) (A) (A) (A) (A) (A) (A) (A) (A) (A) (A) (A)
                 (A) (A) (A) (A) (A) (A) (A) (A) (A) (A) (A) (A)
                 (A) (A) (A) (A) (A) (A) (A) (A) (A) (A) (A) (A)
                 (A) (A) (A) (A) (A) (A) (A) (A) (A) (A) (A) (A)
                 (A) (A) (A) (A) (A) (A) (A) (A) (A) (A) (A) (A)
                 (A) (A) (A) (A) (A) (A) (A) (A) (A) (A) (A) (A)
                 (A) (A) (A) (A) (A) (A) (A) (A) (A) (A) (A) (A)
                 (A) (A) (A) (A) (A) (A) (A) (A) (A) (A) (A) (A)
                 (A) (A) (A) (A) (A) (A) (A) (A) (A) (A) (A) (A)
                 (A) (A) (A) (A) (A) (A) (A) (A) (A) (A) (A) (A)
                 (A) (A) (A) (A) (A) (A) (A) (A) (A) (A) (A) (A)
                 (A) (A) (A) (A) (A) (A) (A) (A) (A) (A) (A) (A)
                 (A) (A) (A) (A) (A) (A) (A) (A) (A) (A) (A) (A)
                 (A) (A) (A) (A) (A) (A) (A) (A) (A) (A) (A) (A)
                 (A) (A) (A) (A) (A) (A) (A) (A) (A) (A) (A) (A)
                 (A) (A) (A) (A) (A) (A) (A) (A) (A) (A) (A) (A)
                 (A) (A) (A) (A) (A) (A) (A) (A) (A) (A) (A) (A)
                 (A) (A) (A) (A) (A) (A) (A) (A) (A) (A) (A) (A)
                 (A) (A) (A) (A) (A) (A) (A) (A) (A) (A) (A) (A)
                 (A) (A) (A) (A) (A) (A) (A) (A) (A) (A) (A) (A)
                 (A) (A) (A) (A) (A) (A) (A) (A) (A) (A) (A) (A)
                 (A) (A) (A) (A) (A) (A) (A) (A) (A) (A) (A) (A)
                 (A) (A) (A) (A) (A) (A) (A) (A) (A) (A) (A) (A)
                 (A) (A) (A) (A) (A) (A) (A) (A) (A) (A) (A) (A)
                 (A) (A) (A) (A) (A) (A) (A) (A) (A) (A) (A) (A)
                 (A) (A) (A) (A) (A) (A) (A) (A) (A) (A) (A) (A)
                 (A) (A) (A) (A) (A) (A) (A) (A) (A) (A) (A) (A)
                 (A) (A) (A) (A) (A) (A) (A) (A) (A) (A) (A) (A)
                 (A) (A) (A) (A) (A) (A) (A) (A) (A) (A) (A) (A)
                 (A) (A) (A) (A) (A) (A) (A) (A) (A) (A) (A) (A)
                 (A) (A) (A) (A) (A) (A) (A) (A) (A) (A) (A) (A)
                 (A) (A) (A) (A) (A) (A) (A) (A) (A) (A) (A) (A)
                 (A) (A) (A) (A) (A) (A) (A) (A) (A) (A) (A) (A)
                 (A) (A) (A) (A) (A) (A) (A) (A) (A) (A) (A) (A)
                 (A) (A) (A) (A) (A) (A) (A) (A) (A) (A) (A) (A)
                 (A) (A) (A) (A) (A) (A) (A) (A) (A) (A) (A) (A)
                 (A) (A) (A) (A) (A) (A) (A) (A) (A) (A) (A) (A)
                 (A) (A) (A) (A) (A) (A) (A) (A) (A) (A) (A) (A)
                 (A) (A) (A) (A) (A) (A) (A) (A) (A) (A) (A) (A)
                 (A) (A) (A) (A) (A) (A) (A)
 The electronic state is 2-A.
 Alpha  occ. eigenvalues --  -25.19525 -25.19307 -19.67241 -19.67238 -19.62745
 Alpha  occ. eigenvalues --  -19.62735 -15.00715 -14.76445 -14.76297 -10.63248
 Alpha  occ. eigenvalues --  -10.63240 -10.61139 -10.58054 -10.57778 -10.57738
 Alpha  occ. eigenvalues --  -10.57407 -10.57375 -10.57353 -10.57351 -10.57070
 Alpha  occ. eigenvalues --  -10.57061 -10.56354 -10.56345 -10.56302 -10.56028
 Alpha  occ. eigenvalues --  -10.56026 -10.55755 -10.55745 -10.55467 -10.55461
 Alpha  occ. eigenvalues --  -10.55377 -10.55343 -10.55227 -10.55218 -10.55119
 Alpha  occ. eigenvalues --  -10.55116 -10.54743 -10.54671 -10.54644 -10.54640
 Alpha  occ. eigenvalues --  -10.53245 -10.53213 -10.53066 -10.53006  -7.11624
 Alpha  occ. eigenvalues --   -1.35676  -1.31245  -1.27983  -1.17221  -1.16205
 Alpha  occ. eigenvalues --   -1.16193  -1.08577  -1.06591  -1.00121  -0.97678
 Alpha  occ. eigenvalues --   -0.97666  -0.94027  -0.91521  -0.91251  -0.89529
 Alpha  occ. eigenvalues --   -0.88785  -0.88676  -0.86975  -0.86314  -0.85580
 Alpha  occ. eigenvalues --   -0.85575  -0.85087  -0.80690  -0.80421  -0.79161
 Alpha  occ. eigenvalues --   -0.78210  -0.76413  -0.74340  -0.71696  -0.71643
 Alpha  occ. eigenvalues --   -0.70989  -0.70767  -0.68605  -0.68408  -0.67915
 Alpha  occ. eigenvalues --   -0.65833  -0.65369  -0.65339  -0.65049  -0.63375
 Alpha  occ. eigenvalues --   -0.63202  -0.62588  -0.61339  -0.61209  -0.59913
 Alpha  occ. eigenvalues --   -0.59551  -0.59138  -0.58854  -0.57298  -0.56813
 Alpha  occ. eigenvalues --   -0.56039  -0.55107  -0.54776  -0.54347  -0.54276
 Alpha  occ. eigenvalues --   -0.53450  -0.53165  -0.52488  -0.51800  -0.51526
 Alpha  occ. eigenvalues --   -0.51443  -0.50938  -0.50749  -0.50396  -0.50246
 Alpha  occ. eigenvalues --   -0.49903  -0.49697  -0.49601  -0.48658  -0.48647
 Alpha  occ. eigenvalues --   -0.48599  -0.48415  -0.48285  -0.47735  -0.47010
 Alpha  occ. eigenvalues --   -0.46949  -0.46206  -0.45816  -0.45695  -0.45560
 Alpha  occ. eigenvalues --   -0.45503  -0.44993  -0.44720  -0.44469  -0.43408
 Alpha  occ. eigenvalues --   -0.43093  -0.42777  -0.42610  -0.42392  -0.41832
 Alpha  occ. eigenvalues --   -0.41315  -0.40719  -0.40233  -0.40009  -0.39377
 Alpha  occ. eigenvalues --   -0.39243  -0.38934  -0.38824  -0.37783  -0.35338
 Alpha  occ. eigenvalues --   -0.34145  -0.34139  -0.33336  -0.32678  -0.32461
 Alpha  occ. eigenvalues --   -0.32460  -0.31312  -0.30937  -0.29881  -0.28206
 Alpha  occ. eigenvalues --   -0.23349  -0.17770
 Alpha virt. eigenvalues --   -0.07589  -0.06153  -0.04695  -0.00332   0.00257
 Alpha virt. eigenvalues --    0.00308   0.01867   0.02141   0.03193   0.06169
 Alpha virt. eigenvalues --    0.06940   0.07268   0.07743   0.08173   0.08519
 Alpha virt. eigenvalues --    0.08916   0.09118   0.09329   0.10010   0.10228
 Alpha virt. eigenvalues --    0.10609   0.10705   0.10920   0.11274   0.11780
 Alpha virt. eigenvalues --    0.12209   0.12309   0.12796   0.12846   0.13433
 Alpha virt. eigenvalues --    0.13644   0.13949   0.14041   0.14322   0.14438
 Alpha virt. eigenvalues --    0.14664   0.15247   0.15681   0.15895   0.16132
 Alpha virt. eigenvalues --    0.16272   0.16448   0.17206   0.17495   0.17555
 Alpha virt. eigenvalues --    0.17739   0.17934   0.18200   0.18497   0.18622
 Alpha virt. eigenvalues --    0.19127   0.19738   0.20105   0.20359   0.20717
 Alpha virt. eigenvalues --    0.20970   0.21228   0.21532   0.21636   0.22083
 Alpha virt. eigenvalues --    0.22234   0.22360   0.22861   0.22943   0.23361
 Alpha virt. eigenvalues --    0.23571   0.23894   0.23941   0.24020   0.24169
 Alpha virt. eigenvalues --    0.24609   0.24994   0.25157   0.25297   0.25591
 Alpha virt. eigenvalues --    0.26223   0.26415   0.26718   0.26905   0.27020
 Alpha virt. eigenvalues --    0.27069   0.27499   0.27705   0.27826   0.28180
 Alpha virt. eigenvalues --    0.28392   0.28558   0.28758   0.29220   0.29557
 Alpha virt. eigenvalues --    0.29700   0.29926   0.30314   0.30349   0.30577
 Alpha virt. eigenvalues --    0.30971   0.31294   0.31405   0.31643   0.31988
 Alpha virt. eigenvalues --    0.32246   0.32427   0.32627   0.32920   0.33083
 Alpha virt. eigenvalues --    0.33168   0.33515   0.33646   0.33700   0.34123
 Alpha virt. eigenvalues --    0.34183   0.34656   0.34733   0.35073   0.35285
 Alpha virt. eigenvalues --    0.35525   0.35767   0.35879   0.36036   0.36217
 Alpha virt. eigenvalues --    0.36576   0.36707   0.37032   0.37089   0.37347
 Alpha virt. eigenvalues --    0.37589   0.37865   0.37951   0.38293   0.38602
 Alpha virt. eigenvalues --    0.38758   0.38940   0.39150   0.39314   0.39602
 Alpha virt. eigenvalues --    0.39712   0.39800   0.39875   0.40295   0.40535
 Alpha virt. eigenvalues --    0.40881   0.41256   0.41556   0.41757   0.41967
 Alpha virt. eigenvalues --    0.42268   0.42464   0.42714   0.43129   0.43439
 Alpha virt. eigenvalues --    0.43677   0.43721   0.43841   0.44091   0.44518
 Alpha virt. eigenvalues --    0.44549   0.44857   0.44959   0.45188   0.45327
 Alpha virt. eigenvalues --    0.45429   0.45737   0.46065   0.46501   0.46588
 Alpha virt. eigenvalues --    0.46629   0.46658   0.47073   0.47207   0.47420
 Alpha virt. eigenvalues --    0.47936   0.48186   0.48913   0.49144   0.49238
 Alpha virt. eigenvalues --    0.49525   0.49697   0.49888   0.50476   0.50773
 Alpha virt. eigenvalues --    0.50911   0.51148   0.51595   0.51734   0.51837
 Alpha virt. eigenvalues --    0.52200   0.52429   0.52467   0.52621   0.52900
 Alpha virt. eigenvalues --    0.53015   0.53340   0.54021   0.54125   0.54201
 Alpha virt. eigenvalues --    0.54349   0.54730   0.54761   0.54978   0.55052
 Alpha virt. eigenvalues --    0.55518   0.55761   0.55897   0.55931   0.56443
 Alpha virt. eigenvalues --    0.56945   0.57202   0.57429   0.57574   0.57955
 Alpha virt. eigenvalues --    0.58135   0.58315   0.58579   0.58959   0.59224
 Alpha virt. eigenvalues --    0.59308   0.59905   0.60226   0.60813   0.61032
 Alpha virt. eigenvalues --    0.61288   0.61746   0.61820   0.62152   0.62363
 Alpha virt. eigenvalues --    0.63125   0.63175   0.63456   0.63752   0.64045
 Alpha virt. eigenvalues --    0.64592   0.64889   0.65063   0.65449   0.65800
 Alpha virt. eigenvalues --    0.65896   0.66307   0.66522   0.66651   0.66955
 Alpha virt. eigenvalues --    0.67172   0.67504   0.67660   0.68235   0.68395
 Alpha virt. eigenvalues --    0.68751   0.68977   0.69454   0.69731   0.69899
 Alpha virt. eigenvalues --    0.70079   0.70090   0.70101   0.70445   0.70940
 Alpha virt. eigenvalues --    0.70978   0.71032   0.71408   0.71775   0.71914
 Alpha virt. eigenvalues --    0.72178   0.72441   0.72705   0.73143   0.73312
 Alpha virt. eigenvalues --    0.73634   0.73816   0.74022   0.74418   0.74664
 Alpha virt. eigenvalues --    0.74978   0.75154   0.75551   0.75758   0.75991
 Alpha virt. eigenvalues --    0.76137   0.76300   0.76322   0.77021   0.77126
 Alpha virt. eigenvalues --    0.77392   0.77572   0.77696   0.78102   0.78325
 Alpha virt. eigenvalues --    0.78776   0.79094   0.79236   0.79477   0.79800
 Alpha virt. eigenvalues --    0.80100   0.80162   0.80375   0.80789   0.81043
 Alpha virt. eigenvalues --    0.81349   0.81614   0.82177   0.82664   0.82928
 Alpha virt. eigenvalues --    0.83463   0.83637   0.84088   0.84391   0.84488
 Alpha virt. eigenvalues --    0.84920   0.85059   0.85288   0.85336   0.85605
 Alpha virt. eigenvalues --    0.86104   0.86426   0.86564   0.86842   0.87331
 Alpha virt. eigenvalues --    0.87678   0.87933   0.88426   0.88983   0.89221
 Alpha virt. eigenvalues --    0.89273   0.89656   0.89776   0.90368   0.90840
 Alpha virt. eigenvalues --    0.91051   0.91378   0.91767   0.92097   0.92352
 Alpha virt. eigenvalues --    0.92789   0.93047   0.93539   0.93701   0.94701
 Alpha virt. eigenvalues --    0.94909   0.94994   0.95402   0.95581   0.96374
 Alpha virt. eigenvalues --    0.96743   0.97230   0.97421   0.97552   0.97707
 Alpha virt. eigenvalues --    0.97996   0.98525   0.98611   0.98900   0.99086
 Alpha virt. eigenvalues --    0.99462   0.99835   0.99959   1.00286   1.00501
 Alpha virt. eigenvalues --    1.00650   1.00894   1.01019   1.01570   1.02246
 Alpha virt. eigenvalues --    1.02461   1.02711   1.03115   1.03213   1.03422
 Alpha virt. eigenvalues --    1.03928   1.04229   1.04602   1.04868   1.05068
 Alpha virt. eigenvalues --    1.05434   1.05727   1.05767   1.06158   1.06618
 Alpha virt. eigenvalues --    1.06856   1.07009   1.07287   1.07523   1.07936
 Alpha virt. eigenvalues --    1.08341   1.08906   1.09097   1.10148   1.10277
 Alpha virt. eigenvalues --    1.10546   1.10674   1.11095   1.11837   1.12338
 Alpha virt. eigenvalues --    1.12697   1.12981   1.13215   1.13557   1.14099
 Alpha virt. eigenvalues --    1.14447   1.14623   1.15318   1.15390   1.15712
 Alpha virt. eigenvalues --    1.16309   1.16455   1.16614   1.16778   1.17026
 Alpha virt. eigenvalues --    1.17096   1.17381   1.17566   1.17896   1.18419
 Alpha virt. eigenvalues --    1.18452   1.19122   1.19429   1.19950   1.20406
 Alpha virt. eigenvalues --    1.21026   1.21213   1.21260   1.21981   1.22343
 Alpha virt. eigenvalues --    1.22767   1.23461   1.23779   1.24157   1.24437
 Alpha virt. eigenvalues --    1.24836   1.25214   1.25320   1.25916   1.26032
 Alpha virt. eigenvalues --    1.26209   1.26753   1.27239   1.27469   1.27632
 Alpha virt. eigenvalues --    1.27929   1.28184   1.28345   1.28525   1.28973
 Alpha virt. eigenvalues --    1.29050   1.29673   1.29820   1.30007   1.30426
 Alpha virt. eigenvalues --    1.30876   1.31387   1.31827   1.32290   1.32622
 Alpha virt. eigenvalues --    1.32798   1.33048   1.33319   1.33470   1.33896
 Alpha virt. eigenvalues --    1.34175   1.34619   1.34985   1.35423   1.35671
[...]
     6 C(13)  Bbb    -0.0717    -9.623    -3.434    -3.210  0.9920 -0.1244  0.0226
              Bcc     0.1488    19.965     7.124     6.659 -0.0239 -0.0084  0.9997
 
              Baa    -0.0258    -3.459    -1.234    -1.154 -0.0285 -0.0130  0.9995
     7 C(13)  Bbb     0.0098     1.317     0.470     0.439 -0.2070  0.9783  0.0068
              Bcc     0.0160     2.141     0.764     0.714  0.9779  0.2067  0.0306
 
              Baa    -0.0185    -2.481    -0.885    -0.828 -0.4394  0.8983 -0.0003
     8 C(13)  Bbb    -0.0168    -2.258    -0.806    -0.753  0.8983  0.4394  0.0057
              Bcc     0.0353     4.739     1.691     1.581 -0.0053 -0.0022  1.0000
 
              Baa    -0.0160    -2.148    -0.766    -0.716 -0.0058 -0.0049  1.0000
     9 C(13)  Bbb     0.0065     0.870     0.310     0.290 -0.5044  0.8634  0.0013
              Bcc     0.0095     1.278     0.456     0.426  0.8634  0.5044  0.0075
 
              Baa    -0.0255    -3.419    -1.220    -1.141 -0.3350  0.9422  0.0047
    10 C(13)  Bbb    -0.0221    -2.965    -1.058    -0.989  0.9422  0.3349  0.0142
              Bcc     0.0476     6.384     2.278     2.130 -0.0118 -0.0092  0.9999
 
              Baa    -0.0014    -0.182    -0.065    -0.061  0.1692  0.9853 -0.0234
    11 C(13)  Bbb    -0.0004    -0.053    -0.019    -0.018 -0.0289  0.0287  0.9992
              Bcc     0.0018     0.235     0.084     0.079  0.9852 -0.1684  0.0333
 
              Baa    -0.0500     3.616     1.290     1.206  0.8630 -0.5053  0.0059
    12 O(17)  Bbb    -0.0468     3.388     1.209     1.130  0.5052  0.8629  0.0119
              Bcc     0.0968    -7.005    -2.499    -2.337 -0.0111 -0.0073  0.9999
 
              Baa    -0.0149    -2.000    -0.713    -0.667 -0.0096 -0.0071  0.9999
    13 C(13)  Bbb     0.0058     0.774     0.276     0.258 -0.1928  0.9812  0.0051
              Bcc     0.0091     1.226     0.437     0.409  0.9812  0.1927  0.0108
 
              Baa    -0.0220    -2.957    -1.055    -0.987 -0.3585  0.9335  0.0013
    14 C(13)  Bbb    -0.0193    -2.595    -0.926    -0.866  0.9334  0.3585  0.0135
              Bcc     0.0414     5.553     1.981     1.852 -0.0122 -0.0060  0.9999
 
              Baa    -0.0507    -1.957    -0.698    -0.653  0.0589  0.9961 -0.0651
    15 N(14)  Bbb    -0.0413    -1.591    -0.568    -0.531  0.9871 -0.0484  0.1526
              Bcc     0.0920     3.548     1.266     1.183 -0.1489  0.0732  0.9861
 
              Baa    -0.0944   -12.668    -4.520    -4.226 -0.0645  0.0802  0.9947
    16 C(13)  Bbb     0.0418     5.608     2.001     1.871  0.7856 -0.6106  0.1002
              Bcc     0.0526     7.060     2.519     2.355  0.6154  0.7879 -0.0236
 
              Baa    -0.2033   -27.278    -9.734    -9.099 -0.0054  0.9996 -0.0265
    17 C(13)  Bbb    -0.1982   -26.592    -9.489    -8.870  1.0000  0.0053 -0.0017
              Bcc     0.4014    53.870    19.222    17.969  0.0016  0.0266  0.9996
 
              Baa    -0.0191    -2.567    -0.916    -0.856 -0.0122 -0.6640  0.7476
    18 C(13)  Bbb     0.0089     1.197     0.427     0.399  0.9975  0.0442  0.0555
              Bcc     0.0102     1.370     0.489     0.457 -0.0699  0.7464  0.6618
 
              Baa    -0.0170    -2.287    -0.816    -0.763  0.4953  0.2680  0.8263
    19 C(13)  Bbb    -0.0101    -1.354    -0.483    -0.452  0.7698  0.3054 -0.5605
              Bcc     0.0271     3.641     1.299     1.214 -0.4026  0.9137 -0.0550
 
              Baa    -0.0106    -1.417    -0.506    -0.473 -0.2622  0.8937 -0.3639
    20 C(13)  Bbb     0.0016     0.216     0.077     0.072  0.1216  0.4048  0.9063
              Bcc     0.0089     1.201     0.429     0.401  0.9573  0.1934 -0.2149
 
              Baa    -0.0179    -2.398    -0.856    -0.800  0.0075  0.4714  0.8819
    21 C(13)  Bbb    -0.0137    -1.843    -0.658    -0.615  1.0000 -0.0087 -0.0039
              Bcc     0.0316     4.241     1.513     1.415  0.0059  0.8819 -0.4714
 
              Baa    -0.0045    -0.173    -0.062    -0.058  0.0068  0.4392  0.8983
    22 N(14)  Bbb    -0.0031    -0.120    -0.043    -0.040  1.0000 -0.0058 -0.0047
              Bcc     0.0076     0.292     0.104     0.098  0.0031  0.8984 -0.4393
 
              Baa    -0.0248     1.796     0.641     0.599  0.1067  0.3937  0.9130
    23 O(17)  Bbb    -0.0241     1.744     0.622     0.582  0.9910  0.0332 -0.1301
              Bcc     0.0489    -3.540    -1.263    -1.181 -0.0815  0.9186 -0.3866
 
              Baa    -0.0248     1.792     0.640     0.598 -0.0931  0.3947  0.9141
    24 O(17)  Bbb    -0.0241     1.741     0.621     0.581  0.9913 -0.0494  0.1222
              Bcc     0.0488    -3.533    -1.261    -1.179  0.0934  0.9175 -0.3867
 
              Baa    -0.0104    -1.397    -0.498    -0.466  0.2725  0.8912 -0.3626
    25 C(13)  Bbb     0.0016     0.215     0.077     0.072 -0.1114  0.4035  0.9081
              Bcc     0.0088     1.181     0.422     0.394  0.9557 -0.2070  0.2092
 
              Baa    -0.0172    -2.303    -0.822    -0.768 -0.4774  0.2730  0.8352
    26 C(13)  Bbb    -0.0103    -1.377    -0.491    -0.459  0.7760 -0.3149  0.5465
              Bcc     0.0274     3.680     1.313     1.228  0.4122  0.9090 -0.0615
 
              Baa    -0.0967   -12.981    -4.632    -4.330  0.0374  0.0384  0.9986
    27 C(13)  Bbb     0.0427     5.732     2.045     1.912  0.7930  0.6069 -0.0530
              Bcc     0.0540     7.250     2.587     2.418 -0.6080  0.7939 -0.0077
 
              Baa    -0.0718    -9.635    -3.438    -3.214  0.9787 -0.2011 -0.0414
    28 C(13)  Bbb    -0.0708    -9.506    -3.392    -3.171  0.1972  0.9768 -0.0837
              Bcc     0.1426    19.141     6.830     6.385  0.0572  0.0738  0.9956
 
              Baa    -0.0011    -0.146    -0.052    -0.049 -0.6278  0.6572  0.4170
    29 C(13)  Bbb    -0.0007    -0.089    -0.032    -0.030  0.4685 -0.1088  0.8767
              Bcc     0.0018     0.235     0.084     0.078  0.6216  0.7458 -0.2396
 
              Baa    -0.0655    -8.784    -3.134    -2.930  0.0195  0.0347  0.9992
    30 C(13)  Bbb     0.0317     4.248     1.516     1.417  0.1181  0.9923 -0.0368
              Bcc     0.0338     4.536     1.619     1.513  0.9928 -0.1187 -0.0152
 
              Baa    -0.0889   -11.932    -4.258    -3.980  0.4553  0.8892 -0.0441
    31 C(13)  Bbb    -0.0861   -11.552    -4.122    -3.853  0.8896 -0.4563 -0.0170
              Bcc     0.1750    23.485     8.380     7.834  0.0353  0.0315  0.9989
 
              Baa    -0.0659    -8.844    -3.156    -2.950  0.0665  0.1211  0.9904
    32 C(13)  Bbb     0.0276     3.697     1.319     1.233  0.5593  0.8175 -0.1375
              Bcc     0.0384     5.147     1.837     1.717  0.8263 -0.5631  0.0134
 
              Baa    -0.0792   -10.623    -3.791    -3.544 -0.1475  0.9801 -0.1330
    33 C(13)  Bbb    -0.0737    -9.891    -3.529    -3.299  0.9867  0.1366 -0.0881
              Bcc     0.1529    20.514     7.320     6.843  0.0682  0.1442  0.9872
 
              Baa    -0.0265    -3.552    -1.267    -1.185  0.0641  0.1443  0.9875
    34 C(13)  Bbb     0.0101     1.353     0.483     0.451  0.1839  0.9708 -0.1538
              Bcc     0.0164     2.199     0.785     0.733  0.9809 -0.1914 -0.0357
 
              Baa    -0.0190    -2.551    -0.910    -0.851  0.4142  0.8968 -0.1555
    35 C(13)  Bbb    -0.0173    -2.323    -0.829    -0.775  0.9063 -0.4222 -0.0207
              Bcc     0.0363     4.873     1.739     1.626  0.0842  0.1323  0.9876
 
              Baa    -0.0164    -2.206    -0.787    -0.736  0.0849  0.1357  0.9871
    36 C(13)  Bbb     0.0067     0.893     0.319     0.298  0.4812  0.8619 -0.1599
              Bcc     0.0098     1.312     0.468     0.438  0.8725 -0.4886 -0.0079
 
              Baa    -0.0262    -3.517    -1.255    -1.173  0.3104  0.9372 -0.1588
    37 C(13)  Bbb    -0.0227    -3.050    -1.088    -1.017  0.9473 -0.3190 -0.0311
              Bcc     0.0489     6.567     2.343     2.190  0.0798  0.1408  0.9868
 
              Baa    -0.0014    -0.188    -0.067    -0.063 -0.1919  0.9754 -0.1083
    38 C(13)  Bbb    -0.0004    -0.054    -0.019    -0.018  0.0564  0.1212  0.9910
              Bcc     0.0018     0.242     0.086     0.081  0.9798  0.1841 -0.0783
 
              Baa    -0.0515     3.724     1.329     1.242  0.8471  0.5108 -0.1469
    39 O(17)  Bbb    -0.0482     3.489     1.245     1.164 -0.5247  0.8477 -0.0777
              Bcc     0.0997    -7.212    -2.574    -2.406  0.0848  0.1429  0.9861
 
              Baa    -0.0153    -2.057    -0.734    -0.686  0.0816  0.1382  0.9870
    40 C(13)  Bbb     0.0059     0.796     0.284     0.266  0.1677  0.9743 -0.1503
              Bcc     0.0094     1.260     0.450     0.420  0.9825 -0.1778 -0.0563
 
              Baa    -0.0227    -3.041    -1.085    -1.014  0.3341  0.9298 -0.1548
    41 C(13)  Bbb    -0.0199    -2.670    -0.953    -0.891  0.9392 -0.3421 -0.0280
              Bcc     0.0426     5.711     2.038     1.905  0.0790  0.1360  0.9876
 
              Baa    -0.0507    -1.955    -0.698    -0.652 -0.0507  0.9986  0.0157
    42 N(14)  Bbb    -0.0410    -1.579    -0.564    -0.527  0.9948  0.0519 -0.0878
              Bcc     0.0916     3.535     1.261     1.179  0.0885 -0.0112  0.9960
 
              Baa    -0.0026    -0.448    -0.160    -0.149  0.0997  0.2182  0.9708
    43 B(11)  Bbb     0.0005     0.084     0.030     0.028  0.9300 -0.3672 -0.0130
              Bcc     0.0021     0.363     0.130     0.121  0.3536  0.9042 -0.2396
 
              Baa    -0.0150    -7.551    -2.694    -2.519 -0.0928  0.9721  0.2152
    44 F(19)  Bbb    -0.0126    -6.332    -2.259    -2.112 -0.4805 -0.2331  0.8454
              Bcc     0.0276    13.883     4.954     4.631  0.8721 -0.0249  0.4888
 
              Baa    -0.0074    -3.719    -1.327    -1.241  0.2082 -0.0130  0.9780
    45 F(19)  Bbb    -0.0050    -2.522    -0.900    -0.841  0.0102  0.9999  0.0111
              Bcc     0.0124     6.242     2.227     2.082  0.9780 -0.0077 -0.2083
 
              Baa    -0.0021    -1.094    -0.390    -0.365  0.2770  0.0435  0.9599
    46 H(1)   Bbb    -0.0004    -0.237    -0.085    -0.079  0.5037  0.8441 -0.1836
              Bcc     0.0025     1.331     0.475     0.444  0.8182 -0.5344 -0.2119
 
              Baa    -0.0015    -0.783    -0.279    -0.261 -0.4799 -0.0866  0.8730
    47 H(1)   Bbb    -0.0012    -0.630    -0.225    -0.210  0.6938  0.5715  0.4381
              Bcc     0.0026     1.413     0.504     0.471 -0.5369  0.8160 -0.2142
 
              Baa    -0.0022    -1.156    -0.413    -0.386 -0.3403  0.2003  0.9188
    48 H(1)   Bbb    -0.0005    -0.253    -0.090    -0.084  0.5493  0.8354  0.0214
              Bcc     0.0026     1.409     0.503     0.470  0.7632 -0.5119  0.3943
 
              Baa    -0.0024    -1.254    -0.447    -0.418 -0.1162 -0.2399  0.9638
    49 H(1)   Bbb    -0.0021    -1.141    -0.407    -0.381  0.0713  0.9659  0.2490
              Bcc     0.0045     2.395     0.855     0.799  0.9907 -0.0976  0.0952
 
              Baa    -0.0032    -1.690    -0.603    -0.564 -0.4873  0.8263 -0.2824
    50 H(1)   Bbb    -0.0026    -1.386    -0.494    -0.462 -0.1603  0.2332  0.9591
              Bcc     0.0058     3.075     1.097     1.026  0.8584  0.5127  0.0188
 
              Baa    -0.0080    -4.292    -1.532    -1.432  0.7167  0.6973  0.0114
    51 H(1)   Bbb    -0.0019    -1.007    -0.359    -0.336 -0.0365  0.0212  0.9991
              Bcc     0.0099     5.300     1.891     1.768 -0.6965  0.7164 -0.0407
 
              Baa    -0.0015    -0.803    -0.287    -0.268  0.9813 -0.1835  0.0583
    52 H(1)   Bbb    -0.0011    -0.578    -0.206    -0.193 -0.0542  0.0268  0.9982
              Bcc     0.0026     1.381     0.493     0.461  0.1847  0.9827 -0.0164
 
              Baa    -0.0009    -0.502    -0.179    -0.167 -0.0032 -0.0144  0.9999
    53 H(1)   Bbb    -0.0007    -0.358    -0.128    -0.119 -0.6497  0.7601  0.0089
              Bcc     0.0016     0.860     0.307     0.287  0.7602  0.6496  0.0118
 
              Baa    -0.0007    -0.364    -0.130    -0.121 -0.0575  0.0279  0.9980
    54 H(1)   Bbb    -0.0007    -0.357    -0.128    -0.119  0.7957 -0.6025  0.0627
              Bcc     0.0014     0.721     0.257     0.241  0.6030  0.7977  0.0124
 
              Baa    -0.0009    -0.473    -0.169    -0.158 -0.0109 -0.0064  0.9999
    55 H(1)   Bbb    -0.0004    -0.209    -0.075    -0.070 -0.1029  0.9947  0.0052
              Bcc     0.0013     0.682     0.244     0.228  0.9946  0.1028  0.0115
 
              Baa    -0.0013    -0.670    -0.239    -0.224  0.0615  0.0672  0.9958
    56 H(1)   Bbb    -0.0012    -0.624    -0.223    -0.208  0.7001  0.7082 -0.0910
              Bcc     0.0024     1.295     0.462     0.432  0.7113 -0.7028  0.0035
 
              Baa    -0.0028    -1.506    -0.538    -0.503 -0.1538  0.7539 -0.6387
    57 H(1)   Bbb    -0.0006    -0.294    -0.105    -0.098  0.9204  0.3445  0.1851
              Bcc     0.0034     1.801     0.643     0.601 -0.3596  0.5594  0.7468
 
              Baa    -0.0011    -0.580    -0.207    -0.193 -0.0554  0.7767 -0.6274
    58 H(1)   Bbb    -0.0003    -0.184    -0.066    -0.062  0.1643  0.6269  0.7616
              Bcc     0.0014     0.764     0.273     0.255  0.9849 -0.0609 -0.1623
 
              Baa    -0.0011    -0.583    -0.208    -0.194  0.0640  0.7684 -0.6367
    59 H(1)   Bbb    -0.0004    -0.188    -0.067    -0.063 -0.1481  0.6383  0.7554
              Bcc     0.0014     0.771     0.275     0.257  0.9869  0.0460  0.1546
 
              Baa    -0.0028    -1.490    -0.532    -0.497  0.1836  0.7417 -0.6451
    60 H(1)   Bbb    -0.0005    -0.276    -0.098    -0.092  0.9147 -0.3692 -0.1642
              Bcc     0.0033     1.766     0.630     0.589  0.3600  0.5599  0.7462
 
              Baa    -0.0022    -1.158    -0.413    -0.386  0.3073  0.1723  0.9359
    61 H(1)   Bbb    -0.0005    -0.244    -0.087    -0.081 -0.5372  0.8432  0.0212
              Bcc     0.0026     1.402     0.500     0.468  0.7855  0.5093 -0.3517
 
              Baa    -0.0021    -1.117    -0.398    -0.372 -0.3013 -0.0148  0.9534
    62 H(1)   Bbb    -0.0005    -0.250    -0.089    -0.083 -0.5046  0.8509 -0.1463
              Bcc     0.0026     1.366     0.488     0.456  0.8091  0.5251  0.2639
 
              Baa    -0.0015    -0.802    -0.286    -0.268  0.4502 -0.1238  0.8843
    63 H(1)   Bbb    -0.0012    -0.646    -0.231    -0.215  0.7144 -0.5443 -0.4399
              Bcc     0.0027     1.448     0.517     0.483  0.5358  0.8297 -0.1565
 
              Baa    -0.0024    -1.268    -0.453    -0.423  0.0048  0.2971  0.9548
    64 H(1)   Bbb    -0.0023    -1.223    -0.436    -0.408 -0.1136  0.9488 -0.2947
              Bcc     0.0047     2.491     0.889     0.831  0.9935  0.1071 -0.0383
 
              Baa    -0.0032    -1.722    -0.614    -0.574  0.4930  0.8667  0.0766
    65 H(1)   Bbb    -0.0027    -1.422    -0.507    -0.474 -0.0356 -0.0679  0.9971
              Bcc     0.0059     3.144     1.122     1.049  0.8693 -0.4942 -0.0026
 
              Baa    -0.0083    -4.421    -1.578    -1.475  0.7307 -0.6812  0.0441
    66 H(1)   Bbb    -0.0019    -1.025    -0.366    -0.342  0.0546  0.1227  0.9909
              Bcc     0.0102     5.446     1.943     1.816  0.6805  0.7217 -0.1269
 
              Baa    -0.0015    -0.826    -0.295    -0.275  0.9786  0.2002 -0.0479
    67 H(1)   Bbb    -0.0011    -0.588    -0.210    -0.196  0.0295  0.0939  0.9951
              Bcc     0.0026     1.413     0.504     0.471 -0.2037  0.9753 -0.0860
 
              Baa    -0.0010    -0.512    -0.183    -0.171  0.0757  0.1220  0.9896
    68 H(1)   Bbb    -0.0007    -0.368    -0.131    -0.123  0.6299  0.7635 -0.1423
              Bcc     0.0016     0.880     0.314     0.294  0.7729 -0.6342  0.0191
 
              Baa    -0.0007    -0.373    -0.133    -0.124  0.1658  0.2057  0.9645
    69 H(1)   Bbb    -0.0007    -0.367    -0.131    -0.122  0.7666  0.5883 -0.2573
              Bcc     0.0014     0.740     0.264     0.247 -0.6203  0.7820 -0.0602
 
              Baa    -0.0009    -0.485    -0.173    -0.162  0.0800  0.1309  0.9882
    70 H(1)   Bbb    -0.0004    -0.216    -0.077    -0.072  0.0783  0.9875 -0.1371
              Bcc     0.0013     0.701     0.250     0.234  0.9937 -0.0883 -0.0687
 
              Baa    -0.0013    -0.686    -0.245    -0.229  0.1859  0.0309  0.9821
    71 H(1)   Bbb    -0.0012    -0.648    -0.231    -0.216 -0.6970  0.7086  0.1096
              Bcc     0.0025     1.334     0.476     0.445  0.6926  0.7049 -0.1533
 

 ---------------------------------------------------------------------------------

 No NMR shielding tensors so no spin-rotation constants.
 Leave Link  601 at Sat Oct 25 05:09:31 2025, MaxMem= 30870077440 cpu:             198.4 elap:               3.5
 (Enter /public/software/gauss/g16/l9999.exe)
 1\1\GINC-CU056\SP\UM062X\def2TZVPP\C35H26B1F2N3O4(1-,2)\BAIDING\25-Oct
 -2025\0\\#p M062X/DEF2TZVPP scrf=(solvent=water) em=GD3\\Energy calcul
 ation for BNP_CHO_CHO_reduced\\-1,2\C,0,-3.992544,3.083551,-0.476936\C
 ,0,-2.606445,2.557282,-0.242221\C,0,-1.468885,3.354086,-0.241864\C,0,-
 0.331314,2.533521,-0.083751\C,0,1.049214,2.904861,-0.048604\C,0,1.5046
 08,4.19288,-0.037653\C,0,2.89126,4.609304,-0.018381\C,0,3.985932,3.702
 478,-0.012246\C,0,5.288967,4.159289,0.00749\C,0,5.567708,5.543234,0.02
 1361\C,0,6.936316,6.044962,0.040697\O,0,7.951284,5.342797,0.046988\C,0
 ,4.49374,6.452059,0.015678\C,0,3.185993,5.994902,-0.003524\N,0,-0.7675
 62,1.224666,0.015836\C,0,-2.154677,1.205574,-0.053792\C,0,-2.864157,-0
 .026232,-0.023685\C,0,-4.343174,-0.021386,-0.019828\C,0,-5.057523,0.53
 5739,1.061329\C,0,-6.44375,0.543735,1.078459\C,0,-7.136359,0.002333,-0
 .011696\N,0,-8.577235,0.013841,-0.007276\O,0,-9.184962,-0.479562,-0.97
 5122\O,0,-9.171106,0.51671,0.964273\C,0,-6.459169,-0.549146,-1.106609\
 C,0,-5.073047,-0.564015,-1.098053\C,0,-2.149554,-1.254374,-0.010654\C,
 0,-2.593214,-2.617487,0.098943\C,0,-3.980043,-3.171756,0.249665\C,0,-1
 .448305,-3.404462,0.088853\C,0,-0.315342,-2.568566,0.000762\C,0,1.0692
 98,-2.92135,-0.040254\C,0,1.55194,-4.192576,0.094398\C,0,2.943398,-4.5
 88369,0.03907\C,0,4.012939,-3.676617,-0.174374\C,0,5.322407,-4.112673,
 -0.217721\C,0,5.633132,-5.479661,-0.050065\C,0,7.00909,-5.958709,-0.09
 5382\O,0,8.002738,-5.250635,-0.281979\C,0,4.584429,-6.393055,0.163413\
 C,0,3.270132,-5.956714,0.206666\N,0,-0.759473,-1.258558,-0.056563\B,0,
 0.118231,-0.019468,0.216339\F,0,0.634512,-0.062135,1.52791\F,0,1.20999
 8,0.011956,-0.681446\H,0,-4.600813,3.098227,0.433814\H,0,-3.932125,4.1
 10707,-0.848504\H,0,-4.540271,2.489813,-1.214849\H,0,-1.452435,4.42684
 8,-0.382095\H,0,1.762898,2.088983,-0.039899\H,0,0.780001,5.004597,-0.0
 41304\H,0,3.801578,2.633432,-0.023365\H,0,6.116033,3.455973,0.011851\H
 ,0,7.026553,7.148822,0.049953\H,0,4.699393,7.519508,0.026427\H,0,2.364
 158,6.705325,-0.007679\H,0,-4.511643,0.947409,1.903416\H,0,-6.989459,0
 .951964,1.919434\H,0,-7.016629,-0.946566,-1.945052\H,0,-4.53951,-0.980
 089,-1.945698\H,0,-4.564808,-2.622863,0.993759\H,0,-4.551966,-3.150042
 ,-0.684074\H,0,-3.918523,-4.215123,0.572767\H,0,-1.428308,-4.485178,0.
 13958\H,0,1.761591,-2.103015,-0.204429\H,0,0.847921,-5.005205,0.261717
 \H,0,3.803607,-2.620314,-0.306033\H,0,6.130123,-3.406058,-0.381941\H,0
 ,7.126812,-7.049961,0.053065\H,0,4.814265,-7.447591,0.293847\H,0,2.468
 062,-6.670633,0.371215\\Version=ES64L-G16RevA.03\State=2-A\HF=-2039.29
 4877\S2=0.803405\S2-1=0.\S2A=0.752208\RMSD=2.281e-09\Dipole=-3.2066614
 ,-0.0333131,-0.2477097\Quadrupole=-118.2053081,69.7395908,48.4657173,-
 0.2464195,2.6280783,-2.8013316\PG=C01 [X(C35H26B1F2N3O4)]\\@


 MISERY NO LONGER LOVES COMPANY.  NOWADAYS IT INSISTS ON IT.

                                              -- BAKER'S LAW
 Job cpu time:       1 days  8 hours 58 minutes  1.8 seconds.
 Elapsed time:       0 days  0 hours 31 minutes 16.5 seconds.
 File lengths (MBytes):  RWF=   3324 Int=      0 D2E=      0 Chk=    216 Scr=      1
 Normal termination of Gaussian 16 at Sat Oct 25 05:09:33 2025.
