 Entering Gaussian System, Link 0=g16
 Input=BNP_NO2_NO2_sp.gjf
 Output=BNP_NO2_NO2_sp.log
 Initial command:
 /public/software/gauss/g16/l1.exe "/public/home/baiding/1028_sp/tmp_BNP_NO2_NO2_sp_1538822/Gau-51660.inp" -scrdir="/public/home/baiding/1028_sp/tmp_BNP_NO2_NO2_sp_1538822/"
 Entering Link 1 = /public/software/gauss/g16/l1.exe PID=     51661.
  
 Copyright (c) 1988,1990,1992,1993,1995,1998,2003,2009,2016,
            Gaussian, Inc.  All Rights Reserved.
  
 This is part of the Gaussian(R) 16 program.  It is based on
 the Gaussian(R) 09 system (copyright 2009, Gaussian, Inc.),
 the Gaussian(R) 03 system (copyright 2003, Gaussian, Inc.),
 the Gaussian(R) 98 system (copyright 1998, Gaussian, Inc.),
 the Gaussian(R) 94 system (copyright 1995, Gaussian, Inc.),
 the Gaussian 92(TM) system (copyright 1992, Gaussian, Inc.),
 the Gaussian 90(TM) system (copyright 1990, Gaussian, Inc.),
 the Gaussian 88(TM) system (copyright 1988, Gaussian, Inc.),
 the Gaussian 86(TM) system (copyright 1986, Carnegie Mellon
 University), and the Gaussian 82(TM) system (copyright 1983,
 Carnegie Mellon University). Gaussian is a federally registered
 trademark of Gaussian, Inc.
  
 This software contains proprietary and confidential information,
 including trade secrets, belonging to Gaussian, Inc.
  
 This software is provided under written license and may be
 used, copied, transmitted, or stored only in accord with that
 written license.
  
 The following legend is applicable only to US Government
 contracts under FAR:
  
                    RESTRICTED RIGHTS LEGEND
  
 Use, reproduction and disclosure by the US Government is
 subject to restrictions as set forth in subparagraphs (a)
 and (c) of the Commercial Computer Software - Restricted
 Rights clause in FAR 52.227-19.
  
 Gaussian, Inc.
 340 Quinnipiac St., Bldg. 40, Wallingford CT 06492
  
  
 ---------------------------------------------------------------
 Warning -- This program may not be used in any manner that
 competes with the business of Gaussian, Inc. or will provide
 assistance to any competitor of Gaussian, Inc.  The licensee
 of this program is prohibited from giving any competitor of
 Gaussian, Inc. access to this program.  By using this program,
 the user acknowledges that Gaussian, Inc. is engaged in the
 business of creating and licensing software in the field of
 computational chemistry and represents and warrants to the
 licensee that it is not a competitor of Gaussian, Inc. and that
 it will not use this program in any manner prohibited above.
 ---------------------------------------------------------------
  

 Cite this work as:
 Gaussian 16, Revision A.03,
 M. J. Frisch, G. W. Trucks, H. B. Schlegel, G. E. Scuseria, 
 M. A. Robb, J. R. Cheeseman, G. Scalmani, V. Barone, 
 G. A. Petersson, H. Nakatsuji, X. Li, M. Caricato, A. V. Marenich, 
 J. Bloino, B. G. Janesko, R. Gomperts, B. Mennucci, H. P. Hratchian, 
 J. V. Ortiz, A. F. Izmaylov, J. L. Sonnenberg, D. Williams-Young, 
 F. Ding, F. Lipparini, F. Egidi, J. Goings, B. Peng, A. Petrone, 
 T. Henderson, D. Ranasinghe, V. G. Zakrzewski, J. Gao, N. Rega, 
 G. Zheng, W. Liang, M. Hada, M. Ehara, K. Toyota, R. Fukuda, 
 J. Hasegawa, M. Ishida, T. Nakajima, Y. Honda, O. Kitao, H. Nakai, 
 T. Vreven, K. Throssell, J. A. Montgomery, Jr., J. E. Peralta, 
 F. Ogliaro, M. J. Bearpark, J. J. Heyd, E. N. Brothers, K. N. Kudin, 
 V. N. Staroverov, T. A. Keith, R. Kobayashi, J. Normand, 
 K. Raghavachari, A. P. Rendell, J. C. Burant, S. S. Iyengar, 
 J. Tomasi, M. Cossi, J. M. Millam, M. Klene, C. Adamo, R. Cammi, 
 J. W. Ochterski, R. L. Martin, K. Morokuma, O. Farkas, 
 J. B. Foresman, and D. J. Fox, Gaussian, Inc., Wallingford CT, 2016.
 
 ******************************************
 Gaussian 16:  ES64L-G16RevA.03 25-Dec-2016
                28-Oct-2025 
 ******************************************
 %nprocshared=64
 Will use up to   64 processors via shared memory.
 %mem=230GB
 %chk=BNP_NO2_NO2_sp.chk
 ----------------------------------------------
 #p M062X/DEF2TZVPP scrf=(solvent=water) em=GD3
 ----------------------------------------------
 1/38=1,172=1/1;
 2/12=2,17=6,18=5,40=1/2;
 3/5=44,7=202,11=2,25=1,30=1,70=2201,72=1,74=-55,124=31/1,2,3;
 4//1;
 5/5=2,38=5,53=1/2;
 6/7=2,8=2,9=2,10=2,28=1/1;
 99/5=1,9=1/99;
 Leave Link    1 at Tue Oct 28 20:54:46 2025, MaxMem= 30870077440 cpu:              19.4 elap:               0.3
 (Enter /public/software/gauss/g16/l101.exe)
 ----------------------------------
 Energy calculation for BNP_NO2_NO2
 ----------------------------------
 Symbolic Z-matrix:
 Charge =  0 Multiplicity = 1
 C                    -4.32906   3.10518  -0.11588 
 C                    -2.92569   2.58413  -0.06689 
 C                    -1.79557   3.38098  -0.08229 
 C                    -0.65025   2.54613  -0.0367 
 C                     0.74018   2.91978  -0.04295 
 C                     1.1705    4.20514   0.01995 
 C                     2.55907   4.64298   0.00357 
 C                     3.65658   3.75238  -0.05039 
 C                     4.95748   4.2248   -0.06615 
 C                     5.17843   5.60648  -0.02784 
 N                     6.54066   6.10377  -0.04524 
 O                     7.4703    5.28647  -0.09262 
 O                     6.72678   7.32797  -0.01227 
 C                     4.12161   6.51822   0.02779 
 C                     2.82424   6.02997   0.04403 
 N                    -1.06212   1.24594  -0.00025 
 C                    -2.45597   1.22351  -0.01355 
 C                    -3.14823   0.00011  -0.00856 
 C                    -4.64243   0.00014  -0.01439 
 C                    -5.34812   0.00012   1.19794 
 C                    -6.73891   0.0001    1.20337 
 C                    -7.40972   0.00012  -0.01938 
 N                    -8.87073   0.0001   -0.02201 
 O                    -9.45719   0.00051  -1.10902 
 O                    -9.46106  -0.00033   1.06291 
 C                    -6.73441   0.00013  -1.23964 
 C                    -5.3438    0.00014  -1.22913 
 C                    -2.45605  -1.22336  -0.01383 
 C                    -2.92587  -2.58392  -0.0671 
 C                    -4.32927  -3.10489  -0.11614 
 C                    -1.7958   -3.38088  -0.08238 
 C                    -0.65044  -2.54613  -0.03682 
 C                     0.73999  -2.91982  -0.0431 
 C                     1.17027  -4.20518   0.02007 
 C                     2.55882  -4.64307   0.00369 
 C                     2.82394  -6.03008   0.04404 
 C                     4.12129  -6.51837   0.02776 
 C                     5.17815  -5.60666  -0.02783 
 N                     6.54035  -6.10399  -0.0453 
 O                     7.47002  -5.28672  -0.09302 
 O                     6.72644  -7.32819  -0.01204 
 C                     4.95725  -4.22496  -0.06599 
 C                     3.65636  -3.7525   -0.05017 
 N                    -1.06221  -1.24589  -0.0005 
 B                    -0.1705   -0.00007   0.25044 
 F                     0.30223  -0.00022   1.56739 
 F                     0.91845   0.       -0.63458 
 H                    -4.86097   2.76429  -1.0093 
 H                    -4.91578   2.78378   0.74977 
 H                    -4.31165   4.19778  -0.12813 
 H                    -1.78328   4.46047  -0.13901 
 H                     1.45452   2.10849  -0.1162 
 H                     0.43809   5.0058    0.08851 
 H                     3.49144   2.68148  -0.07773 
 H                     5.79671   3.54244  -0.10685 
 H                     4.32      7.58184   0.05749 
 H                     1.9931    6.72663   0.08714 
 H                    -4.8072    0.00013   2.1378 
 H                    -7.29407   0.00009   2.1324 
 H                    -7.28614   0.00013  -2.1707 
 H                    -4.79945   0.00012  -2.16699 
 H                    -4.86118  -2.76395  -1.00954 
 H                    -4.31193  -4.19749  -0.1284 
 H                    -4.91596  -2.78348   0.74953 
 H                    -1.78357  -4.46036  -0.13914 
 H                     1.45433  -2.10856  -0.11659 
 H                     0.43783  -5.00579   0.08886 
 H                     1.99278  -6.72672   0.08711 
 H                     4.31966  -7.58199   0.05736 
 H                     5.79649  -3.54262  -0.1066 
 H                     3.49125  -2.68159  -0.07735 
 
 ITRead=  0  0  0  0  0  0  0  0  0  0  0  0  0  0  0  0  0  0  0  0
 ITRead=  0  0  0  0  0  0  0  0  0  0  0  0  0  0  0  0  0  0  0  0
 ITRead=  0  0  0  0  0  0  0  0  0  0  0  0  0  0  0  0  0  0  0  0
 ITRead=  0  0  0  0  0  0  0  0  0  0  0
 MicOpt= -1 -1 -1 -1 -1 -1 -1 -1 -1 -1 -1 -1 -1 -1 -1 -1 -1 -1 -1 -1
 MicOpt= -1 -1 -1 -1 -1 -1 -1 -1 -1 -1 -1 -1 -1 -1 -1 -1 -1 -1 -1 -1
 MicOpt= -1 -1 -1 -1 -1 -1 -1 -1 -1 -1 -1 -1 -1 -1 -1 -1 -1 -1 -1 -1
 MicOpt= -1 -1 -1 -1 -1 -1 -1 -1 -1 -1 -1
 NAtoms=     71 NQM=       71 NQMF=       0 NMMI=      0 NMMIF=      0
                NMic=       0 NMicF=      0.
                    Isotopes and Nuclear Properties:
 (Nuclear quadrupole moments (NQMom) in fm**2, nuclear magnetic moments (NMagM)
  in nuclear magnetons)

  Atom         1           2           3           4           5           6           7           8           9          10
 IAtWgt=          12          12          12          12          12          12          12          12          12          12
 AtmWgt=  12.0000000  12.0000000  12.0000000  12.0000000  12.0000000  12.0000000  12.0000000  12.0000000  12.0000000  12.0000000
 NucSpn=           0           0           0           0           0           0           0           0           0           0
 AtZEff=  -0.0000000  -0.0000000  -0.0000000  -0.0000000  -0.0000000  -0.0000000  -0.0000000  -0.0000000  -0.0000000  -0.0000000
 NQMom=    0.0000000   0.0000000   0.0000000   0.0000000   0.0000000   0.0000000   0.0000000   0.0000000   0.0000000   0.0000000
 NMagM=    0.0000000   0.0000000   0.0000000   0.0000000   0.0000000   0.0000000   0.0000000   0.0000000   0.0000000   0.0000000
 AtZNuc=   6.0000000   6.0000000   6.0000000   6.0000000   6.0000000   6.0000000   6.0000000   6.0000000   6.0000000   6.0000000

  Atom        11          12          13          14          15          16          17          18          19          20
 IAtWgt=          14          16          16          12          12          14          12          12          12          12
 AtmWgt=  14.0030740  15.9949146  15.9949146  12.0000000  12.0000000  14.0030740  12.0000000  12.0000000  12.0000000  12.0000000
 NucSpn=           2           0           0           0           0           2           0           0           0           0
 AtZEff=  -0.0000000  -0.0000000  -0.0000000  -0.0000000  -0.0000000  -0.0000000  -0.0000000  -0.0000000  -0.0000000  -0.0000000
 NQMom=    2.0440000   0.0000000   0.0000000   0.0000000   0.0000000   2.0440000   0.0000000   0.0000000   0.0000000   0.0000000
 NMagM=    0.4037610   0.0000000   0.0000000   0.0000000   0.0000000   0.4037610   0.0000000   0.0000000   0.0000000   0.0000000
 AtZNuc=   7.0000000   8.0000000   8.0000000   6.0000000   6.0000000   7.0000000   6.0000000   6.0000000   6.0000000   6.0000000

  Atom        21          22          23          24          25          26          27          28          29          30
 IAtWgt=          12          12          14          16          16          12          12          12          12          12
 AtmWgt=  12.0000000  12.0000000  14.0030740  15.9949146  15.9949146  12.0000000  12.0000000  12.0000000  12.0000000  12.0000000
 NucSpn=           0           0           2           0           0           0           0           0           0           0
 AtZEff=  -0.0000000  -0.0000000  -0.0000000  -0.0000000  -0.0000000  -0.0000000  -0.0000000  -0.0000000  -0.0000000  -0.0000000
 NQMom=    0.0000000   0.0000000   2.0440000   0.0000000   0.0000000   0.0000000   0.0000000   0.0000000   0.0000000   0.0000000
 NMagM=    0.0000000   0.0000000   0.4037610   0.0000000   0.0000000   0.0000000   0.0000000   0.0000000   0.0000000   0.0000000
 AtZNuc=   6.0000000   6.0000000   7.0000000   8.0000000   8.0000000   6.0000000   6.0000000   6.0000000   6.0000000   6.0000000

  Atom        31          32          33          34          35          36          37          38          39          40
 IAtWgt=          12          12          12          12          12          12          12          12          14          16
 AtmWgt=  12.0000000  12.0000000  12.0000000  12.0000000  12.0000000  12.0000000  12.0000000  12.0000000  14.0030740  15.9949146
 NucSpn=           0           0           0           0           0           0           0           0           2           0
 AtZEff=  -0.0000000  -0.0000000  -0.0000000  -0.0000000  -0.0000000  -0.0000000  -0.0000000  -0.0000000  -0.0000000  -0.0000000
 NQMom=    0.0000000   0.0000000   0.0000000   0.0000000   0.0000000   0.0000000   0.0000000   0.0000000   2.0440000   0.0000000
 NMagM=    0.0000000   0.0000000   0.0000000   0.0000000   0.0000000   0.0000000   0.0000000   0.0000000   0.4037610   0.0000000
 AtZNuc=   6.0000000   6.0000000   6.0000000   6.0000000   6.0000000   6.0000000   6.0000000   6.0000000   7.0000000   8.0000000

  Atom        41          42          43          44          45          46          47          48          49          50
 IAtWgt=          16          12          12          14          11          19          19           1           1           1
 AtmWgt=  15.9949146  12.0000000  12.0000000  14.0030740  11.0093053  18.9984033  18.9984033   1.0078250   1.0078250   1.0078250
 NucSpn=           0           0           0           2           3           1           1           1           1           1
 AtZEff=  -0.0000000  -0.0000000  -0.0000000  -0.0000000  -0.0000000  -0.0000000  -0.0000000  -0.0000000  -0.0000000  -0.0000000
 NQMom=    0.0000000   0.0000000   0.0000000   2.0440000   4.0590000   0.0000000   0.0000000   0.0000000   0.0000000   0.0000000
 NMagM=    0.0000000   0.0000000   0.0000000   0.4037610   2.6886370   2.6288670   2.6288670   2.7928460   2.7928460   2.7928460
 AtZNuc=   8.0000000   6.0000000   6.0000000   7.0000000   5.0000000   9.0000000   9.0000000   1.0000000   1.0000000   1.0000000

  Atom        51          52          53          54          55          56          57          58          59          60
 IAtWgt=           1           1           1           1           1           1           1           1           1           1
 AtmWgt=   1.0078250   1.0078250   1.0078250   1.0078250   1.0078250   1.0078250   1.0078250   1.0078250   1.0078250   1.0078250
 NucSpn=           1           1           1           1           1           1           1           1           1           1
 AtZEff=  -0.0000000  -0.0000000  -0.0000000  -0.0000000  -0.0000000  -0.0000000  -0.0000000  -0.0000000  -0.0000000  -0.0000000
 NQMom=    0.0000000   0.0000000   0.0000000   0.0000000   0.0000000   0.0000000   0.0000000   0.0000000   0.0000000   0.0000000
 NMagM=    2.7928460   2.7928460   2.7928460   2.7928460   2.7928460   2.7928460   2.7928460   2.7928460   2.7928460   2.7928460
 AtZNuc=   1.0000000   1.0000000   1.0000000   1.0000000   1.0000000   1.0000000   1.0000000   1.0000000   1.0000000   1.0000000

  Atom        61          62          63          64          65          66          67          68          69          70
 IAtWgt=           1           1           1           1           1           1           1           1           1           1
 AtmWgt=   1.0078250   1.0078250   1.0078250   1.0078250   1.0078250   1.0078250   1.0078250   1.0078250   1.0078250   1.0078250
 NucSpn=           1           1           1           1           1           1           1           1           1           1
 AtZEff=  -0.0000000  -0.0000000  -0.0000000  -0.0000000  -0.0000000  -0.0000000  -0.0000000  -0.0000000  -0.0000000  -0.0000000
 NQMom=    0.0000000   0.0000000   0.0000000   0.0000000   0.0000000   0.0000000   0.0000000   0.0000000   0.0000000   0.0000000
 NMagM=    2.7928460   2.7928460   2.7928460   2.7928460   2.7928460   2.7928460   2.7928460   2.7928460   2.7928460   2.7928460
 AtZNuc=   1.0000000   1.0000000   1.0000000   1.0000000   1.0000000   1.0000000   1.0000000   1.0000000   1.0000000   1.0000000

  Atom        71
 IAtWgt=           1
 AtmWgt=   1.0078250
 NucSpn=           1
 AtZEff=  -0.0000000
 NQMom=    0.0000000
 NMagM=    2.7928460
 AtZNuc=   1.0000000
 Leave Link  101 at Tue Oct 28 20:54:46 2025, MaxMem= 30870077440 cpu:               3.9 elap:               0.1
 (Enter /public/software/gauss/g16/l202.exe)
 Stoichiometry    C33H24BF2N5O6
 Framework group  C1[X(C33H24BF2N5O6)]
 Deg. of freedom   207
 Full point group                 C1      NOp   1
 Largest Abelian subgroup         C1      NOp   1
 Largest concise Abelian subgroup C1      NOp   1
                         Standard orientation:                         
 ---------------------------------------------------------------------
 Center     Atomic      Atomic             Coordinates (Angstroms)
 Number     Number       Type             X           Y           Z
 ---------------------------------------------------------------------
      1          6           0        4.329057   -3.105183   -0.115881
      2          6           0        2.925689   -2.584128   -0.066891
      3          6           0        1.795570   -3.380982   -0.082292
      4          6           0        0.650248   -2.546133   -0.036696
      5          6           0       -0.740180   -2.919775   -0.042950
      6          6           0       -1.170503   -4.205139    0.019945
      7          6           0       -2.559071   -4.642976    0.003570
      8          6           0       -3.656579   -3.752377   -0.050392
      9          6           0       -4.957480   -4.224796   -0.066151
     10          6           0       -5.178431   -5.606484   -0.027842
     11          7           0       -6.540656   -6.103773   -0.045236
     12          8           0       -7.470304   -5.286470   -0.092615
     13          8           0       -6.726776   -7.327973   -0.012272
     14          6           0       -4.121606   -6.518222    0.027794
     15          6           0       -2.824238   -6.029970    0.044028
     16          7           0        1.062120   -1.245937   -0.000251
     17          6           0        2.455965   -1.223508   -0.013553
     18          6           0        3.148234   -0.000106   -0.008561
     19          6           0        4.642429   -0.000143   -0.014389
     20          6           0        5.348122   -0.000119    1.197944
     21          6           0        6.738911   -0.000104    1.203368
     22          6           0        7.409717   -0.000116   -0.019377
     23          7           0        8.870730   -0.000099   -0.022006
     24          8           0        9.457189   -0.000511   -1.109021
     25          8           0        9.461058    0.000330    1.062907
     26          6           0        6.734414   -0.000134   -1.239642
     27          6           0        5.343802   -0.000135   -1.229126
     28          6           0        2.456050    1.223363   -0.013829
     29          6           0        2.925872    2.583920   -0.067104
     30          6           0        4.329274    3.104893   -0.116143
     31          6           0        1.795801    3.380882   -0.082380
     32          6           0        0.650437    2.546133   -0.036818
     33          6           0       -0.739985    2.919824   -0.043098
     34          6           0       -1.170271    4.205182    0.020073
     35          6           0       -2.558822    4.643072    0.003690
     36          6           0       -2.823944    6.030077    0.044044
     37          6           0       -4.121295    6.518369    0.027755
     38          6           0       -5.178153    5.606660   -0.027826
     39          7           0       -6.540354    6.103986   -0.045300
     40          8           0       -7.470020    5.286724   -0.093019
     41          8           0       -6.726443    7.328188   -0.012038
     42          6           0       -4.957245    4.224962   -0.065994
     43          6           0       -3.656359    3.752500   -0.050174
     44          7           0        1.062209    1.245885   -0.000498
     45          5           0        0.170503    0.000067    0.250435
     46          9           0       -0.302225    0.000220    1.567387
     47          9           0       -0.918446    0.000000   -0.634578
     48          1           0        4.860967   -2.764286   -1.009296
     49          1           0        4.915777   -2.783782    0.749768
     50          1           0        4.311649   -4.197781   -0.128129
     51          1           0        1.783276   -4.460465   -0.139013
     52          1           0       -1.454518   -2.108489   -0.116195
     53          1           0       -0.438091   -5.005797    0.088507
     54          1           0       -3.491442   -2.681478   -0.077726
     55          1           0       -5.796708   -3.542435   -0.106845
     56          1           0       -4.320002   -7.581840    0.057488
     57          1           0       -1.993097   -6.726632    0.087139
     58          1           0        4.807203   -0.000125    2.137799
     59          1           0        7.294066   -0.000093    2.132396
     60          1           0        7.286139   -0.000130   -2.170701
     61          1           0        4.799447   -0.000122   -2.166986
     62          1           0        4.861178    2.763951   -1.009542
     63          1           0        4.311932    4.197493   -0.128403
     64          1           0        4.915956    2.783476    0.749528
     65          1           0        1.783573    4.460364   -0.139137
     66          1           0       -1.454326    2.108560   -0.116588
     67          1           0       -0.437826    5.005793    0.088858
     68          1           0       -1.992780    6.726715    0.087110
     69          1           0       -4.319662    7.581994    0.057355
     70          1           0       -5.796491    3.542619   -0.106599
     71          1           0       -3.491249    2.681593   -0.077346
 ---------------------------------------------------------------------
 Rotational constants (GHZ):           0.0520149           0.0334180           0.0206576
 Leave Link  202 at Tue Oct 28 20:54:46 2025, MaxMem= 30870077440 cpu:               0.2 elap:               0.0
 (Enter /public/software/gauss/g16/l301.exe)
 Standard basis: def2TZVPP (5D, 7F)
 Ernie: Thresh=  0.10000D-02 Tol=  0.10000D-05 Strict=F.
 There are  2052 symmetry adapted cartesian basis functions of A   symmetry.
 There are  1793 symmetry adapted basis functions of A   symmetry.
  1793 basis functions,  2805 primitive gaussians,  2052 cartesian basis functions
   164 alpha electrons      164 beta electrons
       nuclear repulsion energy      5183.6185077050 Hartrees.
 IExCor= 4336 DFT=T Ex+Corr=M062X ExCW=0 ScaHFX=  0.540000
 ScaDFX=  1.000000  1.000000  1.000000  1.000000 ScalE2=  1.000000  1.000000
 IRadAn=      5 IRanWt=     -1 IRanGd=            0 ICorTp=0 IEmpDi=131
 NAtoms=   71 NActive=   71 NUniq=   71 SFac= 1.00D+00 NAtFMM=   60 NAOKFM=T Big=T
 Integral buffers will be    131072 words long.
 Raffenetti 2 integral format.
 Two-electron integral symmetry is turned on.
 R6Disp:  Grimme-D3 Dispersion energy=       -0.0057783909 Hartrees.
 Nuclear repulsion after empirical dispersion term =     5183.6127293141 Hartrees.
 ------------------------------------------------------------------------------
 Polarizable Continuum Model (PCM)
 =================================
 Model                : PCM.
 Atomic radii         : UFF (Universal Force Field).
 Polarization charges : Total charges.
 Charge compensation  : None.
 Solution method      : On-the-fly selection.
 Cavity type          : Scaled VdW (van der Waals Surface) (Alpha=1.100).
 Cavity algorithm     : GePol (No added spheres)
                        Default sphere list used, NSphG=   71.
                        Lebedev-Laikov grids with approx.  5.0 points / Ang**2.
                        Smoothing algorithm: York/Karplus (Gamma=1.0000).
                        Polarization charges: spherical gaussians, with
                                              point-specific exponents (IZeta= 3).
                        Self-potential: point-specific (ISelfS= 7).
                        Self-field    : sphere-specific E.n sum rule (ISelfD= 2).
 Solvent              : Water, Eps=  78.355300 Eps(inf)=   1.777849
 ------------------------------------------------------------------------------
 GePol: Number of generator spheres                  =      71
 GePol: Total number of spheres                      =      71
 GePol: Number of exposed spheres                    =      71 (100.00%)
 GePol: Number of points                             =    5481
 GePol: Average weight of points                     =       0.13
 GePol: Minimum weight of points                     =   0.34D-11
 GePol: Maximum weight of points                     =    0.20577
 GePol: Number of points with low weight             =     338
 GePol: Fraction of low-weight points (<1% of avg)   =       6.17%
 GePol: Cavity surface area                          =    686.224 Ang**2
 GePol: Cavity volume                                =    789.243 Ang**3
 Leave Link  301 at Tue Oct 28 20:54:46 2025, MaxMem= 30870077440 cpu:               3.6 elap:               0.1
 (Enter /public/software/gauss/g16/l302.exe)
 NPDir=0 NMtPBC=     1 NCelOv=     1 NCel=       1 NClECP=     1 NCelD=      1
         NCelK=      1 NCelE2=     1 NClLst=     1 CellRange=     0.0.
 One-electron integrals computed using PRISM.
 One-electron integral symmetry used in STVInt
   1 Symmetry operations used in ECPInt.
 ECPInt:  NShTT=  218791 NPrTT=  642384 LenC2=  133578 LenP2D=  260625.
 LDataN:  DoStor=T MaxTD1= 6 Len=  172
 NBasis=  1793 RedAO= T EigKep=  3.63D-06  NBF=  1793
 NBsUse=  1793 1.00D-06 EigRej= -1.00D+00 NBFU=  1793
 Precomputing XC quadrature grid using
 IXCGrd= 4 IRadAn=           5 IRanWt=          -1 IRanGd=           0 AccXCQ= 0.00D+00.
 Generated NRdTot=       0 NPtTot=           0 NUsed=           0 NTot=          32
 NSgBfM=  1805  1805  1805  1805  1805 MxSgAt=    71 MxSgA2=    71.
 Leave Link  302 at Tue Oct 28 20:54:55 2025, MaxMem= 30870077440 cpu:             556.6 elap:               8.7
 (Enter /public/software/gauss/g16/l303.exe)
 DipDrv:  MaxL=1.
 Leave Link  303 at Tue Oct 28 20:54:55 2025, MaxMem= 30870077440 cpu:              26.5 elap:               0.5
 (Enter /public/software/gauss/g16/l401.exe)
 ExpMin= 6.06D-02 ExpMax= 3.55D+04 ExpMxC= 1.21D+03 IAcc=3 IRadAn=         5 AccDes= 0.00D+00
 Harris functional with IExCor= 1009 and IRadAn=       5 diagonalized for initial guess.
 HarFok:  IExCor= 1009 AccDes= 0.00D+00 IRadAn=         5 IDoV= 1 UseB2=F ITyADJ=14
 ICtDFT=  3500011 ScaDFX=  1.000000  1.000000  1.000000  1.000000
 FoFCou: FMM=F IPFlag=           0 FMFlag=      100000 FMFlg1=        2001
         NFxFlg=           0 DoJE=T BraDBF=F KetDBF=T FulRan=T
         wScrn=  0.000000 ICntrl=       500 IOpCl=  0 I1Cent=   200000004 NGrid=           0
         NMat0=    1 NMatS0=      1 NMatT0=    0 NMatD0=    1 NMtDS0=    0 NMtDT0=    0
 Petite list used in FoFCou.
 Harris En= -2220.41776282018    
 JPrj=0 DoOrth=F DoCkMO=F.
 Leave Link  401 at Tue Oct 28 20:55:05 2025, MaxMem= 30870077440 cpu:             599.2 elap:               9.4
 (Enter /public/software/gauss/g16/l502.exe)
 Integral symmetry usage will be decided dynamically.
 Closed shell SCF:
 Using DIIS extrapolation, IDIIS=  1040.
 NGot= 30870077440 LenX= 30861507565 LenY= 30857294809
 Requested convergence on RMS density matrix=1.00D-08 within 128 cycles.
 Requested convergence on MAX density matrix=1.00D-06.
 Requested convergence on             energy=1.00D-06.
 No special actions if energy rises.
 Fock matrices will be formed incrementally for  20 cycles.

 Cycle   1  Pass 1  IDiag  1:
 FoFJK:  IHMeth= 1 ICntrl=       0 DoSepK=F KAlg= 0 I1Cent=           0 FoldK=F
 IRaf= 570000000 NMat=       1 IRICut=       1 DoRegI=T DoRafI=F ISym2E= 0 IDoP0=0 IntGTp=1.
 FoFCou: FMM=T IPFlag=           0 FMFlag=      100000 FMFlg1=        2001
         NFxFlg=           0 DoJE=F BraDBF=F KetDBF=F FulRan=T
         wScrn=  0.000000 ICntrl=         0 IOpCl=  0 I1Cent=           0 NGrid=           0
         NMat0=    1 NMatS0=      1 NMatT0=    0 NMatD0=    1 NMtDS0=    0 NMtDT0=    0
 Symmetry not used in FoFCou.
 FMM levels:  10  Number of levels for PrismC:   9
 Inv3:  Mode=1 IEnd=    90124083.
 Iteration    1 A*A^-1 deviation from unit magnitude is 1.18D-14 for   5477.
 Iteration    1 A*A^-1 deviation from orthogonality  is 4.93D-15 for   5451   1496.
 Iteration    1 A^-1*A deviation from unit magnitude is 1.15D-14 for   5477.
 Iteration    1 A^-1*A deviation from orthogonality  is 3.65D-15 for   5470   1550.
 E= -2220.35663657651    
 DIIS: error= 2.66D-02 at cycle   1 NSaved=   1.
 NSaved= 1 IEnMin= 1 EnMin= -2220.35663657651     IErMin= 1 ErrMin= 2.66D-02
 ErrMax= 2.66D-02  0.00D+00 EMaxC= 1.00D-01 BMatC= 1.66D+00 BMatP= 1.66D+00
 IDIUse=3 WtCom= 7.34D-01 WtEn= 2.66D-01
 Coeff-Com:  0.100D+01
 Coeff-En:   0.100D+01
 Coeff:      0.100D+01
 Gap=     0.124 Goal=   None    Shift=    0.000
 GapD=    0.124 DampG=1.000 DampE=0.500 DampFc=0.5000 IDamp=-1.
 Damping current iteration by 5.00D-01
 RMSDP=1.31D-03 MaxDP=9.13D-02              OVMax= 2.62D-01

 Cycle   2  Pass 1  IDiag  1:
 RMSU=  6.53D-04    CP:  9.88D-01
 E= -2220.87524907960     Delta-E=       -0.518612503085 Rises=F Damp=T
 DIIS: error= 7.02D-03 at cycle   2 NSaved=   2.
 NSaved= 2 IEnMin= 2 EnMin= -2220.87524907960     IErMin= 2 ErrMin= 7.02D-03
 ErrMax= 7.02D-03  0.00D+00 EMaxC= 1.00D-01 BMatC= 1.76D-01 BMatP= 1.66D+00
 IDIUse=3 WtCom= 9.30D-01 WtEn= 7.02D-02
 Coeff-Com:  0.266D-01 0.973D+00
 Coeff-En:   0.699D-01 0.930D+00
 Coeff:      0.296D-01 0.970D+00
 Gap=     0.164 Goal=   None    Shift=    0.000
 RMSDP=6.05D-04 MaxDP=5.45D-02 DE=-5.19D-01 OVMax= 1.98D-01

 Cycle   3  Pass 1  IDiag  1:
 RMSU=  5.44D-04    CP:  9.68D-01  1.39D+00
 E= -2221.46438121836     Delta-E=       -0.589132138764 Rises=F Damp=F
 DIIS: error= 8.47D-03 at cycle   3 NSaved=   3.
 NSaved= 3 IEnMin= 3 EnMin= -2221.46438121836     IErMin= 2 ErrMin= 7.02D-03
 ErrMax= 8.47D-03  0.00D+00 EMaxC= 1.00D-01 BMatC= 8.25D-02 BMatP= 1.76D-01
 IDIUse=3 WtCom= 9.15D-01 WtEn= 8.47D-02
 Coeff-Com: -0.839D-01 0.413D+00 0.671D+00
 Coeff-En:   0.000D+00 0.000D+00 0.100D+01
 Coeff:     -0.768D-01 0.378D+00 0.699D+00
 Gap=     0.130 Goal=   None    Shift=    0.000
 RMSDP=1.68D-04 MaxDP=2.39D-02 DE=-5.89D-01 OVMax= 5.28D-02

 Cycle   4  Pass 1  IDiag  1:
 RMSU=  1.66D-04    CP:  9.69D-01  1.39D+00  9.58D-01
 E= -2221.51816656888     Delta-E=       -0.053785350512 Rises=F Damp=F
 DIIS: error= 2.36D-03 at cycle   4 NSaved=   4.
 NSaved= 4 IEnMin= 4 EnMin= -2221.51816656888     IErMin= 4 ErrMin= 2.36D-03
 ErrMax= 2.36D-03  0.00D+00 EMaxC= 1.00D-01 BMatC= 1.12D-02 BMatP= 8.25D-02
 IDIUse=3 WtCom= 9.76D-01 WtEn= 2.36D-02
 Coeff-Com: -0.267D-01 0.756D-01 0.322D+00 0.629D+00
 Coeff-En:   0.000D+00 0.000D+00 0.796D-01 0.920D+00
 Coeff:     -0.261D-01 0.738D-01 0.316D+00 0.636D+00
 Gap=     0.132 Goal=   None    Shift=    0.000
 RMSDP=5.66D-05 MaxDP=4.87D-03 DE=-5.38D-02 OVMax= 1.21D-02

 Cycle   5  Pass 1  IDiag  1:
 RMSU=  4.52D-05    CP:  9.68D-01  1.39D+00  9.78D-01  8.06D-01
 E= -2221.52685843872     Delta-E=       -0.008691869841 Rises=F Damp=F
 DIIS: error= 5.87D-04 at cycle   5 NSaved=   5.
 NSaved= 5 IEnMin= 5 EnMin= -2221.52685843872     IErMin= 5 ErrMin= 5.87D-04
 ErrMax= 5.87D-04  0.00D+00 EMaxC= 1.00D-01 BMatC= 4.48D-04 BMatP= 1.12D-02
 IDIUse=3 WtCom= 9.94D-01 WtEn= 5.87D-03
 Coeff-Com: -0.739D-02 0.129D-01 0.106D+00 0.277D+00 0.611D+00
 Coeff-En:   0.000D+00 0.000D+00 0.000D+00 0.000D+00 0.100D+01
 Coeff:     -0.735D-02 0.128D-01 0.106D+00 0.276D+00 0.613D+00
 Gap=     0.132 Goal=   None    Shift=    0.000
 RMSDP=1.41D-05 MaxDP=1.13D-03 DE=-8.69D-03 OVMax= 4.39D-03

 Cycle   6  Pass 1  IDiag  1:
 RMSU=  1.30D-05    CP:  9.67D-01  1.39D+00  9.78D-01  8.24D-01  9.02D-01
 E= -2221.52724876477     Delta-E=       -0.000390326057 Rises=F Damp=F
 DIIS: error= 1.97D-04 at cycle   6 NSaved=   6.
 NSaved= 6 IEnMin= 6 EnMin= -2221.52724876477     IErMin= 6 ErrMin= 1.97D-04
 ErrMax= 1.97D-04  0.00D+00 EMaxC= 1.00D-01 BMatC= 2.86D-05 BMatP= 4.48D-04
 IDIUse=3 WtCom= 9.98D-01 WtEn= 1.97D-03
 Coeff-Com: -0.628D-03-0.815D-03 0.139D-01 0.475D-01 0.226D+00 0.714D+00
 Coeff-En:   0.000D+00 0.000D+00 0.000D+00 0.000D+00 0.000D+00 0.100D+01
 Coeff:     -0.627D-03-0.813D-03 0.139D-01 0.475D-01 0.226D+00 0.714D+00
 Gap=     0.133 Goal=   None    Shift=    0.000
 RMSDP=6.01D-06 MaxDP=9.38D-04 DE=-3.90D-04 OVMax= 2.61D-03

 Cycle   7  Pass 1  IDiag  1:
 RMSU=  5.50D-06    CP:  9.68D-01  1.39D+00  9.80D-01  8.21D-01  9.42D-01
                    CP:  9.42D-01
 E= -2221.52728245220     Delta-E=       -0.000033687426 Rises=F Damp=F
 DIIS: error= 4.87D-05 at cycle   7 NSaved=   7.
 NSaved= 7 IEnMin= 7 EnMin= -2221.52728245220     IErMin= 7 ErrMin= 4.87D-05
 ErrMax= 4.87D-05  0.00D+00 EMaxC= 1.00D-01 BMatC= 5.39D-06 BMatP= 2.86D-05
 IDIUse=1 WtCom= 1.00D+00 WtEn= 0.00D+00
 Coeff-Com:  0.884D-03-0.249D-02-0.103D-01-0.218D-01 0.107D-01 0.318D+00
 Coeff-Com:  0.705D+00
 Coeff:      0.884D-03-0.249D-02-0.103D-01-0.218D-01 0.107D-01 0.318D+00
 Coeff:      0.705D+00
 Gap=     0.133 Goal=   None    Shift=    0.000
 RMSDP=2.93D-06 MaxDP=2.66D-04 DE=-3.37D-05 OVMax= 1.40D-03

 Cycle   8  Pass 1  IDiag  1:
 RMSU=  2.02D-06    CP:  9.68D-01  1.39D+00  9.80D-01  8.27D-01  9.76D-01
                    CP:  1.02D+00  1.01D+00
 E= -2221.52728999809     Delta-E=       -0.000007545893 Rises=F Damp=F
 DIIS: error= 3.65D-05 at cycle   8 NSaved=   8.
 NSaved= 8 IEnMin= 8 EnMin= -2221.52728999809     IErMin= 8 ErrMin= 3.65D-05
 ErrMax= 3.65D-05  0.00D+00 EMaxC= 1.00D-01 BMatC= 9.27D-07 BMatP= 5.39D-06
 IDIUse=1 WtCom= 1.00D+00 WtEn= 0.00D+00
 Coeff-Com:  0.475D-03-0.974D-03-0.659D-02-0.174D-01-0.290D-01 0.349D-01
 Coeff-Com:  0.327D+00 0.692D+00
 Coeff:      0.475D-03-0.974D-03-0.659D-02-0.174D-01-0.290D-01 0.349D-01
 Coeff:      0.327D+00 0.692D+00
 Gap=     0.133 Goal=   None    Shift=    0.000
 RMSDP=1.13D-06 MaxDP=1.19D-04 DE=-7.55D-06 OVMax= 6.82D-04

 Cycle   9  Pass 1  IDiag  1:
 RMSU=  8.01D-07    CP:  9.68D-01  1.39D+00  9.80D-01  8.27D-01  9.81D-01
                    CP:  1.04D+00  1.13D+00  1.00D+00
 E= -2221.52729142737     Delta-E=       -0.000001429277 Rises=F Damp=F
 DIIS: error= 7.60D-06 at cycle   9 NSaved=   9.
 NSaved= 9 IEnMin= 9 EnMin= -2221.52729142737     IErMin= 9 ErrMin= 7.60D-06
 ErrMax= 7.60D-06  0.00D+00 EMaxC= 1.00D-01 BMatC= 9.87D-08 BMatP= 9.27D-07
 IDIUse=1 WtCom= 1.00D+00 WtEn= 0.00D+00
 Coeff-Com:  0.644D-04-0.450D-04-0.109D-02-0.394D-02-0.116D-01-0.258D-01
 Coeff-Com:  0.339D-01 0.254D+00 0.755D+00
 Coeff:      0.644D-04-0.450D-04-0.109D-02-0.394D-02-0.116D-01-0.258D-01
 Coeff:      0.339D-01 0.254D+00 0.755D+00
 Gap=     0.133 Goal=   None    Shift=    0.000
 RMSDP=4.37D-07 MaxDP=4.27D-05 DE=-1.43D-06 OVMax= 3.32D-04

 Cycle  10  Pass 1  IDiag  1:
 RMSU=  3.45D-07    CP:  9.68D-01  1.39D+00  9.80D-01  8.27D-01  9.83D-01
                    CP:  1.05D+00  1.15D+00  1.09D+00  9.94D-01
 E= -2221.52729163075     Delta-E=       -0.000000203384 Rises=F Damp=F
 DIIS: error= 7.38D-06 at cycle  10 NSaved=  10.
 NSaved=10 IEnMin=10 EnMin= -2221.52729163075     IErMin=10 ErrMin= 7.38D-06
 ErrMax= 7.38D-06  0.00D+00 EMaxC= 1.00D-01 BMatC= 2.89D-08 BMatP= 9.87D-08
 IDIUse=1 WtCom= 1.00D+00 WtEn= 0.00D+00
 Coeff-Com: -0.556D-04 0.154D-03 0.685D-03 0.131D-02 0.178D-03-0.177D-01
 Coeff-Com: -0.462D-01-0.215D-01 0.378D+00 0.705D+00
 Coeff:     -0.556D-04 0.154D-03 0.685D-03 0.131D-02 0.178D-03-0.177D-01
 Coeff:     -0.462D-01-0.215D-01 0.378D+00 0.705D+00
 Gap=     0.133 Goal=   None    Shift=    0.000
 RMSDP=2.21D-07 MaxDP=3.18D-05 DE=-2.03D-07 OVMax= 1.73D-04

 Cycle  11  Pass 1  IDiag  1:
 RMSU=  1.36D-07    CP:  9.68D-01  1.39D+00  9.80D-01  8.27D-01  9.84D-01
                    CP:  1.05D+00  1.18D+00  1.12D+00  1.13D+00  1.00D+00
 E= -2221.52729167944     Delta-E=       -0.000000048686 Rises=F Damp=F
 DIIS: error= 1.38D-06 at cycle  11 NSaved=  11.
 NSaved=11 IEnMin=11 EnMin= -2221.52729167944     IErMin=11 ErrMin= 1.38D-06
 ErrMax= 1.38D-06  0.00D+00 EMaxC= 1.00D-01 BMatC= 3.46D-09 BMatP= 2.89D-08
 IDIUse=1 WtCom= 1.00D+00 WtEn= 0.00D+00
 Coeff-Com: -0.351D-04 0.783D-04 0.463D-03 0.116D-02 0.174D-02-0.496D-02
 Coeff-Com: -0.274D-01-0.495D-01 0.797D-01 0.315D+00 0.684D+00
 Coeff:     -0.351D-04 0.783D-04 0.463D-03 0.116D-02 0.174D-02-0.496D-02
 Coeff:     -0.274D-01-0.495D-01 0.797D-01 0.315D+00 0.684D+00
 Gap=     0.133 Goal=   None    Shift=    0.000
 RMSDP=7.21D-08 MaxDP=7.20D-06 DE=-4.87D-08 OVMax= 5.19D-05

 Cycle  12  Pass 1  IDiag  1:
 RMSU=  4.46D-08    CP:  9.68D-01  1.39D+00  9.80D-01  8.27D-01  9.84D-01
                    CP:  1.05D+00  1.18D+00  1.14D+00  1.16D+00  1.10D+00
                    CP:  1.04D+00
 E= -2221.52729168488     Delta-E=       -0.000000005443 Rises=F Damp=F
 DIIS: error= 7.02D-07 at cycle  12 NSaved=  12.
 NSaved=12 IEnMin=12 EnMin= -2221.52729168488     IErMin=12 ErrMin= 7.02D-07
 ErrMax= 7.02D-07  0.00D+00 EMaxC= 1.00D-01 BMatC= 5.49D-10 BMatP= 3.46D-09
 IDIUse=1 WtCom= 1.00D+00 WtEn= 0.00D+00
 Coeff-Com: -0.787D-05 0.139D-04 0.103D-03 0.324D-03 0.777D-03 0.345D-03
 Coeff-Com: -0.554D-02-0.197D-01-0.159D-01 0.279D-01 0.311D+00 0.701D+00
 Coeff:     -0.787D-05 0.139D-04 0.103D-03 0.324D-03 0.777D-03 0.345D-03
 Coeff:     -0.554D-02-0.197D-01-0.159D-01 0.279D-01 0.311D+00 0.701D+00
 Gap=     0.133 Goal=   None    Shift=    0.000
 RMSDP=2.67D-08 MaxDP=4.06D-06 DE=-5.44D-09 OVMax= 1.98D-05

 Cycle  13  Pass 1  IDiag  1:
 RMSU=  1.74D-08    CP:  9.68D-01  1.39D+00  9.80D-01  8.27D-01  9.84D-01
                    CP:  1.05D+00  1.18D+00  1.14D+00  1.18D+00  1.12D+00
                    CP:  1.13D+00  1.04D+00
 E= -2221.52729168526     Delta-E=       -0.000000000377 Rises=F Damp=F
 DIIS: error= 2.05D-07 at cycle  13 NSaved=  13.
 NSaved=13 IEnMin=13 EnMin= -2221.52729168526     IErMin=13 ErrMin= 2.05D-07
 ErrMax= 2.05D-07  0.00D+00 EMaxC= 1.00D-01 BMatC= 8.04D-11 BMatP= 5.49D-10
 IDIUse=1 WtCom= 1.00D+00 WtEn= 0.00D+00
 Coeff-Com:  0.764D-06-0.333D-05-0.136D-04-0.244D-05 0.145D-03 0.819D-03
 Coeff-Com:  0.112D-02-0.230D-02-0.144D-01-0.316D-01 0.442D-01 0.325D+00
 Coeff-Com:  0.677D+00
 Coeff:      0.764D-06-0.333D-05-0.136D-04-0.244D-05 0.145D-03 0.819D-03
 Coeff:      0.112D-02-0.230D-02-0.144D-01-0.316D-01 0.442D-01 0.325D+00
 Coeff:      0.677D+00
 Gap=     0.133 Goal=   None    Shift=    0.000
 RMSDP=1.04D-08 MaxDP=1.09D-06 DE=-3.77D-10 OVMax= 5.25D-06

 Cycle  14  Pass 1  IDiag  1:
 RMSU=  6.86D-09    CP:  9.68D-01  1.39D+00  9.80D-01  8.27D-01  9.84D-01
                    CP:  1.05D+00  1.18D+00  1.14D+00  1.18D+00  1.12D+00
                    CP:  1.16D+00  1.12D+00  9.22D-01
 E= -2221.52729168589     Delta-E=       -0.000000000629 Rises=F Damp=F
 DIIS: error= 5.83D-08 at cycle  14 NSaved=  14.
 NSaved=14 IEnMin=14 EnMin= -2221.52729168589     IErMin=14 ErrMin= 5.83D-08
 ErrMax= 5.83D-08  0.00D+00 EMaxC= 1.00D-01 BMatC= 9.03D-12 BMatP= 8.04D-11
 IDIUse=1 WtCom= 1.00D+00 WtEn= 0.00D+00
 Coeff-Com:  0.125D-05-0.307D-05-0.193D-04-0.422D-04-0.330D-04 0.314D-03
 Coeff-Com:  0.121D-02 0.153D-02-0.379D-02-0.199D-01-0.255D-01 0.539D-01
 Coeff-Com:  0.283D+00 0.710D+00
 Coeff:      0.125D-05-0.307D-05-0.193D-04-0.422D-04-0.330D-04 0.314D-03
 Coeff:      0.121D-02 0.153D-02-0.379D-02-0.199D-01-0.255D-01 0.539D-01
 Coeff:      0.283D+00 0.710D+00
 Gap=     0.133 Goal=   None    Shift=    0.000
 RMSDP=3.85D-09 MaxDP=3.12D-07 DE=-6.29D-10 OVMax= 1.58D-06

 Error on total polarization charges =  0.02177
 SCF Done:  E(RM062X) =  -2221.52729169     A.U. after   14 cycles
            NFock= 14  Conv=0.39D-08     -V/T= 2.0052
 KE= 2.209958796318D+03 PE=-1.554934847925D+04 EE= 5.934249661933D+03
 Leave Link  502 at Tue Oct 28 21:08:31 2025, MaxMem= 30870077440 cpu:           50646.5 elap:             806.6
 (Enter /public/software/gauss/g16/l601.exe)
 Copying SCF densities to generalized density rwf, IOpCl= 0 IROHF=0.

 **********************************************************************

            Population analysis using the SCF density.

 **********************************************************************

 Orbital symmetries:
       Occupied  (A) (A) (A) (A) (A) (A) (A) (A) (A) (A) (A) (A)
                 (A) (A) (A) (A) (A) (A) (A) (A) (A) (A) (A) (A)
                 (A) (A) (A) (A) (A) (A) (A) (A) (A) (A) (A) (A)
                 (A) (A) (A) (A) (A) (A) (A) (A) (A) (A) (A) (A)
                 (A) (A) (A) (A) (A) (A) (A) (A) (A) (A) (A) (A)
                 (A) (A) (A) (A) (A) (A) (A) (A) (A) (A) (A) (A)
                 (A) (A) (A) (A) (A) (A) (A) (A) (A) (A) (A) (A)
                 (A) (A) (A) (A) (A) (A) (A) (A) (A) (A) (A) (A)
                 (A) (A) (A) (A) (A) (A) (A) (A) (A) (A) (A) (A)
                 (A) (A) (A) (A) (A) (A) (A) (A) (A) (A) (A) (A)
                 (A) (A) (A) (A) (A) (A) (A) (A) (A) (A) (A) (A)
                 (A) (A) (A) (A) (A) (A) (A) (A) (A) (A) (A) (A)
                 (A) (A) (A) (A) (A) (A) (A) (A) (A) (A) (A) (A)
                 (A) (A) (A) (A) (A) (A) (A) (A)
       Virtual   (A) (A) (A) (A) (A) (A) (A) (A) (A) (A) (A) (A)
                 (A) (A) (A) (A) (A) (A) (A) (A) (A) (A) (A) (A)
                 (A) (A) (A) (A) (A) (A) (A) (A) (A) (A) (A) (A)
                 (A) (A) (A) (A) (A) (A) (A) (A) (A) (A) (A) (A)
                 (A) (A) (A) (A) (A) (A) (A) (A) (A) (A) (A) (A)
                 (A) (A) (A) (A) (A) (A) (A) (A) (A) (A) (A) (A)
                 (A) (A) (A) (A) (A) (A) (A) (A) (A) (A) (A) (A)
                 (A) (A) (A) (A) (A) (A) (A) (A) (A) (A) (A) (A)
                 (A) (A) (A) (A) (A) (A) (A) (A) (A) (A) (A) (A)
                 (A) (A) (A) (A) (A) (A) (A) (A) (A) (A) (A) (A)
                 (A) (A) (A) (A) (A) (A) (A) (A) (A) (A) (A) (A)
                 (A) (A) (A) (A) (A) (A) (A) (A) (A) (A) (A) (A)
                 (A) (A) (A) (A) (A) (A) (A) (A) (A) (A) (A) (A)
                 (A) (A) (A) (A) (A) (A) (A) (A) (A) (A) (A) (A)
                 (A) (A) (A) (A) (A) (A) (A) (A) (A) (A) (A) (A)
                 (A) (A) (A) (A) (A) (A) (A) (A) (A) (A) (A) (A)
                 (A) (A) (A) (A) (A) (A) (A) (A) (A) (A) (A) (A)
                 (A) (A) (A) (A) (A) (A) (A) (A) (A) (A) (A) (A)
                 (A) (A) (A) (A) (A) (A) (A) (A) (A) (A) (A) (A)
                 (A) (A) (A) (A) (A) (A) (A) (A) (A) (A) (A) (A)
                 (A) (A) (A) (A) (A) (A) (A) (A) (A) (A) (A) (A)
                 (A) (A) (A) (A) (A) (A) (A) (A) (A) (A) (A) (A)
                 (A) (A) (A) (A) (A) (A) (A) (A) (A) (A) (A) (A)
                 (A) (A) (A) (A) (A) (A) (A) (A) (A) (A) (A) (A)
                 (A) (A) (A) (A) (A) (A) (A) (A) (A) (A) (A) (A)
                 (A) (A) (A) (A) (A) (A) (A) (A) (A) (A) (A) (A)
                 (A) (A) (A) (A) (A) (A) (A) (A) (A) (A) (A) (A)
                 (A) (A) (A) (A) (A) (A) (A) (A) (A) (A) (A) (A)
                 (A) (A) (A) (A) (A) (A) (A) (A) (A) (A) (A) (A)
                 (A) (A) (A) (A) (A) (A) (A) (A) (A) (A) (A) (A)
                 (A) (A) (A) (A) (A) (A) (A) (A) (A) (A) (A) (A)
                 (A) (A) (A) (A) (A) (A) (A) (A) (A) (A) (A) (A)
                 (A) (A) (A) (A) (A) (A) (A) (A) (A) (A) (A) (A)
                 (A) (A) (A) (A) (A) (A) (A) (A) (A) (A) (A) (A)
                 (A) (A) (A) (A) (A) (A) (A) (A) (A) (A) (A) (A)
                 (A) (A) (A) (A) (A) (A) (A) (A) (A) (A) (A) (A)
                 (A) (A) (A) (A) (A) (A) (A) (A) (A) (A) (A) (A)
                 (A) (A) (A) (A) (A) (A) (A) (A) (A) (A) (A) (A)
                 (A) (A) (A) (A) (A) (A) (A) (A) (A) (A) (A) (A)
                 (A) (A) (A) (A) (A) (A) (A) (A) (A) (A) (A) (A)
                 (A) (A) (A) (A) (A) (A) (A) (A) (A) (A) (A) (A)
                 (A) (A) (A) (A) (A) (A) (A) (A) (A) (A) (A) (A)
                 (A) (A) (A) (A) (A) (A) (A) (A) (A) (A) (A) (A)
                 (A) (A) (A) (A) (A) (A) (A) (A) (A) (A) (A) (A)
                 (A) (A) (A) (A) (A) (A) (A) (A) (A) (A) (A) (A)
                 (A) (A) (A) (A) (A) (A) (A) (A) (A) (A) (A) (A)
                 (A) (A) (A) (A) (A) (A) (A) (A) (A) (A) (A) (A)
                 (A) (A) (A) (A) (A) (A) (A) (A) (A) (A) (A) (A)
                 (A) (A) (A) (A) (A) (A) (A) (A) (A) (A) (A) (A)
                 (A) (A) (A) (A) (A) (A) (A) (A) (A) (A) (A) (A)
                 (A) (A) (A) (A) (A) (A) (A) (A) (A) (A) (A) (A)
                 (A) (A) (A) (A) (A) (A) (A) (A) (A) (A) (A) (A)
                 (A) (A) (A) (A) (A) (A) (A) (A) (A) (A) (A) (A)
                 (A) (A) (A) (A) (A) (A) (A) (A) (A) (A) (A) (A)
                 (A) (A) (A) (A) (A) (A) (A) (A) (A) (A) (A) (A)
                 (A) (A) (A) (A) (A) (A) (A) (A) (A) (A) (A) (A)
                 (A) (A) (A) (A) (A) (A) (A) (A) (A) (A) (A) (A)
                 (A) (A) (A) (A) (A) (A) (A) (A) (A) (A) (A) (A)
                 (A) (A) (A) (A) (A) (A) (A) (A) (A) (A) (A) (A)
                 (A) (A) (A) (A) (A) (A) (A) (A) (A) (A) (A) (A)
                 (A) (A) (A) (A) (A) (A) (A) (A) (A) (A) (A) (A)
                 (A) (A) (A) (A) (A) (A) (A) (A) (A) (A) (A) (A)
                 (A) (A) (A) (A) (A) (A) (A) (A) (A) (A) (A) (A)
                 (A) (A) (A) (A) (A) (A) (A) (A) (A) (A) (A) (A)
                 (A) (A) (A) (A) (A) (A) (A) (A) (A) (A) (A) (A)
                 (A) (A) (A) (A) (A) (A) (A) (A) (A) (A) (A) (A)
                 (A) (A) (A) (A) (A) (A) (A) (A) (A) (A) (A) (A)
                 (A) (A) (A) (A) (A) (A) (A) (A) (A) (A) (A) (A)
                 (A) (A) (A) (A) (A) (A) (A) (A) (A) (A) (A) (A)
                 (A) (A) (A) (A) (A) (A) (A) (A) (A) (A) (A) (A)
                 (A) (A) (A) (A) (A) (A) (A) (A) (A) (A) (A) (A)
                 (A) (A) (A) (A) (A) (A) (A) (A) (A) (A) (A) (A)
                 (A) (A) (A) (A) (A) (A) (A) (A) (A) (A) (A) (A)
                 (A) (A) (A) (A) (A) (A) (A) (A) (A) (A) (A) (A)
                 (A) (A) (A) (A) (A) (A) (A) (A) (A) (A) (A) (A)
                 (A) (A) (A) (A) (A) (A) (A) (A) (A) (A) (A) (A)
                 (A) (A) (A) (A) (A) (A) (A) (A) (A) (A) (A) (A)
                 (A) (A) (A) (A) (A) (A) (A) (A) (A) (A) (A) (A)
                 (A) (A) (A) (A) (A) (A) (A) (A) (A) (A) (A) (A)
                 (A) (A) (A) (A) (A) (A) (A) (A) (A) (A) (A) (A)
                 (A) (A) (A) (A) (A) (A) (A) (A) (A) (A) (A) (A)
                 (A) (A) (A) (A) (A) (A) (A) (A) (A) (A) (A) (A)
                 (A) (A) (A) (A) (A) (A) (A) (A) (A) (A) (A) (A)
                 (A) (A) (A) (A) (A) (A) (A) (A) (A) (A) (A) (A)
                 (A) (A) (A) (A) (A) (A) (A) (A) (A) (A) (A) (A)
                 (A) (A) (A) (A) (A) (A) (A) (A) (A) (A) (A) (A)
                 (A) (A) (A) (A) (A) (A) (A) (A) (A) (A) (A) (A)
                 (A) (A) (A) (A) (A) (A) (A) (A) (A) (A) (A) (A)
                 (A) (A) (A) (A) (A) (A) (A) (A) (A) (A) (A) (A)
                 (A) (A) (A) (A) (A) (A) (A) (A) (A) (A) (A) (A)
                 (A) (A) (A) (A) (A) (A) (A) (A) (A) (A) (A) (A)
                 (A) (A) (A) (A) (A) (A) (A) (A) (A) (A) (A) (A)
                 (A) (A) (A) (A) (A) (A) (A) (A) (A) (A) (A) (A)
                 (A) (A) (A) (A) (A) (A) (A) (A) (A) (A) (A) (A)
                 (A) (A) (A) (A) (A) (A) (A) (A) (A) (A) (A) (A)
                 (A) (A) (A) (A) (A) (A) (A) (A) (A) (A) (A) (A)
                 (A) (A) (A) (A) (A) (A) (A) (A) (A) (A) (A) (A)
                 (A) (A) (A) (A) (A) (A) (A) (A) (A) (A) (A) (A)
                 (A) (A) (A) (A) (A) (A) (A) (A) (A) (A) (A) (A)
                 (A) (A) (A) (A) (A) (A) (A) (A) (A) (A) (A) (A)
                 (A) (A) (A) (A) (A) (A) (A) (A) (A) (A) (A) (A)
                 (A) (A) (A) (A) (A) (A) (A) (A) (A) (A) (A) (A)
                 (A) (A) (A) (A) (A) (A) (A) (A) (A) (A) (A) (A)
                 (A) (A) (A) (A) (A) (A) (A) (A) (A) (A) (A) (A)
                 (A) (A) (A) (A) (A) (A) (A) (A) (A) (A) (A) (A)
                 (A) (A) (A) (A) (A) (A) (A) (A) (A) (A) (A) (A)
                 (A) (A) (A) (A) (A) (A) (A) (A) (A) (A) (A) (A)
                 (A) (A) (A) (A) (A) (A) (A) (A) (A) (A) (A) (A)
                 (A) (A) (A) (A) (A) (A) (A) (A) (A) (A) (A) (A)
                 (A) (A) (A) (A) (A) (A) (A) (A) (A) (A) (A) (A)
                 (A) (A) (A) (A) (A) (A) (A) (A) (A) (A) (A) (A)
                 (A) (A) (A) (A) (A) (A) (A) (A) (A) (A) (A) (A)
                 (A) (A) (A) (A) (A) (A) (A) (A) (A) (A) (A) (A)
                 (A) (A) (A) (A) (A) (A) (A) (A) (A) (A) (A) (A)
                 (A) (A) (A) (A) (A) (A) (A) (A) (A) (A) (A) (A)
                 (A) (A) (A) (A) (A) (A) (A) (A) (A) (A) (A) (A)
                 (A) (A) (A) (A) (A) (A) (A) (A) (A) (A) (A) (A)
                 (A) (A) (A) (A) (A) (A) (A) (A) (A) (A) (A) (A)
                 (A) (A) (A) (A) (A) (A) (A) (A) (A) (A) (A) (A)
                 (A) (A) (A) (A) (A) (A) (A) (A) (A) (A) (A) (A)
                 (A) (A) (A) (A) (A) (A) (A) (A) (A) (A) (A) (A)
                 (A) (A) (A) (A) (A) (A) (A) (A) (A) (A) (A) (A)
                 (A) (A) (A) (A) (A) (A) (A) (A) (A) (A) (A) (A)
                 (A) (A) (A) (A) (A) (A) (A) (A) (A) (A) (A) (A)
                 (A) (A) (A) (A) (A) (A) (A) (A) (A) (A) (A) (A)
                 (A) (A) (A) (A) (A) (A) (A) (A) (A) (A) (A) (A)
                 (A) (A) (A) (A) (A) (A) (A) (A) (A) (A) (A) (A)
                 (A) (A) (A) (A) (A) (A) (A) (A) (A) (A) (A) (A)
                 (A) (A) (A) (A) (A) (A) (A) (A) (A) (A) (A) (A)
                 (A) (A) (A) (A) (A) (A) (A) (A) (A) (A) (A) (A)
                 (A) (A) (A) (A) (A) (A) (A) (A) (A) (A) (A) (A)
                 (A) (A) (A) (A) (A) (A) (A) (A) (A) (A) (A) (A)
                 (A) (A) (A) (A) (A) (A) (A) (A) (A) (A) (A) (A)
                 (A) (A) (A) (A) (A) (A) (A) (A) (A) (A) (A) (A)
                 (A) (A) (A) (A) (A) (A) (A) (A) (A) (A) (A) (A)
                 (A) (A) (A) (A) (A) (A) (A) (A) (A)
 The electronic state is 1-A.
 Alpha  occ. eigenvalues --  -25.21265 -25.20960 -19.68126 -19.68123 -19.67663
 Alpha  occ. eigenvalues --  -19.67663 -19.67654 -19.67654 -15.01601 -15.01172
 Alpha  occ. eigenvalues --  -15.01171 -14.79360 -14.79359 -10.62295 -10.61713
 Alpha  occ. eigenvalues --  -10.61713 -10.61255 -10.61205 -10.61204 -10.59928
 Alpha  occ. eigenvalues --  -10.59926 -10.59598 -10.58780 -10.58780 -10.58374
 Alpha  occ. eigenvalues --  -10.58370 -10.57856 -10.57856 -10.57845 -10.57845
 Alpha  occ. eigenvalues --  -10.57754 -10.57754 -10.57729 -10.57726 -10.57480
 Alpha  occ. eigenvalues --  -10.57479 -10.57194 -10.57193 -10.57145 -10.57145
 Alpha  occ. eigenvalues --  -10.57074 -10.57074 -10.55022 -10.55022 -10.54410
 Alpha  occ. eigenvalues --  -10.54410  -7.13944  -1.37133  -1.36504  -1.36503
 Alpha  occ. eigenvalues --   -1.33100  -1.29843  -1.18650  -1.17993  -1.17993
 Alpha  occ. eigenvalues --   -1.11545  -1.09633  -1.01388  -1.00675  -1.00671
 Alpha  occ. eigenvalues --   -0.96194  -0.94598  -0.94434  -0.92069  -0.91268
 Alpha  occ. eigenvalues --   -0.91194  -0.90074  -0.88495  -0.88088  -0.87598
 Alpha  occ. eigenvalues --   -0.87591  -0.84078  -0.83303  -0.81030  -0.80722
 Alpha  occ. eigenvalues --   -0.80223  -0.78575  -0.74865  -0.73007  -0.72972
 Alpha  occ. eigenvalues --   -0.72737  -0.71705  -0.70866  -0.70394  -0.68882
 Alpha  occ. eigenvalues --   -0.68028  -0.67059  -0.66349  -0.65941  -0.65905
 Alpha  occ. eigenvalues --   -0.65498  -0.65040  -0.63589  -0.63574  -0.63123
 Alpha  occ. eigenvalues --   -0.63122  -0.62308  -0.62148  -0.61855  -0.61147
 Alpha  occ. eigenvalues --   -0.61109  -0.59403  -0.58958  -0.58163  -0.58143
 Alpha  occ. eigenvalues --   -0.56060  -0.55783  -0.55346  -0.54884  -0.54405
 Alpha  occ. eigenvalues --   -0.54177  -0.53877  -0.53709  -0.52749  -0.52660
 Alpha  occ. eigenvalues --   -0.52433  -0.52118  -0.51950  -0.51710  -0.51307
 Alpha  occ. eigenvalues --   -0.50483  -0.50056  -0.49545  -0.48820  -0.48460
 Alpha  occ. eigenvalues --   -0.48459  -0.47876  -0.47818  -0.47740  -0.47381
 Alpha  occ. eigenvalues --   -0.47190  -0.47034  -0.46936  -0.45765  -0.45179
 Alpha  occ. eigenvalues --   -0.44701  -0.44411  -0.44199  -0.43880  -0.43122
 Alpha  occ. eigenvalues --   -0.42506  -0.42315  -0.41291  -0.41209  -0.41094
 Alpha  occ. eigenvalues --   -0.41027  -0.40882  -0.39921  -0.39901  -0.39840
 Alpha  occ. eigenvalues --   -0.39517  -0.39517  -0.39447  -0.39446  -0.36648
 Alpha  occ. eigenvalues --   -0.34322  -0.34273  -0.33912  -0.33910  -0.33015
 Alpha  occ. eigenvalues --   -0.32844  -0.31878  -0.30045  -0.24589
 Alpha virt. eigenvalues --   -0.11253  -0.08251  -0.07666  -0.06661  -0.02390
 Alpha virt. eigenvalues --   -0.01263  -0.01103  -0.00217   0.00005   0.01824
 Alpha virt. eigenvalues --    0.05062   0.05146   0.05441   0.06362   0.06639
 Alpha virt. eigenvalues --    0.07911   0.08258   0.08367   0.08994   0.09230
 Alpha virt. eigenvalues --    0.09354   0.09524   0.09679   0.10230   0.11428
 Alpha virt. eigenvalues --    0.11550   0.11788   0.11805   0.12086   0.12534
 Alpha virt. eigenvalues --    0.12616   0.12957   0.13287   0.13471   0.13716
 Alpha virt. eigenvalues --    0.14049   0.15118   0.15277   0.15320   0.15570
 Alpha virt. eigenvalues --    0.15759   0.16161   0.16776   0.17267   0.17288
 Alpha virt. eigenvalues --    0.17530   0.17573   0.17669   0.17730   0.17991
 Alpha virt. eigenvalues --    0.18008   0.18774   0.18873   0.19518   0.20241
 Alpha virt. eigenvalues --    0.20336   0.20513   0.20763   0.21033   0.21466
 Alpha virt. eigenvalues --    0.21592   0.22034   0.22247   0.22358   0.22456
 Alpha virt. eigenvalues --    0.22800   0.22935   0.23253   0.23432   0.23438
 Alpha virt. eigenvalues --    0.23576   0.23954   0.24209   0.24462   0.25000
 Alpha virt. eigenvalues --    0.25082   0.25685   0.26154   0.26340   0.26483
 Alpha virt. eigenvalues --    0.26505   0.26735   0.26846   0.27015   0.27416
 Alpha virt. eigenvalues --    0.27427   0.27644   0.27786   0.28243   0.28632
 Alpha virt. eigenvalues --    0.28810   0.28887   0.29202   0.29231   0.29591
 Alpha virt. eigenvalues --    0.29711   0.30107   0.30651   0.30751   0.30853
 Alpha virt. eigenvalues --    0.31164   0.31270   0.31331   0.32045   0.32585
 Alpha virt. eigenvalues --    0.32816   0.33132   0.33138   0.33297   0.33620
 Alpha virt. eigenvalues --    0.34209   0.34394   0.34463   0.34705   0.34711
 Alpha virt. eigenvalues --    0.34895   0.34899   0.35562   0.35662   0.35689
 Alpha virt. eigenvalues --    0.35850   0.35883   0.36372   0.36534   0.36581
 Alpha virt. eigenvalues --    0.36938   0.37058   0.37130   0.37742   0.37961
 Alpha virt. eigenvalues --    0.38085   0.38550   0.38856   0.38966   0.39166
 Alpha virt. eigenvalues --    0.39425   0.39687   0.39892   0.39953   0.40032
 Alpha virt. eigenvalues --    0.40473   0.40611   0.40888   0.41060   0.41135
 Alpha virt. eigenvalues --    0.41361   0.41572   0.41877   0.41948   0.42068
 Alpha virt. eigenvalues --    0.42478   0.42791   0.42891   0.43081   0.43413
 Alpha virt. eigenvalues --    0.43898   0.44091   0.44131   0.44177   0.44589
 Alpha virt. eigenvalues --    0.44843   0.45084   0.45140   0.45494   0.45900
 Alpha virt. eigenvalues --    0.46702   0.47025   0.47050   0.47139   0.47265
 Alpha virt. eigenvalues --    0.47307   0.47397   0.47779   0.48150   0.48556
 Alpha virt. eigenvalues --    0.48686   0.49014   0.49475   0.49561   0.50027
 Alpha virt. eigenvalues --    0.50169   0.50228   0.50546   0.50772   0.51034
 Alpha virt. eigenvalues --    0.51132   0.51331   0.51438   0.51685   0.51853
 Alpha virt. eigenvalues --    0.52039   0.52238   0.52302   0.52735   0.52758
 Alpha virt. eigenvalues --    0.52833   0.53174   0.53479   0.53726   0.53996
 Alpha virt. eigenvalues --    0.54483   0.54638   0.55280   0.55667   0.56038
 Alpha virt. eigenvalues --    0.56150   0.56220   0.56465   0.56553   0.56883
 Alpha virt. eigenvalues --    0.56944   0.57413   0.57559   0.57836   0.58327
 Alpha virt. eigenvalues --    0.58356   0.58774   0.58901   0.59170   0.59741
 Alpha virt. eigenvalues --    0.59916   0.60745   0.60860   0.60971   0.61566
 Alpha virt. eigenvalues --    0.61955   0.62054   0.62331   0.62827   0.62857
 Alpha virt. eigenvalues --    0.63136   0.63390   0.63499   0.63826   0.64055
 Alpha virt. eigenvalues --    0.64087   0.64498   0.64542   0.65126   0.65506
 Alpha virt. eigenvalues --    0.65540   0.65667   0.65876   0.66443   0.66508
 Alpha virt. eigenvalues --    0.66860   0.66971   0.67104   0.67349   0.67462
 Alpha virt. eigenvalues --    0.67841   0.67926   0.68168   0.68307   0.68888
 Alpha virt. eigenvalues --    0.68978   0.69032   0.69144   0.69169   0.69221
 Alpha virt. eigenvalues --    0.69755   0.69795   0.70161   0.70470   0.70840
 Alpha virt. eigenvalues --    0.71312   0.71665   0.72118   0.72156   0.72281
 Alpha virt. eigenvalues --    0.72285   0.72622   0.73178   0.73518   0.73733
 Alpha virt. eigenvalues --    0.74133   0.74182   0.74724   0.75064   0.75278
 Alpha virt. eigenvalues --    0.75567   0.75775   0.76167   0.76323   0.76531
 Alpha virt. eigenvalues --    0.76609   0.76653   0.77300   0.77320   0.77450
 Alpha virt. eigenvalues --    0.78004   0.78089   0.78519   0.79228   0.79251
 Alpha virt. eigenvalues --    0.79425   0.79601   0.80383   0.80395   0.80802
 Alpha virt. eigenvalues --    0.80830   0.81283   0.81828   0.82443   0.82463
 Alpha virt. eigenvalues --    0.82816   0.83278   0.83570   0.84477   0.84653
 Alpha virt. eigenvalues --    0.85195   0.85320   0.85831   0.85961   0.86132
 Alpha virt. eigenvalues --    0.86506   0.86846   0.87053   0.87844   0.88385
 Alpha virt. eigenvalues --    0.88605   0.89200   0.89221   0.89402   0.90345
 Alpha virt. eigenvalues --    0.90377   0.90541   0.90750   0.90936   0.91660
 Alpha virt. eigenvalues --    0.91875   0.92220   0.92284   0.92403   0.93797
 Alpha virt. eigenvalues --    0.93810   0.93890   0.94711   0.94854   0.95209
 Alpha virt. eigenvalues --    0.95652   0.95738   0.95952   0.96171   0.96881
 Alpha virt. eigenvalues --    0.97026   0.97087   0.97537   0.97545   0.97954
 Alpha virt. eigenvalues --    0.98888   0.98972   0.99084   0.99320   0.99740
 Alpha virt. eigenvalues --    0.99742   1.00184   1.00383   1.00464   1.00612
 Alpha virt. eigenvalues --    1.00801   1.00902   1.01659   1.01770   1.02202
 Alpha virt. eigenvalues --    1.02498   1.03016   1.03101   1.03438   1.04098
 Alpha virt. eigenvalues --    1.04475   1.04673   1.04693   1.04740   1.04950
 Alpha virt. eigenvalues --    1.05423   1.05680   1.06132   1.06520   1.06755
 Alpha virt. eigenvalues --    1.07440   1.07810   1.08075   1.08487   1.08719
 Alpha virt. eigenvalues --    1.09021   1.09406   1.09854   1.10622   1.11077
 Alpha virt. eigenvalues --    1.11240   1.11591   1.11727   1.11976   1.12100
 Alpha virt. eigenvalues --    1.12458   1.12607   1.12925   1.13645   1.13824
 Alpha virt. eigenvalues --    1.14113   1.14834   1.15071   1.15610   1.15950
 Alpha virt. eigenvalues --    1.16122   1.16582   1.16728   1.17591   1.17647
 Alpha virt. eigenvalues --    1.17826   1.17851   1.18342   1.18815   1.19141
 Alpha virt. eigenvalues --    1.19864   1.20289   1.20467   1.20595   1.20776
 Alpha virt. eigenvalues --    1.21320   1.21500   1.22008   1.22220   1.22669
 Alpha virt. eigenvalues --    1.23578   1.23586   1.24179   1.24232   1.24574
 Alpha virt. eigenvalues --    1.24848   1.25381   1.25521   1.25930   1.26504
 Alpha virt. eigenvalues --    1.26534   1.26704   1.27325   1.27437   1.27566
 Alpha virt. eigenvalues --    1.27857   1.28267   1.28387   1.28959   1.29386
 Alpha virt. eigenvalues --    1.29864   1.29970   1.30170   1.30368   1.31344
 Alpha virt. eigenvalues --    1.31464   1.31659   1.31981   1.32905   1.32906
 Alpha virt. eigenvalues --    1.33535   1.33596   1.34189   1.34239   1.35050
 Alpha virt. eigenvalues --    1.35359   1.35598   1.35615   1.36058   1.36339
 Alpha virt. eigenvalues --    1.36556   1.37095   1.37306   1.37658   1.37767
 Alpha virt. eigenvalues --    1.38426   1.38488   1.38725   1.39126   1.39310
 Alpha virt. eigenvalues --    1.39879   1.40661   1.41997   1.42253   1.43281
 Alpha virt. eigenvalues --    1.43757   1.43867   1.43890   1.43899   1.44033
 Alpha virt. eigenvalues --    1.44091   1.44545   1.45200   1.45323   1.45378
 Alpha virt. eigenvalues --    1.45703   1.45906   1.46267   1.46456   1.47336
 Alpha virt. eigenvalues --    1.47353   1.48030   1.48652   1.48682   1.49176
 Alpha virt. eigenvalues --    1.49482   1.49754   1.49830   1.50556   1.50865
 Alpha virt. eigenvalues --    1.51028   1.51218   1.51258   1.52251   1.52442
 Alpha virt. eigenvalues --    1.52672   1.52959   1.53070   1.54066   1.54094
 Alpha virt. eigenvalues --    1.54163   1.54634   1.54698   1.55292   1.55621
 Alpha virt. eigenvalues --    1.55844   1.56053   1.56400   1.56757   1.56938
 Alpha virt. eigenvalues --    1.57430   1.57556   1.57646   1.57818   1.58231
 Alpha virt. eigenvalues --    1.58582   1.58986   1.59142   1.59769   1.59785
 Alpha virt. eigenvalues --    1.60305   1.60715   1.61413   1.61909   1.62409
 Alpha virt. eigenvalues --    1.62505   1.62586   1.62710   1.63092   1.63524
 Alpha virt. eigenvalues --    1.63757   1.64148   1.64677   1.64704   1.65316
 Alpha virt. eigenvalues --    1.65347   1.65697   1.65889   1.66093   1.66609
 Alpha virt. eigenvalues --    1.66898   1.66916   1.67380   1.68218   1.68276
 Alpha virt. eigenvalues --    1.68492   1.68717   1.69643   1.69920   1.70098
 Alpha virt. eigenvalues --    1.71078   1.71141   1.71476   1.71826   1.72113
 Alpha virt. eigenvalues --    1.72123   1.72334   1.72450   1.73493   1.73751
 Alpha virt. eigenvalues --    1.74949   1.75077   1.75252   1.76478   1.76488
 Alpha virt. eigenvalues --    1.76984   1.77337   1.78349   1.78579   1.78743
 Alpha virt. eigenvalues --    1.78897   1.79115   1.79677   1.79849   1.80162
 Alpha virt. eigenvalues --    1.80420   1.80940   1.80945   1.81115   1.81888
 Alpha virt. eigenvalues --    1.82325   1.82995   1.83824   1.83937   1.84158
 Alpha virt. eigenvalues --    1.84647   1.85171   1.85465   1.85855   1.86158
 Alpha virt. eigenvalues --    1.86630   1.87523   1.87709   1.88252   1.88458
 Alpha virt. eigenvalues --    1.89635   1.89938   1.89971   1.90381   1.90618
 Alpha virt. eigenvalues --    1.91810   1.92463   1.92933   1.93384   1.95321
 Alpha virt. eigenvalues --    1.95376   1.95659   1.96403   1.96676   1.96943
 Alpha virt. eigenvalues --    1.97312   1.97978   1.98836   1.98940   1.99100
 Alpha virt. eigenvalues --    1.99804   2.00150   2.00220   2.00981   2.01251
 Alpha virt. eigenvalues --    2.01412   2.01836   2.01839   2.02538   2.02764
 Alpha virt. eigenvalues --    2.02976   2.03743   2.04312   2.04599   2.04809
 Alpha virt. eigenvalues --    2.05298   2.05351   2.05779   2.06600   2.07115
 Alpha virt. eigenvalues --    2.07393   2.08095   2.08232   2.08539   2.09213
 Alpha virt. eigenvalues --    2.09522   2.09896   2.10446   2.10601   2.11129
 Alpha virt. eigenvalues --    2.11456   2.11817   2.12607   2.12673   2.13315
 Alpha virt. eigenvalues --    2.14023   2.14036   2.14312   2.15288   2.15700
 Alpha virt. eigenvalues --    2.16462   2.17043   2.17055   2.17136   2.17744
 Alpha virt. eigenvalues --    2.18854   2.19327   2.19369   2.21629   2.21971
 Alpha virt. eigenvalues --    2.22052   2.22287   2.22432   2.22739   2.23152
 Alpha virt. eigenvalues --    2.23708   2.24419   2.24866   2.25609   2.25938
 Alpha virt. eigenvalues --    2.26329   2.26501   2.27162   2.27481   2.28205
 Alpha virt. eigenvalues --    2.29911   2.30118   2.30266   2.30553   2.30886
 Alpha virt. eigenvalues --    2.32452   2.32716   2.32991   2.34263   2.34379
 Alpha virt. eigenvalues --    2.34602   2.34671   2.34799   2.35579   2.35768
 Alpha virt. eigenvalues --    2.36470   2.37010   2.37315   2.37699   2.37820
 Alpha virt. eigenvalues --    2.38163   2.38221   2.38659   2.39228   2.39391
 Alpha virt. eigenvalues --    2.39717   2.40250   2.42531   2.43148   2.43750
 Alpha virt. eigenvalues --    2.45327   2.45492   2.46699   2.46812   2.48157
 Alpha virt. eigenvalues --    2.48677   2.49342   2.49889   2.50389   2.52523
 Alpha virt. eigenvalues --    2.52696   2.53574   2.53601   2.53823   2.54535
 Alpha virt. eigenvalues --    2.54991   2.55561   2.55916   2.56936   2.57647
 Alpha virt. eigenvalues --    2.58406   2.58687   2.59176   2.59706   2.59792
 Alpha virt. eigenvalues --    2.60995   2.61129   2.62255   2.62767   2.62971
 Alpha virt. eigenvalues --    2.63303   2.63988   2.64107   2.64457   2.65241
 Alpha virt. eigenvalues --    2.65533   2.65821   2.65937   2.66737   2.66780
 Alpha virt. eigenvalues --    2.66835   2.67823   2.68433   2.68877   2.69461
 Alpha virt. eigenvalues --    2.70099   2.70218   2.71119   2.71900   2.72102
 Alpha virt. eigenvalues --    2.72365   2.73022   2.73056   2.73325   2.73603
 Alpha virt. eigenvalues --    2.73912   2.74102   2.74136   2.74493   2.74794
 Alpha virt. eigenvalues --    2.75145   2.75468   2.76064   2.76190   2.76387
 Alpha virt. eigenvalues --    2.76447   2.76700   2.77401   2.77604   2.77639
 Alpha virt. eigenvalues --    2.78033   2.78264   2.78400   2.78468   2.78930
 Alpha virt. eigenvalues --    2.79429   2.79776   2.79914   2.80314   2.80564
 Alpha virt. eigenvalues --    2.81172   2.81331   2.81480   2.81830   2.81956
 Alpha virt. eigenvalues --    2.82094   2.82854   2.82897   2.83614   2.84170
 Alpha virt. eigenvalues --    2.84193   2.84682   2.85209   2.85412   2.85456
 Alpha virt. eigenvalues --    2.86498   2.86562   2.87123   2.87160   2.87168
 Alpha virt. eigenvalues --    2.87678   2.88132   2.88541   2.88576   2.88711
 Alpha virt. eigenvalues --    2.88805   2.89628   2.90117   2.90209   2.90603
 Alpha virt. eigenvalues --    2.90845   2.91073   2.91140   2.91311   2.91588
 Alpha virt. eigenvalues --    2.91676   2.91835   2.91903   2.92182   2.92324
 Alpha virt. eigenvalues --    2.92861   2.93248   2.94083   2.94424   2.94557
 Alpha virt. eigenvalues --    2.95035   2.95056   2.95283   2.95564   2.96252
 Alpha virt. eigenvalues --    2.96551   2.96823   2.96895   2.97986   2.98273
 Alpha virt. eigenvalues --    2.98555   2.98666   2.99304   2.99738   3.00261
 Alpha virt. eigenvalues --    3.00511   3.00748   3.00937   3.01302   3.01307
 Alpha virt. eigenvalues --    3.01627   3.01721   3.02070   3.02319   3.02339
 Alpha virt. eigenvalues --    3.02762   3.02775   3.02976   3.03207   3.03568
 Alpha virt. eigenvalues --    3.03755   3.04368   3.04658   3.04976   3.05279
 Alpha virt. eigenvalues --    3.05544   3.05971   3.06183   3.06806   3.06912
 Alpha virt. eigenvalues --    3.07211   3.07456   3.07583   3.07802   3.07988
 Alpha virt. eigenvalues --    3.08723   3.08997   3.09184   3.09405   3.09506
 Alpha virt. eigenvalues --    3.09575   3.09658   3.10156   3.10219   3.10657
 Alpha virt. eigenvalues --    3.10777   3.11200   3.11760   3.11813   3.12155
 Alpha virt. eigenvalues --    3.12724   3.12837   3.13188   3.13508   3.13765
 Alpha virt. eigenvalues --    3.14076   3.14312   3.14478   3.14686   3.15124
 Alpha virt. eigenvalues --    3.15175   3.15419   3.15579   3.16686   3.16762
 Alpha virt. eigenvalues --    3.17230   3.17503   3.17513   3.18163   3.18241
 Alpha virt. eigenvalues --    3.18940   3.19418   3.19826   3.19932   3.20384
 Alpha virt. eigenvalues --    3.20803   3.20862   3.20959   3.21187   3.21932
 Alpha virt. eigenvalues --    3.22055   3.22184   3.22346   3.22563   3.22624
 Alpha virt. eigenvalues --    3.22774   3.23515   3.23900   3.23995   3.24047
 Alpha virt. eigenvalues --    3.24702   3.24926   3.25388   3.25621   3.25696
 Alpha virt. eigenvalues --    3.26425   3.26555   3.27254   3.27418   3.27777
 Alpha virt. eigenvalues --    3.28191   3.28474   3.29265   3.29546   3.29669
 Alpha virt. eigenvalues --    3.29861   3.30159   3.30263   3.30762   3.30818
 Alpha virt. eigenvalues --    3.30854   3.30938   3.31302   3.31545   3.31840
 Alpha virt. eigenvalues --    3.32156   3.32214   3.32541   3.32811   3.33301
 Alpha virt. eigenvalues --    3.33625   3.33738   3.34684   3.35006   3.35034
 Alpha virt. eigenvalues --    3.35175   3.35623   3.36186   3.36214   3.37137
 Alpha virt. eigenvalues --    3.37637   3.37713   3.37808   3.38173   3.38361
 Alpha virt. eigenvalues --    3.38378   3.38685   3.40181   3.40290   3.40639
 Alpha virt. eigenvalues --    3.41117   3.41413   3.41551   3.41937   3.42382
 Alpha virt. eigenvalues --    3.42912   3.43132   3.43572   3.43607   3.44697
 Alpha virt. eigenvalues --    3.45444   3.45614   3.46132   3.46859   3.47475
 Alpha virt. eigenvalues --    3.47533   3.47846   3.48049   3.48169   3.48386
 Alpha virt. eigenvalues --    3.49012   3.49021   3.49210   3.49951   3.50084
 Alpha virt. eigenvalues --    3.50290   3.50708   3.50821   3.51269   3.51691
 Alpha virt. eigenvalues --    3.51892   3.52193   3.52268   3.52672   3.53306
 Alpha virt. eigenvalues --    3.53329   3.53464   3.54129   3.54274   3.54808
 Alpha virt. eigenvalues --    3.56103   3.56227   3.56276   3.57309   3.57627
 Alpha virt. eigenvalues --    3.57664   3.58144   3.58552   3.58581   3.59451
 Alpha virt. eigenvalues --    3.59598   3.59984   3.60313   3.60976   3.61390
 Alpha virt. eigenvalues --    3.61874   3.62041   3.62386   3.62771   3.63161
 Alpha virt. eigenvalues --    3.63237   3.63931   3.64569   3.64719   3.65366
 Alpha virt. eigenvalues --    3.65440   3.66011   3.66096   3.66661   3.67558
 Alpha virt. eigenvalues --    3.67871   3.68375   3.68540   3.69945   3.70252
 Alpha virt. eigenvalues --    3.70426   3.70490   3.70505   3.70974   3.71220
 Alpha virt. eigenvalues --    3.71581   3.71907   3.72181   3.72274   3.72705
 Alpha virt. eigenvalues --    3.73397   3.73614   3.73669   3.73791   3.74145
 Alpha virt. eigenvalues --    3.74623   3.74696   3.75749   3.76282   3.77154
 Alpha virt. eigenvalues --    3.77264   3.77797   3.77867   3.78557   3.78735
 Alpha virt. eigenvalues --    3.79629   3.79780   3.79830   3.80829   3.80978
 Alpha virt. eigenvalues --    3.81633   3.81829   3.82807   3.83002   3.83263
 Alpha virt. eigenvalues --    3.83670   3.84118   3.84132   3.84629   3.84835
 Alpha virt. eigenvalues --    3.85031   3.85557   3.85826   3.86282   3.87500
 Alpha virt. eigenvalues --    3.87597   3.87989   3.88478   3.88599   3.88712
 Alpha virt. eigenvalues --    3.88822   3.89175   3.89903   3.90103   3.90322
 Alpha virt. eigenvalues --    3.90747   3.90750   3.91680   3.91877   3.91956
 Alpha virt. eigenvalues --    3.92118   3.92483   3.93105   3.93246   3.93275
 Alpha virt. eigenvalues --    3.94567   3.94585   3.94987   3.95638   3.96129
 Alpha virt. eigenvalues --    3.96321   3.97104   3.97295   3.97558   3.98236
 Alpha virt. eigenvalues --    3.98289   3.99130   3.99514   3.99875   4.00292
 Alpha virt. eigenvalues --    4.00852   4.00982   4.01063   4.01486   4.02098
 Alpha virt. eigenvalues --    4.02104   4.02290   4.03043   4.03072   4.03185
 Alpha virt. eigenvalues --    4.03520   4.03694   4.04496   4.04792   4.04923
 Alpha virt. eigenvalues --    4.05082   4.05484   4.05895   4.05954   4.06315
 Alpha virt. eigenvalues --    4.06727   4.06740   4.07314   4.07772   4.08299
 Alpha virt. eigenvalues --    4.08705   4.08825   4.09150   4.09390   4.10069
 Alpha virt. eigenvalues --    4.10238   4.10740   4.11010   4.11468   4.11858
 Alpha virt. eigenvalues --    4.13075   4.13256   4.13847   4.13903   4.14622
 Alpha virt. eigenvalues --    4.14641   4.15081   4.15894   4.15969   4.16068
 Alpha virt. eigenvalues --    4.16826   4.17089   4.17547   4.18405   4.18636
 Alpha virt. eigenvalues --    4.19228   4.19815   4.20023   4.20113   4.20306
 Alpha virt. eigenvalues --    4.20494   4.20547   4.21144   4.21662   4.21669
 Alpha virt. eigenvalues --    4.21957   4.22918   4.23115   4.23199   4.23292
 Alpha virt. eigenvalues --    4.23693   4.23752   4.24239   4.24762   4.24869
 Alpha virt. eigenvalues --    4.25183   4.25601   4.26003   4.26764   4.27130
 Alpha virt. eigenvalues --    4.27161   4.27597   4.28041   4.28288   4.28363
 Alpha virt. eigenvalues --    4.28699   4.29639   4.29660   4.30126   4.30216
 Alpha virt. eigenvalues --    4.31588   4.31730   4.31936   4.32439   4.32781
 Alpha virt. eigenvalues --    4.33778   4.34321   4.35010   4.36473   4.37438
 Alpha virt. eigenvalues --    4.37871   4.38163   4.38606   4.40373   4.41382
 Alpha virt. eigenvalues --    4.41912   4.41980   4.42032   4.42176   4.42312
 Alpha virt. eigenvalues --    4.43425   4.44741   4.46024   4.46114   4.47353
 Alpha virt. eigenvalues --    4.48733   4.49005   4.49169   4.49530   4.49552
 Alpha virt. eigenvalues --    4.49936   4.50182   4.50744   4.51446   4.51750
 Alpha virt. eigenvalues --    4.51846   4.52141   4.52483   4.53241   4.54908
 Alpha virt. eigenvalues --    4.55774   4.57409   4.57640   4.58585   4.59029
 Alpha virt. eigenvalues --    4.59509   4.59975   4.60691   4.61550   4.62076
 Alpha virt. eigenvalues --    4.62956   4.62971   4.63452   4.63877   4.63899
 Alpha virt. eigenvalues --    4.63921   4.64616   4.65134   4.65443   4.65445
 Alpha virt. eigenvalues --    4.65976   4.66449   4.67401   4.67814   4.67907
 Alpha virt. eigenvalues --    4.68245   4.68968   4.69458   4.69549   4.69617
 Alpha virt. eigenvalues --    4.70349   4.70363   4.71856   4.72426   4.73116
 Alpha virt. eigenvalues --    4.73140   4.73247   4.73440   4.74107   4.74681
 Alpha virt. eigenvalues --    4.75708   4.75764   4.77259   4.77655   4.78942
 Alpha virt. eigenvalues --    4.79223   4.79361   4.79573   4.80900   4.81362
 Alpha virt. eigenvalues --    4.81929   4.82167   4.82242   4.83524   4.83671
 Alpha virt. eigenvalues --    4.84019   4.84276   4.85406   4.85846   4.86338
 Alpha virt. eigenvalues --    4.87243   4.88066   4.89293   4.90684   4.90956
 Alpha virt. eigenvalues --    4.91299   4.91629   4.92095   4.92876   4.93060
 Alpha virt. eigenvalues --    4.93297   4.93651   4.93785   4.94363   4.94750
 Alpha virt. eigenvalues --    4.95062   4.95880   4.96065   4.96143   4.97379
 Alpha virt. eigenvalues --    4.97627   4.98335   4.98377   5.00512   5.02571
 Alpha virt. eigenvalues --    5.02871   5.03196   5.03722   5.04416   5.04690
 Alpha virt. eigenvalues --    5.05526   5.05974   5.06018   5.06555   5.06795
 Alpha virt. eigenvalues --    5.07863   5.08331   5.08587   5.08843   5.09254
 Alpha virt. eigenvalues --    5.09750   5.10105   5.10552   5.10850   5.10956
 Alpha virt. eigenvalues --    5.11815   5.11950   5.12475   5.12666   5.13286
 Alpha virt. eigenvalues --    5.13921   5.14395   5.14396   5.14491   5.14612
 Alpha virt. eigenvalues --    5.14828   5.15239   5.15560   5.16518   5.18033
 Alpha virt. eigenvalues --    5.18310   5.19069   5.20104   5.20558   5.21183
 Alpha virt. eigenvalues --    5.21920   5.22964   5.23225   5.23377   5.23814
 Alpha virt. eigenvalues --    5.24668   5.24784   5.24959   5.25760   5.27854
 Alpha virt. eigenvalues --    5.28092   5.28510   5.28529   5.28867   5.28867
 Alpha virt. eigenvalues --    5.29140   5.29297   5.29384   5.30019   5.30859
 Alpha virt. eigenvalues --    5.31361   5.31782   5.31894   5.33146   5.33848
 Alpha virt. eigenvalues --    5.35190   5.36760   5.37072   5.37205   5.37443
 Alpha virt. eigenvalues --    5.38393   5.38768   5.39522   5.39727   5.40167
 Alpha virt. eigenvalues --    5.40196   5.40450   5.40794   5.42952   5.43227
 Alpha virt. eigenvalues --    5.43917   5.44039   5.44676   5.44913   5.49662
 Alpha virt. eigenvalues --    5.50778   5.51685   5.52299   5.52664   5.52781
 Alpha virt. eigenvalues --    5.53545   5.55562   5.56545   5.57047   5.57177
 Alpha virt. eigenvalues --    5.57721   5.57957   5.58333   5.58919   5.59049
 Alpha virt. eigenvalues --    5.60117   5.60222   5.60227   5.60441   5.60444
 Alpha virt. eigenvalues --    5.61532   5.63339   5.63663   5.64044   5.64230
 Alpha virt. eigenvalues --    5.65203   5.65626   5.67214   5.67520   5.69951
 Alpha virt. eigenvalues --    5.72209   5.72628   5.74921   5.75036   5.75057
 Alpha virt. eigenvalues --    5.76151   5.78860   5.79050   5.83710   5.84450
 Alpha virt. eigenvalues --    5.87525   5.87820   5.88879   5.89348   5.89810
 Alpha virt. eigenvalues --    5.91528   5.91530   5.91641   5.94133   5.96322
 Alpha virt. eigenvalues --    5.99151   6.02117   6.02435   6.07549   6.14195
 Alpha virt. eigenvalues --    6.14221   6.15330   6.15809   6.22212   6.22324
 Alpha virt. eigenvalues --    6.22324   6.24867   6.24868   6.25267   6.28032
 Alpha virt. eigenvalues --    6.28033   6.28053   6.34170   6.35269   6.35269
 Alpha virt. eigenvalues --    6.36116   6.36638   6.38422   6.40780   6.41119
 Alpha virt. eigenvalues --    6.41128   6.43111   6.43913   6.43926   6.53523
 Alpha virt. eigenvalues --    6.53827   6.75420   6.77472   6.77499   6.80731
 Alpha virt. eigenvalues --    6.80735   6.80736   6.83026   6.83026   6.83077
 Alpha virt. eigenvalues --    6.87164   6.87166   6.87405   6.93915   6.94204
 Alpha virt. eigenvalues --    6.96926   6.98515   6.98777   6.99744   7.04605
 Alpha virt. eigenvalues --    7.08380   7.08525   7.08534   7.10292   7.16493
 Alpha virt. eigenvalues --    7.20331   7.20336   7.20698   7.22951   7.23413
 Alpha virt. eigenvalues --    7.27357   7.32217   7.32221   7.33016   7.33852
 Alpha virt. eigenvalues --    7.34305   7.45288   7.46083   7.46088   7.50767
 Alpha virt. eigenvalues --    7.52639   7.52653   8.45993   8.46792   8.55434
 Alpha virt. eigenvalues --    8.57431   8.82752   8.85418   8.90951   8.91310
 Alpha virt. eigenvalues --    8.92074   8.99181  15.85453  22.89360  22.90717
 Alpha virt. eigenvalues --   22.97602  22.98525  23.03428  23.12482  23.13399
 Alpha virt. eigenvalues --   23.14512  23.18378  23.18726  23.19182  23.21920
 Alpha virt. eigenvalues --   23.23160  23.28555  23.29389  23.29698  23.29905
 Alpha virt. eigenvalues --   23.33456  23.34016  23.34608  23.35363  23.38306
 Alpha virt. eigenvalues --   23.47076  23.53714  23.54432  23.60948  23.73161
 Alpha virt. eigenvalues --   23.78297  23.86824  23.88823  24.09379  24.09858
 Alpha virt. eigenvalues --   24.19056  32.57713  32.57830  32.59600  33.12861
 Alpha virt. eigenvalues --   33.28979  44.20404  44.20447  44.20452  44.25019
 Alpha virt. eigenvalues --   44.25628  44.25671  57.35263  57.53954
          Condensed to atoms (all electrons):
 Mulliken charges:
               1
     1  C   -0.433338
     2  C   -0.023807
     3  C   -0.080924
     4  C    0.013274
     5  C   -0.092551
     6  C   -0.059811
     7  C    0.028785
     8  C   -0.157864
     9  C   -0.100237
    10  C   -0.025273
    11  N    0.489064
    12  O   -0.374985
    13  O   -0.375743
    14  C   -0.097157
    15  C   -0.131968
    16  N   -0.100181
    17  C    0.114649
    18  C    0.161193
    19  C   -0.263605
    20  C   -0.151887
    21  C   -0.044748
    22  C   -0.027896
    23  N    0.493874
    24  O   -0.366008
    25  O   -0.365999
    26  C   -0.034688
    27  C   -0.187346
    28  C    0.114618
    29  C   -0.023757
    30  C   -0.433340
    31  C   -0.080989
    32  C    0.013351
    33  C   -0.092618
    34  C   -0.059778
    35  C    0.028783
    36  C   -0.131977
    37  C   -0.097156
    38  C   -0.025270
    39  N    0.489061
    40  O   -0.374986
    41  O   -0.375750
    42  C   -0.100251
    43  C   -0.157851
    44  N   -0.100215
    45  B    0.337494
    46  F   -0.327707
    47  F   -0.362336
    48  H    0.165163
    49  H    0.161172
    50  H    0.134961
    51  H    0.170413
    52  H    0.147483
    53  H    0.119777
    54  H    0.158157
    55  H    0.192225
    56  H    0.193561
    57  H    0.153988
    58  H    0.178581
    59  H    0.198601
    60  H    0.199193
    61  H    0.185689
    62  H    0.165172
    63  H    0.134959
    64  H    0.161165
    65  H    0.170408
    66  H    0.147485
    67  H    0.119774
    68  H    0.153988
    69  H    0.193560
    70  H    0.192224
    71  H    0.158150
 Sum of Mulliken charges =  -0.00000
 Mulliken charges with hydrogens summed into heavy atoms:
               1
     1  C    0.027958
     2  C   -0.023807
     3  C    0.089489
     4  C    0.013274
     5  C    0.054932
     6  C    0.059967
     7  C    0.028785
     8  C    0.000292
     9  C    0.091987
    10  C   -0.025273
    11  N    0.489064
    12  O   -0.374985
    13  O   -0.375743
    14  C    0.096404
    15  C    0.022020
    16  N   -0.100181
    17  C    0.114649
    18  C    0.161193
    19  C   -0.263605
    20  C    0.026694
    21  C    0.153853
    22  C   -0.027896
    23  N    0.493874
    24  O   -0.366008
    25  O   -0.365999
    26  C    0.164505
    27  C   -0.001657
    28  C    0.114618
    29  C   -0.023757
    30  C    0.027957
    31  C    0.089419
    32  C    0.013351
    33  C    0.054867
    34  C    0.059996
    35  C    0.028783
    36  C    0.022010
    37  C    0.096404
    38  C   -0.025270
    39  N    0.489061
    40  O   -0.374986
    41  O   -0.375750
    42  C    0.091973
    43  C    0.000300
    44  N   -0.100215
    45  B    0.337494
    46  F   -0.327707
    47  F   -0.362336
 Electronic spatial extent (au):  <R**2>=          46281.7043
 Charge=             -0.0000 electrons
 Dipole moment (field-independent basis, Debye):
    X=             13.2593    Y=             -0.0019    Z=             -1.1599  Tot=             13.3099
 Quadrupole moment (field-independent basis, Debye-Ang):
   XX=           -441.4883   YY=           -275.0889   ZZ=           -272.4664
   XY=              0.0038   XZ=             -1.4428   YZ=             -0.0029
 Traceless Quadrupole moment (field-independent basis, Debye-Ang):
   XX=           -111.8071   YY=             54.5923   ZZ=             57.2148
   XY=              0.0038   XZ=             -1.4428   YZ=             -0.0029
 Octapole moment (field-independent basis, Debye-Ang**2):
  XXX=            164.2424  YYY=             -0.0689  ZZZ=             -1.7890  XYY=            695.0975
  XXY=             -0.0031  XXZ=              9.8735  XZZ=             14.3810  YZZ=             -0.0025
  YYZ=             10.3061  XYZ=             -0.0213
 Hexadecapole moment (field-independent basis, Debye-Ang**3):
 XXXX=         -55671.4805 YYYY=         -25545.0159 ZZZZ=           -690.4588 XXXY=             -0.1029
 XXXZ=            -58.3006 YYYX=              0.3617 YYYZ=             -0.1485 ZZZX=              6.3275
 ZZZY=             -0.0035 XXYY=         -15701.9333 XXZZ=          -6078.0545 YYZZ=          -4265.4692
 XXYZ=             -0.1390 YYXZ=            -60.2113 ZZXY=              0.0016
 N-N= 5.183612729314D+03 E-N=-1.554934849665D+04  KE= 2.209958796318D+03
 No NMR shielding tensors so no spin-rotation constants.
 Leave Link  601 at Tue Oct 28 21:08:33 2025, MaxMem= 30870077440 cpu:              98.2 elap:               1.8
 (Enter /public/software/gauss/g16/l9999.exe)
 1\1\GINC-CU031\SP\RM062X\def2TZVPP\C33H24B1F2N5O6\BAIDING\28-Oct-2025\
 0\\#p M062X/DEF2TZVPP scrf=(solvent=water) em=GD3\\Energy calculation 
 for BNP_NO2_NO2\\0,1\C,0,-4.329057,3.105183,-0.115881\C,0,-2.925689,2.
 584128,-0.066891\C,0,-1.79557,3.380982,-0.082292\C,0,-0.650248,2.54613
 3,-0.036696\C,0,0.74018,2.919775,-0.04295\C,0,1.170503,4.205139,0.0199
 45\C,0,2.559071,4.642976,0.00357\C,0,3.656579,3.752377,-0.050392\C,0,4
 .95748,4.224796,-0.066151\C,0,5.178431,5.606484,-0.027842\N,0,6.540656
 ,6.103773,-0.045236\O,0,7.470304,5.28647,-0.092615\O,0,6.726776,7.3279
 73,-0.012272\C,0,4.121606,6.518222,0.027794\C,0,2.824238,6.02997,0.044
 028\N,0,-1.06212,1.245937,-0.000251\C,0,-2.455965,1.223508,-0.013553\C
 ,0,-3.148234,0.000106,-0.008561\C,0,-4.642429,0.000143,-0.014389\C,0,-
 5.348122,0.000119,1.197944\C,0,-6.738911,0.000104,1.203368\C,0,-7.4097
 17,0.000116,-0.019377\N,0,-8.87073,0.000099,-0.022006\O,0,-9.457189,0.
 000511,-1.109021\O,0,-9.461058,-0.00033,1.062907\C,0,-6.734414,0.00013
 4,-1.239642\C,0,-5.343802,0.000135,-1.229126\C,0,-2.45605,-1.223363,-0
 .013829\C,0,-2.925872,-2.58392,-0.067104\C,0,-4.329274,-3.104893,-0.11
 6143\C,0,-1.795801,-3.380882,-0.08238\C,0,-0.650437,-2.546133,-0.03681
 8\C,0,0.739985,-2.919824,-0.043098\C,0,1.170271,-4.205182,0.020073\C,0
 ,2.558822,-4.643072,0.00369\C,0,2.823944,-6.030077,0.044044\C,0,4.1212
 95,-6.518369,0.027755\C,0,5.178153,-5.60666,-0.027826\N,0,6.540354,-6.
 103986,-0.0453\O,0,7.47002,-5.286724,-0.093019\O,0,6.726443,-7.328188,
 -0.012038\C,0,4.957245,-4.224962,-0.065994\C,0,3.656359,-3.7525,-0.050
 174\N,0,-1.062209,-1.245885,-0.000498\B,0,-0.170503,-0.000067,0.250435
 \F,0,0.302225,-0.00022,1.567387\F,0,0.918446,0.,-0.634578\H,0,-4.86096
 7,2.764286,-1.009296\H,0,-4.915777,2.783782,0.749768\H,0,-4.311649,4.1
 97781,-0.128129\H,0,-1.783276,4.460465,-0.139013\H,0,1.454518,2.108489
 ,-0.116195\H,0,0.438091,5.005797,0.088507\H,0,3.491442,2.681478,-0.077
 726\H,0,5.796708,3.542435,-0.106845\H,0,4.320002,7.58184,0.057488\H,0,
 1.993097,6.726632,0.087139\H,0,-4.807203,0.000125,2.137799\H,0,-7.2940
 66,0.000093,2.132396\H,0,-7.286139,0.00013,-2.170701\H,0,-4.799447,0.0
 00122,-2.166986\H,0,-4.861178,-2.763951,-1.009542\H,0,-4.311932,-4.197
 493,-0.128403\H,0,-4.915956,-2.783476,0.749528\H,0,-1.783573,-4.460364
 ,-0.139137\H,0,1.454326,-2.10856,-0.116588\H,0,0.437826,-5.005793,0.08
 8858\H,0,1.99278,-6.726715,0.08711\H,0,4.319662,-7.581994,0.057355\H,0
 ,5.796491,-3.542619,-0.106599\H,0,3.491249,-2.681593,-0.077346\\Versio
 n=ES64L-G16RevA.03\State=1-A\HF=-2221.5272917\RMSD=3.854e-09\Dipole=-5
 .2166054,0.0007641,-0.4563377\Quadrupole=-83.1258312,40.58805,42.53778
 12,0.0028548,1.0726701,0.0021671\PG=C01 [X(C33H24B1F2N5O6)]\\@


 The lyf so short, the craft so long to lerne.
                             -- Chaucer
 Job cpu time:       0 days 14 hours 26 minutes 24.6 seconds.
 Elapsed time:       0 days  0 hours 13 minutes 48.1 seconds.
 File lengths (MBytes):  RWF=   2158 Int=      0 D2E=      0 Chk=    188 Scr=      1
 Normal termination of Gaussian 16 at Tue Oct 28 21:08:34 2025.
