 Entering Gaussian System, Link 0=g16
 Input=BNP_24NO2_24NO2_reduced_sp.gjf
 Output=BNP_24NO2_24NO2_reduced_sp.log
 Initial command:
 /public/software/gauss/g16/l1.exe "/public/home/baiding/1024_sp/tmp_BNP_24NO2_24NO2_reduced_sp_1526250/Gau-2937854.inp" -scrdir="/public/home/baiding/1024_sp/tmp_BNP_24NO2_24NO2_reduced_sp_1526250/"
 Entering Link 1 = /public/software/gauss/g16/l1.exe PID=   2937855.
  
 Copyright (c) 1988,1990,1992,1993,1995,1998,2003,2009,2016,
            Gaussian, Inc.  All Rights Reserved.
  
 This is part of the Gaussian(R) 16 program.  It is based on
 the Gaussian(R) 09 system (copyright 2009, Gaussian, Inc.),
 the Gaussian(R) 03 system (copyright 2003, Gaussian, Inc.),
 the Gaussian(R) 98 system (copyright 1998, Gaussian, Inc.),
 the Gaussian(R) 94 system (copyright 1995, Gaussian, Inc.),
 the Gaussian 92(TM) system (copyright 1992, Gaussian, Inc.),
 the Gaussian 90(TM) system (copyright 1990, Gaussian, Inc.),
 the Gaussian 88(TM) system (copyright 1988, Gaussian, Inc.),
 the Gaussian 86(TM) system (copyright 1986, Carnegie Mellon
 University), and the Gaussian 82(TM) system (copyright 1983,
 Carnegie Mellon University). Gaussian is a federally registered
 trademark of Gaussian, Inc.
  
 This software contains proprietary and confidential information,
 including trade secrets, belonging to Gaussian, Inc.
  
 This software is provided under written license and may be
 used, copied, transmitted, or stored only in accord with that
 written license.
  
 The following legend is applicable only to US Government
 contracts under FAR:
  
                    RESTRICTED RIGHTS LEGEND
  
 Use, reproduction and disclosure by the US Government is
 subject to restrictions as set forth in subparagraphs (a)
 and (c) of the Commercial Computer Software - Restricted
 Rights clause in FAR 52.227-19.
  
 Gaussian, Inc.
 340 Quinnipiac St., Bldg. 40, Wallingford CT 06492
  
  
 ---------------------------------------------------------------
 Warning -- This program may not be used in any manner that
 competes with the business of Gaussian, Inc. or will provide
 assistance to any competitor of Gaussian, Inc.  The licensee
 of this program is prohibited from giving any competitor of
 Gaussian, Inc. access to this program.  By using this program,
 the user acknowledges that Gaussian, Inc. is engaged in the
 business of creating and licensing software in the field of
 computational chemistry and represents and warrants to the
 licensee that it is not a competitor of Gaussian, Inc. and that
 it will not use this program in any manner prohibited above.
 ---------------------------------------------------------------
  

 Cite this work as:
 Gaussian 16, Revision A.03,
 M. J. Frisch, G. W. Trucks, H. B. Schlegel, G. E. Scuseria, 
 M. A. Robb, J. R. Cheeseman, G. Scalmani, V. Barone, 
 G. A. Petersson, H. Nakatsuji, X. Li, M. Caricato, A. V. Marenich, 
 J. Bloino, B. G. Janesko, R. Gomperts, B. Mennucci, H. P. Hratchian, 
 J. V. Ortiz, A. F. Izmaylov, J. L. Sonnenberg, D. Williams-Young, 
 F. Ding, F. Lipparini, F. Egidi, J. Goings, B. Peng, A. Petrone, 
 T. Henderson, D. Ranasinghe, V. G. Zakrzewski, J. Gao, N. Rega, 
 G. Zheng, W. Liang, M. Hada, M. Ehara, K. Toyota, R. Fukuda, 
 J. Hasegawa, M. Ishida, T. Nakajima, Y. Honda, O. Kitao, H. Nakai, 
 T. Vreven, K. Throssell, J. A. Montgomery, Jr., J. E. Peralta, 
 F. Ogliaro, M. J. Bearpark, J. J. Heyd, E. N. Brothers, K. N. Kudin, 
 V. N. Staroverov, T. A. Keith, R. Kobayashi, J. Normand, 
 K. Raghavachari, A. P. Rendell, J. C. Burant, S. S. Iyengar, 
 J. Tomasi, M. Cossi, J. M. Millam, M. Klene, C. Adamo, R. Cammi, 
 J. W. Ochterski, R. L. Martin, K. Morokuma, O. Farkas, 
 J. B. Foresman, and D. J. Fox, Gaussian, Inc., Wallingford CT, 2016.
 
 ******************************************
 Gaussian 16:  ES64L-G16RevA.03 25-Dec-2016
                25-Oct-2025 
 ******************************************
 %nprocshared=64
 Will use up to   64 processors via shared memory.
 %mem=230GB
 %chk=BNP_24NO2_24NO2_reduced_sp.chk
 ----------------------------------------------
 #p M062X/DEF2TZVPP scrf=(solvent=water) em=GD3
 ----------------------------------------------
 1/38=1,172=1/1;
 2/12=2,17=6,18=5,40=1/2;
 3/5=44,7=202,11=2,25=1,30=1,70=2201,72=1,74=-55,124=31/1,2,3;
 4//1;
 5/5=2,38=5,53=1/2;
 6/7=2,8=2,9=2,10=2,28=1/1;
 99/5=1,9=1/99;
 Leave Link    1 at Sat Oct 25 01:42:18 2025, MaxMem= 30870077440 cpu:              23.6 elap:               0.4
 (Enter /public/software/gauss/g16/l101.exe)
 ----------------------------------------------
 Energy calculation for BNP_24NO2_24NO2_reduced
 ----------------------------------------------
 Symbolic Z-matrix:
 Charge = -1 Multiplicity = 2
 C                    -4.61849   3.38872  -0.02987 
 C                    -3.21857   2.8536   -0.01241 
 C                    -2.08252   3.63526   0.00567 
 C                    -0.93918   2.78896   0.00452 
 C                     0.43703   3.12726   0.02024 
 C                     0.9073    4.41439   0.13568 
 C                     2.2573    4.89279   0.11418 
 C                     2.41534   6.29105  -0.13447 
 C                     3.63263   6.89762  -0.33311 
 C                     4.8009    6.11126  -0.28451 
 N                     6.08277   6.71042  -0.49949 
 O                     7.10257   5.99594  -0.4526 
 O                     6.13515   7.9333   -0.7318 
 C                     4.72787   4.75283   0.00437 
 C                     3.49099   4.16494   0.23387 
 N                     3.56893   2.79322   0.71355 
 O                     4.50564   2.08303   0.31694 
 O                     2.73348   2.39784   1.53784 
 N                    -1.38064   1.48189  -0.02072 
 C                    -2.76626   1.47994  -0.02218 
 C                    -3.48361   0.26681  -0.03665 
 C                    -4.97758   0.28272  -0.01779 
 C                    -5.70382   0.35992  -1.21662 
 C                    -7.0943    0.37389  -1.20483 
 C                    -7.7506    0.31084   0.02454 
 N                    -9.21013   0.32621   0.04638 
 O                    -9.81505   0.38732  -1.02928 
 O                    -9.78409   0.27764   1.13953 
 C                    -7.05884   0.23388   1.23351 
 C                    -5.66854   0.21936   1.20277 
 C                    -2.79286  -0.96499  -0.07335 
 C                    -3.27841  -2.32366  -0.14572 
 C                    -4.6906   -2.82315  -0.20566 
 C                    -2.16108  -3.13302  -0.16954 
 C                    -0.99803  -2.31707  -0.11867 
 C                     0.36672  -2.69931  -0.13365 
 C                     0.79083  -4.0099   -0.12219 
 C                     2.1581   -4.43398  -0.10462 
 C                     2.58106  -5.80769  -0.16714 
 N                     1.66111  -6.90942  -0.38898 
 O                     0.56688  -6.69304  -0.93173 
 O                     2.01328  -8.05099  -0.04965 
 C                     3.91485  -6.18628  -0.05216 
 C                     4.89043  -5.21209   0.09594 
 N                     6.26509  -5.60787   0.19185 
 O                     6.55154  -6.81844   0.14832 
 O                     7.12913  -4.72108   0.3183 
 C                     4.54187  -3.84639   0.14539 
 C                     3.21996  -3.48944   0.05328 
 N                    -1.40868  -0.99963  -0.06521 
 B                    -0.49917   0.22702   0.17728 
 F                     0.56528   0.22921  -0.7452 
 F                     0.03667   0.20078   1.47543 
 H                    -5.15755   3.10185  -0.93814 
 H                    -5.20751   3.02935   0.81943 
 H                    -4.59162   4.48062   0.01522 
 H                    -2.06037   4.71653   0.0011 
 H                     1.12527   2.30213  -0.08683 
 H                     0.17134   5.21321   0.17934 
 H                     1.51441   6.89136  -0.20372 
 H                     3.69951   7.95832  -0.53669 
 H                     5.62976   4.16394   0.09387 
 H                    -5.1759    0.40807  -2.16276 
 H                    -7.66122   0.43217  -2.12497 
 H                    -7.59826   0.18652   2.17066 
 H                    -5.11308   0.15983   2.13239 
 H                    -5.22762  -2.43617  -1.07714 
 H                    -4.68836  -3.91453  -0.26805 
 H                    -5.26743  -2.53712   0.67925 
 H                    -2.16577  -4.21224  -0.2395 
 H                     1.08544  -1.89054  -0.18121 
 H                     0.03841  -4.78487  -0.11878 
 H                     4.18654  -7.23059  -0.10276 
 H                     5.31177  -3.09531   0.26542 
 H                     2.97366  -2.43778   0.12399 
 
 ITRead=  0  0  0  0  0  0  0  0  0  0  0  0  0  0  0  0  0  0  0  0
 ITRead=  0  0  0  0  0  0  0  0  0  0  0  0  0  0  0  0  0  0  0  0
 ITRead=  0  0  0  0  0  0  0  0  0  0  0  0  0  0  0  0  0  0  0  0
 ITRead=  0  0  0  0  0  0  0  0  0  0  0  0  0  0  0
 MicOpt= -1 -1 -1 -1 -1 -1 -1 -1 -1 -1 -1 -1 -1 -1 -1 -1 -1 -1 -1 -1
 MicOpt= -1 -1 -1 -1 -1 -1 -1 -1 -1 -1 -1 -1 -1 -1 -1 -1 -1 -1 -1 -1
 MicOpt= -1 -1 -1 -1 -1 -1 -1 -1 -1 -1 -1 -1 -1 -1 -1 -1 -1 -1 -1 -1
 MicOpt= -1 -1 -1 -1 -1 -1 -1 -1 -1 -1 -1 -1 -1 -1 -1
 NAtoms=     75 NQM=       75 NQMF=       0 NMMI=      0 NMMIF=      0
                NMic=       0 NMicF=      0.
                    Isotopes and Nuclear Properties:
 (Nuclear quadrupole moments (NQMom) in fm**2, nuclear magnetic moments (NMagM)
  in nuclear magnetons)

  Atom         1           2           3           4           5           6           7           8           9          10
 IAtWgt=          12          12          12          12          12          12          12          12          12          12
 AtmWgt=  12.0000000  12.0000000  12.0000000  12.0000000  12.0000000  12.0000000  12.0000000  12.0000000  12.0000000  12.0000000
 NucSpn=           0           0           0           0           0           0           0           0           0           0
 AtZEff=  -0.0000000  -0.0000000  -0.0000000  -0.0000000  -0.0000000  -0.0000000  -0.0000000  -0.0000000  -0.0000000  -0.0000000
 NQMom=    0.0000000   0.0000000   0.0000000   0.0000000   0.0000000   0.0000000   0.0000000   0.0000000   0.0000000   0.0000000
 NMagM=    0.0000000   0.0000000   0.0000000   0.0000000   0.0000000   0.0000000   0.0000000   0.0000000   0.0000000   0.0000000
 AtZNuc=   6.0000000   6.0000000   6.0000000   6.0000000   6.0000000   6.0000000   6.0000000   6.0000000   6.0000000   6.0000000

  Atom        11          12          13          14          15          16          17          18          19          20
 IAtWgt=          14          16          16          12          12          14          16          16          14          12
 AtmWgt=  14.0030740  15.9949146  15.9949146  12.0000000  12.0000000  14.0030740  15.9949146  15.9949146  14.0030740  12.0000000
 NucSpn=           2           0           0           0           0           2           0           0           2           0
 AtZEff=  -0.0000000  -0.0000000  -0.0000000  -0.0000000  -0.0000000  -0.0000000  -0.0000000  -0.0000000  -0.0000000  -0.0000000
 NQMom=    2.0440000   0.0000000   0.0000000   0.0000000   0.0000000   2.0440000   0.0000000   0.0000000   2.0440000   0.0000000
 NMagM=    0.4037610   0.0000000   0.0000000   0.0000000   0.0000000   0.4037610   0.0000000   0.0000000   0.4037610   0.0000000
 AtZNuc=   7.0000000   8.0000000   8.0000000   6.0000000   6.0000000   7.0000000   8.0000000   8.0000000   7.0000000   6.0000000

  Atom        21          22          23          24          25          26          27          28          29          30
 IAtWgt=          12          12          12          12          12          14          16          16          12          12
 AtmWgt=  12.0000000  12.0000000  12.0000000  12.0000000  12.0000000  14.0030740  15.9949146  15.9949146  12.0000000  12.0000000
 NucSpn=           0           0           0           0           0           2           0           0           0           0
 AtZEff=  -0.0000000  -0.0000000  -0.0000000  -0.0000000  -0.0000000  -0.0000000  -0.0000000  -0.0000000  -0.0000000  -0.0000000
 NQMom=    0.0000000   0.0000000   0.0000000   0.0000000   0.0000000   2.0440000   0.0000000   0.0000000   0.0000000   0.0000000
 NMagM=    0.0000000   0.0000000   0.0000000   0.0000000   0.0000000   0.4037610   0.0000000   0.0000000   0.0000000   0.0000000
 AtZNuc=   6.0000000   6.0000000   6.0000000   6.0000000   6.0000000   7.0000000   8.0000000   8.0000000   6.0000000   6.0000000

  Atom        31          32          33          34          35          36          37          38          39          40
 IAtWgt=          12          12          12          12          12          12          12          12          12          14
 AtmWgt=  12.0000000  12.0000000  12.0000000  12.0000000  12.0000000  12.0000000  12.0000000  12.0000000  12.0000000  14.0030740
 NucSpn=           0           0           0           0           0           0           0           0           0           2
 AtZEff=  -0.0000000  -0.0000000  -0.0000000  -0.0000000  -0.0000000  -0.0000000  -0.0000000  -0.0000000  -0.0000000  -0.0000000
 NQMom=    0.0000000   0.0000000   0.0000000   0.0000000   0.0000000   0.0000000   0.0000000   0.0000000   0.0000000   2.0440000
 NMagM=    0.0000000   0.0000000   0.0000000   0.0000000   0.0000000   0.0000000   0.0000000   0.0000000   0.0000000   0.4037610
 AtZNuc=   6.0000000   6.0000000   6.0000000   6.0000000   6.0000000   6.0000000   6.0000000   6.0000000   6.0000000   7.0000000

  Atom        41          42          43          44          45          46          47          48          49          50
 IAtWgt=          16          16          12          12          14          16          16          12          12          14
 AtmWgt=  15.9949146  15.9949146  12.0000000  12.0000000  14.0030740  15.9949146  15.9949146  12.0000000  12.0000000  14.0030740
 NucSpn=           0           0           0           0           2           0           0           0           0           2
 AtZEff=  -0.0000000  -0.0000000  -0.0000000  -0.0000000  -0.0000000  -0.0000000  -0.0000000  -0.0000000  -0.0000000  -0.0000000
 NQMom=    0.0000000   0.0000000   0.0000000   0.0000000   2.0440000   0.0000000   0.0000000   0.0000000   0.0000000   2.0440000
 NMagM=    0.0000000   0.0000000   0.0000000   0.0000000   0.4037610   0.0000000   0.0000000   0.0000000   0.0000000   0.4037610
 AtZNuc=   8.0000000   8.0000000   6.0000000   6.0000000   7.0000000   8.0000000   8.0000000   6.0000000   6.0000000   7.0000000

  Atom        51          52          53          54          55          56          57          58          59          60
 IAtWgt=          11          19          19           1           1           1           1           1           1           1
 AtmWgt=  11.0093053  18.9984033  18.9984033   1.0078250   1.0078250   1.0078250   1.0078250   1.0078250   1.0078250   1.0078250
 NucSpn=           3           1           1           1           1           1           1           1           1           1
 AtZEff=  -0.0000000  -0.0000000  -0.0000000  -0.0000000  -0.0000000  -0.0000000  -0.0000000  -0.0000000  -0.0000000  -0.0000000
 NQMom=    4.0590000   0.0000000   0.0000000   0.0000000   0.0000000   0.0000000   0.0000000   0.0000000   0.0000000   0.0000000
 NMagM=    2.6886370   2.6288670   2.6288670   2.7928460   2.7928460   2.7928460   2.7928460   2.7928460   2.7928460   2.7928460
 AtZNuc=   5.0000000   9.0000000   9.0000000   1.0000000   1.0000000   1.0000000   1.0000000   1.0000000   1.0000000   1.0000000

  Atom        61          62          63          64          65          66          67          68          69          70
 IAtWgt=           1           1           1           1           1           1           1           1           1           1
 AtmWgt=   1.0078250   1.0078250   1.0078250   1.0078250   1.0078250   1.0078250   1.0078250   1.0078250   1.0078250   1.0078250
 NucSpn=           1           1           1           1           1           1           1           1           1           1
 AtZEff=  -0.0000000  -0.0000000  -0.0000000  -0.0000000  -0.0000000  -0.0000000  -0.0000000  -0.0000000  -0.0000000  -0.0000000
 NQMom=    0.0000000   0.0000000   0.0000000   0.0000000   0.0000000   0.0000000   0.0000000   0.0000000   0.0000000   0.0000000
 NMagM=    2.7928460   2.7928460   2.7928460   2.7928460   2.7928460   2.7928460   2.7928460   2.7928460   2.7928460   2.7928460
 AtZNuc=   1.0000000   1.0000000   1.0000000   1.0000000   1.0000000   1.0000000   1.0000000   1.0000000   1.0000000   1.0000000

  Atom        71          72          73          74          75
 IAtWgt=           1           1           1           1           1
 AtmWgt=   1.0078250   1.0078250   1.0078250   1.0078250   1.0078250
 NucSpn=           1           1           1           1           1
 AtZEff=  -0.0000000  -0.0000000  -0.0000000  -0.0000000  -0.0000000
 NQMom=    0.0000000   0.0000000   0.0000000   0.0000000   0.0000000
 NMagM=    2.7928460   2.7928460   2.7928460   2.7928460   2.7928460
 AtZNuc=   1.0000000   1.0000000   1.0000000   1.0000000   1.0000000
 Leave Link  101 at Sat Oct 25 01:42:18 2025, MaxMem= 30870077440 cpu:               5.8 elap:               0.1
 (Enter /public/software/gauss/g16/l202.exe)
 Stoichiometry    C33H22BF2N7O10(1-,2)
 Framework group  C1[X(C33H22BF2N7O10)]
 Deg. of freedom   219
 Full point group                 C1      NOp   1
 Largest Abelian subgroup         C1      NOp   1
 Largest concise Abelian subgroup C1      NOp   1
                         Standard orientation:                         
 ---------------------------------------------------------------------
 Center     Atomic      Atomic             Coordinates (Angstroms)
 Number     Number       Type             X           Y           Z
 ---------------------------------------------------------------------
      1          6           0        4.618487   -3.388722   -0.029874
      2          6           0        3.218573   -2.853599   -0.012407
      3          6           0        2.082519   -3.635256    0.005670
      4          6           0        0.939179   -2.788960    0.004516
      5          6           0       -0.437032   -3.127261    0.020236
      6          6           0       -0.907301   -4.414392    0.135675
      7          6           0       -2.257296   -4.892791    0.114181
      8          6           0       -2.415336   -6.291047   -0.134470
      9          6           0       -3.632627   -6.897617   -0.333106
     10          6           0       -4.800898   -6.111258   -0.284506
     11          7           0       -6.082769   -6.710417   -0.499485
     12          8           0       -7.102571   -5.995939   -0.452603
     13          8           0       -6.135154   -7.933300   -0.731803
     14          6           0       -4.727874   -4.752828    0.004373
     15          6           0       -3.490986   -4.164941    0.233866
     16          7           0       -3.568926   -2.793223    0.713552
     17          8           0       -4.505643   -2.083029    0.316944
     18          8           0       -2.733483   -2.397843    1.537837
     19          7           0        1.380640   -1.481888   -0.020719
     20          6           0        2.766263   -1.479938   -0.022176
     21          6           0        3.483605   -0.266812   -0.036649
     22          6           0        4.977579   -0.282719   -0.017792
     23          6           0        5.703817   -0.359924   -1.216615
     24          6           0        7.094301   -0.373886   -1.204827
     25          6           0        7.750601   -0.310837    0.024535
     26          7           0        9.210134   -0.326206    0.046384
     27          8           0        9.815053   -0.387318   -1.029280
     28          8           0        9.784094   -0.277634    1.139533
     29          6           0        7.058842   -0.233878    1.233506
     30          6           0        5.668538   -0.219355    1.202767
     31          6           0        2.792856    0.964994   -0.073354
     32          6           0        3.278405    2.323658   -0.145724
     33          6           0        4.690599    2.823152   -0.205657
     34          6           0        2.161078    3.133016   -0.169543
     35          6           0        0.998031    2.317070   -0.118666
     36          6           0       -0.366723    2.699305   -0.133652
     37          6           0       -0.790833    4.009897   -0.122191
     38          6           0       -2.158104    4.433979   -0.104621
     39          6           0       -2.581059    5.807690   -0.167143
     40          7           0       -1.661113    6.909416   -0.388983
     41          8           0       -0.566880    6.693037   -0.931729
     42          8           0       -2.013276    8.050989   -0.049654
     43          6           0       -3.914851    6.186283   -0.052157
     44          6           0       -4.890428    5.212091    0.095940
     45          7           0       -6.265093    5.607872    0.191852
     46          8           0       -6.551542    6.818436    0.148315
     47          8           0       -7.129133    4.721084    0.318300
     48          6           0       -4.541872    3.846385    0.145386
     49          6           0       -3.219961    3.489443    0.053280
     50          7           0        1.408677    0.999628   -0.065214
     51          5           0        0.499166   -0.227017    0.177280
     52          9           0       -0.565284   -0.229213   -0.745204
     53          9           0       -0.036665   -0.200781    1.475434
     54          1           0        5.157549   -3.101853   -0.938141
     55          1           0        5.207507   -3.029355    0.819434
     56          1           0        4.591617   -4.480622    0.015215
     57          1           0        2.060374   -4.716531    0.001097
     58          1           0       -1.125273   -2.302126   -0.086833
     59          1           0       -0.171339   -5.213207    0.179343
     60          1           0       -1.514408   -6.891359   -0.203722
     61          1           0       -3.699510   -7.958319   -0.536688
     62          1           0       -5.629759   -4.163943    0.093869
     63          1           0        5.175900   -0.408070   -2.162757
     64          1           0        7.661219   -0.432173   -2.124966
     65          1           0        7.598259   -0.186516    2.170655
     66          1           0        5.113082   -0.159828    2.132385
     67          1           0        5.227623    2.436171   -1.077139
     68          1           0        4.688358    3.914533   -0.268049
     69          1           0        5.267425    2.537120    0.679248
     70          1           0        2.165774    4.212243   -0.239495
     71          1           0       -1.085438    1.890537   -0.181210
     72          1           0       -0.038406    4.784874   -0.118776
     73          1           0       -4.186541    7.230586   -0.102759
     74          1           0       -5.311765    3.095308    0.265419
     75          1           0       -2.973655    2.437782    0.123993
 ---------------------------------------------------------------------
 Rotational constants (GHZ):           0.0399554           0.0316876           0.0180123
 Leave Link  202 at Sat Oct 25 01:42:18 2025, MaxMem= 30870077440 cpu:               0.2 elap:               0.0
 (Enter /public/software/gauss/g16/l301.exe)
 Standard basis: def2TZVPP (5D, 7F)
 Ernie: Thresh=  0.10000D-02 Tol=  0.10000D-05 Strict=F.
 There are  2238 symmetry adapted cartesian basis functions of A   symmetry.
 There are  1951 symmetry adapted basis functions of A   symmetry.
  1951 basis functions,  3077 primitive gaussians,  2238 cartesian basis functions
   187 alpha electrons      186 beta electrons
       nuclear repulsion energy      6481.3261021504 Hartrees.
 IExCor= 4336 DFT=T Ex+Corr=M062X ExCW=0 ScaHFX=  0.540000
 ScaDFX=  1.000000  1.000000  1.000000  1.000000 ScalE2=  1.000000  1.000000
 IRadAn=      5 IRanWt=     -1 IRanGd=            0 ICorTp=0 IEmpDi=131
 NAtoms=   75 NActive=   75 NUniq=   75 SFac= 1.00D+00 NAtFMM=   60 NAOKFM=T Big=T
 Integral buffers will be    131072 words long.
 Raffenetti 2 integral format.
 Two-electron integral symmetry is turned on.
 R6Disp:  Grimme-D3 Dispersion energy=       -0.0068004410 Hartrees.
 Nuclear repulsion after empirical dispersion term =     6481.3193017094 Hartrees.
 ------------------------------------------------------------------------------
 Polarizable Continuum Model (PCM)
 =================================
 Model                : PCM.
 Atomic radii         : UFF (Universal Force Field).
 Polarization charges : Total charges.
 Charge compensation  : None.
 Solution method      : On-the-fly selection.
 Cavity type          : Scaled VdW (van der Waals Surface) (Alpha=1.100).
 Cavity algorithm     : GePol (No added spheres)
                        Default sphere list used, NSphG=   75.
                        Lebedev-Laikov grids with approx.  5.0 points / Ang**2.
                        Smoothing algorithm: York/Karplus (Gamma=1.0000).
                        Polarization charges: spherical gaussians, with
                                              point-specific exponents (IZeta= 3).
                        Self-potential: point-specific (ISelfS= 7).
                        Self-field    : sphere-specific E.n sum rule (ISelfD= 2).
 Solvent              : Water, Eps=  78.355300 Eps(inf)=   1.777849
 ------------------------------------------------------------------------------
 GePol: Number of generator spheres                  =      75
 GePol: Total number of spheres                      =      75
 GePol: Number of exposed spheres                    =      75 (100.00%)
 GePol: Number of points                             =    5842
 GePol: Average weight of points                     =       0.13
 GePol: Minimum weight of points                     =   0.17D-11
 GePol: Maximum weight of points                     =    0.20577
 GePol: Number of points with low weight             =     327
 GePol: Fraction of low-weight points (<1% of avg)   =       5.60%
 GePol: Cavity surface area                          =    737.075 Ang**2
 GePol: Cavity volume                                =    859.700 Ang**3
 Leave Link  301 at Sat Oct 25 01:42:18 2025, MaxMem= 30870077440 cpu:               3.9 elap:               0.1
 (Enter /public/software/gauss/g16/l302.exe)
 NPDir=0 NMtPBC=     1 NCelOv=     1 NCel=       1 NClECP=     1 NCelD=      1
         NCelK=      1 NCelE2=     1 NClLst=     1 CellRange=     0.0.
 One-electron integrals computed using PRISM.
 One-electron integral symmetry used in STVInt
   1 Symmetry operations used in ECPInt.
 ECPInt:  NShTT=  255970 NPrTT=  765698 LenC2=  151821 LenP2D=  296504.
 LDataN:  DoStor=T MaxTD1= 6 Len=  172
 NBasis=  1951 RedAO= T EigKep=  3.68D-06  NBF=  1951
 NBsUse=  1951 1.00D-06 EigRej= -1.00D+00 NBFU=  1951
 Precomputing XC quadrature grid using
 IXCGrd= 4 IRadAn=           5 IRanWt=          -1 IRanGd=           0 AccXCQ= 0.00D+00.
 Generated NRdTot=       0 NPtTot=           0 NUsed=           0 NTot=          32
 NSgBfM=  1908  1908  1908  1908  1908 MxSgAt=    75 MxSgA2=    75.
 Leave Link  302 at Sat Oct 25 01:42:32 2025, MaxMem= 30870077440 cpu:             915.2 elap:              14.5
 (Enter /public/software/gauss/g16/l303.exe)
 DipDrv:  MaxL=1.
 Leave Link  303 at Sat Oct 25 01:42:33 2025, MaxMem= 30870077440 cpu:              29.7 elap:               0.5
 (Enter /public/software/gauss/g16/l401.exe)
 ExpMin= 6.06D-02 ExpMax= 3.55D+04 ExpMxC= 1.21D+03 IAcc=3 IRadAn=         5 AccDes= 0.00D+00
 Harris functional with IExCor= 1009 and IRadAn=       5 diagonalized for initial guess.
 HarFok:  IExCor= 1009 AccDes= 0.00D+00 IRadAn=         5 IDoV= 1 UseB2=F ITyADJ=14
 ICtDFT=  3500011 ScaDFX=  1.000000  1.000000  1.000000  1.000000
 FoFCou: FMM=F IPFlag=           0 FMFlag=      100000 FMFlg1=        2001
         NFxFlg=           0 DoJE=T BraDBF=F KetDBF=T FulRan=T
         wScrn=  0.000000 ICntrl=       500 IOpCl=  0 I1Cent=   200000004 NGrid=           0
         NMat0=    1 NMatS0=      1 NMatT0=    0 NMatD0=    1 NMtDS0=    0 NMtDT0=    0
 Petite list used in FoFCou.
 Harris En= -2629.45367135795    
 JPrj=0 DoOrth=F DoCkMO=F.
 Initial guess <Sx>= 0.0000 <Sy>= 0.0000 <Sz>= 0.5000 <S**2>= 0.7500 S= 0.5000
 Leave Link  401 at Sat Oct 25 01:42:45 2025, MaxMem= 30870077440 cpu:             741.7 elap:              11.7
 (Enter /public/software/gauss/g16/l502.exe)
 Integral symmetry usage will be decided dynamically.
 UHF open shell SCF:
 Using DIIS extrapolation, IDIIS=  1040.
 NGot= 30870077440 LenX= 30859898329 LenY= 30854887447
 Requested convergence on RMS density matrix=1.00D-08 within 128 cycles.
 Requested convergence on MAX density matrix=1.00D-06.
 Requested convergence on             energy=1.00D-06.
 No special actions if energy rises.
 Fock matrices will be formed incrementally for  20 cycles.

 Cycle   1  Pass 1  IDiag  1:
 FoFJK:  IHMeth= 1 ICntrl=       0 DoSepK=F KAlg= 0 I1Cent=           0 FoldK=F
 IRaf= 550000000 NMat=       1 IRICut=       1 DoRegI=T DoRafI=F ISym2E= 0 IDoP0=0 IntGTp=1.
 FoFCou: FMM=T IPFlag=           0 FMFlag=      100000 FMFlg1=        2001
         NFxFlg=           0 DoJE=F BraDBF=F KetDBF=F FulRan=T
         wScrn=  0.000000 ICntrl=         0 IOpCl=  1 I1Cent=           0 NGrid=           0
         NMat0=    1 NMatS0=      1 NMatT0=    0 NMatD0=    1 NMtDS0=    0 NMtDT0=    0
 Symmetry not used in FoFCou.
 FMM levels:  10  Number of levels for PrismC:   9
 Inv3:  Mode=1 IEnd=   102386892.
 Iteration    1 A*A^-1 deviation from unit magnitude is 1.15D-14 for   5807.
 Iteration    1 A*A^-1 deviation from orthogonality  is 4.66D-15 for   5596    704.
 Iteration    1 A^-1*A deviation from unit magnitude is 1.15D-14 for   5807.
 Iteration    1 A^-1*A deviation from orthogonality  is 2.02D-15 for   5830   5814.
 E= -2629.21549363962    
 DIIS: error= 2.12D-02 at cycle   1 NSaved=   1.
 NSaved= 1 IEnMin= 1 EnMin= -2629.21549363962     IErMin= 1 ErrMin= 2.12D-02
 ErrMax= 2.12D-02  0.00D+00 EMaxC= 1.00D-01 BMatC= 8.49D+00 BMatP= 8.49D+00
 IDIUse=3 WtCom= 7.88D-01 WtEn= 2.12D-01
 Coeff-Com:  0.100D+01
 Coeff-En:   0.100D+01
 Coeff:      0.100D+01
 Gap=     0.072 Goal=   None    Shift=    0.000
 Gap=     0.111 Goal=   None    Shift=    0.000
 GapD=    0.072 DampG=0.500 DampE=0.500 DampFc=0.2500 IDamp=-1.
 Damping current iteration by 2.50D-01
 RMSDP=1.75D-03 MaxDP=2.72D-01              OVMax= 4.53D-01

 Cycle   2  Pass 1  IDiag  1:
 RMSU=  4.37D-04    CP:  1.00D+00
 E= -2629.73461373931     Delta-E=       -0.519120099691 Rises=F Damp=T
 DIIS: error= 9.84D-03 at cycle   2 NSaved=   2.
 NSaved= 2 IEnMin= 2 EnMin= -2629.73461373931     IErMin= 2 ErrMin= 9.84D-03
 ErrMax= 9.84D-03  0.00D+00 EMaxC= 1.00D-01 BMatC= 2.50D+00 BMatP= 8.49D+00
 IDIUse=3 WtCom= 9.02D-01 WtEn= 9.84D-02
 Coeff-Com: -0.872D+00 0.187D+01
 Coeff-En:   0.000D+00 0.100D+01
 Coeff:     -0.786D+00 0.179D+01
 Gap=     0.097 Goal=   None    Shift=    0.000
 Gap=     0.157 Goal=   None    Shift=    0.000
 RMSDP=8.12D-04 MaxDP=7.67D-02 DE=-5.19D-01 OVMax= 3.33D-01

 Cycle   3  Pass 1  IDiag  1:
 RMSU=  5.98D-04    CP:  9.92D-01  2.25D+00
 E= -2630.63485045015     Delta-E=       -0.900236710839 Rises=F Damp=F
 DIIS: error= 3.69D-03 at cycle   3 NSaved=   3.
 NSaved= 3 IEnMin= 3 EnMin= -2630.63485045015     IErMin= 3 ErrMin= 3.69D-03
 ErrMax= 3.69D-03  0.00D+00 EMaxC= 1.00D-01 BMatC= 2.18D-01 BMatP= 2.50D+00
 IDIUse=3 WtCom= 9.63D-01 WtEn= 3.69D-02
 Coeff-Com: -0.341D+00 0.616D+00 0.725D+00
 Coeff-En:   0.000D+00 0.000D+00 0.100D+01
 Coeff:     -0.329D+00 0.594D+00 0.735D+00
 Gap=     0.081 Goal=   None    Shift=    0.000
 Gap=     0.117 Goal=   None    Shift=    0.000
 RMSDP=1.96D-04 MaxDP=1.83D-02 DE=-9.00D-01 OVMax= 3.46D-02

 Cycle   4  Pass 1  IDiag  1:
 RMSU=  1.94D-04    CP:  9.90D-01  2.18D+00  9.90D-01
 E= -2630.67197835887     Delta-E=       -0.037127908721 Rises=F Damp=F
 DIIS: error= 1.41D-03 at cycle   4 NSaved=   4.
 NSaved= 4 IEnMin= 4 EnMin= -2630.67197835887     IErMin= 4 ErrMin= 1.41D-03
 ErrMax= 1.41D-03  0.00D+00 EMaxC= 1.00D-01 BMatC= 3.31D-02 BMatP= 2.18D-01
 IDIUse=3 WtCom= 9.86D-01 WtEn= 1.41D-02
 Coeff-Com: -0.637D-01 0.101D+00 0.309D+00 0.653D+00
 Coeff-En:   0.000D+00 0.000D+00 0.435D-01 0.956D+00
 Coeff:     -0.628D-01 0.100D+00 0.306D+00 0.657D+00
 Gap=     0.085 Goal=   None    Shift=    0.000
 Gap=     0.120 Goal=   None    Shift=    0.000
 RMSDP=6.33D-05 MaxDP=6.33D-03 DE=-3.71D-02 OVMax= 1.81D-02

 Cycle   5  Pass 1  IDiag  1:
 RMSU=  5.54D-05    CP:  9.89D-01  2.17D+00  1.00D+00  8.51D-01
 E= -2630.67878585126     Delta-E=       -0.006807492391 Rises=F Damp=F
 DIIS: error= 5.53D-04 at cycle   5 NSaved=   5.
 NSaved= 5 IEnMin= 5 EnMin= -2630.67878585126     IErMin= 5 ErrMin= 5.53D-04
 ErrMax= 5.53D-04  0.00D+00 EMaxC= 1.00D-01 BMatC= 2.71D-03 BMatP= 3.31D-02
 IDIUse=3 WtCom= 9.94D-01 WtEn= 5.53D-03
 Coeff-Com: -0.138D-01 0.188D-01 0.107D+00 0.305D+00 0.583D+00
 Coeff-En:   0.000D+00 0.000D+00 0.000D+00 0.000D+00 0.100D+01
 Coeff:     -0.137D-01 0.187D-01 0.106D+00 0.304D+00 0.585D+00
 Gap=     0.087 Goal=   None    Shift=    0.000
 Gap=     0.122 Goal=   None    Shift=    0.000
 RMSDP=2.44D-05 MaxDP=2.36D-03 DE=-6.81D-03 OVMax= 1.44D-02

 Cycle   6  Pass 1  IDiag  1:
 RMSU=  2.26D-05    CP:  9.89D-01  2.17D+00  1.00D+00  8.94D-01  9.58D-01
 E= -2630.67949870750     Delta-E=       -0.000712856243 Rises=F Damp=F
 DIIS: error= 2.30D-04 at cycle   6 NSaved=   6.
 NSaved= 6 IEnMin= 6 EnMin= -2630.67949870750     IErMin= 6 ErrMin= 2.30D-04
 ErrMax= 2.30D-04  0.00D+00 EMaxC= 1.00D-01 BMatC= 3.31D-04 BMatP= 2.71D-03
 IDIUse=3 WtCom= 9.98D-01 WtEn= 2.30D-03
 Coeff-Com: -0.426D-03-0.646D-03 0.156D-01 0.644D-01 0.257D+00 0.664D+00
 Coeff-En:   0.000D+00 0.000D+00 0.000D+00 0.000D+00 0.000D+00 0.100D+01
 Coeff:     -0.425D-03-0.645D-03 0.156D-01 0.642D-01 0.257D+00 0.665D+00
 Gap=     0.089 Goal=   None    Shift=    0.000
 Gap=     0.123 Goal=   None    Shift=    0.000
 RMSDP=1.43D-05 MaxDP=1.92D-03 DE=-7.13D-04 OVMax= 9.01D-03

 Cycle   7  Pass 1  IDiag  1:
 RMSU=  1.20D-05    CP:  9.89D-01  2.17D+00  1.00D+00  8.99D-01  1.08D+00
                    CP:  1.08D+00
 E= -2630.67968972904     Delta-E=       -0.000191021538 Rises=F Damp=F
 DIIS: error= 1.75D-04 at cycle   7 NSaved=   7.
 NSaved= 7 IEnMin= 7 EnMin= -2630.67968972904     IErMin= 7 ErrMin= 1.75D-04
 ErrMax= 1.75D-04  0.00D+00 EMaxC= 1.00D-01 BMatC= 1.09D-04 BMatP= 3.31D-04
 IDIUse=3 WtCom= 9.98D-01 WtEn= 1.75D-03
 Coeff-Com:  0.428D-02-0.657D-02-0.264D-01-0.636D-01-0.503D-01 0.339D+00
 Coeff-Com:  0.803D+00
 Coeff-En:   0.000D+00 0.000D+00 0.000D+00 0.000D+00 0.000D+00 0.000D+00
 Coeff-En:   0.100D+01
 Coeff:      0.427D-02-0.655D-02-0.263D-01-0.635D-01-0.502D-01 0.339D+00
 Coeff:      0.804D+00
 Gap=     0.090 Goal=   None    Shift=    0.000
 Gap=     0.125 Goal=   None    Shift=    0.000
 RMSDP=1.26D-05 MaxDP=1.71D-03 DE=-1.91D-04 OVMax= 1.14D-02

 Cycle   8  Pass 1  IDiag  1:
 RMSU=  6.18D-06    CP:  9.89D-01  2.17D+00  1.01D+00  9.19D-01  1.19D+00
                    CP:  1.37D+00  1.41D+00
 E= -2630.67981020018     Delta-E=       -0.000120471139 Rises=F Damp=F
 DIIS: error= 8.57D-05 at cycle   8 NSaved=   8.
 NSaved= 8 IEnMin= 8 EnMin= -2630.67981020018     IErMin= 8 ErrMin= 8.57D-05
 ErrMax= 8.57D-05  0.00D+00 EMaxC= 1.00D-01 BMatC= 3.04D-05 BMatP= 1.09D-04
 IDIUse=1 WtCom= 1.00D+00 WtEn= 0.00D+00
 Coeff-Com:  0.144D-02-0.182D-02-0.129D-01-0.402D-01-0.940D-01-0.688D-01
 Coeff-Com:  0.311D+00 0.905D+00
 Coeff:      0.144D-02-0.182D-02-0.129D-01-0.402D-01-0.940D-01-0.688D-01
 Coeff:      0.311D+00 0.905D+00
 Gap=     0.092 Goal=   None    Shift=    0.000
 Gap=     0.126 Goal=   None    Shift=    0.000
 RMSDP=9.10D-06 MaxDP=1.24D-03 DE=-1.20D-04 OVMax= 9.00D-03

 Cycle   9  Pass 1  IDiag  1:
 RMSU=  3.08D-06    CP:  9.89D-01  2.17D+00  1.01D+00  9.29D-01  1.25D+00
                    CP:  1.55D+00  1.86D+00  1.46D+00
 E= -2630.67986205154     Delta-E=       -0.000051851355 Rises=F Damp=F
 DIIS: error= 4.38D-05 at cycle   9 NSaved=   9.
 NSaved= 9 IEnMin= 9 EnMin= -2630.67986205154     IErMin= 9 ErrMin= 4.38D-05
 ErrMax= 4.38D-05  0.00D+00 EMaxC= 1.00D-01 BMatC= 1.09D-05 BMatP= 3.04D-05
 IDIUse=1 WtCom= 1.00D+00 WtEn= 0.00D+00
 Coeff-Com: -0.864D-03 0.151D-02 0.389D-02 0.517D-02-0.222D-01-0.144D+00
 Coeff-Com: -0.158D+00 0.370D+00 0.945D+00
 Coeff:     -0.864D-03 0.151D-02 0.389D-02 0.517D-02-0.222D-01-0.144D+00
 Coeff:     -0.158D+00 0.370D+00 0.945D+00
 Gap=     0.093 Goal=   None    Shift=    0.000
 Gap=     0.126 Goal=   None    Shift=    0.000
 RMSDP=6.40D-06 MaxDP=8.24D-04 DE=-5.19D-05 OVMax= 5.98D-03

 Cycle  10  Pass 1  IDiag  1:
 RMSU=  1.89D-06    CP:  9.89D-01  2.17D+00  1.01D+00  9.32D-01  1.29D+00
                    CP:  1.67D+00  2.18D+00  1.95D+00  1.39D+00
 E= -2630.67988127792     Delta-E=       -0.000019226385 Rises=F Damp=F
 DIIS: error= 2.57D-05 at cycle  10 NSaved=  10.
 NSaved=10 IEnMin=10 EnMin= -2630.67988127792     IErMin=10 ErrMin= 2.57D-05
 ErrMax= 2.57D-05  0.00D+00 EMaxC= 1.00D-01 BMatC= 4.73D-06 BMatP= 1.09D-05
 IDIUse=1 WtCom= 1.00D+00 WtEn= 0.00D+00
 Coeff-Com: -0.934D-03 0.139D-02 0.631D-02 0.167D-01 0.206D-01-0.522D-01
 Coeff-Com: -0.198D+00-0.123D+00 0.557D+00 0.772D+00
 Coeff:     -0.934D-03 0.139D-02 0.631D-02 0.167D-01 0.206D-01-0.522D-01
 Coeff:     -0.198D+00-0.123D+00 0.557D+00 0.772D+00
 Gap=     0.093 Goal=   None    Shift=    0.000
 Gap=     0.127 Goal=   None    Shift=    0.000
 RMSDP=3.32D-06 MaxDP=3.72D-04 DE=-1.92D-05 OVMax= 3.21D-03

 Cycle  11  Pass 1  IDiag  1:
 RMSU=  1.03D-06    CP:  9.89D-01  2.17D+00  1.01D+00  9.34D-01  1.31D+00
                    CP:  1.72D+00  2.32D+00  2.20D+00  1.85D+00  1.13D+00
 E= -2630.67988609927     Delta-E=       -0.000004821346 Rises=F Damp=F
 DIIS: error= 1.27D-05 at cycle  11 NSaved=  11.
 NSaved=11 IEnMin=11 EnMin= -2630.67988609927     IErMin=11 ErrMin= 1.27D-05
 ErrMax= 1.27D-05  0.00D+00 EMaxC= 1.00D-01 BMatC= 1.04D-06 BMatP= 4.73D-06
 IDIUse=1 WtCom= 1.00D+00 WtEn= 0.00D+00
 Coeff-Com: -0.310D-03 0.406D-03 0.216D-02 0.720D-02 0.155D-01 0.951D-02
 Coeff-Com: -0.641D-01-0.148D+00 0.769D-01 0.378D+00 0.723D+00
 Coeff:     -0.310D-03 0.406D-03 0.216D-02 0.720D-02 0.155D-01 0.951D-02
 Coeff:     -0.641D-01-0.148D+00 0.769D-01 0.378D+00 0.723D+00
 Gap=     0.093 Goal=   None    Shift=    0.000
 Gap=     0.127 Goal=   None    Shift=    0.000
 RMSDP=1.09D-06 MaxDP=1.06D-04 DE=-4.82D-06 OVMax= 8.43D-04

 Cycle  12  Pass 1  IDiag  1:
 RMSU=  5.22D-07    CP:  9.89D-01  2.17D+00  1.01D+00  9.35D-01  1.31D+00
                    CP:  1.73D+00  2.35D+00  2.28D+00  1.96D+00  1.38D+00
                    CP:  1.16D+00
 E= -2630.67988696857     Delta-E=       -0.000000869306 Rises=F Damp=F
 DIIS: error= 7.35D-06 at cycle  12 NSaved=  12.
 NSaved=12 IEnMin=12 EnMin= -2630.67988696857     IErMin=12 ErrMin= 7.35D-06
 ErrMax= 7.35D-06  0.00D+00 EMaxC= 1.00D-01 BMatC= 2.22D-07 BMatP= 1.04D-06
 IDIUse=1 WtCom= 1.00D+00 WtEn= 0.00D+00
 Coeff-Com:  0.130D-03-0.213D-03-0.105D-02-0.231D-02-0.899D-03 0.182D-01
 Coeff-Com:  0.313D-01-0.977D-02-0.116D+00-0.118D+00 0.215D+00 0.983D+00
 Coeff:      0.130D-03-0.213D-03-0.105D-02-0.231D-02-0.899D-03 0.182D-01
 Coeff:      0.313D-01-0.977D-02-0.116D+00-0.118D+00 0.215D+00 0.983D+00
 Gap=     0.093 Goal=   None    Shift=    0.000
 Gap=     0.127 Goal=   None    Shift=    0.000
 RMSDP=6.35D-07 MaxDP=7.07D-05 DE=-8.69D-07 OVMax= 5.23D-04

 Cycle  13  Pass 1  IDiag  1:
 RMSU=  2.85D-07    CP:  9.89D-01  2.17D+00  1.01D+00  9.35D-01  1.31D+00
                    CP:  1.74D+00  2.36D+00  2.31D+00  2.04D+00  1.49D+00
                    CP:  1.48D+00  1.49D+00
 E= -2630.67988729796     Delta-E=       -0.000000329390 Rises=F Damp=F
 DIIS: error= 3.50D-06 at cycle  13 NSaved=  13.
 NSaved=13 IEnMin=13 EnMin= -2630.67988729796     IErMin=13 ErrMin= 3.50D-06
 ErrMax= 3.50D-06  0.00D+00 EMaxC= 1.00D-01 BMatC= 8.03D-08 BMatP= 2.22D-07
 IDIUse=1 WtCom= 1.00D+00 WtEn= 0.00D+00
 Coeff-Com:  0.129D-03-0.186D-03-0.890D-03-0.263D-02-0.415D-02 0.570D-02
 Coeff-Com:  0.260D-01 0.328D-01-0.567D-01-0.147D+00-0.110D+00 0.374D+00
 Coeff-Com:  0.883D+00
 Coeff:      0.129D-03-0.186D-03-0.890D-03-0.263D-02-0.415D-02 0.570D-02
 Coeff:      0.260D-01 0.328D-01-0.567D-01-0.147D+00-0.110D+00 0.374D+00
 Coeff:      0.883D+00
 Gap=     0.093 Goal=   None    Shift=    0.000
 Gap=     0.127 Goal=   None    Shift=    0.000
 RMSDP=3.82D-07 MaxDP=3.63D-05 DE=-3.29D-07 OVMax= 2.86D-04

 Cycle  14  Pass 1  IDiag  1:
 RMSU=  1.62D-07    CP:  9.89D-01  2.17D+00  1.01D+00  9.35D-01  1.32D+00
                    CP:  1.74D+00  2.36D+00  2.32D+00  2.06D+00  1.54D+00
                    CP:  1.67D+00  1.89D+00  1.43D+00
 E= -2630.67988741626     Delta-E=       -0.000000118296 Rises=F Damp=F
 DIIS: error= 2.66D-06 at cycle  14 NSaved=  14.
 NSaved=14 IEnMin=14 EnMin= -2630.67988741626     IErMin=14 ErrMin= 2.66D-06
 ErrMax= 2.66D-06  0.00D+00 EMaxC= 1.00D-01 BMatC= 3.24D-08 BMatP= 8.03D-08
 IDIUse=1 WtCom= 1.00D+00 WtEn= 0.00D+00
 Coeff-Com:  0.258D-04-0.292D-04-0.579D-04-0.473D-03-0.168D-02-0.280D-02
 Coeff-Com:  0.101D-02 0.176D-01 0.140D-01-0.292D-01-0.121D+00-0.152D+00
 Coeff-Com:  0.402D+00 0.872D+00
 Coeff:      0.258D-04-0.292D-04-0.579D-04-0.473D-03-0.168D-02-0.280D-02
 Coeff:      0.101D-02 0.176D-01 0.140D-01-0.292D-01-0.121D+00-0.152D+00
 Coeff:      0.402D+00 0.872D+00
 Gap=     0.093 Goal=   None    Shift=    0.000
 Gap=     0.127 Goal=   None    Shift=    0.000
 RMSDP=2.46D-07 MaxDP=2.59D-05 DE=-1.18D-07 OVMax= 1.69D-04

 Cycle  15  Pass 1  IDiag  1:
 RMSU=  1.00D-07    CP:  9.89D-01  2.17D+00  1.01D+00  9.35D-01  1.32D+00
                    CP:  1.74D+00  2.36D+00  2.32D+00  2.07D+00  1.56D+00
                    CP:  1.77D+00  2.11D+00  1.90D+00  1.39D+00
 E= -2630.67988746863     Delta-E=       -0.000000052376 Rises=F Damp=F
 DIIS: error= 2.35D-06 at cycle  15 NSaved=  15.
 NSaved=15 IEnMin=15 EnMin= -2630.67988746863     IErMin=15 ErrMin= 2.35D-06
 ErrMax= 2.35D-06  0.00D+00 EMaxC= 1.00D-01 BMatC= 1.44D-08 BMatP= 3.24D-08
 IDIUse=1 WtCom= 1.00D+00 WtEn= 0.00D+00
 Coeff-Com: -0.310D-04 0.491D-04 0.296D-03 0.699D-03 0.600D-03-0.356D-02
 Coeff-Com: -0.945D-02-0.279D-02 0.285D-01 0.403D-01-0.218D-01-0.221D+00
 Coeff-Com: -0.125D+00 0.450D+00 0.863D+00
 Coeff:     -0.310D-04 0.491D-04 0.296D-03 0.699D-03 0.600D-03-0.356D-02
 Coeff:     -0.945D-02-0.279D-02 0.285D-01 0.403D-01-0.218D-01-0.221D+00
 Coeff:     -0.125D+00 0.450D+00 0.863D+00
 Gap=     0.093 Goal=   None    Shift=    0.000
 Gap=     0.127 Goal=   None    Shift=    0.000
 RMSDP=1.75D-07 MaxDP=2.21D-05 DE=-5.24D-08 OVMax= 9.72D-05

 Cycle  16  Pass 1  IDiag  1:
 RMSU=  6.57D-08    CP:  9.89D-01  2.17D+00  1.01D+00  9.35D-01  1.32D+00
                    CP:  1.74D+00  2.36D+00  2.32D+00  2.08D+00  1.57D+00
                    CP:  1.82D+00  2.25D+00  2.21D+00  1.89D+00  1.48D+00
 E= -2630.67988749371     Delta-E=       -0.000000025075 Rises=F Damp=F
 DIIS: error= 1.63D-06 at cycle  16 NSaved=  16.
 NSaved=16 IEnMin=16 EnMin= -2630.67988749371     IErMin=16 ErrMin= 1.63D-06
 ErrMax= 1.63D-06  0.00D+00 EMaxC= 1.00D-01 BMatC= 7.12D-09 BMatP= 1.44D-08
 IDIUse=1 WtCom= 1.00D+00 WtEn= 0.00D+00
 Coeff-Com: -0.290D-04 0.409D-04 0.180D-03 0.578D-03 0.107D-02-0.624D-03
 Coeff-Com: -0.553D-02-0.917D-02 0.819D-02 0.351D-01 0.414D-01-0.525D-01
 Coeff-Com: -0.250D+00-0.137D+00 0.500D+00 0.868D+00
 Coeff:     -0.290D-04 0.409D-04 0.180D-03 0.578D-03 0.107D-02-0.624D-03
 Coeff:     -0.553D-02-0.917D-02 0.819D-02 0.351D-01 0.414D-01-0.525D-01
 Coeff:     -0.250D+00-0.137D+00 0.500D+00 0.868D+00
 Gap=     0.093 Goal=   None    Shift=    0.000
 Gap=     0.127 Goal=   None    Shift=    0.000
 RMSDP=1.32D-07 MaxDP=1.84D-05 DE=-2.51D-08 OVMax= 8.05D-05

 Cycle  17  Pass 1  IDiag  1:
 RMSU=  4.27D-08    CP:  9.89D-01  2.17D+00  1.01D+00  9.35D-01  1.32D+00
                    CP:  1.74D+00  2.36D+00  2.33D+00  2.08D+00  1.58D+00
                    CP:  1.85D+00  2.33D+00  2.42D+00  2.23D+00  2.16D+00
                    CP:  1.49D+00
 E= -2630.67988750841     Delta-E=       -0.000000014697 Rises=F Damp=F
 DIIS: error= 1.10D-06 at cycle  17 NSaved=  17.
 NSaved=17 IEnMin=17 EnMin= -2630.67988750841     IErMin=17 ErrMin= 1.10D-06
 ErrMax= 1.10D-06  0.00D+00 EMaxC= 1.00D-01 BMatC= 2.79D-09 BMatP= 7.12D-09
 IDIUse=1 WtCom= 1.00D+00 WtEn= 0.00D+00
 Coeff-Com:  0.186D-05-0.465D-05-0.670D-04-0.915D-04 0.114D-03 0.127D-02
 Coeff-Com:  0.217D-02-0.163D-02-0.102D-01-0.519D-02 0.223D-01 0.779D-01
 Coeff-Com: -0.290D-01-0.227D+00-0.193D+00 0.237D+00 0.113D+01
 Coeff:      0.186D-05-0.465D-05-0.670D-04-0.915D-04 0.114D-03 0.127D-02
 Coeff:      0.217D-02-0.163D-02-0.102D-01-0.519D-02 0.223D-01 0.779D-01
 Coeff:     -0.290D-01-0.227D+00-0.193D+00 0.237D+00 0.113D+01
 Gap=     0.093 Goal=   None    Shift=    0.000
 Gap=     0.127 Goal=   None    Shift=    0.000
 RMSDP=1.04D-07 MaxDP=1.60D-05 DE=-1.47D-08 OVMax= 7.09D-05

 Cycle  18  Pass 1  IDiag  1:
 RMSU=  2.44D-08    CP:  9.89D-01  2.17D+00  1.01D+00  9.36D-01  1.32D+00
                    CP:  1.74D+00  2.36D+00  2.33D+00  2.09D+00  1.58D+00
                    CP:  1.86D+00  2.36D+00  2.54D+00  2.48D+00  2.66D+00
                    CP:  2.26D+00  1.90D+00
 E= -2630.67988751680     Delta-E=       -0.000000008391 Rises=F Damp=F
 DIIS: error= 7.49D-07 at cycle  18 NSaved=  18.
 NSaved=18 IEnMin=18 EnMin= -2630.67988751680     IErMin=18 ErrMin= 7.49D-07
 ErrMax= 7.49D-07  0.00D+00 EMaxC= 1.00D-01 BMatC= 1.62D-09 BMatP= 2.79D-09
 IDIUse=1 WtCom= 1.00D+00 WtEn= 0.00D+00
 Coeff-Com:  0.167D-04-0.246D-04-0.129D-03-0.357D-03-0.554D-03 0.793D-03
 Coeff-Com:  0.401D-02 0.462D-02-0.936D-02-0.211D-01-0.136D-01 0.639D-01
 Coeff-Com:  0.127D+00-0.269D-01-0.371D+00-0.405D+00 0.562D+00 0.109D+01
 Coeff:      0.167D-04-0.246D-04-0.129D-03-0.357D-03-0.554D-03 0.793D-03
 Coeff:      0.401D-02 0.462D-02-0.936D-02-0.211D-01-0.136D-01 0.639D-01
 Coeff:      0.127D+00-0.269D-01-0.371D+00-0.405D+00 0.562D+00 0.109D+01
 Gap=     0.093 Goal=   None    Shift=    0.000
 Gap=     0.127 Goal=   None    Shift=    0.000
 RMSDP=9.62D-08 MaxDP=1.55D-05 DE=-8.39D-09 OVMax= 6.47D-05

 Cycle  19  Pass 1  IDiag  1:
 RMSU=  2.15D-08    CP:  9.89D-01  2.17D+00  1.01D+00  9.35D-01  1.32D+00
                    CP:  1.74D+00  2.36D+00  2.33D+00  2.09D+00  1.59D+00
                    CP:  1.87D+00  2.39D+00  2.63D+00  2.64D+00  3.00D+00
                    CP:  2.96D+00  2.96D+00  2.10D+00
 E= -2630.67988752231     Delta-E=       -0.000000005510 Rises=F Damp=F
 DIIS: error= 4.50D-07 at cycle  19 NSaved=  19.
 NSaved=19 IEnMin=19 EnMin= -2630.67988752231     IErMin=19 ErrMin= 4.50D-07
 ErrMax= 4.50D-07  0.00D+00 EMaxC= 1.00D-01 BMatC= 6.51D-10 BMatP= 1.62D-09
 IDIUse=1 WtCom= 1.00D+00 WtEn= 0.00D+00
 Coeff-Com:  0.414D-05-0.480D-05 0.623D-05-0.510D-04-0.259D-03-0.603D-03
 Coeff-Com: -0.138D-04 0.265D-02 0.312D-02-0.265D-02-0.188D-01-0.296D-01
 Coeff-Com:  0.616D-01 0.138D+00 0.451D-02-0.291D+00-0.510D+00 0.347D+00
 Coeff-Com:  0.130D+01
 Coeff:      0.414D-05-0.480D-05 0.623D-05-0.510D-04-0.259D-03-0.603D-03
 Coeff:     -0.138D-04 0.265D-02 0.312D-02-0.265D-02-0.188D-01-0.296D-01
 Coeff:      0.616D-01 0.138D+00 0.451D-02-0.291D+00-0.510D+00 0.347D+00
 Coeff:      0.130D+01
 Gap=     0.093 Goal=   None    Shift=    0.000
 Gap=     0.127 Goal=   None    Shift=    0.000
 RMSDP=8.40D-08 MaxDP=1.29D-05 DE=-5.51D-09 OVMax= 5.61D-05

 Cycle  20  Pass 1  IDiag  1:
 RMSU=  6.05D-08    CP:  9.89D-01  2.17D+00  1.01D+00  9.36D-01  1.32D+00
                    CP:  1.74D+00  2.36D+00  2.33D+00  2.09D+00  1.59D+00
                    CP:  1.87D+00  2.41D+00  2.69D+00  2.77D+00  3.00D+00
                    CP:  3.00D+00  3.00D+00  3.00D+00  2.54D+00
 E= -2630.67988752518     Delta-E=       -0.000000002870 Rises=F Damp=F
 DIIS: error= 1.97D-07 at cycle  20 NSaved=  20.
 NSaved=20 IEnMin=20 EnMin= -2630.67988752518     IErMin=20 ErrMin= 1.97D-07
 ErrMax= 1.97D-07  0.00D+00 EMaxC= 1.00D-01 BMatC= 2.38D-10 BMatP= 6.51D-10
 IDIUse=1 WtCom= 1.00D+00 WtEn= 0.00D+00
 Coeff-Com: -0.344D-05 0.572D-05 0.519D-04 0.108D-03 0.712D-04-0.608D-03
 Coeff-Com: -0.149D-02-0.374D-03 0.507D-02 0.699D-02-0.425D-02-0.407D-01
 Coeff-Com: -0.169D-01 0.770D-01 0.140D+00 0.112D-01-0.463D+00-0.238D+00
 Coeff-Com:  0.673D+00 0.852D+00
 Coeff:     -0.344D-05 0.572D-05 0.519D-04 0.108D-03 0.712D-04-0.608D-03
 Coeff:     -0.149D-02-0.374D-03 0.507D-02 0.699D-02-0.425D-02-0.407D-01
 Coeff:     -0.169D-01 0.770D-01 0.140D+00 0.112D-01-0.463D+00-0.238D+00
 Coeff:      0.673D+00 0.852D+00
 Gap=     0.093 Goal=   None    Shift=    0.000
 Gap=     0.127 Goal=   None    Shift=    0.000
 RMSDP=3.89D-08 MaxDP=6.13D-06 DE=-2.87D-09 OVMax= 2.57D-05

 Cycle  21  Pass 1  IDiag  1:
 Restarting incremental Fock formation.
 E= -2630.67988752552     Delta-E=       -0.000000000344 Rises=F Damp=F
 DIIS: error= 8.18D-08 at cycle  21 NSaved=  20.
 NSaved=20 IEnMin=20 EnMin= -2630.67988752552     IErMin=20 ErrMin= 8.18D-08
 ErrMax= 8.18D-08  0.00D+00 EMaxC= 1.00D-01 BMatC= 4.63D-11 BMatP= 2.38D-10
 IDIUse=1 WtCom= 1.00D+00 WtEn= 0.00D+00
 Coeff-Com: -0.247D-06 0.589D-05 0.263D-04 0.652D-04 0.321D-04-0.299D-03
 Coeff-Com: -0.697D-03 0.386D-03 0.227D-02 0.365D-02-0.362D-02-0.181D-01
 Coeff-Com: -0.159D-01 0.375D-01 0.829D-01-0.153D-01-0.162D+00-0.113D+00
 Coeff-Com:  0.235D+00 0.968D+00
 Coeff:     -0.247D-06 0.589D-05 0.263D-04 0.652D-04 0.321D-04-0.299D-03
 Coeff:     -0.697D-03 0.386D-03 0.227D-02 0.365D-02-0.362D-02-0.181D-01
 Coeff:     -0.159D-01 0.375D-01 0.829D-01-0.153D-01-0.162D+00-0.113D+00
 Coeff:      0.235D+00 0.968D+00
 Gap=     0.093 Goal=   None    Shift=    0.000
 Gap=     0.127 Goal=   None    Shift=    0.000
 RMSDP=1.58D-08 MaxDP=2.27D-06 DE=-3.44D-10 OVMax= 9.31D-06

 Cycle  22  Pass 1  IDiag  1:
 RMSU=  1.58D-08    CP:  1.00D+00
 E= -2630.67988752577     Delta-E=       -0.000000000246 Rises=F Damp=F
 DIIS: error= 4.57D-08 at cycle  22 NSaved=  20.
 NSaved=20 IEnMin=20 EnMin= -2630.67988752577     IErMin=20 ErrMin= 4.57D-08
 ErrMax= 4.57D-08  0.00D+00 EMaxC= 1.00D-01 BMatC= 1.57D-11 BMatP= 4.63D-11
 IDIUse=1 WtCom= 1.00D+00 WtEn= 0.00D+00
 Coeff-Com: -0.688D-05-0.813D-05 0.210D-04 0.163D-03 0.168D-03-0.255D-03
 Coeff-Com: -0.968D-03-0.678D-03 0.280D-02 0.840D-02-0.293D-02-0.273D-01
 Coeff-Com: -0.207D-01 0.330D-01 0.112D+00 0.532D-02-0.217D+00-0.181D+00
 Coeff-Com:  0.362D+00 0.927D+00
 Coeff:     -0.688D-05-0.813D-05 0.210D-04 0.163D-03 0.168D-03-0.255D-03
 Coeff:     -0.968D-03-0.678D-03 0.280D-02 0.840D-02-0.293D-02-0.273D-01
 Coeff:     -0.207D-01 0.330D-01 0.112D+00 0.532D-02-0.217D+00-0.181D+00
 Coeff:      0.362D+00 0.927D+00
 Gap=     0.093 Goal=   None    Shift=    0.000
 Gap=     0.127 Goal=   None    Shift=    0.000
 RMSDP=7.36D-09 MaxDP=9.83D-07 DE=-2.46D-10 OVMax= 4.55D-06

 Error on total polarization charges =  0.02181
 SCF Done:  E(UM062X) =  -2630.67988753     A.U. after   22 cycles
            NFock= 22  Conv=0.74D-08     -V/T= 2.0051
 <Sx>= 0.0000 <Sy>= 0.0000 <Sz>= 0.5000 <S**2>= 0.8433 S= 0.5456
 <L.S>= 0.000000000000E+00
 KE= 2.617271885153D+03 PE=-1.914121118467D+04 EE= 7.411940110285D+03
 Annihilation of the first spin contaminant:
 S**2 before annihilation     0.8433,   after     0.7554
 Leave Link  502 at Sat Oct 25 02:20:40 2025, MaxMem= 30870077440 cpu:          143884.0 elap:            2275.3
 (Enter /public/software/gauss/g16/l601.exe)
 Copying SCF densities to generalized density rwf, IOpCl= 1 IROHF=0.

 **********************************************************************

            Population analysis using the SCF density.

 **********************************************************************

 Orbital symmetries:
 Alpha Orbitals:
       Occupied  (A) (A) (A) (A) (A) (A) (A) (A) (A) (A) (A) (A)
                 (A) (A) (A) (A) (A) (A) (A) (A) (A) (A) (A) (A)
                 (A) (A) (A) (A) (A) (A) (A) (A) (A) (A) (A) (A)
                 (A) (A) (A) (A) (A) (A) (A) (A) (A) (A) (A) (A)
                 (A) (A) (A) (A) (A) (A) (A) (A) (A) (A) (A) (A)
                 (A) (A) (A) (A) (A) (A) (A) (A) (A) (A) (A) (A)
                 (A) (A) (A) (A) (A) (A) (A) (A) (A) (A) (A) (A)
                 (A) (A) (A) (A) (A) (A) (A) (A) (A) (A) (A) (A)
                 (A) (A) (A) (A) (A) (A) (A) (A) (A) (A) (A) (A)
                 (A) (A) (A) (A) (A) (A) (A) (A) (A) (A) (A) (A)
                 (A) (A) (A) (A) (A) (A) (A) (A) (A) (A) (A) (A)
                 (A) (A) (A) (A) (A) (A) (A) (A) (A) (A) (A) (A)
                 (A) (A) (A) (A) (A) (A) (A) (A) (A) (A) (A) (A)
                 (A) (A) (A) (A) (A) (A) (A) (A) (A) (A) (A) (A)
                 (A) (A) (A) (A) (A) (A) (A) (A) (A) (A) (A) (A)
                 (A) (A) (A) (A) (A) (A) (A)
       Virtual   (A) (A) (A) (A) (A) (A) (A) (A) (A) (A) (A) (A)
                 (A) (A) (A) (A) (A) (A) (A) (A) (A) (A) (A) (A)
                 (A) (A) (A) (A) (A) (A) (A) (A) (A) (A) (A) (A)
                 (A) (A) (A) (A) (A) (A) (A) (A) (A) (A) (A) (A)
                 (A) (A) (A) (A) (A) (A) (A) (A) (A) (A) (A) (A)
                 (A) (A) (A) (A) (A) (A) (A) (A) (A) (A) (A) (A)
                 (A) (A) (A) (A) (A) (A) (A) (A) (A) (A) (A) (A)
                 (A) (A) (A) (A) (A) (A) (A) (A) (A) (A) (A) (A)
                 (A) (A) (A) (A) (A) (A) (A) (A) (A) (A) (A) (A)
                 (A) (A) (A) (A) (A) (A) (A) (A) (A) (A) (A) (A)
                 (A) (A) (A) (A) (A) (A) (A) (A) (A) (A) (A) (A)
                 (A) (A) (A) (A) (A) (A) (A) (A) (A) (A) (A) (A)
                 (A) (A) (A) (A) (A) (A) (A) (A) (A) (A) (A) (A)
                 (A) (A) (A) (A) (A) (A) (A) (A) (A) (A) (A) (A)
                 (A) (A) (A) (A) (A) (A) (A) (A) (A) (A) (A) (A)
                 (A) (A) (A) (A) (A) (A) (A) (A) (A) (A) (A) (A)
                 (A) (A) (A) (A) (A) (A) (A) (A) (A) (A) (A) (A)
                 (A) (A) (A) (A) (A) (A) (A) (A) (A) (A) (A) (A)
                 (A) (A) (A) (A) (A) (A) (A) (A) (A) (A) (A) (A)
                 (A) (A) (A) (A) (A) (A) (A) (A) (A) (A) (A) (A)
                 (A) (A) (A) (A) (A) (A) (A) (A) (A) (A) (A) (A)
                 (A) (A) (A) (A) (A) (A) (A) (A) (A) (A) (A) (A)
                 (A) (A) (A) (A) (A) (A) (A) (A) (A) (A) (A) (A)
                 (A) (A) (A) (A) (A) (A) (A) (A) (A) (A) (A) (A)
                 (A) (A) (A) (A) (A) (A) (A) (A) (A) (A) (A) (A)
                 (A) (A) (A) (A) (A) (A) (A) (A) (A) (A) (A) (A)
                 (A) (A) (A) (A) (A) (A) (A) (A) (A) (A) (A) (A)
                 (A) (A) (A) (A) (A) (A) (A) (A) (A) (A) (A) (A)
                 (A) (A) (A) (A) (A) (A) (A) (A) (A) (A) (A) (A)
                 (A) (A) (A) (A) (A) (A) (A) (A) (A) (A) (A) (A)
                 (A) (A) (A) (A) (A) (A) (A) (A) (A) (A) (A) (A)
                 (A) (A) (A) (A) (A) (A) (A) (A) (A) (A) (A) (A)
                 (A) (A) (A) (A) (A) (A) (A) (A) (A) (A) (A) (A)
                 (A) (A) (A) (A) (A) (A) (A) (A) (A) (A) (A) (A)
                 (A) (A) (A) (A) (A) (A) (A) (A) (A) (A) (A) (A)
                 (A) (A) (A) (A) (A) (A) (A) (A) (A) (A) (A) (A)
                 (A) (A) (A) (A) (A) (A) (A) (A) (A) (A) (A) (A)
                 (A) (A) (A) (A) (A) (A) (A) (A) (A) (A) (A) (A)
                 (A) (A) (A) (A) (A) (A) (A) (A) (A) (A) (A) (A)
                 (A) (A) (A) (A) (A) (A) (A) (A) (A) (A) (A) (A)
                 (A) (A) (A) (A) (A) (A) (A) (A) (A) (A) (A) (A)
                 (A) (A) (A) (A) (A) (A) (A) (A) (A) (A) (A) (A)
                 (A) (A) (A) (A) (A) (A) (A) (A) (A) (A) (A) (A)
                 (A) (A) (A) (A) (A) (A) (A) (A) (A) (A) (A) (A)
                 (A) (A) (A) (A) (A) (A) (A) (A) (A) (A) (A) (A)
                 (A) (A) (A) (A) (A) (A) (A) (A) (A) (A) (A) (A)
                 (A) (A) (A) (A) (A) (A) (A) (A) (A) (A) (A) (A)
                 (A) (A) (A) (A) (A) (A) (A) (A) (A) (A) (A) (A)
                 (A) (A) (A) (A) (A) (A) (A) (A) (A) (A) (A) (A)
                 (A) (A) (A) (A) (A) (A) (A) (A) (A) (A) (A) (A)
                 (A) (A) (A) (A) (A) (A) (A) (A) (A) (A) (A) (A)
                 (A) (A) (A) (A) (A) (A) (A) (A) (A) (A) (A) (A)
                 (A) (A) (A) (A) (A) (A) (A) (A) (A) (A) (A) (A)
                 (A) (A) (A) (A) (A) (A) (A) (A) (A) (A) (A) (A)
                 (A) (A) (A) (A) (A) (A) (A) (A) (A) (A) (A) (A)
                 (A) (A) (A) (A) (A) (A) (A) (A) (A) (A) (A) (A)
                 (A) (A) (A) (A) (A) (A) (A) (A) (A) (A) (A) (A)
                 (A) (A) (A) (A) (A) (A) (A) (A) (A) (A) (A) (A)
                 (A) (A) (A) (A) (A) (A) (A) (A) (A) (A) (A) (A)
                 (A) (A) (A) (A) (A) (A) (A) (A) (A) (A) (A) (A)
                 (A) (A) (A) (A) (A) (A) (A) (A) (A) (A) (A) (A)
                 (A) (A) (A) (A) (A) (A) (A) (A) (A) (A) (A) (A)
                 (A) (A) (A) (A) (A) (A) (A) (A) (A) (A) (A) (A)
                 (A) (A) (A) (A) (A) (A) (A) (A) (A) (A) (A) (A)
                 (A) (A) (A) (A) (A) (A) (A) (A) (A) (A) (A) (A)
                 (A) (A) (A) (A) (A) (A) (A) (A) (A) (A) (A) (A)
                 (A) (A) (A) (A) (A) (A) (A) (A) (A) (A) (A) (A)
                 (A) (A) (A) (A) (A) (A) (A) (A) (A) (A) (A) (A)
                 (A) (A) (A) (A) (A) (A) (A) (A) (A) (A) (A) (A)
                 (A) (A) (A) (A) (A) (A) (A) (A) (A) (A) (A) (A)
                 (A) (A) (A) (A) (A) (A) (A) (A) (A) (A) (A) (A)
                 (A) (A) (A) (A) (A) (A) (A) (A) (A) (A) (A) (A)
                 (A) (A) (A) (A) (A) (A) (A) (A) (A) (A) (A) (A)
                 (A) (A) (A) (A) (A) (A) (A) (A) (A) (A) (A) (A)
                 (A) (A) (A) (A) (A) (A) (A) (A) (A) (A) (A) (A)
                 (A) (A) (A) (A) (A) (A) (A) (A) (A) (A) (A) (A)
                 (A) (A) (A) (A) (A) (A) (A) (A) (A) (A) (A) (A)
                 (A) (A) (A) (A) (A) (A) (A) (A) (A) (A) (A) (A)
                 (A) (A) (A) (A) (A) (A) (A) (A) (A) (A) (A) (A)
                 (A) (A) (A) (A) (A) (A) (A) (A) (A) (A) (A) (A)
                 (A) (A) (A) (A) (A) (A) (A) (A) (A) (A) (A) (A)
                 (A) (A) (A) (A) (A) (A) (A) (A) (A) (A) (A) (A)
                 (A) (A) (A) (A) (A) (A) (A) (A) (A) (A) (A) (A)
                 (A) (A) (A) (A) (A) (A) (A) (A) (A) (A) (A) (A)
                 (A) (A) (A) (A) (A) (A) (A) (A) (A) (A) (A) (A)
                 (A) (A) (A) (A) (A) (A) (A) (A) (A) (A) (A) (A)
                 (A) (A) (A) (A) (A) (A) (A) (A) (A) (A) (A) (A)
                 (A) (A) (A) (A) (A) (A) (A) (A) (A) (A) (A) (A)
                 (A) (A) (A) (A) (A) (A) (A) (A) (A) (A) (A) (A)
                 (A) (A) (A) (A) (A) (A) (A) (A) (A) (A) (A) (A)
                 (A) (A) (A) (A) (A) (A) (A) (A) (A) (A) (A) (A)
                 (A) (A) (A) (A) (A) (A) (A) (A) (A) (A) (A) (A)
                 (A) (A) (A) (A) (A) (A) (A) (A) (A) (A) (A) (A)
                 (A) (A) (A) (A) (A) (A) (A) (A) (A) (A) (A) (A)
                 (A) (A) (A) (A) (A) (A) (A) (A) (A) (A) (A) (A)
                 (A) (A) (A) (A) (A) (A) (A) (A) (A) (A) (A) (A)
                 (A) (A) (A) (A) (A) (A) (A) (A) (A) (A) (A) (A)
                 (A) (A) (A) (A) (A) (A) (A) (A) (A) (A) (A) (A)
                 (A) (A) (A) (A) (A) (A) (A) (A) (A) (A) (A) (A)
                 (A) (A) (A) (A) (A) (A) (A) (A) (A) (A) (A) (A)
                 (A) (A) (A) (A) (A) (A) (A) (A) (A) (A) (A) (A)
                 (A) (A) (A) (A) (A) (A) (A) (A) (A) (A) (A) (A)
                 (A) (A) (A) (A) (A) (A) (A) (A) (A) (A) (A) (A)
                 (A) (A) (A) (A) (A) (A) (A) (A) (A) (A) (A) (A)
                 (A) (A) (A) (A) (A) (A) (A) (A) (A) (A) (A) (A)
                 (A) (A) (A) (A) (A) (A) (A) (A) (A) (A) (A) (A)
                 (A) (A) (A) (A) (A) (A) (A) (A) (A) (A) (A) (A)
                 (A) (A) (A) (A) (A) (A) (A) (A) (A) (A) (A) (A)
                 (A) (A) (A) (A) (A) (A) (A) (A) (A) (A) (A) (A)
                 (A) (A) (A) (A) (A) (A) (A) (A) (A) (A) (A) (A)
                 (A) (A) (A) (A) (A) (A) (A) (A) (A) (A) (A) (A)
                 (A) (A) (A) (A) (A) (A) (A) (A) (A) (A) (A) (A)
                 (A) (A) (A) (A) (A) (A) (A) (A) (A) (A) (A) (A)
                 (A) (A) (A) (A) (A) (A) (A) (A) (A) (A) (A) (A)
                 (A) (A) (A) (A) (A) (A) (A) (A) (A) (A) (A) (A)
                 (A) (A) (A) (A) (A) (A) (A) (A) (A) (A) (A) (A)
                 (A) (A) (A) (A) (A) (A) (A) (A) (A) (A) (A) (A)
                 (A) (A) (A) (A) (A) (A) (A) (A) (A) (A) (A) (A)
                 (A) (A) (A) (A) (A) (A) (A) (A) (A) (A) (A) (A)
                 (A) (A) (A) (A) (A) (A) (A) (A) (A) (A) (A) (A)
                 (A) (A) (A) (A) (A) (A) (A) (A) (A) (A) (A) (A)
                 (A) (A) (A) (A) (A) (A) (A) (A) (A) (A) (A) (A)
                 (A) (A) (A) (A) (A) (A) (A) (A) (A) (A) (A) (A)
                 (A) (A) (A) (A) (A) (A) (A) (A) (A) (A) (A) (A)
                 (A) (A) (A) (A) (A) (A) (A) (A) (A) (A) (A) (A)
                 (A) (A) (A) (A) (A) (A) (A) (A) (A) (A) (A) (A)
                 (A) (A) (A) (A) (A) (A) (A) (A) (A) (A) (A) (A)
                 (A) (A) (A) (A) (A) (A) (A) (A) (A) (A) (A) (A)
                 (A) (A) (A) (A) (A) (A) (A) (A) (A) (A) (A) (A)
                 (A) (A) (A) (A) (A) (A) (A) (A) (A) (A) (A) (A)
                 (A) (A) (A) (A) (A) (A) (A) (A) (A) (A) (A) (A)
                 (A) (A) (A) (A) (A) (A) (A) (A) (A) (A) (A) (A)
                 (A) (A) (A) (A) (A) (A) (A) (A) (A) (A) (A) (A)
                 (A) (A) (A) (A) (A) (A) (A) (A) (A) (A) (A) (A)
                 (A) (A) (A) (A) (A) (A) (A) (A) (A) (A) (A) (A)
                 (A) (A) (A) (A) (A) (A) (A) (A) (A) (A) (A) (A)
                 (A) (A) (A) (A) (A) (A) (A) (A) (A) (A) (A) (A)
                 (A) (A) (A) (A) (A) (A) (A) (A) (A) (A) (A) (A)
                 (A) (A) (A) (A) (A) (A) (A) (A) (A) (A) (A) (A)
                 (A) (A) (A) (A) (A) (A) (A) (A) (A) (A) (A) (A)
                 (A) (A) (A) (A) (A) (A) (A) (A) (A) (A) (A) (A)
                 (A) (A) (A) (A) (A) (A) (A) (A) (A) (A) (A) (A)
                 (A) (A) (A) (A) (A) (A) (A) (A) (A) (A) (A) (A)
                 (A) (A) (A) (A) (A) (A) (A) (A) (A) (A) (A) (A)
                 (A) (A) (A) (A) (A) (A) (A) (A) (A) (A) (A) (A)
                 (A) (A) (A) (A) (A) (A) (A) (A) (A) (A) (A) (A)
                 (A) (A) (A) (A) (A) (A) (A) (A) (A) (A) (A) (A)
 Beta  Orbitals:
       Occupied  (A) (A) (A) (A) (A) (A) (A) (A) (A) (A) (A) (A)
                 (A) (A) (A) (A) (A) (A) (A) (A) (A) (A) (A) (A)
                 (A) (A) (A) (A) (A) (A) (A) (A) (A) (A) (A) (A)
                 (A) (A) (A) (A) (A) (A) (A) (A) (A) (A) (A) (A)
                 (A) (A) (A) (A) (A) (A) (A) (A) (A) (A) (A) (A)
                 (A) (A) (A) (A) (A) (A) (A) (A) (A) (A) (A) (A)
                 (A) (A) (A) (A) (A) (A) (A) (A) (A) (A) (A) (A)
                 (A) (A) (A) (A) (A) (A) (A) (A) (A) (A) (A) (A)
                 (A) (A) (A) (A) (A) (A) (A) (A) (A) (A) (A) (A)
                 (A) (A) (A) (A) (A) (A) (A) (A) (A) (A) (A) (A)
                 (A) (A) (A) (A) (A) (A) (A) (A) (A) (A) (A) (A)
                 (A) (A) (A) (A) (A) (A) (A) (A) (A) (A) (A) (A)
                 (A) (A) (A) (A) (A) (A) (A) (A) (A) (A) (A) (A)
                 (A) (A) (A) (A) (A) (A) (A) (A) (A) (A) (A) (A)
                 (A) (A) (A) (A) (A) (A) (A) (A) (A) (A) (A) (A)
                 (A) (A) (A) (A) (A) (A)
       Virtual   (A) (A) (A) (A) (A) (A) (A) (A) (A) (A) (A) (A)
                 (A) (A) (A) (A) (A) (A) (A) (A) (A) (A) (A) (A)
                 (A) (A) (A) (A) (A) (A) (A) (A) (A) (A) (A) (A)
                 (A) (A) (A) (A) (A) (A) (A) (A) (A) (A) (A) (A)
                 (A) (A) (A) (A) (A) (A) (A) (A) (A) (A) (A) (A)
                 (A) (A) (A) (A) (A) (A) (A) (A) (A) (A) (A) (A)
                 (A) (A) (A) (A) (A) (A) (A) (A) (A) (A) (A) (A)
                 (A) (A) (A) (A) (A) (A) (A) (A) (A) (A) (A) (A)
                 (A) (A) (A) (A) (A) (A) (A) (A) (A) (A) (A) (A)
                 (A) (A) (A) (A) (A) (A) (A) (A) (A) (A) (A) (A)
                 (A) (A) (A) (A) (A) (A) (A) (A) (A) (A) (A) (A)
                 (A) (A) (A) (A) (A) (A) (A) (A) (A) (A) (A) (A)
                 (A) (A) (A) (A) (A) (A) (A) (A) (A) (A) (A) (A)
                 (A) (A) (A) (A) (A) (A) (A) (A) (A) (A) (A) (A)
                 (A) (A) (A) (A) (A) (A) (A) (A) (A) (A) (A) (A)
                 (A) (A) (A) (A) (A) (A) (A) (A) (A) (A) (A) (A)
                 (A) (A) (A) (A) (A) (A) (A) (A) (A) (A) (A) (A)
                 (A) (A) (A) (A) (A) (A) (A) (A) (A) (A) (A) (A)
                 (A) (A) (A) (A) (A) (A) (A) (A) (A) (A) (A) (A)
                 (A) (A) (A) (A) (A) (A) (A) (A) (A) (A) (A) (A)
                 (A) (A) (A) (A) (A) (A) (A) (A) (A) (A) (A) (A)
                 (A) (A) (A) (A) (A) (A) (A) (A) (A) (A) (A) (A)
                 (A) (A) (A) (A) (A) (A) (A) (A) (A) (A) (A) (A)
                 (A) (A) (A) (A) (A) (A) (A) (A) (A) (A) (A) (A)
                 (A) (A) (A) (A) (A) (A) (A) (A) (A) (A) (A) (A)
                 (A) (A) (A) (A) (A) (A) (A) (A) (A) (A) (A) (A)
                 (A) (A) (A) (A) (A) (A) (A) (A) (A) (A) (A) (A)
                 (A) (A) (A) (A) (A) (A) (A) (A) (A) (A) (A) (A)
                 (A) (A) (A) (A) (A) (A) (A) (A) (A) (A) (A) (A)
                 (A) (A) (A) (A) (A) (A) (A) (A) (A) (A) (A) (A)
                 (A) (A) (A) (A) (A) (A) (A) (A) (A) (A) (A) (A)
                 (A) (A) (A) (A) (A) (A) (A) (A) (A) (A) (A) (A)
                 (A) (A) (A) (A) (A) (A) (A) (A) (A) (A) (A) (A)
                 (A) (A) (A) (A) (A) (A) (A) (A) (A) (A) (A) (A)
                 (A) (A) (A) (A) (A) (A) (A) (A) (A) (A) (A) (A)
                 (A) (A) (A) (A) (A) (A) (A) (A) (A) (A) (A) (A)
                 (A) (A) (A) (A) (A) (A) (A) (A) (A) (A) (A) (A)
                 (A) (A) (A) (A) (A) (A) (A) (A) (A) (A) (A) (A)
                 (A) (A) (A) (A) (A) (A) (A) (A) (A) (A) (A) (A)
                 (A) (A) (A) (A) (A) (A) (A) (A) (A) (A) (A) (A)
                 (A) (A) (A) (A) (A) (A) (A) (A) (A) (A) (A) (A)
                 (A) (A) (A) (A) (A) (A) (A) (A) (A) (A) (A) (A)
                 (A) (A) (A) (A) (A) (A) (A) (A) (A) (A) (A) (A)
                 (A) (A) (A) (A) (A) (A) (A) (A) (A) (A) (A) (A)
                 (A) (A) (A) (A) (A) (A) (A) (A) (A) (A) (A) (A)
                 (A) (A) (A) (A) (A) (A) (A) (A) (A) (A) (A) (A)
                 (A) (A) (A) (A) (A) (A) (A) (A) (A) (A) (A) (A)
                 (A) (A) (A) (A) (A) (A) (A) (A) (A) (A) (A) (A)
                 (A) (A) (A) (A) (A) (A) (A) (A) (A) (A) (A) (A)
                 (A) (A) (A) (A) (A) (A) (A) (A) (A) (A) (A) (A)
                 (A) (A) (A) (A) (A) (A) (A) (A) (A) (A) (A) (A)
                 (A) (A) (A) (A) (A) (A) (A) (A) (A) (A) (A) (A)
                 (A) (A) (A) (A) (A) (A) (A) (A) (A) (A) (A) (A)
                 (A) (A) (A) (A) (A) (A) (A) (A) (A) (A) (A) (A)
                 (A) (A) (A) (A) (A) (A) (A) (A) (A) (A) (A) (A)
                 (A) (A) (A) (A) (A) (A) (A) (A) (A) (A) (A) (A)
                 (A) (A) (A) (A) (A) (A) (A) (A) (A) (A) (A) (A)
                 (A) (A) (A) (A) (A) (A) (A) (A) (A) (A) (A) (A)
                 (A) (A) (A) (A) (A) (A) (A) (A) (A) (A) (A) (A)
                 (A) (A) (A) (A) (A) (A) (A) (A) (A) (A) (A) (A)
                 (A) (A) (A) (A) (A) (A) (A) (A) (A) (A) (A) (A)
                 (A) (A) (A) (A) (A) (A) (A) (A) (A) (A) (A) (A)
                 (A) (A) (A) (A) (A) (A) (A) (A) (A) (A) (A) (A)
                 (A) (A) (A) (A) (A) (A) (A) (A) (A) (A) (A) (A)
                 (A) (A) (A) (A) (A) (A) (A) (A) (A) (A) (A) (A)
                 (A) (A) (A) (A) (A) (A) (A) (A) (A) (A) (A) (A)
                 (A) (A) (A) (A) (A) (A) (A) (A) (A) (A) (A) (A)
                 (A) (A) (A) (A) (A) (A) (A) (A) (A) (A) (A) (A)
                 (A) (A) (A) (A) (A) (A) (A) (A) (A) (A) (A) (A)
                 (A) (A) (A) (A) (A) (A) (A) (A) (A) (A) (A) (A)
                 (A) (A) (A) (A) (A) (A) (A) (A) (A) (A) (A) (A)
                 (A) (A) (A) (A) (A) (A) (A) (A) (A) (A) (A) (A)
                 (A) (A) (A) (A) (A) (A) (A) (A) (A) (A) (A) (A)
                 (A) (A) (A) (A) (A) (A) (A) (A) (A) (A) (A) (A)
                 (A) (A) (A) (A) (A) (A) (A) (A) (A) (A) (A) (A)
                 (A) (A) (A) (A) (A) (A) (A) (A) (A) (A) (A) (A)
                 (A) (A) (A) (A) (A) (A) (A) (A) (A) (A) (A) (A)
                 (A) (A) (A) (A) (A) (A) (A) (A) (A) (A) (A) (A)
                 (A) (A) (A) (A) (A) (A) (A) (A) (A) (A) (A) (A)
                 (A) (A) (A) (A) (A) (A) (A) (A) (A) (A) (A) (A)
                 (A) (A) (A) (A) (A) (A) (A) (A) (A) (A) (A) (A)
                 (A) (A) (A) (A) (A) (A) (A) (A) (A) (A) (A) (A)
                 (A) (A) (A) (A) (A) (A) (A) (A) (A) (A) (A) (A)
                 (A) (A) (A) (A) (A) (A) (A) (A) (A) (A) (A) (A)
                 (A) (A) (A) (A) (A) (A) (A) (A) (A) (A) (A) (A)
                 (A) (A) (A) (A) (A) (A) (A) (A) (A) (A) (A) (A)
                 (A) (A) (A) (A) (A) (A) (A) (A) (A) (A) (A) (A)
                 (A) (A) (A) (A) (A) (A) (A) (A) (A) (A) (A) (A)
                 (A) (A) (A) (A) (A) (A) (A) (A) (A) (A) (A) (A)
                 (A) (A) (A) (A) (A) (A) (A) (A) (A) (A) (A) (A)
                 (A) (A) (A) (A) (A) (A) (A) (A) (A) (A) (A) (A)
                 (A) (A) (A) (A) (A) (A) (A) (A) (A) (A) (A) (A)
                 (A) (A) (A) (A) (A) (A) (A) (A) (A) (A) (A) (A)
                 (A) (A) (A) (A) (A) (A) (A) (A) (A) (A) (A) (A)
                 (A) (A) (A) (A) (A) (A) (A) (A) (A) (A) (A) (A)
                 (A) (A) (A) (A) (A) (A) (A) (A) (A) (A) (A) (A)
                 (A) (A) (A) (A) (A) (A) (A) (A) (A) (A) (A) (A)
                 (A) (A) (A) (A) (A) (A) (A) (A) (A) (A) (A) (A)
                 (A) (A) (A) (A) (A) (A) (A) (A) (A) (A) (A) (A)
                 (A) (A) (A) (A) (A) (A) (A) (A) (A) (A) (A) (A)
                 (A) (A) (A) (A) (A) (A) (A) (A) (A) (A) (A) (A)
                 (A) (A) (A) (A) (A) (A) (A) (A) (A) (A) (A) (A)
                 (A) (A) (A) (A) (A) (A) (A) (A) (A) (A) (A) (A)
                 (A) (A) (A) (A) (A) (A) (A) (A) (A) (A) (A) (A)
                 (A) (A) (A) (A) (A) (A) (A) (A) (A) (A) (A) (A)
                 (A) (A) (A) (A) (A) (A) (A) (A) (A) (A) (A) (A)
                 (A) (A) (A) (A) (A) (A) (A) (A) (A) (A) (A) (A)
                 (A) (A) (A) (A) (A) (A) (A) (A) (A) (A) (A) (A)
                 (A) (A) (A) (A) (A) (A) (A) (A) (A) (A) (A) (A)
                 (A) (A) (A) (A) (A) (A) (A) (A) (A) (A) (A) (A)
                 (A) (A) (A) (A) (A) (A) (A) (A) (A) (A) (A) (A)
                 (A) (A) (A) (A) (A) (A) (A) (A) (A) (A) (A) (A)
                 (A) (A) (A) (A) (A) (A) (A) (A) (A) (A) (A) (A)
                 (A) (A) (A) (A) (A) (A) (A) (A) (A) (A) (A) (A)
                 (A) (A) (A) (A) (A) (A) (A) (A) (A) (A) (A) (A)
                 (A) (A) (A) (A) (A) (A) (A) (A) (A) (A) (A) (A)
                 (A) (A) (A) (A) (A) (A) (A) (A) (A) (A) (A) (A)
                 (A) (A) (A) (A) (A) (A) (A) (A) (A) (A) (A) (A)
                 (A) (A) (A) (A) (A) (A) (A) (A) (A) (A) (A) (A)
                 (A) (A) (A) (A) (A) (A) (A) (A) (A) (A) (A) (A)
                 (A) (A) (A) (A) (A) (A) (A) (A) (A) (A) (A) (A)
                 (A) (A) (A) (A) (A) (A) (A) (A) (A) (A) (A) (A)
                 (A) (A) (A) (A) (A) (A) (A) (A) (A) (A) (A) (A)
                 (A) (A) (A) (A) (A) (A) (A) (A) (A) (A) (A) (A)
                 (A) (A) (A) (A) (A) (A) (A) (A) (A) (A) (A) (A)
                 (A) (A) (A) (A) (A) (A) (A) (A) (A) (A) (A) (A)
                 (A) (A) (A) (A) (A) (A) (A) (A) (A) (A) (A) (A)
                 (A) (A) (A) (A) (A) (A) (A) (A) (A) (A) (A) (A)
                 (A) (A) (A) (A) (A) (A) (A) (A) (A) (A) (A) (A)
                 (A) (A) (A) (A) (A) (A) (A) (A) (A) (A) (A) (A)
                 (A) (A) (A) (A) (A) (A) (A) (A) (A) (A) (A) (A)
                 (A) (A) (A) (A) (A) (A) (A) (A) (A) (A) (A) (A)
                 (A) (A) (A) (A) (A) (A) (A) (A) (A) (A) (A) (A)
                 (A) (A) (A) (A) (A) (A) (A) (A) (A) (A) (A) (A)
                 (A) (A) (A) (A) (A) (A) (A) (A) (A) (A) (A) (A)
                 (A) (A) (A) (A) (A) (A) (A) (A) (A) (A) (A) (A)
                 (A) (A) (A) (A) (A) (A) (A) (A) (A) (A) (A) (A)
                 (A) (A) (A) (A) (A) (A) (A) (A) (A) (A) (A) (A)
                 (A) (A) (A) (A) (A) (A) (A) (A) (A) (A) (A) (A)
                 (A) (A) (A) (A) (A) (A) (A) (A) (A) (A) (A) (A)
                 (A) (A) (A) (A) (A) (A) (A) (A) (A) (A) (A) (A)
                 (A) (A) (A) (A) (A) (A) (A) (A) (A) (A) (A) (A)
                 (A) (A) (A) (A) (A) (A) (A) (A) (A) (A) (A) (A)
                 (A) (A) (A) (A) (A) (A) (A) (A) (A) (A) (A) (A)
                 (A) (A) (A) (A) (A) (A) (A) (A) (A) (A) (A) (A)
                 (A) (A) (A) (A) (A) (A) (A) (A) (A) (A) (A) (A)
                 (A) (A) (A) (A) (A) (A) (A) (A) (A) (A) (A) (A)
                 (A)
 The electronic state is 2-A.
 Alpha  occ. eigenvalues --  -25.20222 -25.19913 -19.67865 -19.67862 -19.67701
 Alpha  occ. eigenvalues --  -19.67631 -19.67536 -19.67302 -19.67076 -19.67009
 Alpha  occ. eigenvalues --  -19.67001 -19.66961 -15.01336 -15.01118 -15.01022
 Alpha  occ. eigenvalues --  -15.00643 -15.00582 -14.77706 -14.77653 -10.62432
 Alpha  occ. eigenvalues --  -10.62331 -10.61825 -10.61477 -10.61453 -10.60382
 Alpha  occ. eigenvalues --  -10.60325 -10.59353 -10.59255 -10.59253 -10.59240
 Alpha  occ. eigenvalues --  -10.58990 -10.58944 -10.58692 -10.58134 -10.58095
 Alpha  occ. eigenvalues --  -10.57920 -10.57886 -10.57881 -10.57182 -10.57169
 Alpha  occ. eigenvalues --  -10.57006 -10.57002 -10.56795 -10.56456 -10.56206
 Alpha  occ. eigenvalues --  -10.56119 -10.55928 -10.55658 -10.54420 -10.54387
 Alpha  occ. eigenvalues --  -10.53803 -10.53770  -7.12575  -1.36857  -1.36468
 Alpha  occ. eigenvalues --   -1.36243  -1.35640  -1.35506  -1.31993  -1.28708
 Alpha  occ. eigenvalues --   -1.18366  -1.17978  -1.17698  -1.17185  -1.17058
 Alpha  occ. eigenvalues --   -1.10081  -1.08078  -1.01949  -1.01929  -1.00737
 Alpha  occ. eigenvalues --   -0.95469  -0.95305  -0.94717  -0.92714  -0.92536
 Alpha  occ. eigenvalues --   -0.90996  -0.90302  -0.90115  -0.89255  -0.87712
 Alpha  occ. eigenvalues --   -0.87528  -0.84002  -0.83224  -0.82185  -0.82124
 Alpha  occ. eigenvalues --   -0.80299  -0.79985  -0.79626  -0.77545  -0.74162
 Alpha  occ. eigenvalues --   -0.72475  -0.72381  -0.71660  -0.70893  -0.69814
 Alpha  occ. eigenvalues --   -0.69641  -0.68878  -0.68598  -0.67015  -0.66531
 Alpha  occ. eigenvalues --   -0.66236  -0.65944  -0.64797  -0.64484  -0.63434
 Alpha  occ. eigenvalues --   -0.63375  -0.63327  -0.62711  -0.62669  -0.62573
 Alpha  occ. eigenvalues --   -0.62254  -0.62228  -0.61867  -0.61166  -0.60800
 Alpha  occ. eigenvalues --   -0.60702  -0.60625  -0.60057  -0.60034  -0.58498
 Alpha  occ. eigenvalues --   -0.58019  -0.57720  -0.57506  -0.55467  -0.55363
 Alpha  occ. eigenvalues --   -0.55185  -0.54406  -0.53678  -0.53594  -0.52809
 Alpha  occ. eigenvalues --   -0.52725  -0.52053  -0.51950  -0.51692  -0.51365
 Alpha  occ. eigenvalues --   -0.50777  -0.49892  -0.49407  -0.48881  -0.48469
 Alpha  occ. eigenvalues --   -0.48439  -0.48100  -0.47708  -0.47611  -0.47443
 Alpha  occ. eigenvalues --   -0.46922  -0.46688  -0.46276  -0.46189  -0.46005
 Alpha  occ. eigenvalues --   -0.45487  -0.45229  -0.44889  -0.43849  -0.43643
 Alpha  occ. eigenvalues --   -0.43179  -0.42763  -0.42407  -0.41603  -0.41035
 Alpha  occ. eigenvalues --   -0.41019  -0.40875  -0.40768  -0.40476  -0.40144
 Alpha  occ. eigenvalues --   -0.40084  -0.39702  -0.39687  -0.39444  -0.39353
 Alpha  occ. eigenvalues --   -0.39312  -0.39278  -0.38950  -0.38924  -0.38761
 Alpha  occ. eigenvalues --   -0.38750  -0.36605  -0.35126  -0.35027  -0.33798
 Alpha  occ. eigenvalues --   -0.33575  -0.33160  -0.32177  -0.31099  -0.29855
 Alpha  occ. eigenvalues --   -0.24164  -0.19240
 Alpha virt. eigenvalues --   -0.09916  -0.07574  -0.07330  -0.07115  -0.07001
 Alpha virt. eigenvalues --   -0.02419  -0.00899  -0.00494   0.00885   0.01877
 Alpha virt. eigenvalues --    0.02315   0.05005   0.05289   0.05717   0.07189
 Alpha virt. eigenvalues --    0.07496   0.08197   0.08409   0.08936   0.09388
 Alpha virt. eigenvalues --    0.09478   0.09663   0.09904   0.10249   0.10739
 Alpha virt. eigenvalues --    0.11125   0.11338   0.11902   0.12337   0.12711
 Alpha virt. eigenvalues --    0.13003   0.13117   0.13395   0.13692   0.13847
 Alpha virt. eigenvalues --    0.14304   0.14774   0.15202   0.15693   0.15813
 Alpha virt. eigenvalues --    0.15847   0.16068   0.16435   0.16619   0.17169
 Alpha virt. eigenvalues --    0.17368   0.17725   0.18047   0.18118   0.18330
 Alpha virt. eigenvalues --    0.18587   0.19018   0.19225   0.19711   0.19955
 Alpha virt. eigenvalues --    0.20373   0.20585   0.20692   0.20909   0.21065
 Alpha virt. eigenvalues --    0.21450   0.21673   0.21889   0.22275   0.22439
 Alpha virt. eigenvalues --    0.22540   0.22800   0.23045   0.23140   0.23451
 Alpha virt. eigenvalues --    0.23695   0.23949   0.24187   0.24656   0.24781
 Alpha virt. eigenvalues --    0.25108   0.25391   0.25991   0.26130   0.26219
 Alpha virt. eigenvalues --    0.26389   0.26690   0.26803   0.26923   0.27015
 Alpha virt. eigenvalues --    0.27204   0.27425   0.27607   0.27862   0.28304
 Alpha virt. eigenvalues --    0.28625   0.28878   0.28928   0.29362   0.29459
 Alpha virt. eigenvalues --    0.29568   0.29844   0.30057   0.30231   0.30485
 Alpha virt. eigenvalues --    0.30885   0.30913   0.31333   0.31552   0.31749
 Alpha virt. eigenvalues --    0.31952   0.32349   0.32777   0.33044   0.33183
 Alpha virt. eigenvalues --    0.33317   0.33661   0.33695   0.34007   0.34201
 Alpha virt. eigenvalues --    0.34438   0.34668   0.34814   0.34947   0.35116
 Alpha virt. eigenvalues --    0.35362   0.35520   0.35660   0.35875   0.35975
 Alpha virt. eigenvalues --    0.36172   0.36490   0.36616   0.36884   0.37068
 Alpha virt. eigenvalues --    0.37293   0.37388   0.37506   0.38042   0.38113
 Alpha virt. eigenvalues --    0.38309   0.38797   0.38997   0.39326   0.39455
 Alpha virt. eigenvalues --    0.39507   0.39586   0.40017   0.40378   0.40523
 Alpha virt. eigenvalues --    0.40719   0.40863   0.41078   0.41258   0.41423
 Alpha virt. eigenvalues --    0.41632   0.41769   0.42129   0.42350   0.42473
 Alpha virt. eigenvalues --    0.42711   0.42902   0.43275   0.43480   0.43644
 Alpha virt. eigenvalues --    0.43763   0.43956   0.44143   0.44726   0.44797
 Alpha virt. eigenvalues --    0.44956   0.45096   0.45385   0.45806   0.45897
 Alpha virt. eigenvalues --    0.46174   0.46420   0.47002   0.47200   0.47479
 Alpha virt. eigenvalues --    0.47740   0.47812   0.48014   0.48036   0.48178
 Alpha virt. eigenvalues --    0.48572   0.48781   0.48818   0.48916   0.49268
 Alpha virt. eigenvalues --    0.49471   0.49627   0.49724   0.49796   0.50038
 Alpha virt. eigenvalues --    0.50537   0.50709   0.50900   0.50964   0.51337
 Alpha virt. eigenvalues --    0.51544   0.51750   0.51866   0.52035   0.52277
 Alpha virt. eigenvalues --    0.52387   0.52601   0.52869   0.53090   0.53215
 Alpha virt. eigenvalues --    0.53429   0.53565   0.53682   0.54043   0.54378
 Alpha virt. eigenvalues --    0.54661   0.55003   0.55257   0.55321   0.55670
 Alpha virt. eigenvalues --    0.55837   0.56081   0.56320   0.56679   0.56696
 Alpha virt. eigenvalues --    0.56840   0.57231   0.57524   0.57566   0.57992
 Alpha virt. eigenvalues --    0.58070   0.58695   0.58950   0.59111   0.59396
 Alpha virt. eigenvalues --    0.59832   0.60105   0.60168   0.60517   0.60751
 Alpha virt. eigenvalues --    0.61282   0.61469   0.61766   0.61972   0.62232
 Alpha virt. eigenvalues --    0.62520   0.62587   0.62675   0.62983   0.63003
[...]
              Bcc     0.0705     9.456     3.374     3.154 -0.0823 -0.1752  0.9811
 
              Baa    -0.0092    -0.355    -0.127    -0.119 -0.3429  0.9285  0.1428
    11 N(14)  Bbb    -0.0076    -0.294    -0.105    -0.098  0.9390  0.3342  0.0816
              Bcc     0.0168     0.649     0.232     0.217 -0.0281 -0.1620  0.9864
 
              Baa    -0.0700     5.067     1.808     1.690  0.9071 -0.4209 -0.0072
    12 O(17)  Bbb    -0.0669     4.840     1.727     1.614  0.4116  0.8831  0.2251
              Bcc     0.1369    -9.907    -3.535    -3.305 -0.0884 -0.2072  0.9743
 
              Baa    -0.0438     3.169     1.131     1.057  0.1892  0.9629  0.1924
    13 O(17)  Bbb    -0.0426     3.081     1.099     1.028  0.9810 -0.1941  0.0068
              Bcc     0.0864    -6.250    -2.230    -2.085 -0.0439 -0.1874  0.9813
 
              Baa    -0.0316    -4.235    -1.511    -1.413 -0.0306 -0.2125  0.9767
    14 C(13)  Bbb     0.0133     1.788     0.638     0.596  0.7494 -0.6515 -0.1183
              Bcc     0.0182     2.447     0.873     0.816  0.6614  0.7283  0.1792
 
              Baa    -0.0311    -4.170    -1.488    -1.391  0.9633 -0.2381 -0.1238
    15 C(13)  Bbb    -0.0296    -3.970    -1.417    -1.324  0.2662  0.9062  0.3285
              Bcc     0.0607     8.140     2.904     2.715  0.0339 -0.3494  0.9363
 
              Baa    -0.0078    -0.300    -0.107    -0.100  0.5091  0.4881  0.7089
    16 N(14)  Bbb    -0.0063    -0.245    -0.087    -0.082 -0.5742  0.8062 -0.1427
              Bcc     0.0141     0.545     0.195     0.182 -0.6412 -0.3343  0.6907
 
              Baa    -0.0471     3.410     1.217     1.138  0.1544  0.9644  0.2148
    17 O(17)  Bbb    -0.0442     3.197     1.141     1.066  0.8227 -0.2459  0.5126
              Bcc     0.0913    -6.607    -2.358    -2.204 -0.5472 -0.0976  0.8313
 
              Baa    -0.0233     1.688     0.602     0.563 -0.5981  0.8013 -0.0129
    18 O(17)  Bbb    -0.0227     1.639     0.585     0.547  0.5080  0.3915  0.7673
              Bcc     0.0460    -3.327    -1.187    -1.110 -0.6199 -0.4523  0.6412
 
              Baa    -0.0713    -2.748    -0.981    -0.917 -0.0547  0.9982  0.0233
    19 N(14)  Bbb    -0.0609    -2.350    -0.838    -0.784  0.9984  0.0551 -0.0143
              Bcc     0.1322     5.098     1.819     1.700  0.0156 -0.0225  0.9996
 
              Baa    -0.1177   -15.795    -5.636    -5.269 -0.0006  0.0071  1.0000
    20 C(13)  Bbb     0.0535     7.181     2.563     2.395 -0.6871  0.7266 -0.0055
              Bcc     0.0642     8.613     3.073     2.873  0.7266  0.6870 -0.0044
 
              Baa    -0.1702   -22.839    -8.150    -7.618  0.0211  0.9996 -0.0200
    21 C(13)  Bbb    -0.1640   -22.002    -7.851    -7.339  0.9997 -0.0209  0.0083
              Bcc     0.3342    44.841    16.000    14.957 -0.0079  0.0202  0.9998
 
              Baa    -0.0047    -0.633    -0.226    -0.211  0.0103  0.9942 -0.1069
    22 C(13)  Bbb     0.0007     0.093     0.033     0.031  0.9998 -0.0120 -0.0155
              Bcc     0.0040     0.540     0.193     0.180  0.0167  0.1068  0.9941
 
              Baa    -0.0061    -0.825    -0.294    -0.275  0.5817 -0.0236  0.8131
    23 C(13)  Bbb    -0.0050    -0.670    -0.239    -0.224  0.1100  0.9927 -0.0499
              Bcc     0.0111     1.495     0.534     0.499  0.8059 -0.1185 -0.5800
 
              Baa    -0.0025    -0.341    -0.122    -0.114 -0.0276  0.9980 -0.0566
    24 C(13)  Bbb    -0.0010    -0.139    -0.050    -0.046  0.1842  0.0608  0.9810
              Bcc     0.0036     0.480     0.171     0.160  0.9825  0.0167 -0.1855
 
              Baa    -0.0008    -0.113    -0.040    -0.038 -0.0116  0.1079  0.9941
    25 C(13)  Bbb     0.0000     0.002     0.001     0.001  0.0097  0.9941 -0.1078
              Bcc     0.0008     0.111     0.040     0.037  0.9999 -0.0084  0.0126
 
              Baa    -0.0003    -0.012    -0.004    -0.004  0.0094  0.9818 -0.1896
    26 N(14)  Bbb    -0.0002    -0.008    -0.003    -0.003 -0.0110  0.1897  0.9818
              Bcc     0.0005     0.020     0.007     0.007  0.9999 -0.0071  0.0125
 
              Baa    -0.0005     0.036     0.013     0.012  0.0619 -0.4237  0.9037
    27 O(17)  Bbb    -0.0001     0.006     0.002     0.002 -0.6211  0.6924  0.3671
              Bcc     0.0006    -0.041    -0.015    -0.014  0.7813  0.5840  0.2203
 
              Baa    -0.0005     0.036     0.013     0.012 -0.0776 -0.3942  0.9157
    28 O(17)  Bbb    -0.0001     0.005     0.002     0.002  0.6513  0.6754  0.3459
              Bcc     0.0006    -0.042    -0.015    -0.014  0.7549 -0.6232 -0.2043
 
              Baa    -0.0026    -0.349    -0.124    -0.116  0.0457  0.9973 -0.0567
    29 C(13)  Bbb    -0.0011    -0.147    -0.052    -0.049 -0.2023  0.0648  0.9772
              Bcc     0.0037     0.496     0.177     0.165  0.9783 -0.0332  0.2047
 
              Baa    -0.0063    -0.841    -0.300    -0.281 -0.6129 -0.0053  0.7901
    30 C(13)  Bbb    -0.0051    -0.687    -0.245    -0.229 -0.0836  0.9948 -0.0582
              Bcc     0.0114     1.529     0.545     0.510  0.7857  0.1017  0.6102
 
              Baa    -0.1162   -15.594    -5.564    -5.202  0.0109  0.0430  0.9990
    31 C(13)  Bbb     0.0529     7.095     2.532     2.367  0.7029  0.7102 -0.0382
              Bcc     0.0633     8.499     3.033     2.835  0.7112 -0.7027  0.0225
 
              Baa    -0.0438    -5.873    -2.096    -1.959  0.8590  0.5093 -0.0527
    32 C(13)  Bbb    -0.0429    -5.755    -2.053    -1.920 -0.5117  0.8576 -0.0525
              Bcc     0.0867    11.628     4.149     3.879  0.0185  0.0720  0.9972
 
              Baa    -0.0008    -0.107    -0.038    -0.036  0.8260 -0.5580  0.0799
    33 C(13)  Bbb     0.0000     0.004     0.001     0.001 -0.0487  0.0706  0.9963
              Bcc     0.0008     0.103     0.037     0.034  0.5616  0.8268 -0.0311
 
              Baa    -0.0695    -9.320    -3.326    -3.109  0.0286  0.0635  0.9976
    34 C(13)  Bbb     0.0328     4.407     1.572     1.470  0.3152  0.9465 -0.0693
              Bcc     0.0366     4.913     1.753     1.639  0.9486 -0.3164 -0.0071
 
              Baa    -0.0581    -7.795    -2.781    -2.600  0.4800  0.8757 -0.0523
    35 C(13)  Bbb    -0.0524    -7.032    -2.509    -2.346  0.8772 -0.4798  0.0166
              Bcc     0.1105    14.826     5.290     4.945  0.0105  0.0539  0.9985
 
              Baa    -0.0186    -2.494    -0.890    -0.832  0.0013  0.0922  0.9957
    36 C(13)  Bbb     0.0043     0.576     0.206     0.192  0.4536  0.8873 -0.0828
              Bcc     0.0143     1.918     0.684     0.640  0.8912 -0.4518  0.0407
 
              Baa    -0.0602    -8.083    -2.884    -2.696  0.1203  0.9905  0.0669
    37 C(13)  Bbb    -0.0520    -6.981    -2.491    -2.329  0.9914 -0.1233  0.0431
              Bcc     0.1123    15.064     5.375     5.025 -0.0509 -0.0611  0.9968
 
              Baa    -0.0171    -2.290    -0.817    -0.764  0.2432  0.9426 -0.2288
    38 C(13)  Bbb    -0.0082    -1.106    -0.395    -0.369  0.9635 -0.2619 -0.0548
              Bcc     0.0253     3.396     1.212     1.133  0.1115  0.2071  0.9719
 
              Baa    -0.0283    -3.791    -1.353    -1.265 -0.2499  0.9597 -0.1288
    39 C(13)  Bbb    -0.0275    -3.692    -1.318    -1.232  0.9625  0.2316 -0.1415
              Bcc     0.0558     7.483     2.670     2.496  0.1060  0.1593  0.9815
 
              Baa    -0.0080    -0.307    -0.110    -0.102  0.8720 -0.0134 -0.4893
    40 N(14)  Bbb    -0.0065    -0.250    -0.089    -0.084  0.1491  0.9594  0.2394
              Bcc     0.0145     0.557     0.199     0.186  0.4662 -0.2817  0.8386
 
              Baa    -0.0206     1.492     0.532     0.498 -0.2234  0.7411  0.6332
    41 O(17)  Bbb    -0.0172     1.244     0.444     0.415  0.8398  0.4760 -0.2609
              Bcc     0.0378    -2.735    -0.976    -0.912  0.4947 -0.4735  0.7287
 
              Baa    -0.0517     3.739     1.334     1.247  0.2710  0.9442  0.1875
    42 O(17)  Bbb    -0.0501     3.626     1.294     1.210  0.9040 -0.1828 -0.3865
              Bcc     0.1018    -7.365    -2.628    -2.457  0.3306 -0.2742  0.9030
 
              Baa    -0.0292    -3.923    -1.400    -1.308  0.0683  0.0820  0.9943
    43 C(13)  Bbb     0.0124     1.671     0.596     0.557 -0.1110  0.9910 -0.0741
              Bcc     0.0168     2.252     0.804     0.751  0.9915  0.1053 -0.0768
 
              Baa    -0.0351    -4.714    -1.682    -1.573  0.3665  0.9275 -0.0741
    44 C(13)  Bbb    -0.0301    -4.034    -1.439    -1.346  0.9266 -0.3710 -0.0607
              Bcc     0.0652     8.749     3.122     2.918  0.0838  0.0464  0.9954
 
              Baa    -0.0076    -0.294    -0.105    -0.098  0.4470  0.8909 -0.0810
    45 N(14)  Bbb    -0.0063    -0.242    -0.086    -0.081  0.8942 -0.4475  0.0128
              Bcc     0.0139     0.536     0.191     0.179  0.0248  0.0781  0.9966
 
              Baa    -0.0602     4.358     1.555     1.454 -0.4143  0.9098 -0.0227
    46 O(17)  Bbb    -0.0577     4.175     1.490     1.393  0.9056  0.4096 -0.1103
              Bcc     0.1179    -8.533    -3.045    -2.846  0.0910  0.0663  0.9936
 
              Baa    -0.0403     2.914     1.040     0.972  0.8191  0.5651 -0.0982
    47 O(17)  Bbb    -0.0388     2.809     1.002     0.937 -0.5693  0.8219 -0.0190
              Bcc     0.0791    -5.723    -2.042    -1.909  0.0700  0.0715  0.9950
 
              Baa    -0.0093    -1.252    -0.447    -0.418  0.3241  0.9443 -0.0570
    48 C(13)  Bbb    -0.0052    -0.697    -0.249    -0.232  0.9438 -0.3269 -0.0483
              Bcc     0.0145     1.949     0.695     0.650  0.0642  0.0381  0.9972
 
              Baa    -0.0176    -2.367    -0.845    -0.790  0.1906  0.9640 -0.1853
    49 C(13)  Bbb    -0.0132    -1.770    -0.631    -0.590  0.9725 -0.2112 -0.0981
              Bcc     0.0308     4.137     1.476     1.380  0.1337  0.1615  0.9778
 
              Baa    -0.0699    -2.694    -0.961    -0.899  0.0832  0.9939 -0.0731
    50 N(14)  Bbb    -0.0600    -2.313    -0.826    -0.772  0.9962 -0.0847 -0.0182
              Bcc     0.1298     5.007     1.787     1.670  0.0243  0.0713  0.9972
 
              Baa    -0.0022    -0.372    -0.133    -0.124 -0.1457  0.0537  0.9879
    51 B(11)  Bbb     0.0003     0.054     0.019     0.018  0.9892  0.0236  0.1446
              Bcc     0.0019     0.318     0.113     0.106 -0.0156  0.9983 -0.0566
 
              Baa    -0.0086    -4.340    -1.549    -1.448 -0.2473  0.0211  0.9687
    52 F(19)  Bbb    -0.0067    -3.379    -1.206    -1.127  0.0246  0.9996 -0.0155
              Bcc     0.0154     7.718     2.754     2.575  0.9686 -0.0200  0.2477
 
              Baa    -0.0183    -9.185    -3.277    -3.064 -0.0726  0.9918 -0.1050
    53 F(19)  Bbb    -0.0173    -8.701    -3.105    -2.902  0.4440  0.1264  0.8871
              Bcc     0.0356    17.886     6.382     5.966  0.8931  0.0178 -0.4495
 
              Baa    -0.0013    -0.690    -0.246    -0.230  0.4146  0.0118  0.9099
    54 H(1)   Bbb    -0.0003    -0.168    -0.060    -0.056  0.5054  0.8286 -0.2410
              Bcc     0.0016     0.857     0.306     0.286  0.7568 -0.5598 -0.3376
 
              Baa    -0.0013    -0.709    -0.253    -0.237 -0.3648  0.0195  0.9309
    55 H(1)   Bbb    -0.0003    -0.142    -0.051    -0.047  0.5262  0.8291  0.1889
              Bcc     0.0016     0.851     0.304     0.284  0.7681 -0.5587  0.3127
 
              Baa    -0.0008    -0.451    -0.161    -0.151 -0.1711 -0.1031  0.9798
    56 H(1)   Bbb    -0.0008    -0.412    -0.147    -0.138  0.8203  0.5359  0.1996
              Bcc     0.0016     0.864     0.308     0.288 -0.5457  0.8380 -0.0071
 
              Baa    -0.0038    -2.006    -0.716    -0.669  0.0409  0.9992  0.0022
    57 H(1)   Bbb    -0.0016    -0.874    -0.312    -0.292  0.0184 -0.0030  0.9998
              Bcc     0.0054     2.880     1.028     0.961  0.9990 -0.0409 -0.0185
 
              Baa    -0.0026    -1.397    -0.499    -0.466  0.1691 -0.5186  0.8381
    58 H(1)   Bbb    -0.0017    -0.889    -0.317    -0.297 -0.1419  0.8287  0.5414
              Bcc     0.0043     2.286     0.816     0.763  0.9753  0.2104 -0.0665
 
              Baa    -0.0071    -3.784    -1.350    -1.262  0.6090  0.7923 -0.0375
    59 H(1)   Bbb    -0.0021    -1.113    -0.397    -0.371 -0.0790  0.1076  0.9910
              Bcc     0.0092     4.897     1.747     1.633  0.7892 -0.6006  0.1281
 
              Baa    -0.0021    -1.125    -0.402    -0.375  0.0388  0.0630  0.9973
    60 H(1)   Bbb    -0.0002    -0.125    -0.045    -0.042  0.4453  0.8923 -0.0737
              Bcc     0.0023     1.250     0.446     0.417  0.8945 -0.4469 -0.0065
 
              Baa    -0.0015    -0.822    -0.293    -0.274  0.8351 -0.2059 -0.5102
    61 H(1)   Bbb    -0.0013    -0.702    -0.251    -0.234  0.4440 -0.2954  0.8459
              Bcc     0.0029     1.525     0.544     0.509  0.3249  0.9329  0.1553
 
              Baa    -0.0017    -0.928    -0.331    -0.310 -0.3899  0.0435  0.9198
    62 H(1)   Bbb    -0.0015    -0.811    -0.289    -0.270  0.7212 -0.6066  0.3344
              Bcc     0.0033     1.739     0.621     0.580  0.5725  0.7938  0.2052
 
              Baa    -0.0023    -1.232    -0.440    -0.411 -0.0137  0.9957 -0.0915
    63 H(1)   Bbb    -0.0012    -0.618    -0.221    -0.206  0.8150  0.0641  0.5759
              Bcc     0.0035     1.850     0.660     0.617 -0.5793  0.0667  0.8124
 
              Baa    -0.0005    -0.263    -0.094    -0.088 -0.0186  0.9928 -0.1187
    64 H(1)   Bbb    -0.0004    -0.220    -0.079    -0.074  0.4221  0.1154  0.8992
              Bcc     0.0009     0.484     0.173     0.161  0.9064 -0.0334 -0.4212
 
              Baa    -0.0005    -0.269    -0.096    -0.090  0.0287  0.9951 -0.0947
    65 H(1)   Bbb    -0.0004    -0.218    -0.078    -0.073 -0.4496  0.0974  0.8879
              Bcc     0.0009     0.487     0.174     0.162  0.8928  0.0170  0.4502
 
              Baa    -0.0024    -1.263    -0.451    -0.421  0.0306  0.9957 -0.0873
    66 H(1)   Bbb    -0.0011    -0.601    -0.214    -0.200  0.8306 -0.0739 -0.5520
              Bcc     0.0035     1.863     0.665     0.621  0.5560  0.0556  0.8293
 
              Baa    -0.0013    -0.699    -0.249    -0.233  0.4084  0.0284  0.9124
    67 H(1)   Bbb    -0.0003    -0.155    -0.055    -0.052 -0.5085  0.8372  0.2016
              Bcc     0.0016     0.854     0.305     0.285  0.7581  0.5462 -0.3563
 
              Baa    -0.0008    -0.446    -0.159    -0.149  0.0467  0.0315  0.9984
    68 H(1)   Bbb    -0.0008    -0.402    -0.143    -0.134  0.8265 -0.5626 -0.0209
              Bcc     0.0016     0.848     0.303     0.283  0.5610  0.8261 -0.0524
 
              Baa    -0.0013    -0.691    -0.246    -0.230 -0.3716  0.0382  0.9276
    69 H(1)   Bbb    -0.0003    -0.150    -0.053    -0.050 -0.5082  0.8278 -0.2377
              Bcc     0.0016     0.840     0.300     0.280  0.7769  0.5598  0.2882
 
              Baa    -0.0037    -1.952    -0.697    -0.651 -0.0065  0.9979 -0.0646
    70 H(1)   Bbb    -0.0016    -0.869    -0.310    -0.290  0.0181  0.0647  0.9977
              Bcc     0.0053     2.821     1.007     0.941  0.9998  0.0053 -0.0184
 
              Baa    -0.0025    -1.308    -0.467    -0.436 -0.0507 -0.0830  0.9953
    71 H(1)   Bbb    -0.0015    -0.806    -0.288    -0.269  0.2409  0.9661  0.0929
              Bcc     0.0040     2.115     0.755     0.705  0.9692 -0.2444  0.0290
 
              Baa    -0.0064    -3.392    -1.211    -1.132 -0.5890  0.8045 -0.0766
    72 H(1)   Bbb    -0.0023    -1.244    -0.444    -0.415 -0.1589 -0.0224  0.9870
              Bcc     0.0087     4.636     1.654     1.546  0.7924  0.5935  0.1410
 
              Baa    -0.0016    -0.857    -0.306    -0.286  0.1303 -0.1919  0.9727
    73 H(1)   Bbb    -0.0013    -0.716    -0.255    -0.239 -0.1621  0.9638  0.2119
              Bcc     0.0029     1.573     0.561     0.525  0.9781  0.1853 -0.0945
 
              Baa    -0.0013    -0.719    -0.256    -0.240  0.0914 -0.0349  0.9952
    74 H(1)   Bbb    -0.0007    -0.355    -0.127    -0.119 -0.4166  0.9064  0.0700
              Bcc     0.0020     1.074     0.383     0.358  0.9045  0.4210 -0.0683
 
              Baa    -0.0017    -0.925    -0.330    -0.309 -0.3294 -0.0405  0.9433
    75 H(1)   Bbb    -0.0012    -0.662    -0.236    -0.221  0.8682  0.3798  0.3194
              Bcc     0.0030     1.587     0.566     0.529 -0.3712  0.9242 -0.0899
 

 ---------------------------------------------------------------------------------

 No NMR shielding tensors so no spin-rotation constants.
 Leave Link  601 at Sat Oct 25 02:20:43 2025, MaxMem= 30870077440 cpu:             189.7 elap:               3.4
 (Enter /public/software/gauss/g16/l9999.exe)
 1\1\GINC-CU056\SP\UM062X\def2TZVPP\C33H22B1F2N7O10(1-,2)\BAIDING\25-Oc
 t-2025\0\\#p M062X/DEF2TZVPP scrf=(solvent=water) em=GD3\\Energy calcu
 lation for BNP_24NO2_24NO2_reduced\\-1,2\C,0,-4.618487,3.388722,-0.029
 874\C,0,-3.218573,2.853599,-0.012407\C,0,-2.082519,3.635256,0.00567\C,
 0,-0.939179,2.78896,0.004516\C,0,0.437032,3.127261,0.020236\C,0,0.9073
 01,4.414392,0.135675\C,0,2.257296,4.892791,0.114181\C,0,2.415336,6.291
 047,-0.13447\C,0,3.632627,6.897617,-0.333106\C,0,4.800898,6.111258,-0.
 284506\N,0,6.082769,6.710417,-0.499485\O,0,7.102571,5.995939,-0.452603
 \O,0,6.135154,7.9333,-0.731803\C,0,4.727874,4.752828,0.004373\C,0,3.49
 0986,4.164941,0.233866\N,0,3.568926,2.793223,0.713552\O,0,4.505643,2.0
 83029,0.316944\O,0,2.733483,2.397843,1.537837\N,0,-1.38064,1.481888,-0
 .020719\C,0,-2.766263,1.479938,-0.022176\C,0,-3.483605,0.266812,-0.036
 649\C,0,-4.977579,0.282719,-0.017792\C,0,-5.703817,0.359924,-1.216615\
 C,0,-7.094301,0.373887,-1.204827\C,0,-7.750601,0.310838,0.024535\N,0,-
 9.210134,0.326207,0.046384\O,0,-9.815053,0.387319,-1.02928\O,0,-9.7840
 94,0.277635,1.139533\C,0,-7.058842,0.233879,1.233506\C,0,-5.668538,0.2
 19355,1.202767\C,0,-2.792856,-0.964994,-0.073354\C,0,-3.278405,-2.3236
 58,-0.145724\C,0,-4.690599,-2.823152,-0.205657\C,0,-2.161078,-3.133016
 ,-0.169543\C,0,-0.998031,-2.31707,-0.118666\C,0,0.366723,-2.699305,-0.
 133652\C,0,0.790833,-4.009897,-0.122191\C,0,2.158104,-4.433979,-0.1046
 21\C,0,2.581059,-5.80769,-0.167143\N,0,1.661113,-6.909416,-0.388983\O,
 0,0.56688,-6.693037,-0.931729\O,0,2.013275,-8.050989,-0.049654\C,0,3.9
 14851,-6.186283,-0.052157\C,0,4.890428,-5.212091,0.09594\N,0,6.265093,
 -5.607872,0.191852\O,0,6.551542,-6.818436,0.148315\O,0,7.129133,-4.721
 084,0.3183\C,0,4.541872,-3.846385,0.145386\C,0,3.219961,-3.489443,0.05
 328\N,0,-1.408677,-0.999628,-0.065214\B,0,-0.499166,0.227017,0.17728\F
 ,0,0.565284,0.229213,-0.745204\F,0,0.036665,0.200781,1.475434\H,0,-5.1
 57549,3.101853,-0.938141\H,0,-5.207507,3.029355,0.819434\H,0,-4.591617
 ,4.480622,0.015215\H,0,-2.060374,4.716531,0.001097\H,0,1.125273,2.3021
 26,-0.086833\H,0,0.171339,5.213207,0.179343\H,0,1.514408,6.891359,-0.2
 03722\H,0,3.69951,7.958319,-0.536688\H,0,5.629759,4.163943,0.093869\H,
 0,-5.1759,0.40807,-2.162757\H,0,-7.661219,0.432174,-2.124966\H,0,-7.59
 8259,0.186517,2.170655\H,0,-5.113082,0.159828,2.132385\H,0,-5.227623,-
 2.436171,-1.077139\H,0,-4.688358,-3.914533,-0.268049\H,0,-5.267425,-2.
 53712,0.679248\H,0,-2.165774,-4.212243,-0.239495\H,0,1.085438,-1.89053
 7,-0.18121\H,0,0.038406,-4.784874,-0.118776\H,0,4.186541,-7.230586,-0.
 102759\H,0,5.311765,-3.095308,0.265419\H,0,2.973655,-2.437782,0.123993
 \\Version=ES64L-G16RevA.03\State=2-A\HF=-2630.6798875\S2=0.843254\S2-1
 =0.\S2A=0.755393\RMSD=7.362e-09\Dipole=-6.6879313,3.3456968,-0.5313954
 \Quadrupole=-73.370969,-8.968375,82.339344,-3.6016424,1.2312018,0.0492
 342\PG=C01 [X(C33H22B1F2N7O10)]\\@


 A DANDELION FROM A LOVER MEANS MORE THAN AN ORCHID FROM A FRIEND.
 Job cpu time:       1 days 16 hours 30 minutes 11.4 seconds.
 Elapsed time:       0 days  0 hours 38 minutes 26.3 seconds.
 File lengths (MBytes):  RWF=   4070 Int=      0 D2E=      0 Chk=    265 Scr=      1
 Normal termination of Gaussian 16 at Sat Oct 25 02:20:44 2025.
