 Entering Gaussian System, Link 0=g16
 Input=BNP_NO2_reduced_sp.gjf
 Output=BNP_NO2_reduced_sp.log
 Initial command:
 /public/software/gauss/g16/l1.exe "/public/home/baiding/1028_sp/tmp_BNP_NO2_reduced_sp_1538822/Gau-53085.inp" -scrdir="/public/home/baiding/1028_sp/tmp_BNP_NO2_reduced_sp_1538822/"
 Entering Link 1 = /public/software/gauss/g16/l1.exe PID=     53086.
  
 Copyright (c) 1988,1990,1992,1993,1995,1998,2003,2009,2016,
            Gaussian, Inc.  All Rights Reserved.
  
 This is part of the Gaussian(R) 16 program.  It is based on
 the Gaussian(R) 09 system (copyright 2009, Gaussian, Inc.),
 the Gaussian(R) 03 system (copyright 2003, Gaussian, Inc.),
 the Gaussian(R) 98 system (copyright 1998, Gaussian, Inc.),
 the Gaussian(R) 94 system (copyright 1995, Gaussian, Inc.),
 the Gaussian 92(TM) system (copyright 1992, Gaussian, Inc.),
 the Gaussian 90(TM) system (copyright 1990, Gaussian, Inc.),
 the Gaussian 88(TM) system (copyright 1988, Gaussian, Inc.),
 the Gaussian 86(TM) system (copyright 1986, Carnegie Mellon
 University), and the Gaussian 82(TM) system (copyright 1983,
 Carnegie Mellon University). Gaussian is a federally registered
 trademark of Gaussian, Inc.
  
 This software contains proprietary and confidential information,
 including trade secrets, belonging to Gaussian, Inc.
  
 This software is provided under written license and may be
 used, copied, transmitted, or stored only in accord with that
 written license.
  
 The following legend is applicable only to US Government
 contracts under FAR:
  
                    RESTRICTED RIGHTS LEGEND
  
 Use, reproduction and disclosure by the US Government is
 subject to restrictions as set forth in subparagraphs (a)
 and (c) of the Commercial Computer Software - Restricted
 Rights clause in FAR 52.227-19.
  
 Gaussian, Inc.
 340 Quinnipiac St., Bldg. 40, Wallingford CT 06492
  
  
 ---------------------------------------------------------------
 Warning -- This program may not be used in any manner that
 competes with the business of Gaussian, Inc. or will provide
 assistance to any competitor of Gaussian, Inc.  The licensee
 of this program is prohibited from giving any competitor of
 Gaussian, Inc. access to this program.  By using this program,
 the user acknowledges that Gaussian, Inc. is engaged in the
 business of creating and licensing software in the field of
 computational chemistry and represents and warrants to the
 licensee that it is not a competitor of Gaussian, Inc. and that
 it will not use this program in any manner prohibited above.
 ---------------------------------------------------------------
  

 Cite this work as:
 Gaussian 16, Revision A.03,
 M. J. Frisch, G. W. Trucks, H. B. Schlegel, G. E. Scuseria, 
 M. A. Robb, J. R. Cheeseman, G. Scalmani, V. Barone, 
 G. A. Petersson, H. Nakatsuji, X. Li, M. Caricato, A. V. Marenich, 
 J. Bloino, B. G. Janesko, R. Gomperts, B. Mennucci, H. P. Hratchian, 
 J. V. Ortiz, A. F. Izmaylov, J. L. Sonnenberg, D. Williams-Young, 
 F. Ding, F. Lipparini, F. Egidi, J. Goings, B. Peng, A. Petrone, 
 T. Henderson, D. Ranasinghe, V. G. Zakrzewski, J. Gao, N. Rega, 
 G. Zheng, W. Liang, M. Hada, M. Ehara, K. Toyota, R. Fukuda, 
 J. Hasegawa, M. Ishida, T. Nakajima, Y. Honda, O. Kitao, H. Nakai, 
 T. Vreven, K. Throssell, J. A. Montgomery, Jr., J. E. Peralta, 
 F. Ogliaro, M. J. Bearpark, J. J. Heyd, E. N. Brothers, K. N. Kudin, 
 V. N. Staroverov, T. A. Keith, R. Kobayashi, J. Normand, 
 K. Raghavachari, A. P. Rendell, J. C. Burant, S. S. Iyengar, 
 J. Tomasi, M. Cossi, J. M. Millam, M. Klene, C. Adamo, R. Cammi, 
 J. W. Ochterski, R. L. Martin, K. Morokuma, O. Farkas, 
 J. B. Foresman, and D. J. Fox, Gaussian, Inc., Wallingford CT, 2016.
 
 ******************************************
 Gaussian 16:  ES64L-G16RevA.03 25-Dec-2016
                28-Oct-2025 
 ******************************************
 %nprocshared=64
 Will use up to   64 processors via shared memory.
 %mem=230GB
 %chk=BNP_NO2_reduced_sp.chk
 ----------------------------------------------
 #p M062X/DEF2TZVPP scrf=(solvent=water) em=GD3
 ----------------------------------------------
 1/38=1,172=1/1;
 2/12=2,17=6,18=5,40=1/2;
 3/5=44,7=202,11=2,25=1,30=1,70=2201,72=1,74=-55,124=31/1,2,3;
 4//1;
 5/5=2,38=5,53=1/2;
 6/7=2,8=2,9=2,10=2,28=1/1;
 99/5=1,9=1/99;
 Leave Link    1 at Tue Oct 28 21:08:34 2025, MaxMem= 30870077440 cpu:              11.6 elap:               0.2
 (Enter /public/software/gauss/g16/l101.exe)
 --------------------------------------
 Energy calculation for BNP_NO2_reduced
 --------------------------------------
 Symbolic Z-matrix:
 Charge = -1 Multiplicity = 2
 C                     2.72247  -3.79257   0.02852 
 C                     1.57494  -2.82749  -0.00229 
 C                     0.24691  -3.1986   -0.00155 
 C                    -0.56445  -2.02924  -0.02587 
 C                    -1.97788  -1.92617  -0.04533 
 C                    -2.8354   -3.00166   0.03906 
 C                    -4.26398  -2.95297   0.01382 
 C                    -5.00039  -4.16894   0.12258 
 C                    -6.37688  -4.19399   0.10744 
 C                    -7.09349  -2.98313  -0.01974 
 N                    -8.49839  -2.99434  -0.03561 
 O                    -9.1152   -4.09499   0.06759 
 O                    -9.1315   -1.90427  -0.15248 
 C                    -6.39453  -1.75849  -0.13045 
 C                    -5.01907  -1.74812  -0.11325 
 N                     0.27767  -0.93511  -0.04565 
 C                     1.59604  -1.38234  -0.03388 
 C                     2.6624   -0.46766  -0.03973 
 C                     4.07144  -0.9584   -0.0241 
 C                     4.67646  -1.43266  -1.20028 
 C                     5.99087  -1.88473  -1.19326 
 C                     6.69702  -1.86355   0.01039 
 N                     8.0735   -2.34115   0.02877 
 O                     8.57042  -2.75289  -1.02613 
 O                     8.69329  -2.31716   1.09867 
 C                     6.12668  -1.39973   1.19688 
 C                     4.81353  -0.94458   1.16891 
 C                     2.41012   0.92832  -0.06504 
 C                     3.29441   2.05107  -0.16531 
 C                     4.79125   2.08287  -0.27332 
 C                     2.48715   3.18419  -0.17851 
 C                     1.13705   2.78485  -0.09654 
 C                    -0.05236   3.59631  -0.08897 
 C                    -0.05182   4.95157   0.00188 
 C                    -1.22174   5.82564  -0.00335 
 C                    -1.0253    7.21798   0.11209 
 C                    -2.10154   8.10316   0.11584 
 C                    -3.40752   7.62038   0.0041 
 C                    -3.62224   6.24198  -0.11152 
 C                    -2.54909   5.35616  -0.11608 
 N                     1.10377   1.40883  -0.03848 
 B                    -0.14554   0.5315    0.18841 
 F                    -1.16687   0.89209  -0.71721 
 F                    -0.63921   0.69915   1.49696 
 H                     3.29221  -3.78981  -0.90634 
 H                     3.42874  -3.56858   0.83373 
 H                     2.34213  -4.80588   0.18404 
 H                    -0.12271  -4.21513   0.0042 
 H                    -2.38596  -0.92702  -0.14557 
 H                    -2.4078   -3.99733   0.13891 
 H                    -4.45241  -5.10181   0.22057 
 H                    -6.9174   -5.12814   0.19153 
 H                    -6.95271  -0.83603  -0.22812 
 H                    -4.50578  -0.79641  -0.19901 
 H                     4.11276  -1.44119  -2.12681 
 H                     6.46375  -2.24582  -2.09747 
 H                     6.70003  -1.39933   2.1149 
 H                     4.35434  -0.58024   2.08149 
 H                     5.16373   1.44558  -1.08112 
 H                     5.12052   3.10628  -0.47406 
 H                     5.28324   1.75087   0.64704 
 H                     2.83566   4.20447  -0.26767 
 H                    -0.99237   3.06244  -0.17177 
 H                     0.90177   5.46871   0.09286 
 H                    -0.01148   7.59982   0.19961 
 H                    -1.92032   9.17037   0.20599 
 H                    -4.24883   8.3068    0.00663 
 H                    -4.63415   5.85681  -0.19923 
 H                    -2.74296   4.29217  -0.20734 
 
 ITRead=  0  0  0  0  0  0  0  0  0  0  0  0  0  0  0  0  0  0  0  0
 ITRead=  0  0  0  0  0  0  0  0  0  0  0  0  0  0  0  0  0  0  0  0
 ITRead=  0  0  0  0  0  0  0  0  0  0  0  0  0  0  0  0  0  0  0  0
 ITRead=  0  0  0  0  0  0  0  0  0
 MicOpt= -1 -1 -1 -1 -1 -1 -1 -1 -1 -1 -1 -1 -1 -1 -1 -1 -1 -1 -1 -1
 MicOpt= -1 -1 -1 -1 -1 -1 -1 -1 -1 -1 -1 -1 -1 -1 -1 -1 -1 -1 -1 -1
 MicOpt= -1 -1 -1 -1 -1 -1 -1 -1 -1 -1 -1 -1 -1 -1 -1 -1 -1 -1 -1 -1
 MicOpt= -1 -1 -1 -1 -1 -1 -1 -1 -1
 NAtoms=     69 NQM=       69 NQMF=       0 NMMI=      0 NMMIF=      0
                NMic=       0 NMicF=      0.
                    Isotopes and Nuclear Properties:
 (Nuclear quadrupole moments (NQMom) in fm**2, nuclear magnetic moments (NMagM)
  in nuclear magnetons)

  Atom         1           2           3           4           5           6           7           8           9          10
 IAtWgt=          12          12          12          12          12          12          12          12          12          12
 AtmWgt=  12.0000000  12.0000000  12.0000000  12.0000000  12.0000000  12.0000000  12.0000000  12.0000000  12.0000000  12.0000000
 NucSpn=           0           0           0           0           0           0           0           0           0           0
 AtZEff=  -0.0000000  -0.0000000  -0.0000000  -0.0000000  -0.0000000  -0.0000000  -0.0000000  -0.0000000  -0.0000000  -0.0000000
 NQMom=    0.0000000   0.0000000   0.0000000   0.0000000   0.0000000   0.0000000   0.0000000   0.0000000   0.0000000   0.0000000
 NMagM=    0.0000000   0.0000000   0.0000000   0.0000000   0.0000000   0.0000000   0.0000000   0.0000000   0.0000000   0.0000000
 AtZNuc=   6.0000000   6.0000000   6.0000000   6.0000000   6.0000000   6.0000000   6.0000000   6.0000000   6.0000000   6.0000000

  Atom        11          12          13          14          15          16          17          18          19          20
 IAtWgt=          14          16          16          12          12          14          12          12          12          12
 AtmWgt=  14.0030740  15.9949146  15.9949146  12.0000000  12.0000000  14.0030740  12.0000000  12.0000000  12.0000000  12.0000000
 NucSpn=           2           0           0           0           0           2           0           0           0           0
 AtZEff=  -0.0000000  -0.0000000  -0.0000000  -0.0000000  -0.0000000  -0.0000000  -0.0000000  -0.0000000  -0.0000000  -0.0000000
 NQMom=    2.0440000   0.0000000   0.0000000   0.0000000   0.0000000   2.0440000   0.0000000   0.0000000   0.0000000   0.0000000
 NMagM=    0.4037610   0.0000000   0.0000000   0.0000000   0.0000000   0.4037610   0.0000000   0.0000000   0.0000000   0.0000000
 AtZNuc=   7.0000000   8.0000000   8.0000000   6.0000000   6.0000000   7.0000000   6.0000000   6.0000000   6.0000000   6.0000000

  Atom        21          22          23          24          25          26          27          28          29          30
 IAtWgt=          12          12          14          16          16          12          12          12          12          12
 AtmWgt=  12.0000000  12.0000000  14.0030740  15.9949146  15.9949146  12.0000000  12.0000000  12.0000000  12.0000000  12.0000000
 NucSpn=           0           0           2           0           0           0           0           0           0           0
 AtZEff=  -0.0000000  -0.0000000  -0.0000000  -0.0000000  -0.0000000  -0.0000000  -0.0000000  -0.0000000  -0.0000000  -0.0000000
 NQMom=    0.0000000   0.0000000   2.0440000   0.0000000   0.0000000   0.0000000   0.0000000   0.0000000   0.0000000   0.0000000
 NMagM=    0.0000000   0.0000000   0.4037610   0.0000000   0.0000000   0.0000000   0.0000000   0.0000000   0.0000000   0.0000000
 AtZNuc=   6.0000000   6.0000000   7.0000000   8.0000000   8.0000000   6.0000000   6.0000000   6.0000000   6.0000000   6.0000000

  Atom        31          32          33          34          35          36          37          38          39          40
 IAtWgt=          12          12          12          12          12          12          12          12          12          12
 AtmWgt=  12.0000000  12.0000000  12.0000000  12.0000000  12.0000000  12.0000000  12.0000000  12.0000000  12.0000000  12.0000000
 NucSpn=           0           0           0           0           0           0           0           0           0           0
 AtZEff=  -0.0000000  -0.0000000  -0.0000000  -0.0000000  -0.0000000  -0.0000000  -0.0000000  -0.0000000  -0.0000000  -0.0000000
 NQMom=    0.0000000   0.0000000   0.0000000   0.0000000   0.0000000   0.0000000   0.0000000   0.0000000   0.0000000   0.0000000
 NMagM=    0.0000000   0.0000000   0.0000000   0.0000000   0.0000000   0.0000000   0.0000000   0.0000000   0.0000000   0.0000000
 AtZNuc=   6.0000000   6.0000000   6.0000000   6.0000000   6.0000000   6.0000000   6.0000000   6.0000000   6.0000000   6.0000000

  Atom        41          42          43          44          45          46          47          48          49          50
 IAtWgt=          14          11          19          19           1           1           1           1           1           1
 AtmWgt=  14.0030740  11.0093053  18.9984033  18.9984033   1.0078250   1.0078250   1.0078250   1.0078250   1.0078250   1.0078250
 NucSpn=           2           3           1           1           1           1           1           1           1           1
 AtZEff=  -0.0000000  -0.0000000  -0.0000000  -0.0000000  -0.0000000  -0.0000000  -0.0000000  -0.0000000  -0.0000000  -0.0000000
 NQMom=    2.0440000   4.0590000   0.0000000   0.0000000   0.0000000   0.0000000   0.0000000   0.0000000   0.0000000   0.0000000
 NMagM=    0.4037610   2.6886370   2.6288670   2.6288670   2.7928460   2.7928460   2.7928460   2.7928460   2.7928460   2.7928460
 AtZNuc=   7.0000000   5.0000000   9.0000000   9.0000000   1.0000000   1.0000000   1.0000000   1.0000000   1.0000000   1.0000000

  Atom        51          52          53          54          55          56          57          58          59          60
 IAtWgt=           1           1           1           1           1           1           1           1           1           1
 AtmWgt=   1.0078250   1.0078250   1.0078250   1.0078250   1.0078250   1.0078250   1.0078250   1.0078250   1.0078250   1.0078250
 NucSpn=           1           1           1           1           1           1           1           1           1           1
 AtZEff=  -0.0000000  -0.0000000  -0.0000000  -0.0000000  -0.0000000  -0.0000000  -0.0000000  -0.0000000  -0.0000000  -0.0000000
 NQMom=    0.0000000   0.0000000   0.0000000   0.0000000   0.0000000   0.0000000   0.0000000   0.0000000   0.0000000   0.0000000
 NMagM=    2.7928460   2.7928460   2.7928460   2.7928460   2.7928460   2.7928460   2.7928460   2.7928460   2.7928460   2.7928460
 AtZNuc=   1.0000000   1.0000000   1.0000000   1.0000000   1.0000000   1.0000000   1.0000000   1.0000000   1.0000000   1.0000000

  Atom        61          62          63          64          65          66          67          68          69
 IAtWgt=           1           1           1           1           1           1           1           1           1
 AtmWgt=   1.0078250   1.0078250   1.0078250   1.0078250   1.0078250   1.0078250   1.0078250   1.0078250   1.0078250
 NucSpn=           1           1           1           1           1           1           1           1           1
 AtZEff=  -0.0000000  -0.0000000  -0.0000000  -0.0000000  -0.0000000  -0.0000000  -0.0000000  -0.0000000  -0.0000000
 NQMom=    0.0000000   0.0000000   0.0000000   0.0000000   0.0000000   0.0000000   0.0000000   0.0000000   0.0000000
 NMagM=    2.7928460   2.7928460   2.7928460   2.7928460   2.7928460   2.7928460   2.7928460   2.7928460   2.7928460
 AtZNuc=   1.0000000   1.0000000   1.0000000   1.0000000   1.0000000   1.0000000   1.0000000   1.0000000   1.0000000
 Leave Link  101 at Tue Oct 28 21:08:35 2025, MaxMem= 30870077440 cpu:               3.9 elap:               0.1
 (Enter /public/software/gauss/g16/l202.exe)
 Stoichiometry    C33H25BF2N4O4(1-,2)
 Framework group  C1[X(C33H25BF2N4O4)]
 Deg. of freedom   201
 Full point group                 C1      NOp   1
 Largest Abelian subgroup         C1      NOp   1
 Largest concise Abelian subgroup C1      NOp   1
                         Standard orientation:                         
 ---------------------------------------------------------------------
 Center     Atomic      Atomic             Coordinates (Angstroms)
 Number     Number       Type             X           Y           Z
 ---------------------------------------------------------------------
      1          6           0        2.722474   -3.792567    0.028518
      2          6           0        1.574941   -2.827492   -0.002286
      3          6           0        0.246911   -3.198600   -0.001545
      4          6           0       -0.564451   -2.029241   -0.025867
      5          6           0       -1.977878   -1.926174   -0.045328
      6          6           0       -2.835396   -3.001659    0.039060
      7          6           0       -4.263981   -2.952970    0.013817
      8          6           0       -5.000388   -4.168941    0.122579
      9          6           0       -6.376875   -4.193991    0.107438
     10          6           0       -7.093488   -2.983129   -0.019738
     11          7           0       -8.498393   -2.994336   -0.035613
     12          8           0       -9.115197   -4.094991    0.067586
     13          8           0       -9.131501   -1.904267   -0.152484
     14          6           0       -6.394531   -1.758493   -0.130446
     15          6           0       -5.019068   -1.748118   -0.113253
     16          7           0        0.277670   -0.935110   -0.045652
     17          6           0        1.596041   -1.382341   -0.033879
     18          6           0        2.662397   -0.467663   -0.039727
     19          6           0        4.071439   -0.958404   -0.024101
     20          6           0        4.676456   -1.432657   -1.200283
     21          6           0        5.990872   -1.884733   -1.193257
     22          6           0        6.697018   -1.863550    0.010388
     23          7           0        8.073502   -2.341152    0.028773
     24          8           0        8.570422   -2.752891   -1.026133
     25          8           0        8.693286   -2.317163    1.098673
     26          6           0        6.126676   -1.399726    1.196882
     27          6           0        4.813532   -0.944582    1.168906
     28          6           0        2.410119    0.928320   -0.065041
     29          6           0        3.294407    2.051069   -0.165314
     30          6           0        4.791246    2.082867   -0.273322
     31          6           0        2.487149    3.184193   -0.178512
     32          6           0        1.137052    2.784851   -0.096538
     33          6           0       -0.052357    3.596311   -0.088973
     34          6           0       -0.051820    4.951569    0.001881
     35          6           0       -1.221737    5.825636   -0.003354
     36          6           0       -1.025303    7.217975    0.112091
     37          6           0       -2.101540    8.103163    0.115841
     38          6           0       -3.407523    7.620383    0.004101
     39          6           0       -3.622235    6.241980   -0.111520
     40          6           0       -2.549088    5.356159   -0.116076
     41          7           0        1.103769    1.408826   -0.038480
     42          5           0       -0.145535    0.531495    0.188412
     43          9           0       -1.166868    0.892086   -0.717212
     44          9           0       -0.639209    0.699154    1.496963
     45          1           0        3.292212   -3.789808   -0.906342
     46          1           0        3.428735   -3.568580    0.833730
     47          1           0        2.342131   -4.805879    0.184043
     48          1           0       -0.122706   -4.215130    0.004198
     49          1           0       -2.385961   -0.927017   -0.145569
     50          1           0       -2.407801   -3.997327    0.138905
     51          1           0       -4.452407   -5.101814    0.220574
     52          1           0       -6.917400   -5.128140    0.191529
     53          1           0       -6.952711   -0.836028   -0.228120
     54          1           0       -4.505781   -0.796409   -0.199013
     55          1           0        4.112761   -1.441191   -2.126805
     56          1           0        6.463748   -2.245825   -2.097468
     57          1           0        6.700030   -1.399326    2.114900
     58          1           0        4.354344   -0.580237    2.081487
     59          1           0        5.163735    1.445582   -1.081124
     60          1           0        5.120524    3.106282   -0.474055
     61          1           0        5.283242    1.750871    0.647040
     62          1           0        2.835664    4.204473   -0.267666
     63          1           0       -0.992373    3.062436   -0.171769
     64          1           0        0.901769    5.468708    0.092855
     65          1           0       -0.011478    7.599821    0.199610
     66          1           0       -1.920319    9.170370    0.205987
     67          1           0       -4.248835    8.306798    0.006626
     68          1           0       -4.634149    5.856807   -0.199232
     69          1           0       -2.742962    4.292170   -0.207335
 ---------------------------------------------------------------------
 Rotational constants (GHZ):           0.0716228           0.0371177           0.0248870
 Leave Link  202 at Tue Oct 28 21:08:35 2025, MaxMem= 30870077440 cpu:               0.2 elap:               0.0
 (Enter /public/software/gauss/g16/l301.exe)
 Standard basis: def2TZVPP (5D, 7F)
 Ernie: Thresh=  0.10000D-02 Tol=  0.10000D-05 Strict=F.
 There are  1959 symmetry adapted cartesian basis functions of A   symmetry.
 There are  1714 symmetry adapted basis functions of A   symmetry.
  1714 basis functions,  2669 primitive gaussians,  1959 cartesian basis functions
   154 alpha electrons      153 beta electrons
       nuclear repulsion energy      4700.4843136443 Hartrees.
 IExCor= 4336 DFT=T Ex+Corr=M062X ExCW=0 ScaHFX=  0.540000
 ScaDFX=  1.000000  1.000000  1.000000  1.000000 ScalE2=  1.000000  1.000000
 IRadAn=      5 IRanWt=     -1 IRanGd=            0 ICorTp=0 IEmpDi=131
 NAtoms=   69 NActive=   69 NUniq=   69 SFac= 1.00D+00 NAtFMM=   60 NAOKFM=T Big=T
 Integral buffers will be    131072 words long.
 Raffenetti 2 integral format.
 Two-electron integral symmetry is turned on.
 R6Disp:  Grimme-D3 Dispersion energy=       -0.0055537513 Hartrees.
 Nuclear repulsion after empirical dispersion term =     4700.4787598930 Hartrees.
 ------------------------------------------------------------------------------
 Polarizable Continuum Model (PCM)
 =================================
 Model                : PCM.
 Atomic radii         : UFF (Universal Force Field).
 Polarization charges : Total charges.
 Charge compensation  : None.
 Solution method      : On-the-fly selection.
 Cavity type          : Scaled VdW (van der Waals Surface) (Alpha=1.100).
 Cavity algorithm     : GePol (No added spheres)
                        Default sphere list used, NSphG=   69.
                        Lebedev-Laikov grids with approx.  5.0 points / Ang**2.
                        Smoothing algorithm: York/Karplus (Gamma=1.0000).
                        Polarization charges: spherical gaussians, with
                                              point-specific exponents (IZeta= 3).
                        Self-potential: point-specific (ISelfS= 7).
                        Self-field    : sphere-specific E.n sum rule (ISelfD= 2).
 Solvent              : Water, Eps=  78.355300 Eps(inf)=   1.777849
 ------------------------------------------------------------------------------
 GePol: Number of generator spheres                  =      69
 GePol: Total number of spheres                      =      69
 GePol: Number of exposed spheres                    =      69 (100.00%)
 GePol: Number of points                             =    5221
 GePol: Average weight of points                     =       0.13
 GePol: Minimum weight of points                     =   0.16D-11
 GePol: Maximum weight of points                     =    0.20577
 GePol: Number of points with low weight             =     339
 GePol: Fraction of low-weight points (<1% of avg)   =       6.49%
 GePol: Cavity surface area                          =    657.878 Ang**2
 GePol: Cavity volume                                =    757.058 Ang**3
 Leave Link  301 at Tue Oct 28 21:08:35 2025, MaxMem= 30870077440 cpu:               3.6 elap:               0.1
 (Enter /public/software/gauss/g16/l302.exe)
 NPDir=0 NMtPBC=     1 NCelOv=     1 NCel=       1 NClECP=     1 NCelD=      1
         NCelK=      1 NCelE2=     1 NClLst=     1 CellRange=     0.0.
 One-electron integrals computed using PRISM.
 One-electron integral symmetry used in STVInt
   1 Symmetry operations used in ECPInt.
 ECPInt:  NShTT=  201295 NPrTT=  584783 LenC2=  127886 LenP2D=  249310.
 LDataN:  DoStor=T MaxTD1= 6 Len=  172
 NBasis=  1714 RedAO= T EigKep=  4.10D-06  NBF=  1714
 NBsUse=  1714 1.00D-06 EigRej= -1.00D+00 NBFU=  1714
 Precomputing XC quadrature grid using
 IXCGrd= 4 IRadAn=           5 IRanWt=          -1 IRanGd=           0 AccXCQ= 0.00D+00.
 Generated NRdTot=       0 NPtTot=           0 NUsed=           0 NTot=          32
 NSgBfM=  1738  1738  1738  1738  1738 MxSgAt=    69 MxSgA2=    69.
 Leave Link  302 at Tue Oct 28 21:08:43 2025, MaxMem= 30870077440 cpu:             494.7 elap:               7.8
 (Enter /public/software/gauss/g16/l303.exe)
 DipDrv:  MaxL=1.
 Leave Link  303 at Tue Oct 28 21:08:43 2025, MaxMem= 30870077440 cpu:              25.0 elap:               0.4
 (Enter /public/software/gauss/g16/l401.exe)
 ExpMin= 6.06D-02 ExpMax= 3.55D+04 ExpMxC= 1.21D+03 IAcc=3 IRadAn=         5 AccDes= 0.00D+00
 Harris functional with IExCor= 1009 and IRadAn=       5 diagonalized for initial guess.
 HarFok:  IExCor= 1009 AccDes= 0.00D+00 IRadAn=         5 IDoV= 1 UseB2=F ITyADJ=14
 ICtDFT=  3500011 ScaDFX=  1.000000  1.000000  1.000000  1.000000
 FoFCou: FMM=F IPFlag=           0 FMFlag=      100000 FMFlg1=        2001
         NFxFlg=           0 DoJE=T BraDBF=F KetDBF=T FulRan=T
         wScrn=  0.000000 ICntrl=       500 IOpCl=  0 I1Cent=   200000004 NGrid=           0
         NMat0=    1 NMatS0=      1 NMatT0=    0 NMatD0=    1 NMtDS0=    0 NMtDT0=    0
 Petite list used in FoFCou.
 Harris En= -2016.22838392561    
 JPrj=0 DoOrth=F DoCkMO=F.
 Initial guess <Sx>= 0.0000 <Sy>= 0.0000 <Sz>= 0.5000 <S**2>= 0.7500 S= 0.5000
 Leave Link  401 at Tue Oct 28 21:08:52 2025, MaxMem= 30870077440 cpu:             592.2 elap:               9.3
 (Enter /public/software/gauss/g16/l502.exe)
 Integral symmetry usage will be decided dynamically.
 UHF open shell SCF:
 Using DIIS extrapolation, IDIIS=  1040.
 NGot= 30870077440 LenX= 30862260289 LenY= 30858420649
 Requested convergence on RMS density matrix=1.00D-08 within 128 cycles.
 Requested convergence on MAX density matrix=1.00D-06.
 Requested convergence on             energy=1.00D-06.
 No special actions if energy rises.
 Fock matrices will be formed incrementally for  20 cycles.

 Cycle   1  Pass 1  IDiag  1:
 FoFJK:  IHMeth= 1 ICntrl=       0 DoSepK=F KAlg= 0 I1Cent=           0 FoldK=F
 IRaf= 600000000 NMat=       1 IRICut=       1 DoRegI=T DoRafI=F ISym2E= 0 IDoP0=0 IntGTp=1.
 FoFCou: FMM=T IPFlag=           0 FMFlag=      100000 FMFlg1=        2001
         NFxFlg=           0 DoJE=F BraDBF=F KetDBF=F FulRan=T
         wScrn=  0.000000 ICntrl=         0 IOpCl=  1 I1Cent=           0 NGrid=           0
         NMat0=    1 NMatS0=      1 NMatT0=    0 NMatD0=    1 NMtDS0=    0 NMtDT0=    0
 Symmetry not used in FoFCou.
 FMM levels:  10  Number of levels for PrismC:   9
 Inv3:  Mode=1 IEnd=    81776523.
 Iteration    1 A*A^-1 deviation from unit magnitude is 1.13D-14 for   2130.
 Iteration    1 A*A^-1 deviation from orthogonality  is 4.27D-15 for   2168   2130.
 Iteration    1 A^-1*A deviation from unit magnitude is 8.22D-15 for   2130.
 Iteration    1 A^-1*A deviation from orthogonality  is 4.76D-15 for   5208   1677.
 E= -2016.00380584859    
 DIIS: error= 3.26D-02 at cycle   1 NSaved=   1.
 NSaved= 1 IEnMin= 1 EnMin= -2016.00380584859     IErMin= 1 ErrMin= 3.26D-02
 ErrMax= 3.26D-02  0.00D+00 EMaxC= 1.00D-01 BMatC= 6.01D+00 BMatP= 6.01D+00
 IDIUse=3 WtCom= 6.74D-01 WtEn= 3.26D-01
 Coeff-Com:  0.100D+01
 Coeff-En:   0.100D+01
 Coeff:      0.100D+01
 Gap=     0.088 Goal=   None    Shift=    0.000
 Gap=     0.122 Goal=   None    Shift=    0.000
 GapD=    0.088 DampG=0.500 DampE=0.500 DampFc=0.2500 IDamp=-1.
 Damping current iteration by 2.50D-01
 RMSDP=1.51D-03 MaxDP=2.10D-01              OVMax= 5.61D-01

 Cycle   2  Pass 1  IDiag  1:
 RMSU=  3.76D-04    CP:  9.95D-01
 E= -2016.39566012125     Delta-E=       -0.391854272662 Rises=F Damp=T
 DIIS: error= 1.48D-02 at cycle   2 NSaved=   2.
 NSaved= 2 IEnMin= 2 EnMin= -2016.39566012125     IErMin= 2 ErrMin= 1.48D-02
 ErrMax= 1.48D-02  0.00D+00 EMaxC= 1.00D-01 BMatC= 1.98D+00 BMatP= 6.01D+00
 IDIUse=3 WtCom= 8.52D-01 WtEn= 1.48D-01
 Coeff-Com: -0.101D+01 0.201D+01
 Coeff-En:   0.000D+00 0.100D+01
 Coeff:     -0.864D+00 0.186D+01
 Gap=     0.077 Goal=   None    Shift=    0.000
 Gap=     0.151 Goal=   None    Shift=    0.000
 RMSDP=9.55D-04 MaxDP=1.93D-01 DE=-3.92D-01 OVMax= 5.02D-01

 Cycle   3  Pass 1  IDiag  1:
 RMSU=  6.27D-04    CP:  9.83D-01  2.91D+00
 E= -2017.09196635025     Delta-E=       -0.696306229003 Rises=F Damp=F
 DIIS: error= 8.35D-03 at cycle   3 NSaved=   3.
 NSaved= 3 IEnMin= 3 EnMin= -2017.09196635025     IErMin= 3 ErrMin= 8.35D-03
 ErrMax= 8.35D-03  0.00D+00 EMaxC= 1.00D-01 BMatC= 2.43D-01 BMatP= 1.98D+00
 IDIUse=3 WtCom= 9.16D-01 WtEn= 8.35D-02
 Coeff-Com: -0.444D+00 0.790D+00 0.654D+00
 Coeff-En:   0.000D+00 0.000D+00 0.100D+01
 Coeff:     -0.407D+00 0.724D+00 0.683D+00
 Gap=     0.078 Goal=   None    Shift=    0.000
 Gap=     0.128 Goal=   None    Shift=    0.000
 RMSDP=2.37D-04 MaxDP=3.28D-02 DE=-6.96D-01 OVMax= 1.09D-01

 Cycle   4  Pass 1  IDiag  1:
 RMSU=  2.20D-04    CP:  9.78D-01  2.73D+00  9.14D-01
 E= -2017.13479630459     Delta-E=       -0.042829954336 Rises=F Damp=F
 DIIS: error= 3.42D-03 at cycle   4 NSaved=   4.
 NSaved= 4 IEnMin= 4 EnMin= -2017.13479630459     IErMin= 4 ErrMin= 3.42D-03
 ErrMax= 3.42D-03  0.00D+00 EMaxC= 1.00D-01 BMatC= 4.12D-02 BMatP= 2.43D-01
 IDIUse=3 WtCom= 9.66D-01 WtEn= 3.42D-02
 Coeff-Com: -0.707D-01 0.116D+00 0.309D+00 0.645D+00
 Coeff-En:   0.000D+00 0.000D+00 0.983D-01 0.902D+00
 Coeff:     -0.683D-01 0.112D+00 0.302D+00 0.654D+00
 Gap=     0.087 Goal=   None    Shift=    0.000
 Gap=     0.131 Goal=   None    Shift=    0.000
 RMSDP=7.84D-05 MaxDP=2.36D-02 DE=-4.28D-02 OVMax= 5.38D-02

 Cycle   5  Pass 1  IDiag  1:
 RMSU=  6.94D-05    CP:  9.78D-01  2.76D+00  9.28D-01  8.47D-01
 E= -2017.14357380954     Delta-E=       -0.008777504950 Rises=F Damp=F
 DIIS: error= 7.32D-04 at cycle   5 NSaved=   5.
 NSaved= 5 IEnMin= 5 EnMin= -2017.14357380954     IErMin= 5 ErrMin= 7.32D-04
 ErrMax= 7.32D-04  0.00D+00 EMaxC= 1.00D-01 BMatC= 3.08D-03 BMatP= 4.12D-02
 IDIUse=3 WtCom= 9.93D-01 WtEn= 7.32D-03
 Coeff-Com: -0.136D-01 0.194D-01 0.112D+00 0.318D+00 0.564D+00
 Coeff-En:   0.000D+00 0.000D+00 0.000D+00 0.000D+00 0.100D+01
 Coeff:     -0.135D-01 0.193D-01 0.112D+00 0.315D+00 0.567D+00
 Gap=     0.088 Goal=   None    Shift=    0.000
 Gap=     0.131 Goal=   None    Shift=    0.000
 RMSDP=2.96D-05 MaxDP=8.38D-03 DE=-8.78D-03 OVMax= 1.54D-02

 Cycle   6  Pass 1  IDiag  1:
 RMSU=  2.68D-05    CP:  9.78D-01  2.75D+00  9.20D-01  8.94D-01  9.88D-01
 E= -2017.14444921084     Delta-E=       -0.000875401306 Rises=F Damp=F
 DIIS: error= 2.09D-04 at cycle   6 NSaved=   6.
 NSaved= 6 IEnMin= 6 EnMin= -2017.14444921084     IErMin= 6 ErrMin= 2.09D-04
 ErrMax= 2.09D-04  0.00D+00 EMaxC= 1.00D-01 BMatC= 3.08D-04 BMatP= 3.08D-03
 IDIUse=3 WtCom= 9.98D-01 WtEn= 2.09D-03
 Coeff-Com:  0.169D-02-0.377D-02 0.762D-02 0.452D-01 0.229D+00 0.720D+00
 Coeff-En:   0.000D+00 0.000D+00 0.000D+00 0.000D+00 0.000D+00 0.100D+01
 Coeff:      0.168D-02-0.376D-02 0.761D-02 0.451D-01 0.228D+00 0.721D+00
 Gap=     0.091 Goal=   None    Shift=    0.000
 Gap=     0.133 Goal=   None    Shift=    0.000
 RMSDP=2.01D-05 MaxDP=8.23D-03 DE=-8.75D-04 OVMax= 1.11D-02

 Cycle   7  Pass 1  IDiag  1:
 RMSU=  1.44D-05    CP:  9.78D-01  2.76D+00  9.25D-01  8.99D-01  1.18D+00
                    CP:  1.10D+00
 E= -2017.14466794123     Delta-E=       -0.000218730389 Rises=F Damp=F
 DIIS: error= 1.47D-04 at cycle   7 NSaved=   7.
 NSaved= 7 IEnMin= 7 EnMin= -2017.14466794123     IErMin= 7 ErrMin= 1.47D-04
 ErrMax= 1.47D-04  0.00D+00 EMaxC= 1.00D-01 BMatC= 8.13D-05 BMatP= 3.08D-04
 IDIUse=3 WtCom= 9.99D-01 WtEn= 1.47D-03
 Coeff-Com:  0.360D-02-0.563D-02-0.253D-01-0.637D-01-0.570D-01 0.270D+00
 Coeff-Com:  0.878D+00
 Coeff-En:   0.000D+00 0.000D+00 0.000D+00 0.000D+00 0.000D+00 0.000D+00
 Coeff-En:   0.100D+01
 Coeff:      0.359D-02-0.562D-02-0.253D-01-0.636D-01-0.569D-01 0.270D+00
 Coeff:      0.878D+00
 Gap=     0.093 Goal=   None    Shift=    0.000
 Gap=     0.134 Goal=   None    Shift=    0.000
 RMSDP=1.60D-05 MaxDP=3.48D-03 DE=-2.19D-04 OVMax= 1.18D-02

 Cycle   8  Pass 1  IDiag  1:
 RMSU=  6.67D-06    CP:  9.78D-01  2.76D+00  9.26D-01  9.17D-01  1.30D+00
                    CP:  1.42D+00  1.50D+00
 E= -2017.14478344840     Delta-E=       -0.000115507165 Rises=F Damp=F
 DIIS: error= 9.59D-05 at cycle   8 NSaved=   8.
 NSaved= 8 IEnMin= 8 EnMin= -2017.14478344840     IErMin= 8 ErrMin= 9.59D-05
 ErrMax= 9.59D-05  0.00D+00 EMaxC= 1.00D-01 BMatC= 2.67D-05 BMatP= 8.13D-05
 IDIUse=1 WtCom= 1.00D+00 WtEn= 0.00D+00
 Coeff-Com:  0.507D-03-0.454D-03-0.106D-01-0.362D-01-0.906D-01-0.115D+00
 Coeff-Com:  0.354D+00 0.899D+00
 Coeff:      0.507D-03-0.454D-03-0.106D-01-0.362D-01-0.906D-01-0.115D+00
 Coeff:      0.354D+00 0.899D+00
 Gap=     0.094 Goal=   None    Shift=    0.000
 Gap=     0.135 Goal=   None    Shift=    0.000
 RMSDP=1.15D-05 MaxDP=3.93D-03 DE=-1.16D-04 OVMax= 8.91D-03

 Cycle   9  Pass 1  IDiag  1:
 RMSU=  3.39D-06    CP:  9.78D-01  2.76D+00  9.27D-01  9.23D-01  1.38D+00
                    CP:  1.59D+00  2.02D+00  1.40D+00
 E= -2017.14482849982     Delta-E=       -0.000045051418 Rises=F Damp=F
 DIIS: error= 6.10D-05 at cycle   9 NSaved=   9.
 NSaved= 9 IEnMin= 9 EnMin= -2017.14482849982     IErMin= 9 ErrMin= 6.10D-05
 ErrMax= 6.10D-05  0.00D+00 EMaxC= 1.00D-01 BMatC= 7.34D-06 BMatP= 2.67D-05
 IDIUse=1 WtCom= 1.00D+00 WtEn= 0.00D+00
 Coeff-Com: -0.746D-03 0.132D-02 0.452D-02 0.681D-02-0.137D-01-0.123D+00
 Coeff-Com: -0.146D+00 0.315D+00 0.955D+00
 Coeff:     -0.746D-03 0.132D-02 0.452D-02 0.681D-02-0.137D-01-0.123D+00
 Coeff:     -0.146D+00 0.315D+00 0.955D+00
 Gap=     0.095 Goal=   None    Shift=    0.000
 Gap=     0.136 Goal=   None    Shift=    0.000
 RMSDP=6.69D-06 MaxDP=1.60D-03 DE=-4.51D-05 OVMax= 5.61D-03

 Cycle  10  Pass 1  IDiag  1:
 RMSU=  1.75D-06    CP:  9.78D-01  2.76D+00  9.28D-01  9.25D-01  1.41D+00
                    CP:  1.72D+00  2.28D+00  1.84D+00  1.49D+00
 E= -2017.14484236376     Delta-E=       -0.000013863943 Rises=F Damp=F
 DIIS: error= 3.79D-05 at cycle  10 NSaved=  10.
 NSaved=10 IEnMin=10 EnMin= -2017.14484236376     IErMin=10 ErrMin= 3.79D-05
 ErrMax= 3.79D-05  0.00D+00 EMaxC= 1.00D-01 BMatC= 3.01D-06 BMatP= 7.34D-06
 IDIUse=1 WtCom= 1.00D+00 WtEn= 0.00D+00
 Coeff-Com: -0.449D-03 0.730D-03 0.536D-02 0.126D-01 0.171D-01-0.316D-01
 Coeff-Com: -0.163D+00-0.767D-01 0.508D+00 0.728D+00
 Coeff:     -0.449D-03 0.730D-03 0.536D-02 0.126D-01 0.171D-01-0.316D-01
 Coeff:     -0.163D+00-0.767D-01 0.508D+00 0.728D+00
 Gap=     0.095 Goal=   None    Shift=    0.000
 Gap=     0.136 Goal=   None    Shift=    0.000
 RMSDP=2.91D-06 MaxDP=8.15D-04 DE=-1.39D-05 OVMax= 2.29D-03

 Cycle  11  Pass 1  IDiag  1:
 RMSU=  9.92D-07    CP:  9.78D-01  2.76D+00  9.28D-01  9.25D-01  1.42D+00
                    CP:  1.75D+00  2.39D+00  2.00D+00  1.87D+00  1.42D+00
 E= -2017.14484604898     Delta-E=       -0.000003685222 Rises=F Damp=F
 DIIS: error= 4.00D-05 at cycle  11 NSaved=  11.
 NSaved=11 IEnMin=11 EnMin= -2017.14484604898     IErMin=10 ErrMin= 3.79D-05
 ErrMax= 4.00D-05  0.00D+00 EMaxC= 1.00D-01 BMatC= 7.59D-07 BMatP= 3.01D-06
 IDIUse=1 WtCom= 1.00D+00 WtEn= 0.00D+00
 Coeff-Com:  0.100D-03-0.153D-03 0.123D-02 0.293D-02 0.988D-02 0.157D-01
 Coeff-Com: -0.239D-01-0.101D+00-0.134D-01 0.239D+00 0.870D+00
 Coeff:      0.100D-03-0.153D-03 0.123D-02 0.293D-02 0.988D-02 0.157D-01
 Coeff:     -0.239D-01-0.101D+00-0.134D-01 0.239D+00 0.870D+00
 Gap=     0.095 Goal=   None    Shift=    0.000
 Gap=     0.136 Goal=   None    Shift=    0.000
 RMSDP=1.55D-06 MaxDP=1.79D-04 DE=-3.69D-06 OVMax= 2.02D-03

 Cycle  12  Pass 1  IDiag  1:
 RMSU=  5.76D-07    CP:  9.78D-01  2.76D+00  9.28D-01  9.25D-01  1.42D+00
                    CP:  1.76D+00  2.42D+00  2.07D+00  2.10D+00  1.83D+00
                    CP:  1.66D+00
 E= -2017.14484768194     Delta-E=       -0.000001632963 Rises=F Damp=F
 DIIS: error= 2.78D-05 at cycle  12 NSaved=  12.
 NSaved=12 IEnMin=12 EnMin= -2017.14484768194     IErMin=12 ErrMin= 2.78D-05
 ErrMax= 2.78D-05  0.00D+00 EMaxC= 1.00D-01 BMatC= 4.14D-07 BMatP= 7.59D-07
 IDIUse=1 WtCom= 1.00D+00 WtEn= 0.00D+00
 Coeff-Com:  0.262D-03-0.387D-03-0.103D-02-0.341D-02-0.202D-02 0.153D-01
 Coeff-Com:  0.462D-01-0.106D-01-0.164D+00-0.191D+00 0.321D+00 0.989D+00
 Coeff:      0.262D-03-0.387D-03-0.103D-02-0.341D-02-0.202D-02 0.153D-01
 Coeff:      0.462D-01-0.106D-01-0.164D+00-0.191D+00 0.321D+00 0.989D+00
 Gap=     0.095 Goal=   None    Shift=    0.000
 Gap=     0.136 Goal=   None    Shift=    0.000
 RMSDP=1.57D-06 MaxDP=2.24D-04 DE=-1.63D-06 OVMax= 2.21D-03

 Cycle  13  Pass 1  IDiag  1:
 RMSU=  3.60D-07    CP:  9.78D-01  2.76D+00  9.28D-01  9.24D-01  1.42D+00
                    CP:  1.76D+00  2.44D+00  2.11D+00  2.31D+00  2.24D+00
                    CP:  2.48D+00  2.02D+00
 E= -2017.14484896021     Delta-E=       -0.000001278265 Rises=F Damp=F
 DIIS: error= 2.32D-05 at cycle  13 NSaved=  13.
 NSaved=13 IEnMin=13 EnMin= -2017.14484896021     IErMin=13 ErrMin= 2.32D-05
 ErrMax= 2.32D-05  0.00D+00 EMaxC= 1.00D-01 BMatC= 2.53D-07 BMatP= 4.14D-07
 IDIUse=1 WtCom= 1.00D+00 WtEn= 0.00D+00
 Coeff-Com:  0.859D-04-0.104D-03-0.517D-03-0.245D-02-0.464D-02-0.262D-02
 Coeff-Com:  0.259D-01 0.407D-01-0.335D-01-0.195D+00-0.309D+00 0.375D+00
 Coeff-Com:  0.111D+01
 Coeff:      0.859D-04-0.104D-03-0.517D-03-0.245D-02-0.464D-02-0.262D-02
 Coeff:      0.259D-01 0.407D-01-0.335D-01-0.195D+00-0.309D+00 0.375D+00
 Coeff:      0.111D+01
 Gap=     0.095 Goal=   None    Shift=    0.000
 Gap=     0.136 Goal=   None    Shift=    0.000
 RMSDP=1.63D-06 MaxDP=1.82D-04 DE=-1.28D-06 OVMax= 2.42D-03

 Cycle  14  Pass 1  IDiag  1:
 RMSU=  4.69D-07    CP:  9.78D-01  2.76D+00  9.28D-01  9.24D-01  1.42D+00
                    CP:  1.77D+00  2.46D+00  2.16D+00  2.49D+00  2.62D+00
                    CP:  3.00D+00  3.00D+00  2.35D+00
 E= -2017.14484997597     Delta-E=       -0.000001015766 Rises=F Damp=F
 DIIS: error= 1.52D-05 at cycle  14 NSaved=  14.
 NSaved=14 IEnMin=14 EnMin= -2017.14484997597     IErMin=14 ErrMin= 1.52D-05
 ErrMax= 1.52D-05  0.00D+00 EMaxC= 1.00D-01 BMatC= 1.30D-07 BMatP= 2.53D-07
 IDIUse=1 WtCom= 1.00D+00 WtEn= 0.00D+00
 Coeff-Com: -0.800D-04 0.140D-03 0.877D-03 0.160D-02 0.758D-03-0.125D-01
 Coeff-Com: -0.247D-01 0.138D-01 0.117D+00 0.641D-01-0.263D+00-0.482D+00
 Coeff-Com:  0.161D+00 0.142D+01
 Coeff:     -0.800D-04 0.140D-03 0.877D-03 0.160D-02 0.758D-03-0.125D-01
 Coeff:     -0.247D-01 0.138D-01 0.117D+00 0.641D-01-0.263D+00-0.482D+00
 Coeff:      0.161D+00 0.142D+01
 Gap=     0.095 Goal=   None    Shift=    0.000
 Gap=     0.136 Goal=   None    Shift=    0.000
 RMSDP=1.87D-06 MaxDP=2.17D-04 DE=-1.02D-06 OVMax= 2.78D-03

 Cycle  15  Pass 1  IDiag  1:
 RMSU=  8.69D-07    CP:  9.78D-01  2.76D+00  9.28D-01  9.23D-01  1.42D+00
                    CP:  1.77D+00  2.48D+00  2.19D+00  2.68D+00  2.97D+00
                    CP:  3.00D+00  3.00D+00  3.00D+00  3.00D+00
 E= -2017.14485079376     Delta-E=       -0.000000817790 Rises=F Damp=F
 DIIS: error= 1.05D-05 at cycle  15 NSaved=  15.
 NSaved=15 IEnMin=15 EnMin= -2017.14485079376     IErMin=15 ErrMin= 1.05D-05
 ErrMax= 1.05D-05  0.00D+00 EMaxC= 1.00D-01 BMatC= 7.54D-08 BMatP= 1.30D-07
 IDIUse=1 WtCom= 1.00D+00 WtEn= 0.00D+00
 Coeff-Com: -0.479D-04 0.775D-04 0.713D-03 0.175D-02 0.315D-02-0.313D-02
 Coeff-Com: -0.198D-01-0.207D-01 0.597D-01 0.111D+00 0.111D+00-0.327D+00
 Coeff-Com: -0.680D+00 0.561D+00 0.120D+01
 Coeff:     -0.479D-04 0.775D-04 0.713D-03 0.175D-02 0.315D-02-0.313D-02
 Coeff:     -0.198D-01-0.207D-01 0.597D-01 0.111D+00 0.111D+00-0.327D+00
 Coeff:     -0.680D+00 0.561D+00 0.120D+01
 Gap=     0.095 Goal=   None    Shift=    0.000
 Gap=     0.136 Goal=   None    Shift=    0.000
 RMSDP=1.65D-06 MaxDP=2.21D-04 DE=-8.18D-07 OVMax= 2.39D-03

 Cycle  16  Pass 1  IDiag  1:
 RMSU=  9.62D-07    CP:  9.78D-01  2.76D+00  9.28D-01  9.22D-01  1.42D+00
                    CP:  1.77D+00  2.50D+00  2.22D+00  2.83D+00  3.00D+00
                    CP:  3.00D+00  3.00D+00  3.00D+00  3.00D+00  2.30D+00
 E= -2017.14485126572     Delta-E=       -0.000000471954 Rises=F Damp=F
 DIIS: error= 5.61D-06 at cycle  16 NSaved=  16.
 NSaved=16 IEnMin=16 EnMin= -2017.14485126572     IErMin=16 ErrMin= 5.61D-06
 ErrMax= 5.61D-06  0.00D+00 EMaxC= 1.00D-01 BMatC= 3.82D-08 BMatP= 7.54D-08
 IDIUse=1 WtCom= 1.00D+00 WtEn= 0.00D+00
 Coeff-Com:  0.158D-04-0.248D-04 0.113D-03 0.353D-03 0.191D-02 0.375D-02
 Coeff-Com:  0.352D-04-0.208D-01-0.147D-01 0.324D-01 0.203D+00 0.411D-01
 Coeff-Com: -0.547D+00-0.277D+00 0.635D+00 0.941D+00
 Coeff:      0.158D-04-0.248D-04 0.113D-03 0.353D-03 0.191D-02 0.375D-02
 Coeff:      0.352D-04-0.208D-01-0.147D-01 0.324D-01 0.203D+00 0.411D-01
 Coeff:     -0.547D+00-0.277D+00 0.635D+00 0.941D+00
 Gap=     0.095 Goal=   None    Shift=    0.000
 Gap=     0.136 Goal=   None    Shift=    0.000
 RMSDP=1.18D-06 MaxDP=1.73D-04 DE=-4.72D-07 OVMax= 1.69D-03

 Cycle  17  Pass 1  IDiag  1:
 RMSU=  2.76D-07    CP:  9.78D-01  2.76D+00  9.28D-01  9.21D-01  1.41D+00
                    CP:  1.77D+00  2.51D+00  2.24D+00  2.93D+00  3.00D+00
                    CP:  3.00D+00  3.00D+00  3.00D+00  3.00D+00  3.00D+00
                    CP:  1.73D+00
 E= -2017.14485148280     Delta-E=       -0.000000217082 Rises=F Damp=F
 DIIS: error= 3.61D-06 at cycle  17 NSaved=  17.
 NSaved=17 IEnMin=17 EnMin= -2017.14485148280     IErMin=17 ErrMin= 3.61D-06
 ErrMax= 3.61D-06  0.00D+00 EMaxC= 1.00D-01 BMatC= 2.05D-08 BMatP= 3.82D-08
 IDIUse=1 WtCom= 1.00D+00 WtEn= 0.00D+00
 Coeff-Com:  0.472D-04-0.720D-04-0.290D-03-0.810D-03-0.547D-03 0.362D-02
 Coeff-Com:  0.119D-01-0.372D-03-0.396D-01-0.540D-01 0.523D-01 0.241D+00
 Coeff-Com:  0.867D-01-0.462D+00-0.500D+00 0.599D+00 0.106D+01
 Coeff:      0.472D-04-0.720D-04-0.290D-03-0.810D-03-0.547D-03 0.362D-02
 Coeff:      0.119D-01-0.372D-03-0.396D-01-0.540D-01 0.523D-01 0.241D+00
 Coeff:      0.867D-01-0.462D+00-0.500D+00 0.599D+00 0.106D+01
 Gap=     0.095 Goal=   None    Shift=    0.000
 Gap=     0.136 Goal=   None    Shift=    0.000
 RMSDP=1.02D-06 MaxDP=1.83D-04 DE=-2.17D-07 OVMax= 1.41D-03

 Cycle  18  Pass 1  IDiag  1:
 RMSU=  3.46D-07    CP:  9.78D-01  2.76D+00  9.28D-01  9.21D-01  1.41D+00
                    CP:  1.76D+00  2.51D+00  2.25D+00  3.00D+00  3.00D+00
                    CP:  3.00D+00  3.00D+00  3.00D+00  3.00D+00  3.00D+00
                    CP:  2.36D+00  3.00D+00
 E= -2017.14485159830     Delta-E=       -0.000000115504 Rises=F Damp=F
 DIIS: error= 2.11D-06 at cycle  18 NSaved=  18.
 NSaved=18 IEnMin=18 EnMin= -2017.14485159830     IErMin=18 ErrMin= 2.11D-06
 ErrMax= 2.11D-06  0.00D+00 EMaxC= 1.00D-01 BMatC= 7.28D-09 BMatP= 2.05D-08
 IDIUse=1 WtCom= 1.00D+00 WtEn= 0.00D+00
 Coeff-Com:  0.120D-04-0.164D-04-0.118D-03-0.463D-03-0.996D-03-0.827D-03
 Coeff-Com:  0.459D-02 0.964D-02-0.450D-02-0.395D-01-0.795D-01 0.733D-01
 Coeff-Com:  0.276D+00-0.139D-01-0.537D+00-0.181D+00 0.440D+00 0.105D+01
 Coeff:      0.120D-04-0.164D-04-0.118D-03-0.463D-03-0.996D-03-0.827D-03
 Coeff:      0.459D-02 0.964D-02-0.450D-02-0.395D-01-0.795D-01 0.733D-01
 Coeff:      0.276D+00-0.139D-01-0.537D+00-0.181D+00 0.440D+00 0.105D+01
 Gap=     0.095 Goal=   None    Shift=    0.000
 Gap=     0.136 Goal=   None    Shift=    0.000
 RMSDP=6.55D-07 MaxDP=1.26D-04 DE=-1.16D-07 OVMax= 8.84D-04

 Cycle  19  Pass 1  IDiag  1:
 RMSU=  3.95D-07    CP:  9.78D-01  2.76D+00  9.28D-01  9.20D-01  1.41D+00
                    CP:  1.76D+00  2.51D+00  2.26D+00  3.00D+00  3.00D+00
                    CP:  3.00D+00  3.00D+00  3.00D+00  3.00D+00  3.00D+00
                    CP:  2.76D+00  3.00D+00  1.93D+00
 E= -2017.14485163688     Delta-E=       -0.000000038578 Rises=F Damp=F
 DIIS: error= 8.64D-07 at cycle  19 NSaved=  19.
 NSaved=19 IEnMin=19 EnMin= -2017.14485163688     IErMin=19 ErrMin= 8.64D-07
 ErrMax= 8.64D-07  0.00D+00 EMaxC= 1.00D-01 BMatC= 2.32D-09 BMatP= 7.28D-09
 IDIUse=1 WtCom= 1.00D+00 WtEn= 0.00D+00
 Coeff-Com: -0.131D-04 0.219D-04 0.864D-04 0.129D-03-0.156D-03-0.197D-02
 Coeff-Com: -0.274D-02 0.439D-02 0.155D-01 0.436D-02-0.567D-01-0.695D-01
 Coeff-Com:  0.728D-01 0.191D+00-0.289D-01-0.314D+00-0.234D+00 0.440D+00
 Coeff-Com:  0.979D+00
 Coeff:     -0.131D-04 0.219D-04 0.864D-04 0.129D-03-0.156D-03-0.197D-02
 Coeff:     -0.274D-02 0.439D-02 0.155D-01 0.436D-02-0.567D-01-0.695D-01
 Coeff:      0.728D-01 0.191D+00-0.289D-01-0.314D+00-0.234D+00 0.440D+00
 Coeff:      0.979D+00
 Gap=     0.095 Goal=   None    Shift=    0.000
 Gap=     0.136 Goal=   None    Shift=    0.000
 RMSDP=3.51D-07 MaxDP=6.98D-05 DE=-3.86D-08 OVMax= 4.76D-04

 Cycle  20  Pass 1  IDiag  1:
 RMSU=  3.52D-08    CP:  9.78D-01  2.76D+00  9.28D-01  9.20D-01  1.41D+00
                    CP:  1.76D+00  2.52D+00  2.26D+00  3.00D+00  3.00D+00
                    CP:  3.00D+00  3.00D+00  3.00D+00  3.00D+00  3.00D+00
                    CP:  2.97D+00  3.00D+00  2.44D+00  1.52D+00
 E= -2017.14485164724     Delta-E=       -0.000000010361 Rises=F Damp=F
 DIIS: error= 6.07D-07 at cycle  20 NSaved=  20.
 NSaved=20 IEnMin=20 EnMin= -2017.14485164724     IErMin=20 ErrMin= 6.07D-07
 ErrMax= 6.07D-07  0.00D+00 EMaxC= 1.00D-01 BMatC= 7.19D-10 BMatP= 2.32D-09
 IDIUse=1 WtCom= 1.00D+00 WtEn= 0.00D+00
 Coeff-Com: -0.527D-05 0.869D-05 0.744D-04 0.185D-03 0.244D-03-0.589D-03
 Coeff-Com: -0.250D-02-0.111D-02 0.794D-02 0.132D-01 0.104D-03-0.481D-01
 Coeff-Com: -0.502D-01 0.855D-01 0.146D+00-0.829D-01-0.224D+00-0.121D+00
 Coeff-Com:  0.396D+00 0.882D+00
 Coeff:     -0.527D-05 0.869D-05 0.744D-04 0.185D-03 0.244D-03-0.589D-03
 Coeff:     -0.250D-02-0.111D-02 0.794D-02 0.132D-01 0.104D-03-0.481D-01
 Coeff:     -0.502D-01 0.855D-01 0.146D+00-0.829D-01-0.224D+00-0.121D+00
 Coeff:      0.396D+00 0.882D+00
 Gap=     0.095 Goal=   None    Shift=    0.000
 Gap=     0.136 Goal=   None    Shift=    0.000
 RMSDP=1.04D-07 MaxDP=2.39D-05 DE=-1.04D-08 OVMax= 1.27D-04

 Cycle  21  Pass 1  IDiag  1:
 Restarting incremental Fock formation.
 E= -2017.14485164912     Delta-E=       -0.000000001874 Rises=F Damp=F
 DIIS: error= 3.27D-07 at cycle  21 NSaved=  20.
 NSaved=20 IEnMin=20 EnMin= -2017.14485164912     IErMin=20 ErrMin= 3.27D-07
 ErrMax= 3.27D-07  0.00D+00 EMaxC= 1.00D-01 BMatC= 2.41D-10 BMatP= 7.19D-10
 IDIUse=1 WtCom= 1.00D+00 WtEn= 0.00D+00
 Coeff-Com:  0.313D-06 0.632D-05 0.333D-04 0.150D-03 0.435D-03-0.381D-04
 Coeff-Com: -0.182D-02-0.221D-02 0.336D-02 0.179D-01 0.563D-02-0.445D-01
 Coeff-Com: -0.346D-01 0.642D-01 0.810D-01 0.790D-02-0.199D+00-0.228D+00
 Coeff-Com:  0.301D+00 0.103D+01
 Coeff:      0.313D-06 0.632D-05 0.333D-04 0.150D-03 0.435D-03-0.381D-04
 Coeff:     -0.182D-02-0.221D-02 0.336D-02 0.179D-01 0.563D-02-0.445D-01
 Coeff:     -0.346D-01 0.642D-01 0.810D-01 0.790D-02-0.199D+00-0.228D+00
 Coeff:      0.301D+00 0.103D+01
 Gap=     0.095 Goal=   None    Shift=    0.000
 Gap=     0.136 Goal=   None    Shift=    0.000
 RMSDP=6.29D-08 MaxDP=1.12D-05 DE=-1.87D-09 OVMax= 8.24D-05

 Cycle  22  Pass 1  IDiag  1:
 RMSU=  6.28D-08    CP:  1.00D+00
 E= -2017.14485165013     Delta-E=       -0.000000001008 Rises=F Damp=F
 DIIS: error= 1.78D-07 at cycle  22 NSaved=  20.
 NSaved=20 IEnMin=20 EnMin= -2017.14485165013     IErMin=20 ErrMin= 1.78D-07
 ErrMax= 1.78D-07  0.00D+00 EMaxC= 1.00D-01 BMatC= 1.02D-10 BMatP= 2.41D-10
 IDIUse=1 WtCom= 1.00D+00 WtEn= 0.00D+00
 Coeff-Com: -0.167D-04-0.339D-04 0.865D-05 0.409D-03 0.685D-03-0.590D-03
 Coeff-Com: -0.343D-02-0.235D-02 0.840D-02 0.175D-01-0.732D-02-0.437D-01
 Coeff-Com: -0.123D-01 0.656D-01 0.740D-01-0.655D-01-0.248D+00-0.131D+00
 Coeff-Com:  0.563D+00 0.784D+00
 Coeff:     -0.167D-04-0.339D-04 0.865D-05 0.409D-03 0.685D-03-0.590D-03
 Coeff:     -0.343D-02-0.235D-02 0.840D-02 0.175D-01-0.732D-02-0.437D-01
 Coeff:     -0.123D-01 0.656D-01 0.740D-01-0.655D-01-0.248D+00-0.131D+00
 Coeff:      0.563D+00 0.784D+00
 Gap=     0.095 Goal=   None    Shift=    0.000
 Gap=     0.136 Goal=   None    Shift=    0.000
 RMSDP=3.72D-08 MaxDP=5.92D-06 DE=-1.01D-09 OVMax= 4.97D-05

 Cycle  23  Pass 1  IDiag  1:
 RMSU=  7.80D-09    CP:  1.00D+00  1.58D+00
 E= -2017.14485164976     Delta-E=        0.000000000361 Rises=F Damp=F
 DIIS: error= 9.15D-08 at cycle  23 NSaved=  20.
 NSaved=20 IEnMin=19 EnMin= -2017.14485165013     IErMin=20 ErrMin= 9.15D-08
 ErrMax= 9.15D-08  0.00D+00 EMaxC= 1.00D-01 BMatC= 3.30D-11 BMatP= 1.02D-10
 IDIUse=1 WtCom= 1.00D+00 WtEn= 0.00D+00
 Coeff-Com:  0.137D-05-0.394D-05-0.466D-05-0.995D-05 0.149D-03 0.969D-04
 Coeff-Com: -0.101D-02-0.226D-02 0.305D-02 0.867D-02-0.191D-02-0.203D-01
 Coeff-Com: -0.201D-02 0.221D-01 0.344D-01-0.232D-01-0.159D+00-0.868D-01
 Coeff-Com:  0.388D+00 0.840D+00
 Coeff:      0.137D-05-0.394D-05-0.466D-05-0.995D-05 0.149D-03 0.969D-04
 Coeff:     -0.101D-02-0.226D-02 0.305D-02 0.867D-02-0.191D-02-0.203D-01
 Coeff:     -0.201D-02 0.221D-01 0.344D-01-0.232D-01-0.159D+00-0.868D-01
 Coeff:      0.388D+00 0.840D+00
 Gap=     0.095 Goal=   None    Shift=    0.000
 Gap=     0.136 Goal=   None    Shift=    0.000
 RMSDP=1.09D-08 MaxDP=1.93D-06 DE= 3.61D-10 OVMax= 1.05D-05

 Cycle  24  Pass 1  IDiag  1:
 RMSU=  9.33D-09    CP:  1.00D+00  1.67D+00  9.37D-01
 E= -2017.14485164995     Delta-E=       -0.000000000186 Rises=F Damp=F
 DIIS: error= 4.42D-08 at cycle  24 NSaved=  20.
 NSaved=20 IEnMin=18 EnMin= -2017.14485165013     IErMin=20 ErrMin= 4.42D-08
 ErrMax= 4.42D-08  0.00D+00 EMaxC= 1.00D-01 BMatC= 1.17D-11 BMatP= 3.30D-11
 IDIUse=1 WtCom= 1.00D+00 WtEn= 0.00D+00
 Coeff-Com: -0.107D-04-0.562D-04-0.387D-04 0.230D-03 0.472D-03-0.525D-03
 Coeff-Com: -0.292D-02-0.837D-03 0.637D-02 0.636D-02-0.103D-01-0.136D-01
 Coeff-Com: -0.119D-02 0.346D-01 0.437D-01-0.778D-01-0.200D+00 0.243D-01
 Coeff-Com:  0.477D+00 0.714D+00
 Coeff:     -0.107D-04-0.562D-04-0.387D-04 0.230D-03 0.472D-03-0.525D-03
 Coeff:     -0.292D-02-0.837D-03 0.637D-02 0.636D-02-0.103D-01-0.136D-01
 Coeff:     -0.119D-02 0.346D-01 0.437D-01-0.778D-01-0.200D+00 0.243D-01
 Coeff:      0.477D+00 0.714D+00
 Gap=     0.095 Goal=   None    Shift=    0.000
 Gap=     0.136 Goal=   None    Shift=    0.000
 RMSDP=1.01D-08 MaxDP=1.66D-06 DE=-1.86D-10 OVMax= 1.33D-05

 Cycle  25  Pass 1  IDiag  1:
 RMSU=  2.43D-09    CP:  1.00D+00  1.82D+00  1.20D+00  1.17D+00
 E= -2017.14485165025     Delta-E=       -0.000000000296 Rises=F Damp=F
 DIIS: error= 2.97D-08 at cycle  25 NSaved=  20.
 NSaved=20 IEnMin=20 EnMin= -2017.14485165025     IErMin=20 ErrMin= 2.97D-08
 ErrMax= 2.97D-08  0.00D+00 EMaxC= 1.00D-01 BMatC= 2.20D-12 BMatP= 1.17D-11
 IDIUse=1 WtCom= 1.00D+00 WtEn= 0.00D+00
 Coeff-Com: -0.259D-04-0.300D-04 0.366D-04 0.227D-03 0.131D-03-0.489D-03
 Coeff-Com: -0.129D-02-0.141D-04 0.443D-02 0.227D-02-0.609D-02-0.894D-02
 Coeff-Com:  0.232D-02 0.319D-01 0.207D-01-0.461D-01-0.105D+00-0.924D-01
 Coeff-Com:  0.199D+00 0.999D+00
 Coeff:     -0.259D-04-0.300D-04 0.366D-04 0.227D-03 0.131D-03-0.489D-03
 Coeff:     -0.129D-02-0.141D-04 0.443D-02 0.227D-02-0.609D-02-0.894D-02
 Coeff:      0.232D-02 0.319D-01 0.207D-01-0.461D-01-0.105D+00-0.924D-01
 Coeff:      0.199D+00 0.999D+00
 Gap=     0.095 Goal=   None    Shift=    0.000
 Gap=     0.136 Goal=   None    Shift=    0.000
 RMSDP=4.68D-09 MaxDP=8.86D-07 DE=-2.96D-10 OVMax= 4.17D-06

 Error on total polarization charges =  0.02484
 SCF Done:  E(UM062X) =  -2017.14485165     A.U. after   25 cycles
            NFock= 25  Conv=0.47D-08     -V/T= 2.0053
 <Sx>= 0.0000 <Sy>= 0.0000 <Sz>= 0.5000 <S**2>= 0.8404 S= 0.5442
 <L.S>= 0.000000000000E+00
 KE= 2.006480435702D+03 PE=-1.413461859494D+04 EE= 5.410514547695D+03
 Annihilation of the first spin contaminant:
 S**2 before annihilation     0.8404,   after     0.7542
 Leave Link  502 at Tue Oct 28 21:42:29 2025, MaxMem= 30870077440 cpu:          127642.8 elap:            2016.9
 (Enter /public/software/gauss/g16/l601.exe)
 Copying SCF densities to generalized density rwf, IOpCl= 1 IROHF=0.

 **********************************************************************

            Population analysis using the SCF density.

 **********************************************************************

 Orbital symmetries:
 Alpha Orbitals:
       Occupied  (A) (A) (A) (A) (A) (A) (A) (A) (A) (A) (A) (A)
                 (A) (A) (A) (A) (A) (A) (A) (A) (A) (A) (A) (A)
                 (A) (A) (A) (A) (A) (A) (A) (A) (A) (A) (A) (A)
                 (A) (A) (A) (A) (A) (A) (A) (A) (A) (A) (A) (A)
                 (A) (A) (A) (A) (A) (A) (A) (A) (A) (A) (A) (A)
                 (A) (A) (A) (A) (A) (A) (A) (A) (A) (A) (A) (A)
                 (A) (A) (A) (A) (A) (A) (A) (A) (A) (A) (A) (A)
                 (A) (A) (A) (A) (A) (A) (A) (A) (A) (A) (A) (A)
                 (A) (A) (A) (A) (A) (A) (A) (A) (A) (A) (A) (A)
                 (A) (A) (A) (A) (A) (A) (A) (A) (A) (A) (A) (A)
                 (A) (A) (A) (A) (A) (A) (A) (A) (A) (A) (A) (A)
                 (A) (A) (A) (A) (A) (A) (A) (A) (A) (A) (A) (A)
                 (A) (A) (A) (A) (A) (A) (A) (A) (A) (A)
       Virtual   (A) (A) (A) (A) (A) (A) (A) (A) (A) (A) (A) (A)
                 (A) (A) (A) (A) (A) (A) (A) (A) (A) (A) (A) (A)
                 (A) (A) (A) (A) (A) (A) (A) (A) (A) (A) (A) (A)
                 (A) (A) (A) (A) (A) (A) (A) (A) (A) (A) (A) (A)
                 (A) (A) (A) (A) (A) (A) (A) (A) (A) (A) (A) (A)
                 (A) (A) (A) (A) (A) (A) (A) (A) (A) (A) (A) (A)
                 (A) (A) (A) (A) (A) (A) (A) (A) (A) (A) (A) (A)
                 (A) (A) (A) (A) (A) (A) (A) (A) (A) (A) (A) (A)
                 (A) (A) (A) (A) (A) (A) (A) (A) (A) (A) (A) (A)
                 (A) (A) (A) (A) (A) (A) (A) (A) (A) (A) (A) (A)
                 (A) (A) (A) (A) (A) (A) (A) (A) (A) (A) (A) (A)
                 (A) (A) (A) (A) (A) (A) (A) (A) (A) (A) (A) (A)
                 (A) (A) (A) (A) (A) (A) (A) (A) (A) (A) (A) (A)
                 (A) (A) (A) (A) (A) (A) (A) (A) (A) (A) (A) (A)
                 (A) (A) (A) (A) (A) (A) (A) (A) (A) (A) (A) (A)
                 (A) (A) (A) (A) (A) (A) (A) (A) (A) (A) (A) (A)
                 (A) (A) (A) (A) (A) (A) (A) (A) (A) (A) (A) (A)
                 (A) (A) (A) (A) (A) (A) (A) (A) (A) (A) (A) (A)
                 (A) (A) (A) (A) (A) (A) (A) (A) (A) (A) (A) (A)
                 (A) (A) (A) (A) (A) (A) (A) (A) (A) (A) (A) (A)
                 (A) (A) (A) (A) (A) (A) (A) (A) (A) (A) (A) (A)
                 (A) (A) (A) (A) (A) (A) (A) (A) (A) (A) (A) (A)
                 (A) (A) (A) (A) (A) (A) (A) (A) (A) (A) (A) (A)
                 (A) (A) (A) (A) (A) (A) (A) (A) (A) (A) (A) (A)
                 (A) (A) (A) (A) (A) (A) (A) (A) (A) (A) (A) (A)
                 (A) (A) (A) (A) (A) (A) (A) (A) (A) (A) (A) (A)
                 (A) (A) (A) (A) (A) (A) (A) (A) (A) (A) (A) (A)
                 (A) (A) (A) (A) (A) (A) (A) (A) (A) (A) (A) (A)
                 (A) (A) (A) (A) (A) (A) (A) (A) (A) (A) (A) (A)
                 (A) (A) (A) (A) (A) (A) (A) (A) (A) (A) (A) (A)
                 (A) (A) (A) (A) (A) (A) (A) (A) (A) (A) (A) (A)
                 (A) (A) (A) (A) (A) (A) (A) (A) (A) (A) (A) (A)
                 (A) (A) (A) (A) (A) (A) (A) (A) (A) (A) (A) (A)
                 (A) (A) (A) (A) (A) (A) (A) (A) (A) (A) (A) (A)
                 (A) (A) (A) (A) (A) (A) (A) (A) (A) (A) (A) (A)
                 (A) (A) (A) (A) (A) (A) (A) (A) (A) (A) (A) (A)
                 (A) (A) (A) (A) (A) (A) (A) (A) (A) (A) (A) (A)
                 (A) (A) (A) (A) (A) (A) (A) (A) (A) (A) (A) (A)
                 (A) (A) (A) (A) (A) (A) (A) (A) (A) (A) (A) (A)
                 (A) (A) (A) (A) (A) (A) (A) (A) (A) (A) (A) (A)
                 (A) (A) (A) (A) (A) (A) (A) (A) (A) (A) (A) (A)
                 (A) (A) (A) (A) (A) (A) (A) (A) (A) (A) (A) (A)
                 (A) (A) (A) (A) (A) (A) (A) (A) (A) (A) (A) (A)
                 (A) (A) (A) (A) (A) (A) (A) (A) (A) (A) (A) (A)
                 (A) (A) (A) (A) (A) (A) (A) (A) (A) (A) (A) (A)
                 (A) (A) (A) (A) (A) (A) (A) (A) (A) (A) (A) (A)
                 (A) (A) (A) (A) (A) (A) (A) (A) (A) (A) (A) (A)
                 (A) (A) (A) (A) (A) (A) (A) (A) (A) (A) (A) (A)
                 (A) (A) (A) (A) (A) (A) (A) (A) (A) (A) (A) (A)
                 (A) (A) (A) (A) (A) (A) (A) (A) (A) (A) (A) (A)
                 (A) (A) (A) (A) (A) (A) (A) (A) (A) (A) (A) (A)
                 (A) (A) (A) (A) (A) (A) (A) (A) (A) (A) (A) (A)
                 (A) (A) (A) (A) (A) (A) (A) (A) (A) (A) (A) (A)
                 (A) (A) (A) (A) (A) (A) (A) (A) (A) (A) (A) (A)
                 (A) (A) (A) (A) (A) (A) (A) (A) (A) (A) (A) (A)
                 (A) (A) (A) (A) (A) (A) (A) (A) (A) (A) (A) (A)
                 (A) (A) (A) (A) (A) (A) (A) (A) (A) (A) (A) (A)
                 (A) (A) (A) (A) (A) (A) (A) (A) (A) (A) (A) (A)
                 (A) (A) (A) (A) (A) (A) (A) (A) (A) (A) (A) (A)
                 (A) (A) (A) (A) (A) (A) (A) (A) (A) (A) (A) (A)
                 (A) (A) (A) (A) (A) (A) (A) (A) (A) (A) (A) (A)
                 (A) (A) (A) (A) (A) (A) (A) (A) (A) (A) (A) (A)
                 (A) (A) (A) (A) (A) (A) (A) (A) (A) (A) (A) (A)
                 (A) (A) (A) (A) (A) (A) (A) (A) (A) (A) (A) (A)
                 (A) (A) (A) (A) (A) (A) (A) (A) (A) (A) (A) (A)
                 (A) (A) (A) (A) (A) (A) (A) (A) (A) (A) (A) (A)
                 (A) (A) (A) (A) (A) (A) (A) (A) (A) (A) (A) (A)
                 (A) (A) (A) (A) (A) (A) (A) (A) (A) (A) (A) (A)
                 (A) (A) (A) (A) (A) (A) (A) (A) (A) (A) (A) (A)
                 (A) (A) (A) (A) (A) (A) (A) (A) (A) (A) (A) (A)
                 (A) (A) (A) (A) (A) (A) (A) (A) (A) (A) (A) (A)
                 (A) (A) (A) (A) (A) (A) (A) (A) (A) (A) (A) (A)
                 (A) (A) (A) (A) (A) (A) (A) (A) (A) (A) (A) (A)
                 (A) (A) (A) (A) (A) (A) (A) (A) (A) (A) (A) (A)
                 (A) (A) (A) (A) (A) (A) (A) (A) (A) (A) (A) (A)
                 (A) (A) (A) (A) (A) (A) (A) (A) (A) (A) (A) (A)
                 (A) (A) (A) (A) (A) (A) (A) (A) (A) (A) (A) (A)
                 (A) (A) (A) (A) (A) (A) (A) (A) (A) (A) (A) (A)
                 (A) (A) (A) (A) (A) (A) (A) (A) (A) (A) (A) (A)
                 (A) (A) (A) (A) (A) (A) (A) (A) (A) (A) (A) (A)
                 (A) (A) (A) (A) (A) (A) (A) (A) (A) (A) (A) (A)
                 (A) (A) (A) (A) (A) (A) (A) (A) (A) (A) (A) (A)
                 (A) (A) (A) (A) (A) (A) (A) (A) (A) (A) (A) (A)
                 (A) (A) (A) (A) (A) (A) (A) (A) (A) (A) (A) (A)
                 (A) (A) (A) (A) (A) (A) (A) (A) (A) (A) (A) (A)
                 (A) (A) (A) (A) (A) (A) (A) (A) (A) (A) (A) (A)
                 (A) (A) (A) (A) (A) (A) (A) (A) (A) (A) (A) (A)
                 (A) (A) (A) (A) (A) (A) (A) (A) (A) (A) (A) (A)
                 (A) (A) (A) (A) (A) (A) (A) (A) (A) (A) (A) (A)
                 (A) (A) (A) (A) (A) (A) (A) (A) (A) (A) (A) (A)
                 (A) (A) (A) (A) (A) (A) (A) (A) (A) (A) (A) (A)
                 (A) (A) (A) (A) (A) (A) (A) (A) (A) (A) (A) (A)
                 (A) (A) (A) (A) (A) (A) (A) (A) (A) (A) (A) (A)
                 (A) (A) (A) (A) (A) (A) (A) (A) (A) (A) (A) (A)
                 (A) (A) (A) (A) (A) (A) (A) (A) (A) (A) (A) (A)
                 (A) (A) (A) (A) (A) (A) (A) (A) (A) (A) (A) (A)
                 (A) (A) (A) (A) (A) (A) (A) (A) (A) (A) (A) (A)
                 (A) (A) (A) (A) (A) (A) (A) (A) (A) (A) (A) (A)
                 (A) (A) (A) (A) (A) (A) (A) (A) (A) (A) (A) (A)
                 (A) (A) (A) (A) (A) (A) (A) (A) (A) (A) (A) (A)
                 (A) (A) (A) (A) (A) (A) (A) (A) (A) (A) (A) (A)
                 (A) (A) (A) (A) (A) (A) (A) (A) (A) (A) (A) (A)
                 (A) (A) (A) (A) (A) (A) (A) (A) (A) (A) (A) (A)
                 (A) (A) (A) (A) (A) (A) (A) (A) (A) (A) (A) (A)
                 (A) (A) (A) (A) (A) (A) (A) (A) (A) (A) (A) (A)
                 (A) (A) (A) (A) (A) (A) (A) (A) (A) (A) (A) (A)
                 (A) (A) (A) (A) (A) (A) (A) (A) (A) (A) (A) (A)
                 (A) (A) (A) (A) (A) (A) (A) (A) (A) (A) (A) (A)
                 (A) (A) (A) (A) (A) (A) (A) (A) (A) (A) (A) (A)
                 (A) (A) (A) (A) (A) (A) (A) (A) (A) (A) (A) (A)
                 (A) (A) (A) (A) (A) (A) (A) (A) (A) (A) (A) (A)
                 (A) (A) (A) (A) (A) (A) (A) (A) (A) (A) (A) (A)
                 (A) (A) (A) (A) (A) (A) (A) (A) (A) (A) (A) (A)
                 (A) (A) (A) (A) (A) (A) (A) (A) (A) (A) (A) (A)
                 (A) (A) (A) (A) (A) (A) (A) (A) (A) (A) (A) (A)
                 (A) (A) (A) (A) (A) (A) (A) (A) (A) (A) (A) (A)
                 (A) (A) (A) (A) (A) (A) (A) (A) (A) (A) (A) (A)
                 (A) (A) (A) (A) (A) (A) (A) (A) (A) (A) (A) (A)
                 (A) (A) (A) (A) (A) (A) (A) (A) (A) (A) (A) (A)
                 (A) (A) (A) (A) (A) (A) (A) (A) (A) (A) (A) (A)
                 (A) (A) (A) (A) (A) (A) (A) (A) (A) (A) (A) (A)
                 (A) (A) (A) (A) (A) (A) (A) (A) (A) (A) (A) (A)
                 (A) (A) (A) (A) (A) (A) (A) (A) (A) (A) (A) (A)
                 (A) (A) (A) (A) (A) (A) (A) (A) (A) (A) (A) (A)
                 (A) (A) (A) (A) (A) (A) (A) (A) (A) (A) (A) (A)
                 (A) (A) (A) (A) (A) (A) (A) (A) (A) (A) (A) (A)
                 (A) (A) (A) (A) (A) (A) (A) (A) (A) (A) (A) (A)
                 (A) (A) (A) (A) (A) (A) (A) (A) (A) (A) (A) (A)
                 (A) (A) (A) (A) (A) (A) (A) (A) (A) (A) (A) (A)
                 (A) (A) (A) (A) (A) (A) (A) (A) (A) (A) (A) (A)
 Beta  Orbitals:
       Occupied  (A) (A) (A) (A) (A) (A) (A) (A) (A) (A) (A) (A)
                 (A) (A) (A) (A) (A) (A) (A) (A) (A) (A) (A) (A)
                 (A) (A) (A) (A) (A) (A) (A) (A) (A) (A) (A) (A)
                 (A) (A) (A) (A) (A) (A) (A) (A) (A) (A) (A) (A)
                 (A) (A) (A) (A) (A) (A) (A) (A) (A) (A) (A) (A)
                 (A) (A) (A) (A) (A) (A) (A) (A) (A) (A) (A) (A)
                 (A) (A) (A) (A) (A) (A) (A) (A) (A) (A) (A) (A)
                 (A) (A) (A) (A) (A) (A) (A) (A) (A) (A) (A) (A)
                 (A) (A) (A) (A) (A) (A) (A) (A) (A) (A) (A) (A)
                 (A) (A) (A) (A) (A) (A) (A) (A) (A) (A) (A) (A)
                 (A) (A) (A) (A) (A) (A) (A) (A) (A) (A) (A) (A)
                 (A) (A) (A) (A) (A) (A) (A) (A) (A) (A) (A) (A)
                 (A) (A) (A) (A) (A) (A) (A) (A) (A)
       Virtual   (A) (A) (A) (A) (A) (A) (A) (A) (A) (A) (A) (A)
                 (A) (A) (A) (A) (A) (A) (A) (A) (A) (A) (A) (A)
                 (A) (A) (A) (A) (A) (A) (A) (A) (A) (A) (A) (A)
                 (A) (A) (A) (A) (A) (A) (A) (A) (A) (A) (A) (A)
                 (A) (A) (A) (A) (A) (A) (A) (A) (A) (A) (A) (A)
                 (A) (A) (A) (A) (A) (A) (A) (A) (A) (A) (A) (A)
                 (A) (A) (A) (A) (A) (A) (A) (A) (A) (A) (A) (A)
                 (A) (A) (A) (A) (A) (A) (A) (A) (A) (A) (A) (A)
                 (A) (A) (A) (A) (A) (A) (A) (A) (A) (A) (A) (A)
                 (A) (A) (A) (A) (A) (A) (A) (A) (A) (A) (A) (A)
                 (A) (A) (A) (A) (A) (A) (A) (A) (A) (A) (A) (A)
                 (A) (A) (A) (A) (A) (A) (A) (A) (A) (A) (A) (A)
                 (A) (A) (A) (A) (A) (A) (A) (A) (A) (A) (A) (A)
                 (A) (A) (A) (A) (A) (A) (A) (A) (A) (A) (A) (A)
                 (A) (A) (A) (A) (A) (A) (A) (A) (A) (A) (A) (A)
                 (A) (A) (A) (A) (A) (A) (A) (A) (A) (A) (A) (A)
                 (A) (A) (A) (A) (A) (A) (A) (A) (A) (A) (A) (A)
                 (A) (A) (A) (A) (A) (A) (A) (A) (A) (A) (A) (A)
                 (A) (A) (A) (A) (A) (A) (A) (A) (A) (A) (A) (A)
                 (A) (A) (A) (A) (A) (A) (A) (A) (A) (A) (A) (A)
                 (A) (A) (A) (A) (A) (A) (A) (A) (A) (A) (A) (A)
                 (A) (A) (A) (A) (A) (A) (A) (A) (A) (A) (A) (A)
                 (A) (A) (A) (A) (A) (A) (A) (A) (A) (A) (A) (A)
                 (A) (A) (A) (A) (A) (A) (A) (A) (A) (A) (A) (A)
                 (A) (A) (A) (A) (A) (A) (A) (A) (A) (A) (A) (A)
                 (A) (A) (A) (A) (A) (A) (A) (A) (A) (A) (A) (A)
                 (A) (A) (A) (A) (A) (A) (A) (A) (A) (A) (A) (A)
                 (A) (A) (A) (A) (A) (A) (A) (A) (A) (A) (A) (A)
                 (A) (A) (A) (A) (A) (A) (A) (A) (A) (A) (A) (A)
                 (A) (A) (A) (A) (A) (A) (A) (A) (A) (A) (A) (A)
                 (A) (A) (A) (A) (A) (A) (A) (A) (A) (A) (A) (A)
                 (A) (A) (A) (A) (A) (A) (A) (A) (A) (A) (A) (A)
                 (A) (A) (A) (A) (A) (A) (A) (A) (A) (A) (A) (A)
                 (A) (A) (A) (A) (A) (A) (A) (A) (A) (A) (A) (A)
                 (A) (A) (A) (A) (A) (A) (A) (A) (A) (A) (A) (A)
                 (A) (A) (A) (A) (A) (A) (A) (A) (A) (A) (A) (A)
                 (A) (A) (A) (A) (A) (A) (A) (A) (A) (A) (A) (A)
                 (A) (A) (A) (A) (A) (A) (A) (A) (A) (A) (A) (A)
                 (A) (A) (A) (A) (A) (A) (A) (A) (A) (A) (A) (A)
                 (A) (A) (A) (A) (A) (A) (A) (A) (A) (A) (A) (A)
                 (A) (A) (A) (A) (A) (A) (A) (A) (A) (A) (A) (A)
                 (A) (A) (A) (A) (A) (A) (A) (A) (A) (A) (A) (A)
                 (A) (A) (A) (A) (A) (A) (A) (A) (A) (A) (A) (A)
                 (A) (A) (A) (A) (A) (A) (A) (A) (A) (A) (A) (A)
                 (A) (A) (A) (A) (A) (A) (A) (A) (A) (A) (A) (A)
                 (A) (A) (A) (A) (A) (A) (A) (A) (A) (A) (A) (A)
                 (A) (A) (A) (A) (A) (A) (A) (A) (A) (A) (A) (A)
                 (A) (A) (A) (A) (A) (A) (A) (A) (A) (A) (A) (A)
                 (A) (A) (A) (A) (A) (A) (A) (A) (A) (A) (A) (A)
                 (A) (A) (A) (A) (A) (A) (A) (A) (A) (A) (A) (A)
                 (A) (A) (A) (A) (A) (A) (A) (A) (A) (A) (A) (A)
                 (A) (A) (A) (A) (A) (A) (A) (A) (A) (A) (A) (A)
                 (A) (A) (A) (A) (A) (A) (A) (A) (A) (A) (A) (A)
                 (A) (A) (A) (A) (A) (A) (A) (A) (A) (A) (A) (A)
                 (A) (A) (A) (A) (A) (A) (A) (A) (A) (A) (A) (A)
                 (A) (A) (A) (A) (A) (A) (A) (A) (A) (A) (A) (A)
                 (A) (A) (A) (A) (A) (A) (A) (A) (A) (A) (A) (A)
                 (A) (A) (A) (A) (A) (A) (A) (A) (A) (A) (A) (A)
                 (A) (A) (A) (A) (A) (A) (A) (A) (A) (A) (A) (A)
                 (A) (A) (A) (A) (A) (A) (A) (A) (A) (A) (A) (A)
                 (A) (A) (A) (A) (A) (A) (A) (A) (A) (A) (A) (A)
                 (A) (A) (A) (A) (A) (A) (A) (A) (A) (A) (A) (A)
                 (A) (A) (A) (A) (A) (A) (A) (A) (A) (A) (A) (A)
                 (A) (A) (A) (A) (A) (A) (A) (A) (A) (A) (A) (A)
                 (A) (A) (A) (A) (A) (A) (A) (A) (A) (A) (A) (A)
                 (A) (A) (A) (A) (A) (A) (A) (A) (A) (A) (A) (A)
                 (A) (A) (A) (A) (A) (A) (A) (A) (A) (A) (A) (A)
                 (A) (A) (A) (A) (A) (A) (A) (A) (A) (A) (A) (A)
                 (A) (A) (A) (A) (A) (A) (A) (A) (A) (A) (A) (A)
                 (A) (A) (A) (A) (A) (A) (A) (A) (A) (A) (A) (A)
                 (A) (A) (A) (A) (A) (A) (A) (A) (A) (A) (A) (A)
                 (A) (A) (A) (A) (A) (A) (A) (A) (A) (A) (A) (A)
                 (A) (A) (A) (A) (A) (A) (A) (A) (A) (A) (A) (A)
                 (A) (A) (A) (A) (A) (A) (A) (A) (A) (A) (A) (A)
                 (A) (A) (A) (A) (A) (A) (A) (A) (A) (A) (A) (A)
                 (A) (A) (A) (A) (A) (A) (A) (A) (A) (A) (A) (A)
                 (A) (A) (A) (A) (A) (A) (A) (A) (A) (A) (A) (A)
                 (A) (A) (A) (A) (A) (A) (A) (A) (A) (A) (A) (A)
                 (A) (A) (A) (A) (A) (A) (A) (A) (A) (A) (A) (A)
                 (A) (A) (A) (A) (A) (A) (A) (A) (A) (A) (A) (A)
                 (A) (A) (A) (A) (A) (A) (A) (A) (A) (A) (A) (A)
                 (A) (A) (A) (A) (A) (A) (A) (A) (A) (A) (A) (A)
                 (A) (A) (A) (A) (A) (A) (A) (A) (A) (A) (A) (A)
                 (A) (A) (A) (A) (A) (A) (A) (A) (A) (A) (A) (A)
                 (A) (A) (A) (A) (A) (A) (A) (A) (A) (A) (A) (A)
                 (A) (A) (A) (A) (A) (A) (A) (A) (A) (A) (A) (A)
                 (A) (A) (A) (A) (A) (A) (A) (A) (A) (A) (A) (A)
                 (A) (A) (A) (A) (A) (A) (A) (A) (A) (A) (A) (A)
                 (A) (A) (A) (A) (A) (A) (A) (A) (A) (A) (A) (A)
                 (A) (A) (A) (A) (A) (A) (A) (A) (A) (A) (A) (A)
                 (A) (A) (A) (A) (A) (A) (A) (A) (A) (A) (A) (A)
                 (A) (A) (A) (A) (A) (A) (A) (A) (A) (A) (A) (A)
                 (A) (A) (A) (A) (A) (A) (A) (A) (A) (A) (A) (A)
                 (A) (A) (A) (A) (A) (A) (A) (A) (A) (A) (A) (A)
                 (A) (A) (A) (A) (A) (A) (A) (A) (A) (A) (A) (A)
                 (A) (A) (A) (A) (A) (A) (A) (A) (A) (A) (A) (A)
                 (A) (A) (A) (A) (A) (A) (A) (A) (A) (A) (A) (A)
                 (A) (A) (A) (A) (A) (A) (A) (A) (A) (A) (A) (A)
                 (A) (A) (A) (A) (A) (A) (A) (A) (A) (A) (A) (A)
                 (A) (A) (A) (A) (A) (A) (A) (A) (A) (A) (A) (A)
                 (A) (A) (A) (A) (A) (A) (A) (A) (A) (A) (A) (A)
                 (A) (A) (A) (A) (A) (A) (A) (A) (A) (A) (A) (A)
                 (A) (A) (A) (A) (A) (A) (A) (A) (A) (A) (A) (A)
                 (A) (A) (A) (A) (A) (A) (A) (A) (A) (A) (A) (A)
                 (A) (A) (A) (A) (A) (A) (A) (A) (A) (A) (A) (A)
                 (A) (A) (A) (A) (A) (A) (A) (A) (A) (A) (A) (A)
                 (A) (A) (A) (A) (A) (A) (A) (A) (A) (A) (A) (A)
                 (A) (A) (A) (A) (A) (A) (A) (A) (A) (A) (A) (A)
                 (A) (A) (A) (A) (A) (A) (A) (A) (A) (A) (A) (A)
                 (A) (A) (A) (A) (A) (A) (A) (A) (A) (A) (A) (A)
                 (A) (A) (A) (A) (A) (A) (A) (A) (A) (A) (A) (A)
                 (A) (A) (A) (A) (A) (A) (A) (A) (A) (A) (A) (A)
                 (A) (A) (A) (A) (A) (A) (A) (A) (A) (A) (A) (A)
                 (A) (A) (A) (A) (A) (A) (A) (A) (A) (A) (A) (A)
                 (A) (A) (A) (A) (A) (A) (A) (A) (A) (A) (A) (A)
                 (A) (A) (A) (A) (A) (A) (A) (A) (A) (A) (A) (A)
                 (A) (A) (A) (A) (A) (A) (A) (A) (A) (A) (A) (A)
                 (A) (A) (A) (A) (A) (A) (A) (A) (A) (A) (A) (A)
                 (A) (A) (A) (A) (A) (A) (A) (A) (A) (A) (A) (A)
                 (A) (A) (A) (A) (A) (A) (A) (A) (A) (A) (A) (A)
                 (A) (A) (A) (A) (A) (A) (A) (A) (A) (A) (A) (A)
                 (A) (A) (A) (A) (A) (A) (A) (A) (A) (A) (A) (A)
                 (A) (A) (A) (A) (A) (A) (A) (A) (A) (A) (A) (A)
                 (A) (A) (A) (A) (A) (A) (A) (A) (A) (A) (A) (A)
                 (A) (A) (A) (A) (A) (A) (A) (A) (A) (A) (A) (A)
                 (A) (A) (A) (A) (A) (A) (A) (A) (A) (A) (A) (A)
                 (A) (A) (A) (A) (A) (A) (A) (A) (A) (A) (A) (A)
                 (A) (A) (A) (A) (A) (A) (A) (A) (A) (A) (A) (A)
                 (A) (A) (A) (A) (A) (A) (A) (A) (A) (A) (A) (A)
                 (A) (A) (A) (A) (A) (A) (A) (A) (A) (A) (A) (A)
                 (A)
 The electronic state is 2-A.
 Alpha  occ. eigenvalues --  -25.19703 -25.19489 -19.67733 -19.67730 -19.64268
 Alpha  occ. eigenvalues --  -19.64256 -15.01207 -14.97540 -14.76783 -14.76707
 Alpha  occ. eigenvalues --  -10.61620 -10.59222 -10.58460 -10.58424 -10.58411
 Alpha  occ. eigenvalues --  -10.57894 -10.57718 -10.57702 -10.57699 -10.57163
 Alpha  occ. eigenvalues --  -10.56929 -10.56767 -10.56764 -10.56188 -10.56102
 Alpha  occ. eigenvalues --  -10.55921 -10.55774 -10.55322 -10.55283 -10.55246
 Alpha  occ. eigenvalues --  -10.55021 -10.54972 -10.54924 -10.54874 -10.54771
 Alpha  occ. eigenvalues --  -10.54730 -10.54696 -10.54655 -10.54583 -10.53852
 Alpha  occ. eigenvalues --  -10.53623 -10.53333 -10.52961  -7.11918  -1.36669
 Alpha  occ. eigenvalues --   -1.31715  -1.31444  -1.28185  -1.18175  -1.13467
 Alpha  occ. eigenvalues --   -1.09064  -1.07056  -1.00506  -0.98719  -0.96747
 Alpha  occ. eigenvalues --   -0.94372  -0.92855  -0.90989  -0.89971  -0.89609
 Alpha  occ. eigenvalues --   -0.88953  -0.87326  -0.87310  -0.85969  -0.84710
 Alpha  occ. eigenvalues --   -0.84396  -0.82240  -0.80124  -0.79622  -0.79060
 Alpha  occ. eigenvalues --   -0.77182  -0.73761  -0.72170  -0.71324  -0.70664
 Alpha  occ. eigenvalues --   -0.69505  -0.69154  -0.68836  -0.67390  -0.66045
 Alpha  occ. eigenvalues --   -0.65780  -0.65252  -0.63691  -0.63502  -0.63189
 Alpha  occ. eigenvalues --   -0.63084  -0.61737  -0.61561  -0.60072  -0.60052
 Alpha  occ. eigenvalues --   -0.59567  -0.58934  -0.58601  -0.57507  -0.57018
 Alpha  occ. eigenvalues --   -0.56432  -0.55135  -0.54724  -0.53775  -0.53526
 Alpha  occ. eigenvalues --   -0.53057  -0.52500  -0.52293  -0.51760  -0.51703
 Alpha  occ. eigenvalues --   -0.51292  -0.50787  -0.50646  -0.50197  -0.50057
 Alpha  occ. eigenvalues --   -0.49241  -0.48827  -0.48621  -0.48308  -0.47752
 Alpha  occ. eigenvalues --   -0.47260  -0.47186  -0.46510  -0.46191  -0.46111
 Alpha  occ. eigenvalues --   -0.45918  -0.45819  -0.45592  -0.45135  -0.45026
 Alpha  occ. eigenvalues --   -0.43957  -0.43327  -0.43137  -0.42634  -0.42233
 Alpha  occ. eigenvalues --   -0.41756  -0.40951  -0.40734  -0.40375  -0.39875
 Alpha  occ. eigenvalues --   -0.39745  -0.39587  -0.39373  -0.39089  -0.38849
 Alpha  occ. eigenvalues --   -0.37981  -0.37887  -0.36377  -0.35196  -0.33596
 Alpha  occ. eigenvalues --   -0.33225  -0.33050  -0.31556  -0.31482  -0.31273
 Alpha  occ. eigenvalues --   -0.30208  -0.28280  -0.23190  -0.17804
 Alpha virt. eigenvalues --   -0.08321  -0.07163  -0.02959  -0.01103  -0.00398
 Alpha virt. eigenvalues --    0.01497   0.01630   0.02601   0.05343   0.05929
 Alpha virt. eigenvalues --    0.06185   0.07015   0.07811   0.08524   0.08733
 Alpha virt. eigenvalues --    0.08986   0.09316   0.09710   0.09826   0.10249
 Alpha virt. eigenvalues --    0.10579   0.10825   0.11846   0.12069   0.12431
 Alpha virt. eigenvalues --    0.12544   0.13099   0.13526   0.13614   0.13744
 Alpha virt. eigenvalues --    0.13955   0.14125   0.14432   0.14644   0.15044
 Alpha virt. eigenvalues --    0.15829   0.15983   0.16044   0.16122   0.16447
 Alpha virt. eigenvalues --    0.16748   0.17339   0.17528   0.18087   0.18355
 Alpha virt. eigenvalues --    0.18437   0.18715   0.18874   0.19444   0.19626
 Alpha virt. eigenvalues --    0.20321   0.20634   0.20857   0.21438   0.21519
 Alpha virt. eigenvalues --    0.21869   0.22015   0.22330   0.22422   0.22600
 Alpha virt. eigenvalues --    0.22933   0.23101   0.23198   0.23506   0.23805
 Alpha virt. eigenvalues --    0.24132   0.24257   0.24739   0.24859   0.25106
 Alpha virt. eigenvalues --    0.25588   0.25880   0.25974   0.26181   0.26279
 Alpha virt. eigenvalues --    0.26635   0.27051   0.27145   0.27321   0.27426
 Alpha virt. eigenvalues --    0.27591   0.27834   0.28152   0.28349   0.28756
 Alpha virt. eigenvalues --    0.28815   0.29349   0.29525   0.29865   0.29976
 Alpha virt. eigenvalues --    0.30192   0.30394   0.30796   0.31103   0.31227
 Alpha virt. eigenvalues --    0.31564   0.31964   0.32266   0.32468   0.32548
 Alpha virt. eigenvalues --    0.32848   0.33055   0.33406   0.33737   0.34037
 Alpha virt. eigenvalues --    0.34426   0.34657   0.34959   0.35061   0.35262
 Alpha virt. eigenvalues --    0.35579   0.35690   0.36105   0.36180   0.36362
 Alpha virt. eigenvalues --    0.36509   0.36827   0.37169   0.37217   0.37616
 Alpha virt. eigenvalues --    0.37669   0.37782   0.38000   0.38113   0.38877
 Alpha virt. eigenvalues --    0.39218   0.39257   0.39403   0.39630   0.39805
 Alpha virt. eigenvalues --    0.40175   0.40354   0.40658   0.40736   0.40991
 Alpha virt. eigenvalues --    0.41340   0.41496   0.41786   0.41851   0.42212
 Alpha virt. eigenvalues --    0.42344   0.42466   0.42737   0.42849   0.43049
 Alpha virt. eigenvalues --    0.43296   0.43402   0.43565   0.44148   0.44333
 Alpha virt. eigenvalues --    0.44579   0.44815   0.44944   0.45008   0.45400
 Alpha virt. eigenvalues --    0.45772   0.45870   0.45944   0.46482   0.46612
 Alpha virt. eigenvalues --    0.46891   0.47423   0.47545   0.47754   0.48098
 Alpha virt. eigenvalues --    0.48189   0.48271   0.48632   0.49073   0.49407
 Alpha virt. eigenvalues --    0.49878   0.50089   0.50179   0.50224   0.50690
 Alpha virt. eigenvalues --    0.50934   0.51511   0.51553   0.51860   0.51971
 Alpha virt. eigenvalues --    0.52159   0.52482   0.52674   0.52706   0.53021
 Alpha virt. eigenvalues --    0.53153   0.53455   0.53516   0.53778   0.53980
 Alpha virt. eigenvalues --    0.54217   0.54533   0.54856   0.55035   0.55332
 Alpha virt. eigenvalues --    0.55506   0.55924   0.56332   0.56731   0.57193
 Alpha virt. eigenvalues --    0.57387   0.57540   0.57788   0.57920   0.58047
 Alpha virt. eigenvalues --    0.58374   0.59020   0.59344   0.59635   0.59873
 Alpha virt. eigenvalues --    0.59959   0.60532   0.61129   0.61583   0.61810
 Alpha virt. eigenvalues --    0.62320   0.62543   0.62926   0.63074   0.63576
 Alpha virt. eigenvalues --    0.63680   0.64297   0.64405   0.64720   0.64826
 Alpha virt. eigenvalues --    0.65130   0.65577   0.65671   0.65871   0.66209
 Alpha virt. eigenvalues --    0.66586   0.66749   0.66895   0.67133   0.67363
 Alpha virt. eigenvalues --    0.67601   0.68097   0.68111   0.68383   0.69015
 Alpha virt. eigenvalues --    0.69162   0.69567   0.69654   0.69939   0.70057
 Alpha virt. eigenvalues --    0.70186   0.70452   0.70593   0.70794   0.70911
 Alpha virt. eigenvalues --    0.71090   0.71176   0.71691   0.71813   0.72478
 Alpha virt. eigenvalues --    0.72529   0.72780   0.73078   0.73312   0.73673
 Alpha virt. eigenvalues --    0.73895   0.74073   0.74462   0.74818   0.74920
 Alpha virt. eigenvalues --    0.75101   0.75423   0.75697   0.76136   0.76254
 Alpha virt. eigenvalues --    0.76807   0.77291   0.77313   0.77583   0.77885
 Alpha virt. eigenvalues --    0.77987   0.78296   0.78411   0.78835   0.78961
 Alpha virt. eigenvalues --    0.79160   0.79628   0.79867   0.80128   0.80734
 Alpha virt. eigenvalues --    0.81380   0.81447   0.81736   0.82373   0.82660
 Alpha virt. eigenvalues --    0.82914   0.83272   0.83387   0.83965   0.84295
 Alpha virt. eigenvalues --    0.84775   0.84776   0.85424   0.85897   0.86329
 Alpha virt. eigenvalues --    0.86466   0.86901   0.87105   0.87417   0.87987
 Alpha virt. eigenvalues --    0.88371   0.88669   0.88824   0.89260   0.89621
 Alpha virt. eigenvalues --    0.89826   0.90355   0.91234   0.91240   0.91431
 Alpha virt. eigenvalues --    0.91622   0.91732   0.92291   0.92826   0.93192
 Alpha virt. eigenvalues --    0.93696   0.94288   0.94592   0.95045   0.95669
 Alpha virt. eigenvalues --    0.95772   0.96179   0.96366   0.96615   0.96746
 Alpha virt. eigenvalues --    0.97253   0.97610   0.97978   0.98136   0.98557
[...]
 
              Baa    -0.0426    -5.711    -2.038    -1.905 -0.2150  0.9765  0.0133
     4 C(13)  Bbb    -0.0340    -4.561    -1.628    -1.521  0.9766  0.2149  0.0090
              Bcc     0.0765    10.272     3.665     3.426 -0.0059 -0.0150  0.9999
 
              Baa    -0.0121    -1.626    -0.580    -0.542 -0.0397  0.9910 -0.1276
     5 C(13)  Bbb    -0.0010    -0.129    -0.046    -0.043  0.9974  0.0470  0.0540
              Bcc     0.0131     1.754     0.626     0.585 -0.0596  0.1252  0.9903
 
              Baa    -0.0565    -7.576    -2.703    -2.527  0.2234  0.9706 -0.0890
     6 C(13)  Bbb    -0.0465    -6.241    -2.227    -2.082  0.9747 -0.2215  0.0307
              Bcc     0.1030    13.817     4.930     4.609 -0.0101  0.0936  0.9956
 
              Baa    -0.0185    -2.488    -0.888    -0.830  0.0855  0.9918 -0.0948
     7 C(13)  Bbb    -0.0066    -0.889    -0.317    -0.297  0.9951 -0.0803  0.0578
              Bcc     0.0252     3.377     1.205     1.127 -0.0497  0.0993  0.9938
 
              Baa    -0.0180    -2.410    -0.860    -0.804 -0.0321  0.9950 -0.0950
     8 C(13)  Bbb    -0.0102    -1.366    -0.487    -0.456  0.9994  0.0333  0.0105
              Bcc     0.0281     3.775     1.347     1.259 -0.0136  0.0946  0.9954
 
              Baa    -0.0121    -1.621    -0.578    -0.541  0.1012  0.9904 -0.0944
     9 C(13)  Bbb    -0.0043    -0.572    -0.204    -0.191  0.9948 -0.1000  0.0173
              Bcc     0.0163     2.193     0.782     0.731 -0.0077  0.0957  0.9954
 
              Baa    -0.0455    -6.112    -2.181    -2.039 -0.0009  0.9952 -0.0976
    10 C(13)  Bbb    -0.0322    -4.316    -1.540    -1.440  0.9999  0.0021  0.0121
              Bcc     0.0777    10.428     3.721     3.478 -0.0123  0.0976  0.9951
 
              Baa    -0.0689    -2.659    -0.949    -0.887 -0.0049  0.9950 -0.1000
    11 N(14)  Bbb    -0.0628    -2.422    -0.864    -0.808  0.9999  0.0061  0.0120
              Bcc     0.1317     5.080     1.813     1.695 -0.0126  0.1000  0.9949
 
              Baa    -0.1737    12.568     4.485     4.192  0.5601  0.8249 -0.0764
    12 O(17)  Bbb    -0.1631    11.799     4.210     3.936  0.8283 -0.5564  0.0652
              Bcc     0.3367   -24.367    -8.695    -8.128 -0.0113  0.0998  0.9949
 
              Baa    -0.1795    12.987     4.634     4.332 -0.5805  0.8095 -0.0885
    13 O(17)  Bbb    -0.1684    12.184     4.348     4.064  0.8142  0.5786 -0.0479
              Bcc     0.3479   -25.171    -8.982    -8.396 -0.0125  0.0999  0.9949
 
              Baa    -0.0053    -0.708    -0.253    -0.236 -0.1771  0.9800 -0.0913
    14 C(13)  Bbb     0.0023     0.310     0.110     0.103  0.7615  0.0777 -0.6435
              Bcc     0.0030     0.399     0.142     0.133  0.6235  0.1835  0.7600
 
              Baa    -0.0198    -2.659    -0.949    -0.887 -0.0862  0.9917 -0.0951
    15 C(13)  Bbb    -0.0137    -1.835    -0.655    -0.612  0.9961  0.0876  0.0106
              Bcc     0.0335     4.494     1.604     1.499 -0.0188  0.0938  0.9954
 
              Baa    -0.1057    -4.076    -1.454    -1.360  0.1409  0.9893  0.0383
    16 N(14)  Bbb    -0.0954    -3.680    -1.313    -1.228  0.9900 -0.1410  0.0000
              Bcc     0.2011     7.756     2.768     2.587 -0.0054 -0.0379  0.9993
 
              Baa    -0.1148   -15.401    -5.495    -5.137  0.0015  0.0199  0.9998
    17 C(13)  Bbb     0.0504     6.760     2.412     2.255 -0.3933  0.9192 -0.0177
              Bcc     0.0644     8.641     3.083     2.882  0.9194  0.3932 -0.0092
 
              Baa    -0.1578   -21.180    -7.558    -7.065  0.0540  0.9983 -0.0210
    18 C(13)  Bbb    -0.1529   -20.511    -7.319    -6.842  0.9985 -0.0539  0.0033
              Bcc     0.3107    41.691    14.876    13.907 -0.0022  0.0212  0.9998
 
              Baa    -0.0066    -0.880    -0.314    -0.294  0.2850  0.8378 -0.4658
    19 C(13)  Bbb     0.0023     0.304     0.108     0.101  0.9451 -0.3267 -0.0093
              Bcc     0.0043     0.576     0.206     0.192  0.1600  0.4375  0.8849
 
              Baa    -0.0073    -0.981    -0.350    -0.327  0.5163 -0.1091  0.8494
    20 C(13)  Bbb    -0.0047    -0.637    -0.227    -0.213  0.7018  0.6223 -0.3467
              Bcc     0.0121     1.618     0.577     0.540 -0.4908  0.7751  0.3978
 
              Baa    -0.0039    -0.529    -0.189    -0.177  0.2546  0.9427 -0.2155
    21 C(13)  Bbb    -0.0003    -0.040    -0.014    -0.013  0.2248  0.1590  0.9613
              Bcc     0.0042     0.569     0.203     0.190  0.9406 -0.2932 -0.1715
 
              Baa    -0.0029    -0.383    -0.137    -0.128  0.0842  0.2287  0.9698
    22 C(13)  Bbb    -0.0009    -0.126    -0.045    -0.042  0.9476 -0.3194 -0.0069
              Bcc     0.0038     0.509     0.181     0.170  0.3082  0.9196 -0.2436
 
              Baa    -0.0005    -0.018    -0.006    -0.006  0.0161  0.0903  0.9958
    23 N(14)  Bbb     0.0001     0.003     0.001     0.001  0.7064  0.7038 -0.0753
              Bcc     0.0004     0.014     0.005     0.005  0.7076 -0.7046  0.0525
 
              Baa    -0.0033     0.241     0.086     0.080  0.2641 -0.1297  0.9557
    24 O(17)  Bbb    -0.0026     0.189     0.068     0.063  0.8155 -0.4990 -0.2931
              Bcc     0.0059    -0.430    -0.154    -0.143  0.5150  0.8568 -0.0260
 
              Baa    -0.0027     0.192     0.069     0.064 -0.4977 -0.0080  0.8673
    25 O(17)  Bbb    -0.0018     0.130     0.046     0.043  0.8671 -0.0272  0.4973
              Bcc     0.0044    -0.322    -0.115    -0.107  0.0196  0.9996  0.0205
 
              Baa    -0.0033    -0.444    -0.158    -0.148  0.6121  0.7804 -0.1273
    26 C(13)  Bbb    -0.0010    -0.128    -0.046    -0.043 -0.1199  0.2508  0.9606
              Bcc     0.0043     0.572     0.204     0.191  0.7816 -0.5727  0.2471
 
              Baa    -0.0069    -0.932    -0.333    -0.311 -0.5390  0.1467  0.8295
    27 C(13)  Bbb    -0.0041    -0.547    -0.195    -0.183 -0.1066  0.9649 -0.2399
              Bcc     0.0110     1.479     0.528     0.493  0.8356  0.2178  0.5044
 
              Baa    -0.0531    -7.132    -2.545    -2.379  0.0484  0.0264  0.9985
    28 C(13)  Bbb     0.0234     3.142     1.121     1.048  0.9958  0.0767 -0.0503
              Bcc     0.0297     3.991     1.424     1.331 -0.0779  0.9967 -0.0226
 
              Baa    -0.0683    -9.167    -3.271    -3.058 -0.5977  0.8016 -0.0137
    29 C(13)  Bbb    -0.0656    -8.804    -3.142    -2.937  0.7988  0.5939 -0.0962
              Bcc     0.1339    17.971     6.413     5.995  0.0689  0.0684  0.9953
 
              Baa    -0.0018    -0.236    -0.084    -0.079 -0.4349  0.8930 -0.1154
    30 C(13)  Bbb     0.0008     0.111     0.040     0.037  0.5822  0.3766  0.7206
              Bcc     0.0009     0.125     0.045     0.042  0.6870  0.2462 -0.6837
 
              Baa    -0.0359    -4.819    -1.720    -1.608  0.0847  0.0601  0.9946
    31 C(13)  Bbb     0.0173     2.320     0.828     0.774 -0.0698  0.9961 -0.0543
              Bcc     0.0186     2.499     0.892     0.834  0.9940  0.0648 -0.0885
 
              Baa    -0.0822   -11.027    -3.935    -3.678  0.1416  0.9889 -0.0460
    32 C(13)  Bbb    -0.0807   -10.823    -3.862    -3.610  0.9892 -0.1432 -0.0326
              Bcc     0.1628    21.850     7.797     7.288  0.0388  0.0409  0.9984
 
              Baa    -0.0563    -7.555    -2.696    -2.520 -0.0380 -0.0614  0.9974
    33 C(13)  Bbb     0.0242     3.251     1.160     1.085  0.8624  0.5022  0.0638
              Bcc     0.0321     4.303     1.535     1.435 -0.5048  0.8626  0.0339
 
              Baa    -0.0605    -8.115    -2.896    -2.707  0.1884  0.9779  0.0908
    34 C(13)  Bbb    -0.0576    -7.723    -2.756    -2.576  0.9812 -0.1914  0.0253
              Bcc     0.1180    15.838     5.652     5.283 -0.0421 -0.0843  0.9955
 
              Baa    -0.0184    -2.473    -0.882    -0.825 -0.0539 -0.0773  0.9955
    35 C(13)  Bbb     0.0076     1.016     0.363     0.339  0.5182  0.8501  0.0941
              Bcc     0.0109     1.457     0.520     0.486  0.8536 -0.5210  0.0058
 
              Baa    -0.0138    -1.852    -0.661    -0.618  0.7771  0.6230  0.0889
    36 C(13)  Bbb    -0.0125    -1.680    -0.599    -0.560 -0.6267  0.7790  0.0194
              Bcc     0.0263     3.532     1.260     1.178 -0.0572 -0.0708  0.9958
 
              Baa    -0.0105    -1.404    -0.501    -0.468 -0.0584 -0.0728  0.9956
    37 C(13)  Bbb     0.0046     0.620     0.221     0.207  0.5007  0.8607  0.0923
              Bcc     0.0058     0.784     0.280     0.262  0.8637 -0.5039  0.0138
 
              Baa    -0.0152    -2.036    -0.727    -0.679  0.6787  0.7281  0.0963
    38 C(13)  Bbb    -0.0136    -1.825    -0.651    -0.609  0.7321 -0.6811 -0.0105
              Bcc     0.0288     3.861     1.378     1.288 -0.0579 -0.0777  0.9953
 
              Baa    -0.0101    -1.356    -0.484    -0.452 -0.0587 -0.0716  0.9957
    39 C(13)  Bbb     0.0044     0.590     0.211     0.197  0.8495  0.5203  0.0875
              Bcc     0.0057     0.766     0.273     0.256 -0.5244  0.8510  0.0302
 
              Baa    -0.0131    -1.755    -0.626    -0.585  0.6587  0.7469  0.0907
    40 C(13)  Bbb    -0.0125    -1.679    -0.599    -0.560  0.7496 -0.6619  0.0075
              Bcc     0.0256     3.435     1.226     1.146 -0.0657 -0.0631  0.9958
 
              Baa    -0.0142    -0.547    -0.195    -0.182  0.1129  0.9920  0.0563
    41 N(14)  Bbb    -0.0066    -0.255    -0.091    -0.085  0.9882 -0.1062 -0.1101
              Bcc     0.0208     0.802     0.286     0.267  0.1033 -0.0681  0.9923
 
              Baa    -0.0022    -0.378    -0.135    -0.126 -0.1493  0.0612  0.9869
    42 B(11)  Bbb    -0.0006    -0.106    -0.038    -0.035  0.9613  0.2428  0.1303
              Bcc     0.0028     0.484     0.173     0.162 -0.2317  0.9681 -0.0951
 
              Baa    -0.0074    -3.724    -1.329    -1.242 -0.2830 -0.1516  0.9471
    43 F(19)  Bbb    -0.0052    -2.631    -0.939    -0.878  0.2950  0.9258  0.2364
              Bcc     0.0127     6.355     2.268     2.120  0.9126 -0.3463  0.2173
 
              Baa    -0.0151    -7.561    -2.698    -2.522  0.1487  0.9052 -0.3980
    44 F(19)  Bbb    -0.0136    -6.813    -2.431    -2.273  0.5775  0.2472  0.7780
              Bcc     0.0286    14.374     5.129     4.795  0.8027 -0.3456 -0.4860
 
              Baa    -0.0011    -0.572    -0.204    -0.191  0.2542 -0.1758  0.9510
    45 H(1)   Bbb    -0.0003    -0.176    -0.063    -0.059  0.8988  0.4061 -0.1652
              Bcc     0.0014     0.748     0.267     0.250 -0.3571  0.8968  0.2612
 
              Baa    -0.0012    -0.622    -0.222    -0.208 -0.2064  0.1974  0.9583
    46 H(1)   Bbb    -0.0004    -0.211    -0.075    -0.071  0.9220  0.3670  0.1230
              Bcc     0.0016     0.834     0.297     0.278 -0.3274  0.9090 -0.2578
 
              Baa    -0.0007    -0.392    -0.140    -0.131 -0.1641  0.0147  0.9863
    47 H(1)   Bbb    -0.0005    -0.290    -0.104    -0.097  0.9601  0.2317  0.1563
              Bcc     0.0013     0.682     0.244     0.228 -0.2262  0.9727 -0.0522
 
              Baa    -0.0040    -2.116    -0.755    -0.706  0.3183  0.9471 -0.0408
    48 H(1)   Bbb    -0.0014    -0.771    -0.275    -0.257  0.0074  0.0406  0.9991
              Bcc     0.0054     2.887     1.030     0.963  0.9480 -0.3184  0.0059
 
              Baa    -0.0024    -1.281    -0.457    -0.427  0.0380  0.2430  0.9693
    49 H(1)   Bbb    -0.0017    -0.917    -0.327    -0.306  0.3934  0.8880 -0.2381
              Bcc     0.0041     2.198     0.784     0.733  0.9186 -0.3904  0.0618
 
              Baa    -0.0066    -3.545    -1.265    -1.182  0.8170  0.5744 -0.0508
    50 H(1)   Bbb    -0.0017    -0.918    -0.328    -0.306  0.0010  0.0868  0.9962
              Bcc     0.0084     4.463     1.593     1.489 -0.5766  0.8140 -0.0703
 
              Baa    -0.0019    -1.017    -0.363    -0.339 -0.0167  0.0914  0.9957
    51 H(1)   Bbb    -0.0006    -0.334    -0.119    -0.111  0.6598  0.7492 -0.0577
              Bcc     0.0025     1.351     0.482     0.451  0.7513 -0.6560  0.0728
 
              Baa    -0.0022    -1.161    -0.414    -0.387 -0.0133  0.0975  0.9951
    52 H(1)   Bbb     0.0002     0.133     0.048     0.044 -0.3556  0.9297 -0.0959
              Bcc     0.0019     1.028     0.367     0.343  0.9346  0.3551 -0.0223
 
              Baa    -0.0022    -1.193    -0.426    -0.398 -0.0162  0.0977  0.9951
    53 H(1)   Bbb    -0.0000    -0.011    -0.004    -0.004 -0.2509  0.9630 -0.0986
              Bcc     0.0023     1.203     0.429     0.401  0.9679  0.2512 -0.0089
 
              Baa    -0.0017    -0.906    -0.323    -0.302  0.7149 -0.6976  0.0486
    54 H(1)   Bbb    -0.0016    -0.841    -0.300    -0.281 -0.0065  0.0629  0.9980
              Bcc     0.0033     1.747     0.624     0.583  0.6992  0.7138 -0.0404
 
              Baa    -0.0024    -1.260    -0.450    -0.420  0.1502  0.8955 -0.4190
    55 H(1)   Bbb    -0.0010    -0.527    -0.188    -0.176  0.8913  0.0607  0.4493
              Bcc     0.0034     1.788     0.638     0.596 -0.4277  0.4410  0.7890
 
              Baa    -0.0006    -0.295    -0.105    -0.098  0.3251  0.8942 -0.3076
    56 H(1)   Bbb    -0.0004    -0.197    -0.070    -0.066  0.4355  0.1472  0.8881
              Bcc     0.0009     0.491     0.175     0.164  0.8394 -0.4227 -0.3416
 
              Baa    -0.0006    -0.305    -0.109    -0.102  0.4860  0.6677 -0.5639
    57 H(1)   Bbb    -0.0004    -0.218    -0.078    -0.073 -0.1292  0.6930  0.7093
              Bcc     0.0010     0.523     0.187     0.175  0.8644 -0.2719  0.4231
 
              Baa    -0.0021    -1.118    -0.399    -0.373  0.4485  0.8325 -0.3252
    58 H(1)   Bbb    -0.0011    -0.601    -0.214    -0.200  0.6630 -0.5539 -0.5036
              Bcc     0.0032     1.719     0.613     0.573  0.5994 -0.0102  0.8004
 
              Baa    -0.0020    -1.044    -0.373    -0.348  0.3765 -0.1193  0.9187
    59 H(1)   Bbb    -0.0006    -0.315    -0.113    -0.105  0.0139  0.9923  0.1231
              Bcc     0.0025     1.360     0.485     0.453  0.9263  0.0336 -0.3753
 
              Baa    -0.0013    -0.714    -0.255    -0.238  0.4661 -0.5440  0.6977
    60 H(1)   Bbb    -0.0012    -0.633    -0.226    -0.211 -0.3319  0.6235  0.7079
              Bcc     0.0025     1.347     0.480     0.449  0.8201  0.5616 -0.1100
 
              Baa    -0.0018    -0.967    -0.345    -0.323 -0.3276  0.2569  0.9092
    61 H(1)   Bbb    -0.0008    -0.432    -0.154    -0.144  0.0053  0.9628 -0.2701
              Bcc     0.0026     1.398     0.499     0.466  0.9448  0.0836  0.3168
 
              Baa    -0.0022    -1.158    -0.413    -0.386  0.0706 -0.0095  0.9975
    62 H(1)   Bbb    -0.0006    -0.307    -0.110    -0.102 -0.0104  0.9999  0.0103
              Bcc     0.0027     1.466     0.523     0.489  0.9975  0.0111 -0.0705
 
              Baa    -0.0023    -1.222    -0.436    -0.408 -0.3767 -0.2960  0.8778
    63 H(1)   Bbb    -0.0022    -1.195    -0.426    -0.399  0.7168  0.5071  0.4786
              Bcc     0.0045     2.417     0.862     0.806 -0.5868  0.8095  0.0212
 
              Baa    -0.0060    -3.194    -1.140    -1.065 -0.4840  0.8744  0.0339
    64 H(1)   Bbb    -0.0018    -0.955    -0.341    -0.319 -0.0112 -0.0449  0.9989
              Bcc     0.0078     4.149     1.481     1.384  0.8750  0.4831  0.0315
 
              Baa    -0.0009    -0.502    -0.179    -0.167 -0.0840 -0.0280  0.9961
    65 H(1)   Bbb    -0.0006    -0.338    -0.121    -0.113 -0.5502  0.8347 -0.0229
              Bcc     0.0016     0.840     0.300     0.280  0.8308  0.5500  0.0855
 
              Baa    -0.0006    -0.295    -0.105    -0.098 -0.0503 -0.0549  0.9972
    66 H(1)   Bbb    -0.0002    -0.082    -0.029    -0.027  0.4477  0.8913  0.0716
              Bcc     0.0007     0.377     0.135     0.126  0.8928 -0.4500  0.0203
 
              Baa    -0.0022    -1.147    -0.409    -0.383  0.6454  0.7571  0.1014
    67 H(1)   Bbb    -0.0002    -0.131    -0.047    -0.044 -0.0625 -0.0800  0.9948
              Bcc     0.0024     1.279     0.456     0.427  0.7613 -0.6484 -0.0043
 
              Baa    -0.0006    -0.327    -0.117    -0.109 -0.0377 -0.0480  0.9981
    68 H(1)   Bbb    -0.0002    -0.112    -0.040    -0.037  0.8935  0.4457  0.0552
              Bcc     0.0008     0.440     0.157     0.147 -0.4475  0.8939  0.0261
 
              Baa    -0.0011    -0.561    -0.200    -0.187  0.9475 -0.2431 -0.2079
    69 H(1)   Bbb    -0.0009    -0.499    -0.178    -0.166  0.1912 -0.0905  0.9774
              Bcc     0.0020     1.060     0.378     0.354  0.2564  0.9658  0.0392
 

 ---------------------------------------------------------------------------------

 No NMR shielding tensors so no spin-rotation constants.
 Leave Link  601 at Tue Oct 28 21:42:32 2025, MaxMem= 30870077440 cpu:             151.8 elap:               2.7
 (Enter /public/software/gauss/g16/l9999.exe)
 1\1\GINC-CU031\SP\UM062X\def2TZVPP\C33H25B1F2N4O4(1-,2)\BAIDING\28-Oct
 -2025\0\\#p M062X/DEF2TZVPP scrf=(solvent=water) em=GD3\\Energy calcul
 ation for BNP_NO2_reduced\\-1,2\C,0,2.722474,-3.792567,0.028518\C,0,1.
 574941,-2.827492,-0.002286\C,0,0.246911,-3.1986,-0.001545\C,0,-0.56445
 1,-2.029241,-0.025867\C,0,-1.977878,-1.926174,-0.045328\C,0,-2.835396,
 -3.001659,0.03906\C,0,-4.263981,-2.95297,0.013817\C,0,-5.000388,-4.168
 941,0.122579\C,0,-6.376875,-4.193991,0.107438\C,0,-7.093488,-2.983129,
 -0.019738\N,0,-8.498393,-2.994336,-0.035613\O,0,-9.115197,-4.094991,0.
 067586\O,0,-9.131501,-1.904267,-0.152484\C,0,-6.394531,-1.758493,-0.13
 0446\C,0,-5.019068,-1.748118,-0.113253\N,0,0.27767,-0.93511,-0.045652\
 C,0,1.596041,-1.382341,-0.033879\C,0,2.662397,-0.467663,-0.039727\C,0,
 4.071439,-0.958404,-0.024101\C,0,4.676456,-1.432657,-1.200283\C,0,5.99
 0872,-1.884733,-1.193257\C,0,6.697018,-1.86355,0.010388\N,0,8.073502,-
 2.341152,0.028773\O,0,8.570422,-2.752891,-1.026133\O,0,8.693286,-2.317
 163,1.098673\C,0,6.126676,-1.399726,1.196882\C,0,4.813532,-0.944582,1.
 168906\C,0,2.410119,0.92832,-0.065041\C,0,3.294407,2.051069,-0.165314\
 C,0,4.791246,2.082867,-0.273322\C,0,2.487149,3.184193,-0.178512\C,0,1.
 137052,2.784851,-0.096538\C,0,-0.052357,3.596311,-0.088973\C,0,-0.0518
 2,4.951569,0.001881\C,0,-1.221737,5.825636,-0.003354\C,0,-1.025303,7.2
 17975,0.112091\C,0,-2.10154,8.103163,0.115841\C,0,-3.407523,7.620383,0
 .004101\C,0,-3.622235,6.24198,-0.11152\C,0,-2.549088,5.356159,-0.11607
 6\N,0,1.103769,1.408826,-0.03848\B,0,-0.145535,0.531495,0.188412\F,0,-
 1.166868,0.892086,-0.717212\F,0,-0.639209,0.699154,1.496963\H,0,3.2922
 12,-3.789808,-0.906342\H,0,3.428735,-3.56858,0.83373\H,0,2.342131,-4.8
 05879,0.184043\H,0,-0.122706,-4.21513,0.004198\H,0,-2.385961,-0.927017
 ,-0.145569\H,0,-2.407801,-3.997327,0.138905\H,0,-4.452407,-5.101814,0.
 220574\H,0,-6.9174,-5.12814,0.191529\H,0,-6.952711,-0.836028,-0.22812\
 H,0,-4.505781,-0.796409,-0.199013\H,0,4.112761,-1.441191,-2.126805\H,0
 ,6.463748,-2.245825,-2.097468\H,0,6.70003,-1.399326,2.1149\H,0,4.35434
 4,-0.580237,2.081487\H,0,5.163735,1.445582,-1.081124\H,0,5.120524,3.10
 6282,-0.474055\H,0,5.283242,1.750871,0.64704\H,0,2.835664,4.204473,-0.
 267666\H,0,-0.992373,3.062436,-0.171769\H,0,0.901769,5.468708,0.092855
 \H,0,-0.011478,7.599821,0.19961\H,0,-1.920319,9.17037,0.205987\H,0,-4.
 248835,8.306798,0.006626\H,0,-4.634149,5.856807,-0.199232\H,0,-2.74296
 2,4.29217,-0.207335\\Version=ES64L-G16RevA.03\State=2-A\HF=-2017.14485
 17\S2=0.840392\S2-1=0.\S2A=0.754183\RMSD=4.675e-09\Dipole=6.7311012,1.
 7863915,-0.3885812\Quadrupole=-125.631324,63.336833,62.294491,-27.2786
 55,-0.5377688,0.1690256\PG=C01 [X(C33H25B1F2N4O4)]\\@


 UNLESS WE CHANGE DIRECTIONS, WE WILL WIND UP WHERE WE ARE HEADED.
     -- CONFUCIUS
 Job cpu time:       1 days 11 hours 49 minutes 22.1 seconds.
 Elapsed time:       0 days  0 hours 33 minutes 58.1 seconds.
 File lengths (MBytes):  RWF=   3159 Int=      0 D2E=      0 Chk=    205 Scr=      1
 Normal termination of Gaussian 16 at Tue Oct 28 21:42:33 2025.
