 Entering Gaussian System, Link 0=g16
 Input=BNP_NO2_sp.gjf
 Output=BNP_NO2_sp.log
 Initial command:
 /public/software/gauss/g16/l1.exe "/public/home/baiding/1028_sp/tmp_BNP_NO2_sp_1538822/Gau-54678.inp" -scrdir="/public/home/baiding/1028_sp/tmp_BNP_NO2_sp_1538822/"
 Entering Link 1 = /public/software/gauss/g16/l1.exe PID=     54679.
  
 Copyright (c) 1988,1990,1992,1993,1995,1998,2003,2009,2016,
            Gaussian, Inc.  All Rights Reserved.
  
 This is part of the Gaussian(R) 16 program.  It is based on
 the Gaussian(R) 09 system (copyright 2009, Gaussian, Inc.),
 the Gaussian(R) 03 system (copyright 2003, Gaussian, Inc.),
 the Gaussian(R) 98 system (copyright 1998, Gaussian, Inc.),
 the Gaussian(R) 94 system (copyright 1995, Gaussian, Inc.),
 the Gaussian 92(TM) system (copyright 1992, Gaussian, Inc.),
 the Gaussian 90(TM) system (copyright 1990, Gaussian, Inc.),
 the Gaussian 88(TM) system (copyright 1988, Gaussian, Inc.),
 the Gaussian 86(TM) system (copyright 1986, Carnegie Mellon
 University), and the Gaussian 82(TM) system (copyright 1983,
 Carnegie Mellon University). Gaussian is a federally registered
 trademark of Gaussian, Inc.
  
 This software contains proprietary and confidential information,
 including trade secrets, belonging to Gaussian, Inc.
  
 This software is provided under written license and may be
 used, copied, transmitted, or stored only in accord with that
 written license.
  
 The following legend is applicable only to US Government
 contracts under FAR:
  
                    RESTRICTED RIGHTS LEGEND
  
 Use, reproduction and disclosure by the US Government is
 subject to restrictions as set forth in subparagraphs (a)
 and (c) of the Commercial Computer Software - Restricted
 Rights clause in FAR 52.227-19.
  
 Gaussian, Inc.
 340 Quinnipiac St., Bldg. 40, Wallingford CT 06492
  
  
 ---------------------------------------------------------------
 Warning -- This program may not be used in any manner that
 competes with the business of Gaussian, Inc. or will provide
 assistance to any competitor of Gaussian, Inc.  The licensee
 of this program is prohibited from giving any competitor of
 Gaussian, Inc. access to this program.  By using this program,
 the user acknowledges that Gaussian, Inc. is engaged in the
 business of creating and licensing software in the field of
 computational chemistry and represents and warrants to the
 licensee that it is not a competitor of Gaussian, Inc. and that
 it will not use this program in any manner prohibited above.
 ---------------------------------------------------------------
  

 Cite this work as:
 Gaussian 16, Revision A.03,
 M. J. Frisch, G. W. Trucks, H. B. Schlegel, G. E. Scuseria, 
 M. A. Robb, J. R. Cheeseman, G. Scalmani, V. Barone, 
 G. A. Petersson, H. Nakatsuji, X. Li, M. Caricato, A. V. Marenich, 
 J. Bloino, B. G. Janesko, R. Gomperts, B. Mennucci, H. P. Hratchian, 
 J. V. Ortiz, A. F. Izmaylov, J. L. Sonnenberg, D. Williams-Young, 
 F. Ding, F. Lipparini, F. Egidi, J. Goings, B. Peng, A. Petrone, 
 T. Henderson, D. Ranasinghe, V. G. Zakrzewski, J. Gao, N. Rega, 
 G. Zheng, W. Liang, M. Hada, M. Ehara, K. Toyota, R. Fukuda, 
 J. Hasegawa, M. Ishida, T. Nakajima, Y. Honda, O. Kitao, H. Nakai, 
 T. Vreven, K. Throssell, J. A. Montgomery, Jr., J. E. Peralta, 
 F. Ogliaro, M. J. Bearpark, J. J. Heyd, E. N. Brothers, K. N. Kudin, 
 V. N. Staroverov, T. A. Keith, R. Kobayashi, J. Normand, 
 K. Raghavachari, A. P. Rendell, J. C. Burant, S. S. Iyengar, 
 J. Tomasi, M. Cossi, J. M. Millam, M. Klene, C. Adamo, R. Cammi, 
 J. W. Ochterski, R. L. Martin, K. Morokuma, O. Farkas, 
 J. B. Foresman, and D. J. Fox, Gaussian, Inc., Wallingford CT, 2016.
 
 ******************************************
 Gaussian 16:  ES64L-G16RevA.03 25-Dec-2016
                28-Oct-2025 
 ******************************************
 %nprocshared=64
 Will use up to   64 processors via shared memory.
 %mem=230GB
 %chk=BNP_NO2_sp.chk
 ----------------------------------------------
 #p M062X/DEF2TZVPP scrf=(solvent=water) em=GD3
 ----------------------------------------------
 1/38=1,172=1/1;
 2/12=2,17=6,18=5,40=1/2;
 3/5=44,7=202,11=2,25=1,30=1,70=2201,72=1,74=-55,124=31/1,2,3;
 4//1;
 5/5=2,38=5,53=1/2;
 6/7=2,8=2,9=2,10=2,28=1/1;
 99/5=1,9=1/99;
 Leave Link    1 at Tue Oct 28 21:42:34 2025, MaxMem= 30870077440 cpu:              19.2 elap:               0.3
 (Enter /public/software/gauss/g16/l101.exe)
 ------------------------------
 Energy calculation for BNP_NO2
 ------------------------------
 Symbolic Z-matrix:
 Charge =  0 Multiplicity = 1
 C                     2.71634  -3.79136  -0.0967 
 C                     1.56854  -2.82807  -0.0679 
 C                     0.23442  -3.20303  -0.08364 
 C                    -0.56491  -2.03561  -0.06251 
 C                    -2.00014  -1.92101  -0.07881 
 C                    -2.83997  -2.982     0.02773 
 C                    -4.29403  -2.92752   0.00553 
 C                    -5.0122   -4.13443   0.16321 
 C                    -6.3978   -4.15825   0.15477 
 C                    -7.08716  -2.95461  -0.01515 
 N                    -8.53556  -2.96519  -0.02566 
 O                    -9.12384  -4.04764   0.10982 
 O                    -9.13736  -1.89123  -0.16941 
 C                    -6.41249  -1.73819  -0.17584 
 C                    -5.02872  -1.73044  -0.16501 
 N                     0.26079  -0.94617  -0.03991 
 C                     1.5797   -1.39194  -0.03742 
 C                     2.64538  -0.46619  -0.0313 
 C                     4.05278  -0.96897  -0.01915 
 C                     4.71872  -1.23681  -1.22436 
 C                     6.02804  -1.70531  -1.21757 
 C                     6.65862  -1.90208   0.01071 
 N                     8.03372  -2.39443   0.02626 
 O                     8.59106  -2.61776  -1.0532 
 O                     8.58449  -2.56792   1.11819 
 C                     6.02169  -1.64529   1.22457 
 C                     4.71258  -1.17646   1.20145 
 C                     2.40291   0.91174  -0.04443 
 C                     3.29968   2.04123  -0.09036 
 C                     4.79656   2.06241  -0.13283 
 C                     2.50173   3.16761  -0.10831 
 C                     1.13944   2.76309  -0.07401 
 C                    -0.04413   3.58304  -0.08375 
 C                    -0.0114    4.93589   0.01101 
 C                    -1.15875   5.83732   0.0036 
 C                    -0.92227   7.22303   0.11105 
 C                    -1.97585   8.13453   0.11065 
 C                    -3.29216   7.68049   0.00298 
 C                    -3.54496   6.30769  -0.10403 
 C                    -2.49506   5.39551  -0.10401 
 N                     1.09354   1.40222  -0.04185 
 B                    -0.16829   0.52788   0.18212 
 F                    -1.17033   0.88224  -0.73601 
 F                    -0.65523   0.70094   1.48375 
 H                     3.3267   -3.67513  -0.99756 
 H                     3.38288  -3.66354   0.76133 
 H                     2.33332  -4.81484  -0.0789 
 H                    -0.13636  -4.21766  -0.1261 
 H                    -2.39898  -0.91976  -0.19234 
 H                    -2.42077  -3.97819   0.148 
 H                    -4.46427  -5.06201   0.29505 
 H                    -6.94205  -5.08584   0.27717 
 H                    -6.97242  -0.82126  -0.30754 
 H                    -4.51325  -0.78539  -0.29163 
 H                     4.21056  -1.07703  -2.16901 
 H                     6.55181  -1.91456  -2.14135 
 H                     6.54045  -1.80905   2.16027 
 H                     4.19947  -0.97045   2.13441 
 H                     5.18761   1.54349  -1.01323 
 H                     5.1463    3.0972   -0.16529 
 H                     5.23778   1.58141   0.74535 
 H                     2.85144   4.18911  -0.16089 
 H                    -0.98984   3.06338  -0.18062 
 H                     0.95325   5.42959   0.10804 
 H                     0.10139   7.57747   0.19496 
 H                    -1.77008   9.19742   0.19431 
 H                    -4.11619   8.38754   0.00276 
 H                    -4.56676   5.94964  -0.1873 
 H                    -2.71326   4.33578  -0.18627 
 
 ITRead=  0  0  0  0  0  0  0  0  0  0  0  0  0  0  0  0  0  0  0  0
 ITRead=  0  0  0  0  0  0  0  0  0  0  0  0  0  0  0  0  0  0  0  0
 ITRead=  0  0  0  0  0  0  0  0  0  0  0  0  0  0  0  0  0  0  0  0
 ITRead=  0  0  0  0  0  0  0  0  0
 MicOpt= -1 -1 -1 -1 -1 -1 -1 -1 -1 -1 -1 -1 -1 -1 -1 -1 -1 -1 -1 -1
 MicOpt= -1 -1 -1 -1 -1 -1 -1 -1 -1 -1 -1 -1 -1 -1 -1 -1 -1 -1 -1 -1
 MicOpt= -1 -1 -1 -1 -1 -1 -1 -1 -1 -1 -1 -1 -1 -1 -1 -1 -1 -1 -1 -1
 MicOpt= -1 -1 -1 -1 -1 -1 -1 -1 -1
 NAtoms=     69 NQM=       69 NQMF=       0 NMMI=      0 NMMIF=      0
                NMic=       0 NMicF=      0.
                    Isotopes and Nuclear Properties:
 (Nuclear quadrupole moments (NQMom) in fm**2, nuclear magnetic moments (NMagM)
  in nuclear magnetons)

  Atom         1           2           3           4           5           6           7           8           9          10
 IAtWgt=          12          12          12          12          12          12          12          12          12          12
 AtmWgt=  12.0000000  12.0000000  12.0000000  12.0000000  12.0000000  12.0000000  12.0000000  12.0000000  12.0000000  12.0000000
 NucSpn=           0           0           0           0           0           0           0           0           0           0
 AtZEff=  -0.0000000  -0.0000000  -0.0000000  -0.0000000  -0.0000000  -0.0000000  -0.0000000  -0.0000000  -0.0000000  -0.0000000
 NQMom=    0.0000000   0.0000000   0.0000000   0.0000000   0.0000000   0.0000000   0.0000000   0.0000000   0.0000000   0.0000000
 NMagM=    0.0000000   0.0000000   0.0000000   0.0000000   0.0000000   0.0000000   0.0000000   0.0000000   0.0000000   0.0000000
 AtZNuc=   6.0000000   6.0000000   6.0000000   6.0000000   6.0000000   6.0000000   6.0000000   6.0000000   6.0000000   6.0000000

  Atom        11          12          13          14          15          16          17          18          19          20
 IAtWgt=          14          16          16          12          12          14          12          12          12          12
 AtmWgt=  14.0030740  15.9949146  15.9949146  12.0000000  12.0000000  14.0030740  12.0000000  12.0000000  12.0000000  12.0000000
 NucSpn=           2           0           0           0           0           2           0           0           0           0
 AtZEff=  -0.0000000  -0.0000000  -0.0000000  -0.0000000  -0.0000000  -0.0000000  -0.0000000  -0.0000000  -0.0000000  -0.0000000
 NQMom=    2.0440000   0.0000000   0.0000000   0.0000000   0.0000000   2.0440000   0.0000000   0.0000000   0.0000000   0.0000000
 NMagM=    0.4037610   0.0000000   0.0000000   0.0000000   0.0000000   0.4037610   0.0000000   0.0000000   0.0000000   0.0000000
 AtZNuc=   7.0000000   8.0000000   8.0000000   6.0000000   6.0000000   7.0000000   6.0000000   6.0000000   6.0000000   6.0000000

  Atom        21          22          23          24          25          26          27          28          29          30
 IAtWgt=          12          12          14          16          16          12          12          12          12          12
 AtmWgt=  12.0000000  12.0000000  14.0030740  15.9949146  15.9949146  12.0000000  12.0000000  12.0000000  12.0000000  12.0000000
 NucSpn=           0           0           2           0           0           0           0           0           0           0
 AtZEff=  -0.0000000  -0.0000000  -0.0000000  -0.0000000  -0.0000000  -0.0000000  -0.0000000  -0.0000000  -0.0000000  -0.0000000
 NQMom=    0.0000000   0.0000000   2.0440000   0.0000000   0.0000000   0.0000000   0.0000000   0.0000000   0.0000000   0.0000000
 NMagM=    0.0000000   0.0000000   0.4037610   0.0000000   0.0000000   0.0000000   0.0000000   0.0000000   0.0000000   0.0000000
 AtZNuc=   6.0000000   6.0000000   7.0000000   8.0000000   8.0000000   6.0000000   6.0000000   6.0000000   6.0000000   6.0000000

  Atom        31          32          33          34          35          36          37          38          39          40
 IAtWgt=          12          12          12          12          12          12          12          12          12          12
 AtmWgt=  12.0000000  12.0000000  12.0000000  12.0000000  12.0000000  12.0000000  12.0000000  12.0000000  12.0000000  12.0000000
 NucSpn=           0           0           0           0           0           0           0           0           0           0
 AtZEff=  -0.0000000  -0.0000000  -0.0000000  -0.0000000  -0.0000000  -0.0000000  -0.0000000  -0.0000000  -0.0000000  -0.0000000
 NQMom=    0.0000000   0.0000000   0.0000000   0.0000000   0.0000000   0.0000000   0.0000000   0.0000000   0.0000000   0.0000000
 NMagM=    0.0000000   0.0000000   0.0000000   0.0000000   0.0000000   0.0000000   0.0000000   0.0000000   0.0000000   0.0000000
 AtZNuc=   6.0000000   6.0000000   6.0000000   6.0000000   6.0000000   6.0000000   6.0000000   6.0000000   6.0000000   6.0000000

  Atom        41          42          43          44          45          46          47          48          49          50
 IAtWgt=          14          11          19          19           1           1           1           1           1           1
 AtmWgt=  14.0030740  11.0093053  18.9984033  18.9984033   1.0078250   1.0078250   1.0078250   1.0078250   1.0078250   1.0078250
 NucSpn=           2           3           1           1           1           1           1           1           1           1
 AtZEff=  -0.0000000  -0.0000000  -0.0000000  -0.0000000  -0.0000000  -0.0000000  -0.0000000  -0.0000000  -0.0000000  -0.0000000
 NQMom=    2.0440000   4.0590000   0.0000000   0.0000000   0.0000000   0.0000000   0.0000000   0.0000000   0.0000000   0.0000000
 NMagM=    0.4037610   2.6886370   2.6288670   2.6288670   2.7928460   2.7928460   2.7928460   2.7928460   2.7928460   2.7928460
 AtZNuc=   7.0000000   5.0000000   9.0000000   9.0000000   1.0000000   1.0000000   1.0000000   1.0000000   1.0000000   1.0000000

  Atom        51          52          53          54          55          56          57          58          59          60
 IAtWgt=           1           1           1           1           1           1           1           1           1           1
 AtmWgt=   1.0078250   1.0078250   1.0078250   1.0078250   1.0078250   1.0078250   1.0078250   1.0078250   1.0078250   1.0078250
 NucSpn=           1           1           1           1           1           1           1           1           1           1
 AtZEff=  -0.0000000  -0.0000000  -0.0000000  -0.0000000  -0.0000000  -0.0000000  -0.0000000  -0.0000000  -0.0000000  -0.0000000
 NQMom=    0.0000000   0.0000000   0.0000000   0.0000000   0.0000000   0.0000000   0.0000000   0.0000000   0.0000000   0.0000000
 NMagM=    2.7928460   2.7928460   2.7928460   2.7928460   2.7928460   2.7928460   2.7928460   2.7928460   2.7928460   2.7928460
 AtZNuc=   1.0000000   1.0000000   1.0000000   1.0000000   1.0000000   1.0000000   1.0000000   1.0000000   1.0000000   1.0000000

  Atom        61          62          63          64          65          66          67          68          69
 IAtWgt=           1           1           1           1           1           1           1           1           1
 AtmWgt=   1.0078250   1.0078250   1.0078250   1.0078250   1.0078250   1.0078250   1.0078250   1.0078250   1.0078250
 NucSpn=           1           1           1           1           1           1           1           1           1
 AtZEff=  -0.0000000  -0.0000000  -0.0000000  -0.0000000  -0.0000000  -0.0000000  -0.0000000  -0.0000000  -0.0000000
 NQMom=    0.0000000   0.0000000   0.0000000   0.0000000   0.0000000   0.0000000   0.0000000   0.0000000   0.0000000
 NMagM=    2.7928460   2.7928460   2.7928460   2.7928460   2.7928460   2.7928460   2.7928460   2.7928460   2.7928460
 AtZNuc=   1.0000000   1.0000000   1.0000000   1.0000000   1.0000000   1.0000000   1.0000000   1.0000000   1.0000000
 Leave Link  101 at Tue Oct 28 21:42:34 2025, MaxMem= 30870077440 cpu:               4.5 elap:               0.1
 (Enter /public/software/gauss/g16/l202.exe)
 Stoichiometry    C33H25BF2N4O4
 Framework group  C1[X(C33H25BF2N4O4)]
 Deg. of freedom   201
 Full point group                 C1      NOp   1
 Largest Abelian subgroup         C1      NOp   1
 Largest concise Abelian subgroup C1      NOp   1
                         Standard orientation:                         
 ---------------------------------------------------------------------
 Center     Atomic      Atomic             Coordinates (Angstroms)
 Number     Number       Type             X           Y           Z
 ---------------------------------------------------------------------
      1          6           0        2.716340   -3.791356   -0.096697
      2          6           0        1.568543   -2.828071   -0.067899
      3          6           0        0.234423   -3.203028   -0.083643
      4          6           0       -0.564912   -2.035608   -0.062511
      5          6           0       -2.000139   -1.921008   -0.078809
      6          6           0       -2.839970   -2.982004    0.027730
      7          6           0       -4.294034   -2.927521    0.005527
      8          6           0       -5.012198   -4.134435    0.163214
      9          6           0       -6.397800   -4.158253    0.154769
     10          6           0       -7.087162   -2.954613   -0.015149
     11          7           0       -8.535564   -2.965186   -0.025661
     12          8           0       -9.123843   -4.047638    0.109816
     13          8           0       -9.137364   -1.891230   -0.169405
     14          6           0       -6.412493   -1.738193   -0.175841
     15          6           0       -5.028723   -1.730437   -0.165005
     16          7           0        0.260785   -0.946166   -0.039914
     17          6           0        1.579696   -1.391941   -0.037417
     18          6           0        2.645377   -0.466185   -0.031297
     19          6           0        4.052777   -0.968965   -0.019153
     20          6           0        4.718717   -1.236812   -1.224362
     21          6           0        6.028045   -1.705305   -1.217567
     22          6           0        6.658620   -1.902081    0.010707
     23          7           0        8.033719   -2.394434    0.026264
     24          8           0        8.591063   -2.617758   -1.053196
     25          8           0        8.584491   -2.567919    1.118187
     26          6           0        6.021694   -1.645288    1.224573
     27          6           0        4.712579   -1.176462    1.201447
     28          6           0        2.402909    0.911735   -0.044433
     29          6           0        3.299682    2.041235   -0.090360
     30          6           0        4.796563    2.062407   -0.132826
     31          6           0        2.501727    3.167614   -0.108309
     32          6           0        1.139444    2.763085   -0.074014
     33          6           0       -0.044133    3.583036   -0.083754
     34          6           0       -0.011402    4.935891    0.011010
     35          6           0       -1.158748    5.837315    0.003602
     36          6           0       -0.922270    7.223026    0.111049
     37          6           0       -1.975852    8.134532    0.110648
     38          6           0       -3.292162    7.680490    0.002978
     39          6           0       -3.544963    6.307687   -0.104030
     40          6           0       -2.495063    5.395512   -0.104009
     41          7           0        1.093540    1.402220   -0.041847
     42          5           0       -0.168285    0.527878    0.182123
     43          9           0       -1.170333    0.882235   -0.736008
     44          9           0       -0.655232    0.700944    1.483746
     45          1           0        3.326701   -3.675125   -0.997557
     46          1           0        3.382880   -3.663544    0.761326
     47          1           0        2.333323   -4.814840   -0.078900
     48          1           0       -0.136360   -4.217664   -0.126102
     49          1           0       -2.398980   -0.919760   -0.192337
     50          1           0       -2.420774   -3.978194    0.148002
     51          1           0       -4.464271   -5.062006    0.295048
     52          1           0       -6.942052   -5.085838    0.277171
     53          1           0       -6.972421   -0.821257   -0.307535
     54          1           0       -4.513250   -0.785389   -0.291629
     55          1           0        4.210556   -1.077027   -2.169005
     56          1           0        6.551810   -1.914558   -2.141349
     57          1           0        6.540445   -1.809052    2.160267
     58          1           0        4.199469   -0.970445    2.134405
     59          1           0        5.187610    1.543485   -1.013227
     60          1           0        5.146301    3.097199   -0.165294
     61          1           0        5.237777    1.581414    0.745345
     62          1           0        2.851436    4.189114   -0.160887
     63          1           0       -0.989843    3.063380   -0.180619
     64          1           0        0.953248    5.429588    0.108037
     65          1           0        0.101387    7.577471    0.194964
     66          1           0       -1.770080    9.197422    0.194305
     67          1           0       -4.116188    8.387537    0.002760
     68          1           0       -4.566757    5.949637   -0.187298
     69          1           0       -2.713259    4.335779   -0.186270
 ---------------------------------------------------------------------
 Rotational constants (GHZ):           0.0713778           0.0372853           0.0249449
 Leave Link  202 at Tue Oct 28 21:42:34 2025, MaxMem= 30870077440 cpu:               0.2 elap:               0.0
 (Enter /public/software/gauss/g16/l301.exe)
 Standard basis: def2TZVPP (5D, 7F)
 Ernie: Thresh=  0.10000D-02 Tol=  0.10000D-05 Strict=F.
 There are  1959 symmetry adapted cartesian basis functions of A   symmetry.
 There are  1714 symmetry adapted basis functions of A   symmetry.
  1714 basis functions,  2669 primitive gaussians,  1959 cartesian basis functions
   153 alpha electrons      153 beta electrons
       nuclear repulsion energy      4706.3073313235 Hartrees.
 IExCor= 4336 DFT=T Ex+Corr=M062X ExCW=0 ScaHFX=  0.540000
 ScaDFX=  1.000000  1.000000  1.000000  1.000000 ScalE2=  1.000000  1.000000
 IRadAn=      5 IRanWt=     -1 IRanGd=            0 ICorTp=0 IEmpDi=131
 NAtoms=   69 NActive=   69 NUniq=   69 SFac= 1.00D+00 NAtFMM=   60 NAOKFM=T Big=T
 Integral buffers will be    131072 words long.
 Raffenetti 2 integral format.
 Two-electron integral symmetry is turned on.
 R6Disp:  Grimme-D3 Dispersion energy=       -0.0055576939 Hartrees.
 Nuclear repulsion after empirical dispersion term =     4706.3017736296 Hartrees.
 ------------------------------------------------------------------------------
 Polarizable Continuum Model (PCM)
 =================================
 Model                : PCM.
 Atomic radii         : UFF (Universal Force Field).
 Polarization charges : Total charges.
 Charge compensation  : None.
 Solution method      : On-the-fly selection.
 Cavity type          : Scaled VdW (van der Waals Surface) (Alpha=1.100).
 Cavity algorithm     : GePol (No added spheres)
                        Default sphere list used, NSphG=   69.
                        Lebedev-Laikov grids with approx.  5.0 points / Ang**2.
                        Smoothing algorithm: York/Karplus (Gamma=1.0000).
                        Polarization charges: spherical gaussians, with
                                              point-specific exponents (IZeta= 3).
                        Self-potential: point-specific (ISelfS= 7).
                        Self-field    : sphere-specific E.n sum rule (ISelfD= 2).
 Solvent              : Water, Eps=  78.355300 Eps(inf)=   1.777849
 ------------------------------------------------------------------------------
 GePol: Number of generator spheres                  =      69
 GePol: Total number of spheres                      =      69
 GePol: Number of exposed spheres                    =      69 (100.00%)
 GePol: Number of points                             =    5217
 GePol: Average weight of points                     =       0.13
 GePol: Minimum weight of points                     =   0.18D-11
 GePol: Maximum weight of points                     =    0.20577
 GePol: Number of points with low weight             =     342
 GePol: Fraction of low-weight points (<1% of avg)   =       6.56%
 GePol: Cavity surface area                          =    656.515 Ang**2
 GePol: Cavity volume                                =    755.844 Ang**3
 Leave Link  301 at Tue Oct 28 21:42:34 2025, MaxMem= 30870077440 cpu:               8.2 elap:               0.1
 (Enter /public/software/gauss/g16/l302.exe)
 NPDir=0 NMtPBC=     1 NCelOv=     1 NCel=       1 NClECP=     1 NCelD=      1
         NCelK=      1 NCelE2=     1 NClLst=     1 CellRange=     0.0.
 One-electron integrals computed using PRISM.
 One-electron integral symmetry used in STVInt
   1 Symmetry operations used in ECPInt.
 ECPInt:  NShTT=  201295 NPrTT=  584783 LenC2=  127973 LenP2D=  249567.
 LDataN:  DoStor=T MaxTD1= 6 Len=  172
 NBasis=  1714 RedAO= T EigKep=  3.61D-06  NBF=  1714
 NBsUse=  1714 1.00D-06 EigRej= -1.00D+00 NBFU=  1714
 Precomputing XC quadrature grid using
 IXCGrd= 4 IRadAn=           5 IRanWt=          -1 IRanGd=           0 AccXCQ= 0.00D+00.
 Generated NRdTot=       0 NPtTot=           0 NUsed=           0 NTot=          32
 NSgBfM=  1739  1736  1736  1739  1739 MxSgAt=    69 MxSgA2=    69.
 Leave Link  302 at Tue Oct 28 21:42:42 2025, MaxMem= 30870077440 cpu:             483.5 elap:               7.6
 (Enter /public/software/gauss/g16/l303.exe)
 DipDrv:  MaxL=1.
 Leave Link  303 at Tue Oct 28 21:42:42 2025, MaxMem= 30870077440 cpu:              24.1 elap:               0.4
 (Enter /public/software/gauss/g16/l401.exe)
 ExpMin= 6.06D-02 ExpMax= 3.55D+04 ExpMxC= 1.21D+03 IAcc=3 IRadAn=         5 AccDes= 0.00D+00
 Harris functional with IExCor= 1009 and IRadAn=       5 diagonalized for initial guess.
 HarFok:  IExCor= 1009 AccDes= 0.00D+00 IRadAn=         5 IDoV= 1 UseB2=F ITyADJ=14
 ICtDFT=  3500011 ScaDFX=  1.000000  1.000000  1.000000  1.000000
 FoFCou: FMM=F IPFlag=           0 FMFlag=      100000 FMFlg1=        2001
         NFxFlg=           0 DoJE=T BraDBF=F KetDBF=T FulRan=T
         wScrn=  0.000000 ICntrl=       500 IOpCl=  0 I1Cent=   200000004 NGrid=           0
         NMat0=    1 NMatS0=      1 NMatT0=    0 NMatD0=    1 NMtDS0=    0 NMtDT0=    0
 Petite list used in FoFCou.
 Harris En= -2016.00442532169    
 JPrj=0 DoOrth=F DoCkMO=F.
 Leave Link  401 at Tue Oct 28 21:42:51 2025, MaxMem= 30870077440 cpu:             562.0 elap:               8.8
 (Enter /public/software/gauss/g16/l502.exe)
 Integral symmetry usage will be decided dynamically.
 Closed shell SCF:
 Using DIIS extrapolation, IDIIS=  1040.
 NGot= 30870077440 LenX= 30862260289 LenY= 30858420649
 Requested convergence on RMS density matrix=1.00D-08 within 128 cycles.
 Requested convergence on MAX density matrix=1.00D-06.
 Requested convergence on             energy=1.00D-06.
 No special actions if energy rises.
 Fock matrices will be formed incrementally for  20 cycles.

 Cycle   1  Pass 1  IDiag  1:
 FoFJK:  IHMeth= 1 ICntrl=       0 DoSepK=F KAlg= 0 I1Cent=           0 FoldK=F
 IRaf= 600000000 NMat=       1 IRICut=       1 DoRegI=T DoRafI=F ISym2E= 0 IDoP0=0 IntGTp=1.
 FoFCou: FMM=T IPFlag=           0 FMFlag=      100000 FMFlg1=        2001
         NFxFlg=           0 DoJE=F BraDBF=F KetDBF=F FulRan=T
         wScrn=  0.000000 ICntrl=         0 IOpCl=  0 I1Cent=           0 NGrid=           0
         NMat0=    1 NMatS0=      1 NMatT0=    0 NMatD0=    1 NMtDS0=    0 NMtDT0=    0
 Symmetry not used in FoFCou.
 FMM levels:  10  Number of levels for PrismC:   9
 Inv3:  Mode=1 IEnd=    81651267.
 Iteration    1 A*A^-1 deviation from unit magnitude is 8.66D-15 for   5214.
 Iteration    1 A*A^-1 deviation from orthogonality  is 4.47D-15 for   5192   2726.
 Iteration    1 A^-1*A deviation from unit magnitude is 8.66D-15 for   5214.
 Iteration    1 A^-1*A deviation from orthogonality  is 3.77D-15 for   5203   2715.
 E= -2015.94683086437    
 DIIS: error= 2.79D-02 at cycle   1 NSaved=   1.
 NSaved= 1 IEnMin= 1 EnMin= -2015.94683086437     IErMin= 1 ErrMin= 2.79D-02
 ErrMax= 2.79D-02  0.00D+00 EMaxC= 1.00D-01 BMatC= 1.45D+00 BMatP= 1.45D+00
 IDIUse=3 WtCom= 7.21D-01 WtEn= 2.79D-01
 Coeff-Com:  0.100D+01
 Coeff-En:   0.100D+01
 Coeff:      0.100D+01
 Gap=     0.129 Goal=   None    Shift=    0.000
 GapD=    0.129 DampG=1.000 DampE=0.500 DampFc=0.5000 IDamp=-1.
 Damping current iteration by 5.00D-01
 RMSDP=1.30D-03 MaxDP=9.13D-02              OVMax= 2.62D-01

 Cycle   2  Pass 1  IDiag  1:
 RMSU=  6.45D-04    CP:  9.84D-01
 E= -2016.43943735320     Delta-E=       -0.492606488836 Rises=F Damp=T
 DIIS: error= 6.05D-03 at cycle   2 NSaved=   2.
 NSaved= 2 IEnMin= 2 EnMin= -2016.43943735320     IErMin= 2 ErrMin= 6.05D-03
 ErrMax= 6.05D-03  0.00D+00 EMaxC= 1.00D-01 BMatC= 1.50D-01 BMatP= 1.45D+00
 IDIUse=3 WtCom= 9.39D-01 WtEn= 6.05D-02
 Coeff-Com: -0.116D-01 0.101D+01
 Coeff-En:   0.000D+00 0.100D+01
 Coeff:     -0.109D-01 0.101D+01
 Gap=     0.176 Goal=   None    Shift=    0.000
 RMSDP=6.23D-04 MaxDP=4.62D-02 DE=-4.93D-01 OVMax= 2.04D-01

 Cycle   3  Pass 1  IDiag  1:
 RMSU=  5.54D-04    CP:  9.63D-01  1.43D+00
 E= -2016.94796132935     Delta-E=       -0.508523976147 Rises=F Damp=F
 DIIS: error= 9.28D-03 at cycle   3 NSaved=   3.
 NSaved= 3 IEnMin= 3 EnMin= -2016.94796132935     IErMin= 2 ErrMin= 6.05D-03
 ErrMax= 9.28D-03  0.00D+00 EMaxC= 1.00D-01 BMatC= 8.21D-02 BMatP= 1.50D-01
 IDIUse=3 WtCom= 9.07D-01 WtEn= 9.28D-02
 Coeff-Com: -0.100D+00 0.454D+00 0.646D+00
 Coeff-En:   0.000D+00 0.000D+00 0.100D+01
 Coeff:     -0.908D-01 0.412D+00 0.679D+00
 Gap=     0.132 Goal=   None    Shift=    0.000
 RMSDP=1.71D-04 MaxDP=2.57D-02 DE=-5.09D-01 OVMax= 6.51D-02

 Cycle   4  Pass 1  IDiag  1:
 RMSU=  1.66D-04    CP:  9.65D-01  1.44D+00  9.35D-01
 E= -2017.00078163406     Delta-E=       -0.052820304714 Rises=F Damp=F
 DIIS: error= 2.78D-03 at cycle   4 NSaved=   4.
 NSaved= 4 IEnMin= 4 EnMin= -2017.00078163406     IErMin= 4 ErrMin= 2.78D-03
 ErrMax= 2.78D-03  0.00D+00 EMaxC= 1.00D-01 BMatC= 1.16D-02 BMatP= 8.21D-02
 IDIUse=3 WtCom= 9.72D-01 WtEn= 2.78D-02
 Coeff-Com: -0.304D-01 0.841D-01 0.323D+00 0.623D+00
 Coeff-En:   0.000D+00 0.000D+00 0.904D-01 0.910D+00
 Coeff:     -0.296D-01 0.817D-01 0.317D+00 0.631D+00
 Gap=     0.133 Goal=   None    Shift=    0.000
 RMSDP=5.74D-05 MaxDP=5.22D-03 DE=-5.28D-02 OVMax= 1.49D-02

 Cycle   5  Pass 1  IDiag  1:
 RMSU=  4.58D-05    CP:  9.64D-01  1.44D+00  9.55D-01  8.03D-01
 E= -2017.00955832573     Delta-E=       -0.008776691668 Rises=F Damp=F
 DIIS: error= 5.26D-04 at cycle   5 NSaved=   5.
 NSaved= 5 IEnMin= 5 EnMin= -2017.00955832573     IErMin= 5 ErrMin= 5.26D-04
 ErrMax= 5.26D-04  0.00D+00 EMaxC= 1.00D-01 BMatC= 3.88D-04 BMatP= 1.16D-02
 IDIUse=3 WtCom= 9.95D-01 WtEn= 5.26D-03
 Coeff-Com: -0.793D-02 0.141D-01 0.105D+00 0.270D+00 0.619D+00
 Coeff-En:   0.000D+00 0.000D+00 0.000D+00 0.000D+00 0.100D+01
 Coeff:     -0.789D-02 0.141D-01 0.105D+00 0.268D+00 0.621D+00
 Gap=     0.134 Goal=   None    Shift=    0.000
 RMSDP=1.46D-05 MaxDP=1.16D-03 DE=-8.78D-03 OVMax= 4.30D-03

 Cycle   6  Pass 1  IDiag  1:
 RMSU=  1.37D-05    CP:  9.64D-01  1.44D+00  9.55D-01  8.18D-01  9.08D-01
 E= -2017.00989483016     Delta-E=       -0.000336504435 Rises=F Damp=F
 DIIS: error= 1.64D-04 at cycle   6 NSaved=   6.
 NSaved= 6 IEnMin= 6 EnMin= -2017.00989483016     IErMin= 6 ErrMin= 1.64D-04
 ErrMax= 1.64D-04  0.00D+00 EMaxC= 1.00D-01 BMatC= 2.72D-05 BMatP= 3.88D-04
 IDIUse=3 WtCom= 9.98D-01 WtEn= 1.64D-03
 Coeff-Com: -0.571D-03-0.924D-03 0.139D-01 0.469D-01 0.235D+00 0.706D+00
 Coeff-En:   0.000D+00 0.000D+00 0.000D+00 0.000D+00 0.000D+00 0.100D+01
 Coeff:     -0.570D-03-0.923D-03 0.139D-01 0.468D-01 0.235D+00 0.706D+00
 Gap=     0.135 Goal=   None    Shift=    0.000
 RMSDP=6.30D-06 MaxDP=1.03D-03 DE=-3.37D-04 OVMax= 2.61D-03

 Cycle   7  Pass 1  IDiag  1:
 RMSU=  5.73D-06    CP:  9.64D-01  1.44D+00  9.56D-01  8.15D-01  9.55D-01
                    CP:  9.27D-01
 E= -2017.00992674927     Delta-E=       -0.000031919103 Rises=F Damp=F
 DIIS: error= 3.73D-05 at cycle   7 NSaved=   7.
 NSaved= 7 IEnMin= 7 EnMin= -2017.00992674927     IErMin= 7 ErrMin= 3.73D-05
 ErrMax= 3.73D-05  0.00D+00 EMaxC= 1.00D-01 BMatC= 4.70D-06 BMatP= 2.72D-05
 IDIUse=1 WtCom= 1.00D+00 WtEn= 0.00D+00
 Coeff-Com:  0.972D-03-0.266D-02-0.983D-02-0.204D-01 0.134D-01 0.305D+00
 Coeff-Com:  0.714D+00
 Coeff:      0.972D-03-0.266D-02-0.983D-02-0.204D-01 0.134D-01 0.305D+00
 Coeff:      0.714D+00
 Gap=     0.135 Goal=   None    Shift=    0.000
 RMSDP=2.99D-06 MaxDP=2.54D-04 DE=-3.19D-05 OVMax= 1.46D-03

 Cycle   8  Pass 1  IDiag  1:
 RMSU=  2.09D-06    CP:  9.64D-01  1.44D+00  9.56D-01  8.21D-01  9.87D-01
                    CP:  1.01D+00  1.02D+00
 E= -2017.00993359261     Delta-E=       -0.000006843338 Rises=F Damp=F
 DIIS: error= 2.67D-05 at cycle   8 NSaved=   8.
 NSaved= 8 IEnMin= 8 EnMin= -2017.00993359261     IErMin= 8 ErrMin= 2.67D-05
 ErrMax= 2.67D-05  0.00D+00 EMaxC= 1.00D-01 BMatC= 9.51D-07 BMatP= 4.70D-06
 IDIUse=1 WtCom= 1.00D+00 WtEn= 0.00D+00
 Coeff-Com:  0.527D-03-0.108D-02-0.670D-02-0.174D-01-0.307D-01 0.293D-01
 Coeff-Com:  0.344D+00 0.682D+00
 Coeff:      0.527D-03-0.108D-02-0.670D-02-0.174D-01-0.307D-01 0.293D-01
 Coeff:      0.344D+00 0.682D+00
 Gap=     0.135 Goal=   None    Shift=    0.000
 RMSDP=1.22D-06 MaxDP=1.10D-04 DE=-6.84D-06 OVMax= 8.18D-04

 Cycle   9  Pass 1  IDiag  1:
 RMSU=  8.73D-07    CP:  9.64D-01  1.44D+00  9.57D-01  8.21D-01  9.92D-01
                    CP:  1.03D+00  1.15D+00  9.97D-01
 E= -2017.00993512522     Delta-E=       -0.000001532613 Rises=F Damp=F
 DIIS: error= 8.50D-06 at cycle   9 NSaved=   9.
 NSaved= 9 IEnMin= 9 EnMin= -2017.00993512522     IErMin= 9 ErrMin= 8.50D-06
 ErrMax= 8.50D-06  0.00D+00 EMaxC= 1.00D-01 BMatC= 1.03D-07 BMatP= 9.51D-07
 IDIUse=1 WtCom= 1.00D+00 WtEn= 0.00D+00
 Coeff-Com:  0.503D-04-0.101D-04-0.100D-02-0.364D-02-0.126D-01-0.313D-01
 Coeff-Com:  0.287D-01 0.245D+00 0.775D+00
 Coeff:      0.503D-04-0.101D-04-0.100D-02-0.364D-02-0.126D-01-0.313D-01
 Coeff:      0.287D-01 0.245D+00 0.775D+00
 Gap=     0.135 Goal=   None    Shift=    0.000
 RMSDP=5.36D-07 MaxDP=5.76D-05 DE=-1.53D-06 OVMax= 3.88D-04

 Cycle  10  Pass 1  IDiag  1:
 RMSU=  4.07D-07    CP:  9.64D-01  1.44D+00  9.57D-01  8.21D-01  9.95D-01
                    CP:  1.04D+00  1.18D+00  1.12D+00  1.06D+00
 E= -2017.00993537111     Delta-E=       -0.000000245888 Rises=F Damp=F
 DIIS: error= 4.33D-06 at cycle  10 NSaved=  10.
 NSaved=10 IEnMin=10 EnMin= -2017.00993537111     IErMin=10 ErrMin= 4.33D-06
 ErrMax= 4.33D-06  0.00D+00 EMaxC= 1.00D-01 BMatC= 3.10D-08 BMatP= 1.03D-07
 IDIUse=1 WtCom= 1.00D+00 WtEn= 0.00D+00
 Coeff-Com: -0.792D-04 0.208D-03 0.838D-03 0.168D-02 0.231D-03-0.206D-01
 Coeff-Com: -0.545D-01-0.265D-01 0.382D+00 0.717D+00
 Coeff:     -0.792D-04 0.208D-03 0.838D-03 0.168D-02 0.231D-03-0.206D-01
 Coeff:     -0.545D-01-0.265D-01 0.382D+00 0.717D+00
 Gap=     0.135 Goal=   None    Shift=    0.000
 RMSDP=2.74D-07 MaxDP=2.70D-05 DE=-2.46D-07 OVMax= 2.52D-04

 Cycle  11  Pass 1  IDiag  1:
 RMSU=  1.63D-07    CP:  9.64D-01  1.44D+00  9.57D-01  8.21D-01  9.95D-01
                    CP:  1.04D+00  1.21D+00  1.16D+00  1.22D+00  1.12D+00
 E= -2017.00993544065     Delta-E=       -0.000000069545 Rises=F Damp=F
 DIIS: error= 2.03D-06 at cycle  11 NSaved=  11.
 NSaved=11 IEnMin=11 EnMin= -2017.00993544065     IErMin=11 ErrMin= 2.03D-06
 ErrMax= 2.03D-06  0.00D+00 EMaxC= 1.00D-01 BMatC= 4.87D-09 BMatP= 3.10D-08
 IDIUse=1 WtCom= 1.00D+00 WtEn= 0.00D+00
 Coeff-Com: -0.422D-04 0.905D-04 0.523D-03 0.136D-02 0.213D-02-0.441D-02
 Coeff-Com: -0.293D-01-0.566D-01 0.336D-01 0.309D+00 0.743D+00
 Coeff:     -0.422D-04 0.905D-04 0.523D-03 0.136D-02 0.213D-02-0.441D-02
 Coeff:     -0.293D-01-0.566D-01 0.336D-01 0.309D+00 0.743D+00
 Gap=     0.135 Goal=   None    Shift=    0.000
 RMSDP=1.26D-07 MaxDP=1.44D-05 DE=-6.95D-08 OVMax= 1.23D-04

 Cycle  12  Pass 1  IDiag  1:
 RMSU=  6.84D-08    CP:  9.64D-01  1.44D+00  9.57D-01  8.21D-01  9.95D-01
                    CP:  1.04D+00  1.21D+00  1.17D+00  1.28D+00  1.28D+00
                    CP:  1.19D+00
 E= -2017.00993545360     Delta-E=       -0.000000012950 Rises=F Damp=F
 DIIS: error= 7.21D-07 at cycle  12 NSaved=  12.
 NSaved=12 IEnMin=12 EnMin= -2017.00993545360     IErMin=12 ErrMin= 7.21D-07
 ErrMax= 7.21D-07  0.00D+00 EMaxC= 1.00D-01 BMatC= 1.04D-09 BMatP= 4.87D-09
 IDIUse=1 WtCom= 1.00D+00 WtEn= 0.00D+00
 Coeff-Com: -0.820D-06-0.460D-05 0.403D-04 0.216D-03 0.780D-03 0.226D-02
 Coeff-Com: -0.230D-03-0.171D-01-0.648D-01-0.157D-01 0.316D+00 0.779D+00
 Coeff:     -0.820D-06-0.460D-05 0.403D-04 0.216D-03 0.780D-03 0.226D-02
 Coeff:     -0.230D-03-0.171D-01-0.648D-01-0.157D-01 0.316D+00 0.779D+00
 Gap=     0.135 Goal=   None    Shift=    0.000
 RMSDP=6.66D-08 MaxDP=6.17D-06 DE=-1.30D-08 OVMax= 7.17D-05

 Cycle  13  Pass 1  IDiag  1:
 RMSU=  3.32D-08    CP:  9.64D-01  1.44D+00  9.57D-01  8.21D-01  9.95D-01
                    CP:  1.04D+00  1.21D+00  1.18D+00  1.31D+00  1.36D+00
                    CP:  1.39D+00  1.34D+00
 E= -2017.00993545734     Delta-E=       -0.000000003738 Rises=F Damp=F
 DIIS: error= 4.64D-07 at cycle  13 NSaved=  13.
 NSaved=13 IEnMin=13 EnMin= -2017.00993545734     IErMin=13 ErrMin= 4.64D-07
 ErrMax= 4.64D-07  0.00D+00 EMaxC= 1.00D-01 BMatC= 2.62D-10 BMatP= 1.04D-09
 IDIUse=1 WtCom= 1.00D+00 WtEn= 0.00D+00
 Coeff-Com:  0.984D-05-0.240D-04-0.109D-03-0.224D-03-0.179D-03 0.209D-02
 Coeff-Com:  0.731D-02 0.675D-02-0.390D-01-0.808D-01-0.456D-01 0.328D+00
 Coeff-Com:  0.821D+00
 Coeff:      0.984D-05-0.240D-04-0.109D-03-0.224D-03-0.179D-03 0.209D-02
 Coeff:      0.731D-02 0.675D-02-0.390D-01-0.808D-01-0.456D-01 0.328D+00
 Coeff:      0.821D+00
 Gap=     0.135 Goal=   None    Shift=    0.000
 RMSDP=4.02D-08 MaxDP=4.34D-06 DE=-3.74D-09 OVMax= 4.32D-05

 Cycle  14  Pass 1  IDiag  1:
 RMSU=  1.80D-08    CP:  9.64D-01  1.44D+00  9.57D-01  8.21D-01  9.95D-01
                    CP:  1.04D+00  1.21D+00  1.18D+00  1.32D+00  1.40D+00
                    CP:  1.51D+00  1.63D+00  1.26D+00
 E= -2017.00993545853     Delta-E=       -0.000000001192 Rises=F Damp=F
 DIIS: error= 2.90D-07 at cycle  14 NSaved=  14.
 NSaved=14 IEnMin=14 EnMin= -2017.00993545853     IErMin=14 ErrMin= 2.90D-07
 ErrMax= 2.90D-07  0.00D+00 EMaxC= 1.00D-01 BMatC= 6.05D-11 BMatP= 2.62D-10
 IDIUse=1 WtCom= 1.00D+00 WtEn= 0.00D+00
 Coeff-Com:  0.416D-05-0.866D-05-0.537D-04-0.142D-03-0.286D-03 0.270D-03
 Coeff-Com:  0.308D-02 0.721D-02-0.237D-02-0.281D-01-0.988D-01-0.688D-01
 Coeff-Com:  0.347D+00 0.841D+00
 Coeff:      0.416D-05-0.866D-05-0.537D-04-0.142D-03-0.286D-03 0.270D-03
 Coeff:      0.308D-02 0.721D-02-0.237D-02-0.281D-01-0.988D-01-0.688D-01
 Coeff:      0.347D+00 0.841D+00
 Gap=     0.135 Goal=   None    Shift=    0.000
 RMSDP=2.24D-08 MaxDP=2.32D-06 DE=-1.19D-09 OVMax= 2.51D-05

 Cycle  15  Pass 1  IDiag  1:
 RMSU=  8.58D-09    CP:  9.64D-01  1.44D+00  9.57D-01  8.21D-01  9.95D-01
                    CP:  1.04D+00  1.21D+00  1.18D+00  1.32D+00  1.42D+00
                    CP:  1.57D+00  1.78D+00  1.60D+00  1.22D+00
 E= -2017.00993545848     Delta-E=        0.000000000048 Rises=F Damp=F
 DIIS: error= 1.63D-07 at cycle  15 NSaved=  15.
 NSaved=15 IEnMin=14 EnMin= -2017.00993545853     IErMin=15 ErrMin= 1.63D-07
 ErrMax= 1.63D-07  0.00D+00 EMaxC= 1.00D-01 BMatC= 2.21D-11 BMatP= 6.05D-11
 IDIUse=1 WtCom= 1.00D+00 WtEn= 0.00D+00
 Coeff-Com:  0.384D-06-0.113D-06-0.832D-05-0.357D-04-0.135D-03-0.276D-03
 Coeff-Com:  0.286D-03 0.282D-02 0.595D-02 0.224D-02-0.438D-01-0.109D+00
 Coeff-Com:  0.235D-01 0.484D+00 0.635D+00
 Coeff:      0.384D-06-0.113D-06-0.832D-05-0.357D-04-0.135D-03-0.276D-03
 Coeff:      0.286D-03 0.282D-02 0.595D-02 0.224D-02-0.438D-01-0.109D+00
 Coeff:      0.235D-01 0.484D+00 0.635D+00
 Gap=     0.135 Goal=   None    Shift=    0.000
 RMSDP=7.92D-09 MaxDP=7.27D-07 DE= 4.82D-11 OVMax= 8.11D-06

 Error on total polarization charges =  0.02288
 SCF Done:  E(RM062X) =  -2017.00993546     A.U. after   15 cycles
            NFock= 15  Conv=0.79D-08     -V/T= 2.0053
 KE= 2.006357531636D+03 PE=-1.411563985435D+04 EE= 5.385970613622D+03
 Leave Link  502 at Tue Oct 28 21:56:23 2025, MaxMem= 30870077440 cpu:           50915.3 elap:             812.0
 (Enter /public/software/gauss/g16/l601.exe)
 Copying SCF densities to generalized density rwf, IOpCl= 0 IROHF=0.

 **********************************************************************

            Population analysis using the SCF density.

 **********************************************************************

 Orbital symmetries:
       Occupied  (A) (A) (A) (A) (A) (A) (A) (A) (A) (A) (A) (A)
                 (A) (A) (A) (A) (A) (A) (A) (A) (A) (A) (A) (A)
                 (A) (A) (A) (A) (A) (A) (A) (A) (A) (A) (A) (A)
                 (A) (A) (A) (A) (A) (A) (A) (A) (A) (A) (A) (A)
                 (A) (A) (A) (A) (A) (A) (A) (A) (A) (A) (A) (A)
                 (A) (A) (A) (A) (A) (A) (A) (A) (A) (A) (A) (A)
                 (A) (A) (A) (A) (A) (A) (A) (A) (A) (A) (A) (A)
                 (A) (A) (A) (A) (A) (A) (A) (A) (A) (A) (A) (A)
                 (A) (A) (A) (A) (A) (A) (A) (A) (A) (A) (A) (A)
                 (A) (A) (A) (A) (A) (A) (A) (A) (A) (A) (A) (A)
                 (A) (A) (A) (A) (A) (A) (A) (A) (A) (A) (A) (A)
                 (A) (A) (A) (A) (A) (A) (A) (A) (A) (A) (A) (A)
                 (A) (A) (A) (A) (A) (A) (A) (A) (A)
       Virtual   (A) (A) (A) (A) (A) (A) (A) (A) (A) (A) (A) (A)
                 (A) (A) (A) (A) (A) (A) (A) (A) (A) (A) (A) (A)
                 (A) (A) (A) (A) (A) (A) (A) (A) (A) (A) (A) (A)
                 (A) (A) (A) (A) (A) (A) (A) (A) (A) (A) (A) (A)
                 (A) (A) (A) (A) (A) (A) (A) (A) (A) (A) (A) (A)
                 (A) (A) (A) (A) (A) (A) (A) (A) (A) (A) (A) (A)
                 (A) (A) (A) (A) (A) (A) (A) (A) (A) (A) (A) (A)
                 (A) (A) (A) (A) (A) (A) (A) (A) (A) (A) (A) (A)
                 (A) (A) (A) (A) (A) (A) (A) (A) (A) (A) (A) (A)
                 (A) (A) (A) (A) (A) (A) (A) (A) (A) (A) (A) (A)
                 (A) (A) (A) (A) (A) (A) (A) (A) (A) (A) (A) (A)
                 (A) (A) (A) (A) (A) (A) (A) (A) (A) (A) (A) (A)
                 (A) (A) (A) (A) (A) (A) (A) (A) (A) (A) (A) (A)
                 (A) (A) (A) (A) (A) (A) (A) (A) (A) (A) (A) (A)
                 (A) (A) (A) (A) (A) (A) (A) (A) (A) (A) (A) (A)
                 (A) (A) (A) (A) (A) (A) (A) (A) (A) (A) (A) (A)
                 (A) (A) (A) (A) (A) (A) (A) (A) (A) (A) (A) (A)
                 (A) (A) (A) (A) (A) (A) (A) (A) (A) (A) (A) (A)
                 (A) (A) (A) (A) (A) (A) (A) (A) (A) (A) (A) (A)
                 (A) (A) (A) (A) (A) (A) (A) (A) (A) (A) (A) (A)
                 (A) (A) (A) (A) (A) (A) (A) (A) (A) (A) (A) (A)
                 (A) (A) (A) (A) (A) (A) (A) (A) (A) (A) (A) (A)
                 (A) (A) (A) (A) (A) (A) (A) (A) (A) (A) (A) (A)
                 (A) (A) (A) (A) (A) (A) (A) (A) (A) (A) (A) (A)
                 (A) (A) (A) (A) (A) (A) (A) (A) (A) (A) (A) (A)
                 (A) (A) (A) (A) (A) (A) (A) (A) (A) (A) (A) (A)
                 (A) (A) (A) (A) (A) (A) (A) (A) (A) (A) (A) (A)
                 (A) (A) (A) (A) (A) (A) (A) (A) (A) (A) (A) (A)
                 (A) (A) (A) (A) (A) (A) (A) (A) (A) (A) (A) (A)
                 (A) (A) (A) (A) (A) (A) (A) (A) (A) (A) (A) (A)
                 (A) (A) (A) (A) (A) (A) (A) (A) (A) (A) (A) (A)
                 (A) (A) (A) (A) (A) (A) (A) (A) (A) (A) (A) (A)
                 (A) (A) (A) (A) (A) (A) (A) (A) (A) (A) (A) (A)
                 (A) (A) (A) (A) (A) (A) (A) (A) (A) (A) (A) (A)
                 (A) (A) (A) (A) (A) (A) (A) (A) (A) (A) (A) (A)
                 (A) (A) (A) (A) (A) (A) (A) (A) (A) (A) (A) (A)
                 (A) (A) (A) (A) (A) (A) (A) (A) (A) (A) (A) (A)
                 (A) (A) (A) (A) (A) (A) (A) (A) (A) (A) (A) (A)
                 (A) (A) (A) (A) (A) (A) (A) (A) (A) (A) (A) (A)
                 (A) (A) (A) (A) (A) (A) (A) (A) (A) (A) (A) (A)
                 (A) (A) (A) (A) (A) (A) (A) (A) (A) (A) (A) (A)
                 (A) (A) (A) (A) (A) (A) (A) (A) (A) (A) (A) (A)
                 (A) (A) (A) (A) (A) (A) (A) (A) (A) (A) (A) (A)
                 (A) (A) (A) (A) (A) (A) (A) (A) (A) (A) (A) (A)
                 (A) (A) (A) (A) (A) (A) (A) (A) (A) (A) (A) (A)
                 (A) (A) (A) (A) (A) (A) (A) (A) (A) (A) (A) (A)
                 (A) (A) (A) (A) (A) (A) (A) (A) (A) (A) (A) (A)
                 (A) (A) (A) (A) (A) (A) (A) (A) (A) (A) (A) (A)
                 (A) (A) (A) (A) (A) (A) (A) (A) (A) (A) (A) (A)
                 (A) (A) (A) (A) (A) (A) (A) (A) (A) (A) (A) (A)
                 (A) (A) (A) (A) (A) (A) (A) (A) (A) (A) (A) (A)
                 (A) (A) (A) (A) (A) (A) (A) (A) (A) (A) (A) (A)
                 (A) (A) (A) (A) (A) (A) (A) (A) (A) (A) (A) (A)
                 (A) (A) (A) (A) (A) (A) (A) (A) (A) (A) (A) (A)
                 (A) (A) (A) (A) (A) (A) (A) (A) (A) (A) (A) (A)
                 (A) (A) (A) (A) (A) (A) (A) (A) (A) (A) (A) (A)
                 (A) (A) (A) (A) (A) (A) (A) (A) (A) (A) (A) (A)
                 (A) (A) (A) (A) (A) (A) (A) (A) (A) (A) (A) (A)
                 (A) (A) (A) (A) (A) (A) (A) (A) (A) (A) (A) (A)
                 (A) (A) (A) (A) (A) (A) (A) (A) (A) (A) (A) (A)
                 (A) (A) (A) (A) (A) (A) (A) (A) (A) (A) (A) (A)
                 (A) (A) (A) (A) (A) (A) (A) (A) (A) (A) (A) (A)
                 (A) (A) (A) (A) (A) (A) (A) (A) (A) (A) (A) (A)
                 (A) (A) (A) (A) (A) (A) (A) (A) (A) (A) (A) (A)
                 (A) (A) (A) (A) (A) (A) (A) (A) (A) (A) (A) (A)
                 (A) (A) (A) (A) (A) (A) (A) (A) (A) (A) (A) (A)
                 (A) (A) (A) (A) (A) (A) (A) (A) (A) (A) (A) (A)
                 (A) (A) (A) (A) (A) (A) (A) (A) (A) (A) (A) (A)
                 (A) (A) (A) (A) (A) (A) (A) (A) (A) (A) (A) (A)
                 (A) (A) (A) (A) (A) (A) (A) (A) (A) (A) (A) (A)
                 (A) (A) (A) (A) (A) (A) (A) (A) (A) (A) (A) (A)
                 (A) (A) (A) (A) (A) (A) (A) (A) (A) (A) (A) (A)
                 (A) (A) (A) (A) (A) (A) (A) (A) (A) (A) (A) (A)
                 (A) (A) (A) (A) (A) (A) (A) (A) (A) (A) (A) (A)
                 (A) (A) (A) (A) (A) (A) (A) (A) (A) (A) (A) (A)
                 (A) (A) (A) (A) (A) (A) (A) (A) (A) (A) (A) (A)
                 (A) (A) (A) (A) (A) (A) (A) (A) (A) (A) (A) (A)
                 (A) (A) (A) (A) (A) (A) (A) (A) (A) (A) (A) (A)
                 (A) (A) (A) (A) (A) (A) (A) (A) (A) (A) (A) (A)
                 (A) (A) (A) (A) (A) (A) (A) (A) (A) (A) (A) (A)
                 (A) (A) (A) (A) (A) (A) (A) (A) (A) (A) (A) (A)
                 (A) (A) (A) (A) (A) (A) (A) (A) (A) (A) (A) (A)
                 (A) (A) (A) (A) (A) (A) (A) (A) (A) (A) (A) (A)
                 (A) (A) (A) (A) (A) (A) (A) (A) (A) (A) (A) (A)
                 (A) (A) (A) (A) (A) (A) (A) (A) (A) (A) (A) (A)
                 (A) (A) (A) (A) (A) (A) (A) (A) (A) (A) (A) (A)
                 (A) (A) (A) (A) (A) (A) (A) (A) (A) (A) (A) (A)
                 (A) (A) (A) (A) (A) (A) (A) (A) (A) (A) (A) (A)
                 (A) (A) (A) (A) (A) (A) (A) (A) (A) (A) (A) (A)
                 (A) (A) (A) (A) (A) (A) (A) (A) (A) (A) (A) (A)
                 (A) (A) (A) (A) (A) (A) (A) (A) (A) (A) (A) (A)
                 (A) (A) (A) (A) (A) (A) (A) (A) (A) (A) (A) (A)
                 (A) (A) (A) (A) (A) (A) (A) (A) (A) (A) (A) (A)
                 (A) (A) (A) (A) (A) (A) (A) (A) (A) (A) (A) (A)
                 (A) (A) (A) (A) (A) (A) (A) (A) (A) (A) (A) (A)
                 (A) (A) (A) (A) (A) (A) (A) (A) (A) (A) (A) (A)
                 (A) (A) (A) (A) (A) (A) (A) (A) (A) (A) (A) (A)
                 (A) (A) (A) (A) (A) (A) (A) (A) (A) (A) (A) (A)
                 (A) (A) (A) (A) (A) (A) (A) (A) (A) (A) (A) (A)
                 (A) (A) (A) (A) (A) (A) (A) (A) (A) (A) (A) (A)
                 (A) (A) (A) (A) (A) (A) (A) (A) (A) (A) (A) (A)
                 (A) (A) (A) (A) (A) (A) (A) (A) (A) (A) (A) (A)
                 (A) (A) (A) (A) (A) (A) (A) (A) (A) (A) (A) (A)
                 (A) (A) (A) (A) (A) (A) (A) (A) (A) (A) (A) (A)
                 (A) (A) (A) (A) (A) (A) (A) (A) (A) (A) (A) (A)
                 (A) (A) (A) (A) (A) (A) (A) (A) (A) (A) (A) (A)
                 (A) (A) (A) (A) (A) (A) (A) (A) (A) (A) (A) (A)
                 (A) (A) (A) (A) (A) (A) (A) (A) (A) (A) (A) (A)
                 (A) (A) (A) (A) (A) (A) (A) (A) (A) (A) (A) (A)
                 (A) (A) (A) (A) (A) (A) (A) (A) (A) (A) (A) (A)
                 (A) (A) (A) (A) (A) (A) (A) (A) (A) (A) (A) (A)
                 (A) (A) (A) (A) (A) (A) (A) (A) (A) (A) (A) (A)
                 (A) (A) (A) (A) (A) (A) (A) (A) (A) (A) (A) (A)
                 (A) (A) (A) (A) (A) (A) (A) (A) (A) (A) (A) (A)
                 (A) (A) (A) (A) (A) (A) (A) (A) (A) (A) (A) (A)
                 (A) (A) (A) (A) (A) (A) (A) (A) (A) (A) (A) (A)
                 (A) (A) (A) (A) (A) (A) (A) (A) (A) (A) (A) (A)
                 (A) (A) (A) (A) (A) (A) (A) (A) (A) (A) (A) (A)
                 (A) (A) (A) (A) (A) (A) (A) (A) (A) (A) (A) (A)
                 (A) (A) (A) (A) (A) (A) (A) (A) (A) (A) (A) (A)
                 (A) (A) (A) (A) (A) (A) (A) (A) (A) (A) (A) (A)
                 (A) (A) (A) (A) (A) (A) (A) (A) (A) (A) (A) (A)
                 (A) (A) (A) (A) (A) (A) (A) (A) (A) (A) (A) (A)
                 (A) (A) (A) (A) (A) (A) (A) (A) (A) (A) (A) (A)
                 (A) (A) (A) (A) (A) (A) (A) (A) (A) (A) (A) (A)
                 (A) (A) (A) (A) (A) (A) (A) (A) (A) (A) (A) (A)
                 (A) (A) (A) (A) (A) (A) (A) (A) (A) (A) (A) (A)
                 (A) (A) (A) (A) (A) (A) (A) (A) (A) (A) (A) (A)
                 (A) (A) (A) (A) (A) (A) (A) (A) (A) (A) (A) (A)
                 (A) (A) (A) (A) (A) (A) (A) (A) (A) (A) (A) (A)
                 (A)
 The electronic state is 1-A.
 Alpha  occ. eigenvalues --  -25.21030 -25.20781 -19.68100 -19.68097 -19.67575
 Alpha  occ. eigenvalues --  -19.67564 -15.01574 -15.01090 -14.79108 -14.79026
 Alpha  occ. eigenvalues --  -10.62241 -10.61585 -10.61285 -10.60948 -10.60627
 Alpha  occ. eigenvalues --  -10.59768 -10.59578 -10.59510 -10.58683 -10.58322
 Alpha  occ. eigenvalues --  -10.58319 -10.57777 -10.57776 -10.57766 -10.57656
 Alpha  occ. eigenvalues --  -10.57653 -10.57327 -10.57173 -10.57144 -10.57019
 Alpha  occ. eigenvalues --  -10.57015 -10.56942 -10.56679 -10.56244 -10.55582
 Alpha  occ. eigenvalues --  -10.55552 -10.55420 -10.55266 -10.55206 -10.54906
 Alpha  occ. eigenvalues --  -10.54701 -10.54402 -10.54255  -7.13701  -1.37104
 Alpha  occ. eigenvalues --   -1.36381  -1.32867  -1.29611  -1.18620  -1.17863
 Alpha  occ. eigenvalues --   -1.11270  -1.09348  -1.01315  -1.00565  -0.97609
 Alpha  occ. eigenvalues --   -0.95938  -0.94364  -0.92432  -0.91615  -0.90976
 Alpha  occ. eigenvalues --   -0.90548  -0.88871  -0.88027  -0.87497  -0.85782
 Alpha  occ. eigenvalues --   -0.85230  -0.83469  -0.81497  -0.80709  -0.80379
 Alpha  occ. eigenvalues --   -0.78843  -0.75253  -0.72927  -0.72900  -0.72216
 Alpha  occ. eigenvalues --   -0.70786  -0.70441  -0.69879  -0.68659  -0.67561
 Alpha  occ. eigenvalues --   -0.66661  -0.66305  -0.65824  -0.65238  -0.64583
 Alpha  occ. eigenvalues --   -0.63561  -0.63274  -0.63030  -0.62118  -0.61988
 Alpha  occ. eigenvalues --   -0.61137  -0.60960  -0.59783  -0.58989  -0.58652
 Alpha  occ. eigenvalues --   -0.57894  -0.56207  -0.55972  -0.55027  -0.54789
 Alpha  occ. eigenvalues --   -0.54304  -0.53933  -0.53589  -0.53174  -0.52610
 Alpha  occ. eigenvalues --   -0.52558  -0.52121  -0.51980  -0.51736  -0.51490
 Alpha  occ. eigenvalues --   -0.50510  -0.49829  -0.49529  -0.49384  -0.48944
 Alpha  occ. eigenvalues --   -0.48536  -0.48305  -0.48023  -0.47672  -0.47322
 Alpha  occ. eigenvalues --   -0.47176  -0.47100  -0.46867  -0.46295  -0.45967
 Alpha  occ. eigenvalues --   -0.45217  -0.44576  -0.44195  -0.44073  -0.43579
 Alpha  occ. eigenvalues --   -0.42977  -0.42282  -0.41602  -0.41259  -0.41037
 Alpha  occ. eigenvalues --   -0.40938  -0.40766  -0.40371  -0.39887  -0.39879
 Alpha  occ. eigenvalues --   -0.39442  -0.39356  -0.39130  -0.36001  -0.34258
 Alpha  occ. eigenvalues --   -0.34199  -0.33835  -0.32691  -0.32279  -0.32009
 Alpha  occ. eigenvalues --   -0.31677  -0.29221  -0.24150
 Alpha virt. eigenvalues --   -0.10631  -0.07636  -0.07402  -0.03266  -0.01441
 Alpha virt. eigenvalues --   -0.01054  -0.00019   0.01124   0.01883   0.04642
 Alpha virt. eigenvalues --    0.05250   0.05486   0.06601   0.06798   0.07985
 Alpha virt. eigenvalues --    0.08367   0.08512   0.09081   0.09281   0.09412
 Alpha virt. eigenvalues --    0.09649   0.09783   0.10307   0.11490   0.11580
 Alpha virt. eigenvalues --    0.11839   0.12128   0.12679   0.12712   0.12795
 Alpha virt. eigenvalues --    0.13243   0.13445   0.13547   0.13983   0.14295
 Alpha virt. eigenvalues --    0.14679   0.15292   0.15450   0.15582   0.15681
 Alpha virt. eigenvalues --    0.16145   0.16255   0.16908   0.17328   0.17570
 Alpha virt. eigenvalues --    0.17593   0.17757   0.17802   0.18052   0.18338
 Alpha virt. eigenvalues --    0.18850   0.19498   0.19646   0.20194   0.20523
 Alpha virt. eigenvalues --    0.20892   0.21170   0.21281   0.21577   0.21631
 Alpha virt. eigenvalues --    0.22135   0.22258   0.22362   0.22696   0.22958
 Alpha virt. eigenvalues --    0.23071   0.23443   0.23561   0.23772   0.24147
 Alpha virt. eigenvalues --    0.24193   0.24402   0.25110   0.25279   0.25674
 Alpha virt. eigenvalues --    0.25798   0.26226   0.26537   0.26581   0.26835
 Alpha virt. eigenvalues --    0.26864   0.27093   0.27131   0.27449   0.27806
 Alpha virt. eigenvalues --    0.27901   0.28168   0.28417   0.28836   0.29187
 Alpha virt. eigenvalues --    0.29368   0.29571   0.29842   0.29893   0.30432
 Alpha virt. eigenvalues --    0.30564   0.30934   0.31140   0.31395   0.31680
 Alpha virt. eigenvalues --    0.31789   0.32199   0.32728   0.33016   0.33130
 Alpha virt. eigenvalues --    0.33304   0.33678   0.34040   0.34309   0.34388
 Alpha virt. eigenvalues --    0.34586   0.34837   0.35051   0.35149   0.35432
 Alpha virt. eigenvalues --    0.35561   0.35699   0.35967   0.36218   0.36338
 Alpha virt. eigenvalues --    0.36662   0.36925   0.37081   0.37190   0.37447
 Alpha virt. eigenvalues --    0.38204   0.38271   0.38596   0.38637   0.38943
 Alpha virt. eigenvalues --    0.39239   0.39460   0.39665   0.39877   0.40054
 Alpha virt. eigenvalues --    0.40252   0.40520   0.40856   0.40960   0.41367
 Alpha virt. eigenvalues --    0.41396   0.41699   0.41783   0.42056   0.42110
 Alpha virt. eigenvalues --    0.42440   0.42487   0.42823   0.43002   0.43320
 Alpha virt. eigenvalues --    0.43575   0.43893   0.44057   0.44250   0.44409
 Alpha virt. eigenvalues --    0.44584   0.45173   0.45233   0.45688   0.45770
 Alpha virt. eigenvalues --    0.46074   0.47047   0.47139   0.47265   0.47407
 Alpha virt. eigenvalues --    0.47437   0.47562   0.47715   0.48336   0.48658
 Alpha virt. eigenvalues --    0.48970   0.49146   0.49302   0.49480   0.49885
 Alpha virt. eigenvalues --    0.50035   0.50408   0.50761   0.50836   0.51085
 Alpha virt. eigenvalues --    0.51338   0.51379   0.51778   0.51922   0.52069
 Alpha virt. eigenvalues --    0.52268   0.52537   0.52550   0.52758   0.52899
 Alpha virt. eigenvalues --    0.53057   0.53459   0.53630   0.53891   0.54269
 Alpha virt. eigenvalues --    0.54473   0.54919   0.55083   0.55798   0.55866
 Alpha virt. eigenvalues --    0.56322   0.56530   0.56692   0.56895   0.56979
 Alpha virt. eigenvalues --    0.57415   0.57795   0.58194   0.58487   0.58827
 Alpha virt. eigenvalues --    0.58961   0.59127   0.59821   0.60304   0.61046
 Alpha virt. eigenvalues --    0.61087   0.61502   0.61949   0.62205   0.62331
 Alpha virt. eigenvalues --    0.62546   0.63045   0.63188   0.63577   0.63710
 Alpha virt. eigenvalues --    0.63961   0.64188   0.64530   0.64763   0.65398
 Alpha virt. eigenvalues --    0.65593   0.65779   0.65869   0.66228   0.66498
 Alpha virt. eigenvalues --    0.66881   0.67036   0.67173   0.67438   0.67727
 Alpha virt. eigenvalues --    0.67833   0.68102   0.68267   0.68671   0.69001
 Alpha virt. eigenvalues --    0.69114   0.69222   0.69496   0.69689   0.69857
 Alpha virt. eigenvalues --    0.70185   0.70239   0.70405   0.70646   0.71156
 Alpha virt. eigenvalues --    0.71462   0.71773   0.71913   0.72249   0.72575
 Alpha virt. eigenvalues --    0.72651   0.72927   0.73217   0.73570   0.74112
 Alpha virt. eigenvalues --    0.74314   0.74427   0.74711   0.75008   0.75116
 Alpha virt. eigenvalues --    0.75433   0.75890   0.76178   0.76489   0.76523
 Alpha virt. eigenvalues --    0.76854   0.77171   0.77373   0.77509   0.77929
 Alpha virt. eigenvalues --    0.78301   0.78461   0.79050   0.79102   0.79272
 Alpha virt. eigenvalues --    0.79698   0.80420   0.80472   0.80794   0.81204
 Alpha virt. eigenvalues --    0.81702   0.82110   0.82521   0.82642   0.83067
 Alpha virt. eigenvalues --    0.83329   0.84037   0.84118   0.84854   0.85384
 Alpha virt. eigenvalues --    0.85665   0.85862   0.86086   0.86266   0.86699
 Alpha virt. eigenvalues --    0.87103   0.87489   0.87932   0.88109   0.88469
 Alpha virt. eigenvalues --    0.89062   0.89210   0.89646   0.90462   0.90630
 Alpha virt. eigenvalues --    0.90730   0.90898   0.91244   0.91842   0.92121
 Alpha virt. eigenvalues --    0.92518   0.92627   0.93594   0.93689   0.94275
 Alpha virt. eigenvalues --    0.94956   0.95095   0.95415   0.95592   0.95913
 Alpha virt. eigenvalues --    0.96264   0.96787   0.96986   0.97185   0.97449
 Alpha virt. eigenvalues --    0.97593   0.97987   0.98489   0.98956   0.99381
 Alpha virt. eigenvalues --    0.99519   0.99578   0.99769   1.00070   1.00367
 Alpha virt. eigenvalues --    1.00472   1.00696   1.00877   1.01187   1.01312
 Alpha virt. eigenvalues --    1.01912   1.02134   1.02327   1.02629   1.03147
 Alpha virt. eigenvalues --    1.03413   1.04150   1.04421   1.04562   1.04656
 Alpha virt. eigenvalues --    1.04864   1.05163   1.05324   1.05622   1.06389
 Alpha virt. eigenvalues --    1.06699   1.07217   1.07445   1.08042   1.08346
 Alpha virt. eigenvalues --    1.08635   1.09245   1.09374   1.09591   1.10280
 Alpha virt. eigenvalues --    1.10516   1.11011   1.11330   1.11644   1.11732
 Alpha virt. eigenvalues --    1.11991   1.12238   1.12396   1.12645   1.13344
 Alpha virt. eigenvalues --    1.13632   1.13809   1.14084   1.14691   1.15255
 Alpha virt. eigenvalues --    1.15843   1.16273   1.16528   1.16643   1.17363
 Alpha virt. eigenvalues --    1.17653   1.17803   1.18036   1.18377   1.18895
 Alpha virt. eigenvalues --    1.19413   1.19747   1.19809   1.20587   1.20861
 Alpha virt. eigenvalues --    1.21335   1.21566   1.21621   1.21839   1.22311
 Alpha virt. eigenvalues --    1.22905   1.23358   1.23657   1.23994   1.24262
 Alpha virt. eigenvalues --    1.24547   1.25140   1.25266   1.25371   1.25923
 Alpha virt. eigenvalues --    1.26240   1.26720   1.26854   1.27152   1.27515
 Alpha virt. eigenvalues --    1.27696   1.28212   1.28412   1.28989   1.29471
 Alpha virt. eigenvalues --    1.29557   1.30080   1.30363   1.30596   1.31161
 Alpha virt. eigenvalues --    1.31496   1.31712   1.31944   1.32468   1.33021
 Alpha virt. eigenvalues --    1.33101   1.33451   1.33985   1.34329   1.34545
 Alpha virt. eigenvalues --    1.35220   1.35493   1.35709   1.35898   1.36253
 Alpha virt. eigenvalues --    1.36299   1.36324   1.36685   1.37452   1.37659
 Alpha virt. eigenvalues --    1.38102   1.38538   1.38775   1.39117   1.39356
 Alpha virt. eigenvalues --    1.39675   1.40109   1.40552   1.42137   1.42313
 Alpha virt. eigenvalues --    1.43206   1.43385   1.43938   1.43977   1.44114
 Alpha virt. eigenvalues --    1.44372   1.44719   1.44808   1.45347   1.45503
 Alpha virt. eigenvalues --    1.45674   1.46091   1.46273   1.46635   1.47133
 Alpha virt. eigenvalues --    1.47394   1.47891   1.48257   1.48775   1.49268
 Alpha virt. eigenvalues --    1.49589   1.49880   1.50135   1.50598   1.50740
 Alpha virt. eigenvalues --    1.51092   1.51321   1.51888   1.52068   1.52373
 Alpha virt. eigenvalues --    1.52829   1.52893   1.53195   1.53287   1.54217
 Alpha virt. eigenvalues --    1.54346   1.54705   1.54798   1.55490   1.55778
 Alpha virt. eigenvalues --    1.55959   1.56257   1.56522   1.56912   1.57023
 Alpha virt. eigenvalues --    1.57234   1.57570   1.57718   1.58058   1.58499
 Alpha virt. eigenvalues --    1.58904   1.59073   1.59731   1.59777   1.60424
 Alpha virt. eigenvalues --    1.60858   1.61376   1.61576   1.62161   1.62540
 Alpha virt. eigenvalues --    1.62696   1.62806   1.62909   1.63443   1.63871
 Alpha virt. eigenvalues --    1.64477   1.65008   1.65241   1.65439   1.65650
 Alpha virt. eigenvalues --    1.66081   1.66147   1.66633   1.66913   1.67060
 Alpha virt. eigenvalues --    1.68055   1.68358   1.68455   1.68686   1.68976
 Alpha virt. eigenvalues --    1.69321   1.70062   1.70575   1.71226   1.71270
 Alpha virt. eigenvalues --    1.71539   1.71963   1.72158   1.72483   1.73118
 Alpha virt. eigenvalues --    1.73638   1.74340   1.74375   1.75141   1.75364
 Alpha virt. eigenvalues --    1.75530   1.76195   1.76664   1.77365   1.77595
 Alpha virt. eigenvalues --    1.78468   1.78697   1.78930   1.79481   1.79776
 Alpha virt. eigenvalues --    1.80056   1.80487   1.81031   1.81199   1.81322
 Alpha virt. eigenvalues --    1.82197   1.82560   1.83393   1.83825   1.84026
 Alpha virt. eigenvalues --    1.84257   1.84793   1.85447   1.85710   1.86194
 Alpha virt. eigenvalues --    1.86777   1.87232   1.87545   1.87814   1.88489
 Alpha virt. eigenvalues --    1.88624   1.89644   1.90185   1.90254   1.90529
 Alpha virt. eigenvalues --    1.91948   1.92143   1.92854   1.93472   1.94195
 Alpha virt. eigenvalues --    1.95601   1.95963   1.96267   1.96667   1.96948
 Alpha virt. eigenvalues --    1.97330   1.97974   1.98746   1.98853   1.99146
 Alpha virt. eigenvalues --    1.99507   2.00148   2.00288   2.00701   2.01177
 Alpha virt. eigenvalues --    2.01299   2.01797   2.01933   2.02737   2.03021
 Alpha virt. eigenvalues --    2.03681   2.04164   2.04858   2.05265   2.05486
 Alpha virt. eigenvalues --    2.05732   2.06292   2.06754   2.07464   2.07722
 Alpha virt. eigenvalues --    2.08185   2.08589   2.08831   2.09579   2.09934
 Alpha virt. eigenvalues --    2.10119   2.10416   2.10616   2.11294   2.11624
 Alpha virt. eigenvalues --    2.12338   2.12801   2.13544   2.14075   2.14487
 Alpha virt. eigenvalues --    2.15360   2.15799   2.16704   2.17073   2.17180
 Alpha virt. eigenvalues --    2.17896   2.18626   2.19359   2.19499   2.21081
 Alpha virt. eigenvalues --    2.21933   2.22369   2.22696   2.23030   2.23570
 Alpha virt. eigenvalues --    2.24259   2.24939   2.25778   2.26206   2.26394
 Alpha virt. eigenvalues --    2.26633   2.27296   2.28058   2.28098   2.28910
 Alpha virt. eigenvalues --    2.30046   2.30288   2.30391   2.30936   2.31297
 Alpha virt. eigenvalues --    2.32667   2.32873   2.33784   2.34316   2.34432
 Alpha virt. eigenvalues --    2.34754   2.34903   2.35800   2.36025   2.36514
 Alpha virt. eigenvalues --    2.37060   2.37430   2.37695   2.37838   2.38125
 Alpha virt. eigenvalues --    2.38546   2.38904   2.39366   2.39597   2.39738
 Alpha virt. eigenvalues --    2.40332   2.42625   2.43415   2.43862   2.45136
 Alpha virt. eigenvalues --    2.45674   2.46194   2.46917   2.47236   2.47967
 Alpha virt. eigenvalues --    2.49062   2.49262   2.49953   2.50954   2.52610
 Alpha virt. eigenvalues --    2.53501   2.53734   2.53980   2.54793   2.55146
 Alpha virt. eigenvalues --    2.55576   2.56161   2.57338   2.58176   2.58643
 Alpha virt. eigenvalues --    2.58961   2.59512   2.60167   2.60987   2.61910
 Alpha virt. eigenvalues --    2.62226   2.62610   2.63032   2.63469   2.64094
 Alpha virt. eigenvalues --    2.64296   2.64716   2.65346   2.65610   2.66074
 Alpha virt. eigenvalues --    2.66389   2.66802   2.66855   2.67343   2.68189
 Alpha virt. eigenvalues --    2.68530   2.69096   2.69713   2.69728   2.70294
 Alpha virt. eigenvalues --    2.71257   2.72077   2.72406   2.72803   2.73079
 Alpha virt. eigenvalues --    2.73448   2.73767   2.73867   2.74202   2.74346
 Alpha virt. eigenvalues --    2.74730   2.74916   2.75211   2.75732   2.76029
 Alpha virt. eigenvalues --    2.76296   2.76540   2.76598   2.76997   2.77057
 Alpha virt. eigenvalues --    2.77475   2.77825   2.78110   2.78215   2.78500
 Alpha virt. eigenvalues --    2.78697   2.79143   2.79501   2.79929   2.80143
 Alpha virt. eigenvalues --    2.80343   2.80801   2.81383   2.81503   2.81713
 Alpha virt. eigenvalues --    2.81867   2.82200   2.82588   2.83018   2.83232
 Alpha virt. eigenvalues --    2.84011   2.84350   2.84922   2.85489   2.85655
 Alpha virt. eigenvalues --    2.85801   2.86315   2.86766   2.87068   2.87317
 Alpha virt. eigenvalues --    2.87456   2.88073   2.88557   2.88689   2.88919
 Alpha virt. eigenvalues --    2.89443   2.90242   2.90352   2.90463   2.90629
 Alpha virt. eigenvalues --    2.90653   2.91158   2.91490   2.91676   2.91794
 Alpha virt. eigenvalues --    2.91964   2.92169   2.92444   2.92602   2.93026
 Alpha virt. eigenvalues --    2.93568   2.93986   2.94490   2.94760   2.95079
 Alpha virt. eigenvalues --    2.95244   2.95479   2.96168   2.96660   2.97031
 Alpha virt. eigenvalues --    2.97239   2.97882   2.97965   2.98328   2.98711
 Alpha virt. eigenvalues --    2.99284   2.99459   2.99999   3.00189   3.00514
 Alpha virt. eigenvalues --    3.00754   3.00976   3.01290   3.01542   3.01798
 Alpha virt. eigenvalues --    3.02031   3.02244   3.02330   3.02536   3.02799
 Alpha virt. eigenvalues --    3.03235   3.03360   3.03606   3.03883   3.03938
 Alpha virt. eigenvalues --    3.04424   3.04609   3.04994   3.05258   3.05378
 Alpha virt. eigenvalues --    3.05826   3.06392   3.06971   3.07080   3.07546
 Alpha virt. eigenvalues --    3.07939   3.07960   3.08065   3.08308   3.08730
 Alpha virt. eigenvalues --    3.09024   3.09234   3.09445   3.09614   3.09696
 Alpha virt. eigenvalues --    3.09854   3.10181   3.10457   3.10911   3.11477
 Alpha virt. eigenvalues --    3.11855   3.12074   3.12424   3.12794   3.13015
 Alpha virt. eigenvalues --    3.13102   3.13444   3.13732   3.14126   3.14537
 Alpha virt. eigenvalues --    3.14639   3.15014   3.15200   3.15624   3.15649
 Alpha virt. eigenvalues --    3.15973   3.16349   3.16977   3.17551   3.17659
 Alpha virt. eigenvalues --    3.17671   3.17830   3.18320   3.19371   3.19429
 Alpha virt. eigenvalues --    3.19846   3.20082   3.20294   3.20793   3.21045
 Alpha virt. eigenvalues --    3.21248   3.21338   3.21941   3.22100   3.22396
 Alpha virt. eigenvalues --    3.22715   3.22747   3.23033   3.23603   3.23762
 Alpha virt. eigenvalues --    3.23905   3.24358   3.24829   3.25249   3.25599
 Alpha virt. eigenvalues --    3.25683   3.26150   3.26319   3.26729   3.27170
 Alpha virt. eigenvalues --    3.27510   3.27716   3.28299   3.28499   3.29091
 Alpha virt. eigenvalues --    3.29247   3.29931   3.30024   3.30074   3.30659
 Alpha virt. eigenvalues --    3.30706   3.30957   3.31134   3.31317   3.31950
 Alpha virt. eigenvalues --    3.32124   3.32242   3.32438   3.32852   3.32974
 Alpha virt. eigenvalues --    3.33249   3.33581   3.33965   3.34135   3.34971
 Alpha virt. eigenvalues --    3.35211   3.35290   3.35515   3.36186   3.36233
 Alpha virt. eigenvalues --    3.36797   3.37054   3.37323   3.37486   3.38162
 Alpha virt. eigenvalues --    3.38227   3.38646   3.38694   3.39049   3.40038
 Alpha virt. eigenvalues --    3.40355   3.40627   3.41138   3.41604   3.41687
 Alpha virt. eigenvalues --    3.42211   3.42461   3.42779   3.43409   3.43613
 Alpha virt. eigenvalues --    3.44127   3.44658   3.45498   3.46180   3.46713
 Alpha virt. eigenvalues --    3.47215   3.47296   3.47622   3.47888   3.48202
 Alpha virt. eigenvalues --    3.48379   3.48741   3.49118   3.49222   3.49858
 Alpha virt. eigenvalues --    3.50123   3.50299   3.50591   3.50964   3.51206
 Alpha virt. eigenvalues --    3.51583   3.51893   3.52099   3.52209   3.52704
 Alpha virt. eigenvalues --    3.52880   3.53321   3.53507   3.53949   3.54037
 Alpha virt. eigenvalues --    3.54678   3.54922   3.56017   3.56175   3.56467
 Alpha virt. eigenvalues --    3.56998   3.57570   3.57945   3.58065   3.58552
 Alpha virt. eigenvalues --    3.58914   3.59692   3.59738   3.60182   3.60425
 Alpha virt. eigenvalues --    3.61027   3.61476   3.61924   3.62122   3.62307
 Alpha virt. eigenvalues --    3.62792   3.62924   3.63302   3.64434   3.64732
 Alpha virt. eigenvalues --    3.65082   3.65552   3.65900   3.66412   3.66875
 Alpha virt. eigenvalues --    3.67666   3.67832   3.67967   3.68471   3.69675
 Alpha virt. eigenvalues --    3.70168   3.70297   3.70446   3.70645   3.71099
 Alpha virt. eigenvalues --    3.71600   3.71705   3.72014   3.72305   3.72398
 Alpha virt. eigenvalues --    3.72508   3.73044   3.73277   3.73686   3.74004
 Alpha virt. eigenvalues --    3.74148   3.74645   3.75124   3.75161   3.76172
 Alpha virt. eigenvalues --    3.76541   3.76859   3.77460   3.77949   3.78143
 Alpha virt. eigenvalues --    3.78685   3.78966   3.79461   3.79573   3.80247
 Alpha virt. eigenvalues --    3.80384   3.80871   3.81196   3.81461   3.81735
 Alpha virt. eigenvalues --    3.82094   3.83222   3.83665   3.84038   3.84205
 Alpha virt. eigenvalues --    3.84815   3.84993   3.85352   3.85535   3.85803
 Alpha virt. eigenvalues --    3.86158   3.86366   3.87071   3.87882   3.88229
 Alpha virt. eigenvalues --    3.88566   3.88657   3.89131   3.89419   3.89907
 Alpha virt. eigenvalues --    3.90116   3.90394   3.90774   3.91193   3.91622
 Alpha virt. eigenvalues --    3.91914   3.92149   3.92258   3.93102   3.93289
 Alpha virt. eigenvalues --    3.93486   3.94323   3.94616   3.94829   3.95072
 Alpha virt. eigenvalues --    3.95988   3.96136   3.96982   3.97373   3.97692
 Alpha virt. eigenvalues --    3.97844   3.98670   3.99092   3.99457   3.99860
 Alpha virt. eigenvalues --    4.00277   4.00901   4.01038   4.01365   4.01532
 Alpha virt. eigenvalues --    4.02207   4.02288   4.02415   4.02693   4.03240
 Alpha virt. eigenvalues --    4.03250   4.03788   4.03952   4.04670   4.05031
 Alpha virt. eigenvalues --    4.05365   4.05765   4.05822   4.06231   4.06559
 Alpha virt. eigenvalues --    4.07010   4.07306   4.07907   4.08064   4.08447
 Alpha virt. eigenvalues --    4.08750   4.09258   4.09478   4.10005   4.10296
 Alpha virt. eigenvalues --    4.10810   4.11064   4.11786   4.11948   4.12051
 Alpha virt. eigenvalues --    4.13467   4.13597   4.13944   4.14314   4.14719
 Alpha virt. eigenvalues --    4.15078   4.15441   4.15917   4.16299   4.16570
 Alpha virt. eigenvalues --    4.16853   4.17086   4.17832   4.18385   4.19037
 Alpha virt. eigenvalues --    4.19115   4.19422   4.19759   4.19986   4.20289
 Alpha virt. eigenvalues --    4.20394   4.20719   4.21153   4.21218   4.21701
 Alpha virt. eigenvalues --    4.21872   4.22747   4.23036   4.23237   4.23458
 Alpha virt. eigenvalues --    4.23707   4.24065   4.24222   4.24674   4.25142
 Alpha virt. eigenvalues --    4.25310   4.25532   4.25905   4.26488   4.27009
 Alpha virt. eigenvalues --    4.27189   4.27638   4.28048   4.28269   4.28488
 Alpha virt. eigenvalues --    4.28937   4.29766   4.29967   4.30230   4.30431
 Alpha virt. eigenvalues --    4.31385   4.31824   4.32155   4.32393   4.32803
 Alpha virt. eigenvalues --    4.33768   4.34243   4.34845   4.36271   4.36979
 Alpha virt. eigenvalues --    4.37680   4.38081   4.38465   4.38838   4.40999
 Alpha virt. eigenvalues --    4.41780   4.41853   4.42124   4.42440   4.42628
 Alpha virt. eigenvalues --    4.43321   4.44873   4.46140   4.46267   4.47435
 Alpha virt. eigenvalues --    4.48758   4.48933   4.49230   4.49719   4.50083
 Alpha virt. eigenvalues --    4.50414   4.51150   4.51795   4.52004   4.52467
 Alpha virt. eigenvalues --    4.52590   4.52987   4.53984   4.54745   4.56547
 Alpha virt. eigenvalues --    4.57429   4.57793   4.58381   4.58972   4.59449
 Alpha virt. eigenvalues --    4.60165   4.60270   4.60759   4.61616   4.62245
 Alpha virt. eigenvalues --    4.62560   4.63158   4.63619   4.63656   4.64092
 Alpha virt. eigenvalues --    4.64133   4.64768   4.65561   4.65897   4.66584
 Alpha virt. eigenvalues --    4.67447   4.67650   4.67987   4.68506   4.69189
 Alpha virt. eigenvalues --    4.69486   4.69952   4.70033   4.70359   4.71180
 Alpha virt. eigenvalues --    4.71282   4.72092   4.72360   4.72828   4.73403
 Alpha virt. eigenvalues --    4.73681   4.73778   4.74831   4.75173   4.76090
 Alpha virt. eigenvalues --    4.76428   4.77311   4.78529   4.79014   4.79463
 Alpha virt. eigenvalues --    4.79627   4.81165   4.81902   4.82118   4.82520
 Alpha virt. eigenvalues --    4.83860   4.84276   4.85266   4.85500   4.85721
 Alpha virt. eigenvalues --    4.86845   4.87031   4.88129   4.89793   4.90928
 Alpha virt. eigenvalues --    4.91044   4.91465   4.91821   4.92418   4.92821
 Alpha virt. eigenvalues --    4.93053   4.93256   4.93730   4.94146   4.94238
 Alpha virt. eigenvalues --    4.94619   4.95451   4.96044   4.96164   4.97346
 Alpha virt. eigenvalues --    4.97993   4.98231   4.99058   4.99544   5.01220
 Alpha virt. eigenvalues --    5.01913   5.03000   5.03652   5.04113   5.04301
 Alpha virt. eigenvalues --    5.04935   5.05826   5.06304   5.06707   5.07819
 Alpha virt. eigenvalues --    5.08313   5.08403   5.09125   5.09354   5.09627
 Alpha virt. eigenvalues --    5.10411   5.10528   5.10988   5.11507   5.11906
 Alpha virt. eigenvalues --    5.12124   5.12818   5.13014   5.13607   5.13947
 Alpha virt. eigenvalues --    5.14488   5.14606   5.14785   5.15621   5.16195
 Alpha virt. eigenvalues --    5.16753   5.18202   5.18932   5.19233   5.20403
 Alpha virt. eigenvalues --    5.21180   5.21356   5.21853   5.23317   5.23507
 Alpha virt. eigenvalues --    5.24749   5.24847   5.24887   5.25871   5.27802
 Alpha virt. eigenvalues --    5.28091   5.28334   5.28696   5.28852   5.29109
 Alpha virt. eigenvalues --    5.29364   5.29982   5.30120   5.30888   5.31515
 Alpha virt. eigenvalues --    5.31593   5.31647   5.32196   5.33292   5.34196
 Alpha virt. eigenvalues --    5.35118   5.36419   5.37026   5.37481   5.37884
 Alpha virt. eigenvalues --    5.38339   5.38857   5.39664   5.40105   5.40418
 Alpha virt. eigenvalues --    5.40625   5.40957   5.42783   5.43464   5.43543
 Alpha virt. eigenvalues --    5.44072   5.44662   5.45826   5.49606   5.50773
 Alpha virt. eigenvalues --    5.51250   5.52499   5.52730   5.53031   5.53700
 Alpha virt. eigenvalues --    5.55894   5.56676   5.57184   5.57913   5.58064
 Alpha virt. eigenvalues --    5.58147   5.58885   5.59249   5.60232   5.60273
 Alpha virt. eigenvalues --    5.60530   5.61540   5.63341   5.63707   5.64052
 Alpha virt. eigenvalues --    5.64409   5.65286   5.65659   5.67203   5.67742
 Alpha virt. eigenvalues --    5.69861   5.70794   5.72936   5.73077   5.75111
 Alpha virt. eigenvalues --    5.75613   5.76213   5.78956   5.79230   5.83736
 Alpha virt. eigenvalues --    5.84568   5.87680   5.88164   5.89545   5.90261
 Alpha virt. eigenvalues --    5.91528   5.91668   5.94275   5.96378   5.97061
 Alpha virt. eigenvalues --    6.00441   6.02236   6.03790   6.09348   6.10747
 Alpha virt. eigenvalues --    6.14347   6.15357   6.17456   6.22231   6.22349
 Alpha virt. eigenvalues --    6.24787   6.25275   6.28042   6.28070   6.35108
 Alpha virt. eigenvalues --    6.35193   6.36192   6.38410   6.38987   6.40818
 Alpha virt. eigenvalues --    6.41161   6.43131   6.43964   6.53659   6.65304
 Alpha virt. eigenvalues --    6.75440   6.77530   6.80741   6.80746   6.83017
 Alpha virt. eigenvalues --    6.83090   6.87095   6.87410   6.94010   6.94359
 Alpha virt. eigenvalues --    6.97021   6.98614   6.98850   6.99764   7.04749
 Alpha virt. eigenvalues --    7.08403   7.08562   7.10544   7.16766   7.20261
 Alpha virt. eigenvalues --    7.20704   7.22888   7.23572   7.27271   7.32012
 Alpha virt. eigenvalues --    7.33007   7.33905   7.34357   7.45321   7.46325
 Alpha virt. eigenvalues --    7.50815   7.52904   8.45999   8.46698   8.55713
 Alpha virt. eigenvalues --    8.57692   8.82470   8.85751   8.90779   8.91384
 Alpha virt. eigenvalues --    8.92046   8.99464  15.85690  22.87049  22.90477
 Alpha virt. eigenvalues --   22.97536  22.98632  23.03789  23.12352  23.13344
 Alpha virt. eigenvalues --   23.14613  23.18560  23.19345  23.21772  23.23162
 Alpha virt. eigenvalues --   23.25390  23.28406  23.28936  23.29688  23.29751
 Alpha virt. eigenvalues --   23.33455  23.34306  23.34652  23.35929  23.38855
 Alpha virt. eigenvalues --   23.47248  23.53873  23.55586  23.61292  23.73210
 Alpha virt. eigenvalues --   23.78191  23.86926  23.88902  24.09670  24.14274
 Alpha virt. eigenvalues --   24.19178  32.57559  32.59588  33.13286  33.29034
 Alpha virt. eigenvalues --   44.20369  44.20410  44.25063  44.25674  57.34981
 Alpha virt. eigenvalues --   57.54106
          Condensed to atoms (all electrons):
 Mulliken charges:
               1
     1  C   -0.433956
     2  C   -0.019906
     3  C   -0.085824
     4  C    0.005235
     5  C   -0.096086
     6  C   -0.064725
     7  C    0.029594
     8  C   -0.133909
     9  C   -0.097690
    10  C   -0.026505
    11  N    0.488182
    12  O   -0.377535
    13  O   -0.376829
    14  C   -0.100027
    15  C   -0.160277
    16  N   -0.102498
    17  C    0.105176
    18  C    0.157401
    19  C   -0.262309
    20  C   -0.184969
    21  C   -0.036474
    22  C   -0.027465
    23  N    0.493822
    24  O   -0.366490
    25  O   -0.366491
    26  C   -0.045779
    27  C   -0.154769
    28  C    0.114283
    29  C   -0.026766
    30  C   -0.432245
    31  C   -0.083260
    32  C    0.026829
    33  C   -0.128865
    34  C   -0.048205
    35  C    0.040212
    36  C   -0.143463
    37  C   -0.159921
    38  C   -0.144343
    39  C   -0.153112
    40  C   -0.171782
    41  N   -0.098826
    42  B    0.341273
    43  F   -0.364242
    44  F   -0.331101
    45  H    0.164249
    46  H    0.158581
    47  H    0.133687
    48  H    0.168032
    49  H    0.144727
    50  H    0.117616
    51  H    0.153105
    52  H    0.192955
    53  H    0.191441
    54  H    0.157896
    55  H    0.184718
    56  H    0.199001
    57  H    0.198372
    58  H    0.178534
    59  H    0.164069
    60  H    0.134890
    61  H    0.162144
    62  H    0.168482
    63  H    0.140650
    64  H    0.119176
    65  H    0.142507
    66  H    0.159099
    67  H    0.161449
    68  H    0.159090
    69  H    0.150168
 Sum of Mulliken charges =  -0.00000
 Mulliken charges with hydrogens summed into heavy atoms:
               1
     1  C    0.022560
     2  C   -0.019906
     3  C    0.082207
     4  C    0.005235
     5  C    0.048641
     6  C    0.052892
     7  C    0.029594
     8  C    0.019196
     9  C    0.095266
    10  C   -0.026505
    11  N    0.488182
    12  O   -0.377535
    13  O   -0.376829
    14  C    0.091414
    15  C   -0.002381
    16  N   -0.102498
    17  C    0.105176
    18  C    0.157401
    19  C   -0.262309
    20  C   -0.000251
    21  C    0.162526
    22  C   -0.027465
    23  N    0.493822
    24  O   -0.366490
    25  O   -0.366491
    26  C    0.152593
    27  C    0.023764
    28  C    0.114283
    29  C   -0.026766
    30  C    0.028858
    31  C    0.085222
    32  C    0.026829
    33  C    0.011785
    34  C    0.070970
    35  C    0.040212
    36  C   -0.000956
    37  C   -0.000822
    38  C    0.017105
    39  C    0.005978
    40  C   -0.021614
    41  N   -0.098826
    42  B    0.341273
    43  F   -0.364242
    44  F   -0.331101
 Electronic spatial extent (au):  <R**2>=          38801.2027
 Charge=             -0.0000 electrons
 Dipole moment (field-independent basis, Debye):
    X=              7.1309    Y=              2.7281    Z=             -1.1123  Tot=              7.7156
 Quadrupole moment (field-independent basis, Debye-Ang):
   XX=           -381.7002   YY=           -204.9958   ZZ=           -259.2984
   XY=              1.4002   XZ=             -0.5343   YZ=             -0.6750
 Traceless Quadrupole moment (field-independent basis, Debye-Ang):
   XX=            -99.7020   YY=             77.0023   ZZ=             22.6997
   XY=              1.4002   XZ=             -0.5343   YZ=             -0.6750
 Octapole moment (field-independent basis, Debye-Ang**2):
  XXX=            328.7531  YYY=            185.6065  ZZZ=             -0.4225  XYY=            -49.2724
  XXY=            568.7120  XXZ=             -3.5704  XZZ=             33.2673  YZZ=            -45.1329
  YYZ=             14.8608  XYZ=              8.7869
 Hexadecapole moment (field-independent basis, Debye-Ang**3):
 XXXX=         -50994.4229 YYYY=         -15357.4805 ZZZZ=           -686.1386 XXXY=           -863.3618
 XXXZ=            -76.7465 YYYX=           -234.1954 YYYZ=             67.0517 ZZZX=              3.3160
 ZZZY=              1.6959 XXYY=          -9558.2490 XXZZ=          -5579.6769 YYZZ=          -3499.7927
 XXYZ=            -18.1314 YYXZ=            -25.6629 ZZXY=             41.6047
 N-N= 4.706301773630D+03 E-N=-1.411563988431D+04  KE= 2.006357531636D+03
 No NMR shielding tensors so no spin-rotation constants.
 Leave Link  601 at Tue Oct 28 21:56:25 2025, MaxMem= 30870077440 cpu:             126.6 elap:               2.4
 (Enter /public/software/gauss/g16/l9999.exe)
 1\1\GINC-CU031\SP\RM062X\def2TZVPP\C33H25B1F2N4O4\BAIDING\28-Oct-2025\
 0\\#p M062X/DEF2TZVPP scrf=(solvent=water) em=GD3\\Energy calculation 
 for BNP_NO2\\0,1\C,0,2.71634,-3.791356,-0.096697\C,0,1.568543,-2.82807
 1,-0.067899\C,0,0.234423,-3.203028,-0.083643\C,0,-0.564912,-2.035608,-
 0.062511\C,0,-2.000139,-1.921008,-0.078809\C,0,-2.83997,-2.982004,0.02
 773\C,0,-4.294034,-2.927521,0.005527\C,0,-5.012198,-4.134435,0.163214\
 C,0,-6.3978,-4.158253,0.154769\C,0,-7.087162,-2.954613,-0.015149\N,0,-
 8.535564,-2.965186,-0.025661\O,0,-9.123843,-4.047638,0.109816\O,0,-9.1
 37364,-1.89123,-0.169405\C,0,-6.412493,-1.738193,-0.175841\C,0,-5.0287
 23,-1.730437,-0.165005\N,0,0.260785,-0.946166,-0.039914\C,0,1.579696,-
 1.391941,-0.037417\C,0,2.645377,-0.466185,-0.031297\C,0,4.052777,-0.96
 8965,-0.019153\C,0,4.718717,-1.236812,-1.224362\C,0,6.028045,-1.705305
 ,-1.217567\C,0,6.65862,-1.902081,0.010707\N,0,8.033719,-2.394434,0.026
 264\O,0,8.591063,-2.617758,-1.053196\O,0,8.584491,-2.567919,1.118187\C
 ,0,6.021694,-1.645288,1.224573\C,0,4.712579,-1.176462,1.201447\C,0,2.4
 02909,0.911735,-0.044433\C,0,3.299682,2.041235,-0.09036\C,0,4.796563,2
 .062407,-0.132826\C,0,2.501727,3.167614,-0.108309\C,0,1.139444,2.76308
 5,-0.074014\C,0,-0.044133,3.583036,-0.083754\C,0,-0.011402,4.935891,0.
 01101\C,0,-1.158748,5.837315,0.003602\C,0,-0.92227,7.223026,0.111049\C
 ,0,-1.975852,8.134532,0.110648\C,0,-3.292162,7.68049,0.002978\C,0,-3.5
 44963,6.307687,-0.10403\C,0,-2.495063,5.395512,-0.104009\N,0,1.09354,1
 .40222,-0.041847\B,0,-0.168285,0.527878,0.182123\F,0,-1.170333,0.88223
 5,-0.736008\F,0,-0.655232,0.700944,1.483746\H,0,3.326701,-3.675125,-0.
 997557\H,0,3.38288,-3.663544,0.761326\H,0,2.333323,-4.81484,-0.0789\H,
 0,-0.13636,-4.217664,-0.126102\H,0,-2.39898,-0.91976,-0.192337\H,0,-2.
 420774,-3.978194,0.148002\H,0,-4.464271,-5.062006,0.295048\H,0,-6.9420
 52,-5.085838,0.277171\H,0,-6.972421,-0.821257,-0.307535\H,0,-4.51325,-
 0.785389,-0.291629\H,0,4.210556,-1.077027,-2.169005\H,0,6.55181,-1.914
 558,-2.141349\H,0,6.540445,-1.809052,2.160267\H,0,4.199469,-0.970445,2
 .134405\H,0,5.18761,1.543485,-1.013227\H,0,5.146301,3.097199,-0.165294
 \H,0,5.237777,1.581414,0.745345\H,0,2.851436,4.189114,-0.160887\H,0,-0
 .989843,3.06338,-0.180619\H,0,0.953248,5.429588,0.108037\H,0,0.101387,
 7.577471,0.194964\H,0,-1.77008,9.197422,0.194305\H,0,-4.116188,8.38753
 7,0.00276\H,0,-4.566757,5.949637,-0.187298\H,0,-2.713259,4.335779,-0.1
 8627\\Version=ES64L-G16RevA.03\State=1-A\HF=-2017.0099355\RMSD=7.923e-
 09\Dipole=2.8055274,1.0733217,-0.4376173\Quadrupole=-74.1260068,57.249
 321,16.8766858,1.0409842,-0.3972192,-0.5018235\PG=C01 [X(C33H25B1F2N4O
 4)]\\@


 A successful marriage requires falling in love
 many times, always with the same person.
                           -- Mignon McLaughlin
 Job cpu time:       0 days 14 hours 29 minutes 19.8 seconds.
 Elapsed time:       0 days  0 hours 13 minutes 52.1 seconds.
 File lengths (MBytes):  RWF=   1969 Int=      0 D2E=      0 Chk=    172 Scr=      1
 Normal termination of Gaussian 16 at Tue Oct 28 21:56:26 2025.
