 Entering Gaussian System, Link 0=g16
 Input=BNP_NO2_NO2_reduced_sp.gjf
 Output=BNP_NO2_NO2_reduced_sp.log
 Initial command:
 /public/software/gauss/g16/l1.exe "/public/home/baiding/1028_sp/tmp_BNP_NO2_NO2_reduced_sp_1538822/Gau-50093.inp" -scrdir="/public/home/baiding/1028_sp/tmp_BNP_NO2_NO2_reduced_sp_1538822/"
 Entering Link 1 = /public/software/gauss/g16/l1.exe PID=     50094.
  
 Copyright (c) 1988,1990,1992,1993,1995,1998,2003,2009,2016,
            Gaussian, Inc.  All Rights Reserved.
  
 This is part of the Gaussian(R) 16 program.  It is based on
 the Gaussian(R) 09 system (copyright 2009, Gaussian, Inc.),
 the Gaussian(R) 03 system (copyright 2003, Gaussian, Inc.),
 the Gaussian(R) 98 system (copyright 1998, Gaussian, Inc.),
 the Gaussian(R) 94 system (copyright 1995, Gaussian, Inc.),
 the Gaussian 92(TM) system (copyright 1992, Gaussian, Inc.),
 the Gaussian 90(TM) system (copyright 1990, Gaussian, Inc.),
 the Gaussian 88(TM) system (copyright 1988, Gaussian, Inc.),
 the Gaussian 86(TM) system (copyright 1986, Carnegie Mellon
 University), and the Gaussian 82(TM) system (copyright 1983,
 Carnegie Mellon University). Gaussian is a federally registered
 trademark of Gaussian, Inc.
  
 This software contains proprietary and confidential information,
 including trade secrets, belonging to Gaussian, Inc.
  
 This software is provided under written license and may be
 used, copied, transmitted, or stored only in accord with that
 written license.
  
 The following legend is applicable only to US Government
 contracts under FAR:
  
                    RESTRICTED RIGHTS LEGEND
  
 Use, reproduction and disclosure by the US Government is
 subject to restrictions as set forth in subparagraphs (a)
 and (c) of the Commercial Computer Software - Restricted
 Rights clause in FAR 52.227-19.
  
 Gaussian, Inc.
 340 Quinnipiac St., Bldg. 40, Wallingford CT 06492
  
  
 ---------------------------------------------------------------
 Warning -- This program may not be used in any manner that
 competes with the business of Gaussian, Inc. or will provide
 assistance to any competitor of Gaussian, Inc.  The licensee
 of this program is prohibited from giving any competitor of
 Gaussian, Inc. access to this program.  By using this program,
 the user acknowledges that Gaussian, Inc. is engaged in the
 business of creating and licensing software in the field of
 computational chemistry and represents and warrants to the
 licensee that it is not a competitor of Gaussian, Inc. and that
 it will not use this program in any manner prohibited above.
 ---------------------------------------------------------------
  

 Cite this work as:
 Gaussian 16, Revision A.03,
 M. J. Frisch, G. W. Trucks, H. B. Schlegel, G. E. Scuseria, 
 M. A. Robb, J. R. Cheeseman, G. Scalmani, V. Barone, 
 G. A. Petersson, H. Nakatsuji, X. Li, M. Caricato, A. V. Marenich, 
 J. Bloino, B. G. Janesko, R. Gomperts, B. Mennucci, H. P. Hratchian, 
 J. V. Ortiz, A. F. Izmaylov, J. L. Sonnenberg, D. Williams-Young, 
 F. Ding, F. Lipparini, F. Egidi, J. Goings, B. Peng, A. Petrone, 
 T. Henderson, D. Ranasinghe, V. G. Zakrzewski, J. Gao, N. Rega, 
 G. Zheng, W. Liang, M. Hada, M. Ehara, K. Toyota, R. Fukuda, 
 J. Hasegawa, M. Ishida, T. Nakajima, Y. Honda, O. Kitao, H. Nakai, 
 T. Vreven, K. Throssell, J. A. Montgomery, Jr., J. E. Peralta, 
 F. Ogliaro, M. J. Bearpark, J. J. Heyd, E. N. Brothers, K. N. Kudin, 
 V. N. Staroverov, T. A. Keith, R. Kobayashi, J. Normand, 
 K. Raghavachari, A. P. Rendell, J. C. Burant, S. S. Iyengar, 
 J. Tomasi, M. Cossi, J. M. Millam, M. Klene, C. Adamo, R. Cammi, 
 J. W. Ochterski, R. L. Martin, K. Morokuma, O. Farkas, 
 J. B. Foresman, and D. J. Fox, Gaussian, Inc., Wallingford CT, 2016.
 
 ******************************************
 Gaussian 16:  ES64L-G16RevA.03 25-Dec-2016
                28-Oct-2025 
 ******************************************
 %nprocshared=64
 Will use up to   64 processors via shared memory.
 %mem=230GB
 %chk=BNP_NO2_NO2_reduced_sp.chk
 ----------------------------------------------
 #p M062X/DEF2TZVPP scrf=(solvent=water) em=GD3
 ----------------------------------------------
 1/38=1,172=1/1;
 2/12=2,17=6,18=5,40=1/2;
 3/5=44,7=202,11=2,25=1,30=1,70=2201,72=1,74=-55,124=31/1,2,3;
 4//1;
 5/5=2,38=5,53=1/2;
 6/7=2,8=2,9=2,10=2,28=1/1;
 99/5=1,9=1/99;
 Leave Link    1 at Tue Oct 28 20:23:50 2025, MaxMem= 30870077440 cpu:              16.7 elap:               0.3
 (Enter /public/software/gauss/g16/l101.exe)
 ------------------------------------------
 Energy calculation for BNP_NO2_NO2_reduced
 ------------------------------------------
 Symbolic Z-matrix:
 Charge = -1 Multiplicity = 2
 C                    -4.33063   3.13078   0.00063 
 C                    -2.92753   2.60002  -0.00858 
 C                    -1.7943    3.39335  -0.01118 
 C                    -0.64628   2.56111  -0.00972 
 C                     0.72779   2.92678  -0.02321 
 C                     1.18963   4.2175    0.03906 
 C                     2.56835   4.62474   0.01245 
 C                     3.66117   3.71666  -0.07254 
 C                     4.96527   4.16306  -0.09629 
 C                     5.22866   5.54465  -0.03587 
 N                     6.57541   6.00619  -0.06236 
 O                     7.50514   5.17163  -0.13744 
 O                     6.80018   7.23625  -0.00965 
 C                     4.17565   6.47201   0.05075 
 C                     2.8749    6.0118    0.0746 
 N                    -1.07815   1.24754  -0.01209 
 C                    -2.46662   1.23416  -0.01319 
 C                    -3.17304   0.01009  -0.01323 
 C                    -4.66522   0.00894  -0.01782 
 C                    -5.37814  -0.22931   1.16926 
 C                    -6.76829  -0.23142   1.17798 
 C                    -7.44269   0.00093  -0.02155 
 N                    -8.90014  -0.00256  -0.02341 
 O                    -9.49022   0.2002   -1.09098 
 O                    -9.49201  -0.208     1.04266 
 C                    -6.76626   0.23612  -1.21947 
 C                    -5.37633   0.2415   -1.20722 
 C                    -2.46922  -1.21583  -0.0256 
 C                    -2.93316  -2.57717  -0.12403 
 C                    -4.33595  -3.0976   -0.23368 
 C                    -1.80266  -3.37407  -0.13084 
 C                    -0.65297  -2.54799  -0.04687 
 C                     0.71951  -2.92056  -0.0389 
 C                     1.1725   -4.21561  -0.01675 
 C                     2.5493   -4.63054  -0.02031 
 C                     2.84614  -6.02088   0.0016 
 C                     4.14445  -6.48859  -0.00048 
 C                     5.20463  -5.56574  -0.02396 
 N                     6.54915  -6.03482  -0.02657 
 O                     7.48501  -5.20408  -0.04667 
 O                     6.76566  -7.26726  -0.00845 
 C                     4.95086  -4.18122  -0.0446 
 C                     3.64912  -3.72731  -0.04294 
 N                    -1.08183  -1.23501   0.00846 
 B                    -0.19895   0.00659   0.25494 
 F                     0.28191   0.01903   1.57844 
 F                     0.9099   -0.00271  -0.61785 
 H                    -4.85577   2.93537  -0.9401 
 H                    -4.934     2.69114   0.80052 
 H                    -4.30906   4.2138    0.1504 
 H                    -1.78256   4.47504  -0.02488 
 H                     1.43759   2.11139  -0.10357 
 H                     0.46806   5.0279    0.11557 
 H                     3.47688   2.64921  -0.11876 
 H                     5.78931   3.46388  -0.16115 
 H                     4.39353   7.53141   0.09741 
 H                     2.05901   6.72527   0.14124 
 H                    -4.83741  -0.40847   2.0923 
 H                    -7.32221  -0.40762   2.09111 
 H                    -7.31878   0.40856  -2.13415 
 H                    -4.83426   0.42191  -2.1292 
 H                    -4.88731  -2.63208  -1.05628 
 H                    -4.31179  -4.17619  -0.41197 
 H                    -4.91604  -2.92322   0.67838 
 H                    -1.79247  -4.45254  -0.21501 
 H                     1.43588  -2.10751  -0.06376 
 H                     0.44477  -5.02373   0.00776 
 H                     2.02461  -6.73075   0.01977 
 H                     4.35495  -7.55038   0.01559 
 H                     5.7804   -3.48576  -0.06171 
 H                     3.4722   -2.65773  -0.0585 
 
 ITRead=  0  0  0  0  0  0  0  0  0  0  0  0  0  0  0  0  0  0  0  0
 ITRead=  0  0  0  0  0  0  0  0  0  0  0  0  0  0  0  0  0  0  0  0
 ITRead=  0  0  0  0  0  0  0  0  0  0  0  0  0  0  0  0  0  0  0  0
 ITRead=  0  0  0  0  0  0  0  0  0  0  0
 MicOpt= -1 -1 -1 -1 -1 -1 -1 -1 -1 -1 -1 -1 -1 -1 -1 -1 -1 -1 -1 -1
 MicOpt= -1 -1 -1 -1 -1 -1 -1 -1 -1 -1 -1 -1 -1 -1 -1 -1 -1 -1 -1 -1
 MicOpt= -1 -1 -1 -1 -1 -1 -1 -1 -1 -1 -1 -1 -1 -1 -1 -1 -1 -1 -1 -1
 MicOpt= -1 -1 -1 -1 -1 -1 -1 -1 -1 -1 -1
 NAtoms=     71 NQM=       71 NQMF=       0 NMMI=      0 NMMIF=      0
                NMic=       0 NMicF=      0.
                    Isotopes and Nuclear Properties:
 (Nuclear quadrupole moments (NQMom) in fm**2, nuclear magnetic moments (NMagM)
  in nuclear magnetons)

  Atom         1           2           3           4           5           6           7           8           9          10
 IAtWgt=          12          12          12          12          12          12          12          12          12          12
 AtmWgt=  12.0000000  12.0000000  12.0000000  12.0000000  12.0000000  12.0000000  12.0000000  12.0000000  12.0000000  12.0000000
 NucSpn=           0           0           0           0           0           0           0           0           0           0
 AtZEff=  -0.0000000  -0.0000000  -0.0000000  -0.0000000  -0.0000000  -0.0000000  -0.0000000  -0.0000000  -0.0000000  -0.0000000
 NQMom=    0.0000000   0.0000000   0.0000000   0.0000000   0.0000000   0.0000000   0.0000000   0.0000000   0.0000000   0.0000000
 NMagM=    0.0000000   0.0000000   0.0000000   0.0000000   0.0000000   0.0000000   0.0000000   0.0000000   0.0000000   0.0000000
 AtZNuc=   6.0000000   6.0000000   6.0000000   6.0000000   6.0000000   6.0000000   6.0000000   6.0000000   6.0000000   6.0000000

  Atom        11          12          13          14          15          16          17          18          19          20
 IAtWgt=          14          16          16          12          12          14          12          12          12          12
 AtmWgt=  14.0030740  15.9949146  15.9949146  12.0000000  12.0000000  14.0030740  12.0000000  12.0000000  12.0000000  12.0000000
 NucSpn=           2           0           0           0           0           2           0           0           0           0
 AtZEff=  -0.0000000  -0.0000000  -0.0000000  -0.0000000  -0.0000000  -0.0000000  -0.0000000  -0.0000000  -0.0000000  -0.0000000
 NQMom=    2.0440000   0.0000000   0.0000000   0.0000000   0.0000000   2.0440000   0.0000000   0.0000000   0.0000000   0.0000000
 NMagM=    0.4037610   0.0000000   0.0000000   0.0000000   0.0000000   0.4037610   0.0000000   0.0000000   0.0000000   0.0000000
 AtZNuc=   7.0000000   8.0000000   8.0000000   6.0000000   6.0000000   7.0000000   6.0000000   6.0000000   6.0000000   6.0000000

  Atom        21          22          23          24          25          26          27          28          29          30
 IAtWgt=          12          12          14          16          16          12          12          12          12          12
 AtmWgt=  12.0000000  12.0000000  14.0030740  15.9949146  15.9949146  12.0000000  12.0000000  12.0000000  12.0000000  12.0000000
 NucSpn=           0           0           2           0           0           0           0           0           0           0
 AtZEff=  -0.0000000  -0.0000000  -0.0000000  -0.0000000  -0.0000000  -0.0000000  -0.0000000  -0.0000000  -0.0000000  -0.0000000
 NQMom=    0.0000000   0.0000000   2.0440000   0.0000000   0.0000000   0.0000000   0.0000000   0.0000000   0.0000000   0.0000000
 NMagM=    0.0000000   0.0000000   0.4037610   0.0000000   0.0000000   0.0000000   0.0000000   0.0000000   0.0000000   0.0000000
 AtZNuc=   6.0000000   6.0000000   7.0000000   8.0000000   8.0000000   6.0000000   6.0000000   6.0000000   6.0000000   6.0000000

  Atom        31          32          33          34          35          36          37          38          39          40
 IAtWgt=          12          12          12          12          12          12          12          12          14          16
 AtmWgt=  12.0000000  12.0000000  12.0000000  12.0000000  12.0000000  12.0000000  12.0000000  12.0000000  14.0030740  15.9949146
 NucSpn=           0           0           0           0           0           0           0           0           2           0
 AtZEff=  -0.0000000  -0.0000000  -0.0000000  -0.0000000  -0.0000000  -0.0000000  -0.0000000  -0.0000000  -0.0000000  -0.0000000
 NQMom=    0.0000000   0.0000000   0.0000000   0.0000000   0.0000000   0.0000000   0.0000000   0.0000000   2.0440000   0.0000000
 NMagM=    0.0000000   0.0000000   0.0000000   0.0000000   0.0000000   0.0000000   0.0000000   0.0000000   0.4037610   0.0000000
 AtZNuc=   6.0000000   6.0000000   6.0000000   6.0000000   6.0000000   6.0000000   6.0000000   6.0000000   7.0000000   8.0000000

  Atom        41          42          43          44          45          46          47          48          49          50
 IAtWgt=          16          12          12          14          11          19          19           1           1           1
 AtmWgt=  15.9949146  12.0000000  12.0000000  14.0030740  11.0093053  18.9984033  18.9984033   1.0078250   1.0078250   1.0078250
 NucSpn=           0           0           0           2           3           1           1           1           1           1
 AtZEff=  -0.0000000  -0.0000000  -0.0000000  -0.0000000  -0.0000000  -0.0000000  -0.0000000  -0.0000000  -0.0000000  -0.0000000
 NQMom=    0.0000000   0.0000000   0.0000000   2.0440000   4.0590000   0.0000000   0.0000000   0.0000000   0.0000000   0.0000000
 NMagM=    0.0000000   0.0000000   0.0000000   0.4037610   2.6886370   2.6288670   2.6288670   2.7928460   2.7928460   2.7928460
 AtZNuc=   8.0000000   6.0000000   6.0000000   7.0000000   5.0000000   9.0000000   9.0000000   1.0000000   1.0000000   1.0000000

  Atom        51          52          53          54          55          56          57          58          59          60
 IAtWgt=           1           1           1           1           1           1           1           1           1           1
 AtmWgt=   1.0078250   1.0078250   1.0078250   1.0078250   1.0078250   1.0078250   1.0078250   1.0078250   1.0078250   1.0078250
 NucSpn=           1           1           1           1           1           1           1           1           1           1
 AtZEff=  -0.0000000  -0.0000000  -0.0000000  -0.0000000  -0.0000000  -0.0000000  -0.0000000  -0.0000000  -0.0000000  -0.0000000
 NQMom=    0.0000000   0.0000000   0.0000000   0.0000000   0.0000000   0.0000000   0.0000000   0.0000000   0.0000000   0.0000000
 NMagM=    2.7928460   2.7928460   2.7928460   2.7928460   2.7928460   2.7928460   2.7928460   2.7928460   2.7928460   2.7928460
 AtZNuc=   1.0000000   1.0000000   1.0000000   1.0000000   1.0000000   1.0000000   1.0000000   1.0000000   1.0000000   1.0000000

  Atom        61          62          63          64          65          66          67          68          69          70
 IAtWgt=           1           1           1           1           1           1           1           1           1           1
 AtmWgt=   1.0078250   1.0078250   1.0078250   1.0078250   1.0078250   1.0078250   1.0078250   1.0078250   1.0078250   1.0078250
 NucSpn=           1           1           1           1           1           1           1           1           1           1
 AtZEff=  -0.0000000  -0.0000000  -0.0000000  -0.0000000  -0.0000000  -0.0000000  -0.0000000  -0.0000000  -0.0000000  -0.0000000
 NQMom=    0.0000000   0.0000000   0.0000000   0.0000000   0.0000000   0.0000000   0.0000000   0.0000000   0.0000000   0.0000000
 NMagM=    2.7928460   2.7928460   2.7928460   2.7928460   2.7928460   2.7928460   2.7928460   2.7928460   2.7928460   2.7928460
 AtZNuc=   1.0000000   1.0000000   1.0000000   1.0000000   1.0000000   1.0000000   1.0000000   1.0000000   1.0000000   1.0000000

  Atom        71
 IAtWgt=           1
 AtmWgt=   1.0078250
 NucSpn=           1
 AtZEff=  -0.0000000
 NQMom=    0.0000000
 NMagM=    2.7928460
 AtZNuc=   1.0000000
 Leave Link  101 at Tue Oct 28 20:23:50 2025, MaxMem= 30870077440 cpu:               4.4 elap:               0.1
 (Enter /public/software/gauss/g16/l202.exe)
 Stoichiometry    C33H24BF2N5O6(1-,2)
 Framework group  C1[X(C33H24BF2N5O6)]
 Deg. of freedom   207
 Full point group                 C1      NOp   1
 Largest Abelian subgroup         C1      NOp   1
 Largest concise Abelian subgroup C1      NOp   1
                         Standard orientation:                         
 ---------------------------------------------------------------------
 Center     Atomic      Atomic             Coordinates (Angstroms)
 Number     Number       Type             X           Y           Z
 ---------------------------------------------------------------------
      1          6           0        4.330628   -3.130782    0.000627
      2          6           0        2.927530   -2.600023   -0.008578
      3          6           0        1.794302   -3.393346   -0.011182
      4          6           0        0.646281   -2.561108   -0.009718
      5          6           0       -0.727785   -2.926783   -0.023212
      6          6           0       -1.189633   -4.217498    0.039060
      7          6           0       -2.568350   -4.624737    0.012450
      8          6           0       -3.661171   -3.716658   -0.072539
      9          6           0       -4.965269   -4.163057   -0.096294
     10          6           0       -5.228659   -5.544646   -0.035870
     11          7           0       -6.575408   -6.006187   -0.062364
     12          8           0       -7.505140   -5.171631   -0.137435
     13          8           0       -6.800183   -7.236246   -0.009652
     14          6           0       -4.175645   -6.472012    0.050747
     15          6           0       -2.874898   -6.011796    0.074597
     16          7           0        1.078155   -1.247541   -0.012093
     17          6           0        2.466616   -1.234157   -0.013185
     18          6           0        3.173042   -0.010091   -0.013233
     19          6           0        4.665219   -0.008943   -0.017820
     20          6           0        5.378139    0.229305    1.169260
     21          6           0        6.768288    0.231421    1.177977
     22          6           0        7.442686   -0.000929   -0.021547
     23          7           0        8.900144    0.002562   -0.023409
     24          8           0        9.490223   -0.200204   -1.090977
     25          8           0        9.492013    0.208004    1.042663
     26          6           0        6.766264   -0.236123   -1.219465
     27          6           0        5.376329   -0.241496   -1.207224
     28          6           0        2.469222    1.215833   -0.025602
     29          6           0        2.933159    2.577165   -0.124032
     30          6           0        4.335949    3.097595   -0.233676
     31          6           0        1.802662    3.374069   -0.130844
     32          6           0        0.652969    2.547993   -0.046867
     33          6           0       -0.719507    2.920555   -0.038902
     34          6           0       -1.172496    4.215605   -0.016746
     35          6           0       -2.549300    4.630544   -0.020305
     36          6           0       -2.846144    6.020876    0.001604
     37          6           0       -4.144449    6.488591   -0.000482
     38          6           0       -5.204631    5.565741   -0.023957
     39          7           0       -6.549147    6.034824   -0.026565
     40          8           0       -7.485013    5.204076   -0.046673
     41          8           0       -6.765658    7.267261   -0.008451
     42          6           0       -4.950864    4.181223   -0.044596
     43          6           0       -3.649119    3.727311   -0.042939
     44          7           0        1.081827    1.235014    0.008460
     45          5           0        0.198951   -0.006587    0.254941
     46          9           0       -0.281914   -0.019026    1.578438
     47          9           0       -0.909903    0.002713   -0.617853
     48          1           0        4.855773   -2.935367   -0.940103
     49          1           0        4.933998   -2.691141    0.800522
     50          1           0        4.309063   -4.213798    0.150401
     51          1           0        1.782556   -4.475039   -0.024884
     52          1           0       -1.437588   -2.111388   -0.103567
     53          1           0       -0.468060   -5.027899    0.115569
     54          1           0       -3.476884   -2.649211   -0.118760
     55          1           0       -5.789306   -3.463881   -0.161154
     56          1           0       -4.393531   -7.531405    0.097406
     57          1           0       -2.059014   -6.725273    0.141236
     58          1           0        4.837405    0.408465    2.092300
     59          1           0        7.322206    0.407616    2.091107
     60          1           0        7.318783   -0.408557   -2.134152
     61          1           0        4.834264   -0.421907   -2.129195
     62          1           0        4.887311    2.632083   -1.056281
     63          1           0        4.311793    4.176190   -0.411967
     64          1           0        4.916037    2.923216    0.678378
     65          1           0        1.792468    4.452543   -0.215007
     66          1           0       -1.435880    2.107509   -0.063757
     67          1           0       -0.444767    5.023727    0.007755
     68          1           0       -2.024615    6.730752    0.019765
     69          1           0       -4.354946    7.550384    0.015593
     70          1           0       -5.780397    3.485759   -0.061713
     71          1           0       -3.472199    2.657725   -0.058503
 ---------------------------------------------------------------------
 Rotational constants (GHZ):           0.0527786           0.0331459           0.0206651
 Leave Link  202 at Tue Oct 28 20:23:50 2025, MaxMem= 30870077440 cpu:               0.2 elap:               0.0
 (Enter /public/software/gauss/g16/l301.exe)
 Standard basis: def2TZVPP (5D, 7F)
 Ernie: Thresh=  0.10000D-02 Tol=  0.10000D-05 Strict=F.
 There are  2052 symmetry adapted cartesian basis functions of A   symmetry.
 There are  1793 symmetry adapted basis functions of A   symmetry.
  1793 basis functions,  2805 primitive gaussians,  2052 cartesian basis functions
   165 alpha electrons      164 beta electrons
       nuclear repulsion energy      5180.1287752496 Hartrees.
 IExCor= 4336 DFT=T Ex+Corr=M062X ExCW=0 ScaHFX=  0.540000
 ScaDFX=  1.000000  1.000000  1.000000  1.000000 ScalE2=  1.000000  1.000000
 IRadAn=      5 IRanWt=     -1 IRanGd=            0 ICorTp=0 IEmpDi=131
 NAtoms=   71 NActive=   71 NUniq=   71 SFac= 1.00D+00 NAtFMM=   60 NAOKFM=T Big=T
 Integral buffers will be    131072 words long.
 Raffenetti 2 integral format.
 Two-electron integral symmetry is turned on.
 R6Disp:  Grimme-D3 Dispersion energy=       -0.0057784160 Hartrees.
 Nuclear repulsion after empirical dispersion term =     5180.1229968335 Hartrees.
 ------------------------------------------------------------------------------
 Polarizable Continuum Model (PCM)
 =================================
 Model                : PCM.
 Atomic radii         : UFF (Universal Force Field).
 Polarization charges : Total charges.
 Charge compensation  : None.
 Solution method      : On-the-fly selection.
 Cavity type          : Scaled VdW (van der Waals Surface) (Alpha=1.100).
 Cavity algorithm     : GePol (No added spheres)
                        Default sphere list used, NSphG=   71.
                        Lebedev-Laikov grids with approx.  5.0 points / Ang**2.
                        Smoothing algorithm: York/Karplus (Gamma=1.0000).
                        Polarization charges: spherical gaussians, with
                                              point-specific exponents (IZeta= 3).
                        Self-potential: point-specific (ISelfS= 7).
                        Self-field    : sphere-specific E.n sum rule (ISelfD= 2).
 Solvent              : Water, Eps=  78.355300 Eps(inf)=   1.777849
 ------------------------------------------------------------------------------
 GePol: Number of generator spheres                  =      71
 GePol: Total number of spheres                      =      71
 GePol: Number of exposed spheres                    =      71 (100.00%)
 GePol: Number of points                             =    5436
 GePol: Average weight of points                     =       0.13
 GePol: Minimum weight of points                     =   0.48D-11
 GePol: Maximum weight of points                     =    0.20577
 GePol: Number of points with low weight             =     335
 GePol: Fraction of low-weight points (<1% of avg)   =       6.16%
 GePol: Cavity surface area                          =    688.357 Ang**2
 GePol: Cavity volume                                =    791.456 Ang**3
 Leave Link  301 at Tue Oct 28 20:23:50 2025, MaxMem= 30870077440 cpu:               3.7 elap:               0.1
 (Enter /public/software/gauss/g16/l302.exe)
 NPDir=0 NMtPBC=     1 NCelOv=     1 NCel=       1 NClECP=     1 NCelD=      1
         NCelK=      1 NCelE2=     1 NClLst=     1 CellRange=     0.0.
 One-electron integrals computed using PRISM.
 One-electron integral symmetry used in STVInt
   1 Symmetry operations used in ECPInt.
 ECPInt:  NShTT=  218791 NPrTT=  642384 LenC2=  133579 LenP2D=  260473.
 LDataN:  DoStor=T MaxTD1= 6 Len=  172
 NBasis=  1793 RedAO= T EigKep=  4.12D-06  NBF=  1793
 NBsUse=  1793 1.00D-06 EigRej= -1.00D+00 NBFU=  1793
 Precomputing XC quadrature grid using
 IXCGrd= 4 IRadAn=           5 IRanWt=          -1 IRanGd=           0 AccXCQ= 0.00D+00.
 Generated NRdTot=       0 NPtTot=           0 NUsed=           0 NTot=          32
 NSgBfM=  1805  1805  1805  1805  1805 MxSgAt=    71 MxSgA2=    71.
 Leave Link  302 at Tue Oct 28 20:23:59 2025, MaxMem= 30870077440 cpu:             550.8 elap:               8.6
 (Enter /public/software/gauss/g16/l303.exe)
 DipDrv:  MaxL=1.
 Leave Link  303 at Tue Oct 28 20:24:00 2025, MaxMem= 30870077440 cpu:              26.1 elap:               0.5
 (Enter /public/software/gauss/g16/l401.exe)
 ExpMin= 6.06D-02 ExpMax= 3.55D+04 ExpMxC= 1.21D+03 IAcc=3 IRadAn=         5 AccDes= 0.00D+00
 Harris functional with IExCor= 1009 and IRadAn=       5 diagonalized for initial guess.
 HarFok:  IExCor= 1009 AccDes= 0.00D+00 IRadAn=         5 IDoV= 1 UseB2=F ITyADJ=14
 ICtDFT=  3500011 ScaDFX=  1.000000  1.000000  1.000000  1.000000
 FoFCou: FMM=F IPFlag=           0 FMFlag=      100000 FMFlg1=        2001
         NFxFlg=           0 DoJE=T BraDBF=F KetDBF=T FulRan=T
         wScrn=  0.000000 ICntrl=       500 IOpCl=  0 I1Cent=   200000004 NGrid=           0
         NMat0=    1 NMatS0=      1 NMatT0=    0 NMatD0=    1 NMtDS0=    0 NMtDT0=    0
 Petite list used in FoFCou.
 Harris En= -2220.64323611115    
 JPrj=0 DoOrth=F DoCkMO=F.
 Initial guess <Sx>= 0.0000 <Sy>= 0.0000 <Sz>= 0.5000 <S**2>= 0.7500 S= 0.5000
 Leave Link  401 at Tue Oct 28 20:24:10 2025, MaxMem= 30870077440 cpu:             633.5 elap:              10.0
 (Enter /public/software/gauss/g16/l502.exe)
 Integral symmetry usage will be decided dynamically.
 UHF open shell SCF:
 Using DIIS extrapolation, IDIIS=  1040.
 NGot= 30870077440 LenX= 30861507565 LenY= 30857294809
 Requested convergence on RMS density matrix=1.00D-08 within 128 cycles.
 Requested convergence on MAX density matrix=1.00D-06.
 Requested convergence on             energy=1.00D-06.
 No special actions if energy rises.
 Fock matrices will be formed incrementally for  20 cycles.

 Cycle   1  Pass 1  IDiag  1:
 FoFJK:  IHMeth= 1 ICntrl=       0 DoSepK=F KAlg= 0 I1Cent=           0 FoldK=F
 IRaf= 570000000 NMat=       1 IRICut=       1 DoRegI=T DoRafI=F ISym2E= 0 IDoP0=0 IntGTp=1.
 FoFCou: FMM=T IPFlag=           0 FMFlag=      100000 FMFlg1=        2001
         NFxFlg=           0 DoJE=F BraDBF=F KetDBF=F FulRan=T
         wScrn=  0.000000 ICntrl=         0 IOpCl=  1 I1Cent=           0 NGrid=           0
         NMat0=    1 NMatS0=      1 NMatT0=    0 NMatD0=    1 NMtDS0=    0 NMtDT0=    0
 Symmetry not used in FoFCou.
 FMM levels:  10  Number of levels for PrismC:   9
 Inv3:  Mode=1 IEnd=    88650288.
 Iteration    1 A*A^-1 deviation from unit magnitude is 1.40D-14 for    329.
 Iteration    1 A*A^-1 deviation from orthogonality  is 7.12D-15 for   1711    641.
 Iteration    1 A^-1*A deviation from unit magnitude is 1.42D-14 for    329.
 Iteration    1 A^-1*A deviation from orthogonality  is 1.02D-14 for   5109   1520.
 E= -2220.42296824622    
 DIIS: error= 3.04D-02 at cycle   1 NSaved=   1.
 NSaved= 1 IEnMin= 1 EnMin= -2220.42296824622     IErMin= 1 ErrMin= 3.04D-02
 ErrMax= 3.04D-02  0.00D+00 EMaxC= 1.00D-01 BMatC= 6.84D+00 BMatP= 6.84D+00
 IDIUse=3 WtCom= 6.96D-01 WtEn= 3.04D-01
 Coeff-Com:  0.100D+01
 Coeff-En:   0.100D+01
 Coeff:      0.100D+01
 Gap=     0.079 Goal=   None    Shift=    0.000
 Gap=     0.118 Goal=   None    Shift=    0.000
 GapD=    0.079 DampG=0.500 DampE=0.500 DampFc=0.2500 IDamp=-1.
 Damping current iteration by 2.50D-01
 RMSDP=1.49D-03 MaxDP=1.96D-01              OVMax= 5.32D-01

 Cycle   2  Pass 1  IDiag  1:
 RMSU=  3.72D-04    CP:  9.96D-01
 E= -2220.85507574786     Delta-E=       -0.432107501640 Rises=F Damp=T
 DIIS: error= 1.38D-02 at cycle   2 NSaved=   2.
 NSaved= 2 IEnMin= 2 EnMin= -2220.85507574786     IErMin= 2 ErrMin= 1.38D-02
 ErrMax= 1.38D-02  0.00D+00 EMaxC= 1.00D-01 BMatC= 2.15D+00 BMatP= 6.84D+00
 IDIUse=3 WtCom= 8.62D-01 WtEn= 1.38D-01
 Coeff-Com: -0.946D+00 0.195D+01
 Coeff-En:   0.000D+00 0.100D+01
 Coeff:     -0.815D+00 0.182D+01
 Gap=     0.078 Goal=   None    Shift=    0.000
 Gap=     0.150 Goal=   None    Shift=    0.000
 RMSDP=9.16D-04 MaxDP=1.84D-01 DE=-4.32D-01 OVMax= 4.62D-01

 Cycle   3  Pass 1  IDiag  1:
 RMSU=  6.02D-04    CP:  9.85D-01  2.85D+00
 E= -2221.61662924192     Delta-E=       -0.761553494061 Rises=F Damp=F
 DIIS: error= 6.49D-03 at cycle   3 NSaved=   3.
 NSaved= 3 IEnMin= 3 EnMin= -2221.61662924192     IErMin= 3 ErrMin= 6.49D-03
 ErrMax= 6.49D-03  0.00D+00 EMaxC= 1.00D-01 BMatC= 2.31D-01 BMatP= 2.15D+00
 IDIUse=3 WtCom= 9.35D-01 WtEn= 6.49D-02
 Coeff-Com: -0.394D+00 0.711D+00 0.683D+00
 Coeff-En:   0.000D+00 0.000D+00 0.100D+01
 Coeff:     -0.368D+00 0.665D+00 0.703D+00
 Gap=     0.078 Goal=   None    Shift=    0.000
 Gap=     0.123 Goal=   None    Shift=    0.000
 RMSDP=2.16D-04 MaxDP=2.88D-02 DE=-7.62D-01 OVMax= 4.62D-02

 Cycle   4  Pass 1  IDiag  1:
 RMSU=  2.02D-04    CP:  9.80D-01  2.67D+00  9.49D-01
 E= -2221.65762940695     Delta-E=       -0.041000165032 Rises=F Damp=F
 DIIS: error= 2.01D-03 at cycle   4 NSaved=   4.
 NSaved= 4 IEnMin= 4 EnMin= -2221.65762940695     IErMin= 4 ErrMin= 2.01D-03
 ErrMax= 2.01D-03  0.00D+00 EMaxC= 1.00D-01 BMatC= 3.51D-02 BMatP= 2.31D-01
 IDIUse=3 WtCom= 9.80D-01 WtEn= 2.01D-02
 Coeff-Com: -0.652D-01 0.106D+00 0.301D+00 0.658D+00
 Coeff-En:   0.000D+00 0.000D+00 0.640D-01 0.936D+00
 Coeff:     -0.639D-01 0.104D+00 0.296D+00 0.664D+00
 Gap=     0.085 Goal=   None    Shift=    0.000
 Gap=     0.126 Goal=   None    Shift=    0.000
 RMSDP=6.92D-05 MaxDP=1.95D-02 DE=-4.10D-02 OVMax= 4.37D-02

 Cycle   5  Pass 1  IDiag  1:
 RMSU=  6.43D-05    CP:  9.80D-01  2.69D+00  9.58D-01  8.81D-01
 E= -2221.66513647273     Delta-E=       -0.007507065778 Rises=F Damp=F
 DIIS: error= 6.28D-04 at cycle   5 NSaved=   5.
 NSaved= 5 IEnMin= 5 EnMin= -2221.66513647273     IErMin= 5 ErrMin= 6.28D-04
 ErrMax= 6.28D-04  0.00D+00 EMaxC= 1.00D-01 BMatC= 3.08D-03 BMatP= 3.51D-02
 IDIUse=3 WtCom= 9.94D-01 WtEn= 6.28D-03
 Coeff-Com: -0.144D-01 0.201D-01 0.107D+00 0.320D+00 0.567D+00
 Coeff-En:   0.000D+00 0.000D+00 0.000D+00 0.000D+00 0.100D+01
 Coeff:     -0.143D-01 0.200D-01 0.106D+00 0.318D+00 0.570D+00
 Gap=     0.087 Goal=   None    Shift=    0.000
 Gap=     0.127 Goal=   None    Shift=    0.000
 RMSDP=2.78D-05 MaxDP=7.94D-03 DE=-7.51D-03 OVMax= 1.22D-02

 Cycle   6  Pass 1  IDiag  1:
 RMSU=  2.52D-05    CP:  9.80D-01  2.68D+00  9.51D-01  9.28D-01  1.00D+00
 E= -2221.66601045772     Delta-E=       -0.000873984991 Rises=F Damp=F
 DIIS: error= 2.48D-04 at cycle   6 NSaved=   6.
 NSaved= 6 IEnMin= 6 EnMin= -2221.66601045772     IErMin= 6 ErrMin= 2.48D-04
 ErrMax= 2.48D-04  0.00D+00 EMaxC= 1.00D-01 BMatC= 2.84D-04 BMatP= 3.08D-03
 IDIUse=3 WtCom= 9.98D-01 WtEn= 2.48D-03
 Coeff-Com:  0.746D-03-0.245D-02 0.321D-02 0.383D-01 0.207D+00 0.753D+00
 Coeff-En:   0.000D+00 0.000D+00 0.000D+00 0.000D+00 0.000D+00 0.100D+01
 Coeff:      0.744D-03-0.245D-02 0.320D-02 0.382D-01 0.206D+00 0.754D+00
 Gap=     0.089 Goal=   None    Shift=    0.000
 Gap=     0.129 Goal=   None    Shift=    0.000
 RMSDP=2.04D-05 MaxDP=8.28D-03 DE=-8.74D-04 OVMax= 1.65D-02

 Cycle   7  Pass 1  IDiag  1:
 RMSU=  1.43D-05    CP:  9.80D-01  2.68D+00  9.56D-01  9.39D-01  1.21D+00
                    CP:  1.17D+00
 E= -2221.66624043231     Delta-E=       -0.000229974591 Rises=F Damp=F
 DIIS: error= 2.32D-04 at cycle   7 NSaved=   7.
 NSaved= 7 IEnMin= 7 EnMin= -2221.66624043231     IErMin= 7 ErrMin= 2.32D-04
 ErrMax= 2.32D-04  0.00D+00 EMaxC= 1.00D-01 BMatC= 1.04D-04 BMatP= 2.84D-04
 IDIUse=3 WtCom= 9.98D-01 WtEn= 2.32D-03
 Coeff-Com:  0.388D-02-0.616D-02-0.292D-01-0.705D-01-0.630D-01 0.324D+00
 Coeff-Com:  0.841D+00
 Coeff-En:   0.000D+00 0.000D+00 0.000D+00 0.000D+00 0.000D+00 0.000D+00
 Coeff-En:   0.100D+01
 Coeff:      0.387D-02-0.615D-02-0.291D-01-0.704D-01-0.629D-01 0.324D+00
 Coeff:      0.841D+00
 Gap=     0.092 Goal=   None    Shift=    0.000
 Gap=     0.130 Goal=   None    Shift=    0.000
 RMSDP=1.78D-05 MaxDP=4.16D-03 DE=-2.30D-04 OVMax= 1.33D-02

 Cycle   8  Pass 1  IDiag  1:
 RMSU=  6.86D-06    CP:  9.80D-01  2.67D+00  9.55D-01  9.66D-01  1.35D+00
                    CP:  1.57D+00  1.48D+00
 E= -2221.66637658252     Delta-E=       -0.000136150215 Rises=F Damp=F
 DIIS: error= 9.50D-05 at cycle   8 NSaved=   8.
 NSaved= 8 IEnMin= 8 EnMin= -2221.66637658252     IErMin= 8 ErrMin= 9.50D-05
 ErrMax= 9.50D-05  0.00D+00 EMaxC= 1.00D-01 BMatC= 3.56D-05 BMatP= 1.04D-04
 IDIUse=1 WtCom= 1.00D+00 WtEn= 0.00D+00
 Coeff-Com:  0.511D-03-0.410D-03-0.120D-01-0.395D-01-0.101D+00-0.151D+00
 Coeff-Com:  0.342D+00 0.961D+00
 Coeff:      0.511D-03-0.410D-03-0.120D-01-0.395D-01-0.101D+00-0.151D+00
 Coeff:      0.342D+00 0.961D+00
 Gap=     0.093 Goal=   None    Shift=    0.000
 Gap=     0.131 Goal=   None    Shift=    0.000
 RMSDP=1.47D-05 MaxDP=4.97D-03 DE=-1.36D-04 OVMax= 1.18D-02

 Cycle   9  Pass 1  IDiag  1:
 RMSU=  3.45D-06    CP:  9.79D-01  2.67D+00  9.57D-01  9.78D-01  1.47D+00
                    CP:  1.83D+00  2.12D+00  1.44D+00
 E= -2221.66644085954     Delta-E=       -0.000064277021 Rises=F Damp=F
 DIIS: error= 5.62D-05 at cycle   9 NSaved=   9.
 NSaved= 9 IEnMin= 9 EnMin= -2221.66644085954     IErMin= 9 ErrMin= 5.62D-05
 ErrMax= 5.62D-05  0.00D+00 EMaxC= 1.00D-01 BMatC= 1.07D-05 BMatP= 3.56D-05
 IDIUse=1 WtCom= 1.00D+00 WtEn= 0.00D+00
 Coeff-Com: -0.110D-02 0.186D-02 0.597D-02 0.122D-01-0.106D-01-0.160D+00
 Coeff-Com: -0.196D+00 0.327D+00 0.102D+01
 Coeff:     -0.110D-02 0.186D-02 0.597D-02 0.122D-01-0.106D-01-0.160D+00
 Coeff:     -0.196D+00 0.327D+00 0.102D+01
 Gap=     0.094 Goal=   None    Shift=    0.000
 Gap=     0.131 Goal=   None    Shift=    0.000
 RMSDP=9.30D-06 MaxDP=2.44D-03 DE=-6.43D-05 OVMax= 6.94D-03

 Cycle  10  Pass 1  IDiag  1:
 RMSU=  1.77D-06    CP:  9.79D-01  2.67D+00  9.57D-01  9.86D-01  1.54D+00
                    CP:  2.03D+00  2.47D+00  1.95D+00  1.51D+00
 E= -2221.66645919408     Delta-E=       -0.000018334536 Rises=F Damp=F
 DIIS: error= 3.34D-05 at cycle  10 NSaved=  10.
 NSaved=10 IEnMin=10 EnMin= -2221.66645919408     IErMin=10 ErrMin= 3.34D-05
 ErrMax= 3.34D-05  0.00D+00 EMaxC= 1.00D-01 BMatC= 3.53D-06 BMatP= 1.07D-05
 IDIUse=1 WtCom= 1.00D+00 WtEn= 0.00D+00
 Coeff-Com: -0.656D-03 0.982D-03 0.588D-02 0.166D-01 0.222D-01-0.320D-01
 Coeff-Com: -0.189D+00-0.100D+00 0.522D+00 0.754D+00
 Coeff:     -0.656D-03 0.982D-03 0.588D-02 0.166D-01 0.222D-01-0.320D-01
 Coeff:     -0.189D+00-0.100D+00 0.522D+00 0.754D+00
 Gap=     0.095 Goal=   None    Shift=    0.000
 Gap=     0.131 Goal=   None    Shift=    0.000
 RMSDP=3.20D-06 MaxDP=1.03D-03 DE=-1.83D-05 OVMax= 2.24D-03

 Cycle  11  Pass 1  IDiag  1:
 RMSU=  8.75D-07    CP:  9.79D-01  2.67D+00  9.57D-01  9.88D-01  1.56D+00
                    CP:  2.08D+00  2.61D+00  2.10D+00  1.80D+00  1.25D+00
 E= -2221.66646196433     Delta-E=       -0.000002770255 Rises=F Damp=F
 DIIS: error= 1.17D-05 at cycle  11 NSaved=  11.
 NSaved=11 IEnMin=11 EnMin= -2221.66646196433     IErMin=11 ErrMin= 1.17D-05
 ErrMax= 1.17D-05  0.00D+00 EMaxC= 1.00D-01 BMatC= 5.44D-07 BMatP= 3.53D-06
 IDIUse=1 WtCom= 1.00D+00 WtEn= 0.00D+00
 Coeff-Com: -0.653D-04 0.554D-04 0.909D-03 0.370D-02 0.975D-02 0.202D-01
 Coeff-Com: -0.305D-01-0.914D-01-0.481D-02 0.263D+00 0.829D+00
 Coeff:     -0.653D-04 0.554D-04 0.909D-03 0.370D-02 0.975D-02 0.202D-01
 Coeff:     -0.305D-01-0.914D-01-0.481D-02 0.263D+00 0.829D+00
 Gap=     0.095 Goal=   None    Shift=    0.000
 Gap=     0.131 Goal=   None    Shift=    0.000
 RMSDP=7.99D-07 MaxDP=1.95D-04 DE=-2.77D-06 OVMax= 4.53D-04

 Cycle  12  Pass 1  IDiag  1:
 RMSU=  4.06D-07    CP:  9.79D-01  2.67D+00  9.57D-01  9.89D-01  1.56D+00
                    CP:  2.09D+00  2.63D+00  2.13D+00  1.89D+00  1.43D+00
                    CP:  1.27D+00
 E= -2221.66646239788     Delta-E=       -0.000000433544 Rises=F Damp=F
 DIIS: error= 7.48D-06 at cycle  12 NSaved=  12.
 NSaved=12 IEnMin=12 EnMin= -2221.66646239788     IErMin=12 ErrMin= 7.48D-06
 ErrMax= 7.48D-06  0.00D+00 EMaxC= 1.00D-01 BMatC= 1.63D-07 BMatP= 5.44D-07
 IDIUse=1 WtCom= 1.00D+00 WtEn= 0.00D+00
 Coeff-Com:  0.138D-03-0.226D-03-0.113D-02-0.268D-02-0.168D-02 0.172D-01
 Coeff-Com:  0.319D-01-0.816D-02-0.133D+00-0.853D-01 0.357D+00 0.826D+00
 Coeff:      0.138D-03-0.226D-03-0.113D-02-0.268D-02-0.168D-02 0.172D-01
 Coeff:      0.319D-01-0.816D-02-0.133D+00-0.853D-01 0.357D+00 0.826D+00
 Gap=     0.095 Goal=   None    Shift=    0.000
 Gap=     0.131 Goal=   None    Shift=    0.000
 RMSDP=4.10D-07 MaxDP=9.68D-05 DE=-4.34D-07 OVMax= 3.38D-04

 Cycle  13  Pass 1  IDiag  1:
 RMSU=  1.81D-07    CP:  9.79D-01  2.67D+00  9.57D-01  9.89D-01  1.56D+00
                    CP:  2.09D+00  2.63D+00  2.14D+00  1.92D+00  1.53D+00
                    CP:  1.51D+00  1.45D+00
 E= -2221.66646253887     Delta-E=       -0.000000140993 Rises=F Damp=F
 DIIS: error= 3.81D-06 at cycle  13 NSaved=  13.
 NSaved=13 IEnMin=13 EnMin= -2221.66646253887     IErMin=13 ErrMin= 3.81D-06
 ErrMax= 3.81D-06  0.00D+00 EMaxC= 1.00D-01 BMatC= 3.68D-08 BMatP= 1.63D-07
 IDIUse=1 WtCom= 1.00D+00 WtEn= 0.00D+00
 Coeff-Com:  0.619D-04-0.900D-04-0.575D-03-0.174D-02-0.278D-02 0.200D-02
 Coeff-Com:  0.163D-01 0.212D-01-0.454D-01-0.944D-01-0.815D-01 0.290D+00
 Coeff-Com:  0.897D+00
 Coeff:      0.619D-04-0.900D-04-0.575D-03-0.174D-02-0.278D-02 0.200D-02
 Coeff:      0.163D-01 0.212D-01-0.454D-01-0.944D-01-0.815D-01 0.290D+00
 Coeff:      0.897D+00
 Gap=     0.095 Goal=   None    Shift=    0.000
 Gap=     0.131 Goal=   None    Shift=    0.000
 RMSDP=2.54D-07 MaxDP=2.89D-05 DE=-1.41D-07 OVMax= 1.86D-04

 Cycle  14  Pass 1  IDiag  1:
 RMSU=  1.09D-07    CP:  9.79D-01  2.67D+00  9.57D-01  9.89D-01  1.56D+00
                    CP:  2.09D+00  2.63D+00  2.14D+00  1.92D+00  1.57D+00
                    CP:  1.67D+00  1.75D+00  1.50D+00
 E= -2221.66646257763     Delta-E=       -0.000000038754 Rises=F Damp=F
 DIIS: error= 1.72D-06 at cycle  14 NSaved=  14.
 NSaved=14 IEnMin=14 EnMin= -2221.66646257763     IErMin=14 ErrMin= 1.72D-06
 ErrMax= 1.72D-06  0.00D+00 EMaxC= 1.00D-01 BMatC= 8.76D-09 BMatP= 3.68D-08
 IDIUse=1 WtCom= 1.00D+00 WtEn= 0.00D+00
 Coeff-Com: -0.926D-05 0.194D-04 0.584D-04-0.209D-04-0.655D-03-0.331D-02
 Coeff-Com: -0.247D-02 0.107D-01 0.145D-01-0.132D-01-0.114D+00-0.943D-01
 Coeff-Com:  0.313D+00 0.889D+00
 Coeff:     -0.926D-05 0.194D-04 0.584D-04-0.209D-04-0.655D-03-0.331D-02
 Coeff:     -0.247D-02 0.107D-01 0.145D-01-0.132D-01-0.114D+00-0.943D-01
 Coeff:      0.313D+00 0.889D+00
 Gap=     0.095 Goal=   None    Shift=    0.000
 Gap=     0.131 Goal=   None    Shift=    0.000
 RMSDP=1.22D-07 MaxDP=1.81D-05 DE=-3.88D-08 OVMax= 8.80D-05

 Cycle  15  Pass 1  IDiag  1:
 RMSU=  5.36D-08    CP:  9.79D-01  2.67D+00  9.57D-01  9.89D-01  1.56D+00
                    CP:  2.09D+00  2.63D+00  2.14D+00  1.92D+00  1.59D+00
                    CP:  1.71D+00  1.93D+00  1.82D+00  1.29D+00
 E= -2221.66646258735     Delta-E=       -0.000000009724 Rises=F Damp=F
 DIIS: error= 7.02D-07 at cycle  15 NSaved=  15.
 NSaved=15 IEnMin=15 EnMin= -2221.66646258735     IErMin=15 ErrMin= 7.02D-07
 ErrMax= 7.02D-07  0.00D+00 EMaxC= 1.00D-01 BMatC= 2.25D-09 BMatP= 8.76D-09
 IDIUse=1 WtCom= 1.00D+00 WtEn= 0.00D+00
 Coeff-Com: -0.173D-04 0.270D-04 0.158D-03 0.412D-03 0.467D-03-0.162D-02
 Coeff-Com: -0.516D-02-0.126D-02 0.160D-01 0.187D-01-0.183D-01-0.108D+00
 Coeff-Com: -0.118D+00 0.335D+00 0.881D+00
 Coeff:     -0.173D-04 0.270D-04 0.158D-03 0.412D-03 0.467D-03-0.162D-02
 Coeff:     -0.516D-02-0.126D-02 0.160D-01 0.187D-01-0.183D-01-0.108D+00
 Coeff:     -0.118D+00 0.335D+00 0.881D+00
 Gap=     0.095 Goal=   None    Shift=    0.000
 Gap=     0.131 Goal=   None    Shift=    0.000
 RMSDP=6.52D-08 MaxDP=1.49D-05 DE=-9.72D-09 OVMax= 4.35D-05

 Cycle  16  Pass 1  IDiag  1:
 RMSU=  2.83D-08    CP:  9.79D-01  2.67D+00  9.57D-01  9.89D-01  1.56D+00
                    CP:  2.09D+00  2.63D+00  2.14D+00  1.92D+00  1.59D+00
                    CP:  1.72D+00  1.99D+00  1.98D+00  1.56D+00  1.34D+00
 E= -2221.66646258963     Delta-E=       -0.000000002281 Rises=F Damp=F
 DIIS: error= 3.96D-07 at cycle  16 NSaved=  16.
 NSaved=16 IEnMin=16 EnMin= -2221.66646258963     IErMin=16 ErrMin= 3.96D-07
 ErrMax= 3.96D-07  0.00D+00 EMaxC= 1.00D-01 BMatC= 7.73D-10 BMatP= 2.25D-09
 IDIUse=1 WtCom= 1.00D+00 WtEn= 0.00D+00
 Coeff-Com: -0.774D-05 0.111D-04 0.652D-04 0.211D-03 0.381D-03-0.540D-04
 Coeff-Com: -0.204D-02-0.300D-02 0.458D-02 0.119D-01 0.159D-01-0.355D-01
 Coeff-Com: -0.131D+00-0.155D-01 0.452D+00 0.703D+00
 Coeff:     -0.774D-05 0.111D-04 0.652D-04 0.211D-03 0.381D-03-0.540D-04
 Coeff:     -0.204D-02-0.300D-02 0.458D-02 0.119D-01 0.159D-01-0.355D-01
 Coeff:     -0.131D+00-0.155D-01 0.452D+00 0.703D+00
 Gap=     0.095 Goal=   None    Shift=    0.000
 Gap=     0.131 Goal=   None    Shift=    0.000
 RMSDP=2.90D-08 MaxDP=5.99D-06 DE=-2.28D-09 OVMax= 1.54D-05

 Cycle  17  Pass 1  IDiag  1:
 RMSU=  1.56D-08    CP:  9.79D-01  2.67D+00  9.57D-01  9.89D-01  1.56D+00
                    CP:  2.09D+00  2.63D+00  2.14D+00  1.92D+00  1.59D+00
                    CP:  1.73D+00  2.01D+00  2.04D+00  1.65D+00  1.60D+00
                    CP:  1.13D+00
 E= -2221.66646259031     Delta-E=       -0.000000000682 Rises=F Damp=F
 DIIS: error= 2.33D-07 at cycle  17 NSaved=  17.
 NSaved=17 IEnMin=17 EnMin= -2221.66646259031     IErMin=17 ErrMin= 2.33D-07
 ErrMax= 2.33D-07  0.00D+00 EMaxC= 1.00D-01 BMatC= 2.25D-10 BMatP= 7.73D-10
 IDIUse=1 WtCom= 1.00D+00 WtEn= 0.00D+00
 Coeff-Com:  0.731D-06-0.164D-05-0.127D-04-0.973D-05 0.603D-04 0.454D-03
 Coeff-Com:  0.452D-03-0.126D-02-0.236D-02 0.497D-03 0.142D-01 0.134D-01
 Coeff-Com: -0.356D-01-0.102D+00-0.379D-01 0.376D+00 0.774D+00
 Coeff:      0.731D-06-0.164D-05-0.127D-04-0.973D-05 0.603D-04 0.454D-03
 Coeff:      0.452D-03-0.126D-02-0.236D-02 0.497D-03 0.142D-01 0.134D-01
 Coeff:     -0.356D-01-0.102D+00-0.379D-01 0.376D+00 0.774D+00
 Gap=     0.095 Goal=   None    Shift=    0.000
 Gap=     0.131 Goal=   None    Shift=    0.000
 RMSDP=1.76D-08 MaxDP=3.76D-06 DE=-6.82D-10 OVMax= 1.15D-05

 Cycle  18  Pass 1  IDiag  1:
 RMSU=  7.95D-09    CP:  9.79D-01  2.67D+00  9.57D-01  9.89D-01  1.56D+00
                    CP:  2.09D+00  2.63D+00  2.14D+00  1.92D+00  1.59D+00
                    CP:  1.73D+00  2.01D+00  2.06D+00  1.70D+00  1.73D+00
                    CP:  1.49D+00  1.26D+00
 E= -2221.66646259016     Delta-E=        0.000000000154 Rises=F Damp=F
 DIIS: error= 1.20D-07 at cycle  18 NSaved=  18.
 NSaved=18 IEnMin=17 EnMin= -2221.66646259031     IErMin=18 ErrMin= 1.20D-07
 ErrMax= 1.20D-07  0.00D+00 EMaxC= 1.00D-01 BMatC= 5.88D-11 BMatP= 2.25D-10
 IDIUse=1 WtCom= 1.00D+00 WtEn= 0.00D+00
 Coeff-Com:  0.235D-05-0.367D-05-0.212D-04-0.549D-04-0.678D-04 0.202D-03
 Coeff-Com:  0.706D-03 0.137D-03-0.204D-02-0.286D-02 0.264D-02 0.151D-01
 Coeff-Com:  0.160D-01-0.368D-01-0.139D+00 0.435D-02 0.361D+00 0.781D+00
 Coeff:      0.235D-05-0.367D-05-0.212D-04-0.549D-04-0.678D-04 0.202D-03
 Coeff:      0.706D-03 0.137D-03-0.204D-02-0.286D-02 0.264D-02 0.151D-01
 Coeff:      0.160D-01-0.368D-01-0.139D+00 0.435D-02 0.361D+00 0.781D+00
 Gap=     0.095 Goal=   None    Shift=    0.000
 Gap=     0.131 Goal=   None    Shift=    0.000
 RMSDP=9.75D-09 MaxDP=1.72D-06 DE= 1.54D-10 OVMax= 7.61D-06

 Cycle  19  Pass 1  IDiag  1:
 RMSU=  4.14D-09    CP:  9.79D-01  2.67D+00  9.57D-01  9.89D-01  1.56D+00
                    CP:  2.09D+00  2.63D+00  2.14D+00  1.92D+00  1.59D+00
                    CP:  1.73D+00  2.01D+00  2.06D+00  1.70D+00  1.79D+00
                    CP:  1.65D+00  1.60D+00  1.43D+00
 E= -2221.66646259005     Delta-E=        0.000000000106 Rises=F Damp=F
 DIIS: error= 7.39D-08 at cycle  19 NSaved=  19.
 NSaved=19 IEnMin=17 EnMin= -2221.66646259031     IErMin=19 ErrMin= 7.39D-08
 ErrMax= 7.39D-08  0.00D+00 EMaxC= 1.00D-01 BMatC= 1.82D-11 BMatP= 5.88D-11
 IDIUse=1 WtCom= 1.00D+00 WtEn= 0.00D+00
 Coeff-Com:  0.315D-06-0.259D-06-0.640D-06-0.126D-04-0.427D-04-0.105D-03
 Coeff-Com:  0.980D-04 0.435D-03 0.291D-03-0.117D-02-0.415D-02-0.312D-03
 Coeff-Com:  0.154D-01 0.276D-01-0.308D-01-0.117D+00-0.153D+00 0.174D+00
 Coeff-Com:  0.109D+01
 Coeff:      0.315D-06-0.259D-06-0.640D-06-0.126D-04-0.427D-04-0.105D-03
 Coeff:      0.980D-04 0.435D-03 0.291D-03-0.117D-02-0.415D-02-0.312D-03
 Coeff:      0.154D-01 0.276D-01-0.308D-01-0.117D+00-0.153D+00 0.174D+00
 Coeff:      0.109D+01
 Gap=     0.095 Goal=   None    Shift=    0.000
 Gap=     0.131 Goal=   None    Shift=    0.000
 RMSDP=8.75D-09 MaxDP=1.52D-06 DE= 1.06D-10 OVMax= 9.95D-06

 Cycle  20  Pass 1  IDiag  1:
 RMSU=  2.49D-09    CP:  9.79D-01  2.67D+00  9.57D-01  9.89D-01  1.56D+00
                    CP:  2.09D+00  2.63D+00  2.14D+00  1.92D+00  1.59D+00
                    CP:  1.73D+00  2.00D+00  2.06D+00  1.71D+00  1.81D+00
                    CP:  1.78D+00  1.87D+00  2.02D+00  1.79D+00
 E= -2221.66646259054     Delta-E=       -0.000000000486 Rises=F Damp=F
 DIIS: error= 5.25D-08 at cycle  20 NSaved=  20.
 NSaved=20 IEnMin=20 EnMin= -2221.66646259054     IErMin=20 ErrMin= 5.25D-08
 ErrMax= 5.25D-08  0.00D+00 EMaxC= 1.00D-01 BMatC= 7.60D-12 BMatP= 1.82D-11
 IDIUse=1 WtCom= 1.00D+00 WtEn= 0.00D+00
 Coeff-Com: -0.584D-06 0.104D-05 0.913D-05 0.180D-04 0.113D-04-0.132D-03
 Coeff-Com: -0.243D-03 0.664D-04 0.100D-02 0.741D-03-0.246D-02-0.610D-02
 Coeff-Com: -0.173D-02 0.248D-01 0.441D-01-0.431D-01-0.209D+00-0.263D+00
 Coeff-Com:  0.400D+00 0.105D+01
 Coeff:     -0.584D-06 0.104D-05 0.913D-05 0.180D-04 0.113D-04-0.132D-03
 Coeff:     -0.243D-03 0.664D-04 0.100D-02 0.741D-03-0.246D-02-0.610D-02
 Coeff:     -0.173D-02 0.248D-01 0.441D-01-0.431D-01-0.209D+00-0.263D+00
 Coeff:      0.400D+00 0.105D+01
 Gap=     0.095 Goal=   None    Shift=    0.000
 Gap=     0.131 Goal=   None    Shift=    0.000
 RMSDP=7.05D-09 MaxDP=1.35D-06 DE=-4.86D-10 OVMax= 8.25D-06

 Cycle  21  Pass 1  IDiag  1:
 Restarting incremental Fock formation.
 E= -2221.66646259057     Delta-E=       -0.000000000033 Rises=F Damp=F
 DIIS: error= 3.65D-08 at cycle  21 NSaved=  20.
 NSaved=20 IEnMin=20 EnMin= -2221.66646259057     IErMin=20 ErrMin= 3.65D-08
 ErrMax= 3.65D-08  0.00D+00 EMaxC= 1.00D-01 BMatC= 2.89D-12 BMatP= 7.60D-12
 IDIUse=1 WtCom= 1.00D+00 WtEn= 0.00D+00
 Coeff-Com: -0.498D-08 0.227D-05 0.709D-05 0.150D-04 0.193D-05-0.756D-04
 Coeff-Com: -0.127D-03 0.128D-03 0.548D-03 0.793D-03-0.124D-02-0.570D-02
 Coeff-Com: -0.356D-02 0.208D-01 0.287D-01-0.621D-02-0.116D+00-0.271D+00
 Coeff-Com:  0.320D+00 0.103D+01
 Coeff:     -0.498D-08 0.227D-05 0.709D-05 0.150D-04 0.193D-05-0.756D-04
 Coeff:     -0.127D-03 0.128D-03 0.548D-03 0.793D-03-0.124D-02-0.570D-02
 Coeff:     -0.356D-02 0.208D-01 0.287D-01-0.621D-02-0.116D+00-0.271D+00
 Coeff:      0.320D+00 0.103D+01
 Gap=     0.095 Goal=   None    Shift=    0.000
 Gap=     0.131 Goal=   None    Shift=    0.000
 RMSDP=6.52D-09 MaxDP=6.62D-07 DE=-3.27D-11 OVMax= 4.55D-06

 Error on total polarization charges =  0.02346
 SCF Done:  E(UM062X) =  -2221.66646259     A.U. after   21 cycles
            NFock= 21  Conv=0.65D-08     -V/T= 2.0052
 <Sx>= 0.0000 <Sy>= 0.0000 <Sz>= 0.5000 <S**2>= 0.8283 S= 0.5384
 <L.S>= 0.000000000000E+00
 KE= 2.210095109253D+03 PE=-1.557471344507D+04 EE= 5.962828876397D+03
 Annihilation of the first spin contaminant:
 S**2 before annihilation     0.8283,   after     0.7544
 Leave Link  502 at Tue Oct 28 20:54:40 2025, MaxMem= 30870077440 cpu:          115767.9 elap:            1830.8
 (Enter /public/software/gauss/g16/l601.exe)
 Copying SCF densities to generalized density rwf, IOpCl= 1 IROHF=0.

 **********************************************************************

            Population analysis using the SCF density.

 **********************************************************************

 Orbital symmetries:
 Alpha Orbitals:
       Occupied  (A) (A) (A) (A) (A) (A) (A) (A) (A) (A) (A) (A)
                 (A) (A) (A) (A) (A) (A) (A) (A) (A) (A) (A) (A)
                 (A) (A) (A) (A) (A) (A) (A) (A) (A) (A) (A) (A)
                 (A) (A) (A) (A) (A) (A) (A) (A) (A) (A) (A) (A)
                 (A) (A) (A) (A) (A) (A) (A) (A) (A) (A) (A) (A)
                 (A) (A) (A) (A) (A) (A) (A) (A) (A) (A) (A) (A)
                 (A) (A) (A) (A) (A) (A) (A) (A) (A) (A) (A) (A)
                 (A) (A) (A) (A) (A) (A) (A) (A) (A) (A) (A) (A)
                 (A) (A) (A) (A) (A) (A) (A) (A) (A) (A) (A) (A)
                 (A) (A) (A) (A) (A) (A) (A) (A) (A) (A) (A) (A)
                 (A) (A) (A) (A) (A) (A) (A) (A) (A) (A) (A) (A)
                 (A) (A) (A) (A) (A) (A) (A) (A) (A) (A) (A) (A)
                 (A) (A) (A) (A) (A) (A) (A) (A) (A) (A) (A) (A)
                 (A) (A) (A) (A) (A) (A) (A) (A) (A)
       Virtual   (A) (A) (A) (A) (A) (A) (A) (A) (A) (A) (A) (A)
                 (A) (A) (A) (A) (A) (A) (A) (A) (A) (A) (A) (A)
                 (A) (A) (A) (A) (A) (A) (A) (A) (A) (A) (A) (A)
                 (A) (A) (A) (A) (A) (A) (A) (A) (A) (A) (A) (A)
                 (A) (A) (A) (A) (A) (A) (A) (A) (A) (A) (A) (A)
                 (A) (A) (A) (A) (A) (A) (A) (A) (A) (A) (A) (A)
                 (A) (A) (A) (A) (A) (A) (A) (A) (A) (A) (A) (A)
                 (A) (A) (A) (A) (A) (A) (A) (A) (A) (A) (A) (A)
                 (A) (A) (A) (A) (A) (A) (A) (A) (A) (A) (A) (A)
                 (A) (A) (A) (A) (A) (A) (A) (A) (A) (A) (A) (A)
                 (A) (A) (A) (A) (A) (A) (A) (A) (A) (A) (A) (A)
                 (A) (A) (A) (A) (A) (A) (A) (A) (A) (A) (A) (A)
                 (A) (A) (A) (A) (A) (A) (A) (A) (A) (A) (A) (A)
                 (A) (A) (A) (A) (A) (A) (A) (A) (A) (A) (A) (A)
                 (A) (A) (A) (A) (A) (A) (A) (A) (A) (A) (A) (A)
                 (A) (A) (A) (A) (A) (A) (A) (A) (A) (A) (A) (A)
                 (A) (A) (A) (A) (A) (A) (A) (A) (A) (A) (A) (A)
                 (A) (A) (A) (A) (A) (A) (A) (A) (A) (A) (A) (A)
                 (A) (A) (A) (A) (A) (A) (A) (A) (A) (A) (A) (A)
                 (A) (A) (A) (A) (A) (A) (A) (A) (A) (A) (A) (A)
                 (A) (A) (A) (A) (A) (A) (A) (A) (A) (A) (A) (A)
                 (A) (A) (A) (A) (A) (A) (A) (A) (A) (A) (A) (A)
                 (A) (A) (A) (A) (A) (A) (A) (A) (A) (A) (A) (A)
                 (A) (A) (A) (A) (A) (A) (A) (A) (A) (A) (A) (A)
                 (A) (A) (A) (A) (A) (A) (A) (A) (A) (A) (A) (A)
                 (A) (A) (A) (A) (A) (A) (A) (A) (A) (A) (A) (A)
                 (A) (A) (A) (A) (A) (A) (A) (A) (A) (A) (A) (A)
                 (A) (A) (A) (A) (A) (A) (A) (A) (A) (A) (A) (A)
                 (A) (A) (A) (A) (A) (A) (A) (A) (A) (A) (A) (A)
                 (A) (A) (A) (A) (A) (A) (A) (A) (A) (A) (A) (A)
                 (A) (A) (A) (A) (A) (A) (A) (A) (A) (A) (A) (A)
                 (A) (A) (A) (A) (A) (A) (A) (A) (A) (A) (A) (A)
                 (A) (A) (A) (A) (A) (A) (A) (A) (A) (A) (A) (A)
                 (A) (A) (A) (A) (A) (A) (A) (A) (A) (A) (A) (A)
                 (A) (A) (A) (A) (A) (A) (A) (A) (A) (A) (A) (A)
                 (A) (A) (A) (A) (A) (A) (A) (A) (A) (A) (A) (A)
                 (A) (A) (A) (A) (A) (A) (A) (A) (A) (A) (A) (A)
                 (A) (A) (A) (A) (A) (A) (A) (A) (A) (A) (A) (A)
                 (A) (A) (A) (A) (A) (A) (A) (A) (A) (A) (A) (A)
                 (A) (A) (A) (A) (A) (A) (A) (A) (A) (A) (A) (A)
                 (A) (A) (A) (A) (A) (A) (A) (A) (A) (A) (A) (A)
                 (A) (A) (A) (A) (A) (A) (A) (A) (A) (A) (A) (A)
                 (A) (A) (A) (A) (A) (A) (A) (A) (A) (A) (A) (A)
                 (A) (A) (A) (A) (A) (A) (A) (A) (A) (A) (A) (A)
                 (A) (A) (A) (A) (A) (A) (A) (A) (A) (A) (A) (A)
                 (A) (A) (A) (A) (A) (A) (A) (A) (A) (A) (A) (A)
                 (A) (A) (A) (A) (A) (A) (A) (A) (A) (A) (A) (A)
                 (A) (A) (A) (A) (A) (A) (A) (A) (A) (A) (A) (A)
                 (A) (A) (A) (A) (A) (A) (A) (A) (A) (A) (A) (A)
                 (A) (A) (A) (A) (A) (A) (A) (A) (A) (A) (A) (A)
                 (A) (A) (A) (A) (A) (A) (A) (A) (A) (A) (A) (A)
                 (A) (A) (A) (A) (A) (A) (A) (A) (A) (A) (A) (A)
                 (A) (A) (A) (A) (A) (A) (A) (A) (A) (A) (A) (A)
                 (A) (A) (A) (A) (A) (A) (A) (A) (A) (A) (A) (A)
                 (A) (A) (A) (A) (A) (A) (A) (A) (A) (A) (A) (A)
                 (A) (A) (A) (A) (A) (A) (A) (A) (A) (A) (A) (A)
                 (A) (A) (A) (A) (A) (A) (A) (A) (A) (A) (A) (A)
                 (A) (A) (A) (A) (A) (A) (A) (A) (A) (A) (A) (A)
                 (A) (A) (A) (A) (A) (A) (A) (A) (A) (A) (A) (A)
                 (A) (A) (A) (A) (A) (A) (A) (A) (A) (A) (A) (A)
                 (A) (A) (A) (A) (A) (A) (A) (A) (A) (A) (A) (A)
                 (A) (A) (A) (A) (A) (A) (A) (A) (A) (A) (A) (A)
                 (A) (A) (A) (A) (A) (A) (A) (A) (A) (A) (A) (A)
                 (A) (A) (A) (A) (A) (A) (A) (A) (A) (A) (A) (A)
                 (A) (A) (A) (A) (A) (A) (A) (A) (A) (A) (A) (A)
                 (A) (A) (A) (A) (A) (A) (A) (A) (A) (A) (A) (A)
                 (A) (A) (A) (A) (A) (A) (A) (A) (A) (A) (A) (A)
                 (A) (A) (A) (A) (A) (A) (A) (A) (A) (A) (A) (A)
                 (A) (A) (A) (A) (A) (A) (A) (A) (A) (A) (A) (A)
                 (A) (A) (A) (A) (A) (A) (A) (A) (A) (A) (A) (A)
                 (A) (A) (A) (A) (A) (A) (A) (A) (A) (A) (A) (A)
                 (A) (A) (A) (A) (A) (A) (A) (A) (A) (A) (A) (A)
                 (A) (A) (A) (A) (A) (A) (A) (A) (A) (A) (A) (A)
                 (A) (A) (A) (A) (A) (A) (A) (A) (A) (A) (A) (A)
                 (A) (A) (A) (A) (A) (A) (A) (A) (A) (A) (A) (A)
                 (A) (A) (A) (A) (A) (A) (A) (A) (A) (A) (A) (A)
                 (A) (A) (A) (A) (A) (A) (A) (A) (A) (A) (A) (A)
                 (A) (A) (A) (A) (A) (A) (A) (A) (A) (A) (A) (A)
                 (A) (A) (A) (A) (A) (A) (A) (A) (A) (A) (A) (A)
                 (A) (A) (A) (A) (A) (A) (A) (A) (A) (A) (A) (A)
                 (A) (A) (A) (A) (A) (A) (A) (A) (A) (A) (A) (A)
                 (A) (A) (A) (A) (A) (A) (A) (A) (A) (A) (A) (A)
                 (A) (A) (A) (A) (A) (A) (A) (A) (A) (A) (A) (A)
                 (A) (A) (A) (A) (A) (A) (A) (A) (A) (A) (A) (A)
                 (A) (A) (A) (A) (A) (A) (A) (A) (A) (A) (A) (A)
                 (A) (A) (A) (A) (A) (A) (A) (A) (A) (A) (A) (A)
                 (A) (A) (A) (A) (A) (A) (A) (A) (A) (A) (A) (A)
                 (A) (A) (A) (A) (A) (A) (A) (A) (A) (A) (A) (A)
                 (A) (A) (A) (A) (A) (A) (A) (A) (A) (A) (A) (A)
                 (A) (A) (A) (A) (A) (A) (A) (A) (A) (A) (A) (A)
                 (A) (A) (A) (A) (A) (A) (A) (A) (A) (A) (A) (A)
                 (A) (A) (A) (A) (A) (A) (A) (A) (A) (A) (A) (A)
                 (A) (A) (A) (A) (A) (A) (A) (A) (A) (A) (A) (A)
                 (A) (A) (A) (A) (A) (A) (A) (A) (A) (A) (A) (A)
                 (A) (A) (A) (A) (A) (A) (A) (A) (A) (A) (A) (A)
                 (A) (A) (A) (A) (A) (A) (A) (A) (A) (A) (A) (A)
                 (A) (A) (A) (A) (A) (A) (A) (A) (A) (A) (A) (A)
                 (A) (A) (A) (A) (A) (A) (A) (A) (A) (A) (A) (A)
                 (A) (A) (A) (A) (A) (A) (A) (A) (A) (A) (A) (A)
                 (A) (A) (A) (A) (A) (A) (A) (A) (A) (A) (A) (A)
                 (A) (A) (A) (A) (A) (A) (A) (A) (A) (A) (A) (A)
                 (A) (A) (A) (A) (A) (A) (A) (A) (A) (A) (A) (A)
                 (A) (A) (A) (A) (A) (A) (A) (A) (A) (A) (A) (A)
                 (A) (A) (A) (A) (A) (A) (A) (A) (A) (A) (A) (A)
                 (A) (A) (A) (A) (A) (A) (A) (A) (A) (A) (A) (A)
                 (A) (A) (A) (A) (A) (A) (A) (A) (A) (A) (A) (A)
                 (A) (A) (A) (A) (A) (A) (A) (A) (A) (A) (A) (A)
                 (A) (A) (A) (A) (A) (A) (A) (A) (A) (A) (A) (A)
                 (A) (A) (A) (A) (A) (A) (A) (A) (A) (A) (A) (A)
                 (A) (A) (A) (A) (A) (A) (A) (A) (A) (A) (A) (A)
                 (A) (A) (A) (A) (A) (A) (A) (A) (A) (A) (A) (A)
                 (A) (A) (A) (A) (A) (A) (A) (A) (A) (A) (A) (A)
                 (A) (A) (A) (A) (A) (A) (A) (A) (A) (A) (A) (A)
                 (A) (A) (A) (A) (A) (A) (A) (A) (A) (A) (A) (A)
                 (A) (A) (A) (A) (A) (A) (A) (A) (A) (A) (A) (A)
                 (A) (A) (A) (A) (A) (A) (A) (A) (A) (A) (A) (A)
                 (A) (A) (A) (A) (A) (A) (A) (A) (A) (A) (A) (A)
                 (A) (A) (A) (A) (A) (A) (A) (A) (A) (A) (A) (A)
                 (A) (A) (A) (A) (A) (A) (A) (A) (A) (A) (A) (A)
                 (A) (A) (A) (A) (A) (A) (A) (A) (A) (A) (A) (A)
                 (A) (A) (A) (A) (A) (A) (A) (A) (A) (A) (A) (A)
                 (A) (A) (A) (A) (A) (A) (A) (A) (A) (A) (A) (A)
                 (A) (A) (A) (A) (A) (A) (A) (A) (A) (A) (A) (A)
                 (A) (A) (A) (A) (A) (A) (A) (A) (A) (A) (A) (A)
                 (A) (A) (A) (A) (A) (A) (A) (A) (A) (A) (A) (A)
                 (A) (A) (A) (A) (A) (A) (A) (A) (A) (A) (A) (A)
                 (A) (A) (A) (A) (A) (A) (A) (A) (A) (A) (A) (A)
                 (A) (A) (A) (A) (A) (A) (A) (A) (A) (A) (A) (A)
                 (A) (A) (A) (A) (A) (A) (A) (A) (A) (A) (A) (A)
                 (A) (A) (A) (A) (A) (A) (A) (A) (A) (A) (A) (A)
                 (A) (A) (A) (A) (A) (A) (A) (A) (A) (A) (A) (A)
                 (A) (A) (A) (A) (A) (A) (A) (A) (A) (A) (A) (A)
                 (A) (A) (A) (A) (A) (A) (A) (A) (A) (A) (A) (A)
                 (A) (A) (A) (A) (A) (A) (A) (A) (A) (A) (A) (A)
                 (A) (A) (A) (A) (A) (A) (A) (A) (A) (A) (A) (A)
                 (A) (A) (A) (A) (A) (A) (A) (A)
 Beta  Orbitals:
       Occupied  (A) (A) (A) (A) (A) (A) (A) (A) (A) (A) (A) (A)
                 (A) (A) (A) (A) (A) (A) (A) (A) (A) (A) (A) (A)
                 (A) (A) (A) (A) (A) (A) (A) (A) (A) (A) (A) (A)
                 (A) (A) (A) (A) (A) (A) (A) (A) (A) (A) (A) (A)
                 (A) (A) (A) (A) (A) (A) (A) (A) (A) (A) (A) (A)
                 (A) (A) (A) (A) (A) (A) (A) (A) (A) (A) (A) (A)
                 (A) (A) (A) (A) (A) (A) (A) (A) (A) (A) (A) (A)
                 (A) (A) (A) (A) (A) (A) (A) (A) (A) (A) (A) (A)
                 (A) (A) (A) (A) (A) (A) (A) (A) (A) (A) (A) (A)
                 (A) (A) (A) (A) (A) (A) (A) (A) (A) (A) (A) (A)
                 (A) (A) (A) (A) (A) (A) (A) (A) (A) (A) (A) (A)
                 (A) (A) (A) (A) (A) (A) (A) (A) (A) (A) (A) (A)
                 (A) (A) (A) (A) (A) (A) (A) (A) (A) (A) (A) (A)
                 (A) (A) (A) (A) (A) (A) (A) (A)
       Virtual   (A) (A) (A) (A) (A) (A) (A) (A) (A) (A) (A) (A)
                 (A) (A) (A) (A) (A) (A) (A) (A) (A) (A) (A) (A)
                 (A) (A) (A) (A) (A) (A) (A) (A) (A) (A) (A) (A)
                 (A) (A) (A) (A) (A) (A) (A) (A) (A) (A) (A) (A)
                 (A) (A) (A) (A) (A) (A) (A) (A) (A) (A) (A) (A)
                 (A) (A) (A) (A) (A) (A) (A) (A) (A) (A) (A) (A)
                 (A) (A) (A) (A) (A) (A) (A) (A) (A) (A) (A) (A)
                 (A) (A) (A) (A) (A) (A) (A) (A) (A) (A) (A) (A)
                 (A) (A) (A) (A) (A) (A) (A) (A) (A) (A) (A) (A)
                 (A) (A) (A) (A) (A) (A) (A) (A) (A) (A) (A) (A)
                 (A) (A) (A) (A) (A) (A) (A) (A) (A) (A) (A) (A)
                 (A) (A) (A) (A) (A) (A) (A) (A) (A) (A) (A) (A)
                 (A) (A) (A) (A) (A) (A) (A) (A) (A) (A) (A) (A)
                 (A) (A) (A) (A) (A) (A) (A) (A) (A) (A) (A) (A)
                 (A) (A) (A) (A) (A) (A) (A) (A) (A) (A) (A) (A)
                 (A) (A) (A) (A) (A) (A) (A) (A) (A) (A) (A) (A)
                 (A) (A) (A) (A) (A) (A) (A) (A) (A) (A) (A) (A)
                 (A) (A) (A) (A) (A) (A) (A) (A) (A) (A) (A) (A)
                 (A) (A) (A) (A) (A) (A) (A) (A) (A) (A) (A) (A)
                 (A) (A) (A) (A) (A) (A) (A) (A) (A) (A) (A) (A)
                 (A) (A) (A) (A) (A) (A) (A) (A) (A) (A) (A) (A)
                 (A) (A) (A) (A) (A) (A) (A) (A) (A) (A) (A) (A)
                 (A) (A) (A) (A) (A) (A) (A) (A) (A) (A) (A) (A)
                 (A) (A) (A) (A) (A) (A) (A) (A) (A) (A) (A) (A)
                 (A) (A) (A) (A) (A) (A) (A) (A) (A) (A) (A) (A)
                 (A) (A) (A) (A) (A) (A) (A) (A) (A) (A) (A) (A)
                 (A) (A) (A) (A) (A) (A) (A) (A) (A) (A) (A) (A)
                 (A) (A) (A) (A) (A) (A) (A) (A) (A) (A) (A) (A)
                 (A) (A) (A) (A) (A) (A) (A) (A) (A) (A) (A) (A)
                 (A) (A) (A) (A) (A) (A) (A) (A) (A) (A) (A) (A)
                 (A) (A) (A) (A) (A) (A) (A) (A) (A) (A) (A) (A)
                 (A) (A) (A) (A) (A) (A) (A) (A) (A) (A) (A) (A)
                 (A) (A) (A) (A) (A) (A) (A) (A) (A) (A) (A) (A)
                 (A) (A) (A) (A) (A) (A) (A) (A) (A) (A) (A) (A)
                 (A) (A) (A) (A) (A) (A) (A) (A) (A) (A) (A) (A)
                 (A) (A) (A) (A) (A) (A) (A) (A) (A) (A) (A) (A)
                 (A) (A) (A) (A) (A) (A) (A) (A) (A) (A) (A) (A)
                 (A) (A) (A) (A) (A) (A) (A) (A) (A) (A) (A) (A)
                 (A) (A) (A) (A) (A) (A) (A) (A) (A) (A) (A) (A)
                 (A) (A) (A) (A) (A) (A) (A) (A) (A) (A) (A) (A)
                 (A) (A) (A) (A) (A) (A) (A) (A) (A) (A) (A) (A)
                 (A) (A) (A) (A) (A) (A) (A) (A) (A) (A) (A) (A)
                 (A) (A) (A) (A) (A) (A) (A) (A) (A) (A) (A) (A)
                 (A) (A) (A) (A) (A) (A) (A) (A) (A) (A) (A) (A)
                 (A) (A) (A) (A) (A) (A) (A) (A) (A) (A) (A) (A)
                 (A) (A) (A) (A) (A) (A) (A) (A) (A) (A) (A) (A)
                 (A) (A) (A) (A) (A) (A) (A) (A) (A) (A) (A) (A)
                 (A) (A) (A) (A) (A) (A) (A) (A) (A) (A) (A) (A)
                 (A) (A) (A) (A) (A) (A) (A) (A) (A) (A) (A) (A)
                 (A) (A) (A) (A) (A) (A) (A) (A) (A) (A) (A) (A)
                 (A) (A) (A) (A) (A) (A) (A) (A) (A) (A) (A) (A)
                 (A) (A) (A) (A) (A) (A) (A) (A) (A) (A) (A) (A)
                 (A) (A) (A) (A) (A) (A) (A) (A) (A) (A) (A) (A)
                 (A) (A) (A) (A) (A) (A) (A) (A) (A) (A) (A) (A)
                 (A) (A) (A) (A) (A) (A) (A) (A) (A) (A) (A) (A)
                 (A) (A) (A) (A) (A) (A) (A) (A) (A) (A) (A) (A)
                 (A) (A) (A) (A) (A) (A) (A) (A) (A) (A) (A) (A)
                 (A) (A) (A) (A) (A) (A) (A) (A) (A) (A) (A) (A)
                 (A) (A) (A) (A) (A) (A) (A) (A) (A) (A) (A) (A)
                 (A) (A) (A) (A) (A) (A) (A) (A) (A) (A) (A) (A)
                 (A) (A) (A) (A) (A) (A) (A) (A) (A) (A) (A) (A)
                 (A) (A) (A) (A) (A) (A) (A) (A) (A) (A) (A) (A)
                 (A) (A) (A) (A) (A) (A) (A) (A) (A) (A) (A) (A)
                 (A) (A) (A) (A) (A) (A) (A) (A) (A) (A) (A) (A)
                 (A) (A) (A) (A) (A) (A) (A) (A) (A) (A) (A) (A)
                 (A) (A) (A) (A) (A) (A) (A) (A) (A) (A) (A) (A)
                 (A) (A) (A) (A) (A) (A) (A) (A) (A) (A) (A) (A)
                 (A) (A) (A) (A) (A) (A) (A) (A) (A) (A) (A) (A)
                 (A) (A) (A) (A) (A) (A) (A) (A) (A) (A) (A) (A)
                 (A) (A) (A) (A) (A) (A) (A) (A) (A) (A) (A) (A)
                 (A) (A) (A) (A) (A) (A) (A) (A) (A) (A) (A) (A)
                 (A) (A) (A) (A) (A) (A) (A) (A) (A) (A) (A) (A)
                 (A) (A) (A) (A) (A) (A) (A) (A) (A) (A) (A) (A)
                 (A) (A) (A) (A) (A) (A) (A) (A) (A) (A) (A) (A)
                 (A) (A) (A) (A) (A) (A) (A) (A) (A) (A) (A) (A)
                 (A) (A) (A) (A) (A) (A) (A) (A) (A) (A) (A) (A)
                 (A) (A) (A) (A) (A) (A) (A) (A) (A) (A) (A) (A)
                 (A) (A) (A) (A) (A) (A) (A) (A) (A) (A) (A) (A)
                 (A) (A) (A) (A) (A) (A) (A) (A) (A) (A) (A) (A)
                 (A) (A) (A) (A) (A) (A) (A) (A) (A) (A) (A) (A)
                 (A) (A) (A) (A) (A) (A) (A) (A) (A) (A) (A) (A)
                 (A) (A) (A) (A) (A) (A) (A) (A) (A) (A) (A) (A)
                 (A) (A) (A) (A) (A) (A) (A) (A) (A) (A) (A) (A)
                 (A) (A) (A) (A) (A) (A) (A) (A) (A) (A) (A) (A)
                 (A) (A) (A) (A) (A) (A) (A) (A) (A) (A) (A) (A)
                 (A) (A) (A) (A) (A) (A) (A) (A) (A) (A) (A) (A)
                 (A) (A) (A) (A) (A) (A) (A) (A) (A) (A) (A) (A)
                 (A) (A) (A) (A) (A) (A) (A) (A) (A) (A) (A) (A)
                 (A) (A) (A) (A) (A) (A) (A) (A) (A) (A) (A) (A)
                 (A) (A) (A) (A) (A) (A) (A) (A) (A) (A) (A) (A)
                 (A) (A) (A) (A) (A) (A) (A) (A) (A) (A) (A) (A)
                 (A) (A) (A) (A) (A) (A) (A) (A) (A) (A) (A) (A)
                 (A) (A) (A) (A) (A) (A) (A) (A) (A) (A) (A) (A)
                 (A) (A) (A) (A) (A) (A) (A) (A) (A) (A) (A) (A)
                 (A) (A) (A) (A) (A) (A) (A) (A) (A) (A) (A) (A)
                 (A) (A) (A) (A) (A) (A) (A) (A) (A) (A) (A) (A)
                 (A) (A) (A) (A) (A) (A) (A) (A) (A) (A) (A) (A)
                 (A) (A) (A) (A) (A) (A) (A) (A) (A) (A) (A) (A)
                 (A) (A) (A) (A) (A) (A) (A) (A) (A) (A) (A) (A)
                 (A) (A) (A) (A) (A) (A) (A) (A) (A) (A) (A) (A)
                 (A) (A) (A) (A) (A) (A) (A) (A) (A) (A) (A) (A)
                 (A) (A) (A) (A) (A) (A) (A) (A) (A) (A) (A) (A)
                 (A) (A) (A) (A) (A) (A) (A) (A) (A) (A) (A) (A)
                 (A) (A) (A) (A) (A) (A) (A) (A) (A) (A) (A) (A)
                 (A) (A) (A) (A) (A) (A) (A) (A) (A) (A) (A) (A)
                 (A) (A) (A) (A) (A) (A) (A) (A) (A) (A) (A) (A)
                 (A) (A) (A) (A) (A) (A) (A) (A) (A) (A) (A) (A)
                 (A) (A) (A) (A) (A) (A) (A) (A) (A) (A) (A) (A)
                 (A) (A) (A) (A) (A) (A) (A) (A) (A) (A) (A) (A)
                 (A) (A) (A) (A) (A) (A) (A) (A) (A) (A) (A) (A)
                 (A) (A) (A) (A) (A) (A) (A) (A) (A) (A) (A) (A)
                 (A) (A) (A) (A) (A) (A) (A) (A) (A) (A) (A) (A)
                 (A) (A) (A) (A) (A) (A) (A) (A) (A) (A) (A) (A)
                 (A) (A) (A) (A) (A) (A) (A) (A) (A) (A) (A) (A)
                 (A) (A) (A) (A) (A) (A) (A) (A) (A) (A) (A) (A)
                 (A) (A) (A) (A) (A) (A) (A) (A) (A) (A) (A) (A)
                 (A) (A) (A) (A) (A) (A) (A) (A) (A) (A) (A) (A)
                 (A) (A) (A) (A) (A) (A) (A) (A) (A) (A) (A) (A)
                 (A) (A) (A) (A) (A) (A) (A) (A) (A) (A) (A) (A)
                 (A) (A) (A) (A) (A) (A) (A) (A) (A) (A) (A) (A)
                 (A) (A) (A) (A) (A) (A) (A) (A) (A) (A) (A) (A)
                 (A) (A) (A) (A) (A) (A) (A) (A) (A) (A) (A) (A)
                 (A) (A) (A) (A) (A) (A) (A) (A) (A) (A) (A) (A)
                 (A) (A) (A) (A) (A) (A) (A) (A) (A) (A) (A) (A)
                 (A) (A) (A) (A) (A) (A) (A) (A) (A) (A) (A) (A)
                 (A) (A) (A) (A) (A) (A) (A) (A) (A) (A) (A) (A)
                 (A) (A) (A) (A) (A) (A) (A) (A) (A) (A) (A) (A)
                 (A) (A) (A) (A) (A) (A) (A) (A) (A) (A) (A) (A)
                 (A) (A) (A) (A) (A) (A) (A) (A) (A) (A) (A) (A)
                 (A) (A) (A) (A) (A) (A) (A) (A) (A) (A) (A) (A)
                 (A) (A) (A) (A) (A) (A) (A) (A) (A) (A) (A) (A)
                 (A) (A) (A) (A) (A) (A) (A) (A) (A) (A) (A) (A)
                 (A) (A) (A) (A) (A) (A) (A) (A) (A) (A) (A) (A)
                 (A) (A) (A) (A) (A) (A) (A) (A) (A) (A) (A) (A)
                 (A) (A) (A) (A) (A) (A) (A) (A) (A) (A) (A) (A)
                 (A) (A) (A) (A) (A) (A) (A) (A) (A)
 The electronic state is 2-A.
 Alpha  occ. eigenvalues --  -25.19835 -25.19554 -19.67717 -19.67715 -19.66146
 Alpha  occ. eigenvalues --  -19.66140 -19.66134 -19.66126 -15.01191 -14.99669
 Alpha  occ. eigenvalues --  -14.99655 -14.76853 -14.76798 -10.61588 -10.60186
 Alpha  occ. eigenvalues --  -10.60178 -10.58337 -10.58278 -10.58266 -10.57983
 Alpha  occ. eigenvalues --  -10.57974 -10.57731 -10.57723 -10.57669 -10.57663
 Alpha  occ. eigenvalues --  -10.56907 -10.56901 -10.56898 -10.56891 -10.56824
 Alpha  occ. eigenvalues --  -10.56709 -10.56705 -10.55878 -10.55872 -10.55813
 Alpha  occ. eigenvalues --  -10.55808 -10.55789 -10.55775 -10.55288 -10.55263
 Alpha  occ. eigenvalues --  -10.54969 -10.54968 -10.53598 -10.53576 -10.53462
 Alpha  occ. eigenvalues --  -10.53446  -7.11985  -1.36663  -1.34337  -1.34320
 Alpha  occ. eigenvalues --   -1.31562  -1.28297  -1.18169  -1.15881  -1.15865
 Alpha  occ. eigenvalues --   -1.09125  -1.07118  -1.00464  -0.99508  -0.99500
 Alpha  occ. eigenvalues --   -0.94424  -0.93382  -0.93257  -0.90472  -0.89742
 Alpha  occ. eigenvalues --   -0.89475  -0.88605  -0.87284  -0.86993  -0.86586
 Alpha  occ. eigenvalues --   -0.86569  -0.82793  -0.82223  -0.79656  -0.79304
 Alpha  occ. eigenvalues --   -0.79049  -0.76763  -0.73460  -0.72131  -0.71727
 Alpha  occ. eigenvalues --   -0.71476  -0.70334  -0.69511  -0.68985  -0.67713
 Alpha  occ. eigenvalues --   -0.66693  -0.65756  -0.65508  -0.64667  -0.64654
 Alpha  occ. eigenvalues --   -0.63803  -0.63601  -0.63179  -0.61745  -0.61695
 Alpha  occ. eigenvalues --   -0.61687  -0.61676  -0.60756  -0.60510  -0.59588
 Alpha  occ. eigenvalues --   -0.59446  -0.57843  -0.57415  -0.56753  -0.56683
 Alpha  occ. eigenvalues --   -0.55098  -0.54380  -0.53899  -0.53826  -0.53211
 Alpha  occ. eigenvalues --   -0.52927  -0.52595  -0.52097  -0.51694  -0.51132
 Alpha  occ. eigenvalues --   -0.51079  -0.50811  -0.50779  -0.50639  -0.49716
 Alpha  occ. eigenvalues --   -0.49129  -0.48772  -0.48222  -0.47394  -0.47320
 Alpha  occ. eigenvalues --   -0.46968  -0.46670  -0.46613  -0.46313  -0.46281
 Alpha  occ. eigenvalues --   -0.45882  -0.45783  -0.45544  -0.44464  -0.44001
 Alpha  occ. eigenvalues --   -0.43313  -0.43188  -0.42834  -0.42475  -0.41837
 Alpha  occ. eigenvalues --   -0.41024  -0.40888  -0.40819  -0.40127  -0.40112
 Alpha  occ. eigenvalues --   -0.40064  -0.39580  -0.39488  -0.39258  -0.38710
 Alpha  occ. eigenvalues --   -0.38654  -0.38649  -0.38021  -0.38009  -0.35744
 Alpha  occ. eigenvalues --   -0.33566  -0.33352  -0.33349  -0.33222  -0.32043
 Alpha  occ. eigenvalues --   -0.31487  -0.30385  -0.28866  -0.23466  -0.18102
 Alpha virt. eigenvalues --   -0.08628  -0.07483  -0.06917  -0.02167  -0.00780
 Alpha virt. eigenvalues --   -0.00350   0.00803   0.00935   0.02623   0.05872
 Alpha virt. eigenvalues --    0.05930   0.05997   0.06741   0.07778   0.08482
 Alpha virt. eigenvalues --    0.08673   0.08896   0.09247   0.09668   0.09730
 Alpha virt. eigenvalues --    0.10222   0.10495   0.10718   0.11804   0.12076
 Alpha virt. eigenvalues --    0.12241   0.12252   0.12493   0.13344   0.13540
 Alpha virt. eigenvalues --    0.13596   0.13830   0.14014   0.14217   0.14492
 Alpha virt. eigenvalues --    0.15641   0.15698   0.15915   0.16008   0.16282
 Alpha virt. eigenvalues --    0.16745   0.17208   0.17455   0.17804   0.18193
 Alpha virt. eigenvalues --    0.18211   0.18393   0.18575   0.18784   0.19179
 Alpha virt. eigenvalues --    0.19621   0.19743   0.20465   0.20894   0.21199
 Alpha virt. eigenvalues --    0.21443   0.21725   0.21956   0.22090   0.22442
 Alpha virt. eigenvalues --    0.22643   0.22801   0.22848   0.23335   0.23557
 Alpha virt. eigenvalues --    0.23601   0.23793   0.24260   0.24465   0.24563
 Alpha virt. eigenvalues --    0.24658   0.25198   0.25254   0.25857   0.25965
 Alpha virt. eigenvalues --    0.26295   0.26623   0.26886   0.26955   0.27168
 Alpha virt. eigenvalues --    0.27182   0.27403   0.27530   0.27907   0.28147
 Alpha virt. eigenvalues --    0.28352   0.28602   0.29073   0.29272   0.29347
 Alpha virt. eigenvalues --    0.29685   0.29792   0.30092   0.30286   0.30545
 Alpha virt. eigenvalues --    0.30874   0.31215   0.31355   0.31628   0.31832
 Alpha virt. eigenvalues --    0.32168   0.32222   0.32705   0.33111   0.33213
 Alpha virt. eigenvalues --    0.33665   0.33891   0.34092   0.34571   0.34831
 Alpha virt. eigenvalues --    0.35109   0.35291   0.35437   0.35456   0.35642
 Alpha virt. eigenvalues --    0.35839   0.36098   0.36415   0.36556   0.36596
 Alpha virt. eigenvalues --    0.36875   0.37133   0.37278   0.37408   0.37589
 Alpha virt. eigenvalues --    0.37862   0.38003   0.38488   0.38797   0.38858
 Alpha virt. eigenvalues --    0.39176   0.39572   0.39596   0.39879   0.40057
 Alpha virt. eigenvalues --    0.40326   0.40552   0.40784   0.40798   0.41142
 Alpha virt. eigenvalues --    0.41356   0.41410   0.41611   0.41969   0.42188
 Alpha virt. eigenvalues --    0.42345   0.42502   0.42766   0.43012   0.43161
 Alpha virt. eigenvalues --    0.43326   0.43685   0.43763   0.44170   0.44524
 Alpha virt. eigenvalues --    0.44647   0.44757   0.44864   0.45261   0.45529
 Alpha virt. eigenvalues --    0.45771   0.45844   0.46070   0.46191   0.46665
 Alpha virt. eigenvalues --    0.47228   0.47579   0.47634   0.47808   0.48008
 Alpha virt. eigenvalues --    0.48086   0.48418   0.48578   0.48933   0.49199
 Alpha virt. eigenvalues --    0.49624   0.50140   0.50219   0.50499   0.50789
 Alpha virt. eigenvalues --    0.51153   0.51251   0.51526   0.51766   0.51918
 Alpha virt. eigenvalues --    0.52090   0.52163   0.52269   0.52618   0.52692
 Alpha virt. eigenvalues --    0.53086   0.53287   0.53446   0.53605   0.53876
 Alpha virt. eigenvalues --    0.53925   0.54305   0.54525   0.54884   0.55332
 Alpha virt. eigenvalues --    0.55560   0.56075   0.56240   0.56613   0.56882
 Alpha virt. eigenvalues --    0.56984   0.57237   0.57368   0.57643   0.57768
 Alpha virt. eigenvalues --    0.58226   0.58257   0.58696   0.58949   0.59167
 Alpha virt. eigenvalues --    0.59291   0.59740   0.59942   0.60543   0.60746
 Alpha virt. eigenvalues --    0.61385   0.61541   0.61900   0.62284   0.62718
 Alpha virt. eigenvalues --    0.62823   0.63173   0.63546   0.63590   0.64062
 Alpha virt. eigenvalues --    0.64188   0.64429   0.64583   0.64695   0.64905
 Alpha virt. eigenvalues --    0.65316   0.65458   0.65749   0.65965   0.66452
 Alpha virt. eigenvalues --    0.66610   0.66708   0.67080   0.67161   0.67303
 Alpha virt. eigenvalues --    0.67572   0.67730   0.68127   0.68299   0.68861
 Alpha virt. eigenvalues --    0.69153   0.69319   0.69524   0.69633   0.69797
 Alpha virt. eigenvalues --    0.69862   0.70039   0.70123   0.70379   0.70520
 Alpha virt. eigenvalues --    0.70919   0.71168   0.71459   0.71671   0.72135
 Alpha virt. eigenvalues --    0.72359   0.72877   0.73146   0.73364   0.73496
 Alpha virt. eigenvalues --    0.73596   0.73970   0.74486   0.74657   0.74990
 Alpha virt. eigenvalues --    0.75121   0.75502   0.75914   0.76242   0.76316
 Alpha virt. eigenvalues --    0.76578   0.76818   0.77107   0.77324   0.77622
 Alpha virt. eigenvalues --    0.77851   0.78092   0.78258   0.78330   0.78757
 Alpha virt. eigenvalues --    0.78954   0.79351   0.79740   0.80034   0.80131
 Alpha virt. eigenvalues --    0.80694   0.81183   0.81344   0.81527   0.81909
 Alpha virt. eigenvalues --    0.82220   0.82871   0.83171   0.83574   0.83775
 Alpha virt. eigenvalues --    0.84144   0.84291   0.85223   0.85369   0.85749
 Alpha virt. eigenvalues --    0.85967   0.86294   0.86677   0.86930   0.87229
 Alpha virt. eigenvalues --    0.87647   0.88086   0.88735   0.88973   0.89549
 Alpha virt. eigenvalues --    0.89660   0.89908   0.90070   0.90943   0.91204
 Alpha virt. eigenvalues --    0.91256   0.91497   0.91694   0.92233   0.92483
 Alpha virt. eigenvalues --    0.93068   0.93705   0.93729   0.93908   0.94046
 Alpha virt. eigenvalues --    0.94736   0.95298   0.95664   0.95853   0.95970
 Alpha virt. eigenvalues --    0.96416   0.96827   0.97069   0.97194   0.97855
 Alpha virt. eigenvalues --    0.98060   0.98281   0.98785   0.99062   0.99691
 Alpha virt. eigenvalues --    0.99865   1.00014   1.00163   1.00303   1.00476
 Alpha virt. eigenvalues --    1.00873   1.01074   1.01336   1.01741   1.02150
 Alpha virt. eigenvalues --    1.02245   1.02596   1.02694   1.03133   1.03600
 Alpha virt. eigenvalues --    1.03973   1.04386   1.04483   1.04940   1.05074
 Alpha virt. eigenvalues --    1.05506   1.05619   1.05884   1.05928   1.06322
 Alpha virt. eigenvalues --    1.06617   1.06797   1.07563   1.07724   1.08124
 Alpha virt. eigenvalues --    1.08682   1.08900   1.09013   1.09428   1.09881
 Alpha virt. eigenvalues --    1.10476   1.10858   1.11238   1.11616   1.11829
 Alpha virt. eigenvalues --    1.12469   1.12746   1.12980   1.13451   1.13640
 Alpha virt. eigenvalues --    1.14306   1.14490   1.14583   1.15052   1.15373
 Alpha virt. eigenvalues --    1.15785   1.16007   1.16402   1.16744   1.16970
 Alpha virt. eigenvalues --    1.17349   1.17534   1.18210   1.18451   1.18799
 Alpha virt. eigenvalues --    1.18937   1.19257   1.19526   1.20166   1.20616
 Alpha virt. eigenvalues --    1.21040   1.21120   1.21566   1.22043   1.22175
 Alpha virt. eigenvalues --    1.22530   1.22866   1.23325   1.23487   1.24082
 Alpha virt. eigenvalues --    1.24380   1.24814   1.25358   1.25521   1.25657
 Alpha virt. eigenvalues --    1.26396   1.26615   1.26758   1.27017   1.27403
 Alpha virt. eigenvalues --    1.27651   1.27927   1.28368   1.28531   1.28615
 Alpha virt. eigenvalues --    1.28888   1.29442   1.29689   1.30209   1.30732
 Alpha virt. eigenvalues --    1.31037   1.31377   1.31567   1.32229   1.32411
 Alpha virt. eigenvalues --    1.32861   1.33302   1.33675   1.33841   1.34312
 Alpha virt. eigenvalues --    1.34606   1.35095   1.35244   1.35915   1.36286
 Alpha virt. eigenvalues --    1.36449   1.36731   1.37012   1.37269   1.37710
 Alpha virt. eigenvalues --    1.38005   1.38438   1.38528   1.38743   1.39209
 Alpha virt. eigenvalues --    1.39467   1.39753   1.40117   1.40464   1.40739
 Alpha virt. eigenvalues --    1.41789   1.42965   1.43111   1.43559   1.44221
 Alpha virt. eigenvalues --    1.44631   1.44702   1.44822   1.44885   1.45145
 Alpha virt. eigenvalues --    1.45512   1.45628   1.46178   1.46381   1.46781
 Alpha virt. eigenvalues --    1.46842   1.46971   1.47738   1.48370   1.48722
 Alpha virt. eigenvalues --    1.49004   1.49693   1.49823   1.50044   1.50419
 Alpha virt. eigenvalues --    1.50503   1.50717   1.51518   1.51653   1.51861
[...]
              Baa    -0.0792   -10.630    -3.793    -3.546  0.0858  0.9942 -0.0642
     6 C(13)  Bbb    -0.0721    -9.675    -3.452    -3.227  0.9959 -0.0837  0.0357
              Bcc     0.1513    20.305     7.245     6.773 -0.0301  0.0670  0.9973
 
              Baa    -0.0195    -2.619    -0.935    -0.874 -0.0134  0.0682  0.9976
     7 C(13)  Bbb     0.0055     0.738     0.263     0.246 -0.1967  0.9780 -0.0695
              Bcc     0.0140     1.881     0.671     0.628  0.9804  0.1971 -0.0003
 
              Baa    -0.0227    -3.051    -1.089    -1.018 -0.4533  0.8897 -0.0546
     8 C(13)  Bbb    -0.0198    -2.663    -0.950    -0.888  0.8907  0.4545  0.0124
              Bcc     0.0426     5.714     2.039     1.906 -0.0358  0.0430  0.9984
 
              Baa    -0.0143    -1.925    -0.687    -0.642 -0.0402  0.0464  0.9981
     9 C(13)  Bbb     0.0049     0.659     0.235     0.220 -0.5116  0.8571 -0.0605
              Bcc     0.0094     1.266     0.452     0.422  0.8583  0.5131  0.0107
 
              Baa    -0.0356    -4.779    -1.705    -1.594 -0.3279  0.9427 -0.0619
    10 C(13)  Bbb    -0.0299    -4.010    -1.431    -1.337  0.9440  0.3296  0.0183
              Bcc     0.0655     8.789     3.136     2.932 -0.0377  0.0524  0.9979
 
              Baa    -0.0131    -0.507    -0.181    -0.169 -0.3444  0.9370 -0.0587
    11 N(14)  Bbb    -0.0111    -0.429    -0.153    -0.143  0.9380  0.3461  0.0212
              Bcc     0.0243     0.936     0.334     0.312 -0.0402  0.0478  0.9980
 
              Baa    -0.0654     4.733     1.689     1.579  0.8412 -0.5377  0.0570
    12 O(17)  Bbb    -0.0624     4.513     1.610     1.505  0.5395  0.8417 -0.0222
              Bcc     0.1278    -9.246    -3.299    -3.084 -0.0361  0.0494  0.9981
 
              Baa    -0.0626     4.529     1.616     1.511  0.3302  0.9433 -0.0334
    13 O(17)  Bbb    -0.0599     4.336     1.547     1.446  0.9432 -0.3283  0.0513
              Bcc     0.1225    -8.865    -3.163    -2.957 -0.0375  0.0485  0.9981
 
              Baa    -0.0098    -1.310    -0.468    -0.437 -0.0449  0.0464  0.9979
    14 C(13)  Bbb     0.0026     0.348     0.124     0.116 -0.1989  0.9785 -0.0544
              Bcc     0.0072     0.962     0.343     0.321  0.9790  0.2009  0.0347
 
              Baa    -0.0226    -3.031    -1.082    -1.011 -0.3296  0.9424 -0.0567
    15 C(13)  Bbb    -0.0184    -2.466    -0.880    -0.822  0.9433  0.3312  0.0209
              Bcc     0.0410     5.497     1.961     1.834 -0.0385  0.0466  0.9982
 
              Baa    -0.0628    -2.421    -0.864    -0.807 -0.0088  0.9992  0.0391
    16 N(14)  Bbb    -0.0526    -2.027    -0.723    -0.676  1.0000  0.0088  0.0009
              Bcc     0.1153     4.448     1.587     1.484 -0.0005 -0.0391  0.9992
 
              Baa    -0.1091   -14.645    -5.226    -4.885  0.0031 -0.0045  1.0000
    17 C(13)  Bbb     0.0489     6.556     2.340     2.187  0.7515 -0.6597 -0.0053
              Bcc     0.0603     8.088     2.886     2.698  0.6597  0.7515  0.0014
 
              Baa    -0.1899   -25.489    -9.095    -8.502 -0.0000  1.0000 -0.0070
    18 C(13)  Bbb    -0.1845   -24.763    -8.836    -8.260  1.0000  0.0000 -0.0052
              Bcc     0.3745    50.252    17.931    16.762  0.0052  0.0070  1.0000
 
              Baa    -0.0077    -1.028    -0.367    -0.343 -0.0098  0.8935 -0.4489
    19 C(13)  Bbb     0.0025     0.337     0.120     0.112  0.9997 -0.0022 -0.0262
              Bcc     0.0052     0.691     0.247     0.231  0.0243  0.4490  0.8932
 
              Baa    -0.0084    -1.128    -0.402    -0.376 -0.5506  0.0184  0.8346
    20 C(13)  Bbb    -0.0052    -0.704    -0.251    -0.235 -0.4173  0.8598 -0.2943
              Bcc     0.0137     1.832     0.654     0.611  0.7230  0.5103  0.4657
 
              Baa    -0.0042    -0.565    -0.202    -0.189  0.1820  0.9690 -0.1672
    21 C(13)  Bbb    -0.0007    -0.095    -0.034    -0.032 -0.1709  0.1987  0.9650
              Bcc     0.0049     0.661     0.236     0.220  0.9683 -0.1470  0.2018
 
              Baa    -0.0032    -0.433    -0.155    -0.144 -0.0001  0.2302  0.9731
    22 C(13)  Bbb    -0.0010    -0.138    -0.049    -0.046  1.0000  0.0036 -0.0008
              Bcc     0.0043     0.572     0.204     0.191 -0.0037  0.9731 -0.2302
 
              Baa    -0.0005    -0.018    -0.007    -0.006  0.0028  0.0464  0.9989
    23 N(14)  Bbb     0.0001     0.003     0.001     0.001 -0.0584  0.9972 -0.0462
              Bcc     0.0004     0.015     0.005     0.005  0.9983  0.0582 -0.0055
 
              Baa    -0.0033     0.238     0.085     0.080  0.3871 -0.1210  0.9141
    24 O(17)  Bbb    -0.0024     0.175     0.063     0.058  0.8860 -0.2257 -0.4051
              Bcc     0.0057    -0.414    -0.148    -0.138  0.2553  0.9666  0.0198
 
              Baa    -0.0033     0.240     0.085     0.080 -0.3782 -0.1203  0.9179
    25 O(17)  Bbb    -0.0024     0.176     0.063     0.059  0.8896  0.2269  0.3963
              Bcc     0.0057    -0.416    -0.148    -0.139 -0.2560  0.9665  0.0212
 
              Baa    -0.0041    -0.553    -0.197    -0.185 -0.1909  0.9678 -0.1639
    26 C(13)  Bbb    -0.0007    -0.092    -0.033    -0.031  0.1788  0.1985  0.9637
              Bcc     0.0048     0.646     0.230     0.215  0.9652  0.1547 -0.2110
 
              Baa    -0.0084    -1.121    -0.400    -0.374  0.5471  0.0148  0.8369
    27 C(13)  Bbb    -0.0051    -0.690    -0.246    -0.230  0.4223  0.8584 -0.2912
              Bcc     0.0135     1.812     0.646     0.604  0.7227 -0.5127 -0.4634
 
              Baa    -0.1084   -14.548    -5.191    -4.853  0.0344  0.0432  0.9985
    28 C(13)  Bbb     0.0486     6.519     2.326     2.175  0.7492  0.6601 -0.0544
              Bcc     0.0598     8.029     2.865     2.678 -0.6614  0.7499 -0.0096
 
              Baa    -0.0585    -7.853    -2.802    -2.620  0.9986 -0.0328 -0.0406
    29 C(13)  Bbb    -0.0578    -7.759    -2.769    -2.588  0.0290  0.9955 -0.0900
              Bcc     0.1163    15.612     5.571     5.208  0.0433  0.0887  0.9951
 
              Baa    -0.0011    -0.151    -0.054    -0.050  0.7955 -0.6001  0.0838
    30 C(13)  Bbb     0.0000     0.001     0.000     0.000  0.0184  0.1621  0.9866
              Bcc     0.0011     0.149     0.053     0.050  0.6056  0.7834 -0.1399
 
              Baa    -0.0711    -9.546    -3.406    -3.184  0.0494  0.0766  0.9958
    31 C(13)  Bbb     0.0341     4.570     1.631     1.524  0.2483  0.9648 -0.0866
              Bcc     0.0371     4.976     1.776     1.660  0.9674 -0.2516 -0.0286
 
              Baa    -0.0783   -10.513    -3.751    -3.507  0.4940  0.8672 -0.0633
    32 C(13)  Bbb    -0.0743    -9.971    -3.558    -3.326  0.8690 -0.4948  0.0026
              Bcc     0.1526    20.484     7.309     6.833  0.0291  0.0562  0.9980
 
              Baa    -0.0557    -7.468    -2.665    -2.491  0.0072 -0.0096  0.9999
    33 C(13)  Bbb     0.0223     2.989     1.066     0.997  0.5195  0.8544  0.0045
              Bcc     0.0334     4.479     1.598     1.494  0.8544 -0.5195 -0.0111
 
              Baa    -0.0786   -10.548    -3.764    -3.518 -0.0792  0.9966  0.0247
    34 C(13)  Bbb    -0.0715    -9.600    -3.426    -3.202  0.9969  0.0791  0.0034
              Bcc     0.1501    20.148     7.189     6.721 -0.0015 -0.0249  0.9997
 
              Baa    -0.0195    -2.615    -0.933    -0.872  0.0171 -0.0298  0.9994
    35 C(13)  Bbb     0.0055     0.741     0.265     0.247  0.2033  0.9788  0.0258
              Bcc     0.0140     1.874     0.669     0.625  0.9790 -0.2028 -0.0228
 
              Baa    -0.0224    -3.005    -1.072    -1.002  0.3366  0.9415  0.0154
    36 C(13)  Bbb    -0.0182    -2.446    -0.873    -0.816  0.9416 -0.3367  0.0038
              Bcc     0.0406     5.450     1.945     1.818 -0.0087 -0.0133  0.9999
 
              Baa    -0.0097    -1.306    -0.466    -0.436 -0.0143 -0.0132  0.9998
    37 C(13)  Bbb     0.0026     0.349     0.125     0.117  0.2060  0.9784  0.0158
              Bcc     0.0071     0.957     0.341     0.319  0.9785 -0.2062  0.0113
 
              Baa    -0.0353    -4.730    -1.688    -1.578  0.3350  0.9420  0.0194
    38 C(13)  Bbb    -0.0296    -3.971    -1.417    -1.324  0.9422 -0.3351  0.0017
              Bcc     0.0648     8.701     3.105     2.902 -0.0081 -0.0177  0.9998
 
              Baa    -0.0129    -0.498    -0.178    -0.166  0.3518  0.9359  0.0175
    39 N(14)  Bbb    -0.0109    -0.421    -0.150    -0.140  0.9360 -0.3519  0.0055
              Bcc     0.0238     0.919     0.328     0.306 -0.0114 -0.0145  0.9998
 
              Baa    -0.0645     4.670     1.666     1.558  0.8456  0.5337  0.0148
    40 O(17)  Bbb    -0.0615     4.453     1.589     1.486 -0.5338  0.8455  0.0097
              Bcc     0.1261    -9.123    -3.255    -3.043 -0.0073 -0.0161  0.9998
 
              Baa    -0.0617     4.465     1.593     1.489 -0.3244  0.9458  0.0118
    41 O(17)  Bbb    -0.0591     4.276     1.526     1.426  0.9459  0.3242  0.0127
              Bcc     0.1208    -8.741    -3.119    -2.916 -0.0082 -0.0153  0.9998
 
              Baa    -0.0143    -1.915    -0.683    -0.639 -0.0140 -0.0123  0.9998
    42 C(13)  Bbb     0.0049     0.657     0.235     0.219  0.5181  0.8551  0.0178
              Bcc     0.0094     1.257     0.449     0.419  0.8552 -0.5183  0.0057
 
              Baa    -0.0225    -3.024    -1.079    -1.009  0.4606  0.8875  0.0130
    43 C(13)  Bbb    -0.0197    -2.641    -0.942    -0.881  0.8876 -0.4607  0.0040
              Bcc     0.0422     5.665     2.021     1.890 -0.0095 -0.0097  0.9999
 
              Baa    -0.0624    -2.405    -0.858    -0.802  0.0077  0.9978 -0.0653
    44 N(14)  Bbb    -0.0522    -2.014    -0.719    -0.672  0.9981 -0.0117 -0.0609
              Bcc     0.1146     4.419     1.577     1.474  0.0616  0.0647  0.9960
 
              Baa    -0.0022    -0.381    -0.136    -0.127 -0.1614  0.0830  0.9834
    45 B(11)  Bbb     0.0005     0.087     0.031     0.029  0.9700  0.1971  0.1426
              Bcc     0.0017     0.293     0.105     0.098 -0.1820  0.9769 -0.1123
 
              Baa    -0.0174    -8.743    -3.120    -2.916  0.0327  0.9970  0.0704
    46 F(19)  Bbb    -0.0155    -7.800    -2.783    -2.602  0.5163 -0.0771  0.8529
              Bcc     0.0329    16.543     5.903     5.518  0.8558  0.0085 -0.5172
 
              Baa    -0.0083    -4.180    -1.492    -1.394 -0.1886 -0.0057  0.9820
    47 F(19)  Bbb    -0.0058    -2.936    -1.048    -0.979 -0.0037  1.0000  0.0051
              Bcc     0.0142     7.116     2.539     2.374  0.9820  0.0026  0.1887
 
              Baa    -0.0016    -0.872    -0.311    -0.291  0.4136  0.0078  0.9104
    48 H(1)   Bbb    -0.0005    -0.292    -0.104    -0.098  0.4553  0.8642 -0.2142
              Bcc     0.0022     1.164     0.415     0.388  0.7885 -0.5031 -0.3538
 
              Baa    -0.0018    -0.952    -0.340    -0.318 -0.3307  0.0328  0.9432
    49 H(1)   Bbb    -0.0004    -0.199    -0.071    -0.066  0.5048  0.8505  0.1475
              Bcc     0.0022     1.151     0.411     0.384  0.7974 -0.5249  0.2978
 
              Baa    -0.0012    -0.626    -0.223    -0.209 -0.5090 -0.3010  0.8064
    50 H(1)   Bbb    -0.0010    -0.546    -0.195    -0.182  0.6586  0.4670  0.5900
              Bcc     0.0022     1.172     0.418     0.391 -0.5542  0.8315 -0.0395
 
              Baa    -0.0033    -1.734    -0.619    -0.578  0.0613  0.9981  0.0073
    51 H(1)   Bbb    -0.0021    -1.095    -0.391    -0.365  0.0076 -0.0078  0.9999
              Bcc     0.0053     2.829     1.009     0.944  0.9981 -0.0612 -0.0081
 
              Baa    -0.0030    -1.602    -0.572    -0.535 -0.4376  0.8582  0.2683
    52 H(1)   Bbb    -0.0026    -1.389    -0.495    -0.463  0.1178 -0.2411  0.9633
              Bcc     0.0056     2.991     1.067     0.998  0.8914  0.4532  0.0045
 
              Baa    -0.0086    -4.609    -1.645    -1.538  0.6886  0.7248 -0.0241
    53 H(1)   Bbb    -0.0018    -0.974    -0.348    -0.325 -0.0224  0.0545  0.9983
              Bcc     0.0105     5.584     1.992     1.863  0.7248 -0.6868  0.0538
 
              Baa    -0.0021    -1.094    -0.390    -0.365  0.9701 -0.2412  0.0253
    54 H(1)   Bbb    -0.0012    -0.660    -0.236    -0.220 -0.0196  0.0259  0.9995
              Bcc     0.0033     1.754     0.626     0.585  0.2417  0.9701 -0.0204
 
              Baa    -0.0013    -0.715    -0.255    -0.238 -0.0405  0.0505  0.9979
    55 H(1)   Bbb    -0.0006    -0.296    -0.106    -0.099 -0.6268  0.7765 -0.0647
              Bcc     0.0019     1.011     0.361     0.337  0.7781  0.6281 -0.0002
 
              Baa    -0.0013    -0.690    -0.246    -0.230 -0.0382  0.0526  0.9979
    56 H(1)   Bbb    -0.0003    -0.138    -0.049    -0.046 -0.1910  0.9798 -0.0590
              Bcc     0.0016     0.828     0.295     0.276  0.9808  0.1929  0.0273
 
              Baa    -0.0015    -0.789    -0.281    -0.263 -0.0293  0.0661  0.9974
    57 H(1)   Bbb    -0.0011    -0.560    -0.200    -0.187  0.6411  0.7668 -0.0320
              Bcc     0.0025     1.349     0.481     0.450  0.7669 -0.6384  0.0648
 
              Baa    -0.0027    -1.415    -0.505    -0.472  0.1287  0.9287 -0.3478
    58 H(1)   Bbb    -0.0012    -0.656    -0.234    -0.219  0.8261 -0.2945 -0.4805
              Bcc     0.0039     2.071     0.739     0.691  0.5487  0.2255  0.8050
 
              Baa    -0.0006    -0.339    -0.121    -0.113  0.0924  0.9172 -0.3875
    59 H(1)   Bbb    -0.0004    -0.238    -0.085    -0.079 -0.3862  0.3917  0.8351
              Bcc     0.0011     0.577     0.206     0.192  0.9178  0.0725  0.3904
 
              Baa    -0.0006    -0.337    -0.120    -0.112 -0.1121  0.9003 -0.4205
    60 H(1)   Bbb    -0.0004    -0.240    -0.086    -0.080  0.3789  0.4299  0.8195
              Bcc     0.0011     0.576     0.206     0.192  0.9186 -0.0675 -0.3893
 
              Baa    -0.0026    -1.380    -0.492    -0.460 -0.1573  0.9196 -0.3600
    61 H(1)   Bbb    -0.0012    -0.659    -0.235    -0.220  0.8228  0.3237  0.4671
              Bcc     0.0038     2.039     0.727     0.680 -0.5461  0.2227  0.8076
 
              Baa    -0.0018    -0.950    -0.339    -0.317  0.3902  0.0513  0.9193
    62 H(1)   Bbb    -0.0004    -0.212    -0.076    -0.071 -0.4912  0.8561  0.1607
              Bcc     0.0022     1.161     0.414     0.387  0.7788  0.5143 -0.3592
 
              Baa    -0.0011    -0.612    -0.218    -0.204  0.5628 -0.2841  0.7763
    63 H(1)   Bbb    -0.0010    -0.549    -0.196    -0.183 -0.6129  0.4867  0.6225
              Bcc     0.0022     1.161     0.414     0.387  0.5547  0.8261 -0.0998
 
              Baa    -0.0016    -0.876    -0.312    -0.292 -0.3662  0.0459  0.9294
    64 H(1)   Bbb    -0.0005    -0.271    -0.097    -0.090 -0.4613  0.8584 -0.2241
              Bcc     0.0021     1.147     0.409     0.383  0.8081  0.5109  0.2932
 
              Baa    -0.0032    -1.706    -0.609    -0.569 -0.0622  0.9927 -0.1035
    65 H(1)   Bbb    -0.0020    -1.088    -0.388    -0.363  0.0399  0.1061  0.9936
              Bcc     0.0052     2.794     0.997     0.932  0.9973  0.0577 -0.0462
 
              Baa    -0.0030    -1.604    -0.572    -0.535  0.4288  0.8299 -0.3570
    66 H(1)   Bbb    -0.0026    -1.371    -0.489    -0.457  0.1679  0.3151  0.9341
              Bcc     0.0056     2.974     1.061     0.992  0.8877 -0.4605 -0.0042
 
              Baa    -0.0086    -4.570    -1.631    -1.524 -0.6840  0.7294  0.0116
    67 H(1)   Bbb    -0.0018    -0.969    -0.346    -0.323  0.0082 -0.0083  0.9999
              Bcc     0.0104     5.539     1.976     1.848  0.7295  0.6840 -0.0003
 
              Baa    -0.0015    -0.782    -0.279    -0.261 -0.0094 -0.0180  0.9998
    68 H(1)   Bbb    -0.0010    -0.554    -0.198    -0.185 -0.6359  0.7717  0.0079
              Bcc     0.0025     1.336     0.477     0.446  0.7717  0.6357  0.0187
 
              Baa    -0.0013    -0.683    -0.244    -0.228 -0.0090 -0.0178  0.9998
    69 H(1)   Bbb    -0.0003    -0.137    -0.049    -0.046  0.1979  0.9800  0.0192
              Bcc     0.0015     0.820     0.293     0.274  0.9802 -0.1980  0.0053
 
              Baa    -0.0013    -0.708    -0.253    -0.236 -0.0128 -0.0191  0.9997
    70 H(1)   Bbb    -0.0006    -0.294    -0.105    -0.098  0.6334  0.7735  0.0229
              Bcc     0.0019     1.002     0.358     0.334  0.7737 -0.6335 -0.0022
 
              Baa    -0.0020    -1.085    -0.387    -0.362  0.9719  0.2351 -0.0120
    71 H(1)   Bbb    -0.0012    -0.656    -0.234    -0.219  0.0102  0.0086  0.9999
              Bcc     0.0033     1.741     0.621     0.581 -0.2352  0.9719 -0.0060
 

 ---------------------------------------------------------------------------------

 No NMR shielding tensors so no spin-rotation constants.
 Leave Link  601 at Tue Oct 28 20:54:44 2025, MaxMem= 30870077440 cpu:             212.2 elap:               3.8
 (Enter /public/software/gauss/g16/l9999.exe)
 1\1\GINC-CU031\SP\UM062X\def2TZVPP\C33H24B1F2N5O6(1-,2)\BAIDING\28-Oct
 -2025\0\\#p M062X/DEF2TZVPP scrf=(solvent=water) em=GD3\\Energy calcul
 ation for BNP_NO2_NO2_reduced\\-1,2\C,0,-4.330628,3.130782,0.000627\C,
 0,-2.92753,2.600023,-0.008578\C,0,-1.794302,3.393346,-0.011182\C,0,-0.
 646281,2.561108,-0.009718\C,0,0.727785,2.926783,-0.023212\C,0,1.189633
 ,4.217498,0.03906\C,0,2.56835,4.624737,0.01245\C,0,3.661171,3.716658,-
 0.072539\C,0,4.965269,4.163057,-0.096294\C,0,5.228659,5.544646,-0.0358
 7\N,0,6.575408,6.006187,-0.062364\O,0,7.50514,5.171631,-0.137435\O,0,6
 .800183,7.236246,-0.009652\C,0,4.175645,6.472012,0.050747\C,0,2.874898
 ,6.011796,0.074597\N,0,-1.078155,1.247541,-0.012093\C,0,-2.466616,1.23
 4157,-0.013185\C,0,-3.173042,0.010091,-0.013233\C,0,-4.665219,0.008943
 ,-0.01782\C,0,-5.378139,-0.229305,1.16926\C,0,-6.768288,-0.231421,1.17
 7977\C,0,-7.442686,0.000929,-0.021547\N,0,-8.900144,-0.002562,-0.02340
 9\O,0,-9.490223,0.200204,-1.090977\O,0,-9.492013,-0.208004,1.042663\C,
 0,-6.766264,0.236123,-1.219465\C,0,-5.376329,0.241496,-1.207224\C,0,-2
 .469222,-1.215833,-0.025602\C,0,-2.933159,-2.577165,-0.124032\C,0,-4.3
 35949,-3.097595,-0.233676\C,0,-1.802662,-3.374069,-0.130844\C,0,-0.652
 969,-2.547993,-0.046867\C,0,0.719507,-2.920555,-0.038902\C,0,1.172496,
 -4.215605,-0.016746\C,0,2.5493,-4.630544,-0.020305\C,0,2.846144,-6.020
 876,0.001604\C,0,4.144449,-6.488591,-0.000482\C,0,5.204631,-5.565741,-
 0.023957\N,0,6.549147,-6.034824,-0.026565\O,0,7.485013,-5.204076,-0.04
 6673\O,0,6.765658,-7.267261,-0.008451\C,0,4.950864,-4.181223,-0.044596
 \C,0,3.649119,-3.727311,-0.042939\N,0,-1.081827,-1.235014,0.00846\B,0,
 -0.198951,0.006587,0.254941\F,0,0.281914,0.019026,1.578438\F,0,0.90990
 3,-0.002713,-0.617853\H,0,-4.855773,2.935367,-0.940103\H,0,-4.933998,2
 .691141,0.800522\H,0,-4.309063,4.213798,0.150401\H,0,-1.782556,4.47503
 9,-0.024884\H,0,1.437588,2.111388,-0.103567\H,0,0.46806,5.027899,0.115
 569\H,0,3.476884,2.649211,-0.11876\H,0,5.789306,3.463881,-0.161154\H,0
 ,4.393531,7.531405,0.097406\H,0,2.059014,6.725273,0.141236\H,0,-4.8374
 05,-0.408465,2.0923\H,0,-7.322206,-0.407616,2.091107\H,0,-7.318783,0.4
 08557,-2.134152\H,0,-4.834264,0.421907,-2.129195\H,0,-4.887311,-2.6320
 83,-1.056281\H,0,-4.311793,-4.17619,-0.411967\H,0,-4.916037,-2.923216,
 0.678378\H,0,-1.792468,-4.452543,-0.215007\H,0,1.43588,-2.107509,-0.06
 3757\H,0,0.444767,-5.023727,0.007755\H,0,2.024615,-6.730752,0.019765\H
 ,0,4.354946,-7.550384,0.015593\H,0,5.780397,-3.485759,-0.061713\H,0,3.
 472199,-2.657725,-0.058503\\Version=ES64L-G16RevA.03\State=2-A\HF=-222
 1.6664626\S2=0.828293\S2-1=0.\S2A=0.754366\RMSD=6.525e-09\Dipole=-6.91
 16173,0.0136715,-0.441921\Quadrupole=-106.4691767,22.9811458,83.488030
 9,-0.1457047,1.0738745,0.2084227\PG=C01 [X(C33H24B1F2N5O6)]\\@


 WOE UNTO THEM THAT CALL EVIL GOOD, AND GOOD EVIL      
 Job cpu time:       1 days  8 hours 34 minutes  2.5 seconds.
 Elapsed time:       0 days  0 hours 30 minutes 54.6 seconds.
 File lengths (MBytes):  RWF=   3451 Int=      0 D2E=      0 Chk=    224 Scr=      1
 Normal termination of Gaussian 16 at Tue Oct 28 20:54:45 2025.
