 Entering Gaussian System, Link 0=g16
 Input=BNP_CHO_CHO_sp.gjf
 Output=BNP_CHO_CHO_sp.log
 Initial command:
 /public/software/gauss/g16/l1.exe "/public/home/baiding/1024_sp/tmp_BNP_CHO_CHO_sp_1526250/Gau-2948940.inp" -scrdir="/public/home/baiding/1024_sp/tmp_BNP_CHO_CHO_sp_1526250/"
 Entering Link 1 = /public/software/gauss/g16/l1.exe PID=   2948941.
  
 Copyright (c) 1988,1990,1992,1993,1995,1998,2003,2009,2016,
            Gaussian, Inc.  All Rights Reserved.
  
 This is part of the Gaussian(R) 16 program.  It is based on
 the Gaussian(R) 09 system (copyright 2009, Gaussian, Inc.),
 the Gaussian(R) 03 system (copyright 2003, Gaussian, Inc.),
 the Gaussian(R) 98 system (copyright 1998, Gaussian, Inc.),
 the Gaussian(R) 94 system (copyright 1995, Gaussian, Inc.),
 the Gaussian 92(TM) system (copyright 1992, Gaussian, Inc.),
 the Gaussian 90(TM) system (copyright 1990, Gaussian, Inc.),
 the Gaussian 88(TM) system (copyright 1988, Gaussian, Inc.),
 the Gaussian 86(TM) system (copyright 1986, Carnegie Mellon
 University), and the Gaussian 82(TM) system (copyright 1983,
 Carnegie Mellon University). Gaussian is a federally registered
 trademark of Gaussian, Inc.
  
 This software contains proprietary and confidential information,
 including trade secrets, belonging to Gaussian, Inc.
  
 This software is provided under written license and may be
 used, copied, transmitted, or stored only in accord with that
 written license.
  
 The following legend is applicable only to US Government
 contracts under FAR:
  
                    RESTRICTED RIGHTS LEGEND
  
 Use, reproduction and disclosure by the US Government is
 subject to restrictions as set forth in subparagraphs (a)
 and (c) of the Commercial Computer Software - Restricted
 Rights clause in FAR 52.227-19.
  
 Gaussian, Inc.
 340 Quinnipiac St., Bldg. 40, Wallingford CT 06492
  
  
 ---------------------------------------------------------------
 Warning -- This program may not be used in any manner that
 competes with the business of Gaussian, Inc. or will provide
 assistance to any competitor of Gaussian, Inc.  The licensee
 of this program is prohibited from giving any competitor of
 Gaussian, Inc. access to this program.  By using this program,
 the user acknowledges that Gaussian, Inc. is engaged in the
 business of creating and licensing software in the field of
 computational chemistry and represents and warrants to the
 licensee that it is not a competitor of Gaussian, Inc. and that
 it will not use this program in any manner prohibited above.
 ---------------------------------------------------------------
  

 Cite this work as:
 Gaussian 16, Revision A.03,
 M. J. Frisch, G. W. Trucks, H. B. Schlegel, G. E. Scuseria, 
 M. A. Robb, J. R. Cheeseman, G. Scalmani, V. Barone, 
 G. A. Petersson, H. Nakatsuji, X. Li, M. Caricato, A. V. Marenich, 
 J. Bloino, B. G. Janesko, R. Gomperts, B. Mennucci, H. P. Hratchian, 
 J. V. Ortiz, A. F. Izmaylov, J. L. Sonnenberg, D. Williams-Young, 
 F. Ding, F. Lipparini, F. Egidi, J. Goings, B. Peng, A. Petrone, 
 T. Henderson, D. Ranasinghe, V. G. Zakrzewski, J. Gao, N. Rega, 
 G. Zheng, W. Liang, M. Hada, M. Ehara, K. Toyota, R. Fukuda, 
 J. Hasegawa, M. Ishida, T. Nakajima, Y. Honda, O. Kitao, H. Nakai, 
 T. Vreven, K. Throssell, J. A. Montgomery, Jr., J. E. Peralta, 
 F. Ogliaro, M. J. Bearpark, J. J. Heyd, E. N. Brothers, K. N. Kudin, 
 V. N. Staroverov, T. A. Keith, R. Kobayashi, J. Normand, 
 K. Raghavachari, A. P. Rendell, J. C. Burant, S. S. Iyengar, 
 J. Tomasi, M. Cossi, J. M. Millam, M. Klene, C. Adamo, R. Cammi, 
 J. W. Ochterski, R. L. Martin, K. Morokuma, O. Farkas, 
 J. B. Foresman, and D. J. Fox, Gaussian, Inc., Wallingford CT, 2016.
 
 ******************************************
 Gaussian 16:  ES64L-G16RevA.03 25-Dec-2016
                25-Oct-2025 
 ******************************************
 %nprocshared=64
 Will use up to   64 processors via shared memory.
 %mem=230GB
 %chk=BNP_CHO_CHO_sp.chk
 ----------------------------------------------
 #p M062X/DEF2TZVPP scrf=(solvent=water) em=GD3
 ----------------------------------------------
 1/38=1,172=1/1;
 2/12=2,17=6,18=5,40=1/2;
 3/5=44,7=202,11=2,25=1,30=1,70=2201,72=1,74=-55,124=31/1,2,3;
 4//1;
 5/5=2,38=5,53=1/2;
 6/7=2,8=2,9=2,10=2,28=1/1;
 99/5=1,9=1/99;
 Leave Link    1 at Sat Oct 25 05:09:33 2025, MaxMem= 30870077440 cpu:              17.4 elap:               0.3
 (Enter /public/software/gauss/g16/l101.exe)
 ----------------------------------
 Energy calculation for BNP_CHO_CHO
 ----------------------------------
 Symbolic Z-matrix:
 Charge =  0 Multiplicity = 1
 C                    -3.99429   3.10532  -0.1229 
 C                    -2.59055   2.58339  -0.08715 
 C                    -1.46009   3.38062  -0.10546 
 C                    -0.31449   2.54584  -0.0755 
 C                     1.0766    2.92028  -0.08705 
 C                     1.50686   4.20192   0.02426 
 C                     2.89464   4.64723   0.01264 
 C                     3.99299   3.76765  -0.14767 
 C                     5.28961   4.24931  -0.14697 
 C                     5.53855   5.62624   0.01462 
 C                     6.90666   6.15593   0.02027 
 O                     7.92184   5.47638  -0.11747 
 C                     4.45878   6.50786   0.1732 
 C                     3.15675   6.02452   0.17119 
 N                    -0.72652   1.24567  -0.04648 
 C                    -2.12147   1.22294  -0.04663 
 C                    -2.81311  -0.00049  -0.03525 
 C                    -4.30736  -0.00057  -0.022 
 C                    -4.99767   0.00445   1.19932 
 C                    -6.38822   0.00457   1.22308 
 C                    -7.07501  -0.00024   0.00918 
 N                    -8.53576  -0.00007   0.02536 
 O                    -9.13616  -0.00349  -1.05408 
 O                    -9.11239   0.00349   1.11768 
 C                    -6.41551  -0.00522  -1.21974 
 C                    -5.02486  -0.00541  -1.22726 
 C                    -2.12121  -1.2238   -0.04464 
 C                    -2.59005  -2.5844   -0.08201 
 C                    -3.9937   -3.10674  -0.11496 
 C                    -1.45942  -3.38144  -0.09989 
 C                    -0.31399  -2.54639  -0.0726 
 C                     1.0772   -2.92049  -0.08512 
 C                     1.50795  -4.20188   0.02708 
 C                     2.89585  -4.6468    0.01412 
 C                     3.9938   -3.76686  -0.14696 
 C                     5.29055  -4.24817  -0.14781 
 C                     5.54003  -5.62511   0.01296 
 C                     6.90828  -6.15442   0.01688 
 O                     7.92313  -5.47455  -0.12175 
 C                     4.46066  -6.50706   0.17242 
 C                     3.1585   -6.02406   0.17199 
 N                    -0.72626  -1.24622  -0.04548 
 B                     0.16961  -0.0001    0.18385 
 F                     0.67518   0.00045   1.48939 
 F                     1.23886  -0.00028  -0.72628 
 H                    -4.57285   2.78558   0.74892 
 H                    -3.97662   4.19795  -0.13637 
 H                    -4.53563   2.76394  -1.01046 
 H                    -1.44799   4.46048  -0.15588 
 H                     1.79009   2.11246  -0.19853 
 H                     0.7727    4.99566   0.14245 
 H                     3.82341   2.70373  -0.27303 
 H                     6.12806   3.57141  -0.27028 
 H                     6.98229   7.25107   0.16173 
 H                     4.64851   7.5706    0.29728 
 H                     2.32324   6.70963   0.2941 
 H                    -4.44454   0.00818   2.13206 
 H                    -6.93106   0.00834   2.15935 
 H                    -6.97948  -0.00883  -2.14345 
 H                    -4.49284  -0.0092   -2.17218 
 H                    -4.57291  -2.78094   0.75415 
 H                    -4.53445  -2.77174  -1.00533 
 H                    -3.97587  -4.19944  -0.12085 
 H                    -1.44715  -4.4614   -0.14805 
 H                     1.79032  -2.11261  -0.19843 
 H                     0.77417  -4.99573   0.14682 
 H                     3.82382  -2.70291  -0.27157 
 H                     6.12868  -3.56999  -0.27171 
 H                     6.98438  -7.2496    0.15781 
 H                     4.65079  -7.56979   0.29592 
 H                     2.32532  -6.70945   0.29555 
 
 ITRead=  0  0  0  0  0  0  0  0  0  0  0  0  0  0  0  0  0  0  0  0
 ITRead=  0  0  0  0  0  0  0  0  0  0  0  0  0  0  0  0  0  0  0  0
 ITRead=  0  0  0  0  0  0  0  0  0  0  0  0  0  0  0  0  0  0  0  0
 ITRead=  0  0  0  0  0  0  0  0  0  0  0
 MicOpt= -1 -1 -1 -1 -1 -1 -1 -1 -1 -1 -1 -1 -1 -1 -1 -1 -1 -1 -1 -1
 MicOpt= -1 -1 -1 -1 -1 -1 -1 -1 -1 -1 -1 -1 -1 -1 -1 -1 -1 -1 -1 -1
 MicOpt= -1 -1 -1 -1 -1 -1 -1 -1 -1 -1 -1 -1 -1 -1 -1 -1 -1 -1 -1 -1
 MicOpt= -1 -1 -1 -1 -1 -1 -1 -1 -1 -1 -1
 NAtoms=     71 NQM=       71 NQMF=       0 NMMI=      0 NMMIF=      0
                NMic=       0 NMicF=      0.
                    Isotopes and Nuclear Properties:
 (Nuclear quadrupole moments (NQMom) in fm**2, nuclear magnetic moments (NMagM)
  in nuclear magnetons)

  Atom         1           2           3           4           5           6           7           8           9          10
 IAtWgt=          12          12          12          12          12          12          12          12          12          12
 AtmWgt=  12.0000000  12.0000000  12.0000000  12.0000000  12.0000000  12.0000000  12.0000000  12.0000000  12.0000000  12.0000000
 NucSpn=           0           0           0           0           0           0           0           0           0           0
 AtZEff=  -0.0000000  -0.0000000  -0.0000000  -0.0000000  -0.0000000  -0.0000000  -0.0000000  -0.0000000  -0.0000000  -0.0000000
 NQMom=    0.0000000   0.0000000   0.0000000   0.0000000   0.0000000   0.0000000   0.0000000   0.0000000   0.0000000   0.0000000
 NMagM=    0.0000000   0.0000000   0.0000000   0.0000000   0.0000000   0.0000000   0.0000000   0.0000000   0.0000000   0.0000000
 AtZNuc=   6.0000000   6.0000000   6.0000000   6.0000000   6.0000000   6.0000000   6.0000000   6.0000000   6.0000000   6.0000000

  Atom        11          12          13          14          15          16          17          18          19          20
 IAtWgt=          12          16          12          12          14          12          12          12          12          12
 AtmWgt=  12.0000000  15.9949146  12.0000000  12.0000000  14.0030740  12.0000000  12.0000000  12.0000000  12.0000000  12.0000000
 NucSpn=           0           0           0           0           2           0           0           0           0           0
 AtZEff=  -0.0000000  -0.0000000  -0.0000000  -0.0000000  -0.0000000  -0.0000000  -0.0000000  -0.0000000  -0.0000000  -0.0000000
 NQMom=    0.0000000   0.0000000   0.0000000   0.0000000   2.0440000   0.0000000   0.0000000   0.0000000   0.0000000   0.0000000
 NMagM=    0.0000000   0.0000000   0.0000000   0.0000000   0.4037610   0.0000000   0.0000000   0.0000000   0.0000000   0.0000000
 AtZNuc=   6.0000000   8.0000000   6.0000000   6.0000000   7.0000000   6.0000000   6.0000000   6.0000000   6.0000000   6.0000000

  Atom        21          22          23          24          25          26          27          28          29          30
 IAtWgt=          12          14          16          16          12          12          12          12          12          12
 AtmWgt=  12.0000000  14.0030740  15.9949146  15.9949146  12.0000000  12.0000000  12.0000000  12.0000000  12.0000000  12.0000000
 NucSpn=           0           2           0           0           0           0           0           0           0           0
 AtZEff=  -0.0000000  -0.0000000  -0.0000000  -0.0000000  -0.0000000  -0.0000000  -0.0000000  -0.0000000  -0.0000000  -0.0000000
 NQMom=    0.0000000   2.0440000   0.0000000   0.0000000   0.0000000   0.0000000   0.0000000   0.0000000   0.0000000   0.0000000
 NMagM=    0.0000000   0.4037610   0.0000000   0.0000000   0.0000000   0.0000000   0.0000000   0.0000000   0.0000000   0.0000000
 AtZNuc=   6.0000000   7.0000000   8.0000000   8.0000000   6.0000000   6.0000000   6.0000000   6.0000000   6.0000000   6.0000000

  Atom        31          32          33          34          35          36          37          38          39          40
 IAtWgt=          12          12          12          12          12          12          12          12          16          12
 AtmWgt=  12.0000000  12.0000000  12.0000000  12.0000000  12.0000000  12.0000000  12.0000000  12.0000000  15.9949146  12.0000000
 NucSpn=           0           0           0           0           0           0           0           0           0           0
 AtZEff=  -0.0000000  -0.0000000  -0.0000000  -0.0000000  -0.0000000  -0.0000000  -0.0000000  -0.0000000  -0.0000000  -0.0000000
 NQMom=    0.0000000   0.0000000   0.0000000   0.0000000   0.0000000   0.0000000   0.0000000   0.0000000   0.0000000   0.0000000
 NMagM=    0.0000000   0.0000000   0.0000000   0.0000000   0.0000000   0.0000000   0.0000000   0.0000000   0.0000000   0.0000000
 AtZNuc=   6.0000000   6.0000000   6.0000000   6.0000000   6.0000000   6.0000000   6.0000000   6.0000000   8.0000000   6.0000000

  Atom        41          42          43          44          45          46          47          48          49          50
 IAtWgt=          12          14          11          19          19           1           1           1           1           1
 AtmWgt=  12.0000000  14.0030740  11.0093053  18.9984033  18.9984033   1.0078250   1.0078250   1.0078250   1.0078250   1.0078250
 NucSpn=           0           2           3           1           1           1           1           1           1           1
 AtZEff=  -0.0000000  -0.0000000  -0.0000000  -0.0000000  -0.0000000  -0.0000000  -0.0000000  -0.0000000  -0.0000000  -0.0000000
 NQMom=    0.0000000   2.0440000   4.0590000   0.0000000   0.0000000   0.0000000   0.0000000   0.0000000   0.0000000   0.0000000
 NMagM=    0.0000000   0.4037610   2.6886370   2.6288670   2.6288670   2.7928460   2.7928460   2.7928460   2.7928460   2.7928460
 AtZNuc=   6.0000000   7.0000000   5.0000000   9.0000000   9.0000000   1.0000000   1.0000000   1.0000000   1.0000000   1.0000000

  Atom        51          52          53          54          55          56          57          58          59          60
 IAtWgt=           1           1           1           1           1           1           1           1           1           1
 AtmWgt=   1.0078250   1.0078250   1.0078250   1.0078250   1.0078250   1.0078250   1.0078250   1.0078250   1.0078250   1.0078250
 NucSpn=           1           1           1           1           1           1           1           1           1           1
 AtZEff=  -0.0000000  -0.0000000  -0.0000000  -0.0000000  -0.0000000  -0.0000000  -0.0000000  -0.0000000  -0.0000000  -0.0000000
 NQMom=    0.0000000   0.0000000   0.0000000   0.0000000   0.0000000   0.0000000   0.0000000   0.0000000   0.0000000   0.0000000
 NMagM=    2.7928460   2.7928460   2.7928460   2.7928460   2.7928460   2.7928460   2.7928460   2.7928460   2.7928460   2.7928460
 AtZNuc=   1.0000000   1.0000000   1.0000000   1.0000000   1.0000000   1.0000000   1.0000000   1.0000000   1.0000000   1.0000000

  Atom        61          62          63          64          65          66          67          68          69          70
 IAtWgt=           1           1           1           1           1           1           1           1           1           1
 AtmWgt=   1.0078250   1.0078250   1.0078250   1.0078250   1.0078250   1.0078250   1.0078250   1.0078250   1.0078250   1.0078250
 NucSpn=           1           1           1           1           1           1           1           1           1           1
 AtZEff=  -0.0000000  -0.0000000  -0.0000000  -0.0000000  -0.0000000  -0.0000000  -0.0000000  -0.0000000  -0.0000000  -0.0000000
 NQMom=    0.0000000   0.0000000   0.0000000   0.0000000   0.0000000   0.0000000   0.0000000   0.0000000   0.0000000   0.0000000
 NMagM=    2.7928460   2.7928460   2.7928460   2.7928460   2.7928460   2.7928460   2.7928460   2.7928460   2.7928460   2.7928460
 AtZNuc=   1.0000000   1.0000000   1.0000000   1.0000000   1.0000000   1.0000000   1.0000000   1.0000000   1.0000000   1.0000000

  Atom        71
 IAtWgt=           1
 AtmWgt=   1.0078250
 NucSpn=           1
 AtZEff=  -0.0000000
 NQMom=    0.0000000
 NMagM=    2.7928460
 AtZNuc=   1.0000000
 Leave Link  101 at Sat Oct 25 05:09:33 2025, MaxMem= 30870077440 cpu:               3.9 elap:               0.1
 (Enter /public/software/gauss/g16/l202.exe)
 Stoichiometry    C35H26BF2N3O4
 Framework group  C1[X(C35H26BF2N3O4)]
 Deg. of freedom   207
 Full point group                 C1      NOp   1
 Largest Abelian subgroup         C1      NOp   1
 Largest concise Abelian subgroup C1      NOp   1
                         Standard orientation:                         
 ---------------------------------------------------------------------
 Center     Atomic      Atomic             Coordinates (Angstroms)
 Number     Number       Type             X           Y           Z
 ---------------------------------------------------------------------
      1          6           0       -3.994285    3.105316   -0.122901
      2          6           0       -2.590551    2.583386   -0.087147
      3          6           0       -1.460089    3.380617   -0.105461
      4          6           0       -0.314494    2.545844   -0.075501
      5          6           0        1.076604    2.920280   -0.087054
      6          6           0        1.506857    4.201919    0.024263
      7          6           0        2.894641    4.647233    0.012644
      8          6           0        3.992992    3.767651   -0.147671
      9          6           0        5.289611    4.249311   -0.146965
     10          6           0        5.538554    5.626243    0.014623
     11          6           0        6.906656    6.155926    0.020272
     12          8           0        7.921844    5.476379   -0.117474
     13          6           0        4.458776    6.507859    0.173204
     14          6           0        3.156754    6.024524    0.171188
     15          7           0       -0.726523    1.245668   -0.046476
     16          6           0       -2.121466    1.222938   -0.046626
     17          6           0       -2.813113   -0.000487   -0.035247
     18          6           0       -4.307365   -0.000565   -0.021998
     19          6           0       -4.997665    0.004454    1.199322
     20          6           0       -6.388218    0.004571    1.223083
     21          6           0       -7.075011   -0.000244    0.009182
     22          7           0       -8.535759   -0.000066    0.025355
     23          8           0       -9.136162   -0.003490   -1.054076
     24          8           0       -9.112394    0.003485    1.117679
     25          6           0       -6.415511   -0.005224   -1.219737
     26          6           0       -5.024861   -0.005406   -1.227264
     27          6           0       -2.121214   -1.223798   -0.044637
     28          6           0       -2.590046   -2.584397   -0.082014
     29          6           0       -3.993695   -3.106736   -0.114963
     30          6           0       -1.459421   -3.381436   -0.099894
     31          6           0       -0.313985   -2.546385   -0.072603
     32          6           0        1.077195   -2.920485   -0.085124
     33          6           0        1.507952   -4.201879    0.027080
     34          6           0        2.895848   -4.646797    0.014118
     35          6           0        3.993803   -3.766859   -0.146956
     36          6           0        5.290548   -4.248175   -0.147808
     37          6           0        5.540033   -5.625106    0.012964
     38          6           0        6.908282   -6.154425    0.016880
     39          8           0        7.923130   -5.474550   -0.121751
     40          6           0        4.460656   -6.507056    0.172421
     41          6           0        3.158504   -6.024063    0.171989
     42          7           0       -0.726257   -1.246217   -0.045480
     43          5           0        0.169607   -0.000096    0.183849
     44          9           0        0.675177    0.000447    1.489387
     45          9           0        1.238860   -0.000281   -0.726278
     46          1           0       -4.572849    2.785578    0.748920
     47          1           0       -3.976619    4.197952   -0.136370
     48          1           0       -4.535633    2.763944   -1.010465
     49          1           0       -1.447992    4.460477   -0.155878
     50          1           0        1.790090    2.112464   -0.198534
     51          1           0        0.772703    4.995661    0.142452
     52          1           0        3.823410    2.703725   -0.273033
     53          1           0        6.128057    3.571410   -0.270282
     54          1           0        6.982290    7.251065    0.161725
     55          1           0        4.648511    7.570597    0.297280
     56          1           0        2.323242    6.709634    0.294103
     57          1           0       -4.444536    0.008179    2.132056
     58          1           0       -6.931056    0.008344    2.159350
     59          1           0       -6.979477   -0.008833   -2.143447
     60          1           0       -4.492844   -0.009196   -2.172181
     61          1           0       -4.572908   -2.780935    0.754150
     62          1           0       -4.534452   -2.771739   -1.005333
     63          1           0       -3.975865   -4.199440   -0.120854
     64          1           0       -1.447152   -4.461397   -0.148050
     65          1           0        1.790321   -2.112606   -0.198431
     66          1           0        0.774169   -4.995729    0.146824
     67          1           0        3.823822   -2.702908   -0.271573
     68          1           0        6.128675   -3.569985   -0.271707
     69          1           0        6.984375   -7.249600    0.157809
     70          1           0        4.650787   -7.569791    0.295915
     71          1           0        2.325315   -6.709450    0.295549
 ---------------------------------------------------------------------
 Rotational constants (GHZ):           0.0628276           0.0371555           0.0237614
 Leave Link  202 at Sat Oct 25 05:09:33 2025, MaxMem= 30870077440 cpu:               0.2 elap:               0.0
 (Enter /public/software/gauss/g16/l301.exe)
 Standard basis: def2TZVPP (5D, 7F)
 Ernie: Thresh=  0.10000D-02 Tol=  0.10000D-05 Strict=F.
 There are  2010 symmetry adapted cartesian basis functions of A   symmetry.
 There are  1759 symmetry adapted basis functions of A   symmetry.
  1759 basis functions,  2737 primitive gaussians,  2010 cartesian basis functions
   156 alpha electrons      156 beta electrons
       nuclear repulsion energy      4811.4839386638 Hartrees.
 IExCor= 4336 DFT=T Ex+Corr=M062X ExCW=0 ScaHFX=  0.540000
 ScaDFX=  1.000000  1.000000  1.000000  1.000000 ScalE2=  1.000000  1.000000
 IRadAn=      5 IRanWt=     -1 IRanGd=            0 ICorTp=0 IEmpDi=131
 NAtoms=   71 NActive=   71 NUniq=   71 SFac= 1.00D+00 NAtFMM=   60 NAOKFM=T Big=T
 Integral buffers will be    131072 words long.
 Raffenetti 2 integral format.
 Two-electron integral symmetry is turned on.
 R6Disp:  Grimme-D3 Dispersion energy=       -0.0056993915 Hartrees.
 Nuclear repulsion after empirical dispersion term =     4811.4782392723 Hartrees.
 ------------------------------------------------------------------------------
 Polarizable Continuum Model (PCM)
 =================================
 Model                : PCM.
 Atomic radii         : UFF (Universal Force Field).
 Polarization charges : Total charges.
 Charge compensation  : None.
 Solution method      : On-the-fly selection.
 Cavity type          : Scaled VdW (van der Waals Surface) (Alpha=1.100).
 Cavity algorithm     : GePol (No added spheres)
                        Default sphere list used, NSphG=   71.
                        Lebedev-Laikov grids with approx.  5.0 points / Ang**2.
                        Smoothing algorithm: York/Karplus (Gamma=1.0000).
                        Polarization charges: spherical gaussians, with
                                              point-specific exponents (IZeta= 3).
                        Self-potential: point-specific (ISelfS= 7).
                        Self-field    : sphere-specific E.n sum rule (ISelfD= 2).
 Solvent              : Water, Eps=  78.355300 Eps(inf)=   1.777849
 ------------------------------------------------------------------------------
 GePol: Number of generator spheres                  =      71
 GePol: Total number of spheres                      =      71
 GePol: Number of exposed spheres                    =      71 (100.00%)
 GePol: Number of points                             =    5402
 GePol: Average weight of points                     =       0.13
 GePol: Minimum weight of points                     =   0.55D-10
 GePol: Maximum weight of points                     =    0.20577
 GePol: Number of points with low weight             =     357
 GePol: Fraction of low-weight points (<1% of avg)   =       6.61%
 GePol: Cavity surface area                          =    679.073 Ang**2
 GePol: Cavity volume                                =    781.294 Ang**3
 Leave Link  301 at Sat Oct 25 05:09:33 2025, MaxMem= 30870077440 cpu:               4.9 elap:               0.1
 (Enter /public/software/gauss/g16/l302.exe)
 NPDir=0 NMtPBC=     1 NCelOv=     1 NCel=       1 NClECP=     1 NCelD=      1
         NCelK=      1 NCelE2=     1 NClLst=     1 CellRange=     0.0.
 One-electron integrals computed using PRISM.
 One-electron integral symmetry used in STVInt
   1 Symmetry operations used in ECPInt.
 ECPInt:  NShTT=  212226 NPrTT=  615454 LenC2=  132674 LenP2D=  257906.
 LDataN:  DoStor=T MaxTD1= 6 Len=  172
 NBasis=  1759 RedAO= T EigKep=  3.61D-06  NBF=  1759
 NBsUse=  1759 1.00D-06 EigRej= -1.00D+00 NBFU=  1759
 Precomputing XC quadrature grid using
 IXCGrd= 4 IRadAn=           5 IRanWt=          -1 IRanGd=           0 AccXCQ= 0.00D+00.
 Generated NRdTot=       0 NPtTot=           0 NUsed=           0 NTot=          32
 NSgBfM=  1787  1787  1787  1787  1787 MxSgAt=    71 MxSgA2=    71.
 Leave Link  302 at Sat Oct 25 05:09:41 2025, MaxMem= 30870077440 cpu:             522.6 elap:               8.2
 (Enter /public/software/gauss/g16/l303.exe)
 DipDrv:  MaxL=1.
 Leave Link  303 at Sat Oct 25 05:09:42 2025, MaxMem= 30870077440 cpu:              25.1 elap:               0.5
 (Enter /public/software/gauss/g16/l401.exe)
 ExpMin= 6.06D-02 ExpMax= 3.55D+04 ExpMxC= 1.21D+03 IAcc=3 IRadAn=         5 AccDes= 0.00D+00
 Harris functional with IExCor= 1009 and IRadAn=       5 diagonalized for initial guess.
 HarFok:  IExCor= 1009 AccDes= 0.00D+00 IRadAn=         5 IDoV= 1 UseB2=F ITyADJ=14
 ICtDFT=  3500011 ScaDFX=  1.000000  1.000000  1.000000  1.000000
 FoFCou: FMM=F IPFlag=           0 FMFlag=      100000 FMFlg1=        2001
         NFxFlg=           0 DoJE=T BraDBF=F KetDBF=T FulRan=T
         wScrn=  0.000000 ICntrl=       500 IOpCl=  0 I1Cent=   200000004 NGrid=           0
         NMat0=    1 NMatS0=      1 NMatT0=    0 NMatD0=    1 NMtDS0=    0 NMtDT0=    0
 Petite list used in FoFCou.
 Harris En= -2038.09681257143    
 JPrj=0 DoOrth=F DoCkMO=F.
 Leave Link  401 at Sat Oct 25 05:09:51 2025, MaxMem= 30870077440 cpu:             575.8 elap:               9.1
 (Enter /public/software/gauss/g16/l502.exe)
 Integral symmetry usage will be decided dynamically.
 Closed shell SCF:
 Using DIIS extrapolation, IDIIS=  1040.
 NGot= 30870077440 LenX= 30861851757 LenY= 30857809647
 Requested convergence on RMS density matrix=1.00D-08 within 128 cycles.
 Requested convergence on MAX density matrix=1.00D-06.
 Requested convergence on             energy=1.00D-06.
 No special actions if energy rises.
 Fock matrices will be formed incrementally for  20 cycles.

 Cycle   1  Pass 1  IDiag  1:
 FoFJK:  IHMeth= 1 ICntrl=       0 DoSepK=F KAlg= 0 I1Cent=           0 FoldK=F
 IRaf= 580000000 NMat=       1 IRICut=       1 DoRegI=T DoRafI=F ISym2E= 0 IDoP0=0 IntGTp=1.
 FoFCou: FMM=T IPFlag=           0 FMFlag=      100000 FMFlg1=        2001
         NFxFlg=           0 DoJE=F BraDBF=F KetDBF=F FulRan=T
         wScrn=  0.000000 ICntrl=         0 IOpCl=  0 I1Cent=           0 NGrid=           0
         NMat0=    1 NMatS0=      1 NMatT0=    0 NMatD0=    1 NMtDS0=    0 NMtDT0=    0
 Symmetry not used in FoFCou.
 FMM levels:  10  Number of levels for PrismC:   9
 Inv3:  Mode=1 IEnd=    87544812.
 Iteration    1 A*A^-1 deviation from unit magnitude is 1.27D-14 for    168.
 Iteration    1 A*A^-1 deviation from orthogonality  is 5.17D-15 for   4641     66.
 Iteration    1 A^-1*A deviation from unit magnitude is 1.29D-14 for    168.
 Iteration    1 A^-1*A deviation from orthogonality  is 6.05D-15 for   4603    648.
 E= -2038.16584582129    
 DIIS: error= 3.03D-02 at cycle   1 NSaved=   1.
 NSaved= 1 IEnMin= 1 EnMin= -2038.16584582129     IErMin= 1 ErrMin= 3.03D-02
 ErrMax= 3.03D-02  0.00D+00 EMaxC= 1.00D-01 BMatC= 1.35D+00 BMatP= 1.35D+00
 IDIUse=3 WtCom= 6.97D-01 WtEn= 3.03D-01
 Coeff-Com:  0.100D+01
 Coeff-En:   0.100D+01
 Coeff:      0.100D+01
 Gap=     0.132 Goal=   None    Shift=    0.000
 GapD=    0.132 DampG=1.000 DampE=0.500 DampFc=0.5000 IDamp=-1.
 Damping current iteration by 5.00D-01
 RMSDP=1.78D-03 MaxDP=5.20D-01              OVMax= 2.62D-01

 Cycle   2  Pass 1  IDiag  1:
 RMSU=  8.89D-04    CP:  9.96D-01
 E= -2038.64272592702     Delta-E=       -0.476880105728 Rises=F Damp=T
 DIIS: error= 5.55D-03 at cycle   2 NSaved=   2.
 NSaved= 2 IEnMin= 2 EnMin= -2038.64272592702     IErMin= 2 ErrMin= 5.55D-03
 ErrMax= 5.55D-03  0.00D+00 EMaxC= 1.00D-01 BMatC= 1.40D-01 BMatP= 1.35D+00
 IDIUse=3 WtCom= 9.44D-01 WtEn= 5.55D-02
 Coeff-Com: -0.556D-01 0.106D+01
 Coeff-En:   0.000D+00 0.100D+01
 Coeff:     -0.525D-01 0.105D+01
 Gap=     0.180 Goal=   None    Shift=    0.000
 RMSDP=6.67D-04 MaxDP=1.07D-01 DE=-4.77D-01 OVMax= 2.12D-01

 Cycle   3  Pass 1  IDiag  1:
 RMSU=  6.59D-04    CP:  9.71D-01  1.03D+00
 E= -2039.09657900557     Delta-E=       -0.453853078549 Rises=F Damp=F
 DIIS: error= 1.19D-02 at cycle   3 NSaved=   3.
 NSaved= 3 IEnMin= 3 EnMin= -2039.09657900557     IErMin= 2 ErrMin= 5.55D-03
 ErrMax= 1.19D-02  0.00D+00 EMaxC= 1.00D-01 BMatC= 8.08D-02 BMatP= 1.40D-01
 IDIUse=3 WtCom= 8.81D-01 WtEn= 1.19D-01
 Coeff-Com: -0.119D+00 0.487D+00 0.632D+00
 Coeff-En:   0.000D+00 0.000D+00 0.100D+01
 Coeff:     -0.104D+00 0.429D+00 0.676D+00
 Gap=     0.132 Goal=   None    Shift=    0.000
 RMSDP=1.95D-04 MaxDP=3.54D-02 DE=-4.54D-01 OVMax= 7.70D-02

 Cycle   4  Pass 1  IDiag  1:
 RMSU=  1.68D-04    CP:  9.76D-01  1.11D+00  9.01D-01
 E= -2039.14687417690     Delta-E=       -0.050295171332 Rises=F Damp=F
 DIIS: error= 4.25D-03 at cycle   4 NSaved=   4.
 NSaved= 4 IEnMin= 4 EnMin= -2039.14687417690     IErMin= 4 ErrMin= 4.25D-03
 ErrMax= 4.25D-03  0.00D+00 EMaxC= 1.00D-01 BMatC= 1.39D-02 BMatP= 8.08D-02
 IDIUse=3 WtCom= 9.58D-01 WtEn= 4.25D-02
 Coeff-Com: -0.324D-01 0.868D-01 0.338D+00 0.608D+00
 Coeff-En:   0.000D+00 0.000D+00 0.131D+00 0.869D+00
 Coeff:     -0.310D-01 0.831D-01 0.329D+00 0.619D+00
 Gap=     0.134 Goal=   None    Shift=    0.000
 RMSDP=7.43D-05 MaxDP=1.91D-02 DE=-5.03D-02 OVMax= 1.96D-02

 Cycle   5  Pass 1  IDiag  1:
 RMSU=  4.67D-05    CP:  9.74D-01  1.08D+00  9.39D-01  7.69D-01
 E= -2039.15721310736     Delta-E=       -0.010338930460 Rises=F Damp=F
 DIIS: error= 4.09D-04 at cycle   5 NSaved=   5.
 NSaved= 5 IEnMin= 5 EnMin= -2039.15721310736     IErMin= 5 ErrMin= 4.09D-04
 ErrMax= 4.09D-04  0.00D+00 EMaxC= 1.00D-01 BMatC= 3.86D-04 BMatP= 1.39D-02
 IDIUse=3 WtCom= 9.96D-01 WtEn= 4.09D-03
 Coeff-Com: -0.807D-02 0.146D-01 0.114D+00 0.268D+00 0.611D+00
 Coeff-En:   0.000D+00 0.000D+00 0.000D+00 0.000D+00 0.100D+01
 Coeff:     -0.804D-02 0.146D-01 0.114D+00 0.267D+00 0.612D+00
 Gap=     0.135 Goal=   None    Shift=    0.000
 RMSDP=1.46D-05 MaxDP=1.46D-03 DE=-1.03D-02 OVMax= 4.14D-03

 Cycle   6  Pass 1  IDiag  1:
 RMSU=  1.34D-05    CP:  9.73D-01  1.08D+00  9.38D-01  7.84D-01  9.03D-01
 E= -2039.15755121061     Delta-E=       -0.000338103251 Rises=F Damp=F
 DIIS: error= 1.60D-04 at cycle   6 NSaved=   6.
 NSaved= 6 IEnMin= 6 EnMin= -2039.15755121061     IErMin= 6 ErrMin= 1.60D-04
 ErrMax= 1.60D-04  0.00D+00 EMaxC= 1.00D-01 BMatC= 2.78D-05 BMatP= 3.86D-04
 IDIUse=3 WtCom= 9.98D-01 WtEn= 1.60D-03
 Coeff-Com: -0.211D-03-0.160D-02 0.138D-01 0.421D-01 0.231D+00 0.715D+00
 Coeff-En:   0.000D+00 0.000D+00 0.000D+00 0.000D+00 0.000D+00 0.100D+01
 Coeff:     -0.210D-03-0.160D-02 0.137D-01 0.421D-01 0.231D+00 0.715D+00
 Gap=     0.135 Goal=   None    Shift=    0.000
 RMSDP=8.17D-06 MaxDP=1.98D-03 DE=-3.38D-04 OVMax= 3.02D-03

 Cycle   7  Pass 1  IDiag  1:
 RMSU=  6.04D-06    CP:  9.74D-01  1.07D+00  9.42D-01  7.79D-01  9.69D-01
                    CP:  9.23D-01
 E= -2039.15758390449     Delta-E=       -0.000032693875 Rises=F Damp=F
 DIIS: error= 4.31D-05 at cycle   7 NSaved=   7.
 NSaved= 7 IEnMin= 7 EnMin= -2039.15758390449     IErMin= 7 ErrMin= 4.31D-05
 ErrMax= 4.31D-05  0.00D+00 EMaxC= 1.00D-01 BMatC= 5.14D-06 BMatP= 2.78D-05
 IDIUse=1 WtCom= 1.00D+00 WtEn= 0.00D+00
 Coeff-Com:  0.114D-02-0.301D-02-0.110D-01-0.227D-01 0.152D-01 0.318D+00
 Coeff-Com:  0.702D+00
 Coeff:      0.114D-02-0.301D-02-0.110D-01-0.227D-01 0.152D-01 0.318D+00
 Coeff:      0.702D+00
 Gap=     0.136 Goal=   None    Shift=    0.000
 RMSDP=3.32D-06 MaxDP=6.41D-04 DE=-3.27D-05 OVMax= 1.53D-03

 Cycle   8  Pass 1  IDiag  1:
 RMSU=  2.08D-06    CP:  9.73D-01  1.07D+00  9.42D-01  7.83D-01  1.00D+00
                    CP:  1.00D+00  1.09D+00
 E= -2039.15759124360     Delta-E=       -0.000007339117 Rises=F Damp=F
 DIIS: error= 2.63D-05 at cycle   8 NSaved=   8.
 NSaved= 8 IEnMin= 8 EnMin= -2039.15759124360     IErMin= 8 ErrMin= 2.63D-05
 ErrMax= 2.63D-05  0.00D+00 EMaxC= 1.00D-01 BMatC= 9.98D-07 BMatP= 5.14D-06
 IDIUse=1 WtCom= 1.00D+00 WtEn= 0.00D+00
 Coeff-Com:  0.571D-03-0.115D-02-0.745D-02-0.186D-01-0.325D-01 0.221D-01
 Coeff-Com:  0.333D+00 0.704D+00
 Coeff:      0.571D-03-0.115D-02-0.745D-02-0.186D-01-0.325D-01 0.221D-01
 Coeff:      0.333D+00 0.704D+00
 Gap=     0.136 Goal=   None    Shift=    0.000
 RMSDP=1.77D-06 MaxDP=5.09D-04 DE=-7.34D-06 OVMax= 8.56D-04

 Cycle   9  Pass 1  IDiag  1:
 RMSU=  8.99D-07    CP:  9.73D-01  1.07D+00  9.43D-01  7.83D-01  1.01D+00
                    CP:  1.02D+00  1.24D+00  1.06D+00
 E= -2039.15759281668     Delta-E=       -0.000001573076 Rises=F Damp=F
 DIIS: error= 9.11D-06 at cycle   9 NSaved=   9.
 NSaved= 9 IEnMin= 9 EnMin= -2039.15759281668     IErMin= 9 ErrMin= 9.11D-06
 ErrMax= 9.11D-06  0.00D+00 EMaxC= 1.00D-01 BMatC= 9.14D-08 BMatP= 9.98D-07
 IDIUse=1 WtCom= 1.00D+00 WtEn= 0.00D+00
 Coeff-Com:  0.316D-04 0.297D-04-0.928D-03-0.344D-02-0.124D-01-0.348D-01
 Coeff-Com:  0.209D-01 0.229D+00 0.801D+00
 Coeff:      0.316D-04 0.297D-04-0.928D-03-0.344D-02-0.124D-01-0.348D-01
 Coeff:      0.209D-01 0.229D+00 0.801D+00
 Gap=     0.136 Goal=   None    Shift=    0.000
 RMSDP=5.91D-07 MaxDP=1.18D-04 DE=-1.57D-06 OVMax= 3.50D-04

 Cycle  10  Pass 1  IDiag  1:
 RMSU=  3.71D-07    CP:  9.73D-01  1.07D+00  9.43D-01  7.83D-01  1.02D+00
                    CP:  1.03D+00  1.27D+00  1.18D+00  1.05D+00
 E= -2039.15759301528     Delta-E=       -0.000000198598 Rises=F Damp=F
 DIIS: error= 3.72D-06 at cycle  10 NSaved=  10.
 NSaved=10 IEnMin=10 EnMin= -2039.15759301528     IErMin=10 ErrMin= 3.72D-06
 ErrMax= 3.72D-06  0.00D+00 EMaxC= 1.00D-01 BMatC= 3.09D-08 BMatP= 9.14D-08
 IDIUse=1 WtCom= 1.00D+00 WtEn= 0.00D+00
 Coeff-Com: -0.791D-04 0.208D-03 0.804D-03 0.139D-02-0.495D-03-0.204D-01
 Coeff-Com: -0.454D-01-0.174D-01 0.412D+00 0.670D+00
 Coeff:     -0.791D-04 0.208D-03 0.804D-03 0.139D-02-0.495D-03-0.204D-01
 Coeff:     -0.454D-01-0.174D-01 0.412D+00 0.670D+00
 Gap=     0.136 Goal=   None    Shift=    0.000
 RMSDP=2.95D-07 MaxDP=8.11D-05 DE=-1.99D-07 OVMax= 1.62D-04

 Cycle  11  Pass 1  IDiag  1:
 RMSU=  1.31D-07    CP:  9.73D-01  1.07D+00  9.43D-01  7.83D-01  1.02D+00
                    CP:  1.03D+00  1.30D+00  1.21D+00  1.17D+00  1.04D+00
 E= -2039.15759306024     Delta-E=       -0.000000044963 Rises=F Damp=F
 DIIS: error= 1.28D-06 at cycle  11 NSaved=  11.
 NSaved=11 IEnMin=11 EnMin= -2039.15759306024     IErMin=11 ErrMin= 1.28D-06
 ErrMax= 1.28D-06  0.00D+00 EMaxC= 1.00D-01 BMatC= 3.17D-09 BMatP= 3.09D-08
 IDIUse=1 WtCom= 1.00D+00 WtEn= 0.00D+00
 Coeff-Com: -0.404D-04 0.905D-04 0.505D-03 0.114D-02 0.145D-02-0.521D-02
 Coeff-Com: -0.250D-01-0.450D-01 0.850D-01 0.294D+00 0.694D+00
 Coeff:     -0.404D-04 0.905D-04 0.505D-03 0.114D-02 0.145D-02-0.521D-02
 Coeff:     -0.250D-01-0.450D-01 0.850D-01 0.294D+00 0.694D+00
 Gap=     0.136 Goal=   None    Shift=    0.000
 RMSDP=1.03D-07 MaxDP=3.02D-05 DE=-4.50D-08 OVMax= 4.33D-05

 Cycle  12  Pass 1  IDiag  1:
 RMSU=  4.29D-08    CP:  9.73D-01  1.07D+00  9.43D-01  7.83D-01  1.02D+00
                    CP:  1.03D+00  1.30D+00  1.22D+00  1.22D+00  1.13D+00
                    CP:  1.06D+00
 E= -2039.15759306466     Delta-E=       -0.000000004423 Rises=F Damp=F
 DIIS: error= 6.39D-07 at cycle  12 NSaved=  12.
 NSaved=12 IEnMin=12 EnMin= -2039.15759306466     IErMin=12 ErrMin= 6.39D-07
 ErrMax= 6.39D-07  0.00D+00 EMaxC= 1.00D-01 BMatC= 4.46D-10 BMatP= 3.17D-09
 IDIUse=1 WtCom= 1.00D+00 WtEn= 0.00D+00
 Coeff-Com: -0.584D-05 0.101D-04 0.104D-03 0.286D-03 0.681D-03 0.588D-03
 Coeff-Com: -0.395D-02-0.168D-01-0.140D-01 0.345D-01 0.308D+00 0.691D+00
 Coeff:     -0.584D-05 0.101D-04 0.104D-03 0.286D-03 0.681D-03 0.588D-03
 Coeff:     -0.395D-02-0.168D-01-0.140D-01 0.345D-01 0.308D+00 0.691D+00
 Gap=     0.136 Goal=   None    Shift=    0.000
 RMSDP=2.23D-08 MaxDP=2.52D-06 DE=-4.42D-09 OVMax= 1.25D-05

 Cycle  13  Pass 1  IDiag  1:
 RMSU=  1.73D-08    CP:  9.73D-01  1.07D+00  9.43D-01  7.83D-01  1.02D+00
                    CP:  1.03D+00  1.30D+00  1.22D+00  1.22D+00  1.14D+00
                    CP:  1.12D+00  1.03D+00
 E= -2039.15759306438     Delta-E=        0.000000000286 Rises=F Damp=F
 DIIS: error= 1.72D-07 at cycle  13 NSaved=  13.
 NSaved=13 IEnMin=12 EnMin= -2039.15759306466     IErMin=13 ErrMin= 1.72D-07
 ErrMax= 1.72D-07  0.00D+00 EMaxC= 1.00D-01 BMatC= 6.97D-11 BMatP= 4.46D-10
 IDIUse=1 WtCom= 1.00D+00 WtEn= 0.00D+00
 Coeff-Com:  0.258D-05-0.711D-05-0.164D-04-0.107D-04 0.139D-03 0.939D-03
 Coeff-Com:  0.144D-02-0.215D-02-0.170D-01-0.254D-01 0.442D-01 0.328D+00
 Coeff-Com:  0.670D+00
 Coeff:      0.258D-05-0.711D-05-0.164D-04-0.107D-04 0.139D-03 0.939D-03
 Coeff:      0.144D-02-0.215D-02-0.170D-01-0.254D-01 0.442D-01 0.328D+00
 Coeff:      0.670D+00
 Gap=     0.136 Goal=   None    Shift=    0.000
 RMSDP=1.19D-08 MaxDP=2.76D-06 DE= 2.86D-10 OVMax= 3.72D-06

 Cycle  14  Pass 1  IDiag  1:
 RMSU=  6.11D-09    CP:  9.73D-01  1.07D+00  9.43D-01  7.83D-01  1.02D+00
                    CP:  1.03D+00  1.30D+00  1.22D+00  1.22D+00  1.15D+00
                    CP:  1.15D+00  1.10D+00  9.54D-01
 E= -2039.15759306502     Delta-E=       -0.000000000647 Rises=F Damp=F
 DIIS: error= 5.26D-08 at cycle  14 NSaved=  14.
 NSaved=14 IEnMin=14 EnMin= -2039.15759306502     IErMin=14 ErrMin= 5.26D-08
 ErrMax= 5.26D-08  0.00D+00 EMaxC= 1.00D-01 BMatC= 4.97D-12 BMatP= 6.97D-11
 IDIUse=1 WtCom= 1.00D+00 WtEn= 0.00D+00
 Coeff-Com:  0.155D-05-0.361D-05-0.185D-04-0.383D-04-0.311D-04 0.263D-03
 Coeff-Com:  0.102D-02 0.127D-02-0.434D-02-0.150D-01-0.258D-01 0.374D-01
 Coeff-Com:  0.231D+00 0.775D+00
 Coeff:      0.155D-05-0.361D-05-0.185D-04-0.383D-04-0.311D-04 0.263D-03
 Coeff:      0.102D-02 0.127D-02-0.434D-02-0.150D-01-0.258D-01 0.374D-01
 Coeff:      0.231D+00 0.775D+00
 Gap=     0.136 Goal=   None    Shift=    0.000
 RMSDP=3.01D-09 MaxDP=3.13D-07 DE=-6.47D-10 OVMax= 1.21D-06

 Error on total polarization charges =  0.02341
 SCF Done:  E(RM062X) =  -2039.15759307     A.U. after   14 cycles
            NFock= 14  Conv=0.30D-08     -V/T= 2.0053
 KE= 2.028345210161D+03 PE=-1.437666548608D+04 EE= 5.497684443579D+03
 Leave Link  502 at Sat Oct 25 05:23:00 2025, MaxMem= 30870077440 cpu:           49562.3 elap:             789.0
 (Enter /public/software/gauss/g16/l601.exe)
 Copying SCF densities to generalized density rwf, IOpCl= 0 IROHF=0.

 **********************************************************************

            Population analysis using the SCF density.

 **********************************************************************

 Orbital symmetries:
       Occupied  (A) (A) (A) (A) (A) (A) (A) (A) (A) (A) (A) (A)
                 (A) (A) (A) (A) (A) (A) (A) (A) (A) (A) (A) (A)
                 (A) (A) (A) (A) (A) (A) (A) (A) (A) (A) (A) (A)
                 (A) (A) (A) (A) (A) (A) (A) (A) (A) (A) (A) (A)
                 (A) (A) (A) (A) (A) (A) (A) (A) (A) (A) (A) (A)
                 (A) (A) (A) (A) (A) (A) (A) (A) (A) (A) (A) (A)
                 (A) (A) (A) (A) (A) (A) (A) (A) (A) (A) (A) (A)
                 (A) (A) (A) (A) (A) (A) (A) (A) (A) (A) (A) (A)
                 (A) (A) (A) (A) (A) (A) (A) (A) (A) (A) (A) (A)
                 (A) (A) (A) (A) (A) (A) (A) (A) (A) (A) (A) (A)
                 (A) (A) (A) (A) (A) (A) (A) (A) (A) (A) (A) (A)
                 (A) (A) (A) (A) (A) (A) (A) (A) (A) (A) (A) (A)
                 (A) (A) (A) (A) (A) (A) (A) (A) (A) (A) (A) (A)
       Virtual   (A) (A) (A) (A) (A) (A) (A) (A) (A) (A) (A) (A)
                 (A) (A) (A) (A) (A) (A) (A) (A) (A) (A) (A) (A)
                 (A) (A) (A) (A) (A) (A) (A) (A) (A) (A) (A) (A)
                 (A) (A) (A) (A) (A) (A) (A) (A) (A) (A) (A) (A)
                 (A) (A) (A) (A) (A) (A) (A) (A) (A) (A) (A) (A)
                 (A) (A) (A) (A) (A) (A) (A) (A) (A) (A) (A) (A)
                 (A) (A) (A) (A) (A) (A) (A) (A) (A) (A) (A) (A)
                 (A) (A) (A) (A) (A) (A) (A) (A) (A) (A) (A) (A)
                 (A) (A) (A) (A) (A) (A) (A) (A) (A) (A) (A) (A)
                 (A) (A) (A) (A) (A) (A) (A) (A) (A) (A) (A) (A)
                 (A) (A) (A) (A) (A) (A) (A) (A) (A) (A) (A) (A)
                 (A) (A) (A) (A) (A) (A) (A) (A) (A) (A) (A) (A)
                 (A) (A) (A) (A) (A) (A) (A) (A) (A) (A) (A) (A)
                 (A) (A) (A) (A) (A) (A) (A) (A) (A) (A) (A) (A)
                 (A) (A) (A) (A) (A) (A) (A) (A) (A) (A) (A) (A)
                 (A) (A) (A) (A) (A) (A) (A) (A) (A) (A) (A) (A)
                 (A) (A) (A) (A) (A) (A) (A) (A) (A) (A) (A) (A)
                 (A) (A) (A) (A) (A) (A) (A) (A) (A) (A) (A) (A)
                 (A) (A) (A) (A) (A) (A) (A) (A) (A) (A) (A) (A)
                 (A) (A) (A) (A) (A) (A) (A) (A) (A) (A) (A) (A)
                 (A) (A) (A) (A) (A) (A) (A) (A) (A) (A) (A) (A)
                 (A) (A) (A) (A) (A) (A) (A) (A) (A) (A) (A) (A)
                 (A) (A) (A) (A) (A) (A) (A) (A) (A) (A) (A) (A)
                 (A) (A) (A) (A) (A) (A) (A) (A) (A) (A) (A) (A)
                 (A) (A) (A) (A) (A) (A) (A) (A) (A) (A) (A) (A)
                 (A) (A) (A) (A) (A) (A) (A) (A) (A) (A) (A) (A)
                 (A) (A) (A) (A) (A) (A) (A) (A) (A) (A) (A) (A)
                 (A) (A) (A) (A) (A) (A) (A) (A) (A) (A) (A) (A)
                 (A) (A) (A) (A) (A) (A) (A) (A) (A) (A) (A) (A)
                 (A) (A) (A) (A) (A) (A) (A) (A) (A) (A) (A) (A)
                 (A) (A) (A) (A) (A) (A) (A) (A) (A) (A) (A) (A)
                 (A) (A) (A) (A) (A) (A) (A) (A) (A) (A) (A) (A)
                 (A) (A) (A) (A) (A) (A) (A) (A) (A) (A) (A) (A)
                 (A) (A) (A) (A) (A) (A) (A) (A) (A) (A) (A) (A)
                 (A) (A) (A) (A) (A) (A) (A) (A) (A) (A) (A) (A)
                 (A) (A) (A) (A) (A) (A) (A) (A) (A) (A) (A) (A)
                 (A) (A) (A) (A) (A) (A) (A) (A) (A) (A) (A) (A)
                 (A) (A) (A) (A) (A) (A) (A) (A) (A) (A) (A) (A)
                 (A) (A) (A) (A) (A) (A) (A) (A) (A) (A) (A) (A)
                 (A) (A) (A) (A) (A) (A) (A) (A) (A) (A) (A) (A)
                 (A) (A) (A) (A) (A) (A) (A) (A) (A) (A) (A) (A)
                 (A) (A) (A) (A) (A) (A) (A) (A) (A) (A) (A) (A)
                 (A) (A) (A) (A) (A) (A) (A) (A) (A) (A) (A) (A)
                 (A) (A) (A) (A) (A) (A) (A) (A) (A) (A) (A) (A)
                 (A) (A) (A) (A) (A) (A) (A) (A) (A) (A) (A) (A)
                 (A) (A) (A) (A) (A) (A) (A) (A) (A) (A) (A) (A)
                 (A) (A) (A) (A) (A) (A) (A) (A) (A) (A) (A) (A)
                 (A) (A) (A) (A) (A) (A) (A) (A) (A) (A) (A) (A)
                 (A) (A) (A) (A) (A) (A) (A) (A) (A) (A) (A) (A)
                 (A) (A) (A) (A) (A) (A) (A) (A) (A) (A) (A) (A)
                 (A) (A) (A) (A) (A) (A) (A) (A) (A) (A) (A) (A)
                 (A) (A) (A) (A) (A) (A) (A) (A) (A) (A) (A) (A)
                 (A) (A) (A) (A) (A) (A) (A) (A) (A) (A) (A) (A)
                 (A) (A) (A) (A) (A) (A) (A) (A) (A) (A) (A) (A)
                 (A) (A) (A) (A) (A) (A) (A) (A) (A) (A) (A) (A)
                 (A) (A) (A) (A) (A) (A) (A) (A) (A) (A) (A) (A)
                 (A) (A) (A) (A) (A) (A) (A) (A) (A) (A) (A) (A)
                 (A) (A) (A) (A) (A) (A) (A) (A) (A) (A) (A) (A)
                 (A) (A) (A) (A) (A) (A) (A) (A) (A) (A) (A) (A)
                 (A) (A) (A) (A) (A) (A) (A) (A) (A) (A) (A) (A)
                 (A) (A) (A) (A) (A) (A) (A) (A) (A) (A) (A) (A)
                 (A) (A) (A) (A) (A) (A) (A) (A) (A) (A) (A) (A)
                 (A) (A) (A) (A) (A) (A) (A) (A) (A) (A) (A) (A)
                 (A) (A) (A) (A) (A) (A) (A) (A) (A) (A) (A) (A)
                 (A) (A) (A) (A) (A) (A) (A) (A) (A) (A) (A) (A)
                 (A) (A) (A) (A) (A) (A) (A) (A) (A) (A) (A) (A)
                 (A) (A) (A) (A) (A) (A) (A) (A) (A) (A) (A) (A)
                 (A) (A) (A) (A) (A) (A) (A) (A) (A) (A) (A) (A)
                 (A) (A) (A) (A) (A) (A) (A) (A) (A) (A) (A) (A)
                 (A) (A) (A) (A) (A) (A) (A) (A) (A) (A) (A) (A)
                 (A) (A) (A) (A) (A) (A) (A) (A) (A) (A) (A) (A)
                 (A) (A) (A) (A) (A) (A) (A) (A) (A) (A) (A) (A)
                 (A) (A) (A) (A) (A) (A) (A) (A) (A) (A) (A) (A)
                 (A) (A) (A) (A) (A) (A) (A) (A) (A) (A) (A) (A)
                 (A) (A) (A) (A) (A) (A) (A) (A) (A) (A) (A) (A)
                 (A) (A) (A) (A) (A) (A) (A) (A) (A) (A) (A) (A)
                 (A) (A) (A) (A) (A) (A) (A) (A) (A) (A) (A) (A)
                 (A) (A) (A) (A) (A) (A) (A) (A) (A) (A) (A) (A)
                 (A) (A) (A) (A) (A) (A) (A) (A) (A) (A) (A) (A)
                 (A) (A) (A) (A) (A) (A) (A) (A) (A) (A) (A) (A)
                 (A) (A) (A) (A) (A) (A) (A) (A) (A) (A) (A) (A)
                 (A) (A) (A) (A) (A) (A) (A) (A) (A) (A) (A) (A)
                 (A) (A) (A) (A) (A) (A) (A) (A) (A) (A) (A) (A)
                 (A) (A) (A) (A) (A) (A) (A) (A) (A) (A) (A) (A)
                 (A) (A) (A) (A) (A) (A) (A) (A) (A) (A) (A) (A)
                 (A) (A) (A) (A) (A) (A) (A) (A) (A) (A) (A) (A)
                 (A) (A) (A) (A) (A) (A) (A) (A) (A) (A) (A) (A)
                 (A) (A) (A) (A) (A) (A) (A) (A) (A) (A) (A) (A)
                 (A) (A) (A) (A) (A) (A) (A) (A) (A) (A) (A) (A)
                 (A) (A) (A) (A) (A) (A) (A) (A) (A) (A) (A) (A)
                 (A) (A) (A) (A) (A) (A) (A) (A) (A) (A) (A) (A)
                 (A) (A) (A) (A) (A) (A) (A) (A) (A) (A) (A) (A)
                 (A) (A) (A) (A) (A) (A) (A) (A) (A) (A) (A) (A)
                 (A) (A) (A) (A) (A) (A) (A) (A) (A) (A) (A) (A)
                 (A) (A) (A) (A) (A) (A) (A) (A) (A) (A) (A) (A)
                 (A) (A) (A) (A) (A) (A) (A) (A) (A) (A) (A) (A)
                 (A) (A) (A) (A) (A) (A) (A) (A) (A) (A) (A) (A)
                 (A) (A) (A) (A) (A) (A) (A) (A) (A) (A) (A) (A)
                 (A) (A) (A) (A) (A) (A) (A) (A) (A) (A) (A) (A)
                 (A) (A) (A) (A) (A) (A) (A) (A) (A) (A) (A) (A)
                 (A) (A) (A) (A) (A) (A) (A) (A) (A) (A) (A) (A)
                 (A) (A) (A) (A) (A) (A) (A) (A) (A) (A) (A) (A)
                 (A) (A) (A) (A) (A) (A) (A) (A) (A) (A) (A) (A)
                 (A) (A) (A) (A) (A) (A) (A) (A) (A) (A) (A) (A)
                 (A) (A) (A) (A) (A) (A) (A) (A) (A) (A) (A) (A)
                 (A) (A) (A) (A) (A) (A) (A) (A) (A) (A) (A) (A)
                 (A) (A) (A) (A) (A) (A) (A) (A) (A) (A) (A) (A)
                 (A) (A) (A) (A) (A) (A) (A) (A) (A) (A) (A) (A)
                 (A) (A) (A) (A) (A) (A) (A) (A) (A) (A) (A) (A)
                 (A) (A) (A) (A) (A) (A) (A) (A) (A) (A) (A) (A)
                 (A) (A) (A) (A) (A) (A) (A) (A) (A) (A) (A) (A)
                 (A) (A) (A) (A) (A) (A) (A) (A) (A) (A) (A) (A)
                 (A) (A) (A) (A) (A) (A) (A) (A) (A) (A) (A) (A)
                 (A) (A) (A) (A) (A) (A) (A) (A) (A) (A) (A) (A)
                 (A) (A) (A) (A) (A) (A) (A) (A) (A) (A) (A) (A)
                 (A) (A) (A) (A) (A) (A) (A) (A) (A) (A) (A) (A)
                 (A) (A) (A) (A) (A) (A) (A) (A) (A) (A) (A) (A)
                 (A) (A) (A) (A) (A) (A) (A) (A) (A) (A) (A) (A)
                 (A) (A) (A) (A) (A) (A) (A) (A) (A) (A) (A) (A)
                 (A) (A) (A) (A) (A) (A) (A) (A) (A) (A) (A) (A)
                 (A) (A) (A) (A) (A) (A) (A) (A) (A) (A) (A) (A)
                 (A) (A) (A) (A) (A) (A) (A) (A) (A) (A) (A) (A)
                 (A) (A) (A) (A) (A) (A) (A) (A) (A) (A) (A) (A)
                 (A) (A) (A) (A) (A) (A) (A) (A) (A) (A) (A) (A)
                 (A) (A) (A) (A) (A) (A) (A) (A) (A) (A) (A) (A)
                 (A) (A) (A) (A) (A) (A) (A) (A) (A) (A) (A) (A)
                 (A) (A) (A) (A) (A) (A) (A) (A) (A) (A) (A) (A)
                 (A) (A) (A) (A) (A) (A) (A) (A) (A) (A) (A) (A)
                 (A) (A) (A) (A) (A) (A) (A) (A) (A) (A) (A) (A)
                 (A) (A) (A) (A) (A) (A) (A) (A) (A) (A) (A) (A)
                 (A) (A) (A) (A) (A) (A) (A) (A) (A) (A) (A) (A)
                 (A) (A) (A) (A) (A) (A) (A) (A) (A) (A) (A) (A)
                 (A) (A) (A) (A) (A) (A) (A) (A) (A) (A) (A) (A)
                 (A) (A) (A) (A) (A) (A) (A)
 The electronic state is 1-A.
 Alpha  occ. eigenvalues --  -25.21094 -25.20831 -19.68106 -19.68103 -19.63671
 Alpha  occ. eigenvalues --  -19.63671 -15.01581 -14.79149 -14.79148 -10.64057
 Alpha  occ. eigenvalues --  -10.64057 -10.62259 -10.61062 -10.61018 -10.61018
 Alpha  occ. eigenvalues --  -10.59733 -10.59731 -10.59535 -10.58338 -10.58334
 Alpha  occ. eigenvalues --  -10.57974 -10.57974 -10.57678 -10.57675 -10.57614
 Alpha  occ. eigenvalues --  -10.57614 -10.57196 -10.57196 -10.56790 -10.56789
 Alpha  occ. eigenvalues --  -10.56772 -10.56772 -10.56621 -10.56621 -10.56472
 Alpha  occ. eigenvalues --  -10.56472 -10.56268 -10.56268 -10.56237 -10.56237
 Alpha  occ. eigenvalues --  -10.54854 -10.54854 -10.54350 -10.54350  -7.13770
 Alpha  occ. eigenvalues --   -1.37111  -1.32931  -1.29677  -1.18626  -1.17217
 Alpha  occ. eigenvalues --   -1.17217  -1.11343  -1.09431  -1.01336  -0.98739
 Alpha  occ. eigenvalues --   -0.98721  -0.95963  -0.93045  -0.92844  -0.91576
 Alpha  occ. eigenvalues --   -0.90940  -0.90259  -0.88045  -0.87750  -0.86554
 Alpha  occ. eigenvalues --   -0.86424  -0.86423  -0.82146  -0.82060  -0.80702
 Alpha  occ. eigenvalues --   -0.79896  -0.77612  -0.75752  -0.72940  -0.72926
 Alpha  occ. eigenvalues --   -0.72016  -0.71870  -0.70636  -0.69547  -0.69411
 Alpha  occ. eigenvalues --   -0.67155  -0.66403  -0.66309  -0.66303  -0.65311
 Alpha  occ. eigenvalues --   -0.64723  -0.63567  -0.63377  -0.62125  -0.61546
 Alpha  occ. eigenvalues --   -0.61307  -0.60249  -0.60237  -0.58946  -0.58364
 Alpha  occ. eigenvalues --   -0.57485  -0.56316  -0.55997  -0.55679  -0.55405
 Alpha  occ. eigenvalues --   -0.54798  -0.54290  -0.53880  -0.53181  -0.52998
 Alpha  occ. eigenvalues --   -0.52600  -0.52439  -0.52100  -0.51892  -0.51854
 Alpha  occ. eigenvalues --   -0.51218  -0.50625  -0.50551  -0.49955  -0.49771
 Alpha  occ. eigenvalues --   -0.49736  -0.49366  -0.49324  -0.49318  -0.48472
 Alpha  occ. eigenvalues --   -0.48325  -0.47726  -0.47351  -0.47177  -0.47138
 Alpha  occ. eigenvalues --   -0.47065  -0.46343  -0.45607  -0.45431  -0.44877
 Alpha  occ. eigenvalues --   -0.44280  -0.44224  -0.44151  -0.44040  -0.43334
 Alpha  occ. eigenvalues --   -0.42723  -0.41512  -0.41269  -0.41218  -0.40636
 Alpha  occ. eigenvalues --   -0.40534  -0.39883  -0.39854  -0.38827  -0.35811
 Alpha  occ. eigenvalues --   -0.34819  -0.34818  -0.34275  -0.34222  -0.33008
 Alpha  occ. eigenvalues --   -0.33006  -0.32704  -0.32117  -0.31742  -0.29372
 Alpha  occ. eigenvalues --   -0.24273
 Alpha virt. eigenvalues --   -0.10698  -0.07641  -0.06485  -0.04734  -0.01362
 Alpha virt. eigenvalues --   -0.00461  -0.00320   0.01230   0.01679   0.01865
 Alpha virt. eigenvalues --    0.05478   0.06346   0.06636   0.07004   0.07539
 Alpha virt. eigenvalues --    0.08042   0.08472   0.08555   0.09353   0.09366
 Alpha virt. eigenvalues --    0.09472   0.09898   0.09977   0.10317   0.10835
 Alpha virt. eigenvalues --    0.11424   0.11647   0.11985   0.12409   0.12529
 Alpha virt. eigenvalues --    0.12754   0.12755   0.13331   0.13395   0.13587
 Alpha virt. eigenvalues --    0.13975   0.14282   0.14900   0.15301   0.15433
 Alpha virt. eigenvalues --    0.15543   0.15711   0.16131   0.16238   0.16882
 Alpha virt. eigenvalues --    0.17059   0.17307   0.17453   0.17606   0.17736
 Alpha virt. eigenvalues --    0.17788   0.18149   0.18586   0.19114   0.19471
 Alpha virt. eigenvalues --    0.19534   0.20101   0.20444   0.20588   0.20695
 Alpha virt. eigenvalues --    0.21099   0.21403   0.21562   0.21918   0.22306
 Alpha virt. eigenvalues --    0.22330   0.22956   0.23051   0.23112   0.23636
 Alpha virt. eigenvalues --    0.23638   0.23871   0.23949   0.23985   0.24696
 Alpha virt. eigenvalues --    0.24743   0.25262   0.25415   0.26291   0.26453
 Alpha virt. eigenvalues --    0.26643   0.26684   0.26936   0.27044   0.27310
 Alpha virt. eigenvalues --    0.27444   0.27523   0.27799   0.28092   0.28487
 Alpha virt. eigenvalues --    0.28914   0.28983   0.29360   0.29405   0.29508
 Alpha virt. eigenvalues --    0.29951   0.30120   0.30241   0.30648   0.31245
 Alpha virt. eigenvalues --    0.31273   0.31787   0.31847   0.32000   0.32104
 Alpha virt. eigenvalues --    0.32357   0.32391   0.32777   0.32857   0.33005
 Alpha virt. eigenvalues --    0.33442   0.33479   0.33599   0.34045   0.34308
 Alpha virt. eigenvalues --    0.34341   0.34724   0.34905   0.35114   0.35215
 Alpha virt. eigenvalues --    0.35481   0.35690   0.35738   0.35853   0.36030
 Alpha virt. eigenvalues --    0.36742   0.36887   0.37047   0.37081   0.37107
 Alpha virt. eigenvalues --    0.37920   0.38258   0.38353   0.38420   0.38759
 Alpha virt. eigenvalues --    0.38916   0.39225   0.39292   0.39622   0.39658
 Alpha virt. eigenvalues --    0.39756   0.40018   0.40341   0.40836   0.40902
 Alpha virt. eigenvalues --    0.41137   0.41396   0.41456   0.41833   0.42416
 Alpha virt. eigenvalues --    0.42510   0.42784   0.42994   0.43261   0.43540
 Alpha virt. eigenvalues --    0.43955   0.44133   0.44233   0.44243   0.44476
 Alpha virt. eigenvalues --    0.44535   0.45053   0.45342   0.45605   0.45935
 Alpha virt. eigenvalues --    0.46025   0.46257   0.46415   0.46957   0.47135
 Alpha virt. eigenvalues --    0.47388   0.47472   0.48140   0.48169   0.48640
 Alpha virt. eigenvalues --    0.48834   0.49007   0.49338   0.49384   0.49718
 Alpha virt. eigenvalues --    0.50124   0.50244   0.50411   0.50988   0.51076
 Alpha virt. eigenvalues --    0.51355   0.51363   0.51517   0.51868   0.52037
 Alpha virt. eigenvalues --    0.52050   0.52187   0.52428   0.52518   0.52792
 Alpha virt. eigenvalues --    0.53350   0.53359   0.53462   0.53795   0.54178
 Alpha virt. eigenvalues --    0.54250   0.54654   0.54688   0.54922   0.55324
 Alpha virt. eigenvalues --    0.55892   0.56273   0.56377   0.56512   0.56907
 Alpha virt. eigenvalues --    0.56949   0.57244   0.57289   0.57583   0.57797
 Alpha virt. eigenvalues --    0.58398   0.58494   0.58588   0.58911   0.59985
 Alpha virt. eigenvalues --    0.60409   0.60908   0.61062   0.61237   0.61377
 Alpha virt. eigenvalues --    0.61748   0.62248   0.62285   0.62635   0.63057
 Alpha virt. eigenvalues --    0.63199   0.63475   0.63569   0.64352   0.64653
 Alpha virt. eigenvalues --    0.64739   0.65061   0.65670   0.65812   0.66072
 Alpha virt. eigenvalues --    0.66169   0.66284   0.66915   0.66941   0.67305
 Alpha virt. eigenvalues --    0.67369   0.67756   0.67898   0.68100   0.68215
 Alpha virt. eigenvalues --    0.69007   0.69014   0.69406   0.69501   0.69530
 Alpha virt. eigenvalues --    0.69589   0.69899   0.69964   0.70372   0.70431
 Alpha virt. eigenvalues --    0.70796   0.70827   0.71120   0.71560   0.71962
 Alpha virt. eigenvalues --    0.72065   0.72089   0.72506   0.73218   0.73249
 Alpha virt. eigenvalues --    0.73278   0.73992   0.74122   0.74519   0.74952
 Alpha virt. eigenvalues --    0.74988   0.75143   0.75186   0.75617   0.75998
 Alpha virt. eigenvalues --    0.76292   0.76451   0.76758   0.76772   0.76887
 Alpha virt. eigenvalues --    0.77297   0.77436   0.77685   0.78177   0.78223
 Alpha virt. eigenvalues --    0.78934   0.79255   0.79296   0.79318   0.79670
 Alpha virt. eigenvalues --    0.79744   0.80296   0.80876   0.81043   0.81489
 Alpha virt. eigenvalues --    0.81812   0.82318   0.82954   0.83009   0.83102
 Alpha virt. eigenvalues --    0.83992   0.84431   0.84564   0.84752   0.84874
 Alpha virt. eigenvalues --    0.85409   0.85722   0.85989   0.86165   0.86242
 Alpha virt. eigenvalues --    0.86425   0.87069   0.87406   0.87697   0.87719
 Alpha virt. eigenvalues --    0.88743   0.88925   0.89137   0.89450   0.89524
 Alpha virt. eigenvalues --    0.89882   0.90370   0.90786   0.90961   0.91152
 Alpha virt. eigenvalues --    0.91753   0.92353   0.92677   0.93220   0.93840
 Alpha virt. eigenvalues --    0.93911   0.94360   0.94852   0.95160   0.95294
 Alpha virt. eigenvalues --    0.95641   0.96310   0.96559   0.96633   0.96996
 Alpha virt. eigenvalues --    0.97051   0.97357   0.97494   0.97668   0.97975
 Alpha virt. eigenvalues --    0.98376   0.98521   0.98771   0.98975   0.99583
 Alpha virt. eigenvalues --    0.99593   1.00085   1.00325   1.00496   1.00513
 Alpha virt. eigenvalues --    1.01010   1.01078   1.01453   1.01819   1.01836
 Alpha virt. eigenvalues --    1.02275   1.02706   1.02888   1.03565   1.03779
 Alpha virt. eigenvalues --    1.04445   1.04611   1.04829   1.04939   1.05137
 Alpha virt. eigenvalues --    1.05295   1.05898   1.06048   1.06454   1.06755
 Alpha virt. eigenvalues --    1.06792   1.07323   1.07617   1.08419   1.09113
 Alpha virt. eigenvalues --    1.09402   1.09505   1.09757   1.10594   1.10678
 Alpha virt. eigenvalues --    1.11327   1.11736   1.11831   1.12165   1.12317
 Alpha virt. eigenvalues --    1.12623   1.12647   1.13170   1.13582   1.13930
 Alpha virt. eigenvalues --    1.14794   1.14899   1.15447   1.15481   1.15981
 Alpha virt. eigenvalues --    1.16372   1.16436   1.16621   1.16651   1.16859
 Alpha virt. eigenvalues --    1.17797   1.18004   1.18083   1.18640   1.18732
 Alpha virt. eigenvalues --    1.19303   1.19972   1.20050   1.20139   1.21114
 Alpha virt. eigenvalues --    1.21514   1.21565   1.21846   1.23360   1.23710
 Alpha virt. eigenvalues --    1.23916   1.24171   1.24230   1.24605   1.24887
 Alpha virt. eigenvalues --    1.25001   1.25423   1.25642   1.26330   1.26630
 Alpha virt. eigenvalues --    1.26829   1.27064   1.27432   1.27813   1.27859
 Alpha virt. eigenvalues --    1.27908   1.28182   1.28818   1.29199   1.29339
 Alpha virt. eigenvalues --    1.29630   1.30151   1.30607   1.31135   1.31315
 Alpha virt. eigenvalues --    1.31410   1.32000   1.32325   1.32381   1.32495
 Alpha virt. eigenvalues --    1.32775   1.33135   1.33628   1.34072   1.34484
 Alpha virt. eigenvalues --    1.34866   1.35405   1.35497   1.35607   1.35855
 Alpha virt. eigenvalues --    1.36152   1.36822   1.37052   1.37323   1.37944
 Alpha virt. eigenvalues --    1.38047   1.38788   1.38848   1.39063   1.39545
 Alpha virt. eigenvalues --    1.39690   1.40018   1.40308   1.41580   1.42348
 Alpha virt. eigenvalues --    1.42502   1.43206   1.43217   1.43535   1.44202
 Alpha virt. eigenvalues --    1.44342   1.44459   1.44888   1.45039   1.45311
 Alpha virt. eigenvalues --    1.45355   1.45764   1.46119   1.46272   1.46288
 Alpha virt. eigenvalues --    1.46942   1.47269   1.47487   1.48249   1.48584
 Alpha virt. eigenvalues --    1.49170   1.49515   1.49591   1.50072   1.50226
 Alpha virt. eigenvalues --    1.50665   1.51260   1.51315   1.51379   1.51585
 Alpha virt. eigenvalues --    1.52552   1.52715   1.52783   1.53082   1.53115
 Alpha virt. eigenvalues --    1.54060   1.54260   1.54359   1.54911   1.55149
 Alpha virt. eigenvalues --    1.55685   1.55706   1.55849   1.56608   1.56644
 Alpha virt. eigenvalues --    1.56977   1.56994   1.57057   1.57418   1.57703
 Alpha virt. eigenvalues --    1.58037   1.58280   1.58759   1.58875   1.58921
 Alpha virt. eigenvalues --    1.59527   1.59725   1.59911   1.59971   1.60216
 Alpha virt. eigenvalues --    1.60956   1.61509   1.61828   1.62169   1.62490
 Alpha virt. eigenvalues --    1.63029   1.63105   1.63460   1.64370   1.64758
 Alpha virt. eigenvalues --    1.65171   1.65328   1.65794   1.65949   1.66231
 Alpha virt. eigenvalues --    1.66736   1.67103   1.67383   1.68277   1.68506
 Alpha virt. eigenvalues --    1.68613   1.68987   1.69134   1.69464   1.69771
 Alpha virt. eigenvalues --    1.70587   1.70990   1.71264   1.71518   1.71676
 Alpha virt. eigenvalues --    1.72011   1.73001   1.73884   1.74174   1.74643
 Alpha virt. eigenvalues --    1.75061   1.75249   1.76211   1.76684   1.76699
 Alpha virt. eigenvalues --    1.77014   1.77334   1.77773   1.77963   1.79241
 Alpha virt. eigenvalues --    1.79555   1.80261   1.80815   1.80833   1.81125
 Alpha virt. eigenvalues --    1.81637   1.81667   1.81834   1.82168   1.82613
 Alpha virt. eigenvalues --    1.82914   1.83047   1.83779   1.84173   1.84202
 Alpha virt. eigenvalues --    1.84552   1.85740   1.86045   1.86692   1.87396
 Alpha virt. eigenvalues --    1.87751   1.88026   1.88427   1.88596   1.88722
 Alpha virt. eigenvalues --    1.89480   1.90076   1.90181   1.91434   1.91810
 Alpha virt. eigenvalues --    1.92000   1.93338   1.93507   1.94686   1.95442
 Alpha virt. eigenvalues --    1.95976   1.96925   1.97111   1.97407   1.98231
 Alpha virt. eigenvalues --    1.98245   1.98950   1.99018   1.99481   1.99601
 Alpha virt. eigenvalues --    1.99898   2.00005   2.00747   2.01279   2.01379
 Alpha virt. eigenvalues --    2.01488   2.01547   2.01893   2.03091   2.03876
 Alpha virt. eigenvalues --    2.04656   2.04861   2.05061   2.05307   2.05729
 Alpha virt. eigenvalues --    2.06251   2.06675   2.07504   2.07804   2.07865
 Alpha virt. eigenvalues --    2.08055   2.08418   2.08545   2.08913   2.08918
 Alpha virt. eigenvalues --    2.09697   2.10245   2.10835   2.11026   2.11633
 Alpha virt. eigenvalues --    2.13342   2.13413   2.13681   2.13915   2.14109
 Alpha virt. eigenvalues --    2.14919   2.15314   2.15384   2.15875   2.16214
 Alpha virt. eigenvalues --    2.16883   2.17173   2.17973   2.19294   2.19309
 Alpha virt. eigenvalues --    2.19491   2.22135   2.22335   2.22365   2.23253
 Alpha virt. eigenvalues --    2.23340   2.23944   2.24627   2.25664   2.25897
 Alpha virt. eigenvalues --    2.26613   2.26646   2.26867   2.27684   2.28563
 Alpha virt. eigenvalues --    2.28606   2.30050   2.30230   2.31108   2.32471
 Alpha virt. eigenvalues --    2.32830   2.33061   2.33905   2.33920   2.34120
 Alpha virt. eigenvalues --    2.34277   2.34758   2.34904   2.35338   2.35886
 Alpha virt. eigenvalues --    2.36622   2.36721   2.37298   2.37420   2.37749
 Alpha virt. eigenvalues --    2.38045   2.38226   2.38374   2.39031   2.39660
 Alpha virt. eigenvalues --    2.40085   2.40763   2.41114   2.42550   2.43390
 Alpha virt. eigenvalues --    2.44027   2.44840   2.45005   2.46823   2.46946
 Alpha virt. eigenvalues --    2.48234   2.48373   2.49801   2.49842   2.51387
 Alpha virt. eigenvalues --    2.52612   2.52725   2.53518   2.54439   2.54574
 Alpha virt. eigenvalues --    2.55391   2.55572   2.55750   2.56321   2.57124
 Alpha virt. eigenvalues --    2.57690   2.58678   2.59402   2.60040   2.60964
 Alpha virt. eigenvalues --    2.61154   2.62131   2.62331   2.62518   2.62970
 Alpha virt. eigenvalues --    2.63711   2.63906   2.64352   2.64563   2.65226
 Alpha virt. eigenvalues --    2.65601   2.65727   2.66313   2.66775   2.66985
 Alpha virt. eigenvalues --    2.67073   2.67642   2.68021   2.68604   2.68614
 Alpha virt. eigenvalues --    2.69580   2.70216   2.70322   2.71133   2.72052
 Alpha virt. eigenvalues --    2.72529   2.72543   2.72910   2.73271   2.73371
 Alpha virt. eigenvalues --    2.73925   2.74170   2.74257   2.74356   2.74683
 Alpha virt. eigenvalues --    2.74802   2.75077   2.75434   2.76240   2.76304
 Alpha virt. eigenvalues --    2.76509   2.76615   2.76979   2.77242   2.77552
 Alpha virt. eigenvalues --    2.77876   2.78313   2.78486   2.78497   2.78881
 Alpha virt. eigenvalues --    2.79535   2.79652   2.80031   2.80573   2.81289
 Alpha virt. eigenvalues --    2.81483   2.81814   2.81878   2.82030   2.82193
 Alpha virt. eigenvalues --    2.82489   2.82880   2.83203   2.83758   2.83870
 Alpha virt. eigenvalues --    2.83940   2.84221   2.85108   2.85442   2.85591
 Alpha virt. eigenvalues --    2.85994   2.86339   2.86686   2.86887   2.87006
 Alpha virt. eigenvalues --    2.87144   2.88212   2.88378   2.88673   2.89000
 Alpha virt. eigenvalues --    2.89337   2.89786   2.90171   2.90250   2.90467
 Alpha virt. eigenvalues --    2.90827   2.91082   2.91275   2.91573   2.91641
 Alpha virt. eigenvalues --    2.91953   2.91974   2.92266   2.92552   2.92584
 Alpha virt. eigenvalues --    2.92717   2.93216   2.93726   2.94321   2.94376
 Alpha virt. eigenvalues --    2.94832   2.95175   2.95381   2.95757   2.95979
 Alpha virt. eigenvalues --    2.96363   2.96786   2.97053   2.97143   2.97813
 Alpha virt. eigenvalues --    2.97937   2.98179   2.98794   2.99067   2.99441
 Alpha virt. eigenvalues --    3.00083   3.00205   3.00532   3.00745   3.01155
 Alpha virt. eigenvalues --    3.01281   3.01754   3.02178   3.02366   3.02493
 Alpha virt. eigenvalues --    3.02672   3.03053   3.03218   3.03292   3.03717
 Alpha virt. eigenvalues --    3.03805   3.03871   3.04709   3.04972   3.05000
 Alpha virt. eigenvalues --    3.05265   3.05515   3.05691   3.05834   3.06040
 Alpha virt. eigenvalues --    3.06263   3.06486   3.06723   3.07028   3.07388
 Alpha virt. eigenvalues --    3.07627   3.07668   3.07989   3.08563   3.08654
 Alpha virt. eigenvalues --    3.09249   3.09277   3.09625   3.09660   3.09945
 Alpha virt. eigenvalues --    3.10227   3.10326   3.10954   3.11127   3.11728
 Alpha virt. eigenvalues --    3.12144   3.12653   3.12831   3.12942   3.13185
 Alpha virt. eigenvalues --    3.13202   3.13289   3.13938   3.14024   3.14913
 Alpha virt. eigenvalues --    3.14992   3.15354   3.15724   3.15985   3.16202
 Alpha virt. eigenvalues --    3.16744   3.17056   3.17082   3.18282   3.18333
 Alpha virt. eigenvalues --    3.18421   3.18529   3.18647   3.19063   3.19607
 Alpha virt. eigenvalues --    3.19744   3.19825   3.20138   3.20286   3.20531
 Alpha virt. eigenvalues --    3.20553   3.21175   3.21499   3.21581   3.21744
 Alpha virt. eigenvalues --    3.21828   3.22518   3.22693   3.23065   3.23417
 Alpha virt. eigenvalues --    3.23575   3.24166   3.24196   3.24619   3.24954
 Alpha virt. eigenvalues --    3.25452   3.25620   3.25955   3.26112   3.26635
 Alpha virt. eigenvalues --    3.26768   3.27511   3.28337   3.28368   3.28610
 Alpha virt. eigenvalues --    3.28812   3.28997   3.29197   3.30104   3.30275
 Alpha virt. eigenvalues --    3.30656   3.31070   3.31213   3.31392   3.31966
 Alpha virt. eigenvalues --    3.32061   3.32412   3.32766   3.32950   3.33115
 Alpha virt. eigenvalues --    3.33451   3.33832   3.34362   3.34477   3.34527
 Alpha virt. eigenvalues --    3.34802   3.35124   3.35235   3.35747   3.35970
 Alpha virt. eigenvalues --    3.36503   3.36830   3.36862   3.37407   3.37756
 Alpha virt. eigenvalues --    3.37928   3.38153   3.38450   3.39410   3.39584
 Alpha virt. eigenvalues --    3.39824   3.40095   3.40659   3.41049   3.41264
 Alpha virt. eigenvalues --    3.41307   3.41823   3.42014   3.42184   3.42381
 Alpha virt. eigenvalues --    3.43191   3.43284   3.43811   3.43836   3.44822
 Alpha virt. eigenvalues --    3.46242   3.46559   3.46803   3.46871   3.47083
 Alpha virt. eigenvalues --    3.47427   3.47621   3.47778   3.48085   3.48497
 Alpha virt. eigenvalues --    3.48600   3.49290   3.49431   3.49842   3.49948
 Alpha virt. eigenvalues --    3.50094   3.50325   3.51073   3.51327   3.51505
 Alpha virt. eigenvalues --    3.51756   3.51942   3.52379   3.52597   3.52838
 Alpha virt. eigenvalues --    3.53123   3.53281   3.53476   3.53932   3.54280
 Alpha virt. eigenvalues --    3.55117   3.55126   3.56267   3.56355   3.56528
 Alpha virt. eigenvalues --    3.57276   3.57388   3.57713   3.58346   3.58564
 Alpha virt. eigenvalues --    3.58657   3.58922   3.59135   3.59380   3.59818
 Alpha virt. eigenvalues --    3.59974   3.60270   3.61125   3.61134   3.61774
 Alpha virt. eigenvalues --    3.61983   3.62344   3.62579   3.62741   3.63671
 Alpha virt. eigenvalues --    3.64087   3.64206   3.64836   3.65077   3.65785
 Alpha virt. eigenvalues --    3.66118   3.66288   3.66623   3.67011   3.67133
 Alpha virt. eigenvalues --    3.67831   3.68706   3.68724   3.69367   3.69463
 Alpha virt. eigenvalues --    3.70120   3.70411   3.71057   3.71598   3.71721
 Alpha virt. eigenvalues --    3.72241   3.72246   3.72319   3.72456   3.72599
 Alpha virt. eigenvalues --    3.72658   3.73385   3.73899   3.74046   3.75049
 Alpha virt. eigenvalues --    3.75686   3.76156   3.76525   3.77260   3.77437
 Alpha virt. eigenvalues --    3.78376   3.78390   3.78892   3.79635   3.80065
 Alpha virt. eigenvalues --    3.80653   3.80752   3.81511   3.81663   3.81767
 Alpha virt. eigenvalues --    3.81996   3.82444   3.83148   3.83564   3.84116
 Alpha virt. eigenvalues --    3.84236   3.84442   3.84686   3.85033   3.85044
 Alpha virt. eigenvalues --    3.85123   3.85818   3.85936   3.86054   3.86486
 Alpha virt. eigenvalues --    3.86608   3.86771   3.86946   3.87511   3.88341
 Alpha virt. eigenvalues --    3.88475   3.88964   3.89132   3.89483   3.89699
 Alpha virt. eigenvalues --    3.90064   3.90141   3.90503   3.90912   3.91364
 Alpha virt. eigenvalues --    3.91382   3.91873   3.92018   3.92030   3.92811
 Alpha virt. eigenvalues --    3.93206   3.93501   3.93549   3.94533   3.94646
 Alpha virt. eigenvalues --    3.95004   3.95268   3.97391   3.97846   3.98157
 Alpha virt. eigenvalues --    3.98424   3.99247   3.99830   3.99874   3.99907
 Alpha virt. eigenvalues --    4.00209   4.00708   4.00820   4.01085   4.01147
 Alpha virt. eigenvalues --    4.01527   4.01814   4.02112   4.02628   4.02985
 Alpha virt. eigenvalues --    4.03409   4.03536   4.03898   4.05014   4.05195
 Alpha virt. eigenvalues --    4.05453   4.05719   4.06086   4.06409   4.06594
 Alpha virt. eigenvalues --    4.07368   4.07788   4.07946   4.08757   4.08820
 Alpha virt. eigenvalues --    4.09219   4.09692   4.09953   4.10920   4.11188
 Alpha virt. eigenvalues --    4.11421   4.11434   4.12137   4.12177   4.12717
 Alpha virt. eigenvalues --    4.12943   4.13677   4.13831   4.14748   4.15015
 Alpha virt. eigenvalues --    4.15373   4.15386   4.15811   4.15837   4.16067
 Alpha virt. eigenvalues --    4.16423   4.16723   4.17223   4.17546   4.18223
 Alpha virt. eigenvalues --    4.19124   4.19138   4.19173   4.19642   4.20194
 Alpha virt. eigenvalues --    4.20343   4.20769   4.20953   4.21495   4.21872
 Alpha virt. eigenvalues --    4.21953   4.21970   4.23142   4.23188   4.23422
 Alpha virt. eigenvalues --    4.23746   4.23777   4.24051   4.24497   4.24882
 Alpha virt. eigenvalues --    4.25604   4.25672   4.25804   4.26192   4.26343
 Alpha virt. eigenvalues --    4.26763   4.27748   4.28207   4.28540   4.28694
 Alpha virt. eigenvalues --    4.28965   4.29551   4.30121   4.31120   4.31234
 Alpha virt. eigenvalues --    4.31714   4.31906   4.31968   4.32179   4.32722
 Alpha virt. eigenvalues --    4.33257   4.33941   4.34183   4.34509   4.35552
 Alpha virt. eigenvalues --    4.36239   4.37135   4.37701   4.37971   4.38419
 Alpha virt. eigenvalues --    4.38657   4.40806   4.41671   4.41927   4.42028
 Alpha virt. eigenvalues --    4.42420   4.42990   4.43105   4.43541   4.45014
 Alpha virt. eigenvalues --    4.47299   4.47455   4.47525   4.48139   4.48683
 Alpha virt. eigenvalues --    4.48839   4.49402   4.49684   4.50492   4.50526
 Alpha virt. eigenvalues --    4.50579   4.51170   4.51546   4.51575   4.52594
 Alpha virt. eigenvalues --    4.54214   4.54318   4.55746   4.56695   4.57612
 Alpha virt. eigenvalues --    4.57767   4.59494   4.59540   4.60597   4.61258
 Alpha virt. eigenvalues --    4.61935   4.62039   4.62105   4.62141   4.62200
 Alpha virt. eigenvalues --    4.62466   4.63141   4.63615   4.64292   4.64471
 Alpha virt. eigenvalues --    4.65049   4.65497   4.65708   4.67050   4.67767
 Alpha virt. eigenvalues --    4.67804   4.68313   4.68428   4.68869   4.69351
 Alpha virt. eigenvalues --    4.69810   4.70068   4.70495   4.71292   4.71670
 Alpha virt. eigenvalues --    4.72154   4.72496   4.72521   4.72899   4.74278
 Alpha virt. eigenvalues --    4.74448   4.74933   4.76448   4.76908   4.78624
 Alpha virt. eigenvalues --    4.79322   4.79581   4.80227   4.81293   4.81892
 Alpha virt. eigenvalues --    4.82224   4.84891   4.85293   4.86042   4.86181
 Alpha virt. eigenvalues --    4.87837   4.88161   4.88437   4.89561   4.90244
 Alpha virt. eigenvalues --    4.90681   4.91050   4.91703   4.91816   4.92781
 Alpha virt. eigenvalues --    4.92886   4.92984   4.93341   4.93668   4.93785
 Alpha virt. eigenvalues --    4.94493   4.94664   4.95331   4.95621   4.95978
 Alpha virt. eigenvalues --    4.96401   4.97177   4.97302   4.98053   4.98867
 Alpha virt. eigenvalues --    4.99881   4.99925   5.00738   5.01840   5.02723
 Alpha virt. eigenvalues --    5.02992   5.03802   5.04325   5.05306   5.06206
 Alpha virt. eigenvalues --    5.06510   5.06727   5.06953   5.07548   5.08340
 Alpha virt. eigenvalues --    5.09071   5.09170   5.09650   5.09914   5.10553
 Alpha virt. eigenvalues --    5.11419   5.11818   5.11897   5.12689   5.13340
 Alpha virt. eigenvalues --    5.13940   5.14471   5.15021   5.15118   5.16369
 Alpha virt. eigenvalues --    5.17995   5.18205   5.19107   5.20203   5.20596
 Alpha virt. eigenvalues --    5.20616   5.20837   5.20984   5.21659   5.22537
 Alpha virt. eigenvalues --    5.22941   5.23187   5.23232   5.23391   5.23908
 Alpha virt. eigenvalues --    5.24809   5.25752   5.26297   5.26535   5.28050
 Alpha virt. eigenvalues --    5.28531   5.28556   5.28682   5.29172   5.30040
 Alpha virt. eigenvalues --    5.30786   5.30912   5.31029   5.31910   5.33158
 Alpha virt. eigenvalues --    5.34079   5.35193   5.36819   5.37340   5.38034
 Alpha virt. eigenvalues --    5.38207   5.38385   5.38823   5.39555   5.40220
 Alpha virt. eigenvalues --    5.40485   5.40802   5.41564   5.42788   5.43322
 Alpha virt. eigenvalues --    5.43652   5.44553   5.44812   5.49670   5.50803
 Alpha virt. eigenvalues --    5.51490   5.52499   5.52758   5.53274   5.54143
 Alpha virt. eigenvalues --    5.56310   5.57006   5.57220   5.57938   5.58172
 Alpha virt. eigenvalues --    5.59383   5.59477   5.60245   5.60324   5.60432
 Alpha virt. eigenvalues --    5.61488   5.61917   5.61917   5.62573   5.63309
 Alpha virt. eigenvalues --    5.63923   5.65016   5.65639   5.66794   5.67275
 Alpha virt. eigenvalues --    5.68978   5.70625   5.71421   5.71657   5.74699
 Alpha virt. eigenvalues --    5.75015   5.77011   5.77072   5.78213   5.79043
 Alpha virt. eigenvalues --    5.81392   5.83719   5.83771   5.85278   5.85675
 Alpha virt. eigenvalues --    5.87139   5.88197   5.91654   5.93972   5.96073
 Alpha virt. eigenvalues --    5.97439   6.01202   6.02250   6.05560   6.05560
 Alpha virt. eigenvalues --    6.06367   6.12028   6.12467   6.14376   6.15331
 Alpha virt. eigenvalues --    6.22229   6.25269   6.26115   6.27567   6.28065
 Alpha virt. eigenvalues --    6.36090   6.36091   6.36174   6.36225   6.37968
 Alpha virt. eigenvalues --    6.38426   6.40815   6.43125   6.49972   6.50202
 Alpha virt. eigenvalues --    6.57137   6.57202   6.75434   6.77446   6.77446
 Alpha virt. eigenvalues --    6.80742   6.83086   6.85337   6.85360   6.87409
 Alpha virt. eigenvalues --    6.93999   6.94306   6.96999   6.98570   6.98847
 Alpha virt. eigenvalues --    6.99789   7.03631   7.03658   7.04709   7.08377
 Alpha virt. eigenvalues --    7.08450   7.08463   7.10462   7.16682   7.20702
 Alpha virt. eigenvalues --    7.22920   7.23523   7.27325   7.33004   7.33912
 Alpha virt. eigenvalues --    7.34349   7.45306   7.50798   8.45996   8.46752
 Alpha virt. eigenvalues --    8.55651   8.57596   8.82598   8.85636   8.90951
 Alpha virt. eigenvalues --    8.91320   8.92097   8.99338  15.85533  22.84822
 Alpha virt. eigenvalues --   22.86955  22.96531  22.98519  23.03053  23.12628
 Alpha virt. eigenvalues --   23.13607  23.14652  23.18368  23.18672  23.20535
 Alpha virt. eigenvalues --   23.22690  23.22831  23.28675  23.29725  23.30717
 Alpha virt. eigenvalues --   23.31481  23.33249  23.34211  23.34643  23.35587
 Alpha virt. eigenvalues --   23.38133  23.46621  23.53528  23.53597  23.55916
 Alpha virt. eigenvalues --   23.56127  23.61680  23.73224  23.78235  23.87039
 Alpha virt. eigenvalues --   23.88979  24.12839  24.13299  24.19153  32.59588
 Alpha virt. eigenvalues --   33.13069  33.28796  44.00585  44.00625  44.20401
 Alpha virt. eigenvalues --   44.25075  57.35215  57.54175
          Condensed to atoms (all electrons):
 Mulliken charges:
               1
     1  C   -0.433237
     2  C   -0.022829
     3  C   -0.084417
     4  C    0.016634
     5  C   -0.109462
     6  C   -0.056993
     7  C    0.029509
     8  C   -0.153342
     9  C   -0.141518
    10  C   -0.012880
    11  C    0.168352
    12  O   -0.378438
    13  C   -0.108545
    14  C   -0.137869
    15  N   -0.101242
    16  C    0.110677
    17  C    0.159767
    18  C   -0.261778
    19  C   -0.154371
    20  C   -0.045225
    21  C   -0.028029
    22  N    0.493764
    23  O   -0.366323
    24  O   -0.366274
    25  C   -0.035576
    26  C   -0.185568
    27  C    0.111006
    28  C   -0.022886
    29  C   -0.433172
    30  C   -0.084599
    31  C    0.016828
    32  C   -0.109495
    33  C   -0.056984
    34  C    0.029525
    35  C   -0.153363
    36  C   -0.141529
    37  C   -0.012874
    38  C    0.168356
    39  O   -0.378441
    40  C   -0.108535
    41  C   -0.137885
    42  N   -0.101502
    43  B    0.341066
    44  F   -0.330071
    45  F   -0.363798
    46  H    0.160885
    47  H    0.134505
    48  H    0.164381
    49  H    0.168822
    50  H    0.144534
    51  H    0.118935
    52  H    0.154689
    53  H    0.162471
    54  H    0.090382
    55  H    0.158619
    56  H    0.148121
    57  H    0.178560
    58  H    0.198415
    59  H    0.198986
    60  H    0.184852
    61  H    0.160565
    62  H    0.164664
    63  H    0.134502
    64  H    0.168838
    65  H    0.144611
    66  H    0.118953
    67  H    0.154685
    68  H    0.162468
    69  H    0.090380
    70  H    0.158616
    71  H    0.148125
 Sum of Mulliken charges =  -0.00000
 Mulliken charges with hydrogens summed into heavy atoms:
               1
     1  C    0.026535
     2  C   -0.022829
     3  C    0.084405
     4  C    0.016634
     5  C    0.035072
     6  C    0.061942
     7  C    0.029509
     8  C    0.001347
     9  C    0.020953
    10  C   -0.012880
    11  C    0.258734
    12  O   -0.378438
    13  C    0.050074
    14  C    0.010252
    15  N   -0.101242
    16  C    0.110677
    17  C    0.159767
    18  C   -0.261778
    19  C    0.024190
    20  C    0.153190
    21  C   -0.028029
    22  N    0.493764
    23  O   -0.366323
    24  O   -0.366274
    25  C    0.163410
    26  C   -0.000716
    27  C    0.111006
    28  C   -0.022886
    29  C    0.026559
    30  C    0.084239
    31  C    0.016828
    32  C    0.035116
    33  C    0.061970
    34  C    0.029525
    35  C    0.001322
    36  C    0.020939
    37  C   -0.012874
    38  C    0.258736
    39  O   -0.378441
    40  C    0.050081
    41  C    0.010240
    42  N   -0.101502
    43  B    0.341066
    44  F   -0.330071
    45  F   -0.363798
 Electronic spatial extent (au):  <R**2>=          40813.8951
 Charge=              0.0000 electrons
 Dipole moment (field-independent basis, Debye):
    X=             -9.1773    Y=             -0.0027    Z=             -0.4725  Tot=              9.1895
 Quadrupole moment (field-independent basis, Debye-Ang):
   XX=           -409.5650   YY=           -180.9010   ZZ=           -264.7658
   XY=             -0.0154   XZ=              5.3411   YZ=             -0.0130
 Traceless Quadrupole moment (field-independent basis, Debye-Ang):
   XX=           -124.4877   YY=            104.1763   ZZ=             20.3115
   XY=             -0.0154   XZ=              5.3411   YZ=             -0.0130
 Octapole moment (field-independent basis, Debye-Ang**2):
  XXX=           -185.2107  YYY=             -0.0624  ZZZ=             -1.0703  XYY=            -24.8763
  XXY=             -0.1935  XXZ=             29.1237  XZZ=            -50.1751  YZZ=              0.0160
  YYZ=             50.5135  XYZ=             -0.1967
 Hexadecapole moment (field-independent basis, Debye-Ang**3):
 XXXX=         -52276.0456 YYYY=         -15709.8786 ZZZZ=           -695.4840 XXXY=             -0.7798
 XXXZ=            335.9142 YYYX=             -1.3564 YYYZ=             -0.5268 ZZZX=             -6.4473
 ZZZY=              0.5508 XXYY=         -10134.1089 XXZZ=          -5737.7823 YYZZ=          -3840.0338
 XXYZ=             -1.0936 YYXZ=            269.9629 ZZXY=              0.1738
 N-N= 4.811478239272D+03 E-N=-1.437666550961D+04  KE= 2.028345210161D+03
 No NMR shielding tensors so no spin-rotation constants.
 Leave Link  601 at Sat Oct 25 05:23:02 2025, MaxMem= 30870077440 cpu:             121.6 elap:               2.3
 (Enter /public/software/gauss/g16/l9999.exe)
 1\1\GINC-CU056\SP\RM062X\def2TZVPP\C35H26B1F2N3O4\BAIDING\25-Oct-2025\
 0\\#p M062X/DEF2TZVPP scrf=(solvent=water) em=GD3\\Energy calculation 
 for BNP_CHO_CHO\\0,1\C,0,-3.994285,3.105316,-0.122901\C,0,-2.590551,2.
 583386,-0.087147\C,0,-1.460089,3.380617,-0.105461\C,0,-0.314494,2.5458
 44,-0.075501\C,0,1.076604,2.92028,-0.087054\C,0,1.506857,4.201919,0.02
 4263\C,0,2.894641,4.647233,0.012644\C,0,3.992992,3.767651,-0.147671\C,
 0,5.289611,4.249311,-0.146965\C,0,5.538554,5.626243,0.014623\C,0,6.906
 656,6.155926,0.020272\O,0,7.921844,5.476379,-0.117474\C,0,4.458776,6.5
 07859,0.173204\C,0,3.156754,6.024524,0.171188\N,0,-0.726523,1.245668,-
 0.046476\C,0,-2.121466,1.222938,-0.046626\C,0,-2.813113,-0.000487,-0.0
 35247\C,0,-4.307365,-0.000565,-0.021998\C,0,-4.997665,0.004454,1.19932
 2\C,0,-6.388218,0.004571,1.223083\C,0,-7.075011,-0.000244,0.009182\N,0
 ,-8.535759,-0.000066,0.025355\O,0,-9.136162,-0.00349,-1.054076\O,0,-9.
 112394,0.003485,1.117679\C,0,-6.415511,-0.005224,-1.219737\C,0,-5.0248
 61,-0.005406,-1.227264\C,0,-2.121214,-1.223798,-0.044637\C,0,-2.590046
 ,-2.584397,-0.082014\C,0,-3.993695,-3.106736,-0.114963\C,0,-1.459421,-
 3.381436,-0.099894\C,0,-0.313985,-2.546385,-0.072603\C,0,1.077195,-2.9
 20485,-0.085124\C,0,1.507952,-4.201879,0.02708\C,0,2.895848,-4.646797,
 0.014118\C,0,3.993803,-3.766859,-0.146956\C,0,5.290548,-4.248175,-0.14
 7808\C,0,5.540033,-5.625106,0.012964\C,0,6.908282,-6.154425,0.01688\O,
 0,7.92313,-5.47455,-0.121751\C,0,4.460656,-6.507056,0.172421\C,0,3.158
 504,-6.024063,0.171989\N,0,-0.726257,-1.246217,-0.04548\B,0,0.169607,-
 0.000096,0.183849\F,0,0.675177,0.000447,1.489387\F,0,1.23886,-0.000281
 ,-0.726278\H,0,-4.572849,2.785578,0.74892\H,0,-3.976619,4.197952,-0.13
 637\H,0,-4.535633,2.763944,-1.010465\H,0,-1.447992,4.460477,-0.155878\
 H,0,1.79009,2.112464,-0.198534\H,0,0.772703,4.995661,0.142452\H,0,3.82
 341,2.703725,-0.273033\H,0,6.128057,3.57141,-0.270282\H,0,6.98229,7.25
 1065,0.161725\H,0,4.648511,7.570597,0.29728\H,0,2.323242,6.709634,0.29
 4103\H,0,-4.444536,0.008179,2.132056\H,0,-6.931056,0.008344,2.15935\H,
 0,-6.979477,-0.008833,-2.143447\H,0,-4.492844,-0.009196,-2.172181\H,0,
 -4.572908,-2.780935,0.75415\H,0,-4.534452,-2.771739,-1.005333\H,0,-3.9
 75865,-4.19944,-0.120854\H,0,-1.447152,-4.461397,-0.14805\H,0,1.790321
 ,-2.112606,-0.198431\H,0,0.774169,-4.995729,0.146824\H,0,3.823822,-2.7
 02908,-0.271573\H,0,6.128675,-3.569985,-0.271707\H,0,6.984375,-7.2496,
 0.157809\H,0,4.650787,-7.569791,0.295915\H,0,2.325315,-6.70945,0.29554
 9\\Version=ES64L-G16RevA.03\State=1-A\HF=-2039.1575931\RMSD=3.007e-09\
 Dipole=-3.6106308,-0.0010737,-0.1859035\Quadrupole=-92.553574,77.45250
 59,15.1010681,-0.0114156,3.9709833,-0.0096797\PG=C01 [X(C35H26B1F2N3O4
 )]\\@


 SUPPORT THE RIGHT TO ARM BEARS!
 (ADD A CLAWS TO THE BILL OF RIGHTS)
 Job cpu time:       0 days 14 hours  7 minutes 32.5 seconds.
 Elapsed time:       0 days  0 hours 13 minutes 29.8 seconds.
 File lengths (MBytes):  RWF=   2082 Int=      0 D2E=      0 Chk=    181 Scr=      1
 Normal termination of Gaussian 16 at Sat Oct 25 05:23:03 2025.
