 Entering Gaussian System, Link 0=g16
 Input=BNP_N3_N3_sp.gjf
 Output=BNP_N3_N3_sp.log
 Initial command:
 /public/software/gauss/g16/l1.exe "/public/home/baiding/1028_sp/tmp_BNP_N3_N3_sp_1538822/Gau-46145.inp" -scrdir="/public/home/baiding/1028_sp/tmp_BNP_N3_N3_sp_1538822/"
 Entering Link 1 = /public/software/gauss/g16/l1.exe PID=     46146.
  
 Copyright (c) 1988,1990,1992,1993,1995,1998,2003,2009,2016,
            Gaussian, Inc.  All Rights Reserved.
  
 This is part of the Gaussian(R) 16 program.  It is based on
 the Gaussian(R) 09 system (copyright 2009, Gaussian, Inc.),
 the Gaussian(R) 03 system (copyright 2003, Gaussian, Inc.),
 the Gaussian(R) 98 system (copyright 1998, Gaussian, Inc.),
 the Gaussian(R) 94 system (copyright 1995, Gaussian, Inc.),
 the Gaussian 92(TM) system (copyright 1992, Gaussian, Inc.),
 the Gaussian 90(TM) system (copyright 1990, Gaussian, Inc.),
 the Gaussian 88(TM) system (copyright 1988, Gaussian, Inc.),
 the Gaussian 86(TM) system (copyright 1986, Carnegie Mellon
 University), and the Gaussian 82(TM) system (copyright 1983,
 Carnegie Mellon University). Gaussian is a federally registered
 trademark of Gaussian, Inc.
  
 This software contains proprietary and confidential information,
 including trade secrets, belonging to Gaussian, Inc.
  
 This software is provided under written license and may be
 used, copied, transmitted, or stored only in accord with that
 written license.
  
 The following legend is applicable only to US Government
 contracts under FAR:
  
                    RESTRICTED RIGHTS LEGEND
  
 Use, reproduction and disclosure by the US Government is
 subject to restrictions as set forth in subparagraphs (a)
 and (c) of the Commercial Computer Software - Restricted
 Rights clause in FAR 52.227-19.
  
 Gaussian, Inc.
 340 Quinnipiac St., Bldg. 40, Wallingford CT 06492
  
  
 ---------------------------------------------------------------
 Warning -- This program may not be used in any manner that
 competes with the business of Gaussian, Inc. or will provide
 assistance to any competitor of Gaussian, Inc.  The licensee
 of this program is prohibited from giving any competitor of
 Gaussian, Inc. access to this program.  By using this program,
 the user acknowledges that Gaussian, Inc. is engaged in the
 business of creating and licensing software in the field of
 computational chemistry and represents and warrants to the
 licensee that it is not a competitor of Gaussian, Inc. and that
 it will not use this program in any manner prohibited above.
 ---------------------------------------------------------------
  

 Cite this work as:
 Gaussian 16, Revision A.03,
 M. J. Frisch, G. W. Trucks, H. B. Schlegel, G. E. Scuseria, 
 M. A. Robb, J. R. Cheeseman, G. Scalmani, V. Barone, 
 G. A. Petersson, H. Nakatsuji, X. Li, M. Caricato, A. V. Marenich, 
 J. Bloino, B. G. Janesko, R. Gomperts, B. Mennucci, H. P. Hratchian, 
 J. V. Ortiz, A. F. Izmaylov, J. L. Sonnenberg, D. Williams-Young, 
 F. Ding, F. Lipparini, F. Egidi, J. Goings, B. Peng, A. Petrone, 
 T. Henderson, D. Ranasinghe, V. G. Zakrzewski, J. Gao, N. Rega, 
 G. Zheng, W. Liang, M. Hada, M. Ehara, K. Toyota, R. Fukuda, 
 J. Hasegawa, M. Ishida, T. Nakajima, Y. Honda, O. Kitao, H. Nakai, 
 T. Vreven, K. Throssell, J. A. Montgomery, Jr., J. E. Peralta, 
 F. Ogliaro, M. J. Bearpark, J. J. Heyd, E. N. Brothers, K. N. Kudin, 
 V. N. Staroverov, T. A. Keith, R. Kobayashi, J. Normand, 
 K. Raghavachari, A. P. Rendell, J. C. Burant, S. S. Iyengar, 
 J. Tomasi, M. Cossi, J. M. Millam, M. Klene, C. Adamo, R. Cammi, 
 J. W. Ochterski, R. L. Martin, K. Morokuma, O. Farkas, 
 J. B. Foresman, and D. J. Fox, Gaussian, Inc., Wallingford CT, 2016.
 
 ******************************************
 Gaussian 16:  ES64L-G16RevA.03 25-Dec-2016
                28-Oct-2025 
 ******************************************
 %nprocshared=64
 Will use up to   64 processors via shared memory.
 %mem=230GB
 %chk=BNP_N3_N3_sp.chk
 ----------------------------------------------
 #p M062X/DEF2TZVPP scrf=(solvent=water) em=GD3
 ----------------------------------------------
 1/38=1,172=1/1;
 2/12=2,17=6,18=5,40=1/2;
 3/5=44,7=202,11=2,25=1,30=1,70=2201,72=1,74=-55,124=31/1,2,3;
 4//1;
 5/5=2,38=5,53=1/2;
 6/7=2,8=2,9=2,10=2,28=1/1;
 99/5=1,9=1/99;
 Leave Link    1 at Tue Oct 28 19:15:10 2025, MaxMem= 30870077440 cpu:              13.8 elap:               0.2
 (Enter /public/software/gauss/g16/l101.exe)
 --------------------------------
 Energy calculation for BNP_N3_N3
 --------------------------------
 Symbolic Z-matrix:
 Charge =  0 Multiplicity = 1
 C                     4.46761   2.94457   0.06771 
 C                     3.03337   2.51113   0.0422 
 C                     1.95492   3.37841   0.0481 
 C                     0.7581    2.61784   0.03162 
 C                    -0.60655   3.07894   0.04153 
 C                    -0.95666   4.38426  -0.08166 
 C                    -2.30828   4.92696  -0.06133 
 C                    -3.46682   4.13668   0.10514 
 C                    -4.73117   4.70584   0.12194 
 C                    -4.87495   6.09468  -0.02759 
 N                    -6.12468   6.76582  -0.01912 
 N                    -7.15472   6.10081   0.14853 
 N                    -8.17821   5.61852   0.29168 
 C                    -3.74269   6.89951  -0.19734 
 C                    -2.48176   6.31839  -0.21286 
 N                     1.08922   1.29366   0.02265 
 C                     2.48157   1.18283   0.02427 
 C                     3.09428  -0.08177   0.03208 
 C                     4.58586  -0.1786    0.02495 
 C                     5.27771  -0.26454  -1.19262 
 C                     6.66494  -0.3609   -1.21109 
 C                     7.34822  -0.37022   0.00488 
 N                     8.80487  -0.47441  -0.00545 
 O                     9.40262  -0.47864   1.07563 
 O                     9.38197  -0.55458  -1.09477 
 C                     6.68791  -0.28436   1.23048 
 C                     5.30059  -0.18827   1.23208 
 C                     2.32685  -1.25854   0.05334 
 C                     2.70632  -2.6451    0.11317 
 C                     4.07352  -3.25659   0.16479 
 C                     1.5269   -3.3685    0.134 
 C                     0.43581  -2.46377   0.08675 
 C                    -0.97565  -2.75125   0.09297 
 C                    -1.48174  -4.00704   0.0006 
 C                    -2.89005  -4.37829   0.01055 
 C                    -3.94481  -3.44564   0.12047 
 C                    -5.26796  -3.85837   0.12634 
 C                    -5.5803   -5.22202   0.02214 
 N                    -6.96129  -5.54664   0.039 
 N                    -7.29068  -6.73621  -0.04894 
 N                    -7.73445  -7.78416  -0.12135 
 C                    -4.55323  -6.16812  -0.08988 
 C                    -3.23094  -5.74273  -0.095 
 N                     0.93169  -1.19296   0.04511 
 B                     0.11714   0.10478  -0.19153 
 F                    -0.39743   0.12644  -1.49524 
 F                    -0.9476    0.17928   0.72303 
 H                     4.98485   2.59865   0.96795 
 H                     5.02763   2.56178  -0.79077 
 H                     4.51936   4.03612   0.04702 
 H                     2.01204   4.4576    0.08087 
 H                    -1.36858   2.3187    0.16659 
 H                    -0.17203   5.12673  -0.21245 
 H                    -3.38215   3.06176   0.22462 
 H                    -5.60429   4.07373   0.25076 
 H                    -3.86261   7.97133  -0.3135 
 H                    -1.6072    6.94898  -0.34345 
 H                     4.72771  -0.25663  -2.12721 
 H                     7.20806  -0.42772  -2.14485 
 H                     7.24863  -0.29388   2.15612 
 H                     4.76838  -0.12179   2.17461 
 H                     4.63426  -2.93436   1.04752 
 H                     3.98514  -4.34543   0.19944 
 H                     4.67453  -2.99315  -0.71073 
 H                     1.44643  -4.44479   0.19682 
 H                    -1.64018  -1.90032   0.1862 
 H                    -0.79179  -4.84301  -0.09504 
 H                    -3.72959  -2.3855    0.20146 
 H                    -6.07254  -3.13564   0.21138 
 H                    -4.78273  -7.22604  -0.17197 
 H                    -2.43836  -6.48043  -0.18196 
 
 ITRead=  0  0  0  0  0  0  0  0  0  0  0  0  0  0  0  0  0  0  0  0
 ITRead=  0  0  0  0  0  0  0  0  0  0  0  0  0  0  0  0  0  0  0  0
 ITRead=  0  0  0  0  0  0  0  0  0  0  0  0  0  0  0  0  0  0  0  0
 ITRead=  0  0  0  0  0  0  0  0  0  0  0
 MicOpt= -1 -1 -1 -1 -1 -1 -1 -1 -1 -1 -1 -1 -1 -1 -1 -1 -1 -1 -1 -1
 MicOpt= -1 -1 -1 -1 -1 -1 -1 -1 -1 -1 -1 -1 -1 -1 -1 -1 -1 -1 -1 -1
 MicOpt= -1 -1 -1 -1 -1 -1 -1 -1 -1 -1 -1 -1 -1 -1 -1 -1 -1 -1 -1 -1
 MicOpt= -1 -1 -1 -1 -1 -1 -1 -1 -1 -1 -1
 NAtoms=     71 NQM=       71 NQMF=       0 NMMI=      0 NMMIF=      0
                NMic=       0 NMicF=      0.
                    Isotopes and Nuclear Properties:
 (Nuclear quadrupole moments (NQMom) in fm**2, nuclear magnetic moments (NMagM)
  in nuclear magnetons)

  Atom         1           2           3           4           5           6           7           8           9          10
 IAtWgt=          12          12          12          12          12          12          12          12          12          12
 AtmWgt=  12.0000000  12.0000000  12.0000000  12.0000000  12.0000000  12.0000000  12.0000000  12.0000000  12.0000000  12.0000000
 NucSpn=           0           0           0           0           0           0           0           0           0           0
 AtZEff=  -0.0000000  -0.0000000  -0.0000000  -0.0000000  -0.0000000  -0.0000000  -0.0000000  -0.0000000  -0.0000000  -0.0000000
 NQMom=    0.0000000   0.0000000   0.0000000   0.0000000   0.0000000   0.0000000   0.0000000   0.0000000   0.0000000   0.0000000
 NMagM=    0.0000000   0.0000000   0.0000000   0.0000000   0.0000000   0.0000000   0.0000000   0.0000000   0.0000000   0.0000000
 AtZNuc=   6.0000000   6.0000000   6.0000000   6.0000000   6.0000000   6.0000000   6.0000000   6.0000000   6.0000000   6.0000000

  Atom        11          12          13          14          15          16          17          18          19          20
 IAtWgt=          14          14          14          12          12          14          12          12          12          12
 AtmWgt=  14.0030740  14.0030740  14.0030740  12.0000000  12.0000000  14.0030740  12.0000000  12.0000000  12.0000000  12.0000000
 NucSpn=           2           2           2           0           0           2           0           0           0           0
 AtZEff=  -0.0000000  -0.0000000  -0.0000000  -0.0000000  -0.0000000  -0.0000000  -0.0000000  -0.0000000  -0.0000000  -0.0000000
 NQMom=    2.0440000   2.0440000   2.0440000   0.0000000   0.0000000   2.0440000   0.0000000   0.0000000   0.0000000   0.0000000
 NMagM=    0.4037610   0.4037610   0.4037610   0.0000000   0.0000000   0.4037610   0.0000000   0.0000000   0.0000000   0.0000000
 AtZNuc=   7.0000000   7.0000000   7.0000000   6.0000000   6.0000000   7.0000000   6.0000000   6.0000000   6.0000000   6.0000000

  Atom        21          22          23          24          25          26          27          28          29          30
 IAtWgt=          12          12          14          16          16          12          12          12          12          12
 AtmWgt=  12.0000000  12.0000000  14.0030740  15.9949146  15.9949146  12.0000000  12.0000000  12.0000000  12.0000000  12.0000000
 NucSpn=           0           0           2           0           0           0           0           0           0           0
 AtZEff=  -0.0000000  -0.0000000  -0.0000000  -0.0000000  -0.0000000  -0.0000000  -0.0000000  -0.0000000  -0.0000000  -0.0000000
 NQMom=    0.0000000   0.0000000   2.0440000   0.0000000   0.0000000   0.0000000   0.0000000   0.0000000   0.0000000   0.0000000
 NMagM=    0.0000000   0.0000000   0.4037610   0.0000000   0.0000000   0.0000000   0.0000000   0.0000000   0.0000000   0.0000000
 AtZNuc=   6.0000000   6.0000000   7.0000000   8.0000000   8.0000000   6.0000000   6.0000000   6.0000000   6.0000000   6.0000000

  Atom        31          32          33          34          35          36          37          38          39          40
 IAtWgt=          12          12          12          12          12          12          12          12          14          14
 AtmWgt=  12.0000000  12.0000000  12.0000000  12.0000000  12.0000000  12.0000000  12.0000000  12.0000000  14.0030740  14.0030740
 NucSpn=           0           0           0           0           0           0           0           0           2           2
 AtZEff=  -0.0000000  -0.0000000  -0.0000000  -0.0000000  -0.0000000  -0.0000000  -0.0000000  -0.0000000  -0.0000000  -0.0000000
 NQMom=    0.0000000   0.0000000   0.0000000   0.0000000   0.0000000   0.0000000   0.0000000   0.0000000   2.0440000   2.0440000
 NMagM=    0.0000000   0.0000000   0.0000000   0.0000000   0.0000000   0.0000000   0.0000000   0.0000000   0.4037610   0.4037610
 AtZNuc=   6.0000000   6.0000000   6.0000000   6.0000000   6.0000000   6.0000000   6.0000000   6.0000000   7.0000000   7.0000000

  Atom        41          42          43          44          45          46          47          48          49          50
 IAtWgt=          14          12          12          14          11          19          19           1           1           1
 AtmWgt=  14.0030740  12.0000000  12.0000000  14.0030740  11.0093053  18.9984033  18.9984033   1.0078250   1.0078250   1.0078250
 NucSpn=           2           0           0           2           3           1           1           1           1           1
 AtZEff=  -0.0000000  -0.0000000  -0.0000000  -0.0000000  -0.0000000  -0.0000000  -0.0000000  -0.0000000  -0.0000000  -0.0000000
 NQMom=    2.0440000   0.0000000   0.0000000   2.0440000   4.0590000   0.0000000   0.0000000   0.0000000   0.0000000   0.0000000
 NMagM=    0.4037610   0.0000000   0.0000000   0.4037610   2.6886370   2.6288670   2.6288670   2.7928460   2.7928460   2.7928460
 AtZNuc=   7.0000000   6.0000000   6.0000000   7.0000000   5.0000000   9.0000000   9.0000000   1.0000000   1.0000000   1.0000000

  Atom        51          52          53          54          55          56          57          58          59          60
 IAtWgt=           1           1           1           1           1           1           1           1           1           1
 AtmWgt=   1.0078250   1.0078250   1.0078250   1.0078250   1.0078250   1.0078250   1.0078250   1.0078250   1.0078250   1.0078250
 NucSpn=           1           1           1           1           1           1           1           1           1           1
 AtZEff=  -0.0000000  -0.0000000  -0.0000000  -0.0000000  -0.0000000  -0.0000000  -0.0000000  -0.0000000  -0.0000000  -0.0000000
 NQMom=    0.0000000   0.0000000   0.0000000   0.0000000   0.0000000   0.0000000   0.0000000   0.0000000   0.0000000   0.0000000
 NMagM=    2.7928460   2.7928460   2.7928460   2.7928460   2.7928460   2.7928460   2.7928460   2.7928460   2.7928460   2.7928460
 AtZNuc=   1.0000000   1.0000000   1.0000000   1.0000000   1.0000000   1.0000000   1.0000000   1.0000000   1.0000000   1.0000000

  Atom        61          62          63          64          65          66          67          68          69          70
 IAtWgt=           1           1           1           1           1           1           1           1           1           1
 AtmWgt=   1.0078250   1.0078250   1.0078250   1.0078250   1.0078250   1.0078250   1.0078250   1.0078250   1.0078250   1.0078250
 NucSpn=           1           1           1           1           1           1           1           1           1           1
 AtZEff=  -0.0000000  -0.0000000  -0.0000000  -0.0000000  -0.0000000  -0.0000000  -0.0000000  -0.0000000  -0.0000000  -0.0000000
 NQMom=    0.0000000   0.0000000   0.0000000   0.0000000   0.0000000   0.0000000   0.0000000   0.0000000   0.0000000   0.0000000
 NMagM=    2.7928460   2.7928460   2.7928460   2.7928460   2.7928460   2.7928460   2.7928460   2.7928460   2.7928460   2.7928460
 AtZNuc=   1.0000000   1.0000000   1.0000000   1.0000000   1.0000000   1.0000000   1.0000000   1.0000000   1.0000000   1.0000000

  Atom        71
 IAtWgt=           1
 AtmWgt=   1.0078250
 NucSpn=           1
 AtZEff=  -0.0000000
 NQMom=    0.0000000
 NMagM=    2.7928460
 AtZNuc=   1.0000000
 Leave Link  101 at Tue Oct 28 19:15:10 2025, MaxMem= 30870077440 cpu:               4.0 elap:               0.1
 (Enter /public/software/gauss/g16/l202.exe)
 Stoichiometry    C33H24BF2N9O2
 Framework group  C1[X(C33H24BF2N9O2)]
 Deg. of freedom   207
 Full point group                 C1      NOp   1
 Largest Abelian subgroup         C1      NOp   1
 Largest concise Abelian subgroup C1      NOp   1
                         Standard orientation:                         
 ---------------------------------------------------------------------
 Center     Atomic      Atomic             Coordinates (Angstroms)
 Number     Number       Type             X           Y           Z
 ---------------------------------------------------------------------
      1          6           0       -4.467614    2.944570   -0.067710
      2          6           0       -3.033368    2.511134   -0.042204
      3          6           0       -1.954924    3.378407   -0.048100
      4          6           0       -0.758098    2.617840   -0.031617
      5          6           0        0.606548    3.078942   -0.041533
      6          6           0        0.956655    4.384259    0.081664
      7          6           0        2.308283    4.926964    0.061326
      8          6           0        3.466815    4.136681   -0.105139
      9          6           0        4.731165    4.705841   -0.121938
     10          6           0        4.874951    6.094677    0.027587
     11          7           0        6.124684    6.765820    0.019119
     12          7           0        7.154724    6.100815   -0.148532
     13          7           0        8.178205    5.618525   -0.291684
     14          6           0        3.742690    6.899507    0.197342
     15          6           0        2.481760    6.318395    0.212861
     16          7           0       -1.089223    1.293656   -0.022648
     17          6           0       -2.481573    1.182831   -0.024273
     18          6           0       -3.094277   -0.081767   -0.032084
     19          6           0       -4.585855   -0.178597   -0.024952
     20          6           0       -5.277711   -0.264536    1.192616
     21          6           0       -6.664940   -0.360897    1.211094
     22          6           0       -7.348219   -0.370217   -0.004881
     23          7           0       -8.804870   -0.474411    0.005450
     24          8           0       -9.402617   -0.478640   -1.075631
     25          8           0       -9.381971   -0.554583    1.094772
     26          6           0       -6.687908   -0.284364   -1.230484
     27          6           0       -5.300590   -0.188266   -1.232077
     28          6           0       -2.326849   -1.258540   -0.053339
     29          6           0       -2.706317   -2.645101   -0.113172
     30          6           0       -4.073521   -3.256586   -0.164789
     31          6           0       -1.526900   -3.368496   -0.134001
     32          6           0       -0.435813   -2.463773   -0.086754
     33          6           0        0.975647   -2.751246   -0.092973
     34          6           0        1.481736   -4.007042   -0.000599
     35          6           0        2.890051   -4.378291   -0.010549
     36          6           0        3.944808   -3.445636   -0.120465
     37          6           0        5.267961   -3.858367   -0.126335
     38          6           0        5.580304   -5.222016   -0.022144
     39          7           0        6.961286   -5.546645   -0.039000
     40          7           0        7.290676   -6.736210    0.048935
     41          7           0        7.734446   -7.784158    0.121352
     42          6           0        4.553229   -6.168121    0.089884
     43          6           0        3.230938   -5.742733    0.095003
     44          7           0       -0.931691   -1.192961   -0.045107
     45          5           0       -0.117143    0.104782    0.191531
     46          9           0        0.397433    0.126438    1.495240
     47          9           0        0.947604    0.179279   -0.723033
     48          1           0       -4.984845    2.598653   -0.967948
     49          1           0       -5.027634    2.561784    0.790766
     50          1           0       -4.519358    4.036123   -0.047021
     51          1           0       -2.012037    4.457596   -0.080868
     52          1           0        1.368575    2.318702   -0.166585
     53          1           0        0.172032    5.126725    0.212447
     54          1           0        3.382153    3.061756   -0.224618
     55          1           0        5.604293    4.073726   -0.250756
     56          1           0        3.862606    7.971325    0.313496
     57          1           0        1.607199    6.948980    0.343446
     58          1           0       -4.727710   -0.256631    2.127207
     59          1           0       -7.208059   -0.427718    2.144849
     60          1           0       -7.248633   -0.293884   -2.156123
     61          1           0       -4.768383   -0.121793   -2.174608
     62          1           0       -4.634263   -2.934362   -1.047522
     63          1           0       -3.985140   -4.345430   -0.199443
     64          1           0       -4.674534   -2.993154    0.710732
     65          1           0       -1.446433   -4.444791   -0.196815
     66          1           0        1.640184   -1.900318   -0.186196
     67          1           0        0.791792   -4.843011    0.095036
     68          1           0        3.729588   -2.385497   -0.201458
     69          1           0        6.072541   -3.135643   -0.211376
     70          1           0        4.782733   -7.226038    0.171968
     71          1           0        2.438361   -6.480431    0.181955
 ---------------------------------------------------------------------
 Rotational constants (GHZ):           0.0523304           0.0335617           0.0207653
 Leave Link  202 at Tue Oct 28 19:15:10 2025, MaxMem= 30870077440 cpu:               0.2 elap:               0.0
 (Enter /public/software/gauss/g16/l301.exe)
 Standard basis: def2TZVPP (5D, 7F)
 Ernie: Thresh=  0.10000D-02 Tol=  0.10000D-05 Strict=F.
 There are  2052 symmetry adapted cartesian basis functions of A   symmetry.
 There are  1793 symmetry adapted basis functions of A   symmetry.
  1793 basis functions,  2805 primitive gaussians,  2052 cartesian basis functions
   162 alpha electrons      162 beta electrons
       nuclear repulsion energy      5057.9425856689 Hartrees.
 IExCor= 4336 DFT=T Ex+Corr=M062X ExCW=0 ScaHFX=  0.540000
 ScaDFX=  1.000000  1.000000  1.000000  1.000000 ScalE2=  1.000000  1.000000
 IRadAn=      5 IRanWt=     -1 IRanGd=            0 ICorTp=0 IEmpDi=131
 NAtoms=   71 NActive=   71 NUniq=   71 SFac= 1.00D+00 NAtFMM=   60 NAOKFM=T Big=T
 Integral buffers will be    131072 words long.
 Raffenetti 2 integral format.
 Two-electron integral symmetry is turned on.
 R6Disp:  Grimme-D3 Dispersion energy=       -0.0057444173 Hartrees.
 Nuclear repulsion after empirical dispersion term =     5057.9368412516 Hartrees.
 ------------------------------------------------------------------------------
 Polarizable Continuum Model (PCM)
 =================================
 Model                : PCM.
 Atomic radii         : UFF (Universal Force Field).
 Polarization charges : Total charges.
 Charge compensation  : None.
 Solution method      : On-the-fly selection.
 Cavity type          : Scaled VdW (van der Waals Surface) (Alpha=1.100).
 Cavity algorithm     : GePol (No added spheres)
                        Default sphere list used, NSphG=   71.
                        Lebedev-Laikov grids with approx.  5.0 points / Ang**2.
                        Smoothing algorithm: York/Karplus (Gamma=1.0000).
                        Polarization charges: spherical gaussians, with
                                              point-specific exponents (IZeta= 3).
                        Self-potential: point-specific (ISelfS= 7).
                        Self-field    : sphere-specific E.n sum rule (ISelfD= 2).
 Solvent              : Water, Eps=  78.355300 Eps(inf)=   1.777849
 ------------------------------------------------------------------------------
 GePol: Number of generator spheres                  =      71
 GePol: Total number of spheres                      =      71
 GePol: Number of exposed spheres                    =      71 (100.00%)
 GePol: Number of points                             =    5542
 GePol: Average weight of points                     =       0.13
 GePol: Minimum weight of points                     =   0.22D-11
 GePol: Maximum weight of points                     =    0.20577
 GePol: Number of points with low weight             =     348
 GePol: Fraction of low-weight points (<1% of avg)   =       6.28%
 GePol: Cavity surface area                          =    700.192 Ang**2
 GePol: Cavity volume                                =    802.082 Ang**3
 Leave Link  301 at Tue Oct 28 19:15:10 2025, MaxMem= 30870077440 cpu:               3.6 elap:               0.1
 (Enter /public/software/gauss/g16/l302.exe)
 NPDir=0 NMtPBC=     1 NCelOv=     1 NCel=       1 NClECP=     1 NCelD=      1
         NCelK=      1 NCelE2=     1 NClLst=     1 CellRange=     0.0.
 One-electron integrals computed using PRISM.
 One-electron integral symmetry used in STVInt
   1 Symmetry operations used in ECPInt.
 ECPInt:  NShTT=  218791 NPrTT=  642384 LenC2=  133516 LenP2D=  260154.
 LDataN:  DoStor=T MaxTD1= 6 Len=  172
 NBasis=  1793 RedAO= T EigKep=  3.60D-06  NBF=  1793
 NBsUse=  1793 1.00D-06 EigRej= -1.00D+00 NBFU=  1793
 Precomputing XC quadrature grid using
 IXCGrd= 4 IRadAn=           5 IRanWt=          -1 IRanGd=           0 AccXCQ= 0.00D+00.
 Generated NRdTot=       0 NPtTot=           0 NUsed=           0 NTot=          32
 NSgBfM=  1798  1796  1796  1796  1798 MxSgAt=    71 MxSgA2=    71.
 Leave Link  302 at Tue Oct 28 19:15:19 2025, MaxMem= 30870077440 cpu:             545.9 elap:               8.6
 (Enter /public/software/gauss/g16/l303.exe)
 DipDrv:  MaxL=1.
 Leave Link  303 at Tue Oct 28 19:15:19 2025, MaxMem= 30870077440 cpu:              25.7 elap:               0.5
 (Enter /public/software/gauss/g16/l401.exe)
 ExpMin= 6.06D-02 ExpMax= 3.55D+04 ExpMxC= 1.21D+03 IAcc=3 IRadAn=         5 AccDes= 0.00D+00
 Harris functional with IExCor= 1009 and IRadAn=       5 diagonalized for initial guess.
 HarFok:  IExCor= 1009 AccDes= 0.00D+00 IRadAn=         5 IDoV= 1 UseB2=F ITyADJ=14
 ICtDFT=  3500011 ScaDFX=  1.000000  1.000000  1.000000  1.000000
 FoFCou: FMM=F IPFlag=           0 FMFlag=      100000 FMFlg1=        2001
         NFxFlg=           0 DoJE=T BraDBF=F KetDBF=T FulRan=T
         wScrn=  0.000000 ICntrl=       500 IOpCl=  0 I1Cent=   200000004 NGrid=           0
         NMat0=    1 NMatS0=      1 NMatT0=    0 NMatD0=    1 NMtDS0=    0 NMtDT0=    0
 Petite list used in FoFCou.
 Harris En= -2138.55360329163    
 JPrj=0 DoOrth=F DoCkMO=F.
 Leave Link  401 at Tue Oct 28 19:15:28 2025, MaxMem= 30870077440 cpu:             592.5 elap:               9.3
 (Enter /public/software/gauss/g16/l502.exe)
 Integral symmetry usage will be decided dynamically.
 Closed shell SCF:
 Using DIIS extrapolation, IDIIS=  1040.
 NGot= 30870077440 LenX= 30861507565 LenY= 30857294809
 Requested convergence on RMS density matrix=1.00D-08 within 128 cycles.
 Requested convergence on MAX density matrix=1.00D-06.
 Requested convergence on             energy=1.00D-06.
 No special actions if energy rises.
 Fock matrices will be formed incrementally for  20 cycles.

 Cycle   1  Pass 1  IDiag  1:
 FoFJK:  IHMeth= 1 ICntrl=       0 DoSepK=F KAlg= 0 I1Cent=           0 FoldK=F
 IRaf= 570000000 NMat=       1 IRICut=       1 DoRegI=T DoRafI=F ISym2E= 0 IDoP0=0 IntGTp=1.
 FoFCou: FMM=T IPFlag=           0 FMFlag=      100000 FMFlg1=        2001
         NFxFlg=           0 DoJE=F BraDBF=F KetDBF=F FulRan=T
         wScrn=  0.000000 ICntrl=         0 IOpCl=  0 I1Cent=           0 NGrid=           0
         NMat0=    1 NMatS0=      1 NMatT0=    0 NMatD0=    1 NMtDS0=    0 NMtDT0=    0
 Symmetry not used in FoFCou.
 FMM levels:  10  Number of levels for PrismC:   9
 Inv3:  Mode=1 IEnd=    92141292.
 Iteration    1 A*A^-1 deviation from unit magnitude is 2.33D-14 for   2601.
 Iteration    1 A*A^-1 deviation from orthogonality  is 6.48D-15 for   4220     64.
 Iteration    1 A^-1*A deviation from unit magnitude is 2.33D-14 for   2601.
 Iteration    1 A^-1*A deviation from orthogonality  is 6.91D-14 for   2969   2887.
 E= -2138.60114967683    
 DIIS: error= 2.66D-02 at cycle   1 NSaved=   1.
 NSaved= 1 IEnMin= 1 EnMin= -2138.60114967683     IErMin= 1 ErrMin= 2.66D-02
 ErrMax= 2.66D-02  0.00D+00 EMaxC= 1.00D-01 BMatC= 1.42D+00 BMatP= 1.42D+00
 IDIUse=3 WtCom= 7.34D-01 WtEn= 2.66D-01
 Coeff-Com:  0.100D+01
 Coeff-En:   0.100D+01
 Coeff:      0.100D+01
 Gap=     0.155 Goal=   None    Shift=    0.000
 GapD=    0.155 DampG=1.000 DampE=0.500 DampFc=0.5000 IDamp=-1.
 Damping current iteration by 5.00D-01
 RMSDP=1.31D-03 MaxDP=9.01D-02              OVMax= 2.61D-01

 Cycle   2  Pass 1  IDiag  1:
 RMSU=  6.53D-04    CP:  9.83D-01
 E= -2139.11887908908     Delta-E=       -0.517729412250 Rises=F Damp=T
 DIIS: error= 5.42D-03 at cycle   2 NSaved=   2.
 NSaved= 2 IEnMin= 2 EnMin= -2139.11887908908     IErMin= 2 ErrMin= 5.42D-03
 ErrMax= 5.42D-03  0.00D+00 EMaxC= 1.00D-01 BMatC= 1.49D-01 BMatP= 1.42D+00
 IDIUse=3 WtCom= 9.46D-01 WtEn= 5.42D-02
 Coeff-Com: -0.509D-01 0.105D+01
 Coeff-En:   0.000D+00 0.100D+01
 Coeff:     -0.481D-01 0.105D+01
 Gap=     0.170 Goal=   None    Shift=    0.000
 RMSDP=6.28D-04 MaxDP=5.64D-02 DE=-5.18D-01 OVMax= 2.12D-01

 Cycle   3  Pass 1  IDiag  1:
 RMSU=  5.60D-04    CP:  9.65D-01  1.42D+00
 E= -2139.62148918747     Delta-E=       -0.502610098394 Rises=F Damp=F
 DIIS: error= 1.04D-02 at cycle   3 NSaved=   3.
 NSaved= 3 IEnMin= 3 EnMin= -2139.62148918747     IErMin= 2 ErrMin= 5.42D-03
 ErrMax= 1.04D-02  0.00D+00 EMaxC= 1.00D-01 BMatC= 8.78D-02 BMatP= 1.49D-01
 IDIUse=3 WtCom= 8.96D-01 WtEn= 1.04D-01
 Coeff-Com: -0.116D+00 0.487D+00 0.629D+00
 Coeff-En:   0.000D+00 0.000D+00 0.100D+01
 Coeff:     -0.104D+00 0.436D+00 0.668D+00
 Gap=     0.131 Goal=   None    Shift=    0.000
 RMSDP=1.80D-04 MaxDP=2.70D-02 DE=-5.03D-01 OVMax= 7.48D-02

 Cycle   4  Pass 1  IDiag  1:
 RMSU=  1.74D-04    CP:  9.66D-01  1.44D+00  9.23D-01
 E= -2139.67260795373     Delta-E=       -0.051118766258 Rises=F Damp=F
 DIIS: error= 3.41D-03 at cycle   4 NSaved=   4.
 NSaved= 4 IEnMin= 4 EnMin= -2139.67260795373     IErMin= 4 ErrMin= 3.41D-03
 ErrMax= 3.41D-03  0.00D+00 EMaxC= 1.00D-01 BMatC= 1.99D-02 BMatP= 8.78D-02
 IDIUse=3 WtCom= 9.66D-01 WtEn= 3.41D-02
 Coeff-Com: -0.433D-01 0.124D+00 0.371D+00 0.549D+00
 Coeff-En:   0.000D+00 0.000D+00 0.188D+00 0.812D+00
 Coeff:     -0.418D-01 0.119D+00 0.365D+00 0.558D+00
 Gap=     0.132 Goal=   None    Shift=    0.000
 RMSDP=7.67D-05 MaxDP=1.25D-02 DE=-5.11D-02 OVMax= 2.27D-02

 Cycle   5  Pass 1  IDiag  1:
 RMSU=  5.78D-05    CP:  9.65D-01  1.45D+00  9.50D-01  7.27D-01
 E= -2139.68704120122     Delta-E=       -0.014433247489 Rises=F Damp=F
 DIIS: error= 1.15D-03 at cycle   5 NSaved=   5.
 NSaved= 5 IEnMin= 5 EnMin= -2139.68704120122     IErMin= 5 ErrMin= 1.15D-03
 ErrMax= 1.15D-03  0.00D+00 EMaxC= 1.00D-01 BMatC= 1.85D-03 BMatP= 1.99D-02
 IDIUse=3 WtCom= 9.88D-01 WtEn= 1.15D-02
 Coeff-Com: -0.165D-01 0.356D-01 0.168D+00 0.330D+00 0.483D+00
 Coeff-En:   0.000D+00 0.000D+00 0.000D+00 0.000D+00 0.100D+01
 Coeff:     -0.163D-01 0.352D-01 0.167D+00 0.326D+00 0.489D+00
 Gap=     0.133 Goal=   None    Shift=    0.000
 RMSDP=2.29D-05 MaxDP=4.57D-03 DE=-1.44D-02 OVMax= 1.05D-02

 Cycle   6  Pass 1  IDiag  1:
 RMSU=  1.91D-05    CP:  9.65D-01  1.44D+00  9.49D-01  7.46D-01  7.93D-01
 E= -2139.68854892932     Delta-E=       -0.001507728099 Rises=F Damp=F
 DIIS: error= 3.12D-04 at cycle   6 NSaved=   6.
 NSaved= 6 IEnMin= 6 EnMin= -2139.68854892932     IErMin= 6 ErrMin= 3.12D-04
 ErrMax= 3.12D-04  0.00D+00 EMaxC= 1.00D-01 BMatC= 1.53D-04 BMatP= 1.85D-03
 IDIUse=3 WtCom= 9.97D-01 WtEn= 3.12D-03
 Coeff-Com: -0.328D-02 0.350D-02 0.412D-01 0.100D+00 0.262D+00 0.596D+00
 Coeff-En:   0.000D+00 0.000D+00 0.000D+00 0.000D+00 0.000D+00 0.100D+01
 Coeff:     -0.327D-02 0.349D-02 0.411D-01 0.997D-01 0.262D+00 0.597D+00
 Gap=     0.134 Goal=   None    Shift=    0.000
 RMSDP=1.20D-05 MaxDP=1.92D-03 DE=-1.51D-03 OVMax= 3.07D-03

 Cycle   7  Pass 1  IDiag  1:
 RMSU=  1.02D-05    CP:  9.65D-01  1.45D+00  9.54D-01  7.37D-01  8.91D-01
                    CP:  9.65D-01
 E= -2139.68869408242     Delta-E=       -0.000145153107 Rises=F Damp=F
 DIIS: error= 6.29D-05 at cycle   7 NSaved=   7.
 NSaved= 7 IEnMin= 7 EnMin= -2139.68869408242     IErMin= 7 ErrMin= 6.29D-05
 ErrMax= 6.29D-05  0.00D+00 EMaxC= 1.00D-01 BMatC= 1.01D-05 BMatP= 1.53D-04
 IDIUse=1 WtCom= 1.00D+00 WtEn= 0.00D+00
 Coeff-Com:  0.158D-02-0.448D-02-0.143D-01-0.210D-01 0.965D-02 0.190D+00
 Coeff-Com:  0.839D+00
 Coeff:      0.158D-02-0.448D-02-0.143D-01-0.210D-01 0.965D-02 0.190D+00
 Coeff:      0.839D+00
 Gap=     0.134 Goal=   None    Shift=    0.000
 RMSDP=5.46D-06 MaxDP=6.95D-04 DE=-1.45D-04 OVMax= 2.73D-03

 Cycle   8  Pass 1  IDiag  1:
 RMSU=  3.66D-06    CP:  9.66D-01  1.45D+00  9.56D-01  7.36D-01  9.35D-01
                    CP:  1.03D+00  1.25D+00
 E= -2139.68871466972     Delta-E=       -0.000020587297 Rises=F Damp=F
 DIIS: error= 3.14D-05 at cycle   8 NSaved=   8.
 NSaved= 8 IEnMin= 8 EnMin= -2139.68871466972     IErMin= 8 ErrMin= 3.14D-05
 ErrMax= 3.14D-05  0.00D+00 EMaxC= 1.00D-01 BMatC= 2.06D-06 BMatP= 1.01D-05
 IDIUse=1 WtCom= 1.00D+00 WtEn= 0.00D+00
 Coeff-Com:  0.105D-02-0.218D-02-0.109D-01-0.211D-01-0.323D-01-0.120D-01
 Coeff-Com:  0.349D+00 0.728D+00
 Coeff:      0.105D-02-0.218D-02-0.109D-01-0.211D-01-0.323D-01-0.120D-01
 Coeff:      0.349D+00 0.728D+00
 Gap=     0.135 Goal=   None    Shift=    0.000
 RMSDP=2.00D-06 MaxDP=1.51D-04 DE=-2.06D-05 OVMax= 1.42D-03

 Cycle   9  Pass 1  IDiag  1:
 RMSU=  1.31D-06    CP:  9.66D-01  1.45D+00  9.56D-01  7.38D-01  9.48D-01
                    CP:  1.07D+00  1.35D+00  1.01D+00
 E= -2139.68871860569     Delta-E=       -0.000003935966 Rises=F Damp=F
 DIIS: error= 1.38D-05 at cycle   9 NSaved=   9.
 NSaved= 9 IEnMin= 9 EnMin= -2139.68871860569     IErMin= 9 ErrMin= 1.38D-05
 ErrMax= 1.38D-05  0.00D+00 EMaxC= 1.00D-01 BMatC= 3.89D-07 BMatP= 2.06D-06
 IDIUse=1 WtCom= 1.00D+00 WtEn= 0.00D+00
 Coeff-Com:  0.254D-03-0.365D-03-0.283D-02-0.648D-02-0.171D-01-0.374D-01
 Coeff-Com:  0.278D-01 0.316D+00 0.720D+00
 Coeff:      0.254D-03-0.365D-03-0.283D-02-0.648D-02-0.171D-01-0.374D-01
 Coeff:      0.278D-01 0.316D+00 0.720D+00
 Gap=     0.135 Goal=   None    Shift=    0.000
 RMSDP=1.08D-06 MaxDP=1.43D-04 DE=-3.94D-06 OVMax= 5.23D-04

 Cycle  10  Pass 1  IDiag  1:
 RMSU=  5.48D-07    CP:  9.66D-01  1.45D+00  9.57D-01  7.36D-01  9.52D-01
                    CP:  1.07D+00  1.42D+00  1.13D+00  1.10D+00
 E= -2139.68871931667     Delta-E=       -0.000000710989 Rises=F Damp=F
 DIIS: error= 5.44D-06 at cycle  10 NSaved=  10.
 NSaved=10 IEnMin=10 EnMin= -2139.68871931667     IErMin=10 ErrMin= 5.44D-06
 ErrMax= 5.44D-06  0.00D+00 EMaxC= 1.00D-01 BMatC= 6.40D-08 BMatP= 3.89D-07
 IDIUse=1 WtCom= 1.00D+00 WtEn= 0.00D+00
 Coeff-Com: -0.110D-03 0.293D-03 0.121D-02 0.207D-02-0.213D-03-0.118D-01
 Coeff-Com: -0.560D-01-0.234D-01 0.295D+00 0.793D+00
 Coeff:     -0.110D-03 0.293D-03 0.121D-02 0.207D-02-0.213D-03-0.118D-01
 Coeff:     -0.560D-01-0.234D-01 0.295D+00 0.793D+00
 Gap=     0.135 Goal=   None    Shift=    0.000
 RMSDP=3.98D-07 MaxDP=3.43D-05 DE=-7.11D-07 OVMax= 2.56D-04

 Cycle  11  Pass 1  IDiag  1:
 RMSU=  2.73D-07    CP:  9.66D-01  1.45D+00  9.57D-01  7.36D-01  9.53D-01
                    CP:  1.07D+00  1.44D+00  1.16D+00  1.23D+00  1.10D+00
 E= -2139.68871944455     Delta-E=       -0.000000127879 Rises=F Damp=F
 DIIS: error= 1.61D-06 at cycle  11 NSaved=  11.
 NSaved=11 IEnMin=11 EnMin= -2139.68871944455     IErMin=11 ErrMin= 1.61D-06
 ErrMax= 1.61D-06  0.00D+00 EMaxC= 1.00D-01 BMatC= 1.10D-08 BMatP= 6.40D-08
 IDIUse=1 WtCom= 1.00D+00 WtEn= 0.00D+00
 Coeff-Com: -0.742D-04 0.163D-03 0.879D-03 0.180D-02 0.195D-02 0.132D-03
 Coeff-Com: -0.263D-01-0.546D-01 0.252D-01 0.328D+00 0.722D+00
 Coeff:     -0.742D-04 0.163D-03 0.879D-03 0.180D-02 0.195D-02 0.132D-03
 Coeff:     -0.263D-01-0.546D-01 0.252D-01 0.328D+00 0.722D+00
 Gap=     0.135 Goal=   None    Shift=    0.000
 RMSDP=1.58D-07 MaxDP=1.92D-05 DE=-1.28D-07 OVMax= 6.78D-05

 Cycle  12  Pass 1  IDiag  1:
 RMSU=  1.05D-07    CP:  9.66D-01  1.45D+00  9.57D-01  7.36D-01  9.53D-01
                    CP:  1.07D+00  1.44D+00  1.17D+00  1.27D+00  1.25D+00
                    CP:  9.29D-01
 E= -2139.68871946220     Delta-E=       -0.000000017642 Rises=F Damp=F
 DIIS: error= 9.84D-07 at cycle  12 NSaved=  12.
 NSaved=12 IEnMin=12 EnMin= -2139.68871946220     IErMin=12 ErrMin= 9.84D-07
 ErrMax= 9.84D-07  0.00D+00 EMaxC= 1.00D-01 BMatC= 2.52D-09 BMatP= 1.10D-08
 IDIUse=1 WtCom= 1.00D+00 WtEn= 0.00D+00
 Coeff-Com: -0.144D-04 0.233D-04 0.213D-03 0.536D-03 0.798D-03 0.185D-02
 Coeff-Com: -0.364D-02-0.231D-01-0.337D-01 0.287D-01 0.357D+00 0.671D+00
 Coeff:     -0.144D-04 0.233D-04 0.213D-03 0.536D-03 0.798D-03 0.185D-02
 Coeff:     -0.364D-02-0.231D-01-0.337D-01 0.287D-01 0.357D+00 0.671D+00
 Gap=     0.135 Goal=   None    Shift=    0.000
 RMSDP=5.38D-08 MaxDP=6.10D-06 DE=-1.76D-08 OVMax= 2.99D-05

 Cycle  13  Pass 1  IDiag  1:
 RMSU=  3.55D-08    CP:  9.66D-01  1.45D+00  9.57D-01  7.36D-01  9.53D-01
                    CP:  1.07D+00  1.44D+00  1.17D+00  1.29D+00  1.27D+00
                    CP:  1.02D+00  1.06D+00
 E= -2139.68871946601     Delta-E=       -0.000000003818 Rises=F Damp=F
 DIIS: error= 4.16D-07 at cycle  13 NSaved=  13.
 NSaved=13 IEnMin=13 EnMin= -2139.68871946601     IErMin=13 ErrMin= 4.16D-07
 ErrMax= 4.16D-07  0.00D+00 EMaxC= 1.00D-01 BMatC= 4.22D-10 BMatP= 2.52D-09
 IDIUse=1 WtCom= 1.00D+00 WtEn= 0.00D+00
 Coeff-Com:  0.894D-05-0.234D-04-0.814D-04-0.112D-03-0.748D-04 0.890D-03
 Coeff-Com:  0.401D-02 0.766D-03-0.201D-01-0.587D-01 0.281D-02 0.298D+00
 Coeff-Com:  0.773D+00
 Coeff:      0.894D-05-0.234D-04-0.814D-04-0.112D-03-0.748D-04 0.890D-03
 Coeff:      0.401D-02 0.766D-03-0.201D-01-0.587D-01 0.281D-02 0.298D+00
 Coeff:      0.773D+00
 Gap=     0.135 Goal=   None    Shift=    0.000
 RMSDP=2.61D-08 MaxDP=3.98D-06 DE=-3.82D-09 OVMax= 1.01D-05

 Cycle  14  Pass 1  IDiag  1:
 RMSU=  1.53D-08    CP:  9.66D-01  1.45D+00  9.57D-01  7.36D-01  9.52D-01
                    CP:  1.07D+00  1.44D+00  1.17D+00  1.29D+00  1.29D+00
                    CP:  1.05D+00  1.19D+00  1.07D+00
 E= -2139.68871946676     Delta-E=       -0.000000000748 Rises=F Damp=F
 DIIS: error= 1.57D-07 at cycle  14 NSaved=  14.
 NSaved=14 IEnMin=14 EnMin= -2139.68871946676     IErMin=14 ErrMin= 1.57D-07
 ErrMax= 1.57D-07  0.00D+00 EMaxC= 1.00D-01 BMatC= 4.88D-11 BMatP= 4.22D-10
 IDIUse=1 WtCom= 1.00D+00 WtEn= 0.00D+00
 Coeff-Com:  0.514D-05-0.118D-04-0.566D-04-0.106D-03-0.137D-03 0.985D-04
 Coeff-Com:  0.201D-02 0.325D-02-0.268D-02-0.263D-01-0.451D-01 0.288D-01
 Coeff-Com:  0.307D+00 0.733D+00
 Coeff:      0.514D-05-0.118D-04-0.566D-04-0.106D-03-0.137D-03 0.985D-04
 Coeff:      0.201D-02 0.325D-02-0.268D-02-0.263D-01-0.451D-01 0.288D-01
 Coeff:      0.307D+00 0.733D+00
 Gap=     0.135 Goal=   None    Shift=    0.000
 RMSDP=8.15D-09 MaxDP=1.19D-06 DE=-7.48D-10 OVMax= 3.76D-06

 Cycle  15  Pass 1  IDiag  1:
 RMSU=  5.92D-09    CP:  9.66D-01  1.45D+00  9.57D-01  7.36D-01  9.52D-01
                    CP:  1.07D+00  1.44D+00  1.17D+00  1.29D+00  1.29D+00
                    CP:  1.06D+00  1.22D+00  1.16D+00  1.09D+00
 E= -2139.68871946667     Delta-E=        0.000000000089 Rises=F Damp=F
 DIIS: error= 1.09D-07 at cycle  15 NSaved=  15.
 NSaved=15 IEnMin=14 EnMin= -2139.68871946676     IErMin=15 ErrMin= 1.09D-07
 ErrMax= 1.09D-07  0.00D+00 EMaxC= 1.00D-01 BMatC= 1.69D-11 BMatP= 4.88D-11
 IDIUse=1 WtCom= 1.00D+00 WtEn= 0.00D+00
 Coeff-Com:  0.131D-05-0.253D-05-0.175D-04-0.398D-04-0.668D-04-0.101D-03
 Coeff-Com:  0.446D-03 0.169D-02 0.199D-02-0.508D-02-0.254D-01-0.366D-01
 Coeff-Com:  0.366D-01 0.416D+00 0.610D+00
 Coeff:      0.131D-05-0.253D-05-0.175D-04-0.398D-04-0.668D-04-0.101D-03
 Coeff:      0.446D-03 0.169D-02 0.199D-02-0.508D-02-0.254D-01-0.366D-01
 Coeff:      0.366D-01 0.416D+00 0.610D+00
 Gap=     0.135 Goal=   None    Shift=    0.000
 RMSDP=3.60D-09 MaxDP=6.02D-07 DE= 8.91D-11 OVMax= 1.77D-06

 Error on total polarization charges =  0.02374
 SCF Done:  E(RM062X) =  -2139.68871947     A.U. after   15 cycles
            NFock= 15  Conv=0.36D-08     -V/T= 2.0054
 KE= 2.128299787597D+03 PE=-1.510236211760D+04 EE= 5.776436769287D+03
 Leave Link  502 at Tue Oct 28 19:29:51 2025, MaxMem= 30870077440 cpu:           54150.9 elap:             862.7
 (Enter /public/software/gauss/g16/l601.exe)
 Copying SCF densities to generalized density rwf, IOpCl= 0 IROHF=0.

 **********************************************************************

            Population analysis using the SCF density.

 **********************************************************************

 Orbital symmetries:
       Occupied  (A) (A) (A) (A) (A) (A) (A) (A) (A) (A) (A) (A)
                 (A) (A) (A) (A) (A) (A) (A) (A) (A) (A) (A) (A)
                 (A) (A) (A) (A) (A) (A) (A) (A) (A) (A) (A) (A)
                 (A) (A) (A) (A) (A) (A) (A) (A) (A) (A) (A) (A)
                 (A) (A) (A) (A) (A) (A) (A) (A) (A) (A) (A) (A)
                 (A) (A) (A) (A) (A) (A) (A) (A) (A) (A) (A) (A)
                 (A) (A) (A) (A) (A) (A) (A) (A) (A) (A) (A) (A)
                 (A) (A) (A) (A) (A) (A) (A) (A) (A) (A) (A) (A)
                 (A) (A) (A) (A) (A) (A) (A) (A) (A) (A) (A) (A)
                 (A) (A) (A) (A) (A) (A) (A) (A) (A) (A) (A) (A)
                 (A) (A) (A) (A) (A) (A) (A) (A) (A) (A) (A) (A)
                 (A) (A) (A) (A) (A) (A) (A) (A) (A) (A) (A) (A)
                 (A) (A) (A) (A) (A) (A) (A) (A) (A) (A) (A) (A)
                 (A) (A) (A) (A) (A) (A)
       Virtual   (A) (A) (A) (A) (A) (A) (A) (A) (A) (A) (A) (A)
                 (A) (A) (A) (A) (A) (A) (A) (A) (A) (A) (A) (A)
                 (A) (A) (A) (A) (A) (A) (A) (A) (A) (A) (A) (A)
                 (A) (A) (A) (A) (A) (A) (A) (A) (A) (A) (A) (A)
                 (A) (A) (A) (A) (A) (A) (A) (A) (A) (A) (A) (A)
                 (A) (A) (A) (A) (A) (A) (A) (A) (A) (A) (A) (A)
                 (A) (A) (A) (A) (A) (A) (A) (A) (A) (A) (A) (A)
                 (A) (A) (A) (A) (A) (A) (A) (A) (A) (A) (A) (A)
                 (A) (A) (A) (A) (A) (A) (A) (A) (A) (A) (A) (A)
                 (A) (A) (A) (A) (A) (A) (A) (A) (A) (A) (A) (A)
                 (A) (A) (A) (A) (A) (A) (A) (A) (A) (A) (A) (A)
                 (A) (A) (A) (A) (A) (A) (A) (A) (A) (A) (A) (A)
                 (A) (A) (A) (A) (A) (A) (A) (A) (A) (A) (A) (A)
                 (A) (A) (A) (A) (A) (A) (A) (A) (A) (A) (A) (A)
                 (A) (A) (A) (A) (A) (A) (A) (A) (A) (A) (A) (A)
                 (A) (A) (A) (A) (A) (A) (A) (A) (A) (A) (A) (A)
                 (A) (A) (A) (A) (A) (A) (A) (A) (A) (A) (A) (A)
                 (A) (A) (A) (A) (A) (A) (A) (A) (A) (A) (A) (A)
                 (A) (A) (A) (A) (A) (A) (A) (A) (A) (A) (A) (A)
                 (A) (A) (A) (A) (A) (A) (A) (A) (A) (A) (A) (A)
                 (A) (A) (A) (A) (A) (A) (A) (A) (A) (A) (A) (A)
                 (A) (A) (A) (A) (A) (A) (A) (A) (A) (A) (A) (A)
                 (A) (A) (A) (A) (A) (A) (A) (A) (A) (A) (A) (A)
                 (A) (A) (A) (A) (A) (A) (A) (A) (A) (A) (A) (A)
                 (A) (A) (A) (A) (A) (A) (A) (A) (A) (A) (A) (A)
                 (A) (A) (A) (A) (A) (A) (A) (A) (A) (A) (A) (A)
                 (A) (A) (A) (A) (A) (A) (A) (A) (A) (A) (A) (A)
                 (A) (A) (A) (A) (A) (A) (A) (A) (A) (A) (A) (A)
                 (A) (A) (A) (A) (A) (A) (A) (A) (A) (A) (A) (A)
                 (A) (A) (A) (A) (A) (A) (A) (A) (A) (A) (A) (A)
                 (A) (A) (A) (A) (A) (A) (A) (A) (A) (A) (A) (A)
                 (A) (A) (A) (A) (A) (A) (A) (A) (A) (A) (A) (A)
                 (A) (A) (A) (A) (A) (A) (A) (A) (A) (A) (A) (A)
                 (A) (A) (A) (A) (A) (A) (A) (A) (A) (A) (A) (A)
                 (A) (A) (A) (A) (A) (A) (A) (A) (A) (A) (A) (A)
                 (A) (A) (A) (A) (A) (A) (A) (A) (A) (A) (A) (A)
                 (A) (A) (A) (A) (A) (A) (A) (A) (A) (A) (A) (A)
                 (A) (A) (A) (A) (A) (A) (A) (A) (A) (A) (A) (A)
                 (A) (A) (A) (A) (A) (A) (A) (A) (A) (A) (A) (A)
                 (A) (A) (A) (A) (A) (A) (A) (A) (A) (A) (A) (A)
                 (A) (A) (A) (A) (A) (A) (A) (A) (A) (A) (A) (A)
                 (A) (A) (A) (A) (A) (A) (A) (A) (A) (A) (A) (A)
                 (A) (A) (A) (A) (A) (A) (A) (A) (A) (A) (A) (A)
                 (A) (A) (A) (A) (A) (A) (A) (A) (A) (A) (A) (A)
                 (A) (A) (A) (A) (A) (A) (A) (A) (A) (A) (A) (A)
                 (A) (A) (A) (A) (A) (A) (A) (A) (A) (A) (A) (A)
                 (A) (A) (A) (A) (A) (A) (A) (A) (A) (A) (A) (A)
                 (A) (A) (A) (A) (A) (A) (A) (A) (A) (A) (A) (A)
                 (A) (A) (A) (A) (A) (A) (A) (A) (A) (A) (A) (A)
                 (A) (A) (A) (A) (A) (A) (A) (A) (A) (A) (A) (A)
                 (A) (A) (A) (A) (A) (A) (A) (A) (A) (A) (A) (A)
                 (A) (A) (A) (A) (A) (A) (A) (A) (A) (A) (A) (A)
                 (A) (A) (A) (A) (A) (A) (A) (A) (A) (A) (A) (A)
                 (A) (A) (A) (A) (A) (A) (A) (A) (A) (A) (A) (A)
                 (A) (A) (A) (A) (A) (A) (A) (A) (A) (A) (A) (A)
                 (A) (A) (A) (A) (A) (A) (A) (A) (A) (A) (A) (A)
                 (A) (A) (A) (A) (A) (A) (A) (A) (A) (A) (A) (A)
                 (A) (A) (A) (A) (A) (A) (A) (A) (A) (A) (A) (A)
                 (A) (A) (A) (A) (A) (A) (A) (A) (A) (A) (A) (A)
                 (A) (A) (A) (A) (A) (A) (A) (A) (A) (A) (A) (A)
                 (A) (A) (A) (A) (A) (A) (A) (A) (A) (A) (A) (A)
                 (A) (A) (A) (A) (A) (A) (A) (A) (A) (A) (A) (A)
                 (A) (A) (A) (A) (A) (A) (A) (A) (A) (A) (A) (A)
                 (A) (A) (A) (A) (A) (A) (A) (A) (A) (A) (A) (A)
                 (A) (A) (A) (A) (A) (A) (A) (A) (A) (A) (A) (A)
                 (A) (A) (A) (A) (A) (A) (A) (A) (A) (A) (A) (A)
                 (A) (A) (A) (A) (A) (A) (A) (A) (A) (A) (A) (A)
                 (A) (A) (A) (A) (A) (A) (A) (A) (A) (A) (A) (A)
                 (A) (A) (A) (A) (A) (A) (A) (A) (A) (A) (A) (A)
                 (A) (A) (A) (A) (A) (A) (A) (A) (A) (A) (A) (A)
                 (A) (A) (A) (A) (A) (A) (A) (A) (A) (A) (A) (A)
                 (A) (A) (A) (A) (A) (A) (A) (A) (A) (A) (A) (A)
                 (A) (A) (A) (A) (A) (A) (A) (A) (A) (A) (A) (A)
                 (A) (A) (A) (A) (A) (A) (A) (A) (A) (A) (A) (A)
                 (A) (A) (A) (A) (A) (A) (A) (A) (A) (A) (A) (A)
                 (A) (A) (A) (A) (A) (A) (A) (A) (A) (A) (A) (A)
                 (A) (A) (A) (A) (A) (A) (A) (A) (A) (A) (A) (A)
                 (A) (A) (A) (A) (A) (A) (A) (A) (A) (A) (A) (A)
                 (A) (A) (A) (A) (A) (A) (A) (A) (A) (A) (A) (A)
                 (A) (A) (A) (A) (A) (A) (A) (A) (A) (A) (A) (A)
                 (A) (A) (A) (A) (A) (A) (A) (A) (A) (A) (A) (A)
                 (A) (A) (A) (A) (A) (A) (A) (A) (A) (A) (A) (A)
                 (A) (A) (A) (A) (A) (A) (A) (A) (A) (A) (A) (A)
                 (A) (A) (A) (A) (A) (A) (A) (A) (A) (A) (A) (A)
                 (A) (A) (A) (A) (A) (A) (A) (A) (A) (A) (A) (A)
                 (A) (A) (A) (A) (A) (A) (A) (A) (A) (A) (A) (A)
                 (A) (A) (A) (A) (A) (A) (A) (A) (A) (A) (A) (A)
                 (A) (A) (A) (A) (A) (A) (A) (A) (A) (A) (A) (A)
                 (A) (A) (A) (A) (A) (A) (A) (A) (A) (A) (A) (A)
                 (A) (A) (A) (A) (A) (A) (A) (A) (A) (A) (A) (A)
                 (A) (A) (A) (A) (A) (A) (A) (A) (A) (A) (A) (A)
                 (A) (A) (A) (A) (A) (A) (A) (A) (A) (A) (A) (A)
                 (A) (A) (A) (A) (A) (A) (A) (A) (A) (A) (A) (A)
                 (A) (A) (A) (A) (A) (A) (A) (A) (A) (A) (A) (A)
                 (A) (A) (A) (A) (A) (A) (A) (A) (A) (A) (A) (A)
                 (A) (A) (A) (A) (A) (A) (A) (A) (A) (A) (A) (A)
                 (A) (A) (A) (A) (A) (A) (A) (A) (A) (A) (A) (A)
                 (A) (A) (A) (A) (A) (A) (A) (A) (A) (A) (A) (A)
                 (A) (A) (A) (A) (A) (A) (A) (A) (A) (A) (A) (A)
                 (A) (A) (A) (A) (A) (A) (A) (A) (A) (A) (A) (A)
                 (A) (A) (A) (A) (A) (A) (A) (A) (A) (A) (A) (A)
                 (A) (A) (A) (A) (A) (A) (A) (A) (A) (A) (A) (A)
                 (A) (A) (A) (A) (A) (A) (A) (A) (A) (A) (A) (A)
                 (A) (A) (A) (A) (A) (A) (A) (A) (A) (A) (A) (A)
                 (A) (A) (A) (A) (A) (A) (A) (A) (A) (A) (A) (A)
                 (A) (A) (A) (A) (A) (A) (A) (A) (A) (A) (A) (A)
                 (A) (A) (A) (A) (A) (A) (A) (A) (A) (A) (A) (A)
                 (A) (A) (A) (A) (A) (A) (A) (A) (A) (A) (A) (A)
                 (A) (A) (A) (A) (A) (A) (A) (A) (A) (A) (A) (A)
                 (A) (A) (A) (A) (A) (A) (A) (A) (A) (A) (A) (A)
                 (A) (A) (A) (A) (A) (A) (A) (A) (A) (A) (A) (A)
                 (A) (A) (A) (A) (A) (A) (A) (A) (A) (A) (A) (A)
                 (A) (A) (A) (A) (A) (A) (A) (A) (A) (A) (A) (A)
                 (A) (A) (A) (A) (A) (A) (A) (A) (A) (A) (A) (A)
                 (A) (A) (A) (A) (A) (A) (A) (A) (A) (A) (A) (A)
                 (A) (A) (A) (A) (A) (A) (A) (A) (A) (A) (A) (A)
                 (A) (A) (A) (A) (A) (A) (A) (A) (A) (A) (A) (A)
                 (A) (A) (A) (A) (A) (A) (A) (A) (A) (A) (A) (A)
                 (A) (A) (A) (A) (A) (A) (A) (A) (A) (A) (A) (A)
                 (A) (A) (A) (A) (A) (A) (A) (A) (A) (A) (A) (A)
                 (A) (A) (A) (A) (A) (A) (A) (A) (A) (A) (A) (A)
                 (A) (A) (A) (A) (A) (A) (A) (A) (A) (A) (A) (A)
                 (A) (A) (A) (A) (A) (A) (A) (A) (A) (A) (A) (A)
                 (A) (A) (A) (A) (A) (A) (A) (A) (A) (A) (A) (A)
                 (A) (A) (A) (A) (A) (A) (A) (A) (A) (A) (A) (A)
                 (A) (A) (A) (A) (A) (A) (A) (A) (A) (A) (A) (A)
                 (A) (A) (A) (A) (A) (A) (A) (A) (A) (A) (A) (A)
                 (A) (A) (A) (A) (A) (A) (A) (A) (A) (A) (A) (A)
                 (A) (A) (A) (A) (A) (A) (A) (A) (A) (A) (A) (A)
                 (A) (A) (A) (A) (A) (A) (A) (A) (A) (A) (A) (A)
                 (A) (A) (A) (A) (A) (A) (A) (A) (A) (A) (A) (A)
                 (A) (A) (A) (A) (A) (A) (A) (A) (A) (A) (A) (A)
                 (A) (A) (A) (A) (A) (A) (A) (A) (A) (A) (A) (A)
                 (A) (A) (A) (A) (A) (A) (A) (A) (A) (A) (A) (A)
                 (A) (A) (A) (A) (A) (A) (A) (A) (A) (A) (A) (A)
                 (A) (A) (A) (A) (A) (A) (A) (A) (A) (A) (A)
 The electronic state is 1-A.
 Alpha  occ. eigenvalues --  -25.20812 -25.20585 -19.68068 -19.68066 -15.01543
 Alpha  occ. eigenvalues --  -14.95304 -14.95297 -14.85496 -14.85473 -14.82085
 Alpha  occ. eigenvalues --  -14.82085 -14.78725 -14.78714 -10.62187 -10.61261
 Alpha  occ. eigenvalues --  -10.61256 -10.60675 -10.60666 -10.60619 -10.59404
 Alpha  occ. eigenvalues --  -10.59345 -10.59339 -10.58265 -10.58262 -10.57571
 Alpha  occ. eigenvalues --  -10.57567 -10.57325 -10.57319 -10.56894 -10.56892
 Alpha  occ. eigenvalues --  -10.56734 -10.56731 -10.56296 -10.56231 -10.56171
 Alpha  occ. eigenvalues --  -10.56154 -10.56095 -10.56073 -10.56022 -10.56018
 Alpha  occ. eigenvalues --  -10.55869 -10.55770 -10.54529 -10.54528 -10.54230
 Alpha  occ. eigenvalues --  -10.54229  -7.13443  -1.37067  -1.32637  -1.29385
 Alpha  occ. eigenvalues --   -1.28205  -1.28189  -1.18578  -1.11112  -1.11097
 Alpha  occ. eigenvalues --   -1.10925  -1.09009  -1.01229  -0.98311  -0.98294
 Alpha  occ. eigenvalues --   -0.95702  -0.92660  -0.92369  -0.91274  -0.90641
 Alpha  occ. eigenvalues --   -0.89986  -0.87957  -0.87422  -0.86483  -0.86283
 Alpha  occ. eigenvalues --   -0.85968  -0.81853  -0.81831  -0.80526  -0.79668
 Alpha  occ. eigenvalues --   -0.77460  -0.75634  -0.72831  -0.72825  -0.72064
 Alpha  occ. eigenvalues --   -0.71218  -0.70370  -0.69401  -0.69141  -0.66897
 Alpha  occ. eigenvalues --   -0.66257  -0.65496  -0.65302  -0.64985  -0.64491
 Alpha  occ. eigenvalues --   -0.63529  -0.63061  -0.62082  -0.61988  -0.61588
 Alpha  occ. eigenvalues --   -0.61511  -0.61499  -0.60612  -0.60479  -0.58775
 Alpha  occ. eigenvalues --   -0.58459  -0.57633  -0.57458  -0.56279  -0.56130
 Alpha  occ. eigenvalues --   -0.55874  -0.54905  -0.54466  -0.54218  -0.53750
 Alpha  occ. eigenvalues --   -0.53405  -0.52899  -0.52508  -0.52428  -0.52049
 Alpha  occ. eigenvalues --   -0.51853  -0.51665  -0.50733  -0.50391  -0.50128
 Alpha  occ. eigenvalues --   -0.49773  -0.49590  -0.49230  -0.48308  -0.48159
 Alpha  occ. eigenvalues --   -0.47832  -0.47560  -0.47511  -0.47226  -0.47062
 Alpha  occ. eigenvalues --   -0.46851  -0.46656  -0.46476  -0.44979  -0.44474
 Alpha  occ. eigenvalues --   -0.44207  -0.44085  -0.43877  -0.43276  -0.42568
 Alpha  occ. eigenvalues --   -0.41912  -0.41751  -0.41607  -0.41231  -0.41162
 Alpha  occ. eigenvalues --   -0.40403  -0.39901  -0.39852  -0.38736  -0.38684
 Alpha  occ. eigenvalues --   -0.38286  -0.35899  -0.34187  -0.34111  -0.33272
 Alpha  occ. eigenvalues --   -0.32822  -0.32788  -0.32432  -0.31471  -0.29398
 Alpha  occ. eigenvalues --   -0.27180  -0.23346
 Alpha virt. eigenvalues --   -0.09880  -0.07595  -0.04394  -0.02665  -0.01112
 Alpha virt. eigenvalues --   -0.00261  -0.00258   0.00059   0.00494   0.01949
 Alpha virt. eigenvalues --    0.02320   0.02815   0.05534   0.06628   0.06730
 Alpha virt. eigenvalues --    0.07370   0.07894   0.08082   0.08542   0.08645
 Alpha virt. eigenvalues --    0.09392   0.09454   0.09535   0.09685   0.10093
 Alpha virt. eigenvalues --    0.10245   0.11250   0.11487   0.11740   0.11821
 Alpha virt. eigenvalues --    0.12132   0.12945   0.13055   0.13090   0.13362
 Alpha virt. eigenvalues --    0.13622   0.13900   0.14079   0.15083   0.15419
 Alpha virt. eigenvalues --    0.15476   0.15676   0.15890   0.16289   0.16540
 Alpha virt. eigenvalues --    0.17049   0.17281   0.17535   0.17747   0.17799
 Alpha virt. eigenvalues --    0.18104   0.18270   0.18580   0.18979   0.19454
 Alpha virt. eigenvalues --    0.19908   0.20089   0.20389   0.20798   0.21030
 Alpha virt. eigenvalues --    0.21304   0.21376   0.21448   0.21992   0.22295
 Alpha virt. eigenvalues --    0.22449   0.22518   0.22584   0.23078   0.23546
 Alpha virt. eigenvalues --    0.23562   0.23926   0.24293   0.24518   0.24823
 Alpha virt. eigenvalues --    0.24977   0.25267   0.25495   0.26061   0.26461
 Alpha virt. eigenvalues --    0.26582   0.26679   0.26786   0.26850   0.27218
 Alpha virt. eigenvalues --    0.27735   0.27876   0.28039   0.28262   0.28309
 Alpha virt. eigenvalues --    0.28517   0.28654   0.29233   0.29409   0.29502
 Alpha virt. eigenvalues --    0.29735   0.29928   0.30073   0.30532   0.30856
 Alpha virt. eigenvalues --    0.31129   0.31205   0.31462   0.31630   0.31963
 Alpha virt. eigenvalues --    0.32181   0.32491   0.32784   0.33098   0.33226
 Alpha virt. eigenvalues --    0.33345   0.33544   0.33761   0.33825   0.34112
 Alpha virt. eigenvalues --    0.34192   0.34691   0.34739   0.34916   0.35088
 Alpha virt. eigenvalues --    0.35324   0.35437   0.35712   0.35854   0.36113
 Alpha virt. eigenvalues --    0.36487   0.36778   0.37005   0.37256   0.37320
 Alpha virt. eigenvalues --    0.37518   0.37740   0.37902   0.38014   0.38312
 Alpha virt. eigenvalues --    0.38536   0.38698   0.39075   0.39294   0.39447
 Alpha virt. eigenvalues --    0.39542   0.39898   0.40109   0.40213   0.40393
 Alpha virt. eigenvalues --    0.40522   0.41057   0.41108   0.41214   0.41462
 Alpha virt. eigenvalues --    0.41699   0.42075   0.42275   0.42505   0.42716
 Alpha virt. eigenvalues --    0.42732   0.42836   0.43106   0.43215   0.43465
 Alpha virt. eigenvalues --    0.43634   0.43678   0.44259   0.44341   0.44630
 Alpha virt. eigenvalues --    0.44762   0.45216   0.45434   0.45648   0.46034
 Alpha virt. eigenvalues --    0.46218   0.46510   0.47108   0.47244   0.47448
 Alpha virt. eigenvalues --    0.47511   0.47565   0.48170   0.48219   0.48422
 Alpha virt. eigenvalues --    0.48759   0.48865   0.49132   0.49450   0.49769
 Alpha virt. eigenvalues --    0.50110   0.50422   0.50651   0.50679   0.50976
 Alpha virt. eigenvalues --    0.51203   0.51308   0.51599   0.51814   0.51969
 Alpha virt. eigenvalues --    0.52219   0.52644   0.52710   0.52891   0.52961
 Alpha virt. eigenvalues --    0.53130   0.53317   0.53656   0.54081   0.54482
 Alpha virt. eigenvalues --    0.54668   0.55042   0.55371   0.55839   0.55978
 Alpha virt. eigenvalues --    0.56245   0.56422   0.56573   0.56769   0.56985
 Alpha virt. eigenvalues --    0.57018   0.57269   0.57610   0.57831   0.58159
 Alpha virt. eigenvalues --    0.58397   0.58714   0.58961   0.59676   0.59969
 Alpha virt. eigenvalues --    0.60368   0.60907   0.61224   0.61578   0.61791
 Alpha virt. eigenvalues --    0.62277   0.62355   0.62641   0.62788   0.63371
 Alpha virt. eigenvalues --    0.63548   0.63858   0.63967   0.64192   0.64562
 Alpha virt. eigenvalues --    0.64994   0.65235   0.65499   0.65646   0.65748
 Alpha virt. eigenvalues --    0.66192   0.66564   0.66839   0.67119   0.67234
 Alpha virt. eigenvalues --    0.67592   0.67684   0.67799   0.68211   0.68537
 Alpha virt. eigenvalues --    0.68722   0.69017   0.69259   0.69396   0.69577
 Alpha virt. eigenvalues --    0.69729   0.69923   0.70111   0.70193   0.70426
 Alpha virt. eigenvalues --    0.70779   0.71087   0.71558   0.71764   0.71917
 Alpha virt. eigenvalues --    0.72329   0.72778   0.72789   0.73019   0.73121
 Alpha virt. eigenvalues --    0.73580   0.73962   0.74273   0.74331   0.74875
 Alpha virt. eigenvalues --    0.75096   0.75404   0.75448   0.75708   0.76245
 Alpha virt. eigenvalues --    0.76304   0.76631   0.76817   0.77073   0.77231
 Alpha virt. eigenvalues --    0.77471   0.77737   0.78083   0.78146   0.78965
 Alpha virt. eigenvalues --    0.79163   0.79305   0.79732   0.79829   0.80491
 Alpha virt. eigenvalues --    0.80512   0.80908   0.81192   0.81627   0.82320
 Alpha virt. eigenvalues --    0.82427   0.82663   0.82848   0.82951   0.83333
 Alpha virt. eigenvalues --    0.83838   0.84051   0.85152   0.85305   0.85904
 Alpha virt. eigenvalues --    0.85968   0.86006   0.86400   0.86607   0.86958
 Alpha virt. eigenvalues --    0.87138   0.87246   0.87967   0.88130   0.88306
 Alpha virt. eigenvalues --    0.88692   0.88846   0.89272   0.89311   0.89674
 Alpha virt. eigenvalues --    0.90018   0.90143   0.90753   0.91019   0.91076
 Alpha virt. eigenvalues --    0.91223   0.91848   0.92085   0.92493   0.93024
 Alpha virt. eigenvalues --    0.93880   0.94181   0.94731   0.95099   0.95402
 Alpha virt. eigenvalues --    0.95705   0.96023   0.96168   0.96317   0.96936
 Alpha virt. eigenvalues --    0.97193   0.97441   0.97596   0.97660   0.97882
 Alpha virt. eigenvalues --    0.98720   0.99154   0.99380   0.99677   1.00063
 Alpha virt. eigenvalues --    1.00093   1.00391   1.00467   1.00645   1.00992
 Alpha virt. eigenvalues --    1.01214   1.01483   1.01805   1.02033   1.02169
 Alpha virt. eigenvalues --    1.02706   1.02871   1.03082   1.03654   1.03738
 Alpha virt. eigenvalues --    1.03915   1.04579   1.04721   1.04921   1.05077
 Alpha virt. eigenvalues --    1.05137   1.05698   1.05771   1.06276   1.06636
 Alpha virt. eigenvalues --    1.07314   1.07407   1.07803   1.08267   1.08683
 Alpha virt. eigenvalues --    1.09062   1.09253   1.09644   1.10062   1.10568
 Alpha virt. eigenvalues --    1.11374   1.11494   1.11850   1.12181   1.12384
 Alpha virt. eigenvalues --    1.12734   1.12969   1.13081   1.13563   1.13728
 Alpha virt. eigenvalues --    1.14217   1.14485   1.14788   1.15035   1.15358
 Alpha virt. eigenvalues --    1.15522   1.16148   1.16341   1.16955   1.17507
 Alpha virt. eigenvalues --    1.17774   1.17984   1.18539   1.18779   1.19002
 Alpha virt. eigenvalues --    1.19502   1.19966   1.20250   1.20910   1.21229
 Alpha virt. eigenvalues --    1.21499   1.21853   1.22316   1.22500   1.23092
 Alpha virt. eigenvalues --    1.23526   1.23843   1.23961   1.24316   1.24416
 Alpha virt. eigenvalues --    1.25046   1.25378   1.25752   1.25962   1.26147
 Alpha virt. eigenvalues --    1.26458   1.26822   1.26981   1.27217   1.27356
 Alpha virt. eigenvalues --    1.27739   1.27984   1.28395   1.29179   1.29358
 Alpha virt. eigenvalues --    1.29443   1.30061   1.30213   1.30244   1.30923
 Alpha virt. eigenvalues --    1.31249   1.31619   1.31950   1.32123   1.32424
 Alpha virt. eigenvalues --    1.32682   1.33117   1.33553   1.33896   1.34337
 Alpha virt. eigenvalues --    1.34809   1.35243   1.35431   1.35620   1.35996
 Alpha virt. eigenvalues --    1.36230   1.36475   1.36625   1.36753   1.37010
 Alpha virt. eigenvalues --    1.37498   1.37784   1.38396   1.38604   1.39282
 Alpha virt. eigenvalues --    1.39581   1.39718   1.39851   1.40308   1.41150
 Alpha virt. eigenvalues --    1.41584   1.42120   1.42643   1.42887   1.43313
 Alpha virt. eigenvalues --    1.43929   1.44133   1.44419   1.44705   1.44884
 Alpha virt. eigenvalues --    1.45147   1.45397   1.45443   1.45668   1.45907
 Alpha virt. eigenvalues --    1.46285   1.46446   1.47225   1.47515   1.47722
 Alpha virt. eigenvalues --    1.48465   1.48663   1.49134   1.49688   1.49737
 Alpha virt. eigenvalues --    1.50108   1.50407   1.50635   1.51163   1.51351
 Alpha virt. eigenvalues --    1.51668   1.52002   1.52177   1.52322   1.52406
 Alpha virt. eigenvalues --    1.52732   1.52911   1.53170   1.53372   1.53602
 Alpha virt. eigenvalues --    1.53944   1.54262   1.54390   1.54806   1.54992
 Alpha virt. eigenvalues --    1.55543   1.55918   1.56076   1.56470   1.57013
 Alpha virt. eigenvalues --    1.57366   1.57475   1.57656   1.57918   1.58361
 Alpha virt. eigenvalues --    1.58552   1.58889   1.59121   1.59667   1.59876
 Alpha virt. eigenvalues --    1.60476   1.60618   1.60975   1.61470   1.61696
 Alpha virt. eigenvalues --    1.62346   1.62817   1.62930   1.63008   1.63415
 Alpha virt. eigenvalues --    1.64266   1.65430   1.65579   1.65810   1.65937
 Alpha virt. eigenvalues --    1.66267   1.66391   1.66921   1.67180   1.67392
 Alpha virt. eigenvalues --    1.67763   1.68060   1.68530   1.68602   1.69006
 Alpha virt. eigenvalues --    1.69035   1.69503   1.69945   1.70125   1.70378
 Alpha virt. eigenvalues --    1.70990   1.71337   1.71396   1.71742   1.71954
 Alpha virt. eigenvalues --    1.72260   1.73186   1.74009   1.74941   1.75085
 Alpha virt. eigenvalues --    1.75476   1.76136   1.76475   1.76994   1.77179
 Alpha virt. eigenvalues --    1.77336   1.77581   1.77960   1.78523   1.78852
 Alpha virt. eigenvalues --    1.78992   1.79649   1.79960   1.80551   1.81004
 Alpha virt. eigenvalues --    1.81382   1.81575   1.82097   1.82522   1.82963
 Alpha virt. eigenvalues --    1.83757   1.84096   1.84296   1.84718   1.85694
 Alpha virt. eigenvalues --    1.86049   1.86132   1.87015   1.87257   1.87677
 Alpha virt. eigenvalues --    1.87854   1.88468   1.88722   1.89444   1.89674
 Alpha virt. eigenvalues --    1.89946   1.90806   1.91464   1.91931   1.92335
 Alpha virt. eigenvalues --    1.92436   1.93537   1.93824   1.94390   1.95860
 Alpha virt. eigenvalues --    1.96139   1.96631   1.96829   1.96985   1.97064
 Alpha virt. eigenvalues --    1.97364   1.97393   1.98260   1.98999   1.99286
 Alpha virt. eigenvalues --    1.99430   1.99721   2.00299   2.00524   2.01130
 Alpha virt. eigenvalues --    2.01751   2.02135   2.02319   2.03065   2.03919
 Alpha virt. eigenvalues --    2.04217   2.04309   2.04695   2.04991   2.05131
 Alpha virt. eigenvalues --    2.05324   2.05461   2.05685   2.06633   2.06889
 Alpha virt. eigenvalues --    2.06983   2.07756   2.08284   2.08468   2.08941
 Alpha virt. eigenvalues --    2.09568   2.09792   2.10434   2.10706   2.11090
 Alpha virt. eigenvalues --    2.11468   2.11938   2.12405   2.12482   2.12688
 Alpha virt. eigenvalues --    2.13691   2.13890   2.14876   2.15611   2.15780
 Alpha virt. eigenvalues --    2.16525   2.17206   2.17774   2.17850   2.18517
 Alpha virt. eigenvalues --    2.18925   2.19630   2.19928   2.20773   2.21180
 Alpha virt. eigenvalues --    2.22441   2.23088   2.23436   2.23647   2.24116
 Alpha virt. eigenvalues --    2.24976   2.25828   2.26254   2.26666   2.26743
 Alpha virt. eigenvalues --    2.26843   2.27308   2.28199   2.28623   2.28918
 Alpha virt. eigenvalues --    2.30161   2.30375   2.31113   2.31669   2.31781
 Alpha virt. eigenvalues --    2.31925   2.32198   2.33543   2.34372   2.34488
 Alpha virt. eigenvalues --    2.34831   2.35014   2.35104   2.35960   2.36127
 Alpha virt. eigenvalues --    2.36588   2.37198   2.37801   2.37886   2.37944
 Alpha virt. eigenvalues --    2.38593   2.38830   2.39236   2.39666   2.39850
 Alpha virt. eigenvalues --    2.40136   2.40868   2.42254   2.42471   2.42875
 Alpha virt. eigenvalues --    2.43436   2.44021   2.44302   2.45133   2.46479
 Alpha virt. eigenvalues --    2.47108   2.47999   2.48142   2.49605   2.49725
 Alpha virt. eigenvalues --    2.51222   2.52282   2.52643   2.53213   2.54021
 Alpha virt. eigenvalues --    2.54434   2.54994   2.55077   2.55296   2.55742
 Alpha virt. eigenvalues --    2.56532   2.57550   2.58316   2.58926   2.59451
 Alpha virt. eigenvalues --    2.59652   2.60343   2.61565   2.61943   2.62495
 Alpha virt. eigenvalues --    2.62871   2.63217   2.63931   2.64716   2.64762
 Alpha virt. eigenvalues --    2.65284   2.65576   2.66516   2.66834   2.67249
 Alpha virt. eigenvalues --    2.67505   2.67941   2.68741   2.68911   2.69885
 Alpha virt. eigenvalues --    2.70727   2.70796   2.71109   2.71932   2.72433
 Alpha virt. eigenvalues --    2.72487   2.72773   2.73480   2.73745   2.73994
 Alpha virt. eigenvalues --    2.74359   2.74669   2.74834   2.75034   2.75154
 Alpha virt. eigenvalues --    2.75906   2.76536   2.76734   2.76865   2.77061
 Alpha virt. eigenvalues --    2.77304   2.77410   2.77887   2.78218   2.78390
 Alpha virt. eigenvalues --    2.78520   2.78633   2.79206   2.79385   2.79539
 Alpha virt. eigenvalues --    2.80143   2.80274   2.80548   2.80807   2.81060
 Alpha virt. eigenvalues --    2.81517   2.81585   2.81952   2.82365   2.82463
 Alpha virt. eigenvalues --    2.83041   2.83479   2.83734   2.84374   2.84554
 Alpha virt. eigenvalues --    2.84680   2.85540   2.85842   2.86161   2.86506
 Alpha virt. eigenvalues --    2.86708   2.87071   2.87230   2.87386   2.87730
 Alpha virt. eigenvalues --    2.88538   2.88936   2.89060   2.89278   2.89908
 Alpha virt. eigenvalues --    2.90557   2.90663   2.90756   2.90853   2.91102
 Alpha virt. eigenvalues --    2.91555   2.91786   2.91878   2.92080   2.92383
 Alpha virt. eigenvalues --    2.92627   2.92769   2.93538   2.94159   2.94338
 Alpha virt. eigenvalues --    2.94648   2.94932   2.95043   2.95256   2.95688
 Alpha virt. eigenvalues --    2.95867   2.96313   2.96812   2.97342   2.97394
 Alpha virt. eigenvalues --    2.97821   2.98130   2.98729   2.99034   2.99111
 Alpha virt. eigenvalues --    2.99581   3.00211   3.00752   3.00891   3.01212
 Alpha virt. eigenvalues --    3.01355   3.01856   3.01997   3.02334   3.02491
 Alpha virt. eigenvalues --    3.02680   3.02864   3.03041   3.03450   3.03510
 Alpha virt. eigenvalues --    3.03707   3.03913   3.04048   3.04411   3.04787
 Alpha virt. eigenvalues --    3.04874   3.05314   3.05482   3.05921   3.06068
 Alpha virt. eigenvalues --    3.06576   3.07783   3.07955   3.07969   3.08148
 Alpha virt. eigenvalues --    3.08289   3.08749   3.09200   3.09264   3.09592
 Alpha virt. eigenvalues --    3.09674   3.09931   3.10103   3.10161   3.10316
 Alpha virt. eigenvalues --    3.10614   3.11121   3.11403   3.12073   3.12487
 Alpha virt. eigenvalues --    3.12688   3.13106   3.13569   3.14002   3.14265
 Alpha virt. eigenvalues --    3.14469   3.14945   3.15116   3.15534   3.15740
 Alpha virt. eigenvalues --    3.16035   3.16168   3.16799   3.16946   3.17031
 Alpha virt. eigenvalues --    3.17679   3.17993   3.18301   3.18370   3.18414
 Alpha virt. eigenvalues --    3.18872   3.19680   3.19853   3.20158   3.20296
 Alpha virt. eigenvalues --    3.20465   3.20692   3.21257   3.21609   3.21716
 Alpha virt. eigenvalues --    3.22489   3.22700   3.22900   3.23026   3.23279
 Alpha virt. eigenvalues --    3.23756   3.24062   3.24618   3.25158   3.25351
 Alpha virt. eigenvalues --    3.25522   3.25812   3.26087   3.26603   3.26756
 Alpha virt. eigenvalues --    3.27197   3.27663   3.28190   3.28521   3.29079
 Alpha virt. eigenvalues --    3.29108   3.29529   3.29735   3.30060   3.30297
 Alpha virt. eigenvalues --    3.30311   3.30543   3.30595   3.31026   3.31338
 Alpha virt. eigenvalues --    3.31576   3.31885   3.32219   3.32401   3.32603
 Alpha virt. eigenvalues --    3.32857   3.33175   3.33405   3.33746   3.34163
 Alpha virt. eigenvalues --    3.34310   3.35129   3.35265   3.35456   3.35742
 Alpha virt. eigenvalues --    3.35808   3.36221   3.37178   3.37486   3.37630
 Alpha virt. eigenvalues --    3.37839   3.38155   3.38262   3.38548   3.39023
 Alpha virt. eigenvalues --    3.39378   3.40297   3.40500   3.40718   3.40891
 Alpha virt. eigenvalues --    3.41750   3.42034   3.42230   3.42347   3.42623
 Alpha virt. eigenvalues --    3.42920   3.43293   3.43577   3.43812   3.44042
 Alpha virt. eigenvalues --    3.44759   3.45647   3.46074   3.46646   3.47550
 Alpha virt. eigenvalues --    3.47714   3.47871   3.48005   3.48179   3.48691
 Alpha virt. eigenvalues --    3.48897   3.49112   3.49521   3.49899   3.50134
 Alpha virt. eigenvalues --    3.50412   3.50843   3.51030   3.51380   3.51702
 Alpha virt. eigenvalues --    3.51951   3.52169   3.52338   3.52446   3.52699
 Alpha virt. eigenvalues --    3.52843   3.53304   3.53481   3.53719   3.54249
 Alpha virt. eigenvalues --    3.54296   3.54644   3.54935   3.56064   3.56164
 Alpha virt. eigenvalues --    3.56343   3.56919   3.57567   3.57991   3.58220
 Alpha virt. eigenvalues --    3.58397   3.58582   3.58909   3.59217   3.59913
 Alpha virt. eigenvalues --    3.60127   3.60715   3.60770   3.61299   3.61594
 Alpha virt. eigenvalues --    3.62068   3.62416   3.62662   3.62987   3.63410
 Alpha virt. eigenvalues --    3.63874   3.64010   3.64367   3.64868   3.65084
 Alpha virt. eigenvalues --    3.65158   3.65445   3.66105   3.66355   3.66686
 Alpha virt. eigenvalues --    3.67099   3.67327   3.68079   3.68562   3.68920
 Alpha virt. eigenvalues --    3.69851   3.70247   3.70701   3.70718   3.70906
 Alpha virt. eigenvalues --    3.71141   3.71627   3.71927   3.72435   3.72770
 Alpha virt. eigenvalues --    3.72905   3.73288   3.73929   3.74018   3.74301
 Alpha virt. eigenvalues --    3.74828   3.75172   3.75371   3.75770   3.76695
 Alpha virt. eigenvalues --    3.76763   3.77071   3.77214   3.77254   3.77451
 Alpha virt. eigenvalues --    3.77993   3.78478   3.78632   3.79011   3.79665
 Alpha virt. eigenvalues --    3.79745   3.80343   3.80951   3.81350   3.81532
 Alpha virt. eigenvalues --    3.82030   3.83267   3.83688   3.83736   3.84383
 Alpha virt. eigenvalues --    3.84523   3.84694   3.85205   3.85446   3.85792
 Alpha virt. eigenvalues --    3.85899   3.86177   3.86817   3.87407   3.87968
 Alpha virt. eigenvalues --    3.88158   3.88482   3.88781   3.89237   3.89320
 Alpha virt. eigenvalues --    3.89736   3.90314   3.90670   3.90703   3.90912
 Alpha virt. eigenvalues --    3.91234   3.91708   3.91859   3.92216   3.92330
 Alpha virt. eigenvalues --    3.92963   3.93323   3.93365   3.93823   3.94518
 Alpha virt. eigenvalues --    3.94585   3.95003   3.95149   3.95652   3.96405
 Alpha virt. eigenvalues --    3.97034   3.97308   3.97705   3.97891   3.98107
 Alpha virt. eigenvalues --    3.98858   3.99168   3.99578   4.00599   4.00909
 Alpha virt. eigenvalues --    4.01188   4.01319   4.01482   4.01723   4.02202
 Alpha virt. eigenvalues --    4.02601   4.02690   4.02780   4.03149   4.03223
 Alpha virt. eigenvalues --    4.03694   4.03796   4.03853   4.04451   4.04652
 Alpha virt. eigenvalues --    4.05041   4.05550   4.05845   4.06404   4.06459
 Alpha virt. eigenvalues --    4.06989   4.07262   4.07713   4.07997   4.08618
 Alpha virt. eigenvalues --    4.09323   4.09696   4.09952   4.10159   4.10442
 Alpha virt. eigenvalues --    4.10669   4.10919   4.11432   4.11903   4.12143
 Alpha virt. eigenvalues --    4.12994   4.13525   4.13660   4.14284   4.14741
 Alpha virt. eigenvalues --    4.14882   4.14932   4.15239   4.15446   4.15701
 Alpha virt. eigenvalues --    4.16177   4.16438   4.16776   4.17606   4.17882
 Alpha virt. eigenvalues --    4.17991   4.18643   4.19159   4.19548   4.19675
 Alpha virt. eigenvalues --    4.19993   4.20130   4.20563   4.20691   4.20963
 Alpha virt. eigenvalues --    4.21182   4.21221   4.21781   4.22369   4.22521
 Alpha virt. eigenvalues --    4.22646   4.23171   4.23480   4.23643   4.23804
 Alpha virt. eigenvalues --    4.24066   4.24254   4.24526   4.24721   4.25510
 Alpha virt. eigenvalues --    4.25790   4.26104   4.26293   4.26533   4.27539
 Alpha virt. eigenvalues --    4.28062   4.28198   4.28489   4.28904   4.29537
 Alpha virt. eigenvalues --    4.30215   4.30276   4.30562   4.31242   4.31771
 Alpha virt. eigenvalues --    4.32088   4.32194   4.32563   4.33159   4.33909
 Alpha virt. eigenvalues --    4.34423   4.34556   4.35535   4.36664   4.37522
 Alpha virt. eigenvalues --    4.37745   4.38098   4.38113   4.38409   4.38602
 Alpha virt. eigenvalues --    4.38751   4.39030   4.41364   4.41662   4.41947
 Alpha virt. eigenvalues --    4.42121   4.42268   4.42536   4.42873   4.43544
 Alpha virt. eigenvalues --    4.44977   4.46858   4.47218   4.47562   4.48401
 Alpha virt. eigenvalues --    4.48868   4.48955   4.49127   4.49406   4.49779
 Alpha virt. eigenvalues --    4.49882   4.50055   4.50520   4.50621   4.51553
 Alpha virt. eigenvalues --    4.52088   4.52402   4.52745   4.53671   4.54033
 Alpha virt. eigenvalues --    4.54574   4.54832   4.55408   4.56817   4.57954
 Alpha virt. eigenvalues --    4.58334   4.58526   4.58758   4.58884   4.59794
 Alpha virt. eigenvalues --    4.60375   4.61144   4.61526   4.62069   4.62644
 Alpha virt. eigenvalues --    4.62950   4.63306   4.63706   4.64316   4.64729
 Alpha virt. eigenvalues --    4.65642   4.65837   4.66218   4.67164   4.67510
 Alpha virt. eigenvalues --    4.67889   4.68015   4.68429   4.68812   4.68875
 Alpha virt. eigenvalues --    4.69264   4.69497   4.70537   4.71360   4.71781
 Alpha virt. eigenvalues --    4.72157   4.72658   4.72711   4.72854   4.73340
 Alpha virt. eigenvalues --    4.73484   4.74732   4.75251   4.75508   4.76806
 Alpha virt. eigenvalues --    4.77082   4.77821   4.78279   4.78866   4.79590
 Alpha virt. eigenvalues --    4.79701   4.79795   4.80537   4.81429   4.81804
 Alpha virt. eigenvalues --    4.82313   4.82595   4.83887   4.85130   4.85833
 Alpha virt. eigenvalues --    4.86237   4.86536   4.87174   4.87515   4.87756
 Alpha virt. eigenvalues --    4.88714   4.89434   4.90789   4.90851   4.91126
 Alpha virt. eigenvalues --    4.91656   4.92360   4.92526   4.92829   4.93169
 Alpha virt. eigenvalues --    4.93412   4.93454   4.93719   4.95014   4.95264
 Alpha virt. eigenvalues --    4.95424   4.95625   4.95983   4.96223   4.96487
 Alpha virt. eigenvalues --    4.96562   4.97508   4.97801   4.98413   4.99099
 Alpha virt. eigenvalues --    4.99494   5.01122   5.01593   5.03198   5.03535
 Alpha virt. eigenvalues --    5.03705   5.04514   5.04854   5.05592   5.05913
 Alpha virt. eigenvalues --    5.06605   5.06807   5.08083   5.08294   5.08765
 Alpha virt. eigenvalues --    5.09515   5.09604   5.10576   5.10637   5.11061
 Alpha virt. eigenvalues --    5.11692   5.11869   5.11993   5.12751   5.13475
 Alpha virt. eigenvalues --    5.13977   5.14647   5.15074   5.15677   5.16298
 Alpha virt. eigenvalues --    5.16826   5.17650   5.18343   5.18610   5.19005
 Alpha virt. eigenvalues --    5.20589   5.20866   5.21344   5.21879   5.22797
 Alpha virt. eigenvalues --    5.23622   5.23976   5.24631   5.25322   5.25808
 Alpha virt. eigenvalues --    5.26573   5.28017   5.28124   5.28442   5.28518
 Alpha virt. eigenvalues --    5.28711   5.29108   5.29351   5.30013   5.30069
 Alpha virt. eigenvalues --    5.30987   5.31962   5.33176   5.34027   5.34461
 Alpha virt. eigenvalues --    5.34897   5.35097   5.35538   5.35846   5.37421
 Alpha virt. eigenvalues --    5.37988   5.38351   5.38876   5.40038   5.40155
 Alpha virt. eigenvalues --    5.40474   5.41123   5.41835   5.42357   5.43494
 Alpha virt. eigenvalues --    5.43806   5.45041   5.45429   5.49752   5.50881
 Alpha virt. eigenvalues --    5.51530   5.51750   5.52801   5.53607   5.54515
 Alpha virt. eigenvalues --    5.55264   5.56273   5.56758   5.57262   5.57608
 Alpha virt. eigenvalues --    5.57789   5.58134   5.58796   5.59634   5.60301
 Alpha virt. eigenvalues --    5.61146   5.61161   5.61194   5.61713   5.62041
 Alpha virt. eigenvalues --    5.63163   5.63676   5.63951   5.64953   5.65677
 Alpha virt. eigenvalues --    5.67183   5.67419   5.69190   5.70424   5.71742
 Alpha virt. eigenvalues --    5.72200   5.74616   5.75580   5.77033   5.77306
 Alpha virt. eigenvalues --    5.78789   5.79469   5.82297   5.83736   5.83827
 Alpha virt. eigenvalues --    5.85369   5.87919   5.91644   5.92239   5.93133
 Alpha virt. eigenvalues --    5.93476   5.94180   5.96782   5.97256   6.02411
 Alpha virt. eigenvalues --    6.04651   6.05528   6.10211   6.12369   6.14724
 Alpha virt. eigenvalues --    6.15559   6.19284   6.22259   6.25266   6.28084
 Alpha virt. eigenvalues --    6.36153   6.36841   6.38420   6.38977   6.40835
 Alpha virt. eigenvalues --    6.43149   6.58306   6.58447   6.58607   6.58645
 Alpha virt. eigenvalues --    6.75460   6.76764   6.76791   6.80758   6.83098
 Alpha virt. eigenvalues --    6.84877   6.85023   6.87407   6.94214   6.94568
 Alpha virt. eigenvalues --    6.97202   6.98775   6.99008   6.99909   7.04873
 Alpha virt. eigenvalues --    7.08426   7.10716   7.16960   7.20699   7.23040
 Alpha virt. eigenvalues --    7.23696   7.27383   7.32960   7.33468   7.33622
 Alpha virt. eigenvalues --    7.34005   7.34432   7.45349   7.50870   8.46105
 Alpha virt. eigenvalues --    8.46861   8.55921   8.57834   8.82436   8.85836
 Alpha virt. eigenvalues --    8.90933   8.91433   8.92247   8.99667  15.85780
 Alpha virt. eigenvalues --   22.86054  22.87612  22.96357  22.98592  23.02676
 Alpha virt. eigenvalues --   23.11193  23.11448  23.14014  23.16412  23.17375
 Alpha virt. eigenvalues --   23.19493  23.23062  23.24307  23.28868  23.29762
 Alpha virt. eigenvalues --   23.29894  23.31298  23.34128  23.34775  23.35213
 Alpha virt. eigenvalues --   23.36774  23.39320  23.47139  23.53824  23.54524
 Alpha virt. eigenvalues --   23.61118  23.73096  23.78174  23.86713  23.88764
 Alpha virt. eigenvalues --   24.08463  24.08955  24.19186  31.89691  31.89757
 Alpha virt. eigenvalues --   32.55986  32.56311  32.59559  33.13560  33.29362
 Alpha virt. eigenvalues --   33.38263  33.38414  44.20384  44.25096  57.35053
 Alpha virt. eigenvalues --   57.54185
          Condensed to atoms (all electrons):
 Mulliken charges:
               1
     1  C   -0.433845
     2  C   -0.023666
     3  C   -0.091098
     4  C    0.019217
     5  C   -0.124925
     6  C   -0.054007
     7  C   -0.007927
     8  C   -0.185177
     9  C   -0.149075
    10  C    0.186867
    11  N   -0.380199
    12  N    0.425837
    13  N   -0.174269
    14  C   -0.170384
    15  C   -0.124367
    16  N   -0.105480
    17  C    0.105069
    18  C    0.157097
    19  C   -0.257887
    20  C   -0.156599
    21  C   -0.046507
    22  C   -0.028629
    23  N    0.493388
    24  O   -0.366916
    25  O   -0.366874
    26  C   -0.037281
    27  C   -0.185252
    28  C    0.100810
    29  C   -0.022630
    30  C   -0.434554
    31  C   -0.089353
    32  C    0.018025
    33  C   -0.121789
    34  C   -0.056134
    35  C   -0.008185
    36  C   -0.147359
    37  C   -0.168450
    38  C    0.180334
    39  N   -0.381922
    40  N    0.427193
    41  N   -0.173865
    42  C   -0.157178
    43  C   -0.153538
    44  N   -0.103719
    45  B    0.345538
    46  F   -0.334270
    47  F   -0.366517
    48  H    0.164040
    49  H    0.158856
    50  H    0.133663
    51  H    0.167081
    52  H    0.139958
    53  H    0.114407
    54  H    0.154296
    55  H    0.143852
    56  H    0.162420
    57  H    0.145910
    58  H    0.178039
    59  H    0.198009
    60  H    0.198572
    61  H    0.183801
    62  H    0.162675
    63  H    0.133551
    64  H    0.160601
    65  H    0.166704
    66  H    0.140381
    67  H    0.113284
    68  H    0.151694
    69  H    0.162516
    70  H    0.148715
    71  H    0.147427
 Sum of Mulliken charges =  -0.00000
 Mulliken charges with hydrogens summed into heavy atoms:
               1
     1  C    0.022714
     2  C   -0.023666
     3  C    0.075983
     4  C    0.019217
     5  C    0.015034
     6  C    0.060400
     7  C   -0.007927
     8  C   -0.030882
     9  C   -0.005224
    10  C    0.186867
    11  N   -0.380199
    12  N    0.425837
    13  N   -0.174269
    14  C   -0.007964
    15  C    0.021543
    16  N   -0.105480
    17  C    0.105069
    18  C    0.157097
    19  C   -0.257887
    20  C    0.021440
    21  C    0.151502
    22  C   -0.028629
    23  N    0.493388
    24  O   -0.366916
    25  O   -0.366874
    26  C    0.161291
    27  C   -0.001451
    28  C    0.100810
    29  C   -0.022630
    30  C    0.022273
    31  C    0.077352
    32  C    0.018025
    33  C    0.018592
    34  C    0.057150
    35  C   -0.008185
    36  C    0.004335
    37  C   -0.005934
    38  C    0.180334
    39  N   -0.381922
    40  N    0.427193
    41  N   -0.173865
    42  C   -0.008464
    43  C   -0.006110
    44  N   -0.103719
    45  B    0.345538
    46  F   -0.334270
    47  F   -0.366517
 Electronic spatial extent (au):  <R**2>=          45946.4571
 Charge=             -0.0000 electrons
 Dipole moment (field-independent basis, Debye):
    X=             -1.0311    Y=             -0.4650    Z=             -1.1235  Tot=              1.5943
 Quadrupole moment (field-independent basis, Debye-Ang):
   XX=           -340.3671   YY=           -228.1808   ZZ=           -276.0961
   XY=             -7.0626   XZ=              0.3440   YZ=              0.3475
 Traceless Quadrupole moment (field-independent basis, Debye-Ang):
   XX=            -58.8191   YY=             53.3672   ZZ=              5.4519
   XY=             -7.0626   XZ=              0.3440   YZ=              0.3475
 Octapole moment (field-independent basis, Debye-Ang**2):
  XXX=            660.1967  YYY=            -17.5106  ZZZ=             -1.3393  XYY=           -146.3322
  XXY=             73.8766  XXZ=             -4.1736  XZZ=            -50.0878  YZZ=             -6.0900
  YYZ=             17.1561  XYZ=             -0.7524
 Hexadecapole moment (field-independent basis, Debye-Ang**3):
 XXXX=         -49540.9825 YYYY=         -23462.7117 ZZZZ=           -708.4244 XXXY=           -450.9358
 XXXZ=             56.0260 YYYX=             86.6250 YYYZ=             63.4844 ZZZX=             -2.6251
 ZZZY=            -14.9119 XXYY=         -11290.2388 XXZZ=          -6307.3339 YYZZ=          -4470.0756
 XXYZ=             22.4712 YYXZ=             25.1580 ZZXY=              8.6940
 N-N= 5.057936841252D+03 E-N=-1.510236212100D+04  KE= 2.128299787597D+03
 No NMR shielding tensors so no spin-rotation constants.
 Leave Link  601 at Tue Oct 28 19:29:53 2025, MaxMem= 30870077440 cpu:             115.5 elap:               2.1
 (Enter /public/software/gauss/g16/l9999.exe)
 1\1\GINC-CU031\SP\RM062X\def2TZVPP\C33H24B1F2N9O2\BAIDING\28-Oct-2025\
 0\\#p M062X/DEF2TZVPP scrf=(solvent=water) em=GD3\\Energy calculation 
 for BNP_N3_N3\\0,1\C,0,4.467614,2.94457,0.06771\C,0,3.033368,2.511134,
 0.042204\C,0,1.954924,3.378407,0.0481\C,0,0.758098,2.61784,0.031617\C,
 0,-0.606548,3.078942,0.041533\C,0,-0.956655,4.384259,-0.081664\C,0,-2.
 308283,4.926964,-0.061326\C,0,-3.466815,4.136681,0.105139\C,0,-4.73116
 5,4.705841,0.121938\C,0,-4.874951,6.094677,-0.027587\N,0,-6.124684,6.7
 6582,-0.019119\N,0,-7.154724,6.100815,0.148532\N,0,-8.178205,5.618525,
 0.291684\C,0,-3.74269,6.899507,-0.197342\C,0,-2.48176,6.318395,-0.2128
 61\N,0,1.089223,1.293656,0.022648\C,0,2.481573,1.182831,0.024273\C,0,3
 .094277,-0.081767,0.032084\C,0,4.585855,-0.178597,0.024952\C,0,5.27771
 1,-0.264536,-1.192616\C,0,6.66494,-0.360897,-1.211094\C,0,7.348219,-0.
 370217,0.004881\N,0,8.80487,-0.474411,-0.00545\O,0,9.402617,-0.47864,1
 .075631\O,0,9.381971,-0.554583,-1.094772\C,0,6.687908,-0.284364,1.2304
 84\C,0,5.30059,-0.188266,1.232077\C,0,2.326849,-1.25854,0.053339\C,0,2
 .706317,-2.645101,0.113172\C,0,4.073521,-3.256586,0.164789\C,0,1.5269,
 -3.368496,0.134001\C,0,0.435813,-2.463773,0.086754\C,0,-0.975647,-2.75
 1246,0.092973\C,0,-1.481736,-4.007042,0.000599\C,0,-2.890051,-4.378291
 ,0.010549\C,0,-3.944808,-3.445636,0.120465\C,0,-5.267961,-3.858367,0.1
 26335\C,0,-5.580304,-5.222016,0.022144\N,0,-6.961286,-5.546645,0.039\N
 ,0,-7.290676,-6.73621,-0.048935\N,0,-7.734446,-7.784158,-0.121352\C,0,
 -4.553229,-6.168121,-0.089884\C,0,-3.230938,-5.742733,-0.095003\N,0,0.
 931691,-1.192961,0.045107\B,0,0.117143,0.104782,-0.191531\F,0,-0.39743
 3,0.126438,-1.49524\F,0,-0.947604,0.179279,0.723033\H,0,4.984845,2.598
 653,0.967948\H,0,5.027634,2.561784,-0.790766\H,0,4.519358,4.036123,0.0
 47021\H,0,2.012037,4.457596,0.080868\H,0,-1.368575,2.318702,0.166585\H
 ,0,-0.172032,5.126725,-0.212447\H,0,-3.382153,3.061756,0.224618\H,0,-5
 .604293,4.073726,0.250756\H,0,-3.862606,7.971325,-0.313496\H,0,-1.6071
 99,6.94898,-0.343446\H,0,4.72771,-0.256631,-2.127207\H,0,7.208059,-0.4
 27718,-2.144849\H,0,7.248633,-0.293884,2.156123\H,0,4.768383,-0.121793
 ,2.174608\H,0,4.634263,-2.934362,1.047522\H,0,3.98514,-4.34543,0.19944
 3\H,0,4.674534,-2.993154,-0.710732\H,0,1.446433,-4.444791,0.196815\H,0
 ,-1.640184,-1.900318,0.186196\H,0,-0.791792,-4.843011,-0.095036\H,0,-3
 .729588,-2.385497,0.201458\H,0,-6.072541,-3.135643,0.211376\H,0,-4.782
 733,-7.226038,-0.171968\H,0,-2.438361,-6.480431,-0.181955\\Version=ES6
 4L-G16RevA.03\State=1-A\HF=-2139.6887195\RMSD=3.604e-09\Dipole=0.40567
 23,-0.1829273,0.4420186\Quadrupole=-43.7305399,39.677201,4.0533388,5.2
 508767,0.2557399,-0.258384\PG=C01 [X(C33H24B1F2N9O2)]\\@


 IT IS A SIMPLE TASK TO MAKE THINGS COMPLEX,
 BUT A COMPLEX TASK TO MAKE THEM SIMPLE.
 Job cpu time:       0 days 15 hours 24 minutes 28.6 seconds.
 Elapsed time:       0 days  0 hours 14 minutes 43.9 seconds.
 File lengths (MBytes):  RWF=   2170 Int=      0 D2E=      0 Chk=    188 Scr=      1
 Normal termination of Gaussian 16 at Tue Oct 28 19:29:54 2025.
