 Entering Gaussian System, Link 0=g16
 Input=BNP_N3_reduced_sp.gjf
 Output=BNP_N3_reduced_sp.log
 Initial command:
 /public/software/gauss/g16/l1.exe "/public/home/baiding/1028_sp/tmp_BNP_N3_reduced_sp_1538822/Gau-47570.inp" -scrdir="/public/home/baiding/1028_sp/tmp_BNP_N3_reduced_sp_1538822/"
 Entering Link 1 = /public/software/gauss/g16/l1.exe PID=     47571.
  
 Copyright (c) 1988,1990,1992,1993,1995,1998,2003,2009,2016,
            Gaussian, Inc.  All Rights Reserved.
  
 This is part of the Gaussian(R) 16 program.  It is based on
 the Gaussian(R) 09 system (copyright 2009, Gaussian, Inc.),
 the Gaussian(R) 03 system (copyright 2003, Gaussian, Inc.),
 the Gaussian(R) 98 system (copyright 1998, Gaussian, Inc.),
 the Gaussian(R) 94 system (copyright 1995, Gaussian, Inc.),
 the Gaussian 92(TM) system (copyright 1992, Gaussian, Inc.),
 the Gaussian 90(TM) system (copyright 1990, Gaussian, Inc.),
 the Gaussian 88(TM) system (copyright 1988, Gaussian, Inc.),
 the Gaussian 86(TM) system (copyright 1986, Carnegie Mellon
 University), and the Gaussian 82(TM) system (copyright 1983,
 Carnegie Mellon University). Gaussian is a federally registered
 trademark of Gaussian, Inc.
  
 This software contains proprietary and confidential information,
 including trade secrets, belonging to Gaussian, Inc.
  
 This software is provided under written license and may be
 used, copied, transmitted, or stored only in accord with that
 written license.
  
 The following legend is applicable only to US Government
 contracts under FAR:
  
                    RESTRICTED RIGHTS LEGEND
  
 Use, reproduction and disclosure by the US Government is
 subject to restrictions as set forth in subparagraphs (a)
 and (c) of the Commercial Computer Software - Restricted
 Rights clause in FAR 52.227-19.
  
 Gaussian, Inc.
 340 Quinnipiac St., Bldg. 40, Wallingford CT 06492
  
  
 ---------------------------------------------------------------
 Warning -- This program may not be used in any manner that
 competes with the business of Gaussian, Inc. or will provide
 assistance to any competitor of Gaussian, Inc.  The licensee
 of this program is prohibited from giving any competitor of
 Gaussian, Inc. access to this program.  By using this program,
 the user acknowledges that Gaussian, Inc. is engaged in the
 business of creating and licensing software in the field of
 computational chemistry and represents and warrants to the
 licensee that it is not a competitor of Gaussian, Inc. and that
 it will not use this program in any manner prohibited above.
 ---------------------------------------------------------------
  

 Cite this work as:
 Gaussian 16, Revision A.03,
 M. J. Frisch, G. W. Trucks, H. B. Schlegel, G. E. Scuseria, 
 M. A. Robb, J. R. Cheeseman, G. Scalmani, V. Barone, 
 G. A. Petersson, H. Nakatsuji, X. Li, M. Caricato, A. V. Marenich, 
 J. Bloino, B. G. Janesko, R. Gomperts, B. Mennucci, H. P. Hratchian, 
 J. V. Ortiz, A. F. Izmaylov, J. L. Sonnenberg, D. Williams-Young, 
 F. Ding, F. Lipparini, F. Egidi, J. Goings, B. Peng, A. Petrone, 
 T. Henderson, D. Ranasinghe, V. G. Zakrzewski, J. Gao, N. Rega, 
 G. Zheng, W. Liang, M. Hada, M. Ehara, K. Toyota, R. Fukuda, 
 J. Hasegawa, M. Ishida, T. Nakajima, Y. Honda, O. Kitao, H. Nakai, 
 T. Vreven, K. Throssell, J. A. Montgomery, Jr., J. E. Peralta, 
 F. Ogliaro, M. J. Bearpark, J. J. Heyd, E. N. Brothers, K. N. Kudin, 
 V. N. Staroverov, T. A. Keith, R. Kobayashi, J. Normand, 
 K. Raghavachari, A. P. Rendell, J. C. Burant, S. S. Iyengar, 
 J. Tomasi, M. Cossi, J. M. Millam, M. Klene, C. Adamo, R. Cammi, 
 J. W. Ochterski, R. L. Martin, K. Morokuma, O. Farkas, 
 J. B. Foresman, and D. J. Fox, Gaussian, Inc., Wallingford CT, 2016.
 
 ******************************************
 Gaussian 16:  ES64L-G16RevA.03 25-Dec-2016
                28-Oct-2025 
 ******************************************
 %nprocshared=64
 Will use up to   64 processors via shared memory.
 %mem=230GB
 %chk=BNP_N3_reduced_sp.chk
 ----------------------------------------------
 #p M062X/DEF2TZVPP scrf=(solvent=water) em=GD3
 ----------------------------------------------
 1/38=1,172=1/1;
 2/12=2,17=6,18=5,40=1/2;
 3/5=44,7=202,11=2,25=1,30=1,70=2201,72=1,74=-55,124=31/1,2,3;
 4//1;
 5/5=2,38=5,53=1/2;
 6/7=2,8=2,9=2,10=2,28=1/1;
 99/5=1,9=1/99;
 Leave Link    1 at Tue Oct 28 19:29:54 2025, MaxMem= 30870077440 cpu:              12.2 elap:               0.2
 (Enter /public/software/gauss/g16/l101.exe)
 -------------------------------------
 Energy calculation for BNP_N3_reduced
 -------------------------------------
 Symbolic Z-matrix:
 Charge = -1 Multiplicity = 2
 C                     2.92695  -3.69987   0.4212 
 C                     1.74296  -2.80803   0.18873 
 C                     0.43028  -3.27009   0.17432 
 C                    -0.43799  -2.17035   0.02918 
 C                    -1.87708  -2.14665  -0.02841 
 C                    -2.66615  -3.23343   0.17243 
 C                    -4.12132  -3.27489   0.10348 
 C                    -4.78159  -4.49428   0.36394 
 C                    -6.1656   -4.59906   0.31523 
 C                    -6.93684  -3.47475   0.00066 
 N                    -8.34386  -3.66669  -0.02908 
 N                    -9.06951  -2.7048   -0.30646 
 N                    -9.85347  -1.9106   -0.54569 
 C                    -6.30702  -2.24821  -0.26343 
 C                    -4.92377  -2.15566  -0.21183 
 N                     0.32578  -1.03029  -0.06341 
 C                     1.67334  -1.386     0.01191 
 C                     2.68302  -0.38646  -0.02674 
 C                     4.1028   -0.76431  -0.02992 
 C                     4.63699  -1.59366  -1.04437 
 C                     5.97566  -1.93611  -1.06615 
 C                     6.82869  -1.47619  -0.04035 
 N                     8.18967  -1.83223  -0.04417 
 O                     8.64078  -2.58097  -0.96939 
 O                     8.95304  -1.40056   0.87823 
 C                     6.31746  -0.65787   0.98946 
 C                     4.98219  -0.30127   0.97744 
 C                     2.31742   0.98662  -0.07482 
 C                     3.09455   2.16723  -0.32112 
 C                     4.55506   2.31591  -0.63124 
 C                     2.20084   3.2333   -0.31503 
 C                     0.89887   2.73567  -0.10542 
 C                    -0.34808   3.4585   -0.04689 
 C                    -0.43622   4.81195  -0.00778 
 C                    -1.65988   5.60904   0.0364 
 C                    -1.54601   7.0143    0.08001 
 C                    -2.67454   7.83073   0.12266 
 C                    -3.9507    7.26314   0.12369 
 C                    -4.0834    5.87037   0.08158 
 C                    -2.95791   5.05315   0.03836 
 N                     0.98055   1.37037   0.02229 
 B                    -0.20596   0.39894   0.19105 
 F                    -1.2203    0.71238  -0.73922 
 F                    -0.74915   0.49235   1.48601 
 H                     3.48352  -3.91886  -0.49588 
 H                     3.63744  -3.26019   1.12684 
 H                     2.58398  -4.65349   0.83318 
 H                     0.12641  -4.30432   0.26551 
 H                    -2.32703  -1.18798  -0.26151 
 H                    -2.19516  -4.18473   0.41319 
 H                    -4.19117  -5.37259   0.60896 
 H                    -6.65849  -5.54405   0.51814 
 H                    -6.89596  -1.36968  -0.50929 
 H                    -4.46147  -1.19675  -0.42175 
 H                     3.98674  -1.94033  -1.84079 
 H                     6.38007  -2.54392  -1.86512 
 H                     6.97479  -0.32586   1.78265 
 H                     4.59098   0.32257   1.77456 
 H                     4.90548   1.55054  -1.32954 
 H                     4.73035   3.29608  -1.08437 
 H                     5.18839   2.24666   0.25933 
 H                     2.45618   4.26961  -0.49071 
 H                    -1.25019   2.85763  -0.04218 
 H                     0.4835    5.39421  -0.00503 
 H                    -0.55533   7.46131   0.07956 
 H                    -2.55736   8.91006   0.15505 
 H                    -4.83258   7.89573   0.15649 
 H                    -5.0719    5.42006   0.08209 
 H                    -3.08873   3.97626   0.00594 
 
 ITRead=  0  0  0  0  0  0  0  0  0  0  0  0  0  0  0  0  0  0  0  0
 ITRead=  0  0  0  0  0  0  0  0  0  0  0  0  0  0  0  0  0  0  0  0
 ITRead=  0  0  0  0  0  0  0  0  0  0  0  0  0  0  0  0  0  0  0  0
 ITRead=  0  0  0  0  0  0  0  0  0
 MicOpt= -1 -1 -1 -1 -1 -1 -1 -1 -1 -1 -1 -1 -1 -1 -1 -1 -1 -1 -1 -1
 MicOpt= -1 -1 -1 -1 -1 -1 -1 -1 -1 -1 -1 -1 -1 -1 -1 -1 -1 -1 -1 -1
 MicOpt= -1 -1 -1 -1 -1 -1 -1 -1 -1 -1 -1 -1 -1 -1 -1 -1 -1 -1 -1 -1
 MicOpt= -1 -1 -1 -1 -1 -1 -1 -1 -1
 NAtoms=     69 NQM=       69 NQMF=       0 NMMI=      0 NMMIF=      0
                NMic=       0 NMicF=      0.
                    Isotopes and Nuclear Properties:
 (Nuclear quadrupole moments (NQMom) in fm**2, nuclear magnetic moments (NMagM)
  in nuclear magnetons)

  Atom         1           2           3           4           5           6           7           8           9          10
 IAtWgt=          12          12          12          12          12          12          12          12          12          12
 AtmWgt=  12.0000000  12.0000000  12.0000000  12.0000000  12.0000000  12.0000000  12.0000000  12.0000000  12.0000000  12.0000000
 NucSpn=           0           0           0           0           0           0           0           0           0           0
 AtZEff=  -0.0000000  -0.0000000  -0.0000000  -0.0000000  -0.0000000  -0.0000000  -0.0000000  -0.0000000  -0.0000000  -0.0000000
 NQMom=    0.0000000   0.0000000   0.0000000   0.0000000   0.0000000   0.0000000   0.0000000   0.0000000   0.0000000   0.0000000
 NMagM=    0.0000000   0.0000000   0.0000000   0.0000000   0.0000000   0.0000000   0.0000000   0.0000000   0.0000000   0.0000000
 AtZNuc=   6.0000000   6.0000000   6.0000000   6.0000000   6.0000000   6.0000000   6.0000000   6.0000000   6.0000000   6.0000000

  Atom        11          12          13          14          15          16          17          18          19          20
 IAtWgt=          14          14          14          12          12          14          12          12          12          12
 AtmWgt=  14.0030740  14.0030740  14.0030740  12.0000000  12.0000000  14.0030740  12.0000000  12.0000000  12.0000000  12.0000000
 NucSpn=           2           2           2           0           0           2           0           0           0           0
 AtZEff=  -0.0000000  -0.0000000  -0.0000000  -0.0000000  -0.0000000  -0.0000000  -0.0000000  -0.0000000  -0.0000000  -0.0000000
 NQMom=    2.0440000   2.0440000   2.0440000   0.0000000   0.0000000   2.0440000   0.0000000   0.0000000   0.0000000   0.0000000
 NMagM=    0.4037610   0.4037610   0.4037610   0.0000000   0.0000000   0.4037610   0.0000000   0.0000000   0.0000000   0.0000000
 AtZNuc=   7.0000000   7.0000000   7.0000000   6.0000000   6.0000000   7.0000000   6.0000000   6.0000000   6.0000000   6.0000000

  Atom        21          22          23          24          25          26          27          28          29          30
 IAtWgt=          12          12          14          16          16          12          12          12          12          12
 AtmWgt=  12.0000000  12.0000000  14.0030740  15.9949146  15.9949146  12.0000000  12.0000000  12.0000000  12.0000000  12.0000000
 NucSpn=           0           0           2           0           0           0           0           0           0           0
 AtZEff=  -0.0000000  -0.0000000  -0.0000000  -0.0000000  -0.0000000  -0.0000000  -0.0000000  -0.0000000  -0.0000000  -0.0000000
 NQMom=    0.0000000   0.0000000   2.0440000   0.0000000   0.0000000   0.0000000   0.0000000   0.0000000   0.0000000   0.0000000
 NMagM=    0.0000000   0.0000000   0.4037610   0.0000000   0.0000000   0.0000000   0.0000000   0.0000000   0.0000000   0.0000000
 AtZNuc=   6.0000000   6.0000000   7.0000000   8.0000000   8.0000000   6.0000000   6.0000000   6.0000000   6.0000000   6.0000000

  Atom        31          32          33          34          35          36          37          38          39          40
 IAtWgt=          12          12          12          12          12          12          12          12          12          12
 AtmWgt=  12.0000000  12.0000000  12.0000000  12.0000000  12.0000000  12.0000000  12.0000000  12.0000000  12.0000000  12.0000000
 NucSpn=           0           0           0           0           0           0           0           0           0           0
 AtZEff=  -0.0000000  -0.0000000  -0.0000000  -0.0000000  -0.0000000  -0.0000000  -0.0000000  -0.0000000  -0.0000000  -0.0000000
 NQMom=    0.0000000   0.0000000   0.0000000   0.0000000   0.0000000   0.0000000   0.0000000   0.0000000   0.0000000   0.0000000
 NMagM=    0.0000000   0.0000000   0.0000000   0.0000000   0.0000000   0.0000000   0.0000000   0.0000000   0.0000000   0.0000000
 AtZNuc=   6.0000000   6.0000000   6.0000000   6.0000000   6.0000000   6.0000000   6.0000000   6.0000000   6.0000000   6.0000000

  Atom        41          42          43          44          45          46          47          48          49          50
 IAtWgt=          14          11          19          19           1           1           1           1           1           1
 AtmWgt=  14.0030740  11.0093053  18.9984033  18.9984033   1.0078250   1.0078250   1.0078250   1.0078250   1.0078250   1.0078250
 NucSpn=           2           3           1           1           1           1           1           1           1           1
 AtZEff=  -0.0000000  -0.0000000  -0.0000000  -0.0000000  -0.0000000  -0.0000000  -0.0000000  -0.0000000  -0.0000000  -0.0000000
 NQMom=    2.0440000   4.0590000   0.0000000   0.0000000   0.0000000   0.0000000   0.0000000   0.0000000   0.0000000   0.0000000
 NMagM=    0.4037610   2.6886370   2.6288670   2.6288670   2.7928460   2.7928460   2.7928460   2.7928460   2.7928460   2.7928460
 AtZNuc=   7.0000000   5.0000000   9.0000000   9.0000000   1.0000000   1.0000000   1.0000000   1.0000000   1.0000000   1.0000000

  Atom        51          52          53          54          55          56          57          58          59          60
 IAtWgt=           1           1           1           1           1           1           1           1           1           1
 AtmWgt=   1.0078250   1.0078250   1.0078250   1.0078250   1.0078250   1.0078250   1.0078250   1.0078250   1.0078250   1.0078250
 NucSpn=           1           1           1           1           1           1           1           1           1           1
 AtZEff=  -0.0000000  -0.0000000  -0.0000000  -0.0000000  -0.0000000  -0.0000000  -0.0000000  -0.0000000  -0.0000000  -0.0000000
 NQMom=    0.0000000   0.0000000   0.0000000   0.0000000   0.0000000   0.0000000   0.0000000   0.0000000   0.0000000   0.0000000
 NMagM=    2.7928460   2.7928460   2.7928460   2.7928460   2.7928460   2.7928460   2.7928460   2.7928460   2.7928460   2.7928460
 AtZNuc=   1.0000000   1.0000000   1.0000000   1.0000000   1.0000000   1.0000000   1.0000000   1.0000000   1.0000000   1.0000000

  Atom        61          62          63          64          65          66          67          68          69
 IAtWgt=           1           1           1           1           1           1           1           1           1
 AtmWgt=   1.0078250   1.0078250   1.0078250   1.0078250   1.0078250   1.0078250   1.0078250   1.0078250   1.0078250
 NucSpn=           1           1           1           1           1           1           1           1           1
 AtZEff=  -0.0000000  -0.0000000  -0.0000000  -0.0000000  -0.0000000  -0.0000000  -0.0000000  -0.0000000  -0.0000000
 NQMom=    0.0000000   0.0000000   0.0000000   0.0000000   0.0000000   0.0000000   0.0000000   0.0000000   0.0000000
 NMagM=    2.7928460   2.7928460   2.7928460   2.7928460   2.7928460   2.7928460   2.7928460   2.7928460   2.7928460
 AtZNuc=   1.0000000   1.0000000   1.0000000   1.0000000   1.0000000   1.0000000   1.0000000   1.0000000   1.0000000
 Leave Link  101 at Tue Oct 28 19:29:54 2025, MaxMem= 30870077440 cpu:               5.7 elap:               0.1
 (Enter /public/software/gauss/g16/l202.exe)
 Stoichiometry    C33H25BF2N6O2(1-,2)
 Framework group  C1[X(C33H25BF2N6O2)]
 Deg. of freedom   201
 Full point group                 C1      NOp   1
 Largest Abelian subgroup         C1      NOp   1
 Largest concise Abelian subgroup C1      NOp   1
                         Standard orientation:                         
 ---------------------------------------------------------------------
 Center     Atomic      Atomic             Coordinates (Angstroms)
 Number     Number       Type             X           Y           Z
 ---------------------------------------------------------------------
      1          6           0        2.926948   -3.699874    0.421195
      2          6           0        1.742961   -2.808027    0.188732
      3          6           0        0.430277   -3.270086    0.174320
      4          6           0       -0.437986   -2.170351    0.029182
      5          6           0       -1.877081   -2.146651   -0.028411
      6          6           0       -2.666151   -3.233432    0.172429
      7          6           0       -4.121319   -3.274890    0.103477
      8          6           0       -4.781590   -4.494282    0.363944
      9          6           0       -6.165597   -4.599058    0.315232
     10          6           0       -6.936839   -3.474751    0.000663
     11          7           0       -8.343860   -3.666694   -0.029083
     12          7           0       -9.069509   -2.704799   -0.306456
     13          7           0       -9.853475   -1.910598   -0.545693
     14          6           0       -6.307021   -2.248206   -0.263427
     15          6           0       -4.923771   -2.155661   -0.211829
     16          7           0        0.325776   -1.030292   -0.063408
     17          6           0        1.673336   -1.385999    0.011911
     18          6           0        2.683015   -0.386464   -0.026736
     19          6           0        4.102800   -0.764308   -0.029924
     20          6           0        4.636985   -1.593655   -1.044374
     21          6           0        5.975661   -1.936108   -1.066147
     22          6           0        6.828689   -1.476189   -0.040354
     23          7           0        8.189675   -1.832226   -0.044165
     24          8           0        8.640776   -2.580966   -0.969385
     25          8           0        8.953040   -1.400563    0.878225
     26          6           0        6.317464   -0.657867    0.989460
     27          6           0        4.982186   -0.301269    0.977442
     28          6           0        2.317415    0.986621   -0.074819
     29          6           0        3.094550    2.167231   -0.321120
     30          6           0        4.555057    2.315912   -0.631236
     31          6           0        2.200838    3.233300   -0.315026
     32          6           0        0.898869    2.735666   -0.105418
     33          6           0       -0.348078    3.458498   -0.046886
     34          6           0       -0.436220    4.811947   -0.007784
     35          6           0       -1.659879    5.609042    0.036402
     36          6           0       -1.546009    7.014297    0.080008
     37          6           0       -2.674542    7.830730    0.122656
     38          6           0       -3.950696    7.263141    0.123693
     39          6           0       -4.083395    5.870367    0.081578
     40          6           0       -2.957913    5.053154    0.038359
     41          7           0        0.980546    1.370373    0.022289
     42          5           0       -0.205964    0.398936    0.191052
     43          9           0       -1.220297    0.712380   -0.739215
     44          9           0       -0.749148    0.492351    1.486009
     45          1           0        3.483515   -3.918861   -0.495879
     46          1           0        3.637440   -3.260187    1.126835
     47          1           0        2.583979   -4.653489    0.833184
     48          1           0        0.126411   -4.304321    0.265507
     49          1           0       -2.327031   -1.187983   -0.261507
     50          1           0       -2.195159   -4.184729    0.413189
     51          1           0       -4.191166   -5.372588    0.608963
     52          1           0       -6.658491   -5.544045    0.518135
     53          1           0       -6.895960   -1.369679   -0.509288
     54          1           0       -4.461471   -1.196754   -0.421745
     55          1           0        3.986743   -1.940331   -1.840788
     56          1           0        6.380072   -2.543920   -1.865117
     57          1           0        6.974790   -0.325859    1.782652
     58          1           0        4.590982    0.322571    1.774559
     59          1           0        4.905475    1.550539   -1.329543
     60          1           0        4.730345    3.296081   -1.084373
     61          1           0        5.188391    2.246660    0.259326
     62          1           0        2.456183    4.269607   -0.490713
     63          1           0       -1.250189    2.857631   -0.042179
     64          1           0        0.483499    5.394213   -0.005026
     65          1           0       -0.555326    7.461312    0.079555
     66          1           0       -2.557364    8.910059    0.155050
     67          1           0       -4.832577    7.895733    0.156494
     68          1           0       -5.071903    5.420062    0.082088
     69          1           0       -3.088730    3.976256    0.005940
 ---------------------------------------------------------------------
 Rotational constants (GHZ):           0.0753194           0.0371274           0.0252957
 Leave Link  202 at Tue Oct 28 19:29:54 2025, MaxMem= 30870077440 cpu:               0.2 elap:               0.0
 (Enter /public/software/gauss/g16/l301.exe)
 Standard basis: def2TZVPP (5D, 7F)
 Ernie: Thresh=  0.10000D-02 Tol=  0.10000D-05 Strict=F.
 There are  1959 symmetry adapted cartesian basis functions of A   symmetry.
 There are  1714 symmetry adapted basis functions of A   symmetry.
  1714 basis functions,  2669 primitive gaussians,  1959 cartesian basis functions
   153 alpha electrons      152 beta electrons
       nuclear repulsion energy      4648.5938626937 Hartrees.
 IExCor= 4336 DFT=T Ex+Corr=M062X ExCW=0 ScaHFX=  0.540000
 ScaDFX=  1.000000  1.000000  1.000000  1.000000 ScalE2=  1.000000  1.000000
 IRadAn=      5 IRanWt=     -1 IRanGd=            0 ICorTp=0 IEmpDi=131
 NAtoms=   69 NActive=   69 NUniq=   69 SFac= 1.00D+00 NAtFMM=   60 NAOKFM=T Big=T
 Integral buffers will be    131072 words long.
 Raffenetti 2 integral format.
 Two-electron integral symmetry is turned on.
 R6Disp:  Grimme-D3 Dispersion energy=       -0.0055358671 Hartrees.
 Nuclear repulsion after empirical dispersion term =     4648.5883268266 Hartrees.
 ------------------------------------------------------------------------------
 Polarizable Continuum Model (PCM)
 =================================
 Model                : PCM.
 Atomic radii         : UFF (Universal Force Field).
 Polarization charges : Total charges.
 Charge compensation  : None.
 Solution method      : On-the-fly selection.
 Cavity type          : Scaled VdW (van der Waals Surface) (Alpha=1.100).
 Cavity algorithm     : GePol (No added spheres)
                        Default sphere list used, NSphG=   69.
                        Lebedev-Laikov grids with approx.  5.0 points / Ang**2.
                        Smoothing algorithm: York/Karplus (Gamma=1.0000).
                        Polarization charges: spherical gaussians, with
                                              point-specific exponents (IZeta= 3).
                        Self-potential: point-specific (ISelfS= 7).
                        Self-field    : sphere-specific E.n sum rule (ISelfD= 2).
 Solvent              : Water, Eps=  78.355300 Eps(inf)=   1.777849
 ------------------------------------------------------------------------------
 GePol: Number of generator spheres                  =      69
 GePol: Total number of spheres                      =      69
 GePol: Number of exposed spheres                    =      69 (100.00%)
 GePol: Number of points                             =    5222
 GePol: Average weight of points                     =       0.13
 GePol: Minimum weight of points                     =   0.11D-11
 GePol: Maximum weight of points                     =    0.20577
 GePol: Number of points with low weight             =     350
 GePol: Fraction of low-weight points (<1% of avg)   =       6.70%
 GePol: Cavity surface area                          =    663.615 Ang**2
 GePol: Cavity volume                                =    763.206 Ang**3
 Leave Link  301 at Tue Oct 28 19:29:54 2025, MaxMem= 30870077440 cpu:               3.5 elap:               0.1
 (Enter /public/software/gauss/g16/l302.exe)
 NPDir=0 NMtPBC=     1 NCelOv=     1 NCel=       1 NClECP=     1 NCelD=      1
         NCelK=      1 NCelE2=     1 NClLst=     1 CellRange=     0.0.
 One-electron integrals computed using PRISM.
 One-electron integral symmetry used in STVInt
   1 Symmetry operations used in ECPInt.
 ECPInt:  NShTT=  201295 NPrTT=  584783 LenC2=  128240 LenP2D=  249789.
 LDataN:  DoStor=T MaxTD1= 6 Len=  172
 NBasis=  1714 RedAO= T EigKep=  5.36D-06  NBF=  1714
 NBsUse=  1714 1.00D-06 EigRej= -1.00D+00 NBFU=  1714
 Precomputing XC quadrature grid using
 IXCGrd= 4 IRadAn=           5 IRanWt=          -1 IRanGd=           0 AccXCQ= 0.00D+00.
 Generated NRdTot=       0 NPtTot=           0 NUsed=           0 NTot=          32
 NSgBfM=  1750  1750  1750  1750  1750 MxSgAt=    69 MxSgA2=    69.
 Leave Link  302 at Tue Oct 28 19:30:02 2025, MaxMem= 30870077440 cpu:             496.5 elap:               7.8
 (Enter /public/software/gauss/g16/l303.exe)
 DipDrv:  MaxL=1.
 Leave Link  303 at Tue Oct 28 19:30:03 2025, MaxMem= 30870077440 cpu:              24.1 elap:               0.4
 (Enter /public/software/gauss/g16/l401.exe)
 ExpMin= 6.06D-02 ExpMax= 3.55D+04 ExpMxC= 1.21D+03 IAcc=3 IRadAn=         5 AccDes= 0.00D+00
 Harris functional with IExCor= 1009 and IRadAn=       5 diagonalized for initial guess.
 HarFok:  IExCor= 1009 AccDes= 0.00D+00 IRadAn=         5 IDoV= 1 UseB2=F ITyADJ=14
 ICtDFT=  3500011 ScaDFX=  1.000000  1.000000  1.000000  1.000000
 FoFCou: FMM=F IPFlag=           0 FMFlag=      100000 FMFlg1=        2001
         NFxFlg=           0 DoJE=T BraDBF=F KetDBF=T FulRan=T
         wScrn=  0.000000 ICntrl=       500 IOpCl=  0 I1Cent=   200000004 NGrid=           0
         NMat0=    1 NMatS0=      1 NMatT0=    0 NMatD0=    1 NMtDS0=    0 NMtDT0=    0
 Petite list used in FoFCou.
 Harris En= -1975.28874126846    
 JPrj=0 DoOrth=F DoCkMO=F.
 Initial guess <Sx>= 0.0000 <Sy>= 0.0000 <Sz>= 0.5000 <S**2>= 0.7500 S= 0.5000
 Leave Link  401 at Tue Oct 28 19:30:12 2025, MaxMem= 30870077440 cpu:             590.5 elap:               9.3
 (Enter /public/software/gauss/g16/l502.exe)
 Integral symmetry usage will be decided dynamically.
 UHF open shell SCF:
 Using DIIS extrapolation, IDIIS=  1040.
 NGot= 30870077440 LenX= 30862260289 LenY= 30858420649
 Requested convergence on RMS density matrix=1.00D-08 within 128 cycles.
 Requested convergence on MAX density matrix=1.00D-06.
 Requested convergence on             energy=1.00D-06.
 No special actions if energy rises.
 Fock matrices will be formed incrementally for  20 cycles.

 Cycle   1  Pass 1  IDiag  1:
 FoFJK:  IHMeth= 1 ICntrl=       0 DoSepK=F KAlg= 0 I1Cent=           0 FoldK=F
 IRaf= 600000000 NMat=       1 IRICut=       1 DoRegI=T DoRafI=F ISym2E= 0 IDoP0=0 IntGTp=1.
 FoFCou: FMM=T IPFlag=           0 FMFlag=      100000 FMFlg1=        2001
         NFxFlg=           0 DoJE=F BraDBF=F KetDBF=F FulRan=T
         wScrn=  0.000000 ICntrl=         0 IOpCl=  1 I1Cent=           0 NGrid=           0
         NMat0=    1 NMatS0=      1 NMatT0=    0 NMatD0=    1 NMtDS0=    0 NMtDT0=    0
 Symmetry not used in FoFCou.
 FMM levels:  10  Number of levels for PrismC:   9
 Inv3:  Mode=1 IEnd=    81807852.
 Iteration    1 A*A^-1 deviation from unit magnitude is 1.78D-14 for   5211.
 Iteration    1 A*A^-1 deviation from orthogonality  is 5.56D-15 for   5211   1814.
 Iteration    1 A^-1*A deviation from unit magnitude is 1.78D-14 for   5211.
 Iteration    1 A^-1*A deviation from orthogonality  is 2.60D-15 for   2916   1127.
 E= -1975.11148343707    
 DIIS: error= 2.98D-02 at cycle   1 NSaved=   1.
 NSaved= 1 IEnMin= 1 EnMin= -1975.11148343707     IErMin= 1 ErrMin= 2.98D-02
 ErrMax= 2.98D-02  0.00D+00 EMaxC= 1.00D-01 BMatC= 5.57D+00 BMatP= 5.57D+00
 IDIUse=3 WtCom= 7.02D-01 WtEn= 2.98D-01
 Coeff-Com:  0.100D+01
 Coeff-En:   0.100D+01
 Coeff:      0.100D+01
 Gap=     0.064 Goal=   None    Shift=    0.000
 Gap=     0.172 Goal=   None    Shift=    0.000
 GapD=    0.064 DampG=0.500 DampE=0.500 DampFc=0.2500 IDamp=-1.
 Damping current iteration by 2.50D-01
 RMSDP=1.57D-03 MaxDP=2.98D-01              OVMax= 7.81D-01

 Cycle   2  Pass 1  IDiag  1:
 RMSU=  3.91D-04    CP:  9.94D-01
 E= -1975.48716494930     Delta-E=       -0.375681512228 Rises=F Damp=T
 DIIS: error= 1.24D-02 at cycle   2 NSaved=   2.
 NSaved= 2 IEnMin= 2 EnMin= -1975.48716494930     IErMin= 2 ErrMin= 1.24D-02
 ErrMax= 1.24D-02  0.00D+00 EMaxC= 1.00D-01 BMatC= 1.92D+00 BMatP= 5.57D+00
 IDIUse=3 WtCom= 8.76D-01 WtEn= 1.24D-01
 Coeff-Com: -0.108D+01 0.208D+01
 Coeff-En:   0.000D+00 0.100D+01
 Coeff:     -0.945D+00 0.195D+01
 Gap=     0.014 Goal=   None    Shift=    0.000
 Gap=     0.209 Goal=   None    Shift=    0.000
 RMSDP=1.00D-03 MaxDP=1.84D-01 DE=-3.76D-01 OVMax= 7.11D-01

 Cycle   3  Pass 1  IDiag  1:
 RMSU=  7.01D-04    CP:  9.86D-01  2.84D+00
 E= -1976.14458213267     Delta-E=       -0.657417183372 Rises=F Damp=F
 DIIS: error= 1.54D-02 at cycle   3 NSaved=   3.
 NSaved= 3 IEnMin= 3 EnMin= -1976.14458213267     IErMin= 2 ErrMin= 1.24D-02
 ErrMax= 1.54D-02  0.00D+00 EMaxC= 1.00D-01 BMatC= 3.32D-01 BMatP= 1.92D+00
 IDIUse=3 WtCom= 8.46D-01 WtEn= 1.54D-01
 Coeff-Com: -0.546D+00 0.941D+00 0.605D+00
 Coeff-En:   0.000D+00 0.000D+00 0.100D+01
 Coeff:     -0.462D+00 0.796D+00 0.666D+00
 Gap=     0.055 Goal=   None    Shift=    0.000
 Gap=     0.133 Goal=   None    Shift=    0.000
 RMSDP=3.21D-04 MaxDP=7.66D-02 DE=-6.57D-01 OVMax= 2.48D-01

 Cycle   4  Pass 1  IDiag  1:
 RMSU=  2.82D-04    CP:  9.77D-01  2.67D+00  8.12D-01
 E= -1976.19802389583     Delta-E=       -0.053441763161 Rises=F Damp=F
 DIIS: error= 7.37D-03 at cycle   4 NSaved=   4.
 NSaved= 4 IEnMin= 4 EnMin= -1976.19802389583     IErMin= 4 ErrMin= 7.37D-03
 ErrMax= 7.37D-03  0.00D+00 EMaxC= 1.00D-01 BMatC= 8.57D-02 BMatP= 3.32D-01
 IDIUse=3 WtCom= 9.26D-01 WtEn= 7.37D-02
 Coeff-Com: -0.993D-01 0.162D+00 0.354D+00 0.584D+00
 Coeff-En:   0.000D+00 0.000D+00 0.204D+00 0.796D+00
 Coeff:     -0.919D-01 0.150D+00 0.343D+00 0.600D+00
 Gap=     0.075 Goal=   None    Shift=    0.000
 Gap=     0.137 Goal=   None    Shift=    0.000
 RMSDP=1.34D-04 MaxDP=5.40D-02 DE=-5.34D-02 OVMax= 1.01D-01

 Cycle   5  Pass 1  IDiag  1:
 RMSU=  1.01D-04    CP:  9.79D-01  2.72D+00  8.74D-01  7.41D-01
 E= -1976.21571451190     Delta-E=       -0.017690616067 Rises=F Damp=F
 DIIS: error= 7.50D-04 at cycle   5 NSaved=   5.
 NSaved= 5 IEnMin= 5 EnMin= -1976.21571451190     IErMin= 5 ErrMin= 7.50D-04
 ErrMax= 7.50D-04  0.00D+00 EMaxC= 1.00D-01 BMatC= 6.53D-03 BMatP= 8.57D-02
 IDIUse=3 WtCom= 9.92D-01 WtEn= 7.50D-03
 Coeff-Com: -0.200D-01 0.293D-01 0.142D+00 0.323D+00 0.526D+00
 Coeff-En:   0.000D+00 0.000D+00 0.000D+00 0.000D+00 0.100D+01
 Coeff:     -0.199D-01 0.290D-01 0.141D+00 0.320D+00 0.529D+00
 Gap=     0.079 Goal=   None    Shift=    0.000
 Gap=     0.134 Goal=   None    Shift=    0.000
 RMSDP=4.83D-05 MaxDP=1.69D-02 DE=-1.77D-02 OVMax= 1.49D-02

 Cycle   6  Pass 1  IDiag  1:
 RMSU=  3.91D-05    CP:  9.78D-01  2.70D+00  8.58D-01  8.18D-01  9.03D-01
 E= -1976.21740699892     Delta-E=       -0.001692487025 Rises=F Damp=F
 DIIS: error= 2.90D-04 at cycle   6 NSaved=   6.
 NSaved= 6 IEnMin= 6 EnMin= -1976.21740699892     IErMin= 6 ErrMin= 2.90D-04
 ErrMax= 2.90D-04  0.00D+00 EMaxC= 1.00D-01 BMatC= 6.84D-04 BMatP= 6.53D-03
 IDIUse=3 WtCom= 9.97D-01 WtEn= 2.90D-03
 Coeff-Com:  0.150D-02-0.390D-02 0.180D-01 0.675D-01 0.261D+00 0.656D+00
 Coeff-En:   0.000D+00 0.000D+00 0.000D+00 0.000D+00 0.000D+00 0.100D+01
 Coeff:      0.150D-02-0.389D-02 0.180D-01 0.673D-01 0.260D+00 0.657D+00
 Gap=     0.081 Goal=   None    Shift=    0.000
 Gap=     0.135 Goal=   None    Shift=    0.000
 RMSDP=2.51D-05 MaxDP=9.60D-03 DE=-1.69D-03 OVMax= 1.29D-02

 Cycle   7  Pass 1  IDiag  1:
 RMSU=  1.53D-05    CP:  9.78D-01  2.70D+00  8.65D-01  8.22D-01  1.08D+00
                    CP:  1.18D+00
 E= -1976.21768025470     Delta-E=       -0.000273255775 Rises=F Damp=F
 DIIS: error= 1.20D-04 at cycle   7 NSaved=   7.
 NSaved= 7 IEnMin= 7 EnMin= -1976.21768025470     IErMin= 7 ErrMin= 1.20D-04
 ErrMax= 1.20D-04  0.00D+00 EMaxC= 1.00D-01 BMatC= 1.44D-04 BMatP= 6.84D-04
 IDIUse=3 WtCom= 9.99D-01 WtEn= 1.20D-03
 Coeff-Com:  0.352D-02-0.581D-02-0.233D-01-0.398D-01 0.144D-01 0.319D+00
 Coeff-Com:  0.732D+00
 Coeff-En:   0.000D+00 0.000D+00 0.000D+00 0.000D+00 0.000D+00 0.000D+00
 Coeff-En:   0.100D+01
 Coeff:      0.352D-02-0.580D-02-0.233D-01-0.398D-01 0.143D-01 0.318D+00
 Coeff:      0.733D+00
 Gap=     0.083 Goal=   None    Shift=    0.000
 Gap=     0.136 Goal=   None    Shift=    0.000
 RMSDP=1.71D-05 MaxDP=5.79D-03 DE=-2.73D-04 OVMax= 9.73D-03

 Cycle   8  Pass 1  IDiag  1:
 RMSU=  8.14D-06    CP:  9.78D-01  2.70D+00  8.68D-01  8.33D-01  1.19D+00
                    CP:  1.36D+00  1.44D+00
 E= -1976.21777101421     Delta-E=       -0.000090759512 Rises=F Damp=F
 DIIS: error= 9.33D-05 at cycle   8 NSaved=   8.
 NSaved= 8 IEnMin= 8 EnMin= -1976.21777101421     IErMin= 8 ErrMin= 9.33D-05
 ErrMax= 9.33D-05  0.00D+00 EMaxC= 1.00D-01 BMatC= 4.59D-05 BMatP= 1.44D-04
 IDIUse=1 WtCom= 1.00D+00 WtEn= 0.00D+00
 Coeff-Com:  0.969D-03-0.139D-02-0.157D-01-0.345D-01-0.524D-01 0.208D-02
 Coeff-Com:  0.405D+00 0.696D+00
 Coeff:      0.969D-03-0.139D-02-0.157D-01-0.345D-01-0.524D-01 0.208D-02
 Coeff:      0.405D+00 0.696D+00
 Gap=     0.084 Goal=   None    Shift=    0.000
 Gap=     0.137 Goal=   None    Shift=    0.000
 RMSDP=9.68D-06 MaxDP=2.72D-03 DE=-9.08D-05 OVMax= 4.94D-03

 Cycle   9  Pass 1  IDiag  1:
 RMSU=  3.49D-06    CP:  9.78D-01  2.70D+00  8.69D-01  8.43D-01  1.23D+00
                    CP:  1.49D+00  1.76D+00  1.29D+00
 E= -1976.21780040229     Delta-E=       -0.000029388079 Rises=F Damp=F
 DIIS: error= 2.82D-05 at cycle   9 NSaved=   9.
 NSaved= 9 IEnMin= 9 EnMin= -1976.21780040229     IErMin= 9 ErrMin= 2.82D-05
 ErrMax= 2.82D-05  0.00D+00 EMaxC= 1.00D-01 BMatC= 1.06D-05 BMatP= 4.59D-05
 IDIUse=1 WtCom= 1.00D+00 WtEn= 0.00D+00
 Coeff-Com: -0.756D-03 0.130D-02-0.904D-03-0.492D-02-0.297D-01-0.932D-01
 Coeff-Com: -0.284D-02 0.345D+00 0.786D+00
 Coeff:     -0.756D-03 0.130D-02-0.904D-03-0.492D-02-0.297D-01-0.932D-01
 Coeff:     -0.284D-02 0.345D+00 0.786D+00
 Gap=     0.085 Goal=   None    Shift=    0.000
 Gap=     0.137 Goal=   None    Shift=    0.000
 RMSDP=6.45D-06 MaxDP=2.50D-03 DE=-2.94D-05 OVMax= 2.85D-03

 Cycle  10  Pass 1  IDiag  1:
 RMSU=  2.14D-06    CP:  9.78D-01  2.71D+00  8.71D-01  8.43D-01  1.26D+00
                    CP:  1.55D+00  1.98D+00  1.62D+00  1.35D+00
 E= -1976.21780906827     Delta-E=       -0.000008665979 Rises=F Damp=F
 DIIS: error= 1.73D-05 at cycle  10 NSaved=  10.
 NSaved=10 IEnMin=10 EnMin= -1976.21780906827     IErMin=10 ErrMin= 1.73D-05
 ErrMax= 1.73D-05  0.00D+00 EMaxC= 1.00D-01 BMatC= 2.09D-06 BMatP= 1.06D-05
 IDIUse=1 WtCom= 1.00D+00 WtEn= 0.00D+00
 Coeff-Com: -0.318D-03 0.517D-03 0.363D-02 0.684D-02 0.221D-02-0.357D-01
 Coeff-Com: -0.105D+00-0.437D-01 0.309D+00 0.863D+00
 Coeff:     -0.318D-03 0.517D-03 0.363D-02 0.684D-02 0.221D-02-0.357D-01
 Coeff:     -0.105D+00-0.437D-01 0.309D+00 0.863D+00
 Gap=     0.085 Goal=   None    Shift=    0.000
 Gap=     0.137 Goal=   None    Shift=    0.000
 RMSDP=3.06D-06 MaxDP=7.67D-04 DE=-8.67D-06 OVMax= 1.27D-03

 Cycle  11  Pass 1  IDiag  1:
 RMSU=  1.07D-06    CP:  9.78D-01  2.71D+00  8.71D-01  8.45D-01  1.27D+00
                    CP:  1.58D+00  2.08D+00  1.76D+00  1.67D+00  1.30D+00
 E= -1976.21781133544     Delta-E=       -0.000002267168 Rises=F Damp=F
 DIIS: error= 1.36D-05 at cycle  11 NSaved=  11.
 NSaved=11 IEnMin=11 EnMin= -1976.21781133544     IErMin=11 ErrMin= 1.36D-05
 ErrMax= 1.36D-05  0.00D+00 EMaxC= 1.00D-01 BMatC= 6.39D-07 BMatP= 2.09D-06
 IDIUse=1 WtCom= 1.00D+00 WtEn= 0.00D+00
 Coeff-Com:  0.284D-04-0.357D-04 0.184D-02 0.362D-02 0.692D-02 0.699D-02
 Coeff-Com: -0.392D-01-0.822D-01-0.478D-01 0.343D+00 0.807D+00
 Coeff:      0.284D-04-0.357D-04 0.184D-02 0.362D-02 0.692D-02 0.699D-02
 Coeff:     -0.392D-01-0.822D-01-0.478D-01 0.343D+00 0.807D+00
 Gap=     0.085 Goal=   None    Shift=    0.000
 Gap=     0.137 Goal=   None    Shift=    0.000
 RMSDP=1.39D-06 MaxDP=4.78D-04 DE=-2.27D-06 OVMax= 6.83D-04

 Cycle  12  Pass 1  IDiag  1:
 RMSU=  5.39D-07    CP:  9.78D-01  2.71D+00  8.71D-01  8.45D-01  1.27D+00
                    CP:  1.59D+00  2.11D+00  1.83D+00  1.79D+00  1.64D+00
                    CP:  1.44D+00
 E= -1976.21781202382     Delta-E=       -0.000000688384 Rises=F Damp=F
 DIIS: error= 1.23D-05 at cycle  12 NSaved=  12.
 NSaved=12 IEnMin=12 EnMin= -1976.21781202382     IErMin=12 ErrMin= 1.23D-05
 ErrMax= 1.23D-05  0.00D+00 EMaxC= 1.00D-01 BMatC= 1.99D-07 BMatP= 6.39D-07
 IDIUse=1 WtCom= 1.00D+00 WtEn= 0.00D+00
 Coeff-Com:  0.227D-03-0.343D-03-0.478D-03-0.128D-02 0.145D-02 0.155D-01
 Coeff-Com:  0.196D-01-0.149D-01-0.123D+00-0.159D+00 0.257D+00 0.100D+01
 Coeff:      0.227D-03-0.343D-03-0.478D-03-0.128D-02 0.145D-02 0.155D-01
 Coeff:      0.196D-01-0.149D-01-0.123D+00-0.159D+00 0.257D+00 0.100D+01
 Gap=     0.085 Goal=   None    Shift=    0.000
 Gap=     0.137 Goal=   None    Shift=    0.000
 RMSDP=1.08D-06 MaxDP=2.98D-04 DE=-6.88D-07 OVMax= 8.27D-04

 Cycle  13  Pass 1  IDiag  1:
 RMSU=  3.06D-07    CP:  9.78D-01  2.71D+00  8.71D-01  8.45D-01  1.27D+00
                    CP:  1.59D+00  2.13D+00  1.85D+00  1.88D+00  1.89D+00
                    CP:  1.97D+00  1.83D+00
 E= -1976.21781240717     Delta-E=       -0.000000383348 Rises=F Damp=F
 DIIS: error= 6.81D-06 at cycle  13 NSaved=  13.
 NSaved=13 IEnMin=13 EnMin= -1976.21781240717     IErMin=13 ErrMin= 6.81D-06
 ErrMax= 6.81D-06  0.00D+00 EMaxC= 1.00D-01 BMatC= 7.69D-08 BMatP= 1.99D-07
 IDIUse=1 WtCom= 1.00D+00 WtEn= 0.00D+00
 Coeff-Com:  0.785D-04-0.112D-03-0.423D-03-0.129D-02-0.131D-02 0.292D-02
 Coeff-Com:  0.145D-01 0.166D-01-0.217D-01-0.125D+00-0.174D+00 0.319D+00
 Coeff-Com:  0.971D+00
 Coeff:      0.785D-04-0.112D-03-0.423D-03-0.129D-02-0.131D-02 0.292D-02
 Coeff:      0.145D-01 0.166D-01-0.217D-01-0.125D+00-0.174D+00 0.319D+00
 Coeff:      0.971D+00
 Gap=     0.085 Goal=   None    Shift=    0.000
 Gap=     0.137 Goal=   None    Shift=    0.000
 RMSDP=7.22D-07 MaxDP=1.84D-04 DE=-3.83D-07 OVMax= 6.89D-04

 Cycle  14  Pass 1  IDiag  1:
 RMSU=  2.04D-07    CP:  9.78D-01  2.71D+00  8.71D-01  8.45D-01  1.27D+00
                    CP:  1.59D+00  2.14D+00  1.87D+00  1.91D+00  2.03D+00
                    CP:  2.31D+00  2.53D+00  1.70D+00
 E= -1976.21781256980     Delta-E=       -0.000000162626 Rises=F Damp=F
 DIIS: error= 5.37D-06 at cycle  14 NSaved=  14.
 NSaved=14 IEnMin=14 EnMin= -1976.21781256980     IErMin=14 ErrMin= 5.37D-06
 ErrMax= 5.37D-06  0.00D+00 EMaxC= 1.00D-01 BMatC= 3.65D-08 BMatP= 7.69D-08
 IDIUse=1 WtCom= 1.00D+00 WtEn= 0.00D+00
 Coeff-Com: -0.136D-04 0.295D-04 0.129D-03-0.697D-04-0.853D-03-0.411D-02
 Coeff-Com: -0.227D-02 0.105D-01 0.304D-01 0.219D-01-0.161D+00-0.174D+00
 Coeff-Com:  0.333D+00 0.946D+00
 Coeff:     -0.136D-04 0.295D-04 0.129D-03-0.697D-04-0.853D-03-0.411D-02
 Coeff:     -0.227D-02 0.105D-01 0.304D-01 0.219D-01-0.161D+00-0.174D+00
 Coeff:      0.333D+00 0.946D+00
 Gap=     0.085 Goal=   None    Shift=    0.000
 Gap=     0.137 Goal=   None    Shift=    0.000
 RMSDP=4.93D-07 MaxDP=6.57D-05 DE=-1.63D-07 OVMax= 6.00D-04

 Cycle  15  Pass 1  IDiag  1:
 RMSU=  1.35D-07    CP:  9.78D-01  2.71D+00  8.71D-01  8.45D-01  1.27D+00
                    CP:  1.59D+00  2.14D+00  1.87D+00  1.92D+00  2.10D+00
                    CP:  2.46D+00  3.00D+00  2.37D+00  1.96D+00
 E= -1976.21781265797     Delta-E=       -0.000000088171 Rises=F Damp=F
 DIIS: error= 4.31D-06 at cycle  15 NSaved=  15.
 NSaved=15 IEnMin=15 EnMin= -1976.21781265797     IErMin=15 ErrMin= 4.31D-06
 ErrMax= 4.31D-06  0.00D+00 EMaxC= 1.00D-01 BMatC= 2.30D-08 BMatP= 3.65D-08
 IDIUse=1 WtCom= 1.00D+00 WtEn= 0.00D+00
 Coeff-Com: -0.429D-05 0.135D-04 0.339D-03 0.480D-03 0.334D-03-0.265D-02
 Coeff-Com: -0.770D-02-0.295D-02 0.152D-01 0.734D-01-0.832D-02-0.142D+00
 Coeff-Com: -0.270D+00 0.231D+00 0.111D+01
 Coeff:     -0.429D-05 0.135D-04 0.339D-03 0.480D-03 0.334D-03-0.265D-02
 Coeff:     -0.770D-02-0.295D-02 0.152D-01 0.734D-01-0.832D-02-0.142D+00
 Coeff:     -0.270D+00 0.231D+00 0.111D+01
 Gap=     0.085 Goal=   None    Shift=    0.000
 Gap=     0.137 Goal=   None    Shift=    0.000
 RMSDP=4.87D-07 MaxDP=6.17D-05 DE=-8.82D-08 OVMax= 6.64D-04

 Cycle  16  Pass 1  IDiag  1:
 RMSU=  2.16D-07    CP:  9.78D-01  2.71D+00  8.71D-01  8.45D-01  1.27D+00
                    CP:  1.59D+00  2.15D+00  1.87D+00  1.93D+00  2.16D+00
                    CP:  2.55D+00  3.00D+00  3.00D+00  3.00D+00  2.63D+00
 E= -1976.21781273292     Delta-E=       -0.000000074956 Rises=F Damp=F
 DIIS: error= 4.70D-06 at cycle  16 NSaved=  16.
 NSaved=16 IEnMin=16 EnMin= -1976.21781273292     IErMin=15 ErrMin= 4.31D-06
 ErrMax= 4.70D-06  0.00D+00 EMaxC= 1.00D-01 BMatC= 2.06D-08 BMatP= 2.30D-08
 IDIUse=1 WtCom= 1.00D+00 WtEn= 0.00D+00
 Coeff-Com:  0.163D-04-0.180D-04 0.238D-03 0.287D-03 0.547D-03-0.670D-04
 Coeff-Com: -0.407D-02-0.497D-02-0.482D-02 0.472D-01 0.372D-01 0.107D-01
 Coeff-Com: -0.299D+00-0.276D+00 0.688D+00 0.805D+00
 Coeff:      0.163D-04-0.180D-04 0.238D-03 0.287D-03 0.547D-03-0.670D-04
 Coeff:     -0.407D-02-0.497D-02-0.482D-02 0.472D-01 0.372D-01 0.107D-01
 Coeff:     -0.299D+00-0.276D+00 0.688D+00 0.805D+00
 Gap=     0.085 Goal=   None    Shift=    0.000
 Gap=     0.137 Goal=   None    Shift=    0.000
 RMSDP=4.14D-07 MaxDP=5.36D-05 DE=-7.50D-08 OVMax= 5.73D-04

 Cycle  17  Pass 1  IDiag  1:
 RMSU=  3.03D-07    CP:  9.78D-01  2.71D+00  8.71D-01  8.45D-01  1.27D+00
                    CP:  1.59D+00  2.15D+00  1.87D+00  1.93D+00  2.19D+00
                    CP:  2.59D+00  3.00D+00  3.00D+00  3.00D+00  3.00D+00
                    CP:  2.00D+00
 E= -1976.21781279089     Delta-E=       -0.000000057963 Rises=F Damp=F
 DIIS: error= 4.23D-06 at cycle  17 NSaved=  17.
 NSaved=17 IEnMin=17 EnMin= -1976.21781279089     IErMin=17 ErrMin= 4.23D-06
 ErrMax= 4.23D-06  0.00D+00 EMaxC= 1.00D-01 BMatC= 1.64D-08 BMatP= 2.06D-08
 IDIUse=1 WtCom= 1.00D+00 WtEn= 0.00D+00
 Coeff-Com:  0.280D-04-0.373D-04 0.939D-04-0.243D-04 0.218D-03 0.812D-03
 Coeff-Com:  0.193D-04-0.101D-02-0.870D-02 0.901D-02-0.787D-02 0.836D-01
 Coeff-Com: -0.136D-01-0.225D+00-0.124D+00-0.383D+00 0.167D+01
 Coeff:      0.280D-04-0.373D-04 0.939D-04-0.243D-04 0.218D-03 0.812D-03
 Coeff:      0.193D-04-0.101D-02-0.870D-02 0.901D-02-0.787D-02 0.836D-01
 Coeff:     -0.136D-01-0.225D+00-0.124D+00-0.383D+00 0.167D+01
 Gap=     0.085 Goal=   None    Shift=    0.000
 Gap=     0.137 Goal=   None    Shift=    0.000
 RMSDP=6.74D-07 MaxDP=8.76D-05 DE=-5.80D-08 OVMax= 9.51D-04

 Cycle  18  Pass 1  IDiag  1:
 RMSU=  1.65D-07    CP:  9.78D-01  2.71D+00  8.71D-01  8.45D-01  1.27D+00
                    CP:  1.59D+00  2.15D+00  1.86D+00  1.94D+00  2.24D+00
                    CP:  2.62D+00  3.00D+00  3.00D+00  3.00D+00  3.00D+00
                    CP:  3.00D+00  2.81D+00
 E= -1976.21781287847     Delta-E=       -0.000000087586 Rises=F Damp=F
 DIIS: error= 4.22D-06 at cycle  18 NSaved=  18.
 NSaved=18 IEnMin=18 EnMin= -1976.21781287847     IErMin=18 ErrMin= 4.22D-06
 ErrMax= 4.22D-06  0.00D+00 EMaxC= 1.00D-01 BMatC= 1.56D-08 BMatP= 1.64D-08
 IDIUse=1 WtCom= 1.00D+00 WtEn= 0.00D+00
 Coeff-Com:  0.150D-04-0.186D-04 0.751D-04-0.706D-04-0.163D-03-0.682D-03
 Coeff-Com: -0.342D-03 0.296D-02 0.492D-02 0.545D-02-0.629D-01 0.564D-02
 Coeff-Com:  0.161D+00 0.182D+00-0.225D+00-0.160D+01 0.128D+01 0.125D+01
 Coeff:      0.150D-04-0.186D-04 0.751D-04-0.706D-04-0.163D-03-0.682D-03
 Coeff:     -0.342D-03 0.296D-02 0.492D-02 0.545D-02-0.629D-01 0.564D-02
 Coeff:      0.161D+00 0.182D+00-0.225D+00-0.160D+01 0.128D+01 0.125D+01
 Gap=     0.085 Goal=   None    Shift=    0.000
 Gap=     0.137 Goal=   None    Shift=    0.000
 RMSDP=8.47D-07 MaxDP=1.08D-04 DE=-8.76D-08 OVMax= 1.19D-03

 Cycle  19  Pass 1  IDiag  1:
 RMSU=  6.65D-07    CP:  9.78D-01  2.71D+00  8.71D-01  8.45D-01  1.27D+00
                    CP:  1.59D+00  2.16D+00  1.86D+00  1.94D+00  2.30D+00
                    CP:  2.63D+00  3.00D+00  3.00D+00  3.00D+00  3.00D+00
                    CP:  3.00D+00  3.00D+00  3.00D+00
 E= -1976.21781297911     Delta-E=       -0.000000100635 Rises=F Damp=F
 DIIS: error= 3.77D-06 at cycle  19 NSaved=  19.
 NSaved=19 IEnMin=19 EnMin= -1976.21781297911     IErMin=19 ErrMin= 3.77D-06
 ErrMax= 3.77D-06  0.00D+00 EMaxC= 1.00D-01 BMatC= 1.30D-08 BMatP= 1.56D-08
 IDIUse=1 WtCom= 1.00D+00 WtEn= 0.00D+00
 Coeff-Com: -0.337D-05 0.948D-05 0.131D-03 0.631D-04-0.245D-03-0.212D-02
 Coeff-Com: -0.270D-02 0.342D-02 0.160D-01 0.240D-01-0.659D-01-0.934D-01
 Coeff-Com:  0.876D-01 0.382D+00 0.212D+00-0.146D+01-0.832D-01 0.654D+00
 Coeff-Com:  0.133D+01
 Coeff:     -0.337D-05 0.948D-05 0.131D-03 0.631D-04-0.245D-03-0.212D-02
 Coeff:     -0.270D-02 0.342D-02 0.160D-01 0.240D-01-0.659D-01-0.934D-01
 Coeff:      0.876D-01 0.382D+00 0.212D+00-0.146D+01-0.832D-01 0.654D+00
 Coeff:      0.133D+01
 Gap=     0.085 Goal=   None    Shift=    0.000
 Gap=     0.137 Goal=   None    Shift=    0.000
 RMSDP=1.17D-06 MaxDP=1.48D-04 DE=-1.01D-07 OVMax= 1.65D-03

 Cycle  20  Pass 1  IDiag  1:
 RMSU=  4.55D-07    CP:  9.78D-01  2.71D+00  8.71D-01  8.45D-01  1.27D+00
                    CP:  1.59D+00  2.16D+00  1.85D+00  1.94D+00  2.37D+00
                    CP:  2.64D+00  3.00D+00  3.00D+00  3.00D+00  3.00D+00
                    CP:  3.00D+00  3.00D+00  3.00D+00  2.57D+00
 E= -1976.21781310327     Delta-E=       -0.000000124162 Rises=F Damp=F
 DIIS: error= 3.35D-06 at cycle  20 NSaved=  20.
 NSaved=20 IEnMin=20 EnMin= -1976.21781310327     IErMin=20 ErrMin= 3.35D-06
 ErrMax= 3.35D-06  0.00D+00 EMaxC= 1.00D-01 BMatC= 9.89D-09 BMatP= 1.30D-08
 IDIUse=1 WtCom= 1.00D+00 WtEn= 0.00D+00
 Coeff-Com:  0.308D-05-0.306D-06 0.182D-03 0.268D-03 0.210D-03-0.142D-02
 Coeff-Com: -0.454D-02-0.215D-02 0.822D-02 0.434D-01 0.153D-01-0.945D-01
 Coeff-Com: -0.222D+00 0.552D-01 0.830D+00 0.473D+00-0.129D+01-0.160D+01
 Coeff-Com:  0.657D+00 0.213D+01
 Coeff:      0.308D-05-0.306D-06 0.182D-03 0.268D-03 0.210D-03-0.142D-02
 Coeff:     -0.454D-02-0.215D-02 0.822D-02 0.434D-01 0.153D-01-0.945D-01
 Coeff:     -0.222D+00 0.552D-01 0.830D+00 0.473D+00-0.129D+01-0.160D+01
 Coeff:      0.657D+00 0.213D+01
 Gap=     0.084 Goal=   None    Shift=    0.000
 Gap=     0.137 Goal=   None    Shift=    0.000
 RMSDP=2.53D-06 MaxDP=3.21D-04 DE=-1.24D-07 OVMax= 3.58D-03

 Cycle  21  Pass 1  IDiag  1:
 Restarting incremental Fock formation.
 E= -1976.21781331468     Delta-E=       -0.000000211410 Rises=F Damp=F
 DIIS: error= 2.57D-06 at cycle  21 NSaved=  20.
 NSaved=20 IEnMin=20 EnMin= -1976.21781331468     IErMin=20 ErrMin= 2.57D-06
 ErrMax= 2.57D-06  0.00D+00 EMaxC= 1.00D-01 BMatC= 6.40D-09 BMatP= 9.89D-09
 IDIUse=1 WtCom= 1.00D+00 WtEn= 0.00D+00
 Coeff-Com:  0.529D-05 0.131D-03 0.204D-03 0.367D-03 0.175D-03-0.224D-02
 Coeff-Com: -0.393D-02-0.491D-02 0.247D-01 0.444D-01 0.225D-02-0.221D+00
 Coeff-Com: -0.246D+00 0.466D+00 0.983D+00-0.215D+00-0.157D+01-0.108D+01
 Coeff-Com:  0.171D+01 0.111D+01
 Coeff:      0.529D-05 0.131D-03 0.204D-03 0.367D-03 0.175D-03-0.224D-02
 Coeff:     -0.393D-02-0.491D-02 0.247D-01 0.444D-01 0.225D-02-0.221D+00
 Coeff:     -0.246D+00 0.466D+00 0.983D+00-0.215D+00-0.157D+01-0.108D+01
 Coeff:      0.171D+01 0.111D+01
 Gap=     0.084 Goal=   None    Shift=    0.000
 Gap=     0.137 Goal=   None    Shift=    0.000
 RMSDP=2.29D-06 MaxDP=2.91D-04 DE=-2.11D-07 OVMax= 3.23D-03

 Cycle  22  Pass 1  IDiag  1:
 RMSU=  2.28D-06    CP:  1.00D+00
 E= -1976.21781344125     Delta-E=       -0.000000126570 Rises=F Damp=F
 DIIS: error= 1.58D-06 at cycle  22 NSaved=  20.
 NSaved=20 IEnMin=20 EnMin= -1976.21781344125     IErMin=20 ErrMin= 1.58D-06
 ErrMax= 1.58D-06  0.00D+00 EMaxC= 1.00D-01 BMatC= 3.00D-09 BMatP= 6.40D-09
 IDIUse=1 WtCom= 1.00D+00 WtEn= 0.00D+00
 Coeff-Com: -0.887D-05-0.514D-04 0.165D-03 0.131D-02 0.180D-02-0.128D-02
 Coeff-Com: -0.113D-01-0.102D-01 0.153D-01 0.815D-01 0.142D-02-0.256D+00
 Coeff-Com: -0.278D+00 0.185D+00 0.126D+01-0.281D-01-0.173D+01-0.185D+00
 Coeff-Com:  0.837D+00 0.112D+01
 Coeff:     -0.887D-05-0.514D-04 0.165D-03 0.131D-02 0.180D-02-0.128D-02
 Coeff:     -0.113D-01-0.102D-01 0.153D-01 0.815D-01 0.142D-02-0.256D+00
 Coeff:     -0.278D+00 0.185D+00 0.126D+01-0.281D-01-0.173D+01-0.185D+00
 Coeff:      0.837D+00 0.112D+01
 Gap=     0.084 Goal=   None    Shift=    0.000
 Gap=     0.137 Goal=   None    Shift=    0.000
 RMSDP=2.46D-06 MaxDP=3.14D-04 DE=-1.27D-07 OVMax= 3.48D-03

 Cycle  23  Pass 1  IDiag  1:
 RMSU=  4.83D-08    CP:  1.00D+00  2.08D+00
 E= -1976.21781351245     Delta-E=       -0.000000071200 Rises=F Damp=F
 DIIS: error= 6.05D-07 at cycle  23 NSaved=  20.
 NSaved=20 IEnMin=20 EnMin= -1976.21781351245     IErMin=20 ErrMin= 6.05D-07
 ErrMax= 6.05D-07  0.00D+00 EMaxC= 1.00D-01 BMatC= 6.08D-10 BMatP= 3.00D-09
 IDIUse=1 WtCom= 1.00D+00 WtEn= 0.00D+00
 Coeff-Com: -0.113D-04 0.273D-04 0.171D-03 0.390D-03 0.297D-03-0.101D-02
 Coeff-Com: -0.250D-02-0.109D-01 0.155D-01 0.498D-01 0.151D-01-0.152D+00
 Coeff-Com: -0.337D+00 0.475D+00 0.443D+00-0.122D+00-0.500D+00-0.239D+00
 Coeff-Com:  0.224D+00 0.114D+01
 Coeff:     -0.113D-04 0.273D-04 0.171D-03 0.390D-03 0.297D-03-0.101D-02
 Coeff:     -0.250D-02-0.109D-01 0.155D-01 0.498D-01 0.151D-01-0.152D+00
 Coeff:     -0.337D+00 0.475D+00 0.443D+00-0.122D+00-0.500D+00-0.239D+00
 Coeff:      0.224D+00 0.114D+01
 Gap=     0.084 Goal=   None    Shift=    0.000
 Gap=     0.137 Goal=   None    Shift=    0.000
 RMSDP=7.99D-07 MaxDP=1.02D-04 DE=-7.12D-08 OVMax= 1.13D-03

 Cycle  24  Pass 1  IDiag  1:
 RMSU=  3.26D-08    CP:  1.00D+00  2.43D+00  1.66D+00
 E= -1976.21781352192     Delta-E=       -0.000000009471 Rises=F Damp=F
 DIIS: error= 2.88D-07 at cycle  24 NSaved=  20.
 NSaved=20 IEnMin=20 EnMin= -1976.21781352192     IErMin=20 ErrMin= 2.88D-07
 ErrMax= 2.88D-07  0.00D+00 EMaxC= 1.00D-01 BMatC= 2.29D-10 BMatP= 6.08D-10
 IDIUse=1 WtCom= 1.00D+00 WtEn= 0.00D+00
 Coeff-Com: -0.710D-04-0.410D-03-0.319D-03 0.975D-03 0.372D-02 0.201D-02
 Coeff-Com: -0.149D-01-0.201D-01 0.307D-01 0.965D-01 0.492D-02-0.265D+00
 Coeff-Com: -0.131D+00 0.237D+00 0.463D+00-0.181D+00-0.384D+00-0.265D+00
 Coeff-Com:  0.524D+00 0.900D+00
 Coeff:     -0.710D-04-0.410D-03-0.319D-03 0.975D-03 0.372D-02 0.201D-02
 Coeff:     -0.149D-01-0.201D-01 0.307D-01 0.965D-01 0.492D-02-0.265D+00
 Coeff:     -0.131D+00 0.237D+00 0.463D+00-0.181D+00-0.384D+00-0.265D+00
 Coeff:      0.524D+00 0.900D+00
 Gap=     0.084 Goal=   None    Shift=    0.000
 Gap=     0.137 Goal=   None    Shift=    0.000
 RMSDP=5.20D-07 MaxDP=6.67D-05 DE=-9.47D-09 OVMax= 7.35D-04

 Cycle  25  Pass 1  IDiag  1:
 RMSU=  1.00D-08    CP:  1.00D+00  2.65D+00  2.11D+00  1.46D+00
 E= -1976.21781352414     Delta-E=       -0.000000002218 Rises=F Damp=F
 DIIS: error= 1.64D-07 at cycle  25 NSaved=  20.
 NSaved=20 IEnMin=20 EnMin= -1976.21781352414     IErMin=20 ErrMin= 1.64D-07
 ErrMax= 1.64D-07  0.00D+00 EMaxC= 1.00D-01 BMatC= 4.89D-11 BMatP= 2.29D-10
 IDIUse=1 WtCom= 1.00D+00 WtEn= 0.00D+00
 Coeff-Com: -0.111D-04-0.124D-03-0.116D-03-0.772D-04 0.511D-03 0.193D-02
 Coeff-Com: -0.784D-03-0.842D-02-0.223D-03 0.399D-01 0.487D-01-0.124D+00
 Coeff-Com: -0.101D+00 0.921D-01 0.139D+00 0.158D-02-0.126D+00-0.218D+00
 Coeff-Com:  0.198D+00 0.106D+01
 Coeff:     -0.111D-04-0.124D-03-0.116D-03-0.772D-04 0.511D-03 0.193D-02
 Coeff:     -0.784D-03-0.842D-02-0.223D-03 0.399D-01 0.487D-01-0.124D+00
 Coeff:     -0.101D+00 0.921D-01 0.139D+00 0.158D-02-0.126D+00-0.218D+00
 Coeff:      0.198D+00 0.106D+01
 Gap=     0.084 Goal=   None    Shift=    0.000
 Gap=     0.137 Goal=   None    Shift=    0.000
 RMSDP=7.64D-08 MaxDP=9.55D-06 DE=-2.22D-09 OVMax= 1.05D-04

 Cycle  26  Pass 1  IDiag  1:
 RMSU=  8.73D-09    CP:  1.00D+00  2.69D+00  2.27D+00  1.84D+00  1.49D+00
 E= -1976.21781352471     Delta-E=       -0.000000000568 Rises=F Damp=F
 DIIS: error= 1.26D-07 at cycle  26 NSaved=  20.
 NSaved=20 IEnMin=20 EnMin= -1976.21781352471     IErMin=20 ErrMin= 1.26D-07
 ErrMax= 1.26D-07  0.00D+00 EMaxC= 1.00D-01 BMatC= 1.96D-11 BMatP= 4.89D-11
 IDIUse=1 WtCom= 1.00D+00 WtEn= 0.00D+00
 Coeff-Com: -0.778D-04-0.175D-03-0.182D-03 0.629D-03 0.335D-02 0.117D-03
 Coeff-Com: -0.131D-01-0.161D-01 0.304D-01 0.892D-01-0.581D-01-0.117D+00
 Coeff-Com: -0.567D-01 0.133D+00 0.958D-01-0.921D-02-0.248D+00-0.135D+00
 Coeff-Com:  0.494D+00 0.807D+00
 Coeff:     -0.778D-04-0.175D-03-0.182D-03 0.629D-03 0.335D-02 0.117D-03
 Coeff:     -0.131D-01-0.161D-01 0.304D-01 0.892D-01-0.581D-01-0.117D+00
 Coeff:     -0.567D-01 0.133D+00 0.958D-01-0.921D-02-0.248D+00-0.135D+00
 Coeff:      0.494D+00 0.807D+00
 Gap=     0.084 Goal=   None    Shift=    0.000
 Gap=     0.137 Goal=   None    Shift=    0.000
 RMSDP=5.65D-08 MaxDP=7.14D-06 DE=-5.68D-10 OVMax= 7.95D-05

 Cycle  27  Pass 1  IDiag  1:
 RMSU=  3.45D-09    CP:  1.00D+00  2.71D+00  2.34D+00  2.00D+00  1.86D+00
                    CP:  1.41D+00
 E= -1976.21781352481     Delta-E=       -0.000000000106 Rises=F Damp=F
 DIIS: error= 7.30D-08 at cycle  27 NSaved=  20.
 NSaved=20 IEnMin=20 EnMin= -1976.21781352481     IErMin=20 ErrMin= 7.30D-08
 ErrMax= 7.30D-08  0.00D+00 EMaxC= 1.00D-01 BMatC= 5.63D-12 BMatP= 1.96D-11
 IDIUse=1 WtCom= 1.00D+00 WtEn= 0.00D+00
 Coeff-Com: -0.268D-04 0.847D-04 0.152D-03 0.180D-04-0.440D-03-0.903D-03
 Coeff-Com: -0.137D-02-0.817D-03 0.332D-02 0.116D-01 0.590D-02-0.358D-01
 Coeff-Com: -0.219D-02 0.189D-01 0.245D-01 0.123D-01-0.911D-01-0.225D+00
 Coeff-Com:  0.219D+00 0.106D+01
 Coeff:     -0.268D-04 0.847D-04 0.152D-03 0.180D-04-0.440D-03-0.903D-03
 Coeff:     -0.137D-02-0.817D-03 0.332D-02 0.116D-01 0.590D-02-0.358D-01
 Coeff:     -0.219D-02 0.189D-01 0.245D-01 0.123D-01-0.911D-01-0.225D+00
 Coeff:      0.219D+00 0.106D+01
 Gap=     0.084 Goal=   None    Shift=    0.000
 Gap=     0.137 Goal=   None    Shift=    0.000
 RMSDP=2.78D-08 MaxDP=3.48D-06 DE=-1.06D-10 OVMax= 3.79D-05

 Cycle  28  Pass 1  IDiag  1:
 RMSU=  2.17D-09    CP:  1.00D+00  2.72D+00  2.37D+00  2.11D+00  2.03D+00
                    CP:  1.79D+00  1.81D+00
 E= -1976.21781352451     Delta-E=        0.000000000306 Rises=F Damp=F
 DIIS: error= 3.46D-08 at cycle  28 NSaved=  20.
 NSaved=20 IEnMin=19 EnMin= -1976.21781352481     IErMin=20 ErrMin= 3.46D-08
 ErrMax= 3.46D-08  0.00D+00 EMaxC= 1.00D-01 BMatC= 1.94D-12 BMatP= 5.63D-12
 IDIUse=1 WtCom= 1.00D+00 WtEn= 0.00D+00
 Coeff-Com:  0.658D-04-0.437D-04-0.507D-03 0.205D-03 0.220D-02 0.167D-02
 Coeff-Com: -0.787D-02-0.174D-01 0.199D-01 0.303D-01-0.647D-02-0.316D-01
 Coeff-Com: -0.130D-01 0.121D-01 0.643D-01 0.532D-03-0.212D+00-0.151D+00
 Coeff-Com:  0.373D+00 0.935D+00
 Coeff:      0.658D-04-0.437D-04-0.507D-03 0.205D-03 0.220D-02 0.167D-02
 Coeff:     -0.787D-02-0.174D-01 0.199D-01 0.303D-01-0.647D-02-0.316D-01
 Coeff:     -0.130D-01 0.121D-01 0.643D-01 0.532D-03-0.212D+00-0.151D+00
 Coeff:      0.373D+00 0.935D+00
 Gap=     0.084 Goal=   None    Shift=    0.000
 Gap=     0.137 Goal=   None    Shift=    0.000
 RMSDP=1.82D-08 MaxDP=2.31D-06 DE= 3.06D-10 OVMax= 2.48D-05

 Cycle  29  Pass 1  IDiag  1:
 RMSU=  1.09D-09    CP:  1.00D+00  2.73D+00  2.39D+00  2.17D+00  2.12D+00
                    CP:  2.01D+00  2.31D+00  1.48D+00
 E= -1976.21781352444     Delta-E=        0.000000000069 Rises=F Damp=F
 DIIS: error= 1.78D-08 at cycle  29 NSaved=  20.
 NSaved=20 IEnMin=18 EnMin= -1976.21781352481     IErMin=20 ErrMin= 1.78D-08
 ErrMax= 1.78D-08  0.00D+00 EMaxC= 1.00D-01 BMatC= 1.03D-12 BMatP= 1.94D-12
 IDIUse=1 WtCom= 1.00D+00 WtEn= 0.00D+00
 Coeff-Com:  0.203D-04-0.212D-03-0.790D-04 0.590D-03 0.158D-02-0.125D-02
 Coeff-Com: -0.821D-02 0.418D-02 0.119D-01 0.661D-02-0.126D-01-0.110D-01
 Coeff-Com: -0.116D-02 0.293D-01 0.268D-01-0.398D-01-0.148D+00-0.148D+00
 Coeff-Com:  0.517D+00 0.772D+00
 Coeff:      0.203D-04-0.212D-03-0.790D-04 0.590D-03 0.158D-02-0.125D-02
 Coeff:     -0.821D-02 0.418D-02 0.119D-01 0.661D-02-0.126D-01-0.110D-01
 Coeff:     -0.116D-02 0.293D-01 0.268D-01-0.398D-01-0.148D+00-0.148D+00
 Coeff:      0.517D+00 0.772D+00
 Gap=     0.084 Goal=   None    Shift=    0.000
 Gap=     0.137 Goal=   None    Shift=    0.000
 RMSDP=1.30D-08 MaxDP=1.61D-06 DE= 6.91D-11 OVMax= 1.81D-05

 Cycle  30  Pass 1  IDiag  1:
 RMSU=  7.59D-10    CP:  1.00D+00  2.72D+00  2.40D+00  2.20D+00  2.15D+00
                    CP:  2.10D+00  2.53D+00  1.86D+00  1.27D+00
 E= -1976.21781352455     Delta-E=       -0.000000000108 Rises=F Damp=F
 DIIS: error= 1.22D-08 at cycle  30 NSaved=  20.
 NSaved=20 IEnMin=17 EnMin= -1976.21781352481     IErMin=20 ErrMin= 1.22D-08
 ErrMax= 1.22D-08  0.00D+00 EMaxC= 1.00D-01 BMatC= 3.67D-13 BMatP= 1.03D-12
 IDIUse=1 WtCom= 1.00D+00 WtEn= 0.00D+00
 Coeff-Com:  0.145D-04-0.557D-04-0.166D-03 0.578D-03 0.208D-02 0.784D-03
 Coeff-Com: -0.706D-02-0.430D-02 0.104D-01 0.599D-02-0.335D-02-0.932D-02
 Coeff-Com: -0.103D-01 0.222D-01 0.763D-01-0.326D-01-0.276D+00-0.668D-01
 Coeff-Com:  0.456D+00 0.835D+00
 Coeff:      0.145D-04-0.557D-04-0.166D-03 0.578D-03 0.208D-02 0.784D-03
 Coeff:     -0.706D-02-0.430D-02 0.104D-01 0.599D-02-0.335D-02-0.932D-02
 Coeff:     -0.103D-01 0.222D-01 0.763D-01-0.326D-01-0.276D+00-0.668D-01
 Coeff:      0.456D+00 0.835D+00
 Gap=     0.084 Goal=   None    Shift=    0.000
 Gap=     0.137 Goal=   None    Shift=    0.000
 RMSDP=4.61D-09 MaxDP=5.51D-07 DE=-1.08D-10 OVMax= 6.35D-06

 Error on total polarization charges =  0.02570
 SCF Done:  E(UM062X) =  -1976.21781352     A.U. after   30 cycles
            NFock= 30  Conv=0.46D-08     -V/T= 2.0054
 <Sx>= 0.0000 <Sy>= 0.0000 <Sz>= 0.5000 <S**2>= 0.7818 S= 0.5158
 <L.S>= 0.000000000000E+00
 KE= 1.965620364909D+03 PE=-1.393314125985D+04 EE= 5.342714754590D+03
 Annihilation of the first spin contaminant:
 S**2 before annihilation     0.7818,   after     0.7508
 Leave Link  502 at Tue Oct 28 20:09:14 2025, MaxMem= 30870077440 cpu:          148340.2 elap:            2341.5
 (Enter /public/software/gauss/g16/l601.exe)
 Copying SCF densities to generalized density rwf, IOpCl= 1 IROHF=0.

 **********************************************************************

            Population analysis using the SCF density.

 **********************************************************************

 Orbital symmetries:
 Alpha Orbitals:
       Occupied  (A) (A) (A) (A) (A) (A) (A) (A) (A) (A) (A) (A)
                 (A) (A) (A) (A) (A) (A) (A) (A) (A) (A) (A) (A)
                 (A) (A) (A) (A) (A) (A) (A) (A) (A) (A) (A) (A)
                 (A) (A) (A) (A) (A) (A) (A) (A) (A) (A) (A) (A)
                 (A) (A) (A) (A) (A) (A) (A) (A) (A) (A) (A) (A)
                 (A) (A) (A) (A) (A) (A) (A) (A) (A) (A) (A) (A)
                 (A) (A) (A) (A) (A) (A) (A) (A) (A) (A) (A) (A)
                 (A) (A) (A) (A) (A) (A) (A) (A) (A) (A) (A) (A)
                 (A) (A) (A) (A) (A) (A) (A) (A) (A) (A) (A) (A)
                 (A) (A) (A) (A) (A) (A) (A) (A) (A) (A) (A) (A)
                 (A) (A) (A) (A) (A) (A) (A) (A) (A) (A) (A) (A)
                 (A) (A) (A) (A) (A) (A) (A) (A) (A) (A) (A) (A)
                 (A) (A) (A) (A) (A) (A) (A) (A) (A)
       Virtual   (A) (A) (A) (A) (A) (A) (A) (A) (A) (A) (A) (A)
                 (A) (A) (A) (A) (A) (A) (A) (A) (A) (A) (A) (A)
                 (A) (A) (A) (A) (A) (A) (A) (A) (A) (A) (A) (A)
                 (A) (A) (A) (A) (A) (A) (A) (A) (A) (A) (A) (A)
                 (A) (A) (A) (A) (A) (A) (A) (A) (A) (A) (A) (A)
                 (A) (A) (A) (A) (A) (A) (A) (A) (A) (A) (A) (A)
                 (A) (A) (A) (A) (A) (A) (A) (A) (A) (A) (A) (A)
                 (A) (A) (A) (A) (A) (A) (A) (A) (A) (A) (A) (A)
                 (A) (A) (A) (A) (A) (A) (A) (A) (A) (A) (A) (A)
                 (A) (A) (A) (A) (A) (A) (A) (A) (A) (A) (A) (A)
                 (A) (A) (A) (A) (A) (A) (A) (A) (A) (A) (A) (A)
                 (A) (A) (A) (A) (A) (A) (A) (A) (A) (A) (A) (A)
                 (A) (A) (A) (A) (A) (A) (A) (A) (A) (A) (A) (A)
                 (A) (A) (A) (A) (A) (A) (A) (A) (A) (A) (A) (A)
                 (A) (A) (A) (A) (A) (A) (A) (A) (A) (A) (A) (A)
                 (A) (A) (A) (A) (A) (A) (A) (A) (A) (A) (A) (A)
                 (A) (A) (A) (A) (A) (A) (A) (A) (A) (A) (A) (A)
                 (A) (A) (A) (A) (A) (A) (A) (A) (A) (A) (A) (A)
                 (A) (A) (A) (A) (A) (A) (A) (A) (A) (A) (A) (A)
                 (A) (A) (A) (A) (A) (A) (A) (A) (A) (A) (A) (A)
                 (A) (A) (A) (A) (A) (A) (A) (A) (A) (A) (A) (A)
                 (A) (A) (A) (A) (A) (A) (A) (A) (A) (A) (A) (A)
                 (A) (A) (A) (A) (A) (A) (A) (A) (A) (A) (A) (A)
                 (A) (A) (A) (A) (A) (A) (A) (A) (A) (A) (A) (A)
                 (A) (A) (A) (A) (A) (A) (A) (A) (A) (A) (A) (A)
                 (A) (A) (A) (A) (A) (A) (A) (A) (A) (A) (A) (A)
                 (A) (A) (A) (A) (A) (A) (A) (A) (A) (A) (A) (A)
                 (A) (A) (A) (A) (A) (A) (A) (A) (A) (A) (A) (A)
                 (A) (A) (A) (A) (A) (A) (A) (A) (A) (A) (A) (A)
                 (A) (A) (A) (A) (A) (A) (A) (A) (A) (A) (A) (A)
                 (A) (A) (A) (A) (A) (A) (A) (A) (A) (A) (A) (A)
                 (A) (A) (A) (A) (A) (A) (A) (A) (A) (A) (A) (A)
                 (A) (A) (A) (A) (A) (A) (A) (A) (A) (A) (A) (A)
                 (A) (A) (A) (A) (A) (A) (A) (A) (A) (A) (A) (A)
                 (A) (A) (A) (A) (A) (A) (A) (A) (A) (A) (A) (A)
                 (A) (A) (A) (A) (A) (A) (A) (A) (A) (A) (A) (A)
                 (A) (A) (A) (A) (A) (A) (A) (A) (A) (A) (A) (A)
                 (A) (A) (A) (A) (A) (A) (A) (A) (A) (A) (A) (A)
                 (A) (A) (A) (A) (A) (A) (A) (A) (A) (A) (A) (A)
                 (A) (A) (A) (A) (A) (A) (A) (A) (A) (A) (A) (A)
                 (A) (A) (A) (A) (A) (A) (A) (A) (A) (A) (A) (A)
                 (A) (A) (A) (A) (A) (A) (A) (A) (A) (A) (A) (A)
                 (A) (A) (A) (A) (A) (A) (A) (A) (A) (A) (A) (A)
                 (A) (A) (A) (A) (A) (A) (A) (A) (A) (A) (A) (A)
                 (A) (A) (A) (A) (A) (A) (A) (A) (A) (A) (A) (A)
                 (A) (A) (A) (A) (A) (A) (A) (A) (A) (A) (A) (A)
                 (A) (A) (A) (A) (A) (A) (A) (A) (A) (A) (A) (A)
                 (A) (A) (A) (A) (A) (A) (A) (A) (A) (A) (A) (A)
                 (A) (A) (A) (A) (A) (A) (A) (A) (A) (A) (A) (A)
                 (A) (A) (A) (A) (A) (A) (A) (A) (A) (A) (A) (A)
                 (A) (A) (A) (A) (A) (A) (A) (A) (A) (A) (A) (A)
                 (A) (A) (A) (A) (A) (A) (A) (A) (A) (A) (A) (A)
                 (A) (A) (A) (A) (A) (A) (A) (A) (A) (A) (A) (A)
                 (A) (A) (A) (A) (A) (A) (A) (A) (A) (A) (A) (A)
                 (A) (A) (A) (A) (A) (A) (A) (A) (A) (A) (A) (A)
                 (A) (A) (A) (A) (A) (A) (A) (A) (A) (A) (A) (A)
                 (A) (A) (A) (A) (A) (A) (A) (A) (A) (A) (A) (A)
                 (A) (A) (A) (A) (A) (A) (A) (A) (A) (A) (A) (A)
                 (A) (A) (A) (A) (A) (A) (A) (A) (A) (A) (A) (A)
                 (A) (A) (A) (A) (A) (A) (A) (A) (A) (A) (A) (A)
                 (A) (A) (A) (A) (A) (A) (A) (A) (A) (A) (A) (A)
                 (A) (A) (A) (A) (A) (A) (A) (A) (A) (A) (A) (A)
                 (A) (A) (A) (A) (A) (A) (A) (A) (A) (A) (A) (A)
                 (A) (A) (A) (A) (A) (A) (A) (A) (A) (A) (A) (A)
                 (A) (A) (A) (A) (A) (A) (A) (A) (A) (A) (A) (A)
                 (A) (A) (A) (A) (A) (A) (A) (A) (A) (A) (A) (A)
                 (A) (A) (A) (A) (A) (A) (A) (A) (A) (A) (A) (A)
                 (A) (A) (A) (A) (A) (A) (A) (A) (A) (A) (A) (A)
                 (A) (A) (A) (A) (A) (A) (A) (A) (A) (A) (A) (A)
                 (A) (A) (A) (A) (A) (A) (A) (A) (A) (A) (A) (A)
                 (A) (A) (A) (A) (A) (A) (A) (A) (A) (A) (A) (A)
                 (A) (A) (A) (A) (A) (A) (A) (A) (A) (A) (A) (A)
                 (A) (A) (A) (A) (A) (A) (A) (A) (A) (A) (A) (A)
                 (A) (A) (A) (A) (A) (A) (A) (A) (A) (A) (A) (A)
                 (A) (A) (A) (A) (A) (A) (A) (A) (A) (A) (A) (A)
                 (A) (A) (A) (A) (A) (A) (A) (A) (A) (A) (A) (A)
                 (A) (A) (A) (A) (A) (A) (A) (A) (A) (A) (A) (A)
                 (A) (A) (A) (A) (A) (A) (A) (A) (A) (A) (A) (A)
                 (A) (A) (A) (A) (A) (A) (A) (A) (A) (A) (A) (A)
                 (A) (A) (A) (A) (A) (A) (A) (A) (A) (A) (A) (A)
                 (A) (A) (A) (A) (A) (A) (A) (A) (A) (A) (A) (A)
                 (A) (A) (A) (A) (A) (A) (A) (A) (A) (A) (A) (A)
                 (A) (A) (A) (A) (A) (A) (A) (A) (A) (A) (A) (A)
                 (A) (A) (A) (A) (A) (A) (A) (A) (A) (A) (A) (A)
                 (A) (A) (A) (A) (A) (A) (A) (A) (A) (A) (A) (A)
                 (A) (A) (A) (A) (A) (A) (A) (A) (A) (A) (A) (A)
                 (A) (A) (A) (A) (A) (A) (A) (A) (A) (A) (A) (A)
                 (A) (A) (A) (A) (A) (A) (A) (A) (A) (A) (A) (A)
                 (A) (A) (A) (A) (A) (A) (A) (A) (A) (A) (A) (A)
                 (A) (A) (A) (A) (A) (A) (A) (A) (A) (A) (A) (A)
                 (A) (A) (A) (A) (A) (A) (A) (A) (A) (A) (A) (A)
                 (A) (A) (A) (A) (A) (A) (A) (A) (A) (A) (A) (A)
                 (A) (A) (A) (A) (A) (A) (A) (A) (A) (A) (A) (A)
                 (A) (A) (A) (A) (A) (A) (A) (A) (A) (A) (A) (A)
                 (A) (A) (A) (A) (A) (A) (A) (A) (A) (A) (A) (A)
                 (A) (A) (A) (A) (A) (A) (A) (A) (A) (A) (A) (A)
                 (A) (A) (A) (A) (A) (A) (A) (A) (A) (A) (A) (A)
                 (A) (A) (A) (A) (A) (A) (A) (A) (A) (A) (A) (A)
                 (A) (A) (A) (A) (A) (A) (A) (A) (A) (A) (A) (A)
                 (A) (A) (A) (A) (A) (A) (A) (A) (A) (A) (A) (A)
                 (A) (A) (A) (A) (A) (A) (A) (A) (A) (A) (A) (A)
                 (A) (A) (A) (A) (A) (A) (A) (A) (A) (A) (A) (A)
                 (A) (A) (A) (A) (A) (A) (A) (A) (A) (A) (A) (A)
                 (A) (A) (A) (A) (A) (A) (A) (A) (A) (A) (A) (A)
                 (A) (A) (A) (A) (A) (A) (A) (A) (A) (A) (A) (A)
                 (A) (A) (A) (A) (A) (A) (A) (A) (A) (A) (A) (A)
                 (A) (A) (A) (A) (A) (A) (A) (A) (A) (A) (A) (A)
                 (A) (A) (A) (A) (A) (A) (A) (A) (A) (A) (A) (A)
                 (A) (A) (A) (A) (A) (A) (A) (A) (A) (A) (A) (A)
                 (A) (A) (A) (A) (A) (A) (A) (A) (A) (A) (A) (A)
                 (A) (A) (A) (A) (A) (A) (A) (A) (A) (A) (A) (A)
                 (A) (A) (A) (A) (A) (A) (A) (A) (A) (A) (A) (A)
                 (A) (A) (A) (A) (A) (A) (A) (A) (A) (A) (A) (A)
                 (A) (A) (A) (A) (A) (A) (A) (A) (A) (A) (A) (A)
                 (A) (A) (A) (A) (A) (A) (A) (A) (A) (A) (A) (A)
                 (A) (A) (A) (A) (A) (A) (A) (A) (A) (A) (A) (A)
                 (A) (A) (A) (A) (A) (A) (A) (A) (A) (A) (A) (A)
                 (A) (A) (A) (A) (A) (A) (A) (A) (A) (A) (A) (A)
                 (A) (A) (A) (A) (A) (A) (A) (A) (A) (A) (A) (A)
                 (A) (A) (A) (A) (A) (A) (A) (A) (A) (A) (A) (A)
                 (A) (A) (A) (A) (A) (A) (A) (A) (A) (A) (A) (A)
                 (A) (A) (A) (A) (A) (A) (A) (A) (A) (A) (A) (A)
                 (A) (A) (A) (A) (A) (A) (A) (A) (A) (A) (A) (A)
                 (A) (A) (A) (A) (A) (A) (A) (A) (A) (A) (A) (A)
                 (A) (A) (A) (A) (A) (A) (A) (A) (A) (A) (A) (A)
                 (A) (A) (A) (A) (A) (A) (A) (A) (A) (A) (A) (A)
                 (A) (A) (A) (A) (A) (A) (A) (A) (A) (A) (A) (A)
                 (A) (A) (A) (A) (A) (A) (A) (A) (A) (A) (A) (A)
                 (A) (A) (A) (A) (A) (A) (A) (A) (A) (A) (A) (A)
                 (A) (A) (A) (A) (A) (A) (A) (A) (A) (A) (A) (A)
                 (A)
 Beta  Orbitals:
       Occupied  (A) (A) (A) (A) (A) (A) (A) (A) (A) (A) (A) (A)
                 (A) (A) (A) (A) (A) (A) (A) (A) (A) (A) (A) (A)
                 (A) (A) (A) (A) (A) (A) (A) (A) (A) (A) (A) (A)
                 (A) (A) (A) (A) (A) (A) (A) (A) (A) (A) (A) (A)
                 (A) (A) (A) (A) (A) (A) (A) (A) (A) (A) (A) (A)
                 (A) (A) (A) (A) (A) (A) (A) (A) (A) (A) (A) (A)
                 (A) (A) (A) (A) (A) (A) (A) (A) (A) (A) (A) (A)
                 (A) (A) (A) (A) (A) (A) (A) (A) (A) (A) (A) (A)
                 (A) (A) (A) (A) (A) (A) (A) (A) (A) (A) (A) (A)
                 (A) (A) (A) (A) (A) (A) (A) (A) (A) (A) (A) (A)
                 (A) (A) (A) (A) (A) (A) (A) (A) (A) (A) (A) (A)
                 (A) (A) (A) (A) (A) (A) (A) (A) (A) (A) (A) (A)
                 (A) (A) (A) (A) (A) (A) (A) (A)
       Virtual   (A) (A) (A) (A) (A) (A) (A) (A) (A) (A) (A) (A)
                 (A) (A) (A) (A) (A) (A) (A) (A) (A) (A) (A) (A)
                 (A) (A) (A) (A) (A) (A) (A) (A) (A) (A) (A) (A)
                 (A) (A) (A) (A) (A) (A) (A) (A) (A) (A) (A) (A)
                 (A) (A) (A) (A) (A) (A) (A) (A) (A) (A) (A) (A)
                 (A) (A) (A) (A) (A) (A) (A) (A) (A) (A) (A) (A)
                 (A) (A) (A) (A) (A) (A) (A) (A) (A) (A) (A) (A)
                 (A) (A) (A) (A) (A) (A) (A) (A) (A) (A) (A) (A)
                 (A) (A) (A) (A) (A) (A) (A) (A) (A) (A) (A) (A)
                 (A) (A) (A) (A) (A) (A) (A) (A) (A) (A) (A) (A)
                 (A) (A) (A) (A) (A) (A) (A) (A) (A) (A) (A) (A)
                 (A) (A) (A) (A) (A) (A) (A) (A) (A) (A) (A) (A)
                 (A) (A) (A) (A) (A) (A) (A) (A) (A) (A) (A) (A)
                 (A) (A) (A) (A) (A) (A) (A) (A) (A) (A) (A) (A)
                 (A) (A) (A) (A) (A) (A) (A) (A) (A) (A) (A) (A)
                 (A) (A) (A) (A) (A) (A) (A) (A) (A) (A) (A) (A)
                 (A) (A) (A) (A) (A) (A) (A) (A) (A) (A) (A) (A)
                 (A) (A) (A) (A) (A) (A) (A) (A) (A) (A) (A) (A)
                 (A) (A) (A) (A) (A) (A) (A) (A) (A) (A) (A) (A)
                 (A) (A) (A) (A) (A) (A) (A) (A) (A) (A) (A) (A)
                 (A) (A) (A) (A) (A) (A) (A) (A) (A) (A) (A) (A)
                 (A) (A) (A) (A) (A) (A) (A) (A) (A) (A) (A) (A)
                 (A) (A) (A) (A) (A) (A) (A) (A) (A) (A) (A) (A)
                 (A) (A) (A) (A) (A) (A) (A) (A) (A) (A) (A) (A)
                 (A) (A) (A) (A) (A) (A) (A) (A) (A) (A) (A) (A)
                 (A) (A) (A) (A) (A) (A) (A) (A) (A) (A) (A) (A)
                 (A) (A) (A) (A) (A) (A) (A) (A) (A) (A) (A) (A)
                 (A) (A) (A) (A) (A) (A) (A) (A) (A) (A) (A) (A)
                 (A) (A) (A) (A) (A) (A) (A) (A) (A) (A) (A) (A)
                 (A) (A) (A) (A) (A) (A) (A) (A) (A) (A) (A) (A)
                 (A) (A) (A) (A) (A) (A) (A) (A) (A) (A) (A) (A)
                 (A) (A) (A) (A) (A) (A) (A) (A) (A) (A) (A) (A)
                 (A) (A) (A) (A) (A) (A) (A) (A) (A) (A) (A) (A)
                 (A) (A) (A) (A) (A) (A) (A) (A) (A) (A) (A) (A)
                 (A) (A) (A) (A) (A) (A) (A) (A) (A) (A) (A) (A)
                 (A) (A) (A) (A) (A) (A) (A) (A) (A) (A) (A) (A)
                 (A) (A) (A) (A) (A) (A) (A) (A) (A) (A) (A) (A)
                 (A) (A) (A) (A) (A) (A) (A) (A) (A) (A) (A) (A)
                 (A) (A) (A) (A) (A) (A) (A) (A) (A) (A) (A) (A)
                 (A) (A) (A) (A) (A) (A) (A) (A) (A) (A) (A) (A)
                 (A) (A) (A) (A) (A) (A) (A) (A) (A) (A) (A) (A)
                 (A) (A) (A) (A) (A) (A) (A) (A) (A) (A) (A) (A)
                 (A) (A) (A) (A) (A) (A) (A) (A) (A) (A) (A) (A)
                 (A) (A) (A) (A) (A) (A) (A) (A) (A) (A) (A) (A)
                 (A) (A) (A) (A) (A) (A) (A) (A) (A) (A) (A) (A)
                 (A) (A) (A) (A) (A) (A) (A) (A) (A) (A) (A) (A)
                 (A) (A) (A) (A) (A) (A) (A) (A) (A) (A) (A) (A)
                 (A) (A) (A) (A) (A) (A) (A) (A) (A) (A) (A) (A)
                 (A) (A) (A) (A) (A) (A) (A) (A) (A) (A) (A) (A)
                 (A) (A) (A) (A) (A) (A) (A) (A) (A) (A) (A) (A)
                 (A) (A) (A) (A) (A) (A) (A) (A) (A) (A) (A) (A)
                 (A) (A) (A) (A) (A) (A) (A) (A) (A) (A) (A) (A)
                 (A) (A) (A) (A) (A) (A) (A) (A) (A) (A) (A) (A)
                 (A) (A) (A) (A) (A) (A) (A) (A) (A) (A) (A) (A)
                 (A) (A) (A) (A) (A) (A) (A) (A) (A) (A) (A) (A)
                 (A) (A) (A) (A) (A) (A) (A) (A) (A) (A) (A) (A)
                 (A) (A) (A) (A) (A) (A) (A) (A) (A) (A) (A) (A)
                 (A) (A) (A) (A) (A) (A) (A) (A) (A) (A) (A) (A)
                 (A) (A) (A) (A) (A) (A) (A) (A) (A) (A) (A) (A)
                 (A) (A) (A) (A) (A) (A) (A) (A) (A) (A) (A) (A)
                 (A) (A) (A) (A) (A) (A) (A) (A) (A) (A) (A) (A)
                 (A) (A) (A) (A) (A) (A) (A) (A) (A) (A) (A) (A)
                 (A) (A) (A) (A) (A) (A) (A) (A) (A) (A) (A) (A)
                 (A) (A) (A) (A) (A) (A) (A) (A) (A) (A) (A) (A)
                 (A) (A) (A) (A) (A) (A) (A) (A) (A) (A) (A) (A)
                 (A) (A) (A) (A) (A) (A) (A) (A) (A) (A) (A) (A)
                 (A) (A) (A) (A) (A) (A) (A) (A) (A) (A) (A) (A)
                 (A) (A) (A) (A) (A) (A) (A) (A) (A) (A) (A) (A)
                 (A) (A) (A) (A) (A) (A) (A) (A) (A) (A) (A) (A)
                 (A) (A) (A) (A) (A) (A) (A) (A) (A) (A) (A) (A)
                 (A) (A) (A) (A) (A) (A) (A) (A) (A) (A) (A) (A)
                 (A) (A) (A) (A) (A) (A) (A) (A) (A) (A) (A) (A)
                 (A) (A) (A) (A) (A) (A) (A) (A) (A) (A) (A) (A)
                 (A) (A) (A) (A) (A) (A) (A) (A) (A) (A) (A) (A)
                 (A) (A) (A) (A) (A) (A) (A) (A) (A) (A) (A) (A)
                 (A) (A) (A) (A) (A) (A) (A) (A) (A) (A) (A) (A)
                 (A) (A) (A) (A) (A) (A) (A) (A) (A) (A) (A) (A)
                 (A) (A) (A) (A) (A) (A) (A) (A) (A) (A) (A) (A)
                 (A) (A) (A) (A) (A) (A) (A) (A) (A) (A) (A) (A)
                 (A) (A) (A) (A) (A) (A) (A) (A) (A) (A) (A) (A)
                 (A) (A) (A) (A) (A) (A) (A) (A) (A) (A) (A) (A)
                 (A) (A) (A) (A) (A) (A) (A) (A) (A) (A) (A) (A)
                 (A) (A) (A) (A) (A) (A) (A) (A) (A) (A) (A) (A)
                 (A) (A) (A) (A) (A) (A) (A) (A) (A) (A) (A) (A)
                 (A) (A) (A) (A) (A) (A) (A) (A) (A) (A) (A) (A)
                 (A) (A) (A) (A) (A) (A) (A) (A) (A) (A) (A) (A)
                 (A) (A) (A) (A) (A) (A) (A) (A) (A) (A) (A) (A)
                 (A) (A) (A) (A) (A) (A) (A) (A) (A) (A) (A) (A)
                 (A) (A) (A) (A) (A) (A) (A) (A) (A) (A) (A) (A)
                 (A) (A) (A) (A) (A) (A) (A) (A) (A) (A) (A) (A)
                 (A) (A) (A) (A) (A) (A) (A) (A) (A) (A) (A) (A)
                 (A) (A) (A) (A) (A) (A) (A) (A) (A) (A) (A) (A)
                 (A) (A) (A) (A) (A) (A) (A) (A) (A) (A) (A) (A)
                 (A) (A) (A) (A) (A) (A) (A) (A) (A) (A) (A) (A)
                 (A) (A) (A) (A) (A) (A) (A) (A) (A) (A) (A) (A)
                 (A) (A) (A) (A) (A) (A) (A) (A) (A) (A) (A) (A)
                 (A) (A) (A) (A) (A) (A) (A) (A) (A) (A) (A) (A)
                 (A) (A) (A) (A) (A) (A) (A) (A) (A) (A) (A) (A)
                 (A) (A) (A) (A) (A) (A) (A) (A) (A) (A) (A) (A)
                 (A) (A) (A) (A) (A) (A) (A) (A) (A) (A) (A) (A)
                 (A) (A) (A) (A) (A) (A) (A) (A) (A) (A) (A) (A)
                 (A) (A) (A) (A) (A) (A) (A) (A) (A) (A) (A) (A)
                 (A) (A) (A) (A) (A) (A) (A) (A) (A) (A) (A) (A)
                 (A) (A) (A) (A) (A) (A) (A) (A) (A) (A) (A) (A)
                 (A) (A) (A) (A) (A) (A) (A) (A) (A) (A) (A) (A)
                 (A) (A) (A) (A) (A) (A) (A) (A) (A) (A) (A) (A)
                 (A) (A) (A) (A) (A) (A) (A) (A) (A) (A) (A) (A)
                 (A) (A) (A) (A) (A) (A) (A) (A) (A) (A) (A) (A)
                 (A) (A) (A) (A) (A) (A) (A) (A) (A) (A) (A) (A)
                 (A) (A) (A) (A) (A) (A) (A) (A) (A) (A) (A) (A)
                 (A) (A) (A) (A) (A) (A) (A) (A) (A) (A) (A) (A)
                 (A) (A) (A) (A) (A) (A) (A) (A) (A) (A) (A) (A)
                 (A) (A) (A) (A) (A) (A) (A) (A) (A) (A) (A) (A)
                 (A) (A) (A) (A) (A) (A) (A) (A) (A) (A) (A) (A)
                 (A) (A) (A) (A) (A) (A) (A) (A) (A) (A) (A) (A)
                 (A) (A) (A) (A) (A) (A) (A) (A) (A) (A) (A) (A)
                 (A) (A) (A) (A) (A) (A) (A) (A) (A) (A) (A) (A)
                 (A) (A) (A) (A) (A) (A) (A) (A) (A) (A) (A) (A)
                 (A) (A) (A) (A) (A) (A) (A) (A) (A) (A) (A) (A)
                 (A) (A) (A) (A) (A) (A) (A) (A) (A) (A) (A) (A)
                 (A) (A) (A) (A) (A) (A) (A) (A) (A) (A) (A) (A)
                 (A) (A) (A) (A) (A) (A) (A) (A) (A) (A) (A) (A)
                 (A) (A) (A) (A) (A) (A) (A) (A) (A) (A) (A) (A)
                 (A) (A) (A) (A) (A) (A) (A) (A) (A) (A) (A) (A)
                 (A) (A) (A) (A) (A) (A) (A) (A) (A) (A) (A) (A)
                 (A) (A) (A) (A) (A) (A) (A) (A) (A) (A) (A) (A)
                 (A) (A) (A) (A) (A) (A) (A) (A) (A) (A) (A) (A)
                 (A) (A) (A) (A) (A) (A) (A) (A) (A) (A) (A) (A)
                 (A) (A) (A) (A) (A) (A) (A) (A) (A) (A) (A) (A)
                 (A) (A) (A) (A) (A) (A) (A) (A) (A) (A) (A) (A)
                 (A) (A)
 The electronic state is 2-A.
 Alpha  occ. eigenvalues --  -25.19655 -25.19497 -19.64453 -19.64447 -14.97439
 Alpha  occ. eigenvalues --  -14.94945 -14.85033 -14.81756 -14.76694 -14.76520
 Alpha  occ. eigenvalues --  -10.60569 -10.59765 -10.57798 -10.57781 -10.57569
 Alpha  occ. eigenvalues --  -10.57527 -10.57190 -10.57088 -10.56305 -10.56299
 Alpha  occ. eigenvalues --  -10.56128 -10.55921 -10.55751 -10.55676 -10.55670
 Alpha  occ. eigenvalues --  -10.55576 -10.55415 -10.55319 -10.55089 -10.55003
 Alpha  occ. eigenvalues --  -10.54944 -10.54941 -10.54899 -10.54839 -10.54778
 Alpha  occ. eigenvalues --  -10.54732 -10.54701 -10.54657 -10.54585 -10.53216
 Alpha  occ. eigenvalues --  -10.53176 -10.52859 -10.52768  -7.11851  -1.31437
 Alpha  occ. eigenvalues --   -1.31247  -1.28189  -1.27820  -1.13222  -1.10713
 Alpha  occ. eigenvalues --   -1.08745  -1.06818  -0.99095  -0.97667  -0.96750
 Alpha  occ. eigenvalues --   -0.93698  -0.91299  -0.90706  -0.89465  -0.88842
 Alpha  occ. eigenvalues --   -0.88225  -0.86138  -0.85860  -0.85703  -0.84638
 Alpha  occ. eigenvalues --   -0.84163  -0.80508  -0.79843  -0.78842  -0.78000
 Alpha  occ. eigenvalues --   -0.75458  -0.72875  -0.71519  -0.70741  -0.70198
 Alpha  occ. eigenvalues --   -0.68931  -0.68592  -0.67457  -0.66474  -0.65114
 Alpha  occ. eigenvalues --   -0.64740  -0.63656  -0.63359  -0.62686  -0.61330
 Alpha  occ. eigenvalues --   -0.61190  -0.61175  -0.59897  -0.59680  -0.59361
 Alpha  occ. eigenvalues --   -0.58727  -0.58624  -0.57422  -0.57074  -0.56418
 Alpha  occ. eigenvalues --   -0.55705  -0.54536  -0.53586  -0.53242  -0.53100
 Alpha  occ. eigenvalues --   -0.52669  -0.52146  -0.52045  -0.51700  -0.51141
 Alpha  occ. eigenvalues --   -0.50882  -0.50469  -0.50078  -0.49908  -0.49681
 Alpha  occ. eigenvalues --   -0.48870  -0.48797  -0.48400  -0.48030  -0.47456
 Alpha  occ. eigenvalues --   -0.47117  -0.46987  -0.46928  -0.46262  -0.45818
 Alpha  occ. eigenvalues --   -0.45626  -0.45531  -0.45126  -0.44966  -0.44584
 Alpha  occ. eigenvalues --   -0.43564  -0.42765  -0.42473  -0.42189  -0.41662
 Alpha  occ. eigenvalues --   -0.41562  -0.40870  -0.40678  -0.40609  -0.39817
[...]
 
              Baa    -0.0668    -8.969    -3.200    -2.992  0.2124  0.9757 -0.0544
     4 C(13)  Bbb    -0.0654    -8.780    -3.133    -2.929  0.9759 -0.2089  0.0639
              Bcc     0.1323    17.749     6.333     5.920 -0.0510  0.0667  0.9965
 
              Baa    -0.0467    -6.261    -2.234    -2.088 -0.0491  0.2027  0.9780
     5 C(13)  Bbb     0.0199     2.674     0.954     0.892 -0.3800  0.9018 -0.2059
              Bcc     0.0267     3.587     1.280     1.197  0.9237  0.3817 -0.0327
 
              Baa    -0.0496    -6.660    -2.377    -2.222  0.3735  0.9048 -0.2047
     6 C(13)  Bbb    -0.0471    -6.319    -2.255    -2.108  0.9271 -0.3568  0.1147
              Bcc     0.0967    12.980     4.632     4.330 -0.0308  0.2326  0.9721
 
              Baa    -0.0171    -2.300    -0.821    -0.767 -0.0465  0.2357  0.9707
     7 C(13)  Bbb     0.0071     0.947     0.338     0.316  0.0658  0.9704 -0.2325
              Bcc     0.0101     1.354     0.483     0.452  0.9967 -0.0531  0.0606
 
              Baa    -0.0117    -1.566    -0.559    -0.522 -0.2353  0.9426 -0.2370
     8 C(13)  Bbb    -0.0106    -1.426    -0.509    -0.476  0.9705  0.2410 -0.0047
              Bcc     0.0223     2.992     1.068     0.998 -0.0527  0.2311  0.9715
 
              Baa    -0.0102    -1.373    -0.490    -0.458 -0.0529  0.2351  0.9705
     9 C(13)  Bbb     0.0046     0.617     0.220     0.206  0.1106  0.9673 -0.2283
              Bcc     0.0056     0.757     0.270     0.252  0.9925 -0.0952  0.0772
 
              Baa    -0.0137    -1.838    -0.656    -0.613  0.0409  0.9709 -0.2361
    10 C(13)  Bbb    -0.0132    -1.767    -0.630    -0.589  0.9978 -0.0272  0.0610
              Bcc     0.0269     3.605     1.286     1.202 -0.0528  0.2380  0.9698
 
              Baa    -0.0053    -0.204    -0.073    -0.068 -0.0556  0.2384  0.9696
    11 N(14)  Bbb     0.0016     0.062     0.022     0.021  0.5785  0.7992 -0.1633
              Bcc     0.0037     0.142     0.051     0.047  0.8138 -0.5518  0.1824
 
              Baa    -0.0034    -0.131    -0.047    -0.044  0.6104  0.7756 -0.1610
    12 N(14)  Bbb    -0.0001    -0.003    -0.001    -0.001  0.7903 -0.5822  0.1912
              Bcc     0.0035     0.134     0.048     0.045 -0.0545  0.2440  0.9683
 
              Baa    -0.0119    -0.457    -0.163    -0.152 -0.5709  0.7890 -0.2269
    13 N(14)  Bbb    -0.0093    -0.359    -0.128    -0.120  0.8193  0.5654 -0.0952
              Bcc     0.0212     0.816     0.291     0.272 -0.0532  0.2403  0.9692
 
              Baa    -0.0095    -1.281    -0.457    -0.427 -0.0538  0.2347  0.9706
    14 C(13)  Bbb     0.0042     0.559     0.199     0.186 -0.3018  0.9227 -0.2399
              Bcc     0.0054     0.722     0.258     0.241  0.9518  0.3058 -0.0212
 
              Baa    -0.0113    -1.522    -0.543    -0.508 -0.0983  0.9660 -0.2391
    15 C(13)  Bbb    -0.0107    -1.438    -0.513    -0.480  0.9931  0.1108  0.0393
              Bcc     0.0221     2.960     1.056     0.987 -0.0645  0.2336  0.9702
 
              Baa    -0.0207    -0.798    -0.285    -0.266  0.5805  0.7978  0.1630
    16 N(14)  Bbb    -0.0162    -0.623    -0.222    -0.208  0.7366 -0.5998  0.3126
              Bcc     0.0368     1.421     0.507     0.474 -0.3472  0.0614  0.9358
 
              Baa    -0.0517    -6.935    -2.475    -2.313 -0.0717  0.0558  0.9959
    17 C(13)  Bbb     0.0214     2.868     1.023     0.957 -0.6351  0.7673 -0.0887
              Bcc     0.0303     4.067     1.451     1.357  0.7691  0.6389  0.0195
 
              Baa    -0.1354   -18.175    -6.485    -6.062  0.2558  0.9631 -0.0832
    18 C(13)  Bbb    -0.1275   -17.113    -6.106    -5.708  0.9665 -0.2568 -0.0011
              Bcc     0.2630    35.288    12.592    11.771  0.0225  0.0801  0.9965
 
              Baa    -0.0284    -3.813    -1.361    -1.272  0.0821  0.2524  0.9641
    19 C(13)  Bbb    -0.0127    -1.710    -0.610    -0.570  0.9640 -0.2657 -0.0125
              Bcc     0.0412     5.523     1.971     1.842  0.2530  0.9304 -0.2651
 
              Baa    -0.0149    -1.994    -0.712    -0.665  0.2550  0.2251  0.9404
    20 C(13)  Bbb    -0.0076    -1.026    -0.366    -0.342  0.9584  0.0704 -0.2767
              Bcc     0.0225     3.020     1.078     1.007 -0.1285  0.9718 -0.1977
 
              Baa    -0.0146    -1.963    -0.700    -0.655 -0.0793  0.6827  0.7264
    21 C(13)  Bbb    -0.0090    -1.209    -0.431    -0.403  0.8440 -0.3418  0.4134
              Bcc     0.0236     3.172     1.132     1.058  0.5305  0.6458 -0.5491
 
              Baa    -0.0382    -5.131    -1.831    -1.711  0.1427  0.5372  0.8313
    22 C(13)  Bbb    -0.0235    -3.148    -1.123    -1.050  0.9674 -0.2532 -0.0024
              Bcc     0.0617     8.278     2.954     2.761  0.2092  0.8045 -0.5558
 
              Baa    -0.0959    -3.698    -1.320    -1.233  0.1416  0.5316  0.8351
    23 N(14)  Bbb    -0.0886    -3.418    -1.220    -1.140  0.9674 -0.2533 -0.0028
              Bcc     0.1845     7.116     2.539     2.374  0.2101  0.8083 -0.5501
 
              Baa    -0.1964    14.213     5.071     4.741 -0.3961  0.5820  0.7102
    24 O(17)  Bbb    -0.1831    13.251     4.728     4.420  0.8875  0.0443  0.4587
              Bcc     0.3796   -27.464    -9.800    -9.161  0.2355  0.8120 -0.5341
 
              Baa    -0.1966    14.223     5.075     4.744  0.6329  0.3132  0.7080
    25 O(17)  Bbb    -0.1833    13.262     4.732     4.424  0.7507 -0.4720 -0.4623
              Bcc     0.3798   -27.485    -9.807    -9.168  0.1894  0.8241 -0.5339
 
              Baa    -0.0147    -1.970    -0.703    -0.657  0.4080  0.5561  0.7241
    26 C(13)  Bbb    -0.0091    -1.227    -0.438    -0.409  0.9000 -0.1118 -0.4213
              Bcc     0.0238     3.197     1.141     1.067 -0.1533  0.8236 -0.5461
 
              Baa    -0.0148    -1.984    -0.708    -0.662 -0.1102  0.3184  0.9415
    27 C(13)  Bbb    -0.0076    -1.014    -0.362    -0.338  0.7994 -0.5345  0.2743
              Bcc     0.0223     2.997     1.069     1.000  0.5906  0.7829 -0.1956
 
              Baa    -0.0493    -6.609    -2.358    -2.205  0.1253  0.0375  0.9914
    28 C(13)  Bbb     0.0206     2.764     0.986     0.922  0.9264  0.3531 -0.1304
              Bcc     0.0287     3.846     1.372     1.283 -0.3550  0.9348  0.0095
 
              Baa    -0.0544    -7.296    -2.603    -2.434  0.9434 -0.3169 -0.0977
    29 C(13)  Bbb    -0.0534    -7.163    -2.556    -2.389  0.2946  0.9362 -0.1919
              Bcc     0.1078    14.459     5.159     4.823  0.1523  0.1523  0.9765
 
              Baa    -0.0020    -0.272    -0.097    -0.091 -0.0546  0.4337  0.8994
    30 C(13)  Bbb     0.0002     0.022     0.008     0.007 -0.6107  0.6981 -0.3737
              Bcc     0.0019     0.250     0.089     0.083  0.7900  0.5697 -0.2267
 
              Baa    -0.0282    -3.788    -1.352    -1.264  0.1721  0.1094  0.9790
    31 C(13)  Bbb     0.0136     1.822     0.650     0.608  0.1813  0.9733 -0.1406
              Bcc     0.0147     1.966     0.702     0.656  0.9683 -0.2017 -0.1476
 
              Baa    -0.0642    -8.616    -3.074    -2.874  0.3057  0.9468 -0.1010
    32 C(13)  Bbb    -0.0627    -8.416    -3.003    -2.807  0.9461 -0.3140 -0.0796
              Bcc     0.1269    17.031     6.077     5.681  0.1070  0.0712  0.9917
 
              Baa    -0.0440    -5.907    -2.108    -1.970  0.0414 -0.0258  0.9988
    33 C(13)  Bbb     0.0188     2.516     0.898     0.839  0.8046  0.5935 -0.0180
              Bcc     0.0253     3.391     1.210     1.131 -0.5923  0.8044  0.0453
 
              Baa    -0.0478    -6.417    -2.290    -2.140  0.1947  0.9804  0.0290
    34 C(13)  Bbb    -0.0452    -6.069    -2.165    -2.024  0.9803 -0.1935 -0.0409
              Bcc     0.0930    12.485     4.455     4.165  0.0345 -0.0364  0.9987
 
              Baa    -0.0145    -1.945    -0.694    -0.649  0.0209 -0.0356  0.9991
    35 C(13)  Bbb     0.0058     0.782     0.279     0.261  0.4733  0.8806  0.0215
              Bcc     0.0087     1.163     0.415     0.388  0.8806 -0.4725 -0.0352
 
              Baa    -0.0110    -1.478    -0.528    -0.493  0.7237  0.6900  0.0103
    36 C(13)  Bbb    -0.0098    -1.315    -0.469    -0.438 -0.6899  0.7231  0.0335
              Bcc     0.0208     2.793     0.997     0.932  0.0156 -0.0314  0.9994
 
              Baa    -0.0083    -1.111    -0.397    -0.371  0.0139 -0.0307  0.9994
    37 C(13)  Bbb     0.0036     0.482     0.172     0.161  0.4661  0.8845  0.0207
              Bcc     0.0047     0.629     0.225     0.210  0.8846 -0.4655 -0.0265
 
              Baa    -0.0121    -1.629    -0.581    -0.543  0.6212  0.7835  0.0176
    38 C(13)  Bbb    -0.0108    -1.443    -0.515    -0.481  0.7835 -0.6205 -0.0329
              Bcc     0.0229     3.071     1.096     1.025  0.0148 -0.0342  0.9993
 
              Baa    -0.0080    -1.074    -0.383    -0.358  0.0132 -0.0295  0.9995
    39 C(13)  Bbb     0.0034     0.459     0.164     0.153  0.7771  0.6294  0.0084
              Bcc     0.0046     0.614     0.219     0.205 -0.6293  0.7765  0.0312
 
              Baa    -0.0105    -1.411    -0.503    -0.471  0.5741  0.8187  0.0143
    40 C(13)  Bbb    -0.0098    -1.315    -0.469    -0.439  0.8188 -0.5739 -0.0167
              Bcc     0.0203     2.726     0.973     0.909  0.0055 -0.0213  0.9998
 
              Baa    -0.0223    -0.861    -0.307    -0.287 -0.1340  0.9808  0.1420
    41 N(14)  Bbb    -0.0171    -0.660    -0.235    -0.220  0.9139  0.1777 -0.3649
              Bcc     0.0394     1.521     0.543     0.507  0.3832 -0.0808  0.9201
 
              Baa    -0.0020    -0.341    -0.122    -0.114  0.0125  0.2309  0.9729
    42 B(11)  Bbb     0.0006     0.109     0.039     0.036  0.9806  0.1875 -0.0571
              Bcc     0.0014     0.232     0.083     0.078 -0.1956  0.9547 -0.2241
 
              Baa    -0.0038    -1.903    -0.679    -0.635 -0.2161  0.1059  0.9706
    43 F(19)  Bbb    -0.0023    -1.152    -0.411    -0.384  0.2050  0.9769 -0.0609
              Bcc     0.0061     3.055     1.090     1.019  0.9546 -0.1859  0.2328
 
              Baa    -0.0076    -3.826    -1.365    -1.276  0.3709  0.8796  0.2980
    44 F(19)  Bbb    -0.0057    -2.844    -1.015    -0.949  0.3125 -0.4204  0.8518
              Bcc     0.0133     6.670     2.380     2.225  0.8745 -0.2228 -0.4308
 
              Baa    -0.0023    -1.233    -0.440    -0.411  0.1685 -0.1084  0.9797
    45 H(1)   Bbb     0.0005     0.264     0.094     0.088  0.6213  0.7833 -0.0202
              Bcc     0.0018     0.969     0.346     0.323  0.7652 -0.6121 -0.1994
 
              Baa    -0.0023    -1.211    -0.432    -0.404 -0.0188  0.4443  0.8957
    46 H(1)   Bbb     0.0002     0.084     0.030     0.028  0.8389  0.4943 -0.2276
              Bcc     0.0021     1.127     0.402     0.376 -0.5439  0.7472 -0.3820
 
              Baa    -0.0014    -0.752    -0.268    -0.251 -0.0876  0.2149  0.9727
    47 H(1)   Bbb    -0.0007    -0.395    -0.141    -0.132  0.9629  0.2685  0.0274
              Bcc     0.0021     1.147     0.409     0.383 -0.2553  0.9390 -0.2305
 
              Baa    -0.0019    -1.029    -0.367    -0.343 -0.0035  0.1654  0.9862
    48 H(1)   Bbb    -0.0003    -0.160    -0.057    -0.053  0.5181  0.8439 -0.1397
              Bcc     0.0022     1.189     0.424     0.397  0.8553 -0.5104  0.0886
 
              Baa    -0.0021    -1.113    -0.397    -0.371 -0.2828  0.9571 -0.0627
    49 H(1)   Bbb    -0.0019    -0.996    -0.355    -0.332 -0.0073  0.0633  0.9980
              Bcc     0.0040     2.109     0.753     0.703  0.9591  0.2827 -0.0109
 
              Baa    -0.0047    -2.525    -0.901    -0.842  0.9015  0.4290 -0.0572
    50 H(1)   Bbb    -0.0015    -0.798    -0.285    -0.266 -0.0253  0.1841  0.9826
              Bcc     0.0062     3.323     1.186     1.108 -0.4321  0.8843 -0.1768
 
              Baa    -0.0008    -0.406    -0.145    -0.135 -0.0901  0.2157  0.9723
    51 H(1)   Bbb    -0.0005    -0.267    -0.095    -0.089  0.9304  0.3664  0.0049
              Bcc     0.0013     0.673     0.240     0.225 -0.3552  0.9051 -0.2337
 
              Baa    -0.0004    -0.233    -0.083    -0.078 -0.0592  0.2099  0.9759
    52 H(1)   Bbb    -0.0002    -0.122    -0.044    -0.041  0.2146  0.9575 -0.1929
              Bcc     0.0007     0.356     0.127     0.119  0.9749 -0.1981  0.1018
 
              Baa    -0.0005    -0.271    -0.097    -0.090 -0.0517  0.2096  0.9764
    53 H(1)   Bbb    -0.0003    -0.171    -0.061    -0.057 -0.3574  0.9091 -0.2141
              Bcc     0.0008     0.442     0.158     0.147  0.9325  0.3600 -0.0279
 
              Baa    -0.0008    -0.436    -0.155    -0.145  0.9090 -0.4043 -0.1012
    54 H(1)   Bbb    -0.0007    -0.384    -0.137    -0.128  0.1534  0.0989  0.9832
              Bcc     0.0015     0.820     0.292     0.273  0.3875  0.9093 -0.1519
 
              Baa    -0.0026    -1.365    -0.487    -0.455 -0.1382 -0.6864  0.7140
    55 H(1)   Bbb     0.0011     0.597     0.213     0.199  0.8834 -0.4114 -0.2245
              Bcc     0.0014     0.768     0.274     0.256  0.4478  0.5997  0.6632
 
              Baa    -0.0024    -1.301    -0.464    -0.434  0.1284  0.7398 -0.6605
    56 H(1)   Bbb     0.0004     0.222     0.079     0.074  0.5132  0.5203  0.6826
              Bcc     0.0020     1.080     0.385     0.360  0.8486 -0.4266 -0.3129
 
              Baa    -0.0024    -1.300    -0.464    -0.433  0.2482  0.7089 -0.6602
    57 H(1)   Bbb     0.0004     0.222     0.079     0.074 -0.1879  0.7039  0.6850
              Bcc     0.0020     1.078     0.384     0.359  0.9503 -0.0460  0.3079
 
              Baa    -0.0026    -1.377    -0.491    -0.459 -0.2057 -0.6744  0.7091
    58 H(1)   Bbb     0.0011     0.610     0.218     0.204  0.9769 -0.1851  0.1073
              Bcc     0.0014     0.766     0.273     0.256  0.0589  0.7148  0.6969
 
              Baa    -0.0023    -1.210    -0.432    -0.403  0.2683  0.4119  0.8708
    59 H(1)   Bbb     0.0001     0.064     0.023     0.021 -0.5081  0.8285 -0.2353
              Bcc     0.0021     1.145     0.409     0.382  0.8184  0.3794 -0.4316
 
              Baa    -0.0014    -0.739    -0.264    -0.246  0.2153  0.1856  0.9588
    60 H(1)   Bbb    -0.0007    -0.376    -0.134    -0.125 -0.6936  0.7201  0.0164
              Bcc     0.0021     1.115     0.398     0.372  0.6874  0.6686 -0.2838
 
              Baa    -0.0023    -1.221    -0.436    -0.407 -0.1651  0.0450  0.9853
    61 H(1)   Bbb     0.0005     0.284     0.101     0.095 -0.1186  0.9908 -0.0652
              Bcc     0.0018     0.938     0.335     0.313  0.9791  0.1276  0.1582
 
              Baa    -0.0019    -1.009    -0.360    -0.337  0.1606  0.0890  0.9830
    62 H(1)   Bbb    -0.0002    -0.106    -0.038    -0.035 -0.0350  0.9958 -0.0845
              Bcc     0.0021     1.116     0.398     0.372  0.9864  0.0208 -0.1631
 
              Baa    -0.0020    -1.044    -0.372    -0.348  0.6829  0.6349 -0.3612
    63 H(1)   Bbb    -0.0018    -0.972    -0.347    -0.324  0.2898  0.2184  0.9318
              Bcc     0.0038     2.016     0.719     0.672 -0.6705  0.7411  0.0348
 
              Baa    -0.0045    -2.398    -0.855    -0.800 -0.5340  0.8450  0.0284
    64 H(1)   Bbb    -0.0015    -0.801    -0.286    -0.267  0.0600  0.0044  0.9982
              Bcc     0.0060     3.198     1.141     1.067  0.8434  0.5347 -0.0531
 
              Baa    -0.0008    -0.412    -0.147    -0.138 -0.0039 -0.0024  1.0000
    65 H(1)   Bbb    -0.0004    -0.212    -0.076    -0.071 -0.5952  0.8036 -0.0004
              Bcc     0.0012     0.624     0.223     0.208  0.8035  0.5952  0.0046
 
              Baa    -0.0004    -0.240    -0.085    -0.080  0.0155 -0.0231  0.9996
    66 H(1)   Bbb    -0.0002    -0.086    -0.031    -0.029  0.4290  0.9032  0.0142
              Bcc     0.0006     0.326     0.116     0.109  0.9032 -0.4287 -0.0239
 
              Baa    -0.0018    -0.941    -0.336    -0.314  0.5959  0.8028  0.0196
    67 H(1)   Bbb    -0.0002    -0.101    -0.036    -0.034  0.0133 -0.0343  0.9993
              Bcc     0.0020     1.042     0.372     0.348  0.8030 -0.5952 -0.0312
 
              Baa    -0.0005    -0.251    -0.089    -0.084  0.0081 -0.0319  0.9995
    68 H(1)   Bbb    -0.0002    -0.108    -0.038    -0.036  0.8040  0.5944  0.0125
              Bcc     0.0007     0.358     0.128     0.120 -0.5945  0.8035  0.0305
 
              Baa    -0.0007    -0.396    -0.141    -0.132 -0.4670  0.0842  0.8802
    69 H(1)   Bbb    -0.0007    -0.371    -0.132    -0.124  0.8695 -0.1370  0.4745
              Bcc     0.0014     0.766     0.273     0.256  0.1605  0.9870 -0.0092
 

 ---------------------------------------------------------------------------------

 No NMR shielding tensors so no spin-rotation constants.
 Leave Link  601 at Tue Oct 28 20:09:16 2025, MaxMem= 30870077440 cpu:             158.7 elap:               2.8
 (Enter /public/software/gauss/g16/l9999.exe)
 1\1\GINC-CU031\SP\UM062X\def2TZVPP\C33H25B1F2N6O2(1-,2)\BAIDING\28-Oct
 -2025\0\\#p M062X/DEF2TZVPP scrf=(solvent=water) em=GD3\\Energy calcul
 ation for BNP_N3_reduced\\-1,2\C,0,2.926948,-3.699874,0.421195\C,0,1.7
 42961,-2.808027,0.188732\C,0,0.430277,-3.270086,0.17432\C,0,-0.437986,
 -2.170351,0.029182\C,0,-1.877081,-2.146651,-0.028411\C,0,-2.666151,-3.
 233432,0.172429\C,0,-4.121319,-3.27489,0.103477\C,0,-4.78159,-4.494282
 ,0.363944\C,0,-6.165597,-4.599058,0.315232\C,0,-6.936839,-3.474751,0.0
 00663\N,0,-8.34386,-3.666694,-0.029083\N,0,-9.069509,-2.704799,-0.3064
 56\N,0,-9.853475,-1.910598,-0.545693\C,0,-6.307021,-2.248206,-0.263427
 \C,0,-4.923771,-2.155661,-0.211829\N,0,0.325776,-1.030292,-0.063408\C,
 0,1.673336,-1.385999,0.011911\C,0,2.683015,-0.386464,-0.026736\C,0,4.1
 028,-0.764308,-0.029924\C,0,4.636985,-1.593655,-1.044374\C,0,5.975661,
 -1.936108,-1.066147\C,0,6.828689,-1.476189,-0.040354\N,0,8.189675,-1.8
 32226,-0.044165\O,0,8.640776,-2.580966,-0.969385\O,0,8.95304,-1.400563
 ,0.878225\C,0,6.317464,-0.657867,0.98946\C,0,4.982186,-0.301269,0.9774
 42\C,0,2.317415,0.986621,-0.074819\C,0,3.09455,2.167231,-0.32112\C,0,4
 .555057,2.315912,-0.631236\C,0,2.200838,3.2333,-0.315026\C,0,0.898869,
 2.735666,-0.105418\C,0,-0.348078,3.458498,-0.046886\C,0,-0.43622,4.811
 947,-0.007784\C,0,-1.659879,5.609042,0.036402\C,0,-1.546009,7.014297,0
 .080008\C,0,-2.674542,7.83073,0.122656\C,0,-3.950696,7.263141,0.123693
 \C,0,-4.083395,5.870367,0.081578\C,0,-2.957913,5.053154,0.038359\N,0,0
 .980546,1.370373,0.022289\B,0,-0.205964,0.398936,0.191052\F,0,-1.22029
 7,0.71238,-0.739215\F,0,-0.749148,0.492351,1.486009\H,0,3.483515,-3.91
 8861,-0.495879\H,0,3.63744,-3.260187,1.126835\H,0,2.583979,-4.653489,0
 .833184\H,0,0.126411,-4.304321,0.265507\H,0,-2.327031,-1.187983,-0.261
 507\H,0,-2.195159,-4.184729,0.413189\H,0,-4.191166,-5.372588,0.608963\
 H,0,-6.658491,-5.544045,0.518135\H,0,-6.89596,-1.369679,-0.509288\H,0,
 -4.461471,-1.196754,-0.421745\H,0,3.986743,-1.940331,-1.840788\H,0,6.3
 80072,-2.54392,-1.865117\H,0,6.97479,-0.325859,1.782652\H,0,4.590982,0
 .322571,1.774559\H,0,4.905475,1.550539,-1.329543\H,0,4.730345,3.296081
 ,-1.084373\H,0,5.188391,2.24666,0.259326\H,0,2.456183,4.269607,-0.4907
 13\H,0,-1.250189,2.857631,-0.042179\H,0,0.483499,5.394213,-0.005026\H,
 0,-0.555326,7.461312,0.079555\H,0,-2.557364,8.910059,0.15505\H,0,-4.83
 2577,7.895733,0.156494\H,0,-5.071903,5.420062,0.082088\H,0,-3.08873,3.
 976256,0.00594\\Version=ES64L-G16RevA.03\State=2-A\HF=-1976.2178135\S2
 =0.781773\S2-1=0.\S2A=0.750822\RMSD=4.609e-09\Dipole=-5.4300043,1.0487
 338,-0.3407514\Quadrupole=-92.7418002,53.4864757,39.2553245,25.9792571
 ,0.3158481,-2.0466366\PG=C01 [X(C33H25B1F2N6O2)]\\@


 SUPPORT THE RIGHT TO ARM BEARS!
 (ADD A CLAWS TO THE BILL OF RIGHTS)
 Job cpu time:       1 days 17 hours 34 minutes 10.1 seconds.
 Elapsed time:       0 days  0 hours 39 minutes 22.6 seconds.
 File lengths (MBytes):  RWF=   3159 Int=      0 D2E=      0 Chk=    205 Scr=      1
 Normal termination of Gaussian 16 at Tue Oct 28 20:09:17 2025.
