 Entering Gaussian System, Link 0=g16
 Input=BONO_NO2_sp.gjf
 Output=BONO_NO2_sp.log
 Initial command:
 /public/software/gauss/g16/l1.exe "/public/home/baiding/1024_sp/tmp_BONO_NO2_sp_1526250/Gau-2971649.inp" -scrdir="/public/home/baiding/1024_sp/tmp_BONO_NO2_sp_1526250/"
 Entering Link 1 = /public/software/gauss/g16/l1.exe PID=   2971650.
  
 Copyright (c) 1988,1990,1992,1993,1995,1998,2003,2009,2016,
            Gaussian, Inc.  All Rights Reserved.
  
 This is part of the Gaussian(R) 16 program.  It is based on
 the Gaussian(R) 09 system (copyright 2009, Gaussian, Inc.),
 the Gaussian(R) 03 system (copyright 2003, Gaussian, Inc.),
 the Gaussian(R) 98 system (copyright 1998, Gaussian, Inc.),
 the Gaussian(R) 94 system (copyright 1995, Gaussian, Inc.),
 the Gaussian 92(TM) system (copyright 1992, Gaussian, Inc.),
 the Gaussian 90(TM) system (copyright 1990, Gaussian, Inc.),
 the Gaussian 88(TM) system (copyright 1988, Gaussian, Inc.),
 the Gaussian 86(TM) system (copyright 1986, Carnegie Mellon
 University), and the Gaussian 82(TM) system (copyright 1983,
 Carnegie Mellon University). Gaussian is a federally registered
 trademark of Gaussian, Inc.
  
 This software contains proprietary and confidential information,
 including trade secrets, belonging to Gaussian, Inc.
  
 This software is provided under written license and may be
 used, copied, transmitted, or stored only in accord with that
 written license.
  
 The following legend is applicable only to US Government
 contracts under FAR:
  
                    RESTRICTED RIGHTS LEGEND
  
 Use, reproduction and disclosure by the US Government is
 subject to restrictions as set forth in subparagraphs (a)
 and (c) of the Commercial Computer Software - Restricted
 Rights clause in FAR 52.227-19.
  
 Gaussian, Inc.
 340 Quinnipiac St., Bldg. 40, Wallingford CT 06492
  
  
 ---------------------------------------------------------------
 Warning -- This program may not be used in any manner that
 competes with the business of Gaussian, Inc. or will provide
 assistance to any competitor of Gaussian, Inc.  The licensee
 of this program is prohibited from giving any competitor of
 Gaussian, Inc. access to this program.  By using this program,
 the user acknowledges that Gaussian, Inc. is engaged in the
 business of creating and licensing software in the field of
 computational chemistry and represents and warrants to the
 licensee that it is not a competitor of Gaussian, Inc. and that
 it will not use this program in any manner prohibited above.
 ---------------------------------------------------------------
  

 Cite this work as:
 Gaussian 16, Revision A.03,
 M. J. Frisch, G. W. Trucks, H. B. Schlegel, G. E. Scuseria, 
 M. A. Robb, J. R. Cheeseman, G. Scalmani, V. Barone, 
 G. A. Petersson, H. Nakatsuji, X. Li, M. Caricato, A. V. Marenich, 
 J. Bloino, B. G. Janesko, R. Gomperts, B. Mennucci, H. P. Hratchian, 
 J. V. Ortiz, A. F. Izmaylov, J. L. Sonnenberg, D. Williams-Young, 
 F. Ding, F. Lipparini, F. Egidi, J. Goings, B. Peng, A. Petrone, 
 T. Henderson, D. Ranasinghe, V. G. Zakrzewski, J. Gao, N. Rega, 
 G. Zheng, W. Liang, M. Hada, M. Ehara, K. Toyota, R. Fukuda, 
 J. Hasegawa, M. Ishida, T. Nakajima, Y. Honda, O. Kitao, H. Nakai, 
 T. Vreven, K. Throssell, J. A. Montgomery, Jr., J. E. Peralta, 
 F. Ogliaro, M. J. Bearpark, J. J. Heyd, E. N. Brothers, K. N. Kudin, 
 V. N. Staroverov, T. A. Keith, R. Kobayashi, J. Normand, 
 K. Raghavachari, A. P. Rendell, J. C. Burant, S. S. Iyengar, 
 J. Tomasi, M. Cossi, J. M. Millam, M. Klene, C. Adamo, R. Cammi, 
 J. W. Ochterski, R. L. Martin, K. Morokuma, O. Farkas, 
 J. B. Foresman, and D. J. Fox, Gaussian, Inc., Wallingford CT, 2016.
 
 ******************************************
 Gaussian 16:  ES64L-G16RevA.03 25-Dec-2016
                25-Oct-2025 
 ******************************************
 %nprocshared=64
 Will use up to   64 processors via shared memory.
 %mem=230GB
 %chk=BONO_NO2_sp.chk
 ----------------------------------------------
 #p M062X/DEF2TZVPP scrf=(solvent=water) em=GD3
 ----------------------------------------------
 1/38=1,172=1/1;
 2/12=2,17=6,18=5,40=1/2;
 3/5=44,7=202,11=2,25=1,30=1,70=2201,72=1,74=-55,124=31/1,2,3;
 4//1;
 5/5=2,38=5,53=1/2;
 6/7=2,8=2,9=2,10=2,28=1/1;
 99/5=1,9=1/99;
 Leave Link    1 at Sat Oct 25 12:26:00 2025, MaxMem= 30870077440 cpu:              22.7 elap:               0.4
 (Enter /public/software/gauss/g16/l101.exe)
 -------------------------------
 Energy calculation for BONO_NO2
 -------------------------------
 Symbolic Z-matrix:
 Charge =  0 Multiplicity = 1
 C                     12.89116   3.0754    1.01014 
 N                     12.00041   3.56905   0.19853 
 O                     12.13768   4.70922  -0.40397 
 C                     10.75751   2.85322  -0.07075 
 C                     10.72724   1.45974  -0.1344 
 C                     9.51705   0.82122  -0.39635 
 C                     8.34055   1.55474  -0.60012 
 C                     7.03371   0.85225  -0.86761 
 C                     6.33658   0.35643   0.39664 
 O                     6.84834   0.50663   1.5043 
 C                     5.01268  -0.32321   0.25893 
 C                     4.40574  -0.55455  -0.98565 
 C                     3.17239  -1.19877  -1.06003 
 C                     2.52041  -1.61958   0.10637 
 C                     1.20015  -2.31515   0.02664 
 C                     0.01429  -1.56924   0.10068 
 C                    -0.21502  -0.15426   0.24611 
 C                     0.77881   0.96187   0.35636 
 C                    -1.58587   0.01635   0.27941 
 C                    -2.20821  -1.25618   0.16167 
 C                    -3.60542  -1.58048   0.17376 
 C                    -4.59473  -0.6375    0.14848 
 C                    -6.00145  -0.91223   0.19577 
 C                    -6.91614   0.12015   0.18662 
 O                    -6.4181    1.40741   0.04274 
 C                    -7.24298   2.49976   0.01206 
 C                    -8.64238   2.3549    0.12296 
 C                    -9.439     3.51467   0.0782 
 C                    -8.86789   4.76869  -0.0716 
 C                    -7.47583   4.86191  -0.1761 
 N                    -6.86848   6.16905  -0.3329 
 O                    -5.63504   6.2426   -0.42615 
 O                    -7.60391   7.16571  -0.36793 
 C                    -6.64326   3.73995  -0.13549 
 C                    -9.16981   1.02774   0.28371 
 C                    -8.34255  -0.05359   0.32613 
 C                    -8.84956  -1.45513   0.55121 
 C                    -7.96803  -2.48243  -0.16216 
 C                    -6.50802  -2.34035   0.27808 
 N                    -1.23087  -2.20295   0.05387 
 B                    -1.44957  -3.70619  -0.25611 
 F                    -2.30966  -4.28101   0.69459 
 F                    -2.01629  -3.86318  -1.53185 
 N                    -0.0625   -4.38498  -0.19675 
 C                     0.17591  -5.7142   -0.30641 
 C                    -0.90881  -6.7307   -0.42941 
 C                     1.56411  -5.93083  -0.28247 
 C                     2.20602  -4.6991   -0.16074 
 C                     3.69299  -4.52115  -0.09904 
 C                     1.1664   -3.71594  -0.10729 
 C                     3.12361  -1.38822   1.35196 
 C                     4.35554  -0.749     1.42512 
 C                     8.40409   2.95314  -0.54476 
 C                     9.60676   3.60781  -0.29047 
 H                     12.69331   2.15113   1.5313 
 H                     13.80639   3.63484   1.14802 
 H                     11.63436   0.87907  -0.00994 
 H                     9.49214  -0.26265  -0.45887 
 H                     6.34086   1.51388  -1.39933 
 H                     7.18826  -0.0158   -1.52018 
 H                     4.88748  -0.23905  -1.9042 
 H                     2.71248  -1.37563  -2.02689 
 H                     1.44236   1.00636  -0.51241 
 H                     0.25046   1.91588   0.43019 
 H                     1.41597   0.85757   1.23981 
 H                    -2.10305   0.95815   0.39954 
 H                    -3.85681  -2.63295   0.22125 
 H                    -4.30728   0.40824   0.10057 
 H                    -10.51581   3.41391   0.16416 
 H                    -9.47693   5.66206  -0.10687 
 H                    -5.56837   3.82937  -0.21771 
 H                    -10.24329   0.90081   0.38412 
 H                    -8.83631  -1.65834   1.63155 
 H                    -9.89266  -1.52164   0.22876 
 H                    -8.32461  -3.49475   0.05008 
 H                    -8.03984  -2.3329   -1.24618 
 H                    -6.39279  -2.70912   1.30729 
 H                    -5.87678  -2.98113  -0.34582 
 H                    -0.47784  -7.7224   -0.57867 
 H                    -1.53464  -6.75048   0.46864 
 H                    -1.56684  -6.50195  -1.27423 
 H                     2.04362  -6.89846  -0.34848 
 H                     4.18139  -5.497    -0.16403 
 H                     4.0677   -3.90018  -0.91869 
 H                     4.01269  -4.04427   0.83279 
 H                     2.62413  -1.71174   2.25955 
 H                     4.82269  -0.57169   2.38752 
 H                     7.50349   3.53798  -0.70708 
 H                     9.6614    4.68893  -0.2579 
 
 ITRead=  0  0  0  0  0  0  0  0  0  0  0  0  0  0  0  0  0  0  0  0
 ITRead=  0  0  0  0  0  0  0  0  0  0  0  0  0  0  0  0  0  0  0  0
 ITRead=  0  0  0  0  0  0  0  0  0  0  0  0  0  0  0  0  0  0  0  0
 ITRead=  0  0  0  0  0  0  0  0  0  0  0  0  0  0  0  0  0  0  0  0
 ITRead=  0  0  0  0  0  0  0  0  0
 MicOpt= -1 -1 -1 -1 -1 -1 -1 -1 -1 -1 -1 -1 -1 -1 -1 -1 -1 -1 -1 -1
 MicOpt= -1 -1 -1 -1 -1 -1 -1 -1 -1 -1 -1 -1 -1 -1 -1 -1 -1 -1 -1 -1
 MicOpt= -1 -1 -1 -1 -1 -1 -1 -1 -1 -1 -1 -1 -1 -1 -1 -1 -1 -1 -1 -1
 MicOpt= -1 -1 -1 -1 -1 -1 -1 -1 -1 -1 -1 -1 -1 -1 -1 -1 -1 -1 -1 -1
 MicOpt= -1 -1 -1 -1 -1 -1 -1 -1 -1
 NAtoms=     89 NQM=       89 NQMF=       0 NMMI=      0 NMMIF=      0
                NMic=       0 NMicF=      0.
                    Isotopes and Nuclear Properties:
 (Nuclear quadrupole moments (NQMom) in fm**2, nuclear magnetic moments (NMagM)
  in nuclear magnetons)

  Atom         1           2           3           4           5           6           7           8           9          10
 IAtWgt=          12          14          16          12          12          12          12          12          12          16
 AtmWgt=  12.0000000  14.0030740  15.9949146  12.0000000  12.0000000  12.0000000  12.0000000  12.0000000  12.0000000  15.9949146
 NucSpn=           0           2           0           0           0           0           0           0           0           0
 AtZEff=  -0.0000000  -0.0000000  -0.0000000  -0.0000000  -0.0000000  -0.0000000  -0.0000000  -0.0000000  -0.0000000  -0.0000000
 NQMom=    0.0000000   2.0440000   0.0000000   0.0000000   0.0000000   0.0000000   0.0000000   0.0000000   0.0000000   0.0000000
 NMagM=    0.0000000   0.4037610   0.0000000   0.0000000   0.0000000   0.0000000   0.0000000   0.0000000   0.0000000   0.0000000
 AtZNuc=   6.0000000   7.0000000   8.0000000   6.0000000   6.0000000   6.0000000   6.0000000   6.0000000   6.0000000   8.0000000

  Atom        11          12          13          14          15          16          17          18          19          20
 IAtWgt=          12          12          12          12          12          12          12          12          12          12
 AtmWgt=  12.0000000  12.0000000  12.0000000  12.0000000  12.0000000  12.0000000  12.0000000  12.0000000  12.0000000  12.0000000
 NucSpn=           0           0           0           0           0           0           0           0           0           0
 AtZEff=  -0.0000000  -0.0000000  -0.0000000  -0.0000000  -0.0000000  -0.0000000  -0.0000000  -0.0000000  -0.0000000  -0.0000000
 NQMom=    0.0000000   0.0000000   0.0000000   0.0000000   0.0000000   0.0000000   0.0000000   0.0000000   0.0000000   0.0000000
 NMagM=    0.0000000   0.0000000   0.0000000   0.0000000   0.0000000   0.0000000   0.0000000   0.0000000   0.0000000   0.0000000
 AtZNuc=   6.0000000   6.0000000   6.0000000   6.0000000   6.0000000   6.0000000   6.0000000   6.0000000   6.0000000   6.0000000

  Atom        21          22          23          24          25          26          27          28          29          30
 IAtWgt=          12          12          12          12          16          12          12          12          12          12
 AtmWgt=  12.0000000  12.0000000  12.0000000  12.0000000  15.9949146  12.0000000  12.0000000  12.0000000  12.0000000  12.0000000
 NucSpn=           0           0           0           0           0           0           0           0           0           0
 AtZEff=  -0.0000000  -0.0000000  -0.0000000  -0.0000000  -0.0000000  -0.0000000  -0.0000000  -0.0000000  -0.0000000  -0.0000000
 NQMom=    0.0000000   0.0000000   0.0000000   0.0000000   0.0000000   0.0000000   0.0000000   0.0000000   0.0000000   0.0000000
 NMagM=    0.0000000   0.0000000   0.0000000   0.0000000   0.0000000   0.0000000   0.0000000   0.0000000   0.0000000   0.0000000
 AtZNuc=   6.0000000   6.0000000   6.0000000   6.0000000   8.0000000   6.0000000   6.0000000   6.0000000   6.0000000   6.0000000

  Atom        31          32          33          34          35          36          37          38          39          40
 IAtWgt=          14          16          16          12          12          12          12          12          12          14
 AtmWgt=  14.0030740  15.9949146  15.9949146  12.0000000  12.0000000  12.0000000  12.0000000  12.0000000  12.0000000  14.0030740
 NucSpn=           2           0           0           0           0           0           0           0           0           2
 AtZEff=  -0.0000000  -0.0000000  -0.0000000  -0.0000000  -0.0000000  -0.0000000  -0.0000000  -0.0000000  -0.0000000  -0.0000000
 NQMom=    2.0440000   0.0000000   0.0000000   0.0000000   0.0000000   0.0000000   0.0000000   0.0000000   0.0000000   2.0440000
 NMagM=    0.4037610   0.0000000   0.0000000   0.0000000   0.0000000   0.0000000   0.0000000   0.0000000   0.0000000   0.4037610
 AtZNuc=   7.0000000   8.0000000   8.0000000   6.0000000   6.0000000   6.0000000   6.0000000   6.0000000   6.0000000   7.0000000

  Atom        41          42          43          44          45          46          47          48          49          50
 IAtWgt=          11          19          19          14          12          12          12          12          12          12
 AtmWgt=  11.0093053  18.9984033  18.9984033  14.0030740  12.0000000  12.0000000  12.0000000  12.0000000  12.0000000  12.0000000
 NucSpn=           3           1           1           2           0           0           0           0           0           0
 AtZEff=  -0.0000000  -0.0000000  -0.0000000  -0.0000000  -0.0000000  -0.0000000  -0.0000000  -0.0000000  -0.0000000  -0.0000000
 NQMom=    4.0590000   0.0000000   0.0000000   2.0440000   0.0000000   0.0000000   0.0000000   0.0000000   0.0000000   0.0000000
 NMagM=    2.6886370   2.6288670   2.6288670   0.4037610   0.0000000   0.0000000   0.0000000   0.0000000   0.0000000   0.0000000
 AtZNuc=   5.0000000   9.0000000   9.0000000   7.0000000   6.0000000   6.0000000   6.0000000   6.0000000   6.0000000   6.0000000

  Atom        51          52          53          54          55          56          57          58          59          60
 IAtWgt=          12          12          12          12           1           1           1           1           1           1
 AtmWgt=  12.0000000  12.0000000  12.0000000  12.0000000   1.0078250   1.0078250   1.0078250   1.0078250   1.0078250   1.0078250
 NucSpn=           0           0           0           0           1           1           1           1           1           1
 AtZEff=  -0.0000000  -0.0000000  -0.0000000  -0.0000000  -0.0000000  -0.0000000  -0.0000000  -0.0000000  -0.0000000  -0.0000000
 NQMom=    0.0000000   0.0000000   0.0000000   0.0000000   0.0000000   0.0000000   0.0000000   0.0000000   0.0000000   0.0000000
 NMagM=    0.0000000   0.0000000   0.0000000   0.0000000   2.7928460   2.7928460   2.7928460   2.7928460   2.7928460   2.7928460
 AtZNuc=   6.0000000   6.0000000   6.0000000   6.0000000   1.0000000   1.0000000   1.0000000   1.0000000   1.0000000   1.0000000

  Atom        61          62          63          64          65          66          67          68          69          70
 IAtWgt=           1           1           1           1           1           1           1           1           1           1
 AtmWgt=   1.0078250   1.0078250   1.0078250   1.0078250   1.0078250   1.0078250   1.0078250   1.0078250   1.0078250   1.0078250
 NucSpn=           1           1           1           1           1           1           1           1           1           1
 AtZEff=  -0.0000000  -0.0000000  -0.0000000  -0.0000000  -0.0000000  -0.0000000  -0.0000000  -0.0000000  -0.0000000  -0.0000000
 NQMom=    0.0000000   0.0000000   0.0000000   0.0000000   0.0000000   0.0000000   0.0000000   0.0000000   0.0000000   0.0000000
 NMagM=    2.7928460   2.7928460   2.7928460   2.7928460   2.7928460   2.7928460   2.7928460   2.7928460   2.7928460   2.7928460
 AtZNuc=   1.0000000   1.0000000   1.0000000   1.0000000   1.0000000   1.0000000   1.0000000   1.0000000   1.0000000   1.0000000

  Atom        71          72          73          74          75          76          77          78          79          80
 IAtWgt=           1           1           1           1           1           1           1           1           1           1
 AtmWgt=   1.0078250   1.0078250   1.0078250   1.0078250   1.0078250   1.0078250   1.0078250   1.0078250   1.0078250   1.0078250
 NucSpn=           1           1           1           1           1           1           1           1           1           1
 AtZEff=  -0.0000000  -0.0000000  -0.0000000  -0.0000000  -0.0000000  -0.0000000  -0.0000000  -0.0000000  -0.0000000  -0.0000000
 NQMom=    0.0000000   0.0000000   0.0000000   0.0000000   0.0000000   0.0000000   0.0000000   0.0000000   0.0000000   0.0000000
 NMagM=    2.7928460   2.7928460   2.7928460   2.7928460   2.7928460   2.7928460   2.7928460   2.7928460   2.7928460   2.7928460
 AtZNuc=   1.0000000   1.0000000   1.0000000   1.0000000   1.0000000   1.0000000   1.0000000   1.0000000   1.0000000   1.0000000

  Atom        81          82          83          84          85          86          87          88          89
 IAtWgt=           1           1           1           1           1           1           1           1           1
 AtmWgt=   1.0078250   1.0078250   1.0078250   1.0078250   1.0078250   1.0078250   1.0078250   1.0078250   1.0078250
 NucSpn=           1           1           1           1           1           1           1           1           1
 AtZEff=  -0.0000000  -0.0000000  -0.0000000  -0.0000000  -0.0000000  -0.0000000  -0.0000000  -0.0000000  -0.0000000
 NQMom=    0.0000000   0.0000000   0.0000000   0.0000000   0.0000000   0.0000000   0.0000000   0.0000000   0.0000000
 NMagM=    2.7928460   2.7928460   2.7928460   2.7928460   2.7928460   2.7928460   2.7928460   2.7928460   2.7928460
 AtZNuc=   1.0000000   1.0000000   1.0000000   1.0000000   1.0000000   1.0000000   1.0000000   1.0000000   1.0000000
 Leave Link  101 at Sat Oct 25 12:26:00 2025, MaxMem= 30870077440 cpu:               4.1 elap:               0.1
 (Enter /public/software/gauss/g16/l202.exe)
 Stoichiometry    C42H35BF2N4O5
 Framework group  C1[X(C42H35BF2N4O5)]
 Deg. of freedom   261
 Full point group                 C1      NOp   1
 Largest Abelian subgroup         C1      NOp   1
 Largest concise Abelian subgroup C1      NOp   1
                         Standard orientation:                         
 ---------------------------------------------------------------------
 Center     Atomic      Atomic             Coordinates (Angstroms)
 Number     Number       Type             X           Y           Z
 ---------------------------------------------------------------------
      1          6           0       12.891161    3.075396    1.010140
      2          7           0       12.000409    3.569045    0.198528
      3          8           0       12.137680    4.709224   -0.403974
      4          6           0       10.757514    2.853218   -0.070754
      5          6           0       10.727242    1.459744   -0.134398
      6          6           0        9.517046    0.821218   -0.396347
      7          6           0        8.340554    1.554735   -0.600124
      8          6           0        7.033707    0.852250   -0.867610
      9          6           0        6.336582    0.356430    0.396636
     10          8           0        6.848339    0.506634    1.504299
     11          6           0        5.012681   -0.323205    0.258934
     12          6           0        4.405741   -0.554547   -0.985650
     13          6           0        3.172387   -1.198772   -1.060031
     14          6           0        2.520405   -1.619577    0.106374
     15          6           0        1.200148   -2.315152    0.026642
     16          6           0        0.014285   -1.569237    0.100678
     17          6           0       -0.215020   -0.154262    0.246105
     18          6           0        0.778811    0.961870    0.356362
     19          6           0       -1.585871    0.016348    0.279411
     20          6           0       -2.208209   -1.256182    0.161670
     21          6           0       -3.605416   -1.580477    0.173756
     22          6           0       -4.594728   -0.637504    0.148484
     23          6           0       -6.001451   -0.912226    0.195768
     24          6           0       -6.916142    0.120146    0.186622
     25          8           0       -6.418099    1.407409    0.042743
     26          6           0       -7.242980    2.499756    0.012064
     27          6           0       -8.642382    2.354899    0.122962
     28          6           0       -9.439004    3.514670    0.078203
     29          6           0       -8.867885    4.768694   -0.071604
     30          6           0       -7.475831    4.861911   -0.176097
     31          7           0       -6.868477    6.169047   -0.332904
     32          8           0       -5.635036    6.242603   -0.426148
     33          8           0       -7.603914    7.165708   -0.367926
     34          6           0       -6.643256    3.739950   -0.135491
     35          6           0       -9.169809    1.027744    0.283711
     36          6           0       -8.342550   -0.053594    0.326132
     37          6           0       -8.849558   -1.455128    0.551214
     38          6           0       -7.968034   -2.482433   -0.162162
     39          6           0       -6.508021   -2.340353    0.278077
     40          7           0       -1.230872   -2.202952    0.053874
     41          5           0       -1.449566   -3.706190   -0.256113
     42          9           0       -2.309661   -4.281008    0.694594
     43          9           0       -2.016293   -3.863180   -1.531853
     44          7           0       -0.062497   -4.384982   -0.196753
     45          6           0        0.175909   -5.714201   -0.306409
     46          6           0       -0.908814   -6.730695   -0.429414
     47          6           0        1.564113   -5.930826   -0.282470
     48          6           0        2.206025   -4.699104   -0.160737
     49          6           0        3.692990   -4.521148   -0.099038
     50          6           0        1.166398   -3.715935   -0.107286
     51          6           0        3.123608   -1.388223    1.351964
     52          6           0        4.355539   -0.749001    1.425115
     53          6           0        8.404086    2.953137   -0.544755
     54          6           0        9.606763    3.607812   -0.290471
     55          1           0       12.693306    2.151128    1.531302
     56          1           0       13.806389    3.634844    1.148024
     57          1           0       11.634355    0.879067   -0.009941
     58          1           0        9.492136   -0.262651   -0.458874
     59          1           0        6.340863    1.513875   -1.399327
     60          1           0        7.188257   -0.015798   -1.520177
     61          1           0        4.887483   -0.239047   -1.904201
     62          1           0        2.712482   -1.375629   -2.026885
     63          1           0        1.442364    1.006355   -0.512409
     64          1           0        0.250464    1.915879    0.430188
     65          1           0        1.415969    0.857572    1.239811
     66          1           0       -2.103053    0.958151    0.399536
     67          1           0       -3.856809   -2.632949    0.221249
     68          1           0       -4.307277    0.408240    0.100565
     69          1           0      -10.515808    3.413910    0.164161
     70          1           0       -9.476930    5.662060   -0.106867
     71          1           0       -5.568373    3.829367   -0.217706
     72          1           0      -10.243287    0.900810    0.384121
     73          1           0       -8.836305   -1.658341    1.631546
     74          1           0       -9.892664   -1.521637    0.228761
     75          1           0       -8.324615   -3.494749    0.050075
     76          1           0       -8.039845   -2.332902   -1.246177
     77          1           0       -6.392792   -2.709120    1.307290
     78          1           0       -5.876779   -2.981126   -0.345817
     79          1           0       -0.477840   -7.722403   -0.578665
     80          1           0       -1.534642   -6.750476    0.468636
     81          1           0       -1.566839   -6.501947   -1.274231
     82          1           0        2.043619   -6.898464   -0.348480
     83          1           0        4.181394   -5.496999   -0.164030
     84          1           0        4.067702   -3.900184   -0.918687
     85          1           0        4.012685   -4.044265    0.832793
     86          1           0        2.624132   -1.711743    2.259550
     87          1           0        4.822685   -0.571685    2.387517
     88          1           0        7.503494    3.537976   -0.707082
     89          1           0        9.661398    4.688929   -0.257897
 ---------------------------------------------------------------------
 Rotational constants (GHZ):           0.0602561           0.0160577           0.0128502
 Leave Link  202 at Sat Oct 25 12:26:00 2025, MaxMem= 30870077440 cpu:               0.2 elap:               0.0
 (Enter /public/software/gauss/g16/l301.exe)
 Standard basis: def2TZVPP (5D, 7F)
 Ernie: Thresh=  0.10000D-02 Tol=  0.10000D-05 Strict=F.
 There are  2469 symmetry adapted cartesian basis functions of A   symmetry.
 There are  2164 symmetry adapted basis functions of A   symmetry.
  2164 basis functions,  3349 primitive gaussians,  2469 cartesian basis functions
   189 alpha electrons      189 beta electrons
       nuclear repulsion energy      6299.1654575471 Hartrees.
 IExCor= 4336 DFT=T Ex+Corr=M062X ExCW=0 ScaHFX=  0.540000
 ScaDFX=  1.000000  1.000000  1.000000  1.000000 ScalE2=  1.000000  1.000000
 IRadAn=      5 IRanWt=     -1 IRanGd=            0 ICorTp=0 IEmpDi=131
 NAtoms=   89 NActive=   89 NUniq=   89 SFac= 1.00D+00 NAtFMM=   60 NAOKFM=T Big=T
 Integral buffers will be    131072 words long.
 Raffenetti 2 integral format.
 Two-electron integral symmetry is turned on.
 R6Disp:  Grimme-D3 Dispersion energy=       -0.0072087520 Hartrees.
 Nuclear repulsion after empirical dispersion term =     6299.1582487952 Hartrees.
 ------------------------------------------------------------------------------
 Polarizable Continuum Model (PCM)
 =================================
 Model                : PCM.
 Atomic radii         : UFF (Universal Force Field).
 Polarization charges : Total charges.
 Charge compensation  : None.
 Solution method      : On-the-fly selection.
 Cavity type          : Scaled VdW (van der Waals Surface) (Alpha=1.100).
 Cavity algorithm     : GePol (No added spheres)
                        Default sphere list used, NSphG=   89.
                        Lebedev-Laikov grids with approx.  5.0 points / Ang**2.
                        Smoothing algorithm: York/Karplus (Gamma=1.0000).
                        Polarization charges: spherical gaussians, with
                                              point-specific exponents (IZeta= 3).
                        Self-potential: point-specific (ISelfS= 7).
                        Self-field    : sphere-specific E.n sum rule (ISelfD= 2).
 Solvent              : Water, Eps=  78.355300 Eps(inf)=   1.777849
 ------------------------------------------------------------------------------
 GePol: Number of generator spheres                  =      89
 GePol: Total number of spheres                      =      89
 GePol: Number of exposed spheres                    =      89 (100.00%)
 GePol: Number of points                             =    6425
 GePol: Average weight of points                     =       0.13
 GePol: Minimum weight of points                     =   0.11D-11
 GePol: Maximum weight of points                     =    0.20577
 GePol: Number of points with low weight             =     439
 GePol: Fraction of low-weight points (<1% of avg)   =       6.83%
 GePol: Cavity surface area                          =    809.264 Ang**2
 GePol: Cavity volume                                =    939.621 Ang**3
 Leave Link  301 at Sat Oct 25 12:26:01 2025, MaxMem= 30870077440 cpu:               3.7 elap:               0.1
 (Enter /public/software/gauss/g16/l302.exe)
 NPDir=0 NMtPBC=     1 NCelOv=     1 NCel=       1 NClECP=     1 NCelD=      1
         NCelK=      1 NCelE2=     1 NClLst=     1 CellRange=     0.0.
 One-electron integrals computed using PRISM.
 One-electron integral symmetry used in STVInt
   1 Symmetry operations used in ECPInt.
 ECPInt:  NShTT=  323610 NPrTT=  926773 LenC2=  170773 LenP2D=  327338.
 LDataN:  DoStor=T MaxTD1= 6 Len=  172
 NBasis=  2164 RedAO= T EigKep=  3.49D-06  NBF=  2164
 NBsUse=  2164 1.00D-06 EigRej= -1.00D+00 NBFU=  2164
 Precomputing XC quadrature grid using
 IXCGrd= 4 IRadAn=           5 IRanWt=          -1 IRanGd=           0 AccXCQ= 0.00D+00.
 Generated NRdTot=       0 NPtTot=           0 NUsed=           0 NTot=          32
 NSgBfM=  2116  2092  2092  2104  2116 MxSgAt=    89 MxSgA2=    89.
 Leave Link  302 at Sat Oct 25 12:26:14 2025, MaxMem= 30870077440 cpu:             854.2 elap:              13.4
 (Enter /public/software/gauss/g16/l303.exe)
 DipDrv:  MaxL=1.
 Leave Link  303 at Sat Oct 25 12:26:15 2025, MaxMem= 30870077440 cpu:              35.2 elap:               0.6
 (Enter /public/software/gauss/g16/l401.exe)
 ExpMin= 6.06D-02 ExpMax= 3.55D+04 ExpMxC= 1.21D+03 IAcc=3 IRadAn=         5 AccDes= 0.00D+00
 Harris functional with IExCor= 1009 and IRadAn=       5 diagonalized for initial guess.
 HarFok:  IExCor= 1009 AccDes= 0.00D+00 IRadAn=         5 IDoV= 1 UseB2=F ITyADJ=14
 ICtDFT=  3500011 ScaDFX=  1.000000  1.000000  1.000000  1.000000
 FoFCou: FMM=F IPFlag=           0 FMFlag=      100000 FMFlg1=        2001
         NFxFlg=           0 DoJE=T BraDBF=F KetDBF=T FulRan=T
         wScrn=  0.000000 ICntrl=       500 IOpCl=  0 I1Cent=   200000004 NGrid=           0
         NMat0=    1 NMatS0=      1 NMatT0=    0 NMatD0=    1 NMtDS0=    0 NMtDT0=    0
 Petite list used in FoFCou.
 Harris En= -2440.02446573708    
 JPrj=0 DoOrth=F DoCkMO=F.
 Leave Link  401 at Sat Oct 25 12:26:28 2025, MaxMem= 30870077440 cpu:             824.1 elap:              13.0
 (Enter /public/software/gauss/g16/l502.exe)
 Integral symmetry usage will be decided dynamically.
 Closed shell SCF:
 Using DIIS extrapolation, IDIIS=  1040.
 NGot= 30870077440 LenX= 30857706789 LenY= 30851608359
 Requested convergence on RMS density matrix=1.00D-08 within 128 cycles.
 Requested convergence on MAX density matrix=1.00D-06.
 Requested convergence on             energy=1.00D-06.
 No special actions if energy rises.
 Fock matrices will be formed incrementally for  20 cycles.

 Cycle   1  Pass 1  IDiag  1:
 FoFJK:  IHMeth= 1 ICntrl=       0 DoSepK=F KAlg= 0 I1Cent=           0 FoldK=F
 IRaf= 490000000 NMat=       1 IRICut=       1 DoRegI=T DoRafI=F ISym2E= 0 IDoP0=0 IntGTp=1.
 FoFCou: FMM=T IPFlag=           0 FMFlag=      100000 FMFlg1=        2001
         NFxFlg=           0 DoJE=F BraDBF=F KetDBF=F FulRan=T
         wScrn=  0.000000 ICntrl=         0 IOpCl=  0 I1Cent=           0 NGrid=           0
         NMat0=    1 NMatS0=      1 NMatT0=    0 NMatD0=    1 NMtDS0=    0 NMtDT0=    0
 Symmetry not used in FoFCou.
 FMM levels:  10  Number of levels for PrismC:   9
 Inv3:  Mode=1 IEnd=   123841875.
 Iteration    1 A*A^-1 deviation from unit magnitude is 2.52D-14 for   6425.
 Iteration    1 A*A^-1 deviation from orthogonality  is 2.54D-14 for   6425   2552.
 Iteration    1 A^-1*A deviation from unit magnitude is 2.52D-14 for   6425.
 Iteration    1 A^-1*A deviation from orthogonality  is 3.08D-13 for   4923   4873.
 E= -2439.94681852664    
 DIIS: error= 2.30D-02 at cycle   1 NSaved=   1.
 NSaved= 1 IEnMin= 1 EnMin= -2439.94681852664     IErMin= 1 ErrMin= 2.30D-02
 ErrMax= 2.30D-02  0.00D+00 EMaxC= 1.00D-01 BMatC= 1.72D+00 BMatP= 1.72D+00
 IDIUse=3 WtCom= 7.70D-01 WtEn= 2.30D-01
 Coeff-Com:  0.100D+01
 Coeff-En:   0.100D+01
 Coeff:      0.100D+01
 Gap=     0.121 Goal=   None    Shift=    0.000
 GapD=    0.121 DampG=1.000 DampE=0.500 DampFc=0.5000 IDamp=-1.
 Damping current iteration by 5.00D-01
 RMSDP=1.43D-03 MaxDP=4.72D-01              OVMax= 2.61D-01

 Cycle   2  Pass 1  IDiag  1:
 RMSU=  7.16D-04    CP:  9.89D-01
 E= -2440.56821511715     Delta-E=       -0.621396590510 Rises=F Damp=T
 DIIS: error= 4.75D-03 at cycle   2 NSaved=   2.
 NSaved= 2 IEnMin= 2 EnMin= -2440.56821511715     IErMin= 2 ErrMin= 4.75D-03
 ErrMax= 4.75D-03  0.00D+00 EMaxC= 1.00D-01 BMatC= 1.73D-01 BMatP= 1.72D+00
 IDIUse=3 WtCom= 9.52D-01 WtEn= 4.75D-02
 Coeff-Com: -0.515D-01 0.105D+01
 Coeff-En:   0.000D+00 0.100D+01
 Coeff:     -0.491D-01 0.105D+01
 Gap=     0.155 Goal=   None    Shift=    0.000
 RMSDP=5.62D-04 MaxDP=5.72D-02 DE=-6.21D-01 OVMax= 2.09D-01

 Cycle   3  Pass 1  IDiag  1:
 RMSU=  5.48D-04    CP:  9.68D-01  1.14D+00
 E= -2441.16358179958     Delta-E=       -0.595366682432 Rises=F Damp=F
 DIIS: error= 1.05D-02 at cycle   3 NSaved=   3.
 NSaved= 3 IEnMin= 3 EnMin= -2441.16358179958     IErMin= 2 ErrMin= 4.75D-03
 ErrMax= 1.05D-02  0.00D+00 EMaxC= 1.00D-01 BMatC= 9.68D-02 BMatP= 1.73D-01
 IDIUse=3 WtCom= 8.95D-01 WtEn= 1.05D-01
 Coeff-Com: -0.110D+00 0.478D+00 0.633D+00
 Coeff-En:   0.000D+00 0.000D+00 0.100D+01
 Coeff:     -0.987D-01 0.428D+00 0.671D+00
 Gap=     0.127 Goal=   None    Shift=    0.000
 RMSDP=1.64D-04 MaxDP=3.39D-02 DE=-5.95D-01 OVMax= 7.62D-02

 Cycle   4  Pass 1  IDiag  1:
 RMSU=  1.49D-04    CP:  9.72D-01  1.22D+00  9.24D-01
 E= -2441.22545078241     Delta-E=       -0.061868982835 Rises=F Damp=F
 DIIS: error= 3.31D-03 at cycle   4 NSaved=   4.
 NSaved= 4 IEnMin= 4 EnMin= -2441.22545078241     IErMin= 4 ErrMin= 3.31D-03
 ErrMax= 3.31D-03  0.00D+00 EMaxC= 1.00D-01 BMatC= 1.60D-02 BMatP= 9.68D-02
 IDIUse=3 WtCom= 9.67D-01 WtEn= 3.31D-02
 Coeff-Com: -0.307D-01 0.838D-01 0.331D+00 0.615D+00
 Coeff-En:   0.000D+00 0.000D+00 0.119D+00 0.881D+00
 Coeff:     -0.297D-01 0.811D-01 0.324D+00 0.624D+00
 Gap=     0.130 Goal=   None    Shift=    0.000
 RMSDP=6.39D-05 MaxDP=1.40D-02 DE=-6.19D-02 OVMax= 1.94D-02

 Cycle   5  Pass 1  IDiag  1:
 RMSU=  4.54D-05    CP:  9.70D-01  1.19D+00  9.62D-01  7.72D-01
 E= -2441.23752866371     Delta-E=       -0.012077881296 Rises=F Damp=F
 DIIS: error= 3.49D-04 at cycle   5 NSaved=   5.
 NSaved= 5 IEnMin= 5 EnMin= -2441.23752866371     IErMin= 5 ErrMin= 3.49D-04
 ErrMax= 3.49D-04  0.00D+00 EMaxC= 1.00D-01 BMatC= 4.89D-04 BMatP= 1.60D-02
 IDIUse=3 WtCom= 9.97D-01 WtEn= 3.49D-03
 Coeff-Com: -0.788D-02 0.144D-01 0.114D+00 0.272D+00 0.608D+00
 Coeff-En:   0.000D+00 0.000D+00 0.000D+00 0.000D+00 0.100D+01
 Coeff:     -0.785D-02 0.144D-01 0.113D+00 0.271D+00 0.609D+00
 Gap=     0.131 Goal=   None    Shift=    0.000
 RMSDP=1.79D-05 MaxDP=7.28D-03 DE=-1.21D-02 OVMax= 5.05D-03

 Cycle   6  Pass 1  IDiag  1:
 RMSU=  1.54D-05    CP:  9.70D-01  1.20D+00  9.59D-01  7.86D-01  8.81D-01
 E= -2441.23794321851     Delta-E=       -0.000414554797 Rises=F Damp=F
 DIIS: error= 8.02D-05 at cycle   6 NSaved=   6.
 NSaved= 6 IEnMin= 6 EnMin= -2441.23794321851     IErMin= 6 ErrMin= 8.02D-05
 ErrMax= 8.02D-05  0.00D+00 EMaxC= 1.00D-01 BMatC= 3.98D-05 BMatP= 4.89D-04
 IDIUse=1 WtCom= 1.00D+00 WtEn= 0.00D+00
 Coeff-Com: -0.437D-04-0.215D-02 0.139D-01 0.464D-01 0.237D+00 0.705D+00
 Coeff:     -0.437D-04-0.215D-02 0.139D-01 0.464D-01 0.237D+00 0.705D+00
 Gap=     0.132 Goal=   None    Shift=    0.000
 RMSDP=7.15D-06 MaxDP=1.21D-03 DE=-4.15D-04 OVMax= 4.65D-03

 Cycle   7  Pass 1  IDiag  1:
 RMSU=  5.43D-06    CP:  9.70D-01  1.19D+00  9.63D-01  7.90D-01  9.59D-01
                    CP:  1.03D+00
 E= -2441.23799865064     Delta-E=       -0.000055432136 Rises=F Damp=F
 DIIS: error= 4.77D-05 at cycle   7 NSaved=   7.
 NSaved= 7 IEnMin= 7 EnMin= -2441.23799865064     IErMin= 7 ErrMin= 4.77D-05
 ErrMax= 4.77D-05  0.00D+00 EMaxC= 1.00D-01 BMatC= 9.74D-06 BMatP= 3.98D-05
 IDIUse=1 WtCom= 1.00D+00 WtEn= 0.00D+00
 Coeff-Com:  0.140D-02-0.364D-02-0.137D-01-0.280D-01-0.470D-02 0.332D+00
 Coeff-Com:  0.717D+00
 Coeff:      0.140D-02-0.364D-02-0.137D-01-0.280D-01-0.470D-02 0.332D+00
 Coeff:      0.717D+00
 Gap=     0.133 Goal=   None    Shift=    0.000
 RMSDP=3.92D-06 MaxDP=9.90D-04 DE=-5.54D-05 OVMax= 2.66D-03

 Cycle   8  Pass 1  IDiag  1:
 RMSU=  2.48D-06    CP:  9.70D-01  1.19D+00  9.64D-01  7.94D-01  9.87D-01
                    CP:  1.18D+00  1.21D+00
 E= -2441.23801582808     Delta-E=       -0.000017177439 Rises=F Damp=F
 DIIS: error= 2.00D-05 at cycle   8 NSaved=   8.
 NSaved= 8 IEnMin= 8 EnMin= -2441.23801582808     IErMin= 8 ErrMin= 2.00D-05
 ErrMax= 2.00D-05  0.00D+00 EMaxC= 1.00D-01 BMatC= 1.20D-06 BMatP= 9.74D-06
 IDIUse=1 WtCom= 1.00D+00 WtEn= 0.00D+00
 Coeff-Com:  0.562D-03-0.105D-02-0.752D-02-0.195D-01-0.480D-01 0.120D-01
 Coeff-Com:  0.262D+00 0.802D+00
 Coeff:      0.562D-03-0.105D-02-0.752D-02-0.195D-01-0.480D-01 0.120D-01
 Coeff:      0.262D+00 0.802D+00
 Gap=     0.133 Goal=   None    Shift=    0.000
 RMSDP=1.99D-06 MaxDP=3.07D-04 DE=-1.72D-05 OVMax= 2.01D-03

 Cycle   9  Pass 1  IDiag  1:
 RMSU=  1.22D-06    CP:  9.70D-01  1.19D+00  9.65D-01  7.96D-01  9.99D-01
                    CP:  1.25D+00  1.38D+00  1.14D+00
 E= -2441.23802005814     Delta-E=       -0.000004230060 Rises=F Damp=F
 DIIS: error= 6.40D-06 at cycle   9 NSaved=   9.
 NSaved= 9 IEnMin= 9 EnMin= -2441.23802005814     IErMin= 9 ErrMin= 6.40D-06
 ErrMax= 6.40D-06  0.00D+00 EMaxC= 1.00D-01 BMatC= 2.82D-07 BMatP= 1.20D-06
 IDIUse=1 WtCom= 1.00D+00 WtEn= 0.00D+00
 Coeff-Com: -0.549D-04 0.275D-03-0.137D-04-0.169D-02-0.160D-01-0.430D-01
 Coeff-Com: -0.611D-01 0.260D+00 0.861D+00
 Coeff:     -0.549D-04 0.275D-03-0.137D-04-0.169D-02-0.160D-01-0.430D-01
 Coeff:     -0.611D-01 0.260D+00 0.861D+00
 Gap=     0.133 Goal=   None    Shift=    0.000
 RMSDP=1.11D-06 MaxDP=1.88D-04 DE=-4.23D-06 OVMax= 1.18D-03

 Cycle  10  Pass 1  IDiag  1:
 RMSU=  5.03D-07    CP:  9.70D-01  1.19D+00  9.65D-01  7.96D-01  1.00D+00
                    CP:  1.28D+00  1.48D+00  1.36D+00  1.30D+00
 E= -2441.23802110530     Delta-E=       -0.000001047158 Rises=F Damp=F
 DIIS: error= 4.52D-06 at cycle  10 NSaved=  10.
 NSaved=10 IEnMin=10 EnMin= -2441.23802110530     IErMin=10 ErrMin= 4.52D-06
 ErrMax= 4.52D-06  0.00D+00 EMaxC= 1.00D-01 BMatC= 7.62D-08 BMatP= 2.82D-07
 IDIUse=1 WtCom= 1.00D+00 WtEn= 0.00D+00
 Coeff-Com: -0.156D-03 0.369D-03 0.183D-02 0.401D-02 0.351D-02-0.192D-01
 Coeff-Com: -0.975D-01-0.631D-01 0.396D+00 0.774D+00
 Coeff:     -0.156D-03 0.369D-03 0.183D-02 0.401D-02 0.351D-02-0.192D-01
 Coeff:     -0.975D-01-0.631D-01 0.396D+00 0.774D+00
 Gap=     0.133 Goal=   None    Shift=    0.000
 RMSDP=5.35D-07 MaxDP=8.45D-05 DE=-1.05D-06 OVMax= 6.48D-04

 Cycle  11  Pass 1  IDiag  1:
 RMSU=  2.38D-07    CP:  9.70D-01  1.19D+00  9.65D-01  7.96D-01  1.00D+00
                    CP:  1.29D+00  1.52D+00  1.44D+00  1.57D+00  1.27D+00
 E= -2441.23802137550     Delta-E=       -0.000000270202 Rises=F Damp=F
 DIIS: error= 1.81D-06 at cycle  11 NSaved=  11.
 NSaved=11 IEnMin=11 EnMin= -2441.23802137550     IErMin=11 ErrMin= 1.81D-06
 ErrMax= 1.81D-06  0.00D+00 EMaxC= 1.00D-01 BMatC= 1.45D-08 BMatP= 7.62D-08
 IDIUse=1 WtCom= 1.00D+00 WtEn= 0.00D+00
 Coeff-Com: -0.470D-04 0.877D-04 0.711D-03 0.191D-02 0.407D-02 0.132D-02
 Coeff-Com: -0.283D-01-0.746D-01-0.842D-02 0.312D+00 0.791D+00
 Coeff:     -0.470D-04 0.877D-04 0.711D-03 0.191D-02 0.407D-02 0.132D-02
 Coeff:     -0.283D-01-0.746D-01-0.842D-02 0.312D+00 0.791D+00
 Gap=     0.133 Goal=   None    Shift=    0.000
 RMSDP=2.62D-07 MaxDP=2.80D-05 DE=-2.70D-07 OVMax= 3.03D-04

 Cycle  12  Pass 1  IDiag  1:
 RMSU=  1.20D-07    CP:  9.70D-01  1.19D+00  9.65D-01  7.96D-01  1.00D+00
                    CP:  1.29D+00  1.53D+00  1.47D+00  1.68D+00  1.47D+00
                    CP:  1.20D+00
 E= -2441.23802143262     Delta-E=       -0.000000057124 Rises=F Damp=F
 DIIS: error= 9.52D-07 at cycle  12 NSaved=  12.
 NSaved=12 IEnMin=12 EnMin= -2441.23802143262     IErMin=12 ErrMin= 9.52D-07
 ErrMax= 9.52D-07  0.00D+00 EMaxC= 1.00D-01 BMatC= 3.81D-09 BMatP= 1.45D-08
 IDIUse=1 WtCom= 1.00D+00 WtEn= 0.00D+00
 Coeff-Com:  0.192D-04-0.543D-04-0.152D-03-0.179D-03 0.770D-03 0.555D-02
 Coeff-Com:  0.131D-01-0.173D-01-0.106D+00-0.696D-01 0.348D+00 0.827D+00
 Coeff:      0.192D-04-0.543D-04-0.152D-03-0.179D-03 0.770D-03 0.555D-02
 Coeff:      0.131D-01-0.173D-01-0.106D+00-0.696D-01 0.348D+00 0.827D+00
 Gap=     0.133 Goal=   None    Shift=    0.000
 RMSDP=1.37D-07 MaxDP=1.49D-05 DE=-5.71D-08 OVMax= 1.72D-04

 Cycle  13  Pass 1  IDiag  1:
 RMSU=  5.52D-08    CP:  9.70D-01  1.19D+00  9.65D-01  7.96D-01  1.00D+00
                    CP:  1.29D+00  1.54D+00  1.48D+00  1.74D+00  1.59D+00
                    CP:  1.47D+00  1.21D+00
 E= -2441.23802144780     Delta-E=       -0.000000015181 Rises=F Damp=F
 DIIS: error= 3.82D-07 at cycle  13 NSaved=  13.
 NSaved=13 IEnMin=13 EnMin= -2441.23802144780     IErMin=13 ErrMin= 3.82D-07
 ErrMax= 3.82D-07  0.00D+00 EMaxC= 1.00D-01 BMatC= 7.84D-10 BMatP= 3.81D-09
 IDIUse=1 WtCom= 1.00D+00 WtEn= 0.00D+00
 Coeff-Com:  0.186D-04-0.428D-04-0.220D-03-0.497D-03-0.546D-03 0.220D-02
 Coeff-Com:  0.125D-01 0.862D-02-0.420D-01-0.101D+00-0.339D-01 0.356D+00
 Coeff-Com:  0.799D+00
 Coeff:      0.186D-04-0.428D-04-0.220D-03-0.497D-03-0.546D-03 0.220D-02
 Coeff:      0.125D-01 0.862D-02-0.420D-01-0.101D+00-0.339D-01 0.356D+00
 Coeff:      0.799D+00
 Gap=     0.133 Goal=   None    Shift=    0.000
 RMSDP=5.47D-08 MaxDP=7.41D-06 DE=-1.52D-08 OVMax= 6.18D-05

 Cycle  14  Pass 1  IDiag  1:
 RMSU=  2.19D-08    CP:  9.70D-01  1.19D+00  9.65D-01  7.96D-01  1.00D+00
                    CP:  1.29D+00  1.54D+00  1.48D+00  1.76D+00  1.63D+00
                    CP:  1.57D+00  1.42D+00  1.21D+00
 E= -2441.23802145044     Delta-E=       -0.000000002632 Rises=F Damp=F
 DIIS: error= 1.53D-07 at cycle  14 NSaved=  14.
 NSaved=14 IEnMin=14 EnMin= -2441.23802145044     IErMin=14 ErrMin= 1.53D-07
 ErrMax= 1.53D-07  0.00D+00 EMaxC= 1.00D-01 BMatC= 1.43D-10 BMatP= 7.84D-10
 IDIUse=1 WtCom= 1.00D+00 WtEn= 0.00D+00
 Coeff-Com:  0.370D-05-0.691D-05-0.613D-04-0.175D-03-0.375D-03-0.185D-03
 Coeff-Com:  0.284D-02 0.634D-02 0.313D-02-0.282D-01-0.817D-01-0.315D-02
 Coeff-Com:  0.341D+00 0.760D+00
 Coeff:      0.370D-05-0.691D-05-0.613D-04-0.175D-03-0.375D-03-0.185D-03
 Coeff:      0.284D-02 0.634D-02 0.313D-02-0.282D-01-0.817D-01-0.315D-02
 Coeff:      0.341D+00 0.760D+00
 Gap=     0.133 Goal=   None    Shift=    0.000
 RMSDP=1.98D-08 MaxDP=2.37D-06 DE=-2.63D-09 OVMax= 2.06D-05

 Cycle  15  Pass 1  IDiag  1:
 RMSU=  9.44D-09    CP:  9.70D-01  1.19D+00  9.65D-01  7.96D-01  1.00D+00
                    CP:  1.29D+00  1.54D+00  1.48D+00  1.76D+00  1.64D+00
                    CP:  1.59D+00  1.48D+00  1.40D+00  1.09D+00
 E= -2441.23802145074     Delta-E=       -0.000000000304 Rises=F Damp=F
 DIIS: error= 5.59D-08 at cycle  15 NSaved=  15.
 NSaved=15 IEnMin=15 EnMin= -2441.23802145074     IErMin=15 ErrMin= 5.59D-08
 ErrMax= 5.59D-08  0.00D+00 EMaxC= 1.00D-01 BMatC= 1.96D-11 BMatP= 1.43D-10
 IDIUse=1 WtCom= 1.00D+00 WtEn= 0.00D+00
 Coeff-Com: -0.109D-05 0.313D-05 0.540D-05-0.516D-05-0.793D-04-0.410D-03
 Coeff-Com: -0.491D-03 0.121D-02 0.709D-02 0.303D-02-0.305D-01-0.527D-01
 Coeff-Com:  0.235D-01 0.306D+00 0.744D+00
 Coeff:     -0.109D-05 0.313D-05 0.540D-05-0.516D-05-0.793D-04-0.410D-03
 Coeff:     -0.491D-03 0.121D-02 0.709D-02 0.303D-02-0.305D-01-0.527D-01
 Coeff:      0.235D-01 0.306D+00 0.744D+00
 Gap=     0.133 Goal=   None    Shift=    0.000
 RMSDP=6.64D-09 MaxDP=6.61D-07 DE=-3.04D-10 OVMax= 5.91D-06

 Error on total polarization charges =  0.02560
 SCF Done:  E(RM062X) =  -2441.23802145     A.U. after   15 cycles
            NFock= 15  Conv=0.66D-08     -V/T= 2.0054
 KE= 2.428153361718D+03 PE=-1.828921337065D+04 EE= 7.120663738682D+03
 Leave Link  502 at Sat Oct 25 12:46:28 2025, MaxMem= 30870077440 cpu:           75383.1 elap:            1200.7
 (Enter /public/software/gauss/g16/l601.exe)
 Copying SCF densities to generalized density rwf, IOpCl= 0 IROHF=0.

 **********************************************************************

            Population analysis using the SCF density.

 **********************************************************************

 Orbital symmetries:
       Occupied  (A) (A) (A) (A) (A) (A) (A) (A) (A) (A) (A) (A)
                 (A) (A) (A) (A) (A) (A) (A) (A) (A) (A) (A) (A)
                 (A) (A) (A) (A) (A) (A) (A) (A) (A) (A) (A) (A)
                 (A) (A) (A) (A) (A) (A) (A) (A) (A) (A) (A) (A)
                 (A) (A) (A) (A) (A) (A) (A) (A) (A) (A) (A) (A)
                 (A) (A) (A) (A) (A) (A) (A) (A) (A) (A) (A) (A)
                 (A) (A) (A) (A) (A) (A) (A) (A) (A) (A) (A) (A)
                 (A) (A) (A) (A) (A) (A) (A) (A) (A) (A) (A) (A)
                 (A) (A) (A) (A) (A) (A) (A) (A) (A) (A) (A) (A)
                 (A) (A) (A) (A) (A) (A) (A) (A) (A) (A) (A) (A)
                 (A) (A) (A) (A) (A) (A) (A) (A) (A) (A) (A) (A)
                 (A) (A) (A) (A) (A) (A) (A) (A) (A) (A) (A) (A)
                 (A) (A) (A) (A) (A) (A) (A) (A) (A) (A) (A) (A)
                 (A) (A) (A) (A) (A) (A) (A) (A) (A) (A) (A) (A)
                 (A) (A) (A) (A) (A) (A) (A) (A) (A) (A) (A) (A)
                 (A) (A) (A) (A) (A) (A) (A) (A) (A)
       Virtual   (A) (A) (A) (A) (A) (A) (A) (A) (A) (A) (A) (A)
                 (A) (A) (A) (A) (A) (A) (A) (A) (A) (A) (A) (A)
                 (A) (A) (A) (A) (A) (A) (A) (A) (A) (A) (A) (A)
                 (A) (A) (A) (A) (A) (A) (A) (A) (A) (A) (A) (A)
                 (A) (A) (A) (A) (A) (A) (A) (A) (A) (A) (A) (A)
                 (A) (A) (A) (A) (A) (A) (A) (A) (A) (A) (A) (A)
                 (A) (A) (A) (A) (A) (A) (A) (A) (A) (A) (A) (A)
                 (A) (A) (A) (A) (A) (A) (A) (A) (A) (A) (A) (A)
                 (A) (A) (A) (A) (A) (A) (A) (A) (A) (A) (A) (A)
                 (A) (A) (A) (A) (A) (A) (A) (A) (A) (A) (A) (A)
                 (A) (A) (A) (A) (A) (A) (A) (A) (A) (A) (A) (A)
                 (A) (A) (A) (A) (A) (A) (A) (A) (A) (A) (A) (A)
                 (A) (A) (A) (A) (A) (A) (A) (A) (A) (A) (A) (A)
                 (A) (A) (A) (A) (A) (A) (A) (A) (A) (A) (A) (A)
                 (A) (A) (A) (A) (A) (A) (A) (A) (A) (A) (A) (A)
                 (A) (A) (A) (A) (A) (A) (A) (A) (A) (A) (A) (A)
                 (A) (A) (A) (A) (A) (A) (A) (A) (A) (A) (A) (A)
                 (A) (A) (A) (A) (A) (A) (A) (A) (A) (A) (A) (A)
                 (A) (A) (A) (A) (A) (A) (A) (A) (A) (A) (A) (A)
                 (A) (A) (A) (A) (A) (A) (A) (A) (A) (A) (A) (A)
                 (A) (A) (A) (A) (A) (A) (A) (A) (A) (A) (A) (A)
                 (A) (A) (A) (A) (A) (A) (A) (A) (A) (A) (A) (A)
                 (A) (A) (A) (A) (A) (A) (A) (A) (A) (A) (A) (A)
                 (A) (A) (A) (A) (A) (A) (A) (A) (A) (A) (A) (A)
                 (A) (A) (A) (A) (A) (A) (A) (A) (A) (A) (A) (A)
                 (A) (A) (A) (A) (A) (A) (A) (A) (A) (A) (A) (A)
                 (A) (A) (A) (A) (A) (A) (A) (A) (A) (A) (A) (A)
                 (A) (A) (A) (A) (A) (A) (A) (A) (A) (A) (A) (A)
                 (A) (A) (A) (A) (A) (A) (A) (A) (A) (A) (A) (A)
                 (A) (A) (A) (A) (A) (A) (A) (A) (A) (A) (A) (A)
                 (A) (A) (A) (A) (A) (A) (A) (A) (A) (A) (A) (A)
                 (A) (A) (A) (A) (A) (A) (A) (A) (A) (A) (A) (A)
                 (A) (A) (A) (A) (A) (A) (A) (A) (A) (A) (A) (A)
                 (A) (A) (A) (A) (A) (A) (A) (A) (A) (A) (A) (A)
                 (A) (A) (A) (A) (A) (A) (A) (A) (A) (A) (A) (A)
                 (A) (A) (A) (A) (A) (A) (A) (A) (A) (A) (A) (A)
                 (A) (A) (A) (A) (A) (A) (A) (A) (A) (A) (A) (A)
                 (A) (A) (A) (A) (A) (A) (A) (A) (A) (A) (A) (A)
                 (A) (A) (A) (A) (A) (A) (A) (A) (A) (A) (A) (A)
                 (A) (A) (A) (A) (A) (A) (A) (A) (A) (A) (A) (A)
                 (A) (A) (A) (A) (A) (A) (A) (A) (A) (A) (A) (A)
                 (A) (A) (A) (A) (A) (A) (A) (A) (A) (A) (A) (A)
                 (A) (A) (A) (A) (A) (A) (A) (A) (A) (A) (A) (A)
                 (A) (A) (A) (A) (A) (A) (A) (A) (A) (A) (A) (A)
                 (A) (A) (A) (A) (A) (A) (A) (A) (A) (A) (A) (A)
                 (A) (A) (A) (A) (A) (A) (A) (A) (A) (A) (A) (A)
                 (A) (A) (A) (A) (A) (A) (A) (A) (A) (A) (A) (A)
                 (A) (A) (A) (A) (A) (A) (A) (A) (A) (A) (A) (A)
                 (A) (A) (A) (A) (A) (A) (A) (A) (A) (A) (A) (A)
                 (A) (A) (A) (A) (A) (A) (A) (A) (A) (A) (A) (A)
                 (A) (A) (A) (A) (A) (A) (A) (A) (A) (A) (A) (A)
                 (A) (A) (A) (A) (A) (A) (A) (A) (A) (A) (A) (A)
                 (A) (A) (A) (A) (A) (A) (A) (A) (A) (A) (A) (A)
                 (A) (A) (A) (A) (A) (A) (A) (A) (A) (A) (A) (A)
                 (A) (A) (A) (A) (A) (A) (A) (A) (A) (A) (A) (A)
                 (A) (A) (A) (A) (A) (A) (A) (A) (A) (A) (A) (A)
                 (A) (A) (A) (A) (A) (A) (A) (A) (A) (A) (A) (A)
                 (A) (A) (A) (A) (A) (A) (A) (A) (A) (A) (A) (A)
                 (A) (A) (A) (A) (A) (A) (A) (A) (A) (A) (A) (A)
                 (A) (A) (A) (A) (A) (A) (A) (A) (A) (A) (A) (A)
                 (A) (A) (A) (A) (A) (A) (A) (A) (A) (A) (A) (A)
                 (A) (A) (A) (A) (A) (A) (A) (A) (A) (A) (A) (A)
                 (A) (A) (A) (A) (A) (A) (A) (A) (A) (A) (A) (A)
                 (A) (A) (A) (A) (A) (A) (A) (A) (A) (A) (A) (A)
                 (A) (A) (A) (A) (A) (A) (A) (A) (A) (A) (A) (A)
                 (A) (A) (A) (A) (A) (A) (A) (A) (A) (A) (A) (A)
                 (A) (A) (A) (A) (A) (A) (A) (A) (A) (A) (A) (A)
                 (A) (A) (A) (A) (A) (A) (A) (A) (A) (A) (A) (A)
                 (A) (A) (A) (A) (A) (A) (A) (A) (A) (A) (A) (A)
                 (A) (A) (A) (A) (A) (A) (A) (A) (A) (A) (A) (A)
                 (A) (A) (A) (A) (A) (A) (A) (A) (A) (A) (A) (A)
                 (A) (A) (A) (A) (A) (A) (A) (A) (A) (A) (A) (A)
                 (A) (A) (A) (A) (A) (A) (A) (A) (A) (A) (A) (A)
                 (A) (A) (A) (A) (A) (A) (A) (A) (A) (A) (A) (A)
                 (A) (A) (A) (A) (A) (A) (A) (A) (A) (A) (A) (A)
                 (A) (A) (A) (A) (A) (A) (A) (A) (A) (A) (A) (A)
                 (A) (A) (A) (A) (A) (A) (A) (A) (A) (A) (A) (A)
                 (A) (A) (A) (A) (A) (A) (A) (A) (A) (A) (A) (A)
                 (A) (A) (A) (A) (A) (A) (A) (A) (A) (A) (A) (A)
                 (A) (A) (A) (A) (A) (A) (A) (A) (A) (A) (A) (A)
                 (A) (A) (A) (A) (A) (A) (A) (A) (A) (A) (A) (A)
                 (A) (A) (A) (A) (A) (A) (A) (A) (A) (A) (A) (A)
                 (A) (A) (A) (A) (A) (A) (A) (A) (A) (A) (A) (A)
                 (A) (A) (A) (A) (A) (A) (A) (A) (A) (A) (A) (A)
                 (A) (A) (A) (A) (A) (A) (A) (A) (A) (A) (A) (A)
                 (A) (A) (A) (A) (A) (A) (A) (A) (A) (A) (A) (A)
                 (A) (A) (A) (A) (A) (A) (A) (A) (A) (A) (A) (A)
                 (A) (A) (A) (A) (A) (A) (A) (A) (A) (A) (A) (A)
                 (A) (A) (A) (A) (A) (A) (A) (A) (A) (A) (A) (A)
                 (A) (A) (A) (A) (A) (A) (A) (A) (A) (A) (A) (A)
                 (A) (A) (A) (A) (A) (A) (A) (A) (A) (A) (A) (A)
                 (A) (A) (A) (A) (A) (A) (A) (A) (A) (A) (A) (A)
                 (A) (A) (A) (A) (A) (A) (A) (A) (A) (A) (A) (A)
                 (A) (A) (A) (A) (A) (A) (A) (A) (A) (A) (A) (A)
                 (A) (A) (A) (A) (A) (A) (A) (A) (A) (A) (A) (A)
                 (A) (A) (A) (A) (A) (A) (A) (A) (A) (A) (A) (A)
                 (A) (A) (A) (A) (A) (A) (A) (A) (A) (A) (A) (A)
                 (A) (A) (A) (A) (A) (A) (A) (A) (A) (A) (A) (A)
                 (A) (A) (A) (A) (A) (A) (A) (A) (A) (A) (A) (A)
                 (A) (A) (A) (A) (A) (A) (A) (A) (A) (A) (A) (A)
                 (A) (A) (A) (A) (A) (A) (A) (A) (A) (A) (A) (A)
                 (A) (A) (A) (A) (A) (A) (A) (A) (A) (A) (A) (A)
                 (A) (A) (A) (A) (A) (A) (A) (A) (A) (A) (A) (A)
                 (A) (A) (A) (A) (A) (A) (A) (A) (A) (A) (A) (A)
                 (A) (A) (A) (A) (A) (A) (A) (A) (A) (A) (A) (A)
                 (A) (A) (A) (A) (A) (A) (A) (A) (A) (A) (A) (A)
                 (A) (A) (A) (A) (A) (A) (A) (A) (A) (A) (A) (A)
                 (A) (A) (A) (A) (A) (A) (A) (A) (A) (A) (A) (A)
                 (A) (A) (A) (A) (A) (A) (A) (A) (A) (A) (A) (A)
                 (A) (A) (A) (A) (A) (A) (A) (A) (A) (A) (A) (A)
                 (A) (A) (A) (A) (A) (A) (A) (A) (A) (A) (A) (A)
                 (A) (A) (A) (A) (A) (A) (A) (A) (A) (A) (A) (A)
                 (A) (A) (A) (A) (A) (A) (A) (A) (A) (A) (A) (A)
                 (A) (A) (A) (A) (A) (A) (A) (A) (A) (A) (A) (A)
                 (A) (A) (A) (A) (A) (A) (A) (A) (A) (A) (A) (A)
                 (A) (A) (A) (A) (A) (A) (A) (A) (A) (A) (A) (A)
                 (A) (A) (A) (A) (A) (A) (A) (A) (A) (A) (A) (A)
                 (A) (A) (A) (A) (A) (A) (A) (A) (A) (A) (A) (A)
                 (A) (A) (A) (A) (A) (A) (A) (A) (A) (A) (A) (A)
                 (A) (A) (A) (A) (A) (A) (A) (A) (A) (A) (A) (A)
                 (A) (A) (A) (A) (A) (A) (A) (A) (A) (A) (A) (A)
                 (A) (A) (A) (A) (A) (A) (A) (A) (A) (A) (A) (A)
                 (A) (A) (A) (A) (A) (A) (A) (A) (A) (A) (A) (A)
                 (A) (A) (A) (A) (A) (A) (A) (A) (A) (A) (A) (A)
                 (A) (A) (A) (A) (A) (A) (A) (A) (A) (A) (A) (A)
                 (A) (A) (A) (A) (A) (A) (A) (A) (A) (A) (A) (A)
                 (A) (A) (A) (A) (A) (A) (A) (A) (A) (A) (A) (A)
                 (A) (A) (A) (A) (A) (A) (A) (A) (A) (A) (A) (A)
                 (A) (A) (A) (A) (A) (A) (A) (A) (A) (A) (A) (A)
                 (A) (A) (A) (A) (A) (A) (A) (A) (A) (A) (A) (A)
                 (A) (A) (A) (A) (A) (A) (A) (A) (A) (A) (A) (A)
                 (A) (A) (A) (A) (A) (A) (A) (A) (A) (A) (A) (A)
                 (A) (A) (A) (A) (A) (A) (A) (A) (A) (A) (A) (A)
                 (A) (A) (A) (A) (A) (A) (A) (A) (A) (A) (A) (A)
                 (A) (A) (A) (A) (A) (A) (A) (A) (A) (A) (A) (A)
                 (A) (A) (A) (A) (A) (A) (A) (A) (A) (A) (A) (A)
                 (A) (A) (A) (A) (A) (A) (A) (A) (A) (A) (A) (A)
                 (A) (A) (A) (A) (A) (A) (A) (A) (A) (A) (A) (A)
                 (A) (A) (A) (A) (A) (A) (A) (A) (A) (A) (A) (A)
                 (A) (A) (A) (A) (A) (A) (A) (A) (A) (A) (A) (A)
                 (A) (A) (A) (A) (A) (A) (A) (A) (A) (A) (A) (A)
                 (A) (A) (A) (A) (A) (A) (A) (A) (A) (A) (A) (A)
                 (A) (A) (A) (A) (A) (A) (A) (A) (A) (A) (A) (A)
                 (A) (A) (A) (A) (A) (A) (A) (A) (A) (A) (A) (A)
                 (A) (A) (A) (A) (A) (A) (A) (A) (A) (A) (A) (A)
                 (A) (A) (A) (A) (A) (A) (A) (A) (A) (A) (A) (A)
                 (A) (A) (A) (A) (A) (A) (A) (A) (A) (A) (A) (A)
                 (A) (A) (A) (A) (A) (A) (A) (A) (A) (A) (A) (A)
                 (A) (A) (A) (A) (A) (A) (A) (A) (A) (A) (A) (A)
                 (A) (A) (A) (A) (A) (A) (A) (A) (A) (A) (A) (A)
                 (A) (A) (A) (A) (A) (A) (A) (A) (A) (A) (A) (A)
                 (A) (A) (A) (A) (A) (A) (A) (A) (A) (A) (A) (A)
                 (A) (A) (A) (A) (A) (A) (A) (A) (A) (A) (A) (A)
                 (A) (A) (A) (A) (A) (A) (A) (A) (A) (A) (A) (A)
                 (A) (A) (A) (A) (A) (A) (A) (A) (A) (A) (A) (A)
                 (A) (A) (A) (A) (A) (A) (A) (A) (A) (A) (A) (A)
                 (A) (A) (A) (A) (A) (A) (A) (A) (A) (A) (A) (A)
                 (A) (A) (A) (A) (A) (A) (A) (A) (A) (A) (A) (A)
                 (A) (A) (A) (A) (A) (A) (A) (A) (A) (A) (A) (A)
                 (A) (A) (A) (A) (A) (A) (A) (A) (A) (A) (A) (A)
                 (A) (A) (A) (A) (A) (A) (A) (A) (A) (A) (A) (A)
                 (A) (A) (A) (A) (A) (A) (A) (A) (A) (A) (A) (A)
                 (A) (A) (A) (A) (A) (A) (A) (A) (A) (A) (A) (A)
                 (A) (A) (A) (A) (A) (A) (A) (A) (A) (A) (A) (A)
                 (A) (A) (A) (A) (A) (A) (A)
 The electronic state is 1-A.
 Alpha  occ. eigenvalues --  -25.20357 -25.20243 -19.70235 -19.67703 -19.67688
 Alpha  occ. eigenvalues --  -19.63517 -19.60606 -15.01228 -14.90808 -14.78375
 Alpha  occ. eigenvalues --  -14.77960 -10.65208 -10.64068 -10.63290 -10.62064
 Alpha  occ. eigenvalues --  -10.60473 -10.60322 -10.60277 -10.59837 -10.59394
 Alpha  occ. eigenvalues --  -10.59037 -10.58783 -10.58579 -10.58295 -10.58237
 Alpha  occ. eigenvalues --  -10.57925 -10.57598 -10.57317 -10.57207 -10.57167
 Alpha  occ. eigenvalues --  -10.57118 -10.57002 -10.56951 -10.56771 -10.56691
 Alpha  occ. eigenvalues --  -10.56511 -10.56478 -10.56422 -10.56389 -10.56282
 Alpha  occ. eigenvalues --  -10.56240 -10.56159 -10.55969 -10.55891 -10.55602
 Alpha  occ. eigenvalues --  -10.55094 -10.54693 -10.54387 -10.54220 -10.54219
 Alpha  occ. eigenvalues --  -10.54082 -10.53938 -10.53641  -7.12955  -1.36512
 Alpha  occ. eigenvalues --   -1.32188  -1.28936  -1.23805  -1.22679  -1.18015
 Alpha  occ. eigenvalues --   -1.17753  -1.10486  -1.08555  -1.00953  -0.99879
 Alpha  occ. eigenvalues --   -0.99162  -0.97621  -0.96519  -0.94823  -0.93891
 Alpha  occ. eigenvalues --   -0.91675  -0.91032  -0.90288  -0.90174  -0.89239
 Alpha  occ. eigenvalues --   -0.88237  -0.87424  -0.86470  -0.86212  -0.85768
 Alpha  occ. eigenvalues --   -0.84223  -0.82748  -0.82376  -0.80974  -0.80261
 Alpha  occ. eigenvalues --   -0.78518  -0.76688  -0.75898  -0.74634  -0.73985
 Alpha  occ. eigenvalues --   -0.72954  -0.71816  -0.71287  -0.70886  -0.69978
 Alpha  occ. eigenvalues --   -0.69131  -0.67869  -0.66879  -0.66801  -0.66176
 Alpha  occ. eigenvalues --   -0.65115  -0.64549  -0.64210  -0.63164  -0.62973
 Alpha  occ. eigenvalues --   -0.62727  -0.61838  -0.61030  -0.60791  -0.60503
 Alpha  occ. eigenvalues --   -0.59663  -0.58921  -0.58685  -0.58179  -0.58114
 Alpha  occ. eigenvalues --   -0.56766  -0.56612  -0.56431  -0.56311  -0.55306
 Alpha  occ. eigenvalues --   -0.54636  -0.54515  -0.54091  -0.53526  -0.53442
 Alpha  occ. eigenvalues --   -0.53019  -0.52943  -0.52768  -0.52478  -0.52174
 Alpha  occ. eigenvalues --   -0.51616  -0.51502  -0.51167  -0.50804  -0.50782
 Alpha  occ. eigenvalues --   -0.50498  -0.50285  -0.50201  -0.49418  -0.49293
 Alpha  occ. eigenvalues --   -0.49207  -0.48888  -0.48780  -0.48231  -0.48098
 Alpha  occ. eigenvalues --   -0.47781  -0.47646  -0.47319  -0.47049  -0.46866
 Alpha  occ. eigenvalues --   -0.46489  -0.46229  -0.45870  -0.45690  -0.45170
 Alpha  occ. eigenvalues --   -0.45063  -0.44808  -0.44348  -0.43900  -0.43356
 Alpha  occ. eigenvalues --   -0.43245  -0.42944  -0.42774  -0.42558  -0.42237
 Alpha  occ. eigenvalues --   -0.41993  -0.41627  -0.41153  -0.40204  -0.39639
 Alpha  occ. eigenvalues --   -0.39551  -0.39477  -0.39123  -0.38755  -0.38706
 Alpha  occ. eigenvalues --   -0.35955  -0.35153  -0.34724  -0.33154  -0.33052
 Alpha  occ. eigenvalues --   -0.32768  -0.32466  -0.32363  -0.32080  -0.32055
 Alpha  occ. eigenvalues --   -0.30939  -0.29703  -0.27163  -0.22929
 Alpha virt. eigenvalues --   -0.09642  -0.07723  -0.04628  -0.03435  -0.03118
 Alpha virt. eigenvalues --   -0.00231   0.00137   0.00204   0.01260   0.03120
 Alpha virt. eigenvalues --    0.05204   0.05420   0.05479   0.05956   0.06485
 Alpha virt. eigenvalues --    0.06944   0.07159   0.08043   0.08246   0.08932
 Alpha virt. eigenvalues --    0.08948   0.09079   0.09268   0.09638   0.09840
 Alpha virt. eigenvalues --    0.10031   0.10411   0.10475   0.10752   0.10967
 Alpha virt. eigenvalues --    0.11178   0.11392   0.11859   0.11996   0.12589
 Alpha virt. eigenvalues --    0.12696   0.12868   0.13156   0.13261   0.13590
 Alpha virt. eigenvalues --    0.13719   0.13898   0.14185   0.14396   0.14613
 Alpha virt. eigenvalues --    0.14641   0.15004   0.15098   0.15784   0.15921
 Alpha virt. eigenvalues --    0.16106   0.16297   0.16418   0.16462   0.16690
 Alpha virt. eigenvalues --    0.16821   0.17255   0.17355   0.17636   0.17855
 Alpha virt. eigenvalues --    0.17951   0.18088   0.18382   0.18588   0.18738
 Alpha virt. eigenvalues --    0.18829   0.19181   0.19247   0.19801   0.19957
 Alpha virt. eigenvalues --    0.20078   0.20101   0.20449   0.20846   0.21415
 Alpha virt. eigenvalues --    0.21552   0.21760   0.22044   0.22172   0.22403
 Alpha virt. eigenvalues --    0.22522   0.22667   0.22818   0.22925   0.23425
 Alpha virt. eigenvalues --    0.23527   0.23654   0.24027   0.24144   0.24342
 Alpha virt. eigenvalues --    0.24406   0.24541   0.24622   0.24871   0.25115
 Alpha virt. eigenvalues --    0.25224   0.25458   0.25671   0.25778   0.26202
 Alpha virt. eigenvalues --    0.26557   0.26655   0.26858   0.27182   0.27262
 Alpha virt. eigenvalues --    0.27394   0.27483   0.27643   0.27945   0.28153
 Alpha virt. eigenvalues --    0.28280   0.28447   0.28671   0.28983   0.29066
 Alpha virt. eigenvalues --    0.29358   0.29530   0.29677   0.30011   0.30183
 Alpha virt. eigenvalues --    0.30713   0.30989   0.31172   0.31286   0.31509
 Alpha virt. eigenvalues --    0.31600   0.31806   0.31882   0.32436   0.32725
 Alpha virt. eigenvalues --    0.32766   0.32968   0.33319   0.33381   0.33664
 Alpha virt. eigenvalues --    0.33934   0.33979   0.34195   0.34409   0.34641
 Alpha virt. eigenvalues --    0.34725   0.34967   0.35170   0.35308   0.35438
 Alpha virt. eigenvalues --    0.35853   0.36022   0.36061   0.36419   0.36609
 Alpha virt. eigenvalues --    0.36858   0.36961   0.37212   0.37243   0.37274
 Alpha virt. eigenvalues --    0.37485   0.37729   0.37989   0.38253   0.38350
 Alpha virt. eigenvalues --    0.38547   0.38915   0.38926   0.39038   0.39154
 Alpha virt. eigenvalues --    0.39571   0.39859   0.39981   0.40181   0.40333
 Alpha virt. eigenvalues --    0.40481   0.40666   0.40845   0.40981   0.41315
 Alpha virt. eigenvalues --    0.41349   0.41453   0.41922   0.41981   0.42318
 Alpha virt. eigenvalues --    0.42476   0.42731   0.42842   0.43100   0.43395
 Alpha virt. eigenvalues --    0.43471   0.43618   0.43787   0.43833   0.44048
 Alpha virt. eigenvalues --    0.44180   0.44421   0.44634   0.45009   0.45116
 Alpha virt. eigenvalues --    0.45230   0.45324   0.45444   0.45906   0.46133
 Alpha virt. eigenvalues --    0.46376   0.46553   0.46817   0.46897   0.47076
 Alpha virt. eigenvalues --    0.47265   0.47497   0.47565   0.47741   0.47911
 Alpha virt. eigenvalues --    0.47999   0.48224   0.48347   0.48637   0.48848
 Alpha virt. eigenvalues --    0.48954   0.49112   0.49312   0.49424   0.49651
 Alpha virt. eigenvalues --    0.49834   0.50137   0.50260   0.50328   0.50617
 Alpha virt. eigenvalues --    0.50669   0.50841   0.51053   0.51105   0.51398
 Alpha virt. eigenvalues --    0.51662   0.51883   0.52044   0.52077   0.52357
 Alpha virt. eigenvalues --    0.52616   0.52746   0.52898   0.53111   0.53243
 Alpha virt. eigenvalues --    0.53281   0.53561   0.53701   0.54021   0.54166
 Alpha virt. eigenvalues --    0.54502   0.54614   0.54869   0.55102   0.55242
 Alpha virt. eigenvalues --    0.55552   0.55864   0.56014   0.56406   0.56709
 Alpha virt. eigenvalues --    0.56832   0.57077   0.57141   0.57512   0.57734
 Alpha virt. eigenvalues --    0.57832   0.58328   0.58490   0.58533   0.58796
 Alpha virt. eigenvalues --    0.58971   0.59296   0.59496   0.59842   0.60051
 Alpha virt. eigenvalues --    0.60258   0.60505   0.60557   0.60743   0.61083
 Alpha virt. eigenvalues --    0.61224   0.61473   0.61621   0.62247   0.62619
 Alpha virt. eigenvalues --    0.62727   0.63219   0.63418   0.63621   0.63879
 Alpha virt. eigenvalues --    0.64134   0.64504   0.64534   0.65009   0.65083
 Alpha virt. eigenvalues --    0.65211   0.65513   0.65665   0.65881   0.65993
 Alpha virt. eigenvalues --    0.66411   0.66637   0.66741   0.66815   0.66846
 Alpha virt. eigenvalues --    0.67327   0.67699   0.67953   0.68116   0.68398
 Alpha virt. eigenvalues --    0.68672   0.68722   0.68929   0.69164   0.69402
 Alpha virt. eigenvalues --    0.69677   0.69805   0.70285   0.70317   0.70470
 Alpha virt. eigenvalues --    0.70604   0.70929   0.71176   0.71307   0.71467
 Alpha virt. eigenvalues --    0.71761   0.71954   0.72220   0.72405   0.72515
 Alpha virt. eigenvalues --    0.72643   0.72849   0.72987   0.73068   0.73207
 Alpha virt. eigenvalues --    0.73373   0.73597   0.73759   0.73945   0.74301
 Alpha virt. eigenvalues --    0.74750   0.74903   0.75008   0.75332   0.75855
 Alpha virt. eigenvalues --    0.76314   0.76455   0.76510   0.76656   0.77263
 Alpha virt. eigenvalues --    0.77677   0.78001   0.78189   0.78556   0.78888
 Alpha virt. eigenvalues --    0.79076   0.79139   0.79402   0.79713   0.79875
 Alpha virt. eigenvalues --    0.79975   0.80571   0.80668   0.80710   0.81110
 Alpha virt. eigenvalues --    0.81269   0.81505   0.81874   0.82071   0.82390
 Alpha virt. eigenvalues --    0.82623   0.82779   0.83081   0.83213   0.83537
 Alpha virt. eigenvalues --    0.83870   0.84139   0.84500   0.84772   0.85064
 Alpha virt. eigenvalues --    0.85149   0.85463   0.85790   0.85921   0.85938
 Alpha virt. eigenvalues --    0.86312   0.86823   0.87055   0.87323   0.87355
 Alpha virt. eigenvalues --    0.87520   0.87913   0.88226   0.88438   0.88723
 Alpha virt. eigenvalues --    0.89048   0.89459   0.89601   0.89619   0.89959
 Alpha virt. eigenvalues --    0.90340   0.90552   0.90920   0.91002   0.91291
 Alpha virt. eigenvalues --    0.91806   0.91984   0.92316   0.92325   0.92829
 Alpha virt. eigenvalues --    0.93136   0.93698   0.93845   0.93993   0.94425
 Alpha virt. eigenvalues --    0.94518   0.95165   0.95496   0.96051   0.96468
 Alpha virt. eigenvalues --    0.96860   0.96892   0.97141   0.97289   0.97767
 Alpha virt. eigenvalues --    0.97879   0.98189   0.98376   0.98615   0.98718
 Alpha virt. eigenvalues --    0.99087   0.99363   0.99547   0.99800   0.99856
 Alpha virt. eigenvalues --    1.00221   1.00681   1.00814   1.00893   1.01031
 Alpha virt. eigenvalues --    1.01203   1.01373   1.01616   1.01791   1.01962
 Alpha virt. eigenvalues --    1.02374   1.02480   1.02901   1.03375   1.03531
 Alpha virt. eigenvalues --    1.03838   1.04235   1.04527   1.04715   1.05134
 Alpha virt. eigenvalues --    1.05295   1.05701   1.05964   1.06336   1.06387
 Alpha virt. eigenvalues --    1.06892   1.07216   1.07525   1.07693   1.08110
 Alpha virt. eigenvalues --    1.08422   1.08712   1.08754   1.08950   1.09125
 Alpha virt. eigenvalues --    1.09388   1.09449   1.09599   1.10039   1.10291
 Alpha virt. eigenvalues --    1.10415   1.10584   1.10677   1.11166   1.11284
 Alpha virt. eigenvalues --    1.11449   1.11907   1.12043   1.12438   1.12638
 Alpha virt. eigenvalues --    1.12772   1.13253   1.13534   1.13682   1.14123
 Alpha virt. eigenvalues --    1.14247   1.14549   1.14921   1.15177   1.15213
 Alpha virt. eigenvalues --    1.15293   1.15917   1.16248   1.16522   1.16607
 Alpha virt. eigenvalues --    1.16887   1.17296   1.17373   1.17750   1.18107
 Alpha virt. eigenvalues --    1.18521   1.19041   1.19317   1.19510   1.19737
 Alpha virt. eigenvalues --    1.20024   1.20158   1.20473   1.20929   1.21016
 Alpha virt. eigenvalues --    1.21491   1.21976   1.22137   1.22285   1.22625
 Alpha virt. eigenvalues --    1.23088   1.23365   1.23639   1.23733   1.23870
 Alpha virt. eigenvalues --    1.24120   1.24481   1.24812   1.24984   1.25239
 Alpha virt. eigenvalues --    1.25481   1.25819   1.25965   1.26080   1.26661
 Alpha virt. eigenvalues --    1.26804   1.27094   1.27194   1.27520   1.27825
 Alpha virt. eigenvalues --    1.27971   1.28431   1.28622   1.28895   1.28976
 Alpha virt. eigenvalues --    1.29280   1.29469   1.29902   1.30373   1.30638
 Alpha virt. eigenvalues --    1.30712   1.31087   1.31396   1.31583   1.31772
 Alpha virt. eigenvalues --    1.31893   1.32120   1.32361   1.32499   1.33020
 Alpha virt. eigenvalues --    1.33364   1.33686   1.33808   1.34090   1.34343
 Alpha virt. eigenvalues --    1.34605   1.34871   1.35051   1.35477   1.35566
 Alpha virt. eigenvalues --    1.36217   1.36486   1.36884   1.36980   1.37222
 Alpha virt. eigenvalues --    1.37702   1.38037   1.38320   1.38363   1.38689
 Alpha virt. eigenvalues --    1.38764   1.39251   1.39596   1.39907   1.39957
 Alpha virt. eigenvalues --    1.40226   1.40682   1.40844   1.41685   1.41823
 Alpha virt. eigenvalues --    1.42276   1.42494   1.42694   1.42996   1.43090
 Alpha virt. eigenvalues --    1.43236   1.43963   1.44151   1.44197   1.44844
 Alpha virt. eigenvalues --    1.45134   1.45157   1.45445   1.45703   1.45997
 Alpha virt. eigenvalues --    1.46121   1.46302   1.46404   1.46795   1.46960
 Alpha virt. eigenvalues --    1.47202   1.47697   1.48123   1.48351   1.48641
 Alpha virt. eigenvalues --    1.48863   1.49384   1.49610   1.49897   1.50017
 Alpha virt. eigenvalues --    1.50128   1.50388   1.50541   1.50870   1.51157
 Alpha virt. eigenvalues --    1.51771   1.51893   1.52018   1.52127   1.52346
 Alpha virt. eigenvalues --    1.52425   1.52746   1.53096   1.53159   1.53521
 Alpha virt. eigenvalues --    1.53878   1.54199   1.54329   1.54512   1.54683
 Alpha virt. eigenvalues --    1.54972   1.55256   1.55470   1.55734   1.55949
 Alpha virt. eigenvalues --    1.56111   1.56357   1.56918   1.57111   1.57467
 Alpha virt. eigenvalues --    1.57604   1.57810   1.58136   1.58208   1.58745
 Alpha virt. eigenvalues --    1.59059   1.59154   1.59684   1.59954   1.60084
 Alpha virt. eigenvalues --    1.60482   1.60697   1.60916   1.61150   1.61437
 Alpha virt. eigenvalues --    1.61581   1.62060   1.62397   1.62481   1.63074
 Alpha virt. eigenvalues --    1.63168   1.63507   1.63699   1.63726   1.63860
 Alpha virt. eigenvalues --    1.64248   1.64521   1.64626   1.65000   1.65071
 Alpha virt. eigenvalues --    1.65502   1.66062   1.66241   1.66285   1.66695
 Alpha virt. eigenvalues --    1.66956   1.67047   1.67461   1.67796   1.67913
 Alpha virt. eigenvalues --    1.68127   1.68312   1.68425   1.69166   1.69417
 Alpha virt. eigenvalues --    1.69752   1.70232   1.70504   1.71107   1.71222
 Alpha virt. eigenvalues --    1.71394   1.71744   1.72096   1.72179   1.72380
 Alpha virt. eigenvalues --    1.72631   1.73021   1.73197   1.73369   1.74127
 Alpha virt. eigenvalues --    1.74407   1.74741   1.74951   1.75305   1.75557
 Alpha virt. eigenvalues --    1.76024   1.76515   1.76903   1.77013   1.77382
 Alpha virt. eigenvalues --    1.77697   1.77928   1.78754   1.79014   1.79550
 Alpha virt. eigenvalues --    1.80026   1.80216   1.80415   1.80662   1.80984
 Alpha virt. eigenvalues --    1.81073   1.81245   1.81909   1.82219   1.82364
 Alpha virt. eigenvalues --    1.82926   1.83375   1.83446   1.84120   1.84436
 Alpha virt. eigenvalues --    1.85009   1.85254   1.85515   1.86054   1.86359
 Alpha virt. eigenvalues --    1.87013   1.87255   1.87849   1.87977   1.88495
 Alpha virt. eigenvalues --    1.88906   1.89171   1.89716   1.90288   1.90839
 Alpha virt. eigenvalues --    1.91244   1.92010   1.92477   1.93228   1.93617
 Alpha virt. eigenvalues --    1.93905   1.94220   1.94552   1.94813   1.95513
 Alpha virt. eigenvalues --    1.96144   1.96348   1.97331   1.97624   1.97962
 Alpha virt. eigenvalues --    1.98260   1.98780   1.99216   1.99316   1.99404
 Alpha virt. eigenvalues --    2.00011   2.00400   2.00481   2.01045   2.01351
 Alpha virt. eigenvalues --    2.01703   2.02096   2.02360   2.02578   2.03477
 Alpha virt. eigenvalues --    2.03754   2.04310   2.04525   2.05114   2.05321
 Alpha virt. eigenvalues --    2.05775   2.06307   2.06851   2.07506   2.07721
 Alpha virt. eigenvalues --    2.08044   2.08317   2.08849   2.08967   2.09775
 Alpha virt. eigenvalues --    2.09926   2.10264   2.10313   2.10877   2.11346
 Alpha virt. eigenvalues --    2.11420   2.12167   2.12445   2.13004   2.13172
 Alpha virt. eigenvalues --    2.13758   2.13960   2.14535   2.14899   2.15060
 Alpha virt. eigenvalues --    2.15776   2.16266   2.16644   2.17235   2.17431
 Alpha virt. eigenvalues --    2.17826   2.18424   2.18963   2.19260   2.20411
 Alpha virt. eigenvalues --    2.20448   2.21008   2.21655   2.21833   2.22220
 Alpha virt. eigenvalues --    2.22763   2.22886   2.23463   2.23858   2.24202
 Alpha virt. eigenvalues --    2.24927   2.25178   2.25576   2.25630   2.26064
 Alpha virt. eigenvalues --    2.26546   2.26762   2.27610   2.28011   2.29029
 Alpha virt. eigenvalues --    2.29124   2.29181   2.29836   2.30159   2.30648
 Alpha virt. eigenvalues --    2.31255   2.31936   2.32314   2.32825   2.32963
 Alpha virt. eigenvalues --    2.33266   2.33325   2.33955   2.34505   2.34683
 Alpha virt. eigenvalues --    2.34959   2.35055   2.35893   2.36232   2.36711
 Alpha virt. eigenvalues --    2.37282   2.37398   2.38133   2.38339   2.38690
 Alpha virt. eigenvalues --    2.38710   2.39266   2.39614   2.40006   2.40411
 Alpha virt. eigenvalues --    2.40594   2.41075   2.41228   2.42086   2.42978
 Alpha virt. eigenvalues --    2.44200   2.44576   2.45044   2.46545   2.46986
 Alpha virt. eigenvalues --    2.47596   2.48022   2.48651   2.49722   2.49791
 Alpha virt. eigenvalues --    2.50738   2.50835   2.51197   2.51285   2.51646
 Alpha virt. eigenvalues --    2.52402   2.52575   2.53586   2.54454   2.54651
 Alpha virt. eigenvalues --    2.55401   2.55512   2.55858   2.56417   2.56525
 Alpha virt. eigenvalues --    2.56789   2.57063   2.57477   2.58126   2.58167
 Alpha virt. eigenvalues --    2.58701   2.59491   2.60128   2.60464   2.60649
 Alpha virt. eigenvalues --    2.60712   2.61040   2.61202   2.61415   2.61589
 Alpha virt. eigenvalues --    2.62308   2.62757   2.63152   2.63587   2.63894
 Alpha virt. eigenvalues --    2.64575   2.64677   2.65172   2.65290   2.66040
 Alpha virt. eigenvalues --    2.66708   2.66945   2.67307   2.67511   2.67962
 Alpha virt. eigenvalues --    2.68292   2.68911   2.69145   2.69444   2.69867
 Alpha virt. eigenvalues --    2.70037   2.70507   2.70574   2.71137   2.71762
 Alpha virt. eigenvalues --    2.71881   2.71991   2.72242   2.72470   2.72680
 Alpha virt. eigenvalues --    2.73191   2.73414   2.73965   2.74024   2.74068
 Alpha virt. eigenvalues --    2.74533   2.74844   2.74977   2.75223   2.75362
 Alpha virt. eigenvalues --    2.75546   2.75702   2.75782   2.75896   2.76312
 Alpha virt. eigenvalues --    2.76571   2.76898   2.77022   2.77796   2.77856
 Alpha virt. eigenvalues --    2.78027   2.78543   2.78605   2.78684   2.79092
 Alpha virt. eigenvalues --    2.79420   2.79731   2.79896   2.80235   2.80356
 Alpha virt. eigenvalues --    2.80568   2.81076   2.81238   2.81593   2.82058
 Alpha virt. eigenvalues --    2.82277   2.82452   2.82711   2.82977   2.83004
 Alpha virt. eigenvalues --    2.83736   2.83908   2.84025   2.84390   2.84463
 Alpha virt. eigenvalues --    2.84777   2.84977   2.85374   2.85559   2.85793
 Alpha virt. eigenvalues --    2.86234   2.86585   2.86906   2.86930   2.87127
 Alpha virt. eigenvalues --    2.87551   2.87921   2.88116   2.88566   2.88801
 Alpha virt. eigenvalues --    2.89070   2.89261   2.89480   2.89713   2.89884
 Alpha virt. eigenvalues --    2.90041   2.90198   2.90509   2.91325   2.91336
 Alpha virt. eigenvalues --    2.91550   2.91914   2.92224   2.92446   2.92597
 Alpha virt. eigenvalues --    2.92700   2.92859   2.93134   2.93572   2.93855
 Alpha virt. eigenvalues --    2.94246   2.94500   2.94770   2.95034   2.95485
 Alpha virt. eigenvalues --    2.95732   2.95809   2.96182   2.96255   2.96587
 Alpha virt. eigenvalues --    2.96700   2.96878   2.96984   2.97345   2.97828
 Alpha virt. eigenvalues --    2.97912   2.98223   2.98614   2.98775   2.99254
 Alpha virt. eigenvalues --    2.99384   2.99664   2.99990   3.00547   3.00610
 Alpha virt. eigenvalues --    3.01006   3.01289   3.01724   3.01889   3.02285
 Alpha virt. eigenvalues --    3.02334   3.02616   3.02770   3.02886   3.02913
 Alpha virt. eigenvalues --    3.03078   3.03405   3.03641   3.03744   3.03984
 Alpha virt. eigenvalues --    3.04255   3.04600   3.04736   3.04831   3.04998
 Alpha virt. eigenvalues --    3.05268   3.05405   3.05543   3.05769   3.05985
 Alpha virt. eigenvalues --    3.06211   3.06254   3.06853   3.06945   3.07048
 Alpha virt. eigenvalues --    3.07441   3.07647   3.07853   3.07912   3.08004
 Alpha virt. eigenvalues --    3.08225   3.08716   3.08893   3.09269   3.09668
 Alpha virt. eigenvalues --    3.09803   3.09954   3.10010   3.10195   3.10597
 Alpha virt. eigenvalues --    3.10715   3.10922   3.11270   3.11293   3.11751
 Alpha virt. eigenvalues --    3.12052   3.12310   3.12470   3.12689   3.12904
 Alpha virt. eigenvalues --    3.13219   3.13799   3.13950   3.14144   3.14231
 Alpha virt. eigenvalues --    3.14458   3.15005   3.15156   3.15436   3.15523
 Alpha virt. eigenvalues --    3.15774   3.16024   3.16200   3.16453   3.16598
 Alpha virt. eigenvalues --    3.16895   3.17165   3.17302   3.17546   3.17804
 Alpha virt. eigenvalues --    3.18251   3.18438   3.18536   3.18717   3.18917
 Alpha virt. eigenvalues --    3.19037   3.19293   3.19409   3.19592   3.19707
 Alpha virt. eigenvalues --    3.20065   3.20261   3.20530   3.21170   3.21410
 Alpha virt. eigenvalues --    3.21468   3.21602   3.21844   3.22194   3.22352
 Alpha virt. eigenvalues --    3.22442   3.22716   3.23011   3.23527   3.23873
 Alpha virt. eigenvalues --    3.23979   3.24031   3.24404   3.24747   3.24953
 Alpha virt. eigenvalues --    3.25155   3.25368   3.25883   3.25983   3.26050
 Alpha virt. eigenvalues --    3.26412   3.26521   3.26752   3.27149   3.27354
 Alpha virt. eigenvalues --    3.27707   3.27808   3.27997   3.28355   3.28430
 Alpha virt. eigenvalues --    3.28690   3.28884   3.29062   3.29399   3.29599
 Alpha virt. eigenvalues --    3.30174   3.30475   3.30675   3.30866   3.31180
 Alpha virt. eigenvalues --    3.31510   3.31684   3.31861   3.32033   3.32488
 Alpha virt. eigenvalues --    3.32702   3.32842   3.33245   3.33507   3.33834
 Alpha virt. eigenvalues --    3.34031   3.34308   3.34580   3.34993   3.35123
 Alpha virt. eigenvalues --    3.35216   3.35739   3.35864   3.36027   3.36467
 Alpha virt. eigenvalues --    3.36586   3.36786   3.37281   3.37655   3.37696
 Alpha virt. eigenvalues --    3.37908   3.38419   3.38854   3.39033   3.39280
 Alpha virt. eigenvalues --    3.39546   3.39677   3.39931   3.40256   3.40470
 Alpha virt. eigenvalues --    3.40695   3.40895   3.41208   3.41477   3.41748
 Alpha virt. eigenvalues --    3.41944   3.42380   3.42466   3.42706   3.42779
 Alpha virt. eigenvalues --    3.43243   3.43435   3.43722   3.43940   3.44401
 Alpha virt. eigenvalues --    3.44597   3.44722   3.45172   3.45407   3.45822
[...]
 Alpha virt. eigenvalues --    3.55157   3.55580   3.55687   3.55806   3.56041
 Alpha virt. eigenvalues --    3.56251   3.56543   3.56922   3.57121   3.57762
 Alpha virt. eigenvalues --    3.57895   3.58437   3.58502   3.58997   3.59363
 Alpha virt. eigenvalues --    3.59821   3.59991   3.60712   3.60977   3.61065
 Alpha virt. eigenvalues --    3.61132   3.61717   3.61902   3.62640   3.62891
 Alpha virt. eigenvalues --    3.63076   3.63251   3.63744   3.63845   3.64215
 Alpha virt. eigenvalues --    3.64456   3.64881   3.65203   3.65409   3.65873
 Alpha virt. eigenvalues --    3.65979   3.66143   3.66515   3.66663   3.66752
 Alpha virt. eigenvalues --    3.67098   3.67631   3.67963   3.68073   3.68626
 Alpha virt. eigenvalues --    3.69237   3.69638   3.69704   3.70050   3.70739
 Alpha virt. eigenvalues --    3.71049   3.71570   3.71803   3.71990   3.72150
 Alpha virt. eigenvalues --    3.72391   3.72519   3.72894   3.73220   3.73284
 Alpha virt. eigenvalues --    3.73433   3.73634   3.73979   3.74243   3.74400
 Alpha virt. eigenvalues --    3.75076   3.75367   3.75389   3.75608   3.76180
 Alpha virt. eigenvalues --    3.76812   3.77132   3.77319   3.77472   3.77773
 Alpha virt. eigenvalues --    3.77963   3.78260   3.78657   3.79145   3.79274
 Alpha virt. eigenvalues --    3.79576   3.79932   3.80093   3.80523   3.80963
 Alpha virt. eigenvalues --    3.81641   3.81784   3.82037   3.82531   3.82811
 Alpha virt. eigenvalues --    3.83084   3.83275   3.83693   3.83995   3.84111
 Alpha virt. eigenvalues --    3.84881   3.84962   3.85531   3.85637   3.86051
 Alpha virt. eigenvalues --    3.86122   3.86353   3.86773   3.86857   3.87107
 Alpha virt. eigenvalues --    3.87146   3.87549   3.87918   3.88252   3.88468
 Alpha virt. eigenvalues --    3.88862   3.89063   3.89337   3.89553   3.89650
 Alpha virt. eigenvalues --    3.89957   3.90238   3.90612   3.91021   3.91062
 Alpha virt. eigenvalues --    3.91400   3.91642   3.91962   3.92164   3.92595
 Alpha virt. eigenvalues --    3.92833   3.93076   3.93453   3.93819   3.94221
 Alpha virt. eigenvalues --    3.94386   3.94534   3.94766   3.94932   3.95682
 Alpha virt. eigenvalues --    3.95731   3.95885   3.96154   3.96735   3.97141
 Alpha virt. eigenvalues --    3.97306   3.97418   3.97974   3.98203   3.98470
 Alpha virt. eigenvalues --    3.98867   3.99184   3.99656   3.99686   4.00106
 Alpha virt. eigenvalues --    4.00251   4.00609   4.00765   4.00988   4.01633
 Alpha virt. eigenvalues --    4.01737   4.01917   4.02269   4.02458   4.02607
 Alpha virt. eigenvalues --    4.02960   4.03380   4.03432   4.04151   4.04326
 Alpha virt. eigenvalues --    4.04405   4.04748   4.05035   4.05174   4.05230
 Alpha virt. eigenvalues --    4.05514   4.05827   4.06322   4.06517   4.06768
 Alpha virt. eigenvalues --    4.07236   4.07336   4.07919   4.08202   4.08561
 Alpha virt. eigenvalues --    4.08677   4.08922   4.09026   4.09505   4.09892
 Alpha virt. eigenvalues --    4.10047   4.10282   4.10532   4.10988   4.11537
 Alpha virt. eigenvalues --    4.11709   4.11927   4.12184   4.12447   4.12967
 Alpha virt. eigenvalues --    4.13256   4.13712   4.13982   4.14173   4.14624
 Alpha virt. eigenvalues --    4.14988   4.15374   4.15571   4.15778   4.15982
 Alpha virt. eigenvalues --    4.16161   4.16554   4.16707   4.17093   4.17181
 Alpha virt. eigenvalues --    4.17725   4.17943   4.18162   4.18522   4.18715
 Alpha virt. eigenvalues --    4.18980   4.19721   4.19772   4.19842   4.20410
 Alpha virt. eigenvalues --    4.20763   4.20788   4.21170   4.21285   4.21735
 Alpha virt. eigenvalues --    4.21807   4.22119   4.22270   4.22663   4.23076
 Alpha virt. eigenvalues --    4.23202   4.23380   4.23574   4.24171   4.24298
 Alpha virt. eigenvalues --    4.24675   4.24940   4.25357   4.25713   4.25864
 Alpha virt. eigenvalues --    4.26178   4.26662   4.27135   4.27347   4.27595
 Alpha virt. eigenvalues --    4.27925   4.28452   4.28553   4.28730   4.29142
 Alpha virt. eigenvalues --    4.29792   4.30195   4.30651   4.31183   4.31368
 Alpha virt. eigenvalues --    4.31555   4.32211   4.32306   4.32682   4.33132
 Alpha virt. eigenvalues --    4.33435   4.34080   4.34254   4.34751   4.35001
 Alpha virt. eigenvalues --    4.35273   4.35637   4.36040   4.36254   4.36678
 Alpha virt. eigenvalues --    4.37356   4.37452   4.37536   4.38272   4.38531
 Alpha virt. eigenvalues --    4.39245   4.39863   4.40032   4.40384   4.41202
 Alpha virt. eigenvalues --    4.41553   4.42587   4.42700   4.43523   4.43884
 Alpha virt. eigenvalues --    4.44682   4.44975   4.45718   4.46000   4.46740
 Alpha virt. eigenvalues --    4.47391   4.47481   4.47812   4.48539   4.48919
 Alpha virt. eigenvalues --    4.48965   4.49262   4.49749   4.49993   4.50207
 Alpha virt. eigenvalues --    4.50686   4.50831   4.51375   4.51923   4.52542
 Alpha virt. eigenvalues --    4.52850   4.53491   4.54788   4.55095   4.55621
 Alpha virt. eigenvalues --    4.55870   4.55967   4.57189   4.57535   4.57935
 Alpha virt. eigenvalues --    4.58351   4.58861   4.59538   4.60424   4.60766
 Alpha virt. eigenvalues --    4.61395   4.61539   4.62055   4.63206   4.63567
 Alpha virt. eigenvalues --    4.63631   4.63900   4.64208   4.64520   4.64694
 Alpha virt. eigenvalues --    4.65428   4.65637   4.66158   4.66606   4.66977
 Alpha virt. eigenvalues --    4.67214   4.67622   4.67939   4.68468   4.69025
 Alpha virt. eigenvalues --    4.69538   4.69646   4.70154   4.70407   4.70699
 Alpha virt. eigenvalues --    4.71146   4.71800   4.72215   4.72524   4.72639
 Alpha virt. eigenvalues --    4.72750   4.73162   4.73832   4.73998   4.74635
 Alpha virt. eigenvalues --    4.75647   4.76374   4.76646   4.76986   4.77345
 Alpha virt. eigenvalues --    4.78087   4.78480   4.78512   4.78874   4.79116
 Alpha virt. eigenvalues --    4.79801   4.80601   4.80650   4.81226   4.81487
 Alpha virt. eigenvalues --    4.82182   4.83194   4.83384   4.83757   4.84894
 Alpha virt. eigenvalues --    4.85061   4.85261   4.85763   4.86129   4.86458
 Alpha virt. eigenvalues --    4.86928   4.87124   4.87364   4.88491   4.89161
 Alpha virt. eigenvalues --    4.89538   4.90204   4.90264   4.90603   4.91063
 Alpha virt. eigenvalues --    4.91568   4.91882   4.93119   4.93309   4.93562
 Alpha virt. eigenvalues --    4.93762   4.94378   4.94627   4.94899   4.96373
 Alpha virt. eigenvalues --    4.96658   4.97354   4.97736   4.98021   4.98856
 Alpha virt. eigenvalues --    4.99197   4.99565   4.99687   5.00728   5.01343
 Alpha virt. eigenvalues --    5.01910   5.02949   5.03118   5.03694   5.04067
 Alpha virt. eigenvalues --    5.04417   5.04652   5.05417   5.06142   5.06310
 Alpha virt. eigenvalues --    5.06585   5.07153   5.07455   5.08228   5.08315
 Alpha virt. eigenvalues --    5.08653   5.09082   5.09397   5.09988   5.10406
 Alpha virt. eigenvalues --    5.11154   5.11593   5.11873   5.12171   5.12738
 Alpha virt. eigenvalues --    5.12909   5.13685   5.14203   5.14356   5.14415
 Alpha virt. eigenvalues --    5.15008   5.15374   5.16171   5.16365   5.16799
 Alpha virt. eigenvalues --    5.17547   5.18032   5.18103   5.18613   5.18873
 Alpha virt. eigenvalues --    5.19190   5.19585   5.19978   5.20383   5.21110
 Alpha virt. eigenvalues --    5.21316   5.21818   5.22204   5.22341   5.22749
 Alpha virt. eigenvalues --    5.23507   5.23828   5.24231   5.24703   5.25499
 Alpha virt. eigenvalues --    5.26011   5.26743   5.26960   5.27299   5.27594
 Alpha virt. eigenvalues --    5.27602   5.28335   5.28713   5.29010   5.29356
 Alpha virt. eigenvalues --    5.30092   5.30348   5.30743   5.31249   5.32042
 Alpha virt. eigenvalues --    5.33001   5.33065   5.33425   5.34172   5.34572
 Alpha virt. eigenvalues --    5.35125   5.35244   5.36107   5.36340   5.36603
 Alpha virt. eigenvalues --    5.36911   5.37190   5.37780   5.38128   5.38281
 Alpha virt. eigenvalues --    5.38624   5.38800   5.38822   5.39538   5.39888
 Alpha virt. eigenvalues --    5.40416   5.40615   5.40955   5.41375   5.42156
 Alpha virt. eigenvalues --    5.42666   5.43303   5.43433   5.43915   5.45021
 Alpha virt. eigenvalues --    5.45591   5.47873   5.48438   5.49468   5.49657
 Alpha virt. eigenvalues --    5.50550   5.51259   5.51634   5.51930   5.52934
 Alpha virt. eigenvalues --    5.53487   5.54346   5.54457   5.54767   5.55264
 Alpha virt. eigenvalues --    5.56424   5.56574   5.56939   5.58151   5.58300
 Alpha virt. eigenvalues --    5.58733   5.58946   5.59338   5.59894   5.59944
 Alpha virt. eigenvalues --    5.60056   5.60949   5.61715   5.61959   5.62506
 Alpha virt. eigenvalues --    5.62770   5.63394   5.63940   5.64467   5.64745
 Alpha virt. eigenvalues --    5.66046   5.66628   5.66867   5.67794   5.68902
 Alpha virt. eigenvalues --    5.68959   5.70049   5.71427   5.72187   5.73295
 Alpha virt. eigenvalues --    5.73972   5.75330   5.76029   5.76667   5.77422
 Alpha virt. eigenvalues --    5.77834   5.79875   5.81379   5.82083   5.83662
 Alpha virt. eigenvalues --    5.84390   5.86166   5.86808   5.88788   5.89687
 Alpha virt. eigenvalues --    5.91770   5.92134   5.93554   5.94773   5.95950
 Alpha virt. eigenvalues --    5.99218   6.01978   6.02244   6.02927   6.03747
 Alpha virt. eigenvalues --    6.09998   6.11856   6.12925   6.14649   6.18109
 Alpha virt. eigenvalues --    6.19352   6.22205   6.24832   6.25748   6.27865
 Alpha virt. eigenvalues --    6.27979   6.34558   6.35229   6.36177   6.37535
 Alpha virt. eigenvalues --    6.40090   6.41322   6.41705   6.42364   6.43198
 Alpha virt. eigenvalues --    6.44350   6.51661   6.60406   6.62092   6.68973
 Alpha virt. eigenvalues --    6.73213   6.73452   6.80683   6.81666   6.82870
 Alpha virt. eigenvalues --    6.84179   6.86258   6.86902   6.89711   6.91033
 Alpha virt. eigenvalues --    6.94200   6.94557   6.97282   6.98546   6.99134
 Alpha virt. eigenvalues --    6.99745   7.02114   7.05297   7.06733   7.08452
 Alpha virt. eigenvalues --    7.08800   7.09700   7.11570   7.17550   7.20246
 Alpha virt. eigenvalues --    7.22568   7.24110   7.26768   7.32008   7.33903
 Alpha virt. eigenvalues --    7.34815   7.41011   7.45515   7.47615   7.53660
 Alpha virt. eigenvalues --    7.61862   8.44439   8.46138   8.56282   8.58495
 Alpha virt. eigenvalues --    8.81592   8.86757   8.90477   8.91306   8.92102
 Alpha virt. eigenvalues --    9.00018  15.87536  22.78527  22.79650  22.89889
 Alpha virt. eigenvalues --   22.96768  22.99364  23.08595  23.12249  23.13682
 Alpha virt. eigenvalues --   23.14209  23.16725  23.18009  23.21949  23.23072
 Alpha virt. eigenvalues --   23.24566  23.29487  23.29948  23.30629  23.32027
 Alpha virt. eigenvalues --   23.32564  23.33385  23.33904  23.35166  23.36371
 Alpha virt. eigenvalues --   23.38688  23.40740  23.45323  23.48500  23.49909
 Alpha virt. eigenvalues --   23.51619  23.53761  23.59227  23.62575  23.62610
 Alpha virt. eigenvalues --   23.69150  23.72496  23.75553  23.79072  23.86457
 Alpha virt. eigenvalues --   23.91863  24.04548  24.07356  24.21416  32.57923
 Alpha virt. eigenvalues --   32.80811  33.13539  33.29806  44.18756  44.20979
 Alpha virt. eigenvalues --   44.21100  44.25969  44.73406  57.31267  57.53958
          Condensed to atoms (all electrons):
 Mulliken charges:
               1
     1  C   -0.137180
     2  N    0.259081
     3  O   -0.585804
     4  C    0.040038
     5  C   -0.127820
     6  C   -0.149990
     7  C   -0.021169
     8  C   -0.331688
     9  C    0.295889
    10  O   -0.370721
    11  C   -0.033714
    12  C   -0.048184
    13  C   -0.200799
    14  C   -0.233471
    15  C    0.142876
    16  C    0.087131
    17  C   -0.014605
    18  C   -0.434310
    19  C   -0.096970
    20  C    0.016519
    21  C   -0.118841
    22  C   -0.104652
    23  C    0.035226
    24  C    0.184332
    25  O   -0.263165
    26  C    0.101786
    27  C    0.016767
    28  C   -0.133448
    29  C   -0.099926
    30  C   -0.043929
    31  N    0.492336
    32  O   -0.376298
    33  O   -0.375463
    34  C   -0.098869
    35  C   -0.041329
    36  C   -0.042189
    37  C   -0.262782
    38  C   -0.264794
    39  C   -0.278290
    40  N   -0.094191
    41  B    0.364467
    42  F   -0.362613
    43  F   -0.347626
    44  N   -0.105679
    45  C    0.057567
    46  C   -0.410484
    47  C   -0.123870
    48  C    0.015682
    49  C   -0.433059
    50  C    0.083054
    51  C   -0.186211
    52  C   -0.069215
    53  C   -0.116570
    54  C   -0.143412
    55  H    0.146902
    56  H    0.149783
    57  H    0.173879
    58  H    0.157890
    59  H    0.175202
    60  H    0.189669
    61  H    0.166067
    62  H    0.171466
    63  H    0.159935
    64  H    0.132381
    65  H    0.162390
    66  H    0.165482
    67  H    0.141471
    68  H    0.137285
    69  H    0.161186
    70  H    0.191711
    71  H    0.205298
    72  H    0.142817
    73  H    0.154412
    74  H    0.129812
    75  H    0.127289
    76  H    0.132122
    77  H    0.163091
    78  H    0.124786
    79  H    0.135697
    80  H    0.157209
    81  H    0.152849
    82  H    0.162114
    83  H    0.131631
    84  H    0.159130
    85  H    0.159579
    86  H    0.174133
    87  H    0.170752
    88  H    0.154432
    89  H    0.170729
 Sum of Mulliken charges =  -0.00000
 Mulliken charges with hydrogens summed into heavy atoms:
               1
     1  C    0.159505
     2  N    0.259081
     3  O   -0.585804
     4  C    0.040038
     5  C    0.046059
     6  C    0.007899
     7  C   -0.021169
     8  C    0.033183
     9  C    0.295889
    10  O   -0.370721
    11  C   -0.033714
    12  C    0.117883
    13  C   -0.029333
    14  C   -0.233471
    15  C    0.142876
    16  C    0.087131
    17  C   -0.014605
    18  C    0.020396
    19  C    0.068512
    20  C    0.016519
    21  C    0.022629
    22  C    0.032633
    23  C    0.035226
    24  C    0.184332
    25  O   -0.263165
    26  C    0.101786
    27  C    0.016767
    28  C    0.027738
    29  C    0.091785
    30  C   -0.043929
    31  N    0.492336
    32  O   -0.376298
    33  O   -0.375463
    34  C    0.106429
    35  C    0.101488
    36  C   -0.042189
    37  C    0.021442
    38  C   -0.005384
    39  C    0.009586
    40  N   -0.094191
    41  B    0.364467
    42  F   -0.362613
    43  F   -0.347626
    44  N   -0.105679
    45  C    0.057567
    46  C    0.035272
    47  C    0.038244
    48  C    0.015682
    49  C    0.017280
    50  C    0.083054
    51  C   -0.012078
    52  C    0.101537
    53  C    0.037862
    54  C    0.027318
 Electronic spatial extent (au):  <R**2>=          75141.5958
 Charge=             -0.0000 electrons
 Dipole moment (field-independent basis, Debye):
    X=             -5.9135    Y=             -9.1460    Z=              1.1266  Tot=             10.9493
 Quadrupole moment (field-independent basis, Debye-Ang):
   XX=           -241.4522   YY=           -386.0237   ZZ=           -318.0996
   XY=            -49.1367   XZ=             -2.6741   YZ=              8.9476
 Traceless Quadrupole moment (field-independent basis, Debye-Ang):
   XX=             73.7396   YY=            -70.8318   ZZ=             -2.9078
   XY=            -49.1367   XZ=             -2.6741   YZ=              8.9476
 Octapole moment (field-independent basis, Debye-Ang**2):
  XXX=          -1559.2136  YYY=           -720.9290  ZZZ=              0.4475  XYY=            -34.1514
  XXY=           -951.0895  XXZ=            338.2710  XZZ=              6.6123  YZZ=             15.4801
  YYZ=             61.4212  XYZ=             85.7404
 Hexadecapole moment (field-independent basis, Debye-Ang**3):
 XXXX=         -70115.4331 YYYY=         -23620.0960 ZZZZ=           -997.4576 XXXY=          -8996.8056
 XXXZ=           3805.8195 YYYX=            421.4868 YYYZ=            474.0264 ZZZX=             68.2007
 ZZZY=            -34.9904 XXYY=         -23056.6530 XXZZ=         -13950.7370 YYZZ=          -3714.9149
 XXYZ=           1572.0573 YYXZ=            215.4004 ZZXY=            -51.5582
 N-N= 6.299158248795D+03 E-N=-1.828921342936D+04  KE= 2.428153361718D+03
 No NMR shielding tensors so no spin-rotation constants.
 Leave Link  601 at Sat Oct 25 12:46:31 2025, MaxMem= 30870077440 cpu:             111.0 elap:               2.1
 (Enter /public/software/gauss/g16/l9999.exe)
 1\1\GINC-CU056\SP\RM062X\def2TZVPP\C42H35B1F2N4O5\BAIDING\25-Oct-2025\
 0\\#p M062X/DEF2TZVPP scrf=(solvent=water) em=GD3\\Energy calculation 
 for BONO_NO2\\0,1\C,0,12.891161,3.075396,1.01014\N,0,12.000409,3.56904
 5,0.198528\O,0,12.13768,4.709224,-0.403974\C,0,10.757514,2.853218,-0.0
 70754\C,0,10.727242,1.459744,-0.134398\C,0,9.517046,0.821218,-0.396347
 \C,0,8.340554,1.554735,-0.600124\C,0,7.033707,0.85225,-0.86761\C,0,6.3
 36582,0.35643,0.396636\O,0,6.848339,0.506634,1.504299\C,0,5.012681,-0.
 323205,0.258934\C,0,4.405741,-0.554547,-0.98565\C,0,3.172387,-1.198772
 ,-1.060031\C,0,2.520405,-1.619577,0.106374\C,0,1.200148,-2.315152,0.02
 6642\C,0,0.014285,-1.569237,0.100678\C,0,-0.21502,-0.154262,0.246105\C
 ,0,0.778811,0.96187,0.356362\C,0,-1.585871,0.016348,0.279411\C,0,-2.20
 8209,-1.256182,0.16167\C,0,-3.605416,-1.580477,0.173756\C,0,-4.594728,
 -0.637504,0.148484\C,0,-6.001451,-0.912226,0.195768\C,0,-6.916142,0.12
 0146,0.186622\O,0,-6.418099,1.407409,0.042743\C,0,-7.24298,2.499756,0.
 012064\C,0,-8.642382,2.354899,0.122962\C,0,-9.439004,3.51467,0.078203\
 C,0,-8.867885,4.768694,-0.071604\C,0,-7.475831,4.861911,-0.176097\N,0,
 -6.868477,6.169047,-0.332904\O,0,-5.635036,6.242603,-0.426148\O,0,-7.6
 03914,7.165708,-0.367926\C,0,-6.643256,3.73995,-0.135491\C,0,-9.169809
 ,1.027744,0.283711\C,0,-8.34255,-0.053594,0.326132\C,0,-8.849558,-1.45
 5128,0.551214\C,0,-7.968034,-2.482433,-0.162162\C,0,-6.508021,-2.34035
 3,0.278077\N,0,-1.230872,-2.202952,0.053874\B,0,-1.449566,-3.70619,-0.
 256113\F,0,-2.309661,-4.281008,0.694594\F,0,-2.016293,-3.86318,-1.5318
 53\N,0,-0.062497,-4.384982,-0.196753\C,0,0.175909,-5.714201,-0.306409\
 C,0,-0.908814,-6.730695,-0.429414\C,0,1.564113,-5.930826,-0.28247\C,0,
 2.206025,-4.699104,-0.160737\C,0,3.69299,-4.521148,-0.099038\C,0,1.166
 398,-3.715935,-0.107286\C,0,3.123608,-1.388223,1.351964\C,0,4.355539,-
 0.749001,1.425115\C,0,8.404086,2.953137,-0.544755\C,0,9.606763,3.60781
 2,-0.290471\H,0,12.693306,2.151128,1.531302\H,0,13.806389,3.634844,1.1
 48024\H,0,11.634355,0.879067,-0.009941\H,0,9.492136,-0.262651,-0.45887
 4\H,0,6.340863,1.513875,-1.399327\H,0,7.188257,-0.015798,-1.520177\H,0
 ,4.887483,-0.239047,-1.904201\H,0,2.712482,-1.375629,-2.026885\H,0,1.4
 42364,1.006355,-0.512409\H,0,0.250464,1.915879,0.430188\H,0,1.415969,0
 .857572,1.239811\H,0,-2.103053,0.958151,0.399536\H,0,-3.856809,-2.6329
 49,0.221249\H,0,-4.307277,0.40824,0.100565\H,0,-10.515808,3.41391,0.16
 4161\H,0,-9.47693,5.66206,-0.106867\H,0,-5.568373,3.829367,-0.217706\H
 ,0,-10.243287,0.90081,0.384121\H,0,-8.836305,-1.658341,1.631546\H,0,-9
 .892664,-1.521637,0.228761\H,0,-8.324615,-3.494749,0.050075\H,0,-8.039
 845,-2.332902,-1.246177\H,0,-6.392792,-2.70912,1.30729\H,0,-5.876779,-
 2.981126,-0.345817\H,0,-0.47784,-7.722403,-0.578665\H,0,-1.534642,-6.7
 50476,0.468636\H,0,-1.566839,-6.501947,-1.274231\H,0,2.043619,-6.89846
 4,-0.34848\H,0,4.181394,-5.496999,-0.16403\H,0,4.067702,-3.900184,-0.9
 18687\H,0,4.012685,-4.044265,0.832793\H,0,2.624132,-1.711743,2.25955\H
 ,0,4.822685,-0.571685,2.387517\H,0,7.503494,3.537976,-0.707082\H,0,9.6
 61398,4.688929,-0.257897\\Version=ES64L-G16RevA.03\State=1-A\HF=-2441.
 2380215\RMSD=6.639e-09\Dipole=-2.326543,-3.5983003,0.443234\Quadrupole
 =54.8235779,-52.6617327,-2.1618452,-36.53191,-1.9881435,6.6522947\PG=C
 01 [X(C42H35B1F2N4O5)]\\@


 A MAN IS NEVER SO BRILLIANT AS WHEN HE TAKES THE WORDS RIGHT OUT
 OF YOUR MOUTH. -- ARNOT SHEPPARD, JR.
 Job cpu time:       0 days 21 hours 27 minutes 55.8 seconds.
 Elapsed time:       0 days  0 hours 20 minutes 30.9 seconds.
 File lengths (MBytes):  RWF=   3099 Int=      0 D2E=      0 Chk=    272 Scr=      1
 Normal termination of Gaussian 16 at Sat Oct 25 12:46:32 2025.
