 Entering Gaussian System, Link 0=g16
 Input=BONO_CN_reduced_sp.gjf
 Output=BONO_CN_reduced_sp.log
 Initial command:
 /public/software/gauss/g16/l1.exe "/public/home/baiding/1024_sp/tmp_BONO_CN_reduced_sp_1526250/Gau-2959021.inp" -scrdir="/public/home/baiding/1024_sp/tmp_BONO_CN_reduced_sp_1526250/"
 Entering Link 1 = /public/software/gauss/g16/l1.exe PID=   2959022.
  
 Copyright (c) 1988,1990,1992,1993,1995,1998,2003,2009,2016,
            Gaussian, Inc.  All Rights Reserved.
  
 This is part of the Gaussian(R) 16 program.  It is based on
 the Gaussian(R) 09 system (copyright 2009, Gaussian, Inc.),
 the Gaussian(R) 03 system (copyright 2003, Gaussian, Inc.),
 the Gaussian(R) 98 system (copyright 1998, Gaussian, Inc.),
 the Gaussian(R) 94 system (copyright 1995, Gaussian, Inc.),
 the Gaussian 92(TM) system (copyright 1992, Gaussian, Inc.),
 the Gaussian 90(TM) system (copyright 1990, Gaussian, Inc.),
 the Gaussian 88(TM) system (copyright 1988, Gaussian, Inc.),
 the Gaussian 86(TM) system (copyright 1986, Carnegie Mellon
 University), and the Gaussian 82(TM) system (copyright 1983,
 Carnegie Mellon University). Gaussian is a federally registered
 trademark of Gaussian, Inc.
  
 This software contains proprietary and confidential information,
 including trade secrets, belonging to Gaussian, Inc.
  
 This software is provided under written license and may be
 used, copied, transmitted, or stored only in accord with that
 written license.
  
 The following legend is applicable only to US Government
 contracts under FAR:
  
                    RESTRICTED RIGHTS LEGEND
  
 Use, reproduction and disclosure by the US Government is
 subject to restrictions as set forth in subparagraphs (a)
 and (c) of the Commercial Computer Software - Restricted
 Rights clause in FAR 52.227-19.
  
 Gaussian, Inc.
 340 Quinnipiac St., Bldg. 40, Wallingford CT 06492
  
  
 ---------------------------------------------------------------
 Warning -- This program may not be used in any manner that
 competes with the business of Gaussian, Inc. or will provide
 assistance to any competitor of Gaussian, Inc.  The licensee
 of this program is prohibited from giving any competitor of
 Gaussian, Inc. access to this program.  By using this program,
 the user acknowledges that Gaussian, Inc. is engaged in the
 business of creating and licensing software in the field of
 computational chemistry and represents and warrants to the
 licensee that it is not a competitor of Gaussian, Inc. and that
 it will not use this program in any manner prohibited above.
 ---------------------------------------------------------------
  

 Cite this work as:
 Gaussian 16, Revision A.03,
 M. J. Frisch, G. W. Trucks, H. B. Schlegel, G. E. Scuseria, 
 M. A. Robb, J. R. Cheeseman, G. Scalmani, V. Barone, 
 G. A. Petersson, H. Nakatsuji, X. Li, M. Caricato, A. V. Marenich, 
 J. Bloino, B. G. Janesko, R. Gomperts, B. Mennucci, H. P. Hratchian, 
 J. V. Ortiz, A. F. Izmaylov, J. L. Sonnenberg, D. Williams-Young, 
 F. Ding, F. Lipparini, F. Egidi, J. Goings, B. Peng, A. Petrone, 
 T. Henderson, D. Ranasinghe, V. G. Zakrzewski, J. Gao, N. Rega, 
 G. Zheng, W. Liang, M. Hada, M. Ehara, K. Toyota, R. Fukuda, 
 J. Hasegawa, M. Ishida, T. Nakajima, Y. Honda, O. Kitao, H. Nakai, 
 T. Vreven, K. Throssell, J. A. Montgomery, Jr., J. E. Peralta, 
 F. Ogliaro, M. J. Bearpark, J. J. Heyd, E. N. Brothers, K. N. Kudin, 
 V. N. Staroverov, T. A. Keith, R. Kobayashi, J. Normand, 
 K. Raghavachari, A. P. Rendell, J. C. Burant, S. S. Iyengar, 
 J. Tomasi, M. Cossi, J. M. Millam, M. Klene, C. Adamo, R. Cammi, 
 J. W. Ochterski, R. L. Martin, K. Morokuma, O. Farkas, 
 J. B. Foresman, and D. J. Fox, Gaussian, Inc., Wallingford CT, 2016.
 
 ******************************************
 Gaussian 16:  ES64L-G16RevA.03 25-Dec-2016
                25-Oct-2025 
 ******************************************
 %nprocshared=64
 Will use up to   64 processors via shared memory.
 %mem=230GB
 %chk=BONO_CN_reduced_sp.chk
 ----------------------------------------------
 #p M062X/DEF2TZVPP scrf=(solvent=water) em=GD3
 ----------------------------------------------
 1/38=1,172=1/1;
 2/12=2,17=6,18=5,40=1/2;
 3/5=44,7=202,11=2,25=1,30=1,70=2201,72=1,74=-55,124=31/1,2,3;
 4//1;
 5/5=2,38=5,53=1/2;
 6/7=2,8=2,9=2,10=2,28=1/1;
 99/5=1,9=1/99;
 Leave Link    1 at Sat Oct 25 08:04:50 2025, MaxMem= 30870077440 cpu:              11.6 elap:               0.2
 (Enter /public/software/gauss/g16/l101.exe)
 --------------------------------------
 Energy calculation for BONO_CN_reduced
 --------------------------------------
 Symbolic Z-matrix:
 Charge = -1 Multiplicity = 2
 C                    -0.60196   1.14524  -0.35297 
 C                     0.42223   0.05702  -0.24117 
 C                     1.78741   0.26689  -0.25083 
 C                     2.44507  -0.98914  -0.13611 
 C                     3.85061  -1.27235  -0.12472 
 C                     4.81209  -0.30038  -0.092 
 C                     6.2264   -0.53288  -0.10924 
 C                     7.11056   0.52593  -0.10781 
 O                     6.5735    1.80042  -0.00558 
 C                     7.36589   2.91819   0.01791 
 C                     8.76847   2.81379  -0.05854 
 C                     9.52829   3.99653  -0.02367 
 C                     8.91509   5.23613   0.08336 
 C                     7.51055   5.30874   0.15591 
 C                     6.87275   6.58276   0.26524 
 N                     6.35622   7.62502   0.35384 
 C                     6.72484   4.14452   0.12253 
 C                     9.33797   1.49608  -0.17859 
 C                     8.54587   0.39107  -0.21506 
 C                     9.09595  -1.00085  -0.39942 
 C                     8.2307   -2.03564   0.32334 
 C                     6.77587  -1.94738  -0.14782 
 N                     1.49357  -1.96426  -0.05434 
 C                     0.23055  -1.36603  -0.11543 
 C                    -0.93333  -2.14537  -0.06964 
 C                    -2.27276  -1.48832  -0.15615 
 C                    -2.95673  -1.12025   1.00973 
 C                    -4.21065  -0.51742   0.93226 
 C                    -4.80681  -0.27282  -0.31496 
 C                    -6.15411   0.36386  -0.45387 
 O                    -6.63164   0.56436  -1.56925 
 C                    -6.91253   0.74322   0.81493 
 C                    -8.24999   1.39594   0.5767 
 C                    -8.41862   2.78191   0.72916 
 C                    -9.64647   3.39667   0.51539 
 C                    -10.7631   2.6213    0.13211 
 N                    -12.00489   3.22206  -0.07819 
 O                    -13.02767   2.49365  -0.42977 
 O                    -12.14213   4.50849   0.08774 
 C                    -10.60779   1.22535  -0.02932 
 C                    -9.37036   0.63712   0.19179 
 C                    -4.11585  -0.64254  -1.48064 
 C                    -2.86424  -1.24273  -1.40459 
 C                    -0.86132  -3.54779   0.04813 
 C                    -1.87171  -4.56059   0.06951 
 C                    -3.3621   -4.42648  -0.02108 
 C                    -1.19599  -5.77543   0.18996 
 C                     0.18368  -5.51897   0.24366 
 C                     1.29617  -6.50389   0.37773 
 N                     0.38463  -4.18142   0.15308 
 B                     1.74999  -3.46391   0.24186 
 F                     2.30212  -3.62052   1.5246 
 F                     2.64132  -4.00287  -0.70168 
 H                    -0.10105   2.1156   -0.40029 
 H                    -1.21817   1.03744  -1.25073 
 H                    -1.28372   1.15499   0.50272 
 H                     2.27904   1.22464  -0.35078 
 H                     4.13407  -2.31704  -0.16088 
 H                     4.49292   0.7369   -0.06234 
 H                     10.60964   3.92605  -0.08323 
 H                     9.50436   6.14538   0.11062 
 H                     5.6437    4.19288   0.17832 
 H                     10.4169   1.39973  -0.25408 
 H                     9.10755  -1.23121  -1.47425 
 H                     10.13455  -1.03108  -0.05726 
 H                     8.62026  -3.04234   0.14444 
 H                     8.27675  -1.85687   1.40441 
 H                     6.69184  -2.34564  -1.16909 
 H                     6.15174  -2.59123   0.48033 
 H                    -2.50585  -1.30679   1.97908 
 H                    -4.71681  -0.24372   1.85084 
 H                    -7.02475  -0.17533   1.40647 
 H                    -6.26414   1.39917   1.40771 
 H                    -7.56857   3.39117   1.027 
 H                    -9.76334   4.46526   0.64305 
 H                    -11.46447   0.63045  -0.31939 
 H                    -9.26826  -0.43851   0.06934 
 H                    -4.57349  -0.45485  -2.44568 
 H                    -2.34067  -1.52523  -2.31238 
 H                    -3.77425  -3.83881   0.80522 
 H                    -3.67676  -3.93606  -0.94754 
 H                    -3.8212   -5.41821   0.0088 
 H                    -1.64845  -6.75725   0.23517 
 H                     1.93098  -6.26431   1.23722 
 H                     0.89255  -7.50956   0.50944 
 H                     1.93945  -6.4966   -0.50814 
 
 ITRead=  0  0  0  0  0  0  0  0  0  0  0  0  0  0  0  0  0  0  0  0
 ITRead=  0  0  0  0  0  0  0  0  0  0  0  0  0  0  0  0  0  0  0  0
 ITRead=  0  0  0  0  0  0  0  0  0  0  0  0  0  0  0  0  0  0  0  0
 ITRead=  0  0  0  0  0  0  0  0  0  0  0  0  0  0  0  0  0  0  0  0
 ITRead=  0  0  0  0  0  0
 MicOpt= -1 -1 -1 -1 -1 -1 -1 -1 -1 -1 -1 -1 -1 -1 -1 -1 -1 -1 -1 -1
 MicOpt= -1 -1 -1 -1 -1 -1 -1 -1 -1 -1 -1 -1 -1 -1 -1 -1 -1 -1 -1 -1
 MicOpt= -1 -1 -1 -1 -1 -1 -1 -1 -1 -1 -1 -1 -1 -1 -1 -1 -1 -1 -1 -1
 MicOpt= -1 -1 -1 -1 -1 -1 -1 -1 -1 -1 -1 -1 -1 -1 -1 -1 -1 -1 -1 -1
 MicOpt= -1 -1 -1 -1 -1 -1
 NAtoms=     86 NQM=       86 NQMF=       0 NMMI=      0 NMMIF=      0
                NMic=       0 NMicF=      0.
                    Isotopes and Nuclear Properties:
 (Nuclear quadrupole moments (NQMom) in fm**2, nuclear magnetic moments (NMagM)
  in nuclear magnetons)

  Atom         1           2           3           4           5           6           7           8           9          10
 IAtWgt=          12          12          12          12          12          12          12          12          16          12
 AtmWgt=  12.0000000  12.0000000  12.0000000  12.0000000  12.0000000  12.0000000  12.0000000  12.0000000  15.9949146  12.0000000
 NucSpn=           0           0           0           0           0           0           0           0           0           0
 AtZEff=  -0.0000000  -0.0000000  -0.0000000  -0.0000000  -0.0000000  -0.0000000  -0.0000000  -0.0000000  -0.0000000  -0.0000000
 NQMom=    0.0000000   0.0000000   0.0000000   0.0000000   0.0000000   0.0000000   0.0000000   0.0000000   0.0000000   0.0000000
 NMagM=    0.0000000   0.0000000   0.0000000   0.0000000   0.0000000   0.0000000   0.0000000   0.0000000   0.0000000   0.0000000
 AtZNuc=   6.0000000   6.0000000   6.0000000   6.0000000   6.0000000   6.0000000   6.0000000   6.0000000   8.0000000   6.0000000

  Atom        11          12          13          14          15          16          17          18          19          20
 IAtWgt=          12          12          12          12          12          14          12          12          12          12
 AtmWgt=  12.0000000  12.0000000  12.0000000  12.0000000  12.0000000  14.0030740  12.0000000  12.0000000  12.0000000  12.0000000
 NucSpn=           0           0           0           0           0           2           0           0           0           0
 AtZEff=  -0.0000000  -0.0000000  -0.0000000  -0.0000000  -0.0000000  -0.0000000  -0.0000000  -0.0000000  -0.0000000  -0.0000000
 NQMom=    0.0000000   0.0000000   0.0000000   0.0000000   0.0000000   2.0440000   0.0000000   0.0000000   0.0000000   0.0000000
 NMagM=    0.0000000   0.0000000   0.0000000   0.0000000   0.0000000   0.4037610   0.0000000   0.0000000   0.0000000   0.0000000
 AtZNuc=   6.0000000   6.0000000   6.0000000   6.0000000   6.0000000   7.0000000   6.0000000   6.0000000   6.0000000   6.0000000

  Atom        21          22          23          24          25          26          27          28          29          30
 IAtWgt=          12          12          14          12          12          12          12          12          12          12
 AtmWgt=  12.0000000  12.0000000  14.0030740  12.0000000  12.0000000  12.0000000  12.0000000  12.0000000  12.0000000  12.0000000
 NucSpn=           0           0           2           0           0           0           0           0           0           0
 AtZEff=  -0.0000000  -0.0000000  -0.0000000  -0.0000000  -0.0000000  -0.0000000  -0.0000000  -0.0000000  -0.0000000  -0.0000000
 NQMom=    0.0000000   0.0000000   2.0440000   0.0000000   0.0000000   0.0000000   0.0000000   0.0000000   0.0000000   0.0000000
 NMagM=    0.0000000   0.0000000   0.4037610   0.0000000   0.0000000   0.0000000   0.0000000   0.0000000   0.0000000   0.0000000
 AtZNuc=   6.0000000   6.0000000   7.0000000   6.0000000   6.0000000   6.0000000   6.0000000   6.0000000   6.0000000   6.0000000

  Atom        31          32          33          34          35          36          37          38          39          40
 IAtWgt=          16          12          12          12          12          12          14          16          16          12
 AtmWgt=  15.9949146  12.0000000  12.0000000  12.0000000  12.0000000  12.0000000  14.0030740  15.9949146  15.9949146  12.0000000
 NucSpn=           0           0           0           0           0           0           2           0           0           0
 AtZEff=  -0.0000000  -0.0000000  -0.0000000  -0.0000000  -0.0000000  -0.0000000  -0.0000000  -0.0000000  -0.0000000  -0.0000000
 NQMom=    0.0000000   0.0000000   0.0000000   0.0000000   0.0000000   0.0000000   2.0440000   0.0000000   0.0000000   0.0000000
 NMagM=    0.0000000   0.0000000   0.0000000   0.0000000   0.0000000   0.0000000   0.4037610   0.0000000   0.0000000   0.0000000
 AtZNuc=   8.0000000   6.0000000   6.0000000   6.0000000   6.0000000   6.0000000   7.0000000   8.0000000   8.0000000   6.0000000

  Atom        41          42          43          44          45          46          47          48          49          50
 IAtWgt=          12          12          12          12          12          12          12          12          12          14
 AtmWgt=  12.0000000  12.0000000  12.0000000  12.0000000  12.0000000  12.0000000  12.0000000  12.0000000  12.0000000  14.0030740
 NucSpn=           0           0           0           0           0           0           0           0           0           2
 AtZEff=  -0.0000000  -0.0000000  -0.0000000  -0.0000000  -0.0000000  -0.0000000  -0.0000000  -0.0000000  -0.0000000  -0.0000000
 NQMom=    0.0000000   0.0000000   0.0000000   0.0000000   0.0000000   0.0000000   0.0000000   0.0000000   0.0000000   2.0440000
 NMagM=    0.0000000   0.0000000   0.0000000   0.0000000   0.0000000   0.0000000   0.0000000   0.0000000   0.0000000   0.4037610
 AtZNuc=   6.0000000   6.0000000   6.0000000   6.0000000   6.0000000   6.0000000   6.0000000   6.0000000   6.0000000   7.0000000

  Atom        51          52          53          54          55          56          57          58          59          60
 IAtWgt=          11          19          19           1           1           1           1           1           1           1
 AtmWgt=  11.0093053  18.9984033  18.9984033   1.0078250   1.0078250   1.0078250   1.0078250   1.0078250   1.0078250   1.0078250
 NucSpn=           3           1           1           1           1           1           1           1           1           1
 AtZEff=  -0.0000000  -0.0000000  -0.0000000  -0.0000000  -0.0000000  -0.0000000  -0.0000000  -0.0000000  -0.0000000  -0.0000000
 NQMom=    4.0590000   0.0000000   0.0000000   0.0000000   0.0000000   0.0000000   0.0000000   0.0000000   0.0000000   0.0000000
 NMagM=    2.6886370   2.6288670   2.6288670   2.7928460   2.7928460   2.7928460   2.7928460   2.7928460   2.7928460   2.7928460
 AtZNuc=   5.0000000   9.0000000   9.0000000   1.0000000   1.0000000   1.0000000   1.0000000   1.0000000   1.0000000   1.0000000

  Atom        61          62          63          64          65          66          67          68          69          70
 IAtWgt=           1           1           1           1           1           1           1           1           1           1
 AtmWgt=   1.0078250   1.0078250   1.0078250   1.0078250   1.0078250   1.0078250   1.0078250   1.0078250   1.0078250   1.0078250
 NucSpn=           1           1           1           1           1           1           1           1           1           1
 AtZEff=  -0.0000000  -0.0000000  -0.0000000  -0.0000000  -0.0000000  -0.0000000  -0.0000000  -0.0000000  -0.0000000  -0.0000000
 NQMom=    0.0000000   0.0000000   0.0000000   0.0000000   0.0000000   0.0000000   0.0000000   0.0000000   0.0000000   0.0000000
 NMagM=    2.7928460   2.7928460   2.7928460   2.7928460   2.7928460   2.7928460   2.7928460   2.7928460   2.7928460   2.7928460
 AtZNuc=   1.0000000   1.0000000   1.0000000   1.0000000   1.0000000   1.0000000   1.0000000   1.0000000   1.0000000   1.0000000

  Atom        71          72          73          74          75          76          77          78          79          80
 IAtWgt=           1           1           1           1           1           1           1           1           1           1
 AtmWgt=   1.0078250   1.0078250   1.0078250   1.0078250   1.0078250   1.0078250   1.0078250   1.0078250   1.0078250   1.0078250
 NucSpn=           1           1           1           1           1           1           1           1           1           1
 AtZEff=  -0.0000000  -0.0000000  -0.0000000  -0.0000000  -0.0000000  -0.0000000  -0.0000000  -0.0000000  -0.0000000  -0.0000000
 NQMom=    0.0000000   0.0000000   0.0000000   0.0000000   0.0000000   0.0000000   0.0000000   0.0000000   0.0000000   0.0000000
 NMagM=    2.7928460   2.7928460   2.7928460   2.7928460   2.7928460   2.7928460   2.7928460   2.7928460   2.7928460   2.7928460
 AtZNuc=   1.0000000   1.0000000   1.0000000   1.0000000   1.0000000   1.0000000   1.0000000   1.0000000   1.0000000   1.0000000

  Atom        81          82          83          84          85          86
 IAtWgt=           1           1           1           1           1           1
 AtmWgt=   1.0078250   1.0078250   1.0078250   1.0078250   1.0078250   1.0078250
 NucSpn=           1           1           1           1           1           1
 AtZEff=  -0.0000000  -0.0000000  -0.0000000  -0.0000000  -0.0000000  -0.0000000
 NQMom=    0.0000000   0.0000000   0.0000000   0.0000000   0.0000000   0.0000000
 NMagM=    2.7928460   2.7928460   2.7928460   2.7928460   2.7928460   2.7928460
 AtZNuc=   1.0000000   1.0000000   1.0000000   1.0000000   1.0000000   1.0000000
 Leave Link  101 at Sat Oct 25 08:04:50 2025, MaxMem= 30870077440 cpu:               4.2 elap:               0.1
 (Enter /public/software/gauss/g16/l202.exe)
 Stoichiometry    C42H33BF2N4O4(1-,2)
 Framework group  C1[X(C42H33BF2N4O4)]
 Deg. of freedom   252
 Full point group                 C1      NOp   1
 Largest Abelian subgroup         C1      NOp   1
 Largest concise Abelian subgroup C1      NOp   1
                         Standard orientation:                         
 ---------------------------------------------------------------------
 Center     Atomic      Atomic             Coordinates (Angstroms)
 Number     Number       Type             X           Y           Z
 ---------------------------------------------------------------------
      1          6           0        0.601960    1.145237    0.352971
      2          6           0       -0.422228    0.057017    0.241173
      3          6           0       -1.787405    0.266886    0.250829
      4          6           0       -2.445072   -0.989142    0.136105
      5          6           0       -3.850605   -1.272351    0.124715
      6          6           0       -4.812088   -0.300375    0.091999
      7          6           0       -6.226404   -0.532882    0.109239
      8          6           0       -7.110557    0.525933    0.107811
      9          8           0       -6.573504    1.800417    0.005575
     10          6           0       -7.365890    2.918190   -0.017912
     11          6           0       -8.768472    2.813789    0.058537
     12          6           0       -9.528289    3.996529    0.023674
     13          6           0       -8.915092    5.236132   -0.083355
     14          6           0       -7.510548    5.308743   -0.155912
     15          6           0       -6.872749    6.582759   -0.265240
     16          7           0       -6.356220    7.625016   -0.353835
     17          6           0       -6.724840    4.144517   -0.122531
     18          6           0       -9.337970    1.496084    0.178592
     19          6           0       -8.545869    0.391066    0.215061
     20          6           0       -9.095947   -1.000852    0.399419
     21          6           0       -8.230696   -2.035639   -0.323340
     22          6           0       -6.775866   -1.947384    0.147816
     23          7           0       -1.493570   -1.964255    0.054344
     24          6           0       -0.230550   -1.366033    0.115425
     25          6           0        0.933331   -2.145371    0.069638
     26          6           0        2.272755   -1.488324    0.156150
     27          6           0        2.956729   -1.120250   -1.009734
     28          6           0        4.210649   -0.517418   -0.932256
     29          6           0        4.806811   -0.272820    0.314962
     30          6           0        6.154106    0.363857    0.453869
     31          8           0        6.631637    0.564358    1.569254
     32          6           0        6.912530    0.743218   -0.814934
     33          6           0        8.249986    1.395937   -0.576702
     34          6           0        8.418621    2.781908   -0.729162
     35          6           0        9.646466    3.396670   -0.515394
     36          6           0       10.763099    2.621298   -0.132110
     37          7           0       12.004892    3.222061    0.078192
     38          8           0       13.027671    2.493651    0.429768
     39          8           0       12.142135    4.508492   -0.087736
     40          6           0       10.607793    1.225353    0.029319
     41          6           0        9.370359    0.637117   -0.191787
     42          6           0        4.115848   -0.642541    1.480644
     43          6           0        2.864237   -1.242727    1.404588
     44          6           0        0.861323   -3.547785   -0.048132
     45          6           0        1.871709   -4.560587   -0.069507
     46          6           0        3.362100   -4.426476    0.021082
     47          6           0        1.195990   -5.775431   -0.189964
     48          6           0       -0.183678   -5.518974   -0.243661
     49          6           0       -1.296166   -6.503894   -0.377730
     50          7           0       -0.384631   -4.181424   -0.153079
     51          5           0       -1.749994   -3.463911   -0.241857
     52          9           0       -2.302122   -3.620524   -1.524603
     53          9           0       -2.641322   -4.002867    0.701676
     54          1           0        0.101051    2.115605    0.400291
     55          1           0        1.218173    1.037436    1.250728
     56          1           0        1.283718    1.154991   -0.502716
     57          1           0       -2.279041    1.224640    0.350784
     58          1           0       -4.134072   -2.317044    0.160875
     59          1           0       -4.492917    0.736898    0.062335
     60          1           0      -10.609636    3.926051    0.083233
     61          1           0       -9.504364    6.145381   -0.110616
     62          1           0       -5.643703    4.192879   -0.178321
     63          1           0      -10.416900    1.399730    0.254078
     64          1           0       -9.107545   -1.231210    1.474249
     65          1           0      -10.134550   -1.031081    0.057260
     66          1           0       -8.620264   -3.042342   -0.144435
     67          1           0       -8.276747   -1.856869   -1.404411
     68          1           0       -6.691844   -2.345638    1.169089
     69          1           0       -6.151740   -2.591228   -0.480327
     70          1           0        2.505853   -1.306790   -1.979083
     71          1           0        4.716807   -0.243716   -1.850842
     72          1           0        7.024748   -0.175330   -1.406468
     73          1           0        6.264136    1.399174   -1.407708
     74          1           0        7.568566    3.391166   -1.027002
     75          1           0        9.763343    4.465257   -0.643050
     76          1           0       11.464473    0.630453    0.319394
     77          1           0        9.268260   -0.438507   -0.069342
     78          1           0        4.573494   -0.454850    2.445683
     79          1           0        2.340672   -1.525231    2.312376
     80          1           0        3.774245   -3.838812   -0.805222
     81          1           0        3.676758   -3.936062    0.947536
     82          1           0        3.821196   -5.418205   -0.008804
     83          1           0        1.648446   -6.757254   -0.235173
     84          1           0       -1.930984   -6.264312   -1.237221
     85          1           0       -0.892548   -7.509555   -0.509441
     86          1           0       -1.939452   -6.496597    0.508138
 ---------------------------------------------------------------------
 Rotational constants (GHZ):           0.0676675           0.0162490           0.0132723
 Leave Link  202 at Sat Oct 25 08:04:50 2025, MaxMem= 30870077440 cpu:               0.2 elap:               0.0
 (Enter /public/software/gauss/g16/l301.exe)
 Standard basis: def2TZVPP (5D, 7F)
 Ernie: Thresh=  0.10000D-02 Tol=  0.10000D-05 Strict=F.
 There are  2403 symmetry adapted cartesian basis functions of A   symmetry.
 There are  2105 symmetry adapted basis functions of A   symmetry.
  2105 basis functions,  3264 primitive gaussians,  2403 cartesian basis functions
   185 alpha electrons      184 beta electrons
       nuclear repulsion energy      6031.4496428378 Hartrees.
 IExCor= 4336 DFT=T Ex+Corr=M062X ExCW=0 ScaHFX=  0.540000
 ScaDFX=  1.000000  1.000000  1.000000  1.000000 ScalE2=  1.000000  1.000000
 IRadAn=      5 IRanWt=     -1 IRanGd=            0 ICorTp=0 IEmpDi=131
 NAtoms=   86 NActive=   86 NUniq=   86 SFac= 1.00D+00 NAtFMM=   60 NAOKFM=T Big=T
 Integral buffers will be    131072 words long.
 Raffenetti 2 integral format.
 Two-electron integral symmetry is turned on.
 R6Disp:  Grimme-D3 Dispersion energy=       -0.0069975293 Hartrees.
 Nuclear repulsion after empirical dispersion term =     6031.4426453084 Hartrees.
 ------------------------------------------------------------------------------
 Polarizable Continuum Model (PCM)
 =================================
 Model                : PCM.
 Atomic radii         : UFF (Universal Force Field).
 Polarization charges : Total charges.
 Charge compensation  : None.
 Solution method      : On-the-fly selection.
 Cavity type          : Scaled VdW (van der Waals Surface) (Alpha=1.100).
 Cavity algorithm     : GePol (No added spheres)
                        Default sphere list used, NSphG=   86.
                        Lebedev-Laikov grids with approx.  5.0 points / Ang**2.
                        Smoothing algorithm: York/Karplus (Gamma=1.0000).
                        Polarization charges: spherical gaussians, with
                                              point-specific exponents (IZeta= 3).
                        Self-potential: point-specific (ISelfS= 7).
                        Self-field    : sphere-specific E.n sum rule (ISelfD= 2).
 Solvent              : Water, Eps=  78.355300 Eps(inf)=   1.777849
 ------------------------------------------------------------------------------
 GePol: Number of generator spheres                  =      86
 GePol: Total number of spheres                      =      86
 GePol: Number of exposed spheres                    =      86 (100.00%)
 GePol: Number of points                             =    6296
 GePol: Average weight of points                     =       0.13
 GePol: Minimum weight of points                     =   0.16D-11
 GePol: Maximum weight of points                     =    0.20577
 GePol: Number of points with low weight             =     421
 GePol: Fraction of low-weight points (<1% of avg)   =       6.69%
 GePol: Cavity surface area                          =    796.168 Ang**2
 GePol: Cavity volume                                =    921.475 Ang**3
 Leave Link  301 at Sat Oct 25 08:04:51 2025, MaxMem= 30870077440 cpu:               3.9 elap:               0.1
 (Enter /public/software/gauss/g16/l302.exe)
 NPDir=0 NMtPBC=     1 NCelOv=     1 NCel=       1 NClECP=     1 NCelD=      1
         NCelK=      1 NCelE2=     1 NClLst=     1 CellRange=     0.0.
 One-electron integrals computed using PRISM.
 One-electron integral symmetry used in STVInt
   1 Symmetry operations used in ECPInt.
 ECPInt:  NShTT=  305371 NPrTT=  878415 LenC2=  165397 LenP2D=  317696.
 LDataN:  DoStor=T MaxTD1= 6 Len=  172
 NBasis=  2105 RedAO= T EigKep=  3.50D-06  NBF=  2105
 NBsUse=  2105 1.00D-06 EigRej= -1.00D+00 NBFU=  2105
 Precomputing XC quadrature grid using
 IXCGrd= 4 IRadAn=           5 IRanWt=          -1 IRanGd=           0 AccXCQ= 0.00D+00.
 Generated NRdTot=       0 NPtTot=           0 NUsed=           0 NTot=          32
 NSgBfM=  2062  2032  2038  2038  2062 MxSgAt=    86 MxSgA2=    86.
 Leave Link  302 at Sat Oct 25 08:05:03 2025, MaxMem= 30870077440 cpu:             805.8 elap:              12.6
 (Enter /public/software/gauss/g16/l303.exe)
 DipDrv:  MaxL=1.
 Leave Link  303 at Sat Oct 25 08:05:04 2025, MaxMem= 30870077440 cpu:              33.9 elap:               0.6
 (Enter /public/software/gauss/g16/l401.exe)
 ExpMin= 6.06D-02 ExpMax= 3.55D+04 ExpMxC= 1.21D+03 IAcc=3 IRadAn=         5 AccDes= 0.00D+00
 Harris functional with IExCor= 1009 and IRadAn=       5 diagonalized for initial guess.
 HarFok:  IExCor= 1009 AccDes= 0.00D+00 IRadAn=         5 IDoV= 1 UseB2=F ITyADJ=14
 ICtDFT=  3500011 ScaDFX=  1.000000  1.000000  1.000000  1.000000
 FoFCou: FMM=F IPFlag=           0 FMFlag=      100000 FMFlg1=        2001
         NFxFlg=           0 DoJE=T BraDBF=F KetDBF=T FulRan=T
         wScrn=  0.000000 ICntrl=       500 IOpCl=  0 I1Cent=   200000004 NGrid=           0
         NMat0=    1 NMatS0=      1 NMatT0=    0 NMatD0=    1 NMtDS0=    0 NMtDT0=    0
 Petite list used in FoFCou.
 Harris En= -2363.88305046497    
 JPrj=0 DoOrth=F DoCkMO=F.
 Initial guess <Sx>= 0.0000 <Sy>= 0.0000 <Sz>= 0.5000 <S**2>= 0.7500 S= 0.5000
 Leave Link  401 at Sat Oct 25 08:05:17 2025, MaxMem= 30870077440 cpu:             833.3 elap:              13.1
 (Enter /public/software/gauss/g16/l502.exe)
 Integral symmetry usage will be decided dynamically.
 UHF open shell SCF:
 Using DIIS extrapolation, IDIIS=  1040.
 NGot= 30870077440 LenX= 30858354688 LenY= 30852577876
 Requested convergence on RMS density matrix=1.00D-08 within 128 cycles.
 Requested convergence on MAX density matrix=1.00D-06.
 Requested convergence on             energy=1.00D-06.
 No special actions if energy rises.
 Fock matrices will be formed incrementally for  20 cycles.

 Cycle   1  Pass 1  IDiag  1:
 FoFJK:  IHMeth= 1 ICntrl=       0 DoSepK=F KAlg= 0 I1Cent=           0 FoldK=F
 IRaf= 500000000 NMat=       1 IRICut=       1 DoRegI=T DoRafI=F ISym2E= 0 IDoP0=0 IntGTp=1.
 FoFCou: FMM=T IPFlag=           0 FMFlag=      100000 FMFlg1=        2001
         NFxFlg=           0 DoJE=F BraDBF=F KetDBF=F FulRan=T
         wScrn=  0.000000 ICntrl=         0 IOpCl=  1 I1Cent=           0 NGrid=           0
         NMat0=    1 NMatS0=      1 NMatT0=    0 NMatD0=    1 NMtDS0=    0 NMtDT0=    0
 Symmetry not used in FoFCou.
 FMM levels:  10  Number of levels for PrismC:   9
 Inv3:  Mode=1 IEnd=   118918848.
 Iteration    1 A*A^-1 deviation from unit magnitude is 1.63D-14 for    872.
 Iteration    1 A*A^-1 deviation from orthogonality  is 6.61D-15 for   5679    647.
 Iteration    1 A^-1*A deviation from unit magnitude is 1.61D-14 for    872.
 Iteration    1 A^-1*A deviation from orthogonality  is 7.44D-15 for   5912   1272.
 E= -2363.67550114325    
 DIIS: error= 2.66D-02 at cycle   1 NSaved=   1.
 NSaved= 1 IEnMin= 1 EnMin= -2363.67550114325     IErMin= 1 ErrMin= 2.66D-02
 ErrMax= 2.66D-02  0.00D+00 EMaxC= 1.00D-01 BMatC= 6.71D+00 BMatP= 6.71D+00
 IDIUse=3 WtCom= 7.34D-01 WtEn= 2.66D-01
 Coeff-Com:  0.100D+01
 Coeff-En:   0.100D+01
 Coeff:      0.100D+01
 Gap=     0.085 Goal=   None    Shift=    0.000
 Gap=     0.135 Goal=   None    Shift=    0.000
 GapD=    0.085 DampG=0.500 DampE=0.500 DampFc=0.2500 IDamp=-1.
 Damping current iteration by 2.50D-01
 RMSDP=1.48D-03 MaxDP=2.60D-01              OVMax= 9.55D-01

 Cycle   2  Pass 1  IDiag  1:
 RMSU=  3.67D-04    CP:  9.89D-01
 E= -2364.09829879933     Delta-E=       -0.422797656074 Rises=F Damp=T
 DIIS: error= 1.12D-02 at cycle   2 NSaved=   2.
 NSaved= 2 IEnMin= 2 EnMin= -2364.09829879933     IErMin= 2 ErrMin= 1.12D-02
 ErrMax= 1.12D-02  0.00D+00 EMaxC= 1.00D-01 BMatC= 2.32D+00 BMatP= 6.71D+00
 IDIUse=3 WtCom= 8.88D-01 WtEn= 1.12D-01
 Coeff-Com: -0.100D+01 0.200D+01
 Coeff-En:   0.000D+00 0.100D+01
 Coeff:     -0.892D+00 0.189D+01
 Gap=    -0.131 Goal=   None    Shift=    0.000
 Gap=    -0.183 Goal=   None    Shift=    0.000
 RMSDP=9.03D-04 MaxDP=1.18D-01 DE=-4.23D-01 OVMax= 9.93D-01

 Cycle   3  Pass 1  IDiag  1:
 RMSU=  7.80D-04    CP:  9.70D-01  2.23D+00
 E= -2364.74566873211     Delta-E=       -0.647369932778 Rises=F Damp=F
 DIIS: error= 2.39D-02 at cycle   3 NSaved=   3.
 NSaved= 3 IEnMin= 3 EnMin= -2364.74566873211     IErMin= 2 ErrMin= 1.12D-02
 ErrMax= 2.39D-02  0.00D+00 EMaxC= 1.00D-01 BMatC= 9.75D-01 BMatP= 2.32D+00
 IDIUse=3 WtCom= 7.61D-01 WtEn= 2.39D-01
 Coeff-Com: -0.655D+00 0.115D+01 0.503D+00
 Coeff-En:   0.000D+00 0.000D+00 0.100D+01
 Coeff:     -0.498D+00 0.876D+00 0.622D+00
 Gap=     0.078 Goal=   None    Shift=    0.000
 Gap=     0.123 Goal=   None    Shift=    0.000
 RMSDP=5.81D-04 MaxDP=1.63D-01 DE=-6.47D-01 OVMax= 9.82D-01

 Cycle   4  Pass 1  IDiag  1:
 RMSU=  4.65D-04    CP:  9.58D-01  2.35D+00  5.60D-01
 E= -2364.90945685961     Delta-E=       -0.163788127500 Rises=F Damp=F
 DIIS: error= 1.67D-02 at cycle   4 NSaved=   4.
 NSaved= 4 IEnMin= 4 EnMin= -2364.90945685961     IErMin= 2 ErrMin= 1.12D-02
 ErrMax= 1.67D-02  0.00D+00 EMaxC= 1.00D-01 BMatC= 3.82D-01 BMatP= 9.75D-01
 IDIUse=3 WtCom= 8.33D-01 WtEn= 1.67D-01
 Coeff-Com: -0.143D+00 0.251D+00 0.386D+00 0.506D+00
 Coeff-En:   0.000D+00 0.000D+00 0.275D+00 0.725D+00
 Coeff:     -0.119D+00 0.209D+00 0.368D+00 0.542D+00
 Gap=     0.014 Goal=   None    Shift=    0.000
 Gap=     0.178 Goal=   None    Shift=    0.000
 RMSDP=1.58D-04 MaxDP=3.08D-02 DE=-1.64D-01 OVMax= 9.96D-02

 Cycle   5  Pass 1  IDiag  1:
 RMSU=  1.30D-04    CP:  9.60D-01  2.35D+00  6.31D-01  8.50D-01
 E= -2364.99438567645     Delta-E=       -0.084928816845 Rises=F Damp=F
 DIIS: error= 3.66D-03 at cycle   5 NSaved=   5.
 NSaved= 5 IEnMin= 5 EnMin= -2364.99438567645     IErMin= 5 ErrMin= 3.66D-03
 ErrMax= 3.66D-03  0.00D+00 EMaxC= 1.00D-01 BMatC= 2.00D-02 BMatP= 3.82D-01
 IDIUse=3 WtCom= 9.63D-01 WtEn= 3.66D-02
 Coeff-Com: -0.198D-01 0.391D-01 0.169D+00 0.166D+00 0.646D+00
 Coeff-En:   0.000D+00 0.000D+00 0.000D+00 0.000D+00 0.100D+01
 Coeff:     -0.191D-01 0.377D-01 0.163D+00 0.160D+00 0.659D+00
 Gap=     0.056 Goal=   None    Shift=    0.000
 Gap=     0.136 Goal=   None    Shift=    0.000
 RMSDP=7.38D-05 MaxDP=1.41D-02 DE=-8.49D-02 OVMax= 2.82D-02

 Cycle   6  Pass 1  IDiag  1:
 RMSU=  6.14D-05    CP:  9.61D-01  2.33D+00  6.66D-01  8.06D-01  1.17D+00
 E= -2364.99879699684     Delta-E=       -0.004411320386 Rises=F Damp=F
 DIIS: error= 2.65D-03 at cycle   6 NSaved=   6.
 NSaved= 6 IEnMin= 6 EnMin= -2364.99879699684     IErMin= 6 ErrMin= 2.65D-03
 ErrMax= 2.65D-03  0.00D+00 EMaxC= 1.00D-01 BMatC= 8.54D-03 BMatP= 2.00D-02
 IDIUse=3 WtCom= 9.74D-01 WtEn= 2.65D-02
 Coeff-Com:  0.100D-01-0.125D-01 0.207D-01-0.880D-01 0.318D+00 0.751D+00
 Coeff-En:   0.000D+00 0.000D+00 0.000D+00 0.000D+00 0.000D+00 0.100D+01
 Coeff:      0.975D-02-0.122D-01 0.202D-01-0.856D-01 0.310D+00 0.758D+00
 Gap=     0.084 Goal=   None    Shift=    0.000
 Gap=     0.136 Goal=   None    Shift=    0.000
 RMSDP=4.82D-05 MaxDP=8.78D-03 DE=-4.41D-03 OVMax= 2.02D-02

 Cycle   7  Pass 1  IDiag  1:
 RMSU=  2.89D-05    CP:  9.61D-01  2.33D+00  6.87D-01  7.70D-01  1.39D+00
                    CP:  1.18D+00
 E= -2365.00140365583     Delta-E=       -0.002606658994 Rises=F Damp=F
 DIIS: error= 5.23D-04 at cycle   7 NSaved=   7.
 NSaved= 7 IEnMin= 7 EnMin= -2365.00140365583     IErMin= 7 ErrMin= 5.23D-04
 ErrMax= 5.23D-04  0.00D+00 EMaxC= 1.00D-01 BMatC= 6.15D-04 BMatP= 8.54D-03
 IDIUse=3 WtCom= 9.95D-01 WtEn= 5.23D-03
 Coeff-Com: -0.193D-02 0.386D-02 0.171D-02-0.306D-01-0.201D-01 0.201D+00
 Coeff-Com:  0.847D+00
 Coeff-En:   0.000D+00 0.000D+00 0.000D+00 0.000D+00 0.000D+00 0.000D+00
 Coeff-En:   0.100D+01
 Coeff:     -0.192D-02 0.384D-02 0.170D-02-0.304D-01-0.200D-01 0.199D+00
 Coeff:      0.847D+00
 Gap=     0.091 Goal=   None    Shift=    0.000
 Gap=     0.136 Goal=   None    Shift=    0.000
 RMSDP=1.77D-05 MaxDP=2.32D-03 DE=-2.61D-03 OVMax= 1.40D-02

 Cycle   8  Pass 1  IDiag  1:
 RMSU=  1.38D-05    CP:  9.61D-01  2.33D+00  6.93D-01  7.64D-01  1.40D+00
                    CP:  1.32D+00  1.12D+00
 E= -2365.00171613964     Delta-E=       -0.000312483806 Rises=F Damp=F
 DIIS: error= 1.90D-04 at cycle   8 NSaved=   8.
 NSaved= 8 IEnMin= 8 EnMin= -2365.00171613964     IErMin= 8 ErrMin= 1.90D-04
 ErrMax= 1.90D-04  0.00D+00 EMaxC= 1.00D-01 BMatC= 2.07D-04 BMatP= 6.15D-04
 IDIUse=3 WtCom= 9.98D-01 WtEn= 1.90D-03
 Coeff-Com: -0.464D-02 0.712D-02-0.983D-03 0.795D-02-0.764D-01-0.843D-01
 Coeff-Com:  0.397D+00 0.754D+00
 Coeff-En:   0.000D+00 0.000D+00 0.000D+00 0.000D+00 0.000D+00 0.000D+00
 Coeff-En:   0.000D+00 0.100D+01
 Coeff:     -0.463D-02 0.711D-02-0.982D-03 0.793D-02-0.763D-01-0.841D-01
 Coeff:      0.396D+00 0.755D+00
 Gap=     0.094 Goal=   None    Shift=    0.000
 Gap=     0.136 Goal=   None    Shift=    0.000
 RMSDP=1.02D-05 MaxDP=1.62D-03 DE=-3.12D-04 OVMax= 8.46D-03

 Cycle   9  Pass 1  IDiag  1:
 RMSU=  6.23D-06    CP:  9.61D-01  2.33D+00  6.96D-01  7.60D-01  1.42D+00
                    CP:  1.36D+00  1.33D+00  1.21D+00
 E= -2365.00184473426     Delta-E=       -0.000128594627 Rises=F Damp=F
 DIIS: error= 8.75D-05 at cycle   9 NSaved=   9.
 NSaved= 9 IEnMin= 9 EnMin= -2365.00184473426     IErMin= 9 ErrMin= 8.75D-05
 ErrMax= 8.75D-05  0.00D+00 EMaxC= 1.00D-01 BMatC= 3.85D-05 BMatP= 2.07D-04
 IDIUse=1 WtCom= 1.00D+00 WtEn= 0.00D+00
 Coeff-Com: -0.983D-03 0.147D-02 0.396D-04 0.776D-02-0.208D-01-0.595D-01
 Coeff-Com: -0.211D-01 0.234D+00 0.859D+00
 Coeff:     -0.983D-03 0.147D-02 0.396D-04 0.776D-02-0.208D-01-0.595D-01
 Coeff:     -0.211D-01 0.234D+00 0.859D+00
 Gap=     0.095 Goal=   None    Shift=    0.000
 Gap=     0.136 Goal=   None    Shift=    0.000
 RMSDP=5.56D-06 MaxDP=6.88D-04 DE=-1.29D-04 OVMax= 5.62D-03

 Cycle  10  Pass 1  IDiag  1:
 RMSU=  3.26D-06    CP:  9.61D-01  2.33D+00  6.96D-01  7.60D-01  1.42D+00
                    CP:  1.38D+00  1.39D+00  1.45D+00  1.35D+00
 E= -2365.00188422269     Delta-E=       -0.000039488423 Rises=F Damp=F
 DIIS: error= 5.17D-05 at cycle  10 NSaved=  10.
 NSaved=10 IEnMin=10 EnMin= -2365.00188422269     IErMin=10 ErrMin= 5.17D-05
 ErrMax= 5.17D-05  0.00D+00 EMaxC= 1.00D-01 BMatC= 1.97D-05 BMatP= 3.85D-05
 IDIUse=1 WtCom= 1.00D+00 WtEn= 0.00D+00
 Coeff-Com:  0.603D-03-0.873D-03 0.747D-03 0.101D-02 0.127D-01-0.419D-02
 Coeff-Com: -0.146D+00-0.137D+00 0.482D+00 0.791D+00
 Coeff:      0.603D-03-0.873D-03 0.747D-03 0.101D-02 0.127D-01-0.419D-02
 Coeff:     -0.146D+00-0.137D+00 0.482D+00 0.791D+00
 Gap=     0.095 Goal=   None    Shift=    0.000
 Gap=     0.136 Goal=   None    Shift=    0.000
 RMSDP=4.29D-06 MaxDP=4.99D-04 DE=-3.95D-05 OVMax= 4.18D-03

 Cycle  11  Pass 1  IDiag  1:
 RMSU=  2.03D-06    CP:  9.61D-01  2.33D+00  6.96D-01  7.60D-01  1.42D+00
                    CP:  1.39D+00  1.44D+00  1.61D+00  1.74D+00  1.39D+00
 E= -2365.00190473026     Delta-E=       -0.000020507572 Rises=F Damp=F
 DIIS: error= 2.99D-05 at cycle  11 NSaved=  11.
 NSaved=11 IEnMin=11 EnMin= -2365.00190473026     IErMin=11 ErrMin= 2.99D-05
 ErrMax= 2.99D-05  0.00D+00 EMaxC= 1.00D-01 BMatC= 3.93D-06 BMatP= 1.97D-05
 IDIUse=1 WtCom= 1.00D+00 WtEn= 0.00D+00
 Coeff-Com:  0.967D-04-0.816D-04 0.176D-03-0.214D-02 0.634D-02 0.110D-01
 Coeff-Com: -0.259D-01-0.859D-01-0.916D-01 0.199D+00 0.989D+00
 Coeff:      0.967D-04-0.816D-04 0.176D-03-0.214D-02 0.634D-02 0.110D-01
 Coeff:     -0.259D-01-0.859D-01-0.916D-01 0.199D+00 0.989D+00
 Gap=     0.095 Goal=   None    Shift=    0.000
 Gap=     0.136 Goal=   None    Shift=    0.000
 RMSDP=2.69D-06 MaxDP=3.43D-04 DE=-2.05D-05 OVMax= 2.66D-03

 Cycle  12  Pass 1  IDiag  1:
 RMSU=  1.10D-06    CP:  9.61D-01  2.33D+00  6.96D-01  7.59D-01  1.42D+00
                    CP:  1.39D+00  1.46D+00  1.68D+00  1.93D+00  1.81D+00
                    CP:  1.45D+00
 E= -2365.00191242367     Delta-E=       -0.000007693416 Rises=F Damp=F
 DIIS: error= 1.86D-05 at cycle  12 NSaved=  12.
 NSaved=12 IEnMin=12 EnMin= -2365.00191242367     IErMin=12 ErrMin= 1.86D-05
 ErrMax= 1.86D-05  0.00D+00 EMaxC= 1.00D-01 BMatC= 1.57D-06 BMatP= 3.93D-06
 IDIUse=1 WtCom= 1.00D+00 WtEn= 0.00D+00
 Coeff-Com: -0.818D-04 0.132D-03 0.602D-04-0.471D-03-0.167D-02 0.396D-02
 Coeff-Com:  0.387D-01 0.166D-01-0.199D+00-0.195D+00 0.376D+00 0.962D+00
 Coeff:     -0.818D-04 0.132D-03 0.602D-04-0.471D-03-0.167D-02 0.396D-02
 Coeff:      0.387D-01 0.166D-01-0.199D+00-0.195D+00 0.376D+00 0.962D+00
 Gap=     0.095 Goal=   None    Shift=    0.000
 Gap=     0.135 Goal=   None    Shift=    0.000
 RMSDP=1.97D-06 MaxDP=2.72D-04 DE=-7.69D-06 OVMax= 2.13D-03

 Cycle  13  Pass 1  IDiag  1:
 RMSU=  5.78D-07    CP:  9.61D-01  2.33D+00  6.96D-01  7.59D-01  1.42D+00
                    CP:  1.40D+00  1.47D+00  1.72D+00  2.05D+00  2.09D+00
                    CP:  1.94D+00  1.71D+00
 E= -2365.00191597269     Delta-E=       -0.000003549017 Rises=F Damp=F
 DIIS: error= 1.28D-05 at cycle  13 NSaved=  13.
 NSaved=13 IEnMin=13 EnMin= -2365.00191597269     IErMin=13 ErrMin= 1.28D-05
 ErrMax= 1.28D-05  0.00D+00 EMaxC= 1.00D-01 BMatC= 6.54D-07 BMatP= 1.57D-06
 IDIUse=1 WtCom= 1.00D+00 WtEn= 0.00D+00
 Coeff-Com: -0.143D-03 0.198D-03-0.170D-04 0.677D-03-0.312D-02-0.209D-02
 Coeff-Com:  0.289D-01 0.390D-01-0.685D-01-0.171D+00-0.174D+00 0.473D+00
 Coeff-Com:  0.877D+00
 Coeff:     -0.143D-03 0.198D-03-0.170D-04 0.677D-03-0.312D-02-0.209D-02
 Coeff:      0.289D-01 0.390D-01-0.685D-01-0.171D+00-0.174D+00 0.473D+00
 Coeff:      0.877D+00
 Gap=     0.095 Goal=   None    Shift=    0.000
 Gap=     0.135 Goal=   None    Shift=    0.000
 RMSDP=1.35D-06 MaxDP=1.85D-04 DE=-3.55D-06 OVMax= 1.44D-03

 Cycle  14  Pass 1  IDiag  1:
 RMSU=  3.53D-07    CP:  9.61D-01  2.33D+00  6.96D-01  7.59D-01  1.43D+00
                    CP:  1.40D+00  1.48D+00  1.75D+00  2.12D+00  2.28D+00
                    CP:  2.22D+00  2.39D+00  1.51D+00
 E= -2365.00191744951     Delta-E=       -0.000001476816 Rises=F Damp=F
 DIIS: error= 8.21D-06 at cycle  14 NSaved=  14.
 NSaved=14 IEnMin=14 EnMin= -2365.00191744951     IErMin=14 ErrMin= 8.21D-06
 ErrMax= 8.21D-06  0.00D+00 EMaxC= 1.00D-01 BMatC= 2.31D-07 BMatP= 6.54D-07
 IDIUse=1 WtCom= 1.00D+00 WtEn= 0.00D+00
 Coeff-Com: -0.794D-04 0.109D-03-0.996D-04 0.326D-03-0.640D-03-0.133D-02
 Coeff-Com: -0.983D-03 0.825D-02 0.339D-01-0.723D-02-0.182D+00-0.110D+00
 Coeff-Com:  0.343D+00 0.917D+00
 Coeff:     -0.794D-04 0.109D-03-0.996D-04 0.326D-03-0.640D-03-0.133D-02
 Coeff:     -0.983D-03 0.825D-02 0.339D-01-0.723D-02-0.182D+00-0.110D+00
 Coeff:      0.343D+00 0.917D+00
 Gap=     0.095 Goal=   None    Shift=    0.000
 Gap=     0.135 Goal=   None    Shift=    0.000
 RMSDP=8.19D-07 MaxDP=1.23D-04 DE=-1.48D-06 OVMax= 8.55D-04

 Cycle  15  Pass 1  IDiag  1:
 RMSU=  2.12D-07    CP:  9.61D-01  2.33D+00  6.96D-01  7.59D-01  1.43D+00
                    CP:  1.40D+00  1.48D+00  1.76D+00  2.16D+00  2.36D+00
                    CP:  2.37D+00  2.79D+00  2.08D+00  1.57D+00
 E= -2365.00191800571     Delta-E=       -0.000000556203 Rises=F Damp=F
 DIIS: error= 4.95D-06 at cycle  15 NSaved=  15.
 NSaved=15 IEnMin=15 EnMin= -2365.00191800571     IErMin=15 ErrMin= 4.95D-06
 ErrMax= 4.95D-06  0.00D+00 EMaxC= 1.00D-01 BMatC= 1.13D-07 BMatP= 2.31D-07
 IDIUse=1 WtCom= 1.00D+00 WtEn= 0.00D+00
 Coeff-Com:  0.746D-05-0.120D-04-0.540D-04-0.903D-04 0.116D-02 0.693D-03
 Coeff-Com: -0.145D-01-0.151D-01 0.501D-01 0.764D-01-0.118D-01-0.284D+00
 Coeff-Com: -0.230D+00 0.491D+00 0.937D+00
 Coeff:      0.746D-05-0.120D-04-0.540D-04-0.903D-04 0.116D-02 0.693D-03
 Coeff:     -0.145D-01-0.151D-01 0.501D-01 0.764D-01-0.118D-01-0.284D+00
 Coeff:     -0.230D+00 0.491D+00 0.937D+00
 Gap=     0.095 Goal=   None    Shift=    0.000
 Gap=     0.135 Goal=   None    Shift=    0.000
 RMSDP=6.57D-07 MaxDP=1.02D-04 DE=-5.56D-07 OVMax= 7.31D-04

 Cycle  16  Pass 1  IDiag  1:
 RMSU=  1.75D-07    CP:  9.61D-01  2.33D+00  6.96D-01  7.59D-01  1.43D+00
                    CP:  1.40D+00  1.48D+00  1.77D+00  2.19D+00  2.42D+00
                    CP:  2.48D+00  3.00D+00  2.53D+00  2.30D+00  1.86D+00
 E= -2365.00191829161     Delta-E=       -0.000000285898 Rises=F Damp=F
 DIIS: error= 2.95D-06 at cycle  16 NSaved=  16.
 NSaved=16 IEnMin=16 EnMin= -2365.00191829161     IErMin=16 ErrMin= 2.95D-06
 ErrMax= 2.95D-06  0.00D+00 EMaxC= 1.00D-01 BMatC= 3.98D-08 BMatP= 1.13D-07
 IDIUse=1 WtCom= 1.00D+00 WtEn= 0.00D+00
 Coeff-Com:  0.809D-05-0.889D-05-0.542D-05-0.142D-03 0.657D-03 0.782D-03
 Coeff-Com: -0.578D-02-0.923D-02 0.103D-01 0.365D-01 0.566D-01-0.979D-01
 Coeff-Com: -0.218D+00-0.764D-01 0.430D+00 0.873D+00
 Coeff:      0.809D-05-0.889D-05-0.542D-05-0.142D-03 0.657D-03 0.782D-03
 Coeff:     -0.578D-02-0.923D-02 0.103D-01 0.365D-01 0.566D-01-0.979D-01
 Coeff:     -0.218D+00-0.764D-01 0.430D+00 0.873D+00
 Gap=     0.095 Goal=   None    Shift=    0.000
 Gap=     0.135 Goal=   None    Shift=    0.000
 RMSDP=3.85D-07 MaxDP=6.23D-05 DE=-2.86D-07 OVMax= 4.70D-04

 Cycle  17  Pass 1  IDiag  1:
 RMSU=  1.36D-07    CP:  9.61D-01  2.33D+00  6.96D-01  7.59D-01  1.43D+00
                    CP:  1.40D+00  1.49D+00  1.77D+00  2.20D+00  2.46D+00
                    CP:  2.52D+00  3.00D+00  2.79D+00  2.77D+00  2.60D+00
                    CP:  1.89D+00
 E= -2365.00191840247     Delta-E=       -0.000000110864 Rises=F Damp=F
 DIIS: error= 1.93D-06 at cycle  17 NSaved=  17.
 NSaved=17 IEnMin=17 EnMin= -2365.00191840247     IErMin=17 ErrMin= 1.93D-06
 ErrMax= 1.93D-06  0.00D+00 EMaxC= 1.00D-01 BMatC= 1.79D-08 BMatP= 3.98D-08
 IDIUse=1 WtCom= 1.00D+00 WtEn= 0.00D+00
 Coeff-Com:  0.151D-04-0.197D-04 0.281D-04-0.103D-04-0.167D-03-0.129D-03
 Coeff-Com:  0.364D-02 0.261D-02-0.175D-01-0.158D-01 0.321D-01 0.823D-01
 Coeff-Com:  0.188D-02-0.277D+00-0.242D+00 0.426D+00 0.100D+01
 Coeff:      0.151D-04-0.197D-04 0.281D-04-0.103D-04-0.167D-03-0.129D-03
 Coeff:      0.364D-02 0.261D-02-0.175D-01-0.158D-01 0.321D-01 0.823D-01
 Coeff:      0.188D-02-0.277D+00-0.242D+00 0.426D+00 0.100D+01
 Gap=     0.095 Goal=   None    Shift=    0.000
 Gap=     0.135 Goal=   None    Shift=    0.000
 RMSDP=3.34D-07 MaxDP=5.37D-05 DE=-1.11D-07 OVMax= 4.39D-04

 Cycle  18  Pass 1  IDiag  1:
 RMSU=  1.26D-07    CP:  9.61D-01  2.33D+00  6.96D-01  7.59D-01  1.43D+00
                    CP:  1.40D+00  1.49D+00  1.78D+00  2.20D+00  2.48D+00
                    CP:  2.56D+00  3.00D+00  2.99D+00  3.00D+00  3.00D+00
                    CP:  2.76D+00  1.64D+00
 E= -2365.00191847250     Delta-E=       -0.000000070029 Rises=F Damp=F
 DIIS: error= 1.75D-06 at cycle  18 NSaved=  18.
 NSaved=18 IEnMin=18 EnMin= -2365.00191847250     IErMin=18 ErrMin= 1.75D-06
 ErrMax= 1.75D-06  0.00D+00 EMaxC= 1.00D-01 BMatC= 8.56D-09 BMatP= 1.79D-08
 IDIUse=1 WtCom= 1.00D+00 WtEn= 0.00D+00
 Coeff-Com:  0.885D-05-0.122D-04 0.178D-04 0.208D-04-0.238D-03-0.416D-03
 Coeff-Com:  0.275D-02 0.373D-02-0.782D-02-0.149D-01-0.101D-01 0.522D-01
 Coeff-Com:  0.695D-01-0.528D-01-0.200D+00-0.163D+00 0.324D+00 0.996D+00
 Coeff:      0.885D-05-0.122D-04 0.178D-04 0.208D-04-0.238D-03-0.416D-03
 Coeff:      0.275D-02 0.373D-02-0.782D-02-0.149D-01-0.101D-01 0.522D-01
 Coeff:      0.695D-01-0.528D-01-0.200D+00-0.163D+00 0.324D+00 0.996D+00
 Gap=     0.095 Goal=   None    Shift=    0.000
 Gap=     0.135 Goal=   None    Shift=    0.000
 RMSDP=2.00D-07 MaxDP=2.97D-05 DE=-7.00D-08 OVMax= 2.78D-04

 Cycle  19  Pass 1  IDiag  1:
 RMSU=  8.18D-08    CP:  9.61D-01  2.33D+00  6.96D-01  7.59D-01  1.43D+00
                    CP:  1.40D+00  1.49D+00  1.78D+00  2.21D+00  2.48D+00
                    CP:  2.58D+00  3.00D+00  3.00D+00  3.00D+00  3.00D+00
                    CP:  3.00D+00  2.12D+00  2.13D+00
 E= -2365.00191850631     Delta-E=       -0.000000033810 Rises=F Damp=F
 DIIS: error= 1.50D-06 at cycle  19 NSaved=  19.
 NSaved=19 IEnMin=19 EnMin= -2365.00191850631     IErMin=19 ErrMin= 1.50D-06
 ErrMax= 1.50D-06  0.00D+00 EMaxC= 1.00D-01 BMatC= 4.95D-09 BMatP= 8.56D-09
 IDIUse=1 WtCom= 1.00D+00 WtEn= 0.00D+00
 Coeff-Com: -0.228D-05 0.387D-05 0.728D-05 0.641D-05 0.605D-05-0.147D-03
 Coeff-Com: -0.106D-02 0.215D-03 0.790D-02 0.312D-02-0.275D-01-0.282D-01
 Coeff-Com:  0.336D-01 0.159D+00 0.610D-01-0.384D+00-0.479D+00 0.469D+00
 Coeff-Com:  0.119D+01
 Coeff:     -0.228D-05 0.387D-05 0.728D-05 0.641D-05 0.605D-05-0.147D-03
 Coeff:     -0.106D-02 0.215D-03 0.790D-02 0.312D-02-0.275D-01-0.282D-01
 Coeff:      0.336D-01 0.159D+00 0.610D-01-0.384D+00-0.479D+00 0.469D+00
 Coeff:      0.119D+01
 Gap=     0.095 Goal=   None    Shift=    0.000
 Gap=     0.135 Goal=   None    Shift=    0.000
 RMSDP=2.37D-07 MaxDP=3.31D-05 DE=-3.38D-08 OVMax= 3.36D-04

 Cycle  20  Pass 1  IDiag  1:
 RMSU=  8.55D-08    CP:  9.61D-01  2.33D+00  6.96D-01  7.59D-01  1.43D+00
                    CP:  1.40D+00  1.49D+00  1.78D+00  2.21D+00  2.49D+00
                    CP:  2.59D+00  3.00D+00  3.00D+00  3.00D+00  3.00D+00
                    CP:  3.00D+00  2.74D+00  3.00D+00  2.45D+00
 E= -2365.00191853834     Delta-E=       -0.000000032031 Rises=F Damp=F
 DIIS: error= 1.12D-06 at cycle  20 NSaved=  20.
 NSaved=20 IEnMin=20 EnMin= -2365.00191853834     IErMin=20 ErrMin= 1.12D-06
 ErrMax= 1.12D-06  0.00D+00 EMaxC= 1.00D-01 BMatC= 2.16D-09 BMatP= 4.95D-09
 IDIUse=1 WtCom= 1.00D+00 WtEn= 0.00D+00
 Coeff-Com: -0.345D-05 0.452D-05-0.755D-06-0.148D-05 0.114D-03 0.188D-03
 Coeff-Com: -0.181D-02-0.190D-02 0.665D-02 0.853D-02-0.265D-02-0.349D-01
 Coeff-Com: -0.305D-01 0.712D-01 0.121D+00-0.181D-01-0.281D+00-0.406D+00
 Coeff-Com:  0.290D+00 0.128D+01
 Coeff:     -0.345D-05 0.452D-05-0.755D-06-0.148D-05 0.114D-03 0.188D-03
 Coeff:     -0.181D-02-0.190D-02 0.665D-02 0.853D-02-0.265D-02-0.349D-01
 Coeff:     -0.305D-01 0.712D-01 0.121D+00-0.181D-01-0.281D+00-0.406D+00
 Coeff:      0.290D+00 0.128D+01
 Gap=     0.095 Goal=   None    Shift=    0.000
 Gap=     0.135 Goal=   None    Shift=    0.000
 RMSDP=2.02D-07 MaxDP=2.77D-05 DE=-3.20D-08 OVMax= 2.90D-04

 Cycle  21  Pass 1  IDiag  1:
 Restarting incremental Fock formation.
 E= -2365.00191855625     Delta-E=       -0.000000017904 Rises=F Damp=F
 DIIS: error= 6.84D-07 at cycle  21 NSaved=  20.
 NSaved=20 IEnMin=20 EnMin= -2365.00191855625     IErMin=20 ErrMin= 6.84D-07
 ErrMax= 6.84D-07  0.00D+00 EMaxC= 1.00D-01 BMatC= 1.13D-09 BMatP= 2.16D-09
 IDIUse=1 WtCom= 1.00D+00 WtEn= 0.00D+00
 Coeff-Com: -0.130D-05-0.128D-04-0.921D-05 0.522D-04 0.255D-03-0.297D-03
 Coeff-Com: -0.139D-02-0.211D-02 0.222D-02 0.188D-01 0.219D-02-0.407D-01
 Coeff-Com: -0.736D-01 0.205D-01 0.256D+00 0.172D+00-0.520D+00-0.650D+00
 Coeff-Com:  0.626D+00 0.119D+01
 Coeff:     -0.130D-05-0.128D-04-0.921D-05 0.522D-04 0.255D-03-0.297D-03
 Coeff:     -0.139D-02-0.211D-02 0.222D-02 0.188D-01 0.219D-02-0.407D-01
 Coeff:     -0.736D-01 0.205D-01 0.256D+00 0.172D+00-0.520D+00-0.650D+00
 Coeff:      0.626D+00 0.119D+01
 Gap=     0.095 Goal=   None    Shift=    0.000
 Gap=     0.135 Goal=   None    Shift=    0.000
 RMSDP=1.85D-07 MaxDP=2.41D-05 DE=-1.79D-08 OVMax= 2.67D-04

 Cycle  22  Pass 1  IDiag  1:
 RMSU=  1.85D-07    CP:  1.00D+00
 E= -2365.00191856593     Delta-E=       -0.000000009684 Rises=F Damp=F
 DIIS: error= 4.78D-07 at cycle  22 NSaved=  20.
 NSaved=20 IEnMin=20 EnMin= -2365.00191856593     IErMin=20 ErrMin= 4.78D-07
 ErrMax= 4.78D-07  0.00D+00 EMaxC= 1.00D-01 BMatC= 4.30D-10 BMatP= 1.13D-09
 IDIUse=1 WtCom= 1.00D+00 WtEn= 0.00D+00
 Coeff-Com: -0.620D-05 0.707D-05-0.172D-04 0.302D-04 0.608D-03 0.296D-03
 Coeff-Com: -0.300D-02-0.264D-02 0.607D-02 0.120D-01 0.295D-03-0.444D-01
 Coeff-Com: -0.342D-01 0.797D-01 0.121D+00 0.325D-01-0.264D+00-0.340D+00
 Coeff-Com:  0.346D+00 0.109D+01
 Coeff:     -0.620D-05 0.707D-05-0.172D-04 0.302D-04 0.608D-03 0.296D-03
 Coeff:     -0.300D-02-0.264D-02 0.607D-02 0.120D-01 0.295D-03-0.444D-01
 Coeff:     -0.342D-01 0.797D-01 0.121D+00 0.325D-01-0.264D+00-0.340D+00
 Coeff:      0.346D+00 0.109D+01
 Gap=     0.095 Goal=   None    Shift=    0.000
 Gap=     0.135 Goal=   None    Shift=    0.000
 RMSDP=8.39D-08 MaxDP=1.07D-05 DE=-9.68D-09 OVMax= 1.19D-04

 Cycle  23  Pass 1  IDiag  1:
 RMSU=  1.54D-08    CP:  1.00D+00  1.45D+00
 E= -2365.00191856763     Delta-E=       -0.000000001699 Rises=F Damp=F
 DIIS: error= 2.13D-07 at cycle  23 NSaved=  20.
 NSaved=20 IEnMin=20 EnMin= -2365.00191856763     IErMin=20 ErrMin= 2.13D-07
 ErrMax= 2.13D-07  0.00D+00 EMaxC= 1.00D-01 BMatC= 1.31D-10 BMatP= 4.30D-10
 IDIUse=1 WtCom= 1.00D+00 WtEn= 0.00D+00
 Coeff-Com:  0.848D-05-0.109D-04-0.588D-04 0.288D-03 0.481D-03-0.441D-03
 Coeff-Com: -0.160D-02-0.367D-02 0.371D-02 0.134D-01 0.644D-02-0.186D-01
 Coeff-Com: -0.503D-01-0.238D-01 0.190D+00 0.122D+00-0.339D+00-0.237D+00
 Coeff-Com:  0.403D+00 0.937D+00
 Coeff:      0.848D-05-0.109D-04-0.588D-04 0.288D-03 0.481D-03-0.441D-03
 Coeff:     -0.160D-02-0.367D-02 0.371D-02 0.134D-01 0.644D-02-0.186D-01
 Coeff:     -0.503D-01-0.238D-01 0.190D+00 0.122D+00-0.339D+00-0.237D+00
 Coeff:      0.403D+00 0.937D+00
 Gap=     0.095 Goal=   None    Shift=    0.000
 Gap=     0.135 Goal=   None    Shift=    0.000
 RMSDP=3.09D-08 MaxDP=3.95D-06 DE=-1.70D-09 OVMax= 4.29D-05

 Cycle  24  Pass 1  IDiag  1:
 RMSU=  6.21D-09    CP:  1.00D+00  1.60D+00  1.70D+00
 E= -2365.00191856787     Delta-E=       -0.000000000240 Rises=F Damp=F
 DIIS: error= 8.19D-08 at cycle  24 NSaved=  20.
 NSaved=20 IEnMin=20 EnMin= -2365.00191856787     IErMin=20 ErrMin= 8.19D-08
 ErrMax= 8.19D-08  0.00D+00 EMaxC= 1.00D-01 BMatC= 2.98D-11 BMatP= 1.31D-10
 IDIUse=1 WtCom= 1.00D+00 WtEn= 0.00D+00
 Coeff-Com: -0.525D-06-0.308D-04-0.533D-04 0.909D-04 0.668D-03 0.157D-03
 Coeff-Com: -0.319D-02-0.194D-02 0.519D-02 0.146D-01 0.298D-02-0.413D-01
 Coeff-Com: -0.464D-01 0.685D-01 0.126D+00-0.459D-01-0.190D+00-0.169D+00
 Coeff-Com:  0.386D+00 0.894D+00
 Coeff:     -0.525D-06-0.308D-04-0.533D-04 0.909D-04 0.668D-03 0.157D-03
 Coeff:     -0.319D-02-0.194D-02 0.519D-02 0.146D-01 0.298D-02-0.413D-01
 Coeff:     -0.464D-01 0.685D-01 0.126D+00-0.459D-01-0.190D+00-0.169D+00
 Coeff:      0.386D+00 0.894D+00
 Gap=     0.095 Goal=   None    Shift=    0.000
 Gap=     0.135 Goal=   None    Shift=    0.000
 RMSDP=1.34D-08 MaxDP=1.65D-06 DE=-2.40D-10 OVMax= 1.83D-05

 Cycle  25  Pass 1  IDiag  1:
 RMSU=  3.24D-09    CP:  1.00D+00  1.66D+00  2.04D+00  1.34D+00
 E= -2365.00191856774     Delta-E=        0.000000000131 Rises=F Damp=F
 DIIS: error= 3.13D-08 at cycle  25 NSaved=  20.
 NSaved=20 IEnMin=19 EnMin= -2365.00191856787     IErMin=20 ErrMin= 3.13D-08
 ErrMax= 3.13D-08  0.00D+00 EMaxC= 1.00D-01 BMatC= 7.33D-12 BMatP= 2.98D-11
 IDIUse=1 WtCom= 1.00D+00 WtEn= 0.00D+00
 Coeff-Com: -0.231D-05-0.907D-04-0.720D-04 0.404D-03 0.476D-03-0.375D-03
 Coeff-Com: -0.196D-02-0.150D-02 0.432D-02 0.701D-02-0.171D-02-0.135D-01
 Coeff-Com: -0.265D-01 0.135D-01 0.708D-01 0.551D-03-0.153D+00-0.109D+00
 Coeff-Com:  0.299D+00 0.912D+00
 Coeff:     -0.231D-05-0.907D-04-0.720D-04 0.404D-03 0.476D-03-0.375D-03
 Coeff:     -0.196D-02-0.150D-02 0.432D-02 0.701D-02-0.171D-02-0.135D-01
 Coeff:     -0.265D-01 0.135D-01 0.708D-01 0.551D-03-0.153D+00-0.109D+00
 Coeff:      0.299D+00 0.912D+00
 Gap=     0.095 Goal=   None    Shift=    0.000
 Gap=     0.135 Goal=   None    Shift=    0.000
 RMSDP=4.54D-09 MaxDP=5.52D-07 DE= 1.31D-10 OVMax= 5.93D-06

 Error on total polarization charges =  0.02824
 SCF Done:  E(UM062X) =  -2365.00191857     A.U. after   25 cycles
            NFock= 25  Conv=0.45D-08     -V/T= 2.0054
 <Sx>= 0.0000 <Sy>= 0.0000 <Sz>= 0.5000 <S**2>= 0.7659 S= 0.5079
 <L.S>= 0.000000000000E+00
 KE= 2.352261573765D+03 PE=-1.759952949327D+04 EE= 6.850823355633D+03
 Annihilation of the first spin contaminant:
 S**2 before annihilation     0.7659,   after     0.7502
 Leave Link  502 at Sat Oct 25 08:52:57 2025, MaxMem= 30870077440 cpu:          180964.4 elap:            2859.9
 (Enter /public/software/gauss/g16/l601.exe)
 Copying SCF densities to generalized density rwf, IOpCl= 1 IROHF=0.

 **********************************************************************

            Population analysis using the SCF density.

 **********************************************************************

 Orbital symmetries:
 Alpha Orbitals:
       Occupied  (A) (A) (A) (A) (A) (A) (A) (A) (A) (A) (A) (A)
                 (A) (A) (A) (A) (A) (A) (A) (A) (A) (A) (A) (A)
                 (A) (A) (A) (A) (A) (A) (A) (A) (A) (A) (A) (A)
                 (A) (A) (A) (A) (A) (A) (A) (A) (A) (A) (A) (A)
                 (A) (A) (A) (A) (A) (A) (A) (A) (A) (A) (A) (A)
                 (A) (A) (A) (A) (A) (A) (A) (A) (A) (A) (A) (A)
                 (A) (A) (A) (A) (A) (A) (A) (A) (A) (A) (A) (A)
                 (A) (A) (A) (A) (A) (A) (A) (A) (A) (A) (A) (A)
                 (A) (A) (A) (A) (A) (A) (A) (A) (A) (A) (A) (A)
                 (A) (A) (A) (A) (A) (A) (A) (A) (A) (A) (A) (A)
                 (A) (A) (A) (A) (A) (A) (A) (A) (A) (A) (A) (A)
                 (A) (A) (A) (A) (A) (A) (A) (A) (A) (A) (A) (A)
                 (A) (A) (A) (A) (A) (A) (A) (A) (A) (A) (A) (A)
                 (A) (A) (A) (A) (A) (A) (A) (A) (A) (A) (A) (A)
                 (A) (A) (A) (A) (A) (A) (A) (A) (A) (A) (A) (A)
                 (A) (A) (A) (A) (A)
       Virtual   (A) (A) (A) (A) (A) (A) (A) (A) (A) (A) (A) (A)
                 (A) (A) (A) (A) (A) (A) (A) (A) (A) (A) (A) (A)
                 (A) (A) (A) (A) (A) (A) (A) (A) (A) (A) (A) (A)
                 (A) (A) (A) (A) (A) (A) (A) (A) (A) (A) (A) (A)
                 (A) (A) (A) (A) (A) (A) (A) (A) (A) (A) (A) (A)
                 (A) (A) (A) (A) (A) (A) (A) (A) (A) (A) (A) (A)
                 (A) (A) (A) (A) (A) (A) (A) (A) (A) (A) (A) (A)
                 (A) (A) (A) (A) (A) (A) (A) (A) (A) (A) (A) (A)
                 (A) (A) (A) (A) (A) (A) (A) (A) (A) (A) (A) (A)
                 (A) (A) (A) (A) (A) (A) (A) (A) (A) (A) (A) (A)
                 (A) (A) (A) (A) (A) (A) (A) (A) (A) (A) (A) (A)
                 (A) (A) (A) (A) (A) (A) (A) (A) (A) (A) (A) (A)
                 (A) (A) (A) (A) (A) (A) (A) (A) (A) (A) (A) (A)
                 (A) (A) (A) (A) (A) (A) (A) (A) (A) (A) (A) (A)
                 (A) (A) (A) (A) (A) (A) (A) (A) (A) (A) (A) (A)
                 (A) (A) (A) (A) (A) (A) (A) (A) (A) (A) (A) (A)
                 (A) (A) (A) (A) (A) (A) (A) (A) (A) (A) (A) (A)
                 (A) (A) (A) (A) (A) (A) (A) (A) (A) (A) (A) (A)
                 (A) (A) (A) (A) (A) (A) (A) (A) (A) (A) (A) (A)
                 (A) (A) (A) (A) (A) (A) (A) (A) (A) (A) (A) (A)
                 (A) (A) (A) (A) (A) (A) (A) (A) (A) (A) (A) (A)
                 (A) (A) (A) (A) (A) (A) (A) (A) (A) (A) (A) (A)
                 (A) (A) (A) (A) (A) (A) (A) (A) (A) (A) (A) (A)
                 (A) (A) (A) (A) (A) (A) (A) (A) (A) (A) (A) (A)
                 (A) (A) (A) (A) (A) (A) (A) (A) (A) (A) (A) (A)
                 (A) (A) (A) (A) (A) (A) (A) (A) (A) (A) (A) (A)
                 (A) (A) (A) (A) (A) (A) (A) (A) (A) (A) (A) (A)
                 (A) (A) (A) (A) (A) (A) (A) (A) (A) (A) (A) (A)
                 (A) (A) (A) (A) (A) (A) (A) (A) (A) (A) (A) (A)
                 (A) (A) (A) (A) (A) (A) (A) (A) (A) (A) (A) (A)
                 (A) (A) (A) (A) (A) (A) (A) (A) (A) (A) (A) (A)
                 (A) (A) (A) (A) (A) (A) (A) (A) (A) (A) (A) (A)
                 (A) (A) (A) (A) (A) (A) (A) (A) (A) (A) (A) (A)
                 (A) (A) (A) (A) (A) (A) (A) (A) (A) (A) (A) (A)
                 (A) (A) (A) (A) (A) (A) (A) (A) (A) (A) (A) (A)
                 (A) (A) (A) (A) (A) (A) (A) (A) (A) (A) (A) (A)
                 (A) (A) (A) (A) (A) (A) (A) (A) (A) (A) (A) (A)
                 (A) (A) (A) (A) (A) (A) (A) (A) (A) (A) (A) (A)
                 (A) (A) (A) (A) (A) (A) (A) (A) (A) (A) (A) (A)
                 (A) (A) (A) (A) (A) (A) (A) (A) (A) (A) (A) (A)
                 (A) (A) (A) (A) (A) (A) (A) (A) (A) (A) (A) (A)
                 (A) (A) (A) (A) (A) (A) (A) (A) (A) (A) (A) (A)
                 (A) (A) (A) (A) (A) (A) (A) (A) (A) (A) (A) (A)
                 (A) (A) (A) (A) (A) (A) (A) (A) (A) (A) (A) (A)
                 (A) (A) (A) (A) (A) (A) (A) (A) (A) (A) (A) (A)
                 (A) (A) (A) (A) (A) (A) (A) (A) (A) (A) (A) (A)
                 (A) (A) (A) (A) (A) (A) (A) (A) (A) (A) (A) (A)
                 (A) (A) (A) (A) (A) (A) (A) (A) (A) (A) (A) (A)
                 (A) (A) (A) (A) (A) (A) (A) (A) (A) (A) (A) (A)
                 (A) (A) (A) (A) (A) (A) (A) (A) (A) (A) (A) (A)
                 (A) (A) (A) (A) (A) (A) (A) (A) (A) (A) (A) (A)
                 (A) (A) (A) (A) (A) (A) (A) (A) (A) (A) (A) (A)
                 (A) (A) (A) (A) (A) (A) (A) (A) (A) (A) (A) (A)
                 (A) (A) (A) (A) (A) (A) (A) (A) (A) (A) (A) (A)
                 (A) (A) (A) (A) (A) (A) (A) (A) (A) (A) (A) (A)
                 (A) (A) (A) (A) (A) (A) (A) (A) (A) (A) (A) (A)
                 (A) (A) (A) (A) (A) (A) (A) (A) (A) (A) (A) (A)
                 (A) (A) (A) (A) (A) (A) (A) (A) (A) (A) (A) (A)
                 (A) (A) (A) (A) (A) (A) (A) (A) (A) (A) (A) (A)
                 (A) (A) (A) (A) (A) (A) (A) (A) (A) (A) (A) (A)
                 (A) (A) (A) (A) (A) (A) (A) (A) (A) (A) (A) (A)
                 (A) (A) (A) (A) (A) (A) (A) (A) (A) (A) (A) (A)
                 (A) (A) (A) (A) (A) (A) (A) (A) (A) (A) (A) (A)
                 (A) (A) (A) (A) (A) (A) (A) (A) (A) (A) (A) (A)
                 (A) (A) (A) (A) (A) (A) (A) (A) (A) (A) (A) (A)
                 (A) (A) (A) (A) (A) (A) (A) (A) (A) (A) (A) (A)
                 (A) (A) (A) (A) (A) (A) (A) (A) (A) (A) (A) (A)
                 (A) (A) (A) (A) (A) (A) (A) (A) (A) (A) (A) (A)
                 (A) (A) (A) (A) (A) (A) (A) (A) (A) (A) (A) (A)
                 (A) (A) (A) (A) (A) (A) (A) (A) (A) (A) (A) (A)
                 (A) (A) (A) (A) (A) (A) (A) (A) (A) (A) (A) (A)
                 (A) (A) (A) (A) (A) (A) (A) (A) (A) (A) (A) (A)
                 (A) (A) (A) (A) (A) (A) (A) (A) (A) (A) (A) (A)
                 (A) (A) (A) (A) (A) (A) (A) (A) (A) (A) (A) (A)
                 (A) (A) (A) (A) (A) (A) (A) (A) (A) (A) (A) (A)
                 (A) (A) (A) (A) (A) (A) (A) (A) (A) (A) (A) (A)
                 (A) (A) (A) (A) (A) (A) (A) (A) (A) (A) (A) (A)
                 (A) (A) (A) (A) (A) (A) (A) (A) (A) (A) (A) (A)
                 (A) (A) (A) (A) (A) (A) (A) (A) (A) (A) (A) (A)
                 (A) (A) (A) (A) (A) (A) (A) (A) (A) (A) (A) (A)
                 (A) (A) (A) (A) (A) (A) (A) (A) (A) (A) (A) (A)
                 (A) (A) (A) (A) (A) (A) (A) (A) (A) (A) (A) (A)
                 (A) (A) (A) (A) (A) (A) (A) (A) (A) (A) (A) (A)
                 (A) (A) (A) (A) (A) (A) (A) (A) (A) (A) (A) (A)
                 (A) (A) (A) (A) (A) (A) (A) (A) (A) (A) (A) (A)
                 (A) (A) (A) (A) (A) (A) (A) (A) (A) (A) (A) (A)
                 (A) (A) (A) (A) (A) (A) (A) (A) (A) (A) (A) (A)
                 (A) (A) (A) (A) (A) (A) (A) (A) (A) (A) (A) (A)
                 (A) (A) (A) (A) (A) (A) (A) (A) (A) (A) (A) (A)
                 (A) (A) (A) (A) (A) (A) (A) (A) (A) (A) (A) (A)
                 (A) (A) (A) (A) (A) (A) (A) (A) (A) (A) (A) (A)
                 (A) (A) (A) (A) (A) (A) (A) (A) (A) (A) (A) (A)
                 (A) (A) (A) (A) (A) (A) (A) (A) (A) (A) (A) (A)
                 (A) (A) (A) (A) (A) (A) (A) (A) (A) (A) (A) (A)
                 (A) (A) (A) (A) (A) (A) (A) (A) (A) (A) (A) (A)
                 (A) (A) (A) (A) (A) (A) (A) (A) (A) (A) (A) (A)
                 (A) (A) (A) (A) (A) (A) (A) (A) (A) (A) (A) (A)
                 (A) (A) (A) (A) (A) (A) (A) (A) (A) (A) (A) (A)
                 (A) (A) (A) (A) (A) (A) (A) (A) (A) (A) (A) (A)
                 (A) (A) (A) (A) (A) (A) (A) (A) (A) (A) (A) (A)
                 (A) (A) (A) (A) (A) (A) (A) (A) (A) (A) (A) (A)
                 (A) (A) (A) (A) (A) (A) (A) (A) (A) (A) (A) (A)
                 (A) (A) (A) (A) (A) (A) (A) (A) (A) (A) (A) (A)
                 (A) (A) (A) (A) (A) (A) (A) (A) (A) (A) (A) (A)
                 (A) (A) (A) (A) (A) (A) (A) (A) (A) (A) (A) (A)
                 (A) (A) (A) (A) (A) (A) (A) (A) (A) (A) (A) (A)
                 (A) (A) (A) (A) (A) (A) (A) (A) (A) (A) (A) (A)
                 (A) (A) (A) (A) (A) (A) (A) (A) (A) (A) (A) (A)
                 (A) (A) (A) (A) (A) (A) (A) (A) (A) (A) (A) (A)
                 (A) (A) (A) (A) (A) (A) (A) (A) (A) (A) (A) (A)
                 (A) (A) (A) (A) (A) (A) (A) (A) (A) (A) (A) (A)
                 (A) (A) (A) (A) (A) (A) (A) (A) (A) (A) (A) (A)
                 (A) (A) (A) (A) (A) (A) (A) (A) (A) (A) (A) (A)
                 (A) (A) (A) (A) (A) (A) (A) (A) (A) (A) (A) (A)
                 (A) (A) (A) (A) (A) (A) (A) (A) (A) (A) (A) (A)
                 (A) (A) (A) (A) (A) (A) (A) (A) (A) (A) (A) (A)
                 (A) (A) (A) (A) (A) (A) (A) (A) (A) (A) (A) (A)
                 (A) (A) (A) (A) (A) (A) (A) (A) (A) (A) (A) (A)
                 (A) (A) (A) (A) (A) (A) (A) (A) (A) (A) (A) (A)
                 (A) (A) (A) (A) (A) (A) (A) (A) (A) (A) (A) (A)
                 (A) (A) (A) (A) (A) (A) (A) (A) (A) (A) (A) (A)
                 (A) (A) (A) (A) (A) (A) (A) (A) (A) (A) (A) (A)
                 (A) (A) (A) (A) (A) (A) (A) (A) (A) (A) (A) (A)
                 (A) (A) (A) (A) (A) (A) (A) (A) (A) (A) (A) (A)
                 (A) (A) (A) (A) (A) (A) (A) (A) (A) (A) (A) (A)
                 (A) (A) (A) (A) (A) (A) (A) (A) (A) (A) (A) (A)
                 (A) (A) (A) (A) (A) (A) (A) (A) (A) (A) (A) (A)
                 (A) (A) (A) (A) (A) (A) (A) (A) (A) (A) (A) (A)
                 (A) (A) (A) (A) (A) (A) (A) (A) (A) (A) (A) (A)
                 (A) (A) (A) (A) (A) (A) (A) (A) (A) (A) (A) (A)
                 (A) (A) (A) (A) (A) (A) (A) (A) (A) (A) (A) (A)
                 (A) (A) (A) (A) (A) (A) (A) (A) (A) (A) (A) (A)
                 (A) (A) (A) (A) (A) (A) (A) (A) (A) (A) (A) (A)
                 (A) (A) (A) (A) (A) (A) (A) (A) (A) (A) (A) (A)
                 (A) (A) (A) (A) (A) (A) (A) (A) (A) (A) (A) (A)
                 (A) (A) (A) (A) (A) (A) (A) (A) (A) (A) (A) (A)
                 (A) (A) (A) (A) (A) (A) (A) (A) (A) (A) (A) (A)
                 (A) (A) (A) (A) (A) (A) (A) (A) (A) (A) (A) (A)
                 (A) (A) (A) (A) (A) (A) (A) (A) (A) (A) (A) (A)
                 (A) (A) (A) (A) (A) (A) (A) (A) (A) (A) (A) (A)
                 (A) (A) (A) (A) (A) (A) (A) (A) (A) (A) (A) (A)
                 (A) (A) (A) (A) (A) (A) (A) (A) (A) (A) (A) (A)
                 (A) (A) (A) (A) (A) (A) (A) (A) (A) (A) (A) (A)
                 (A) (A) (A) (A) (A) (A) (A) (A) (A) (A) (A) (A)
                 (A) (A) (A) (A) (A) (A) (A) (A) (A) (A) (A) (A)
                 (A) (A) (A) (A) (A) (A) (A) (A) (A) (A) (A) (A)
                 (A) (A) (A) (A) (A) (A) (A) (A) (A) (A) (A) (A)
                 (A) (A) (A) (A) (A) (A) (A) (A) (A) (A) (A) (A)
                 (A) (A) (A) (A) (A) (A) (A) (A) (A) (A) (A) (A)
                 (A) (A) (A) (A) (A) (A) (A) (A) (A) (A) (A) (A)
                 (A) (A) (A) (A) (A) (A) (A) (A) (A) (A) (A) (A)
                 (A) (A) (A) (A) (A) (A) (A) (A) (A) (A) (A) (A)
                 (A) (A) (A) (A) (A) (A) (A) (A) (A) (A) (A) (A)
                 (A) (A) (A) (A) (A) (A) (A) (A) (A) (A) (A) (A)
                 (A) (A) (A) (A) (A) (A) (A) (A) (A) (A) (A) (A)
                 (A) (A) (A) (A) (A) (A) (A) (A) (A) (A) (A) (A)
                 (A) (A) (A) (A) (A) (A) (A) (A) (A) (A) (A) (A)
                 (A) (A) (A) (A) (A) (A) (A) (A) (A) (A) (A) (A)
                 (A) (A) (A) (A) (A) (A) (A) (A) (A) (A) (A) (A)
                 (A) (A) (A) (A) (A) (A) (A) (A) (A) (A) (A) (A)
 Beta  Orbitals:
       Occupied  (A) (A) (A) (A) (A) (A) (A) (A) (A) (A) (A) (A)
                 (A) (A) (A) (A) (A) (A) (A) (A) (A) (A) (A) (A)
                 (A) (A) (A) (A) (A) (A) (A) (A) (A) (A) (A) (A)
                 (A) (A) (A) (A) (A) (A) (A) (A) (A) (A) (A) (A)
                 (A) (A) (A) (A) (A) (A) (A) (A) (A) (A) (A) (A)
                 (A) (A) (A) (A) (A) (A) (A) (A) (A) (A) (A) (A)
                 (A) (A) (A) (A) (A) (A) (A) (A) (A) (A) (A) (A)
                 (A) (A) (A) (A) (A) (A) (A) (A) (A) (A) (A) (A)
                 (A) (A) (A) (A) (A) (A) (A) (A) (A) (A) (A) (A)
                 (A) (A) (A) (A) (A) (A) (A) (A) (A) (A) (A) (A)
                 (A) (A) (A) (A) (A) (A) (A) (A) (A) (A) (A) (A)
                 (A) (A) (A) (A) (A) (A) (A) (A) (A) (A) (A) (A)
                 (A) (A) (A) (A) (A) (A) (A) (A) (A) (A) (A) (A)
                 (A) (A) (A) (A) (A) (A) (A) (A) (A) (A) (A) (A)
                 (A) (A) (A) (A) (A) (A) (A) (A) (A) (A) (A) (A)
                 (A) (A) (A) (A)
       Virtual   (A) (A) (A) (A) (A) (A) (A) (A) (A) (A) (A) (A)
                 (A) (A) (A) (A) (A) (A) (A) (A) (A) (A) (A) (A)
                 (A) (A) (A) (A) (A) (A) (A) (A) (A) (A) (A) (A)
                 (A) (A) (A) (A) (A) (A) (A) (A) (A) (A) (A) (A)
                 (A) (A) (A) (A) (A) (A) (A) (A) (A) (A) (A) (A)
                 (A) (A) (A) (A) (A) (A) (A) (A) (A) (A) (A) (A)
                 (A) (A) (A) (A) (A) (A) (A) (A) (A) (A) (A) (A)
                 (A) (A) (A) (A) (A) (A) (A) (A) (A) (A) (A) (A)
                 (A) (A) (A) (A) (A) (A) (A) (A) (A) (A) (A) (A)
                 (A) (A) (A) (A) (A) (A) (A) (A) (A) (A) (A) (A)
                 (A) (A) (A) (A) (A) (A) (A) (A) (A) (A) (A) (A)
                 (A) (A) (A) (A) (A) (A) (A) (A) (A) (A) (A) (A)
                 (A) (A) (A) (A) (A) (A) (A) (A) (A) (A) (A) (A)
                 (A) (A) (A) (A) (A) (A) (A) (A) (A) (A) (A) (A)
                 (A) (A) (A) (A) (A) (A) (A) (A) (A) (A) (A) (A)
                 (A) (A) (A) (A) (A) (A) (A) (A) (A) (A) (A) (A)
                 (A) (A) (A) (A) (A) (A) (A) (A) (A) (A) (A) (A)
                 (A) (A) (A) (A) (A) (A) (A) (A) (A) (A) (A) (A)
                 (A) (A) (A) (A) (A) (A) (A) (A) (A) (A) (A) (A)
                 (A) (A) (A) (A) (A) (A) (A) (A) (A) (A) (A) (A)
                 (A) (A) (A) (A) (A) (A) (A) (A) (A) (A) (A) (A)
                 (A) (A) (A) (A) (A) (A) (A) (A) (A) (A) (A) (A)
                 (A) (A) (A) (A) (A) (A) (A) (A) (A) (A) (A) (A)
                 (A) (A) (A) (A) (A) (A) (A) (A) (A) (A) (A) (A)
                 (A) (A) (A) (A) (A) (A) (A) (A) (A) (A) (A) (A)
                 (A) (A) (A) (A) (A) (A) (A) (A) (A) (A) (A) (A)
                 (A) (A) (A) (A) (A) (A) (A) (A) (A) (A) (A) (A)
                 (A) (A) (A) (A) (A) (A) (A) (A) (A) (A) (A) (A)
                 (A) (A) (A) (A) (A) (A) (A) (A) (A) (A) (A) (A)
                 (A) (A) (A) (A) (A) (A) (A) (A) (A) (A) (A) (A)
                 (A) (A) (A) (A) (A) (A) (A) (A) (A) (A) (A) (A)
                 (A) (A) (A) (A) (A) (A) (A) (A) (A) (A) (A) (A)
                 (A) (A) (A) (A) (A) (A) (A) (A) (A) (A) (A) (A)
                 (A) (A) (A) (A) (A) (A) (A) (A) (A) (A) (A) (A)
                 (A) (A) (A) (A) (A) (A) (A) (A) (A) (A) (A) (A)
                 (A) (A) (A) (A) (A) (A) (A) (A) (A) (A) (A) (A)
                 (A) (A) (A) (A) (A) (A) (A) (A) (A) (A) (A) (A)
                 (A) (A) (A) (A) (A) (A) (A) (A) (A) (A) (A) (A)
                 (A) (A) (A) (A) (A) (A) (A) (A) (A) (A) (A) (A)
                 (A) (A) (A) (A) (A) (A) (A) (A) (A) (A) (A) (A)
                 (A) (A) (A) (A) (A) (A) (A) (A) (A) (A) (A) (A)
                 (A) (A) (A) (A) (A) (A) (A) (A) (A) (A) (A) (A)
                 (A) (A) (A) (A) (A) (A) (A) (A) (A) (A) (A) (A)
                 (A) (A) (A) (A) (A) (A) (A) (A) (A) (A) (A) (A)
                 (A) (A) (A) (A) (A) (A) (A) (A) (A) (A) (A) (A)
                 (A) (A) (A) (A) (A) (A) (A) (A) (A) (A) (A) (A)
                 (A) (A) (A) (A) (A) (A) (A) (A) (A) (A) (A) (A)
                 (A) (A) (A) (A) (A) (A) (A) (A) (A) (A) (A) (A)
                 (A) (A) (A) (A) (A) (A) (A) (A) (A) (A) (A) (A)
                 (A) (A) (A) (A) (A) (A) (A) (A) (A) (A) (A) (A)
                 (A) (A) (A) (A) (A) (A) (A) (A) (A) (A) (A) (A)
                 (A) (A) (A) (A) (A) (A) (A) (A) (A) (A) (A) (A)
                 (A) (A) (A) (A) (A) (A) (A) (A) (A) (A) (A) (A)
                 (A) (A) (A) (A) (A) (A) (A) (A) (A) (A) (A) (A)
                 (A) (A) (A) (A) (A) (A) (A) (A) (A) (A) (A) (A)
                 (A) (A) (A) (A) (A) (A) (A) (A) (A) (A) (A) (A)
                 (A) (A) (A) (A) (A) (A) (A) (A) (A) (A) (A) (A)
                 (A) (A) (A) (A) (A) (A) (A) (A) (A) (A) (A) (A)
                 (A) (A) (A) (A) (A) (A) (A) (A) (A) (A) (A) (A)
                 (A) (A) (A) (A) (A) (A) (A) (A) (A) (A) (A) (A)
                 (A) (A) (A) (A) (A) (A) (A) (A) (A) (A) (A) (A)
                 (A) (A) (A) (A) (A) (A) (A) (A) (A) (A) (A) (A)
                 (A) (A) (A) (A) (A) (A) (A) (A) (A) (A) (A) (A)
                 (A) (A) (A) (A) (A) (A) (A) (A) (A) (A) (A) (A)
                 (A) (A) (A) (A) (A) (A) (A) (A) (A) (A) (A) (A)
                 (A) (A) (A) (A) (A) (A) (A) (A) (A) (A) (A) (A)
                 (A) (A) (A) (A) (A) (A) (A) (A) (A) (A) (A) (A)
                 (A) (A) (A) (A) (A) (A) (A) (A) (A) (A) (A) (A)
                 (A) (A) (A) (A) (A) (A) (A) (A) (A) (A) (A) (A)
                 (A) (A) (A) (A) (A) (A) (A) (A) (A) (A) (A) (A)
                 (A) (A) (A) (A) (A) (A) (A) (A) (A) (A) (A) (A)
                 (A) (A) (A) (A) (A) (A) (A) (A) (A) (A) (A) (A)
                 (A) (A) (A) (A) (A) (A) (A) (A) (A) (A) (A) (A)
                 (A) (A) (A) (A) (A) (A) (A) (A) (A) (A) (A) (A)
                 (A) (A) (A) (A) (A) (A) (A) (A) (A) (A) (A) (A)
                 (A) (A) (A) (A) (A) (A) (A) (A) (A) (A) (A) (A)
                 (A) (A) (A) (A) (A) (A) (A) (A) (A) (A) (A) (A)
                 (A) (A) (A) (A) (A) (A) (A) (A) (A) (A) (A) (A)
                 (A) (A) (A) (A) (A) (A) (A) (A) (A) (A) (A) (A)
                 (A) (A) (A) (A) (A) (A) (A) (A) (A) (A) (A) (A)
                 (A) (A) (A) (A) (A) (A) (A) (A) (A) (A) (A) (A)
                 (A) (A) (A) (A) (A) (A) (A) (A) (A) (A) (A) (A)
                 (A) (A) (A) (A) (A) (A) (A) (A) (A) (A) (A) (A)
                 (A) (A) (A) (A) (A) (A) (A) (A) (A) (A) (A) (A)
                 (A) (A) (A) (A) (A) (A) (A) (A) (A) (A) (A) (A)
                 (A) (A) (A) (A) (A) (A) (A) (A) (A) (A) (A) (A)
                 (A) (A) (A) (A) (A) (A) (A) (A) (A) (A) (A) (A)
                 (A) (A) (A) (A) (A) (A) (A) (A) (A) (A) (A) (A)
                 (A) (A) (A) (A) (A) (A) (A) (A) (A) (A) (A) (A)
                 (A) (A) (A) (A) (A) (A) (A) (A) (A) (A) (A) (A)
                 (A) (A) (A) (A) (A) (A) (A) (A) (A) (A) (A) (A)
                 (A) (A) (A) (A) (A) (A) (A) (A) (A) (A) (A) (A)
                 (A) (A) (A) (A) (A) (A) (A) (A) (A) (A) (A) (A)
                 (A) (A) (A) (A) (A) (A) (A) (A) (A) (A) (A) (A)
                 (A) (A) (A) (A) (A) (A) (A) (A) (A) (A) (A) (A)
                 (A) (A) (A) (A) (A) (A) (A) (A) (A) (A) (A) (A)
                 (A) (A) (A) (A) (A) (A) (A) (A) (A) (A) (A) (A)
                 (A) (A) (A) (A) (A) (A) (A) (A) (A) (A) (A) (A)
                 (A) (A) (A) (A) (A) (A) (A) (A) (A) (A) (A) (A)
                 (A) (A) (A) (A) (A) (A) (A) (A) (A) (A) (A) (A)
                 (A) (A) (A) (A) (A) (A) (A) (A) (A) (A) (A) (A)
                 (A) (A) (A) (A) (A) (A) (A) (A) (A) (A) (A) (A)
                 (A) (A) (A) (A) (A) (A) (A) (A) (A) (A) (A) (A)
                 (A) (A) (A) (A) (A) (A) (A) (A) (A) (A) (A) (A)
                 (A) (A) (A) (A) (A) (A) (A) (A) (A) (A) (A) (A)
                 (A) (A) (A) (A) (A) (A) (A) (A) (A) (A) (A) (A)
                 (A) (A) (A) (A) (A) (A) (A) (A) (A) (A) (A) (A)
                 (A) (A) (A) (A) (A) (A) (A) (A) (A) (A) (A) (A)
                 (A) (A) (A) (A) (A) (A) (A) (A) (A) (A) (A) (A)
                 (A) (A) (A) (A) (A) (A) (A) (A) (A) (A) (A) (A)
                 (A) (A) (A) (A) (A) (A) (A) (A) (A) (A) (A) (A)
                 (A) (A) (A) (A) (A) (A) (A) (A) (A) (A) (A) (A)
                 (A) (A) (A) (A) (A) (A) (A) (A) (A) (A) (A) (A)
                 (A) (A) (A) (A) (A) (A) (A) (A) (A) (A) (A) (A)
                 (A) (A) (A) (A) (A) (A) (A) (A) (A) (A) (A) (A)
                 (A) (A) (A) (A) (A) (A) (A) (A) (A) (A) (A) (A)
                 (A) (A) (A) (A) (A) (A) (A) (A) (A) (A) (A) (A)
                 (A) (A) (A) (A) (A) (A) (A) (A) (A) (A) (A) (A)
                 (A) (A) (A) (A) (A) (A) (A) (A) (A) (A) (A) (A)
                 (A) (A) (A) (A) (A) (A) (A) (A) (A) (A) (A) (A)
                 (A) (A) (A) (A) (A) (A) (A) (A) (A) (A) (A) (A)
                 (A) (A) (A) (A) (A) (A) (A) (A) (A) (A) (A) (A)
                 (A) (A) (A) (A) (A) (A) (A) (A) (A) (A) (A) (A)
                 (A) (A) (A) (A) (A) (A) (A) (A) (A) (A) (A) (A)
                 (A) (A) (A) (A) (A) (A) (A) (A) (A) (A) (A) (A)
                 (A) (A) (A) (A) (A) (A) (A) (A) (A) (A) (A) (A)
                 (A) (A) (A) (A) (A) (A) (A) (A) (A) (A) (A) (A)
                 (A) (A) (A) (A) (A) (A) (A) (A) (A) (A) (A) (A)
                 (A) (A) (A) (A) (A) (A) (A) (A) (A) (A) (A) (A)
                 (A) (A) (A) (A) (A) (A) (A) (A) (A) (A) (A) (A)
                 (A) (A) (A) (A) (A) (A) (A) (A) (A) (A) (A) (A)
                 (A) (A) (A) (A) (A) (A) (A) (A) (A) (A) (A) (A)
                 (A) (A) (A) (A) (A) (A) (A) (A) (A) (A) (A) (A)
                 (A) (A) (A) (A) (A) (A) (A) (A) (A) (A) (A) (A)
                 (A) (A) (A) (A) (A) (A) (A) (A) (A) (A) (A) (A)
                 (A) (A) (A) (A) (A) (A) (A) (A) (A) (A) (A) (A)
                 (A) (A) (A) (A) (A) (A) (A) (A) (A) (A) (A) (A)
                 (A) (A) (A) (A) (A) (A) (A) (A) (A) (A) (A) (A)
                 (A) (A) (A) (A) (A) (A) (A) (A) (A) (A) (A) (A)
                 (A) (A) (A) (A) (A) (A) (A) (A) (A) (A) (A) (A)
                 (A) (A) (A) (A) (A) (A) (A) (A) (A) (A) (A) (A)
                 (A) (A) (A) (A) (A) (A) (A) (A) (A) (A) (A) (A)
                 (A) (A) (A) (A) (A) (A) (A) (A) (A) (A) (A) (A)
                 (A) (A) (A) (A) (A) (A) (A) (A) (A) (A) (A) (A)
                 (A) (A) (A) (A) (A) (A) (A) (A) (A) (A) (A) (A)
                 (A) (A) (A) (A) (A) (A) (A) (A) (A) (A) (A) (A)
                 (A) (A) (A) (A) (A) (A) (A) (A) (A) (A) (A) (A)
                 (A) (A) (A) (A) (A) (A) (A) (A) (A) (A) (A) (A)
                 (A) (A) (A) (A) (A) (A) (A) (A) (A) (A) (A) (A)
                 (A) (A) (A) (A) (A) (A) (A) (A) (A) (A) (A) (A)
                 (A) (A) (A) (A) (A) (A) (A) (A) (A) (A) (A) (A)
                 (A) (A) (A) (A) (A) (A) (A) (A) (A) (A) (A) (A)
[...]
    23 N(14)  Bbb    -0.0001    -0.002    -0.001    -0.001 -0.3438  0.9302  0.1285
              Bcc     0.0001     0.005     0.002     0.002  0.9374  0.3482 -0.0127
 
              Baa    -0.0001    -0.011    -0.004    -0.004 -0.3327  0.9422  0.0404
    24 C(13)  Bbb    -0.0001    -0.011    -0.004    -0.004  0.0356 -0.0303  0.9989
              Bcc     0.0002     0.023     0.008     0.008  0.9424  0.3338 -0.0235
 
              Baa    -0.0001    -0.015    -0.005    -0.005  0.2642 -0.5383  0.8002
    25 C(13)  Bbb    -0.0001    -0.014    -0.005    -0.005 -0.3468  0.7212  0.5997
              Bcc     0.0002     0.029     0.010     0.010  0.9000  0.4360 -0.0038
 
              Baa    -0.0002    -0.026    -0.009    -0.009 -0.2639  0.5935  0.7603
    26 C(13)  Bbb    -0.0001    -0.017    -0.006    -0.006 -0.3785  0.6613 -0.6476
              Bcc     0.0003     0.044     0.016     0.015  0.8872  0.4587 -0.0502
 
              Baa    -0.0003    -0.035    -0.012    -0.012 -0.4716  0.7830  0.4056
    27 C(13)  Bbb    -0.0002    -0.031    -0.011    -0.010  0.1196 -0.3989  0.9092
              Bcc     0.0005     0.066     0.023     0.022  0.8737  0.4773  0.0945
 
              Baa    -0.0006    -0.074    -0.026    -0.025 -0.3717  0.8902 -0.2634
    28 C(13)  Bbb    -0.0002    -0.026    -0.009    -0.009 -0.1233  0.2339  0.9644
              Bcc     0.0007     0.100     0.036     0.033  0.9201  0.3910  0.0228
 
              Baa    -0.0011    -0.154    -0.055    -0.051 -0.4147  0.8055 -0.4232
    29 C(13)  Bbb    -0.0011    -0.144    -0.051    -0.048 -0.1546  0.3960  0.9051
              Bcc     0.0022     0.298     0.106     0.100  0.8967  0.4408 -0.0397
 
              Baa    -0.0058    -0.781    -0.279    -0.260 -0.1487  0.9101  0.3868
    30 C(13)  Bbb    -0.0057    -0.760    -0.271    -0.254  0.8205 -0.1048  0.5619
              Bcc     0.0115     1.541     0.550     0.514 -0.5520 -0.4010  0.7311
 
              Baa    -0.0057     0.410     0.146     0.137 -0.4910  0.8688  0.0649
    31 O(17)  Bbb     0.0011    -0.080    -0.028    -0.027  0.5739  0.2665  0.7743
              Bcc     0.0046    -0.330    -0.118    -0.110  0.6554  0.4174 -0.6295
 
              Baa    -0.0016    -0.221    -0.079    -0.074 -0.3888  0.8519 -0.3507
    32 C(13)  Bbb    -0.0007    -0.088    -0.031    -0.029 -0.2941  0.2460  0.9236
              Bcc     0.0023     0.308     0.110     0.103  0.8731  0.4622  0.1549
 
              Baa    -0.0864   -11.594    -4.137    -3.867 -0.3979  0.8897 -0.2237
    33 C(13)  Bbb    -0.0797   -10.700    -3.818    -3.569  0.8877  0.4350  0.1508
              Bcc     0.1661    22.294     7.955     7.437 -0.2315  0.1386  0.9629
 
              Baa    -0.0536    -7.198    -2.569    -2.401 -0.2367  0.1360  0.9620
    34 C(13)  Bbb     0.0229     3.067     1.094     1.023 -0.5862  0.7697 -0.2531
              Bcc     0.0308     4.131     1.474     1.378  0.7748  0.6238  0.1024
 
              Baa    -0.0722    -9.682    -3.455    -3.230 -0.2406  0.9508 -0.1954
    35 C(13)  Bbb    -0.0627    -8.408    -3.000    -2.805  0.9422  0.2771  0.1884
              Bcc     0.1348    18.091     6.455     6.034 -0.2332  0.1387  0.9625
 
              Baa    -0.0639    -8.577    -3.060    -2.861 -0.2251  0.1452  0.9635
    36 C(13)  Bbb     0.0149     1.995     0.712     0.666 -0.3880  0.8937 -0.2253
              Bcc     0.0490     6.581     2.348     2.195  0.8937  0.4246  0.1448
 
              Baa    -0.5585   -21.541    -7.686    -7.185 -0.3873  0.8933 -0.2282
    37 N(14)  Bbb    -0.5463   -21.070    -7.518    -7.028  0.8929  0.4251  0.1486
              Bcc     1.1048    42.611    15.205    14.213 -0.2297  0.1462  0.9622
 
              Baa    -0.5506    39.842    14.217    13.290  0.7855 -0.5557  0.2723
    38 O(17)  Bbb    -0.4906    35.497    12.666    11.841  0.5745  0.8184  0.0129
              Bcc     1.0412   -75.339   -26.883   -25.130 -0.2300  0.1463  0.9621
 
              Baa    -0.5471    39.589    14.126    13.206  0.1060  0.9865 -0.1252
    39 O(17)  Bbb    -0.4871    35.247    12.577    11.757  0.9675 -0.0732  0.2420
              Bcc     1.0342   -74.836   -26.703   -24.963 -0.2295  0.1468  0.9622
 
              Baa    -0.0676    -9.074    -3.238    -3.027 -0.5454  0.8023 -0.2424
    40 C(13)  Bbb    -0.0581    -7.802    -2.784    -2.602  0.8054  0.5818  0.1135
              Bcc     0.1258    16.876     6.022     5.629 -0.2321  0.1333  0.9635
 
              Baa    -0.0542    -7.277    -2.597    -2.427 -0.2389  0.1335  0.9618
    41 C(13)  Bbb     0.0234     3.140     1.120     1.047 -0.1954  0.9636 -0.1823
              Bcc     0.0308     4.137     1.476     1.380  0.9512  0.2315  0.2042
 
              Baa    -0.0006    -0.074    -0.026    -0.025 -0.4758  0.7846 -0.3975
    42 C(13)  Bbb    -0.0004    -0.051    -0.018    -0.017  0.2683  0.5599  0.7839
              Bcc     0.0009     0.125     0.045     0.042  0.8376  0.2664 -0.4769
 
              Baa    -0.0003    -0.036    -0.013    -0.012 -0.3790  0.9145  0.1419
    43 C(13)  Bbb    -0.0002    -0.032    -0.011    -0.011  0.1881 -0.0740  0.9794
              Bcc     0.0005     0.067     0.024     0.022  0.9061  0.3979 -0.1440
 
              Baa    -0.0001    -0.011    -0.004    -0.004  0.4047 -0.6281  0.6646
    44 C(13)  Bbb    -0.0001    -0.011    -0.004    -0.004 -0.3521  0.5638  0.7471
              Bcc     0.0002     0.023     0.008     0.008  0.8440  0.5364 -0.0070
 
              Baa    -0.0001    -0.012    -0.004    -0.004  0.0134 -0.0059  0.9999
    45 C(13)  Bbb    -0.0001    -0.012    -0.004    -0.004 -0.6376  0.7702  0.0131
              Bcc     0.0002     0.024     0.009     0.008  0.7702  0.6377 -0.0066
 
              Baa    -0.0001    -0.017    -0.006    -0.006 -0.0736  0.1022  0.9920
    46 C(13)  Bbb    -0.0001    -0.016    -0.006    -0.005  0.7030 -0.7003  0.1243
              Bcc     0.0002     0.033     0.012     0.011  0.7074  0.7065 -0.0203
 
              Baa    -0.0001    -0.009    -0.003    -0.003 -0.4355  0.4854  0.7581
    47 C(13)  Bbb    -0.0001    -0.009    -0.003    -0.003  0.5010 -0.5690  0.6521
              Bcc     0.0001     0.017     0.006     0.006  0.7479  0.6638  0.0046
 
              Baa    -0.0001    -0.007    -0.003    -0.002 -0.2443  0.3141  0.9174
    48 C(13)  Bbb    -0.0001    -0.007    -0.002    -0.002 -0.5473  0.7364 -0.3978
              Bcc     0.0001     0.014     0.005     0.005  0.8005  0.5993  0.0080
 
              Baa    -0.0000    -0.005    -0.002    -0.002 -0.2196  0.2627  0.9395
    49 C(13)  Bbb    -0.0000    -0.005    -0.002    -0.002 -0.5620  0.7531 -0.3420
              Bcc     0.0001     0.010     0.004     0.003  0.7974  0.6032  0.0177
 
              Baa    -0.0001    -0.002    -0.001    -0.001 -0.1157  0.1883  0.9753
    50 N(14)  Bbb    -0.0001    -0.002    -0.001    -0.001 -0.5109  0.8307 -0.2210
              Bcc     0.0001     0.005     0.002     0.002  0.8518  0.5239 -0.0001
 
              Baa    -0.0000    -0.008    -0.003    -0.003 -0.2158  0.4266  0.8783
    51 B(11)  Bbb    -0.0000    -0.008    -0.003    -0.003 -0.3798  0.7920 -0.4780
              Bcc     0.0001     0.017     0.006     0.006  0.8995  0.4368  0.0089
 
              Baa    -0.0000    -0.022    -0.008    -0.007 -0.2036  0.2121  0.9558
    52 F(19)  Bbb    -0.0000    -0.022    -0.008    -0.007 -0.3893  0.8782 -0.2778
              Bcc     0.0001     0.043     0.015     0.014  0.8983  0.4286  0.0963
 
              Baa    -0.0000    -0.020    -0.007    -0.007 -0.0054  0.1320  0.9912
    53 F(19)  Bbb    -0.0000    -0.020    -0.007    -0.007 -0.4450  0.8874 -0.1206
              Bcc     0.0001     0.040     0.014     0.013  0.8955  0.4418 -0.0540
 
              Baa    -0.0001    -0.058    -0.021    -0.019  0.0581 -0.1889  0.9803
    54 H(1)   Bbb    -0.0001    -0.055    -0.020    -0.018 -0.0213  0.9815  0.1904
              Bcc     0.0002     0.113     0.040     0.038  0.9981  0.0320 -0.0530
 
              Baa    -0.0001    -0.077    -0.028    -0.026  0.1922 -0.3316  0.9237
    55 H(1)   Bbb    -0.0001    -0.073    -0.026    -0.025 -0.0725  0.9338  0.3503
              Bcc     0.0003     0.151     0.054     0.050  0.9787  0.1343 -0.1554
 
              Baa    -0.0002    -0.082    -0.029    -0.027 -0.0399  0.0225  0.9989
    56 H(1)   Bbb    -0.0001    -0.079    -0.028    -0.026 -0.1194  0.9925 -0.0271
              Bcc     0.0003     0.161     0.057     0.054  0.9920  0.1203  0.0369
 
              Baa    -0.0001    -0.031    -0.011    -0.010  0.0538 -0.1717  0.9837
    57 H(1)   Bbb    -0.0001    -0.031    -0.011    -0.010 -0.0957  0.9797  0.1763
              Bcc     0.0001     0.062     0.022     0.021  0.9940  0.1037 -0.0363
 
              Baa    -0.0000    -0.018    -0.007    -0.006  0.0421 -0.0740  0.9964
    58 H(1)   Bbb    -0.0000    -0.018    -0.007    -0.006 -0.3120  0.9464  0.0835
              Bcc     0.0001     0.037     0.013     0.012  0.9491  0.3144 -0.0168
 
              Baa    -0.0000    -0.020    -0.007    -0.007  0.0264 -0.1248  0.9918
    59 H(1)   Bbb    -0.0000    -0.019    -0.007    -0.006 -0.1232  0.9842  0.1271
              Bcc     0.0001     0.039     0.014     0.013  0.9920  0.1256 -0.0107
 
              Baa    -0.0000    -0.007    -0.003    -0.002  0.0047 -0.0379  0.9993
    60 H(1)   Bbb    -0.0000    -0.007    -0.003    -0.002  0.0502  0.9980  0.0376
              Bcc     0.0000     0.015     0.005     0.005  0.9987 -0.0500 -0.0065
 
              Baa    -0.0000    -0.008    -0.003    -0.003 -0.0193 -0.1045  0.9943
    61 H(1)   Bbb    -0.0000    -0.008    -0.003    -0.003  0.1581  0.9817  0.1063
              Bcc     0.0000     0.017     0.006     0.006  0.9872 -0.1593  0.0025
 
              Baa    -0.0000    -0.016    -0.006    -0.005 -0.0177 -0.1462  0.9891
    62 H(1)   Bbb    -0.0000    -0.016    -0.006    -0.005  0.0820  0.9857  0.1472
              Bcc     0.0001     0.032     0.011     0.011  0.9965 -0.0837  0.0055
 
              Baa    -0.0000    -0.008    -0.003    -0.003  0.0279 -0.1995  0.9795
    63 H(1)   Bbb    -0.0000    -0.008    -0.003    -0.003 -0.0616  0.9777  0.2009
              Bcc     0.0000     0.015     0.005     0.005  0.9977  0.0659 -0.0150
 
              Baa    -0.0000    -0.009    -0.003    -0.003  0.0893 -0.0648  0.9939
    64 H(1)   Bbb    -0.0000    -0.009    -0.003    -0.003 -0.1889  0.9787  0.0807
              Bcc     0.0000     0.017     0.006     0.006  0.9779  0.1950 -0.0751
 
              Baa    -0.0000    -0.008    -0.003    -0.003  0.0229 -0.0930  0.9954
    65 H(1)   Bbb    -0.0000    -0.008    -0.003    -0.003 -0.1766  0.9796  0.0956
              Bcc     0.0000     0.015     0.005     0.005  0.9840  0.1780 -0.0060
 
              Baa    -0.0000    -0.009    -0.003    -0.003 -0.0011 -0.0079  1.0000
    66 H(1)   Bbb    -0.0000    -0.009    -0.003    -0.003 -0.2835  0.9589  0.0072
              Bcc     0.0000     0.017     0.006     0.006  0.9590  0.2835  0.0033
 
              Baa    -0.0000    -0.010    -0.003    -0.003 -0.0509 -0.0731  0.9960
    67 H(1)   Bbb    -0.0000    -0.009    -0.003    -0.003 -0.2363  0.9699  0.0591
              Bcc     0.0000     0.019     0.007     0.006  0.9703  0.2324  0.0667
 
              Baa    -0.0000    -0.012    -0.004    -0.004  0.1214 -0.1816  0.9758
    68 H(1)   Bbb    -0.0000    -0.012    -0.004    -0.004 -0.2564  0.9440  0.2076
              Bcc     0.0000     0.024     0.008     0.008  0.9589  0.2754 -0.0681
 
              Baa    -0.0000    -0.013    -0.005    -0.004 -0.0458  0.0741  0.9962
    69 H(1)   Bbb    -0.0000    -0.013    -0.005    -0.004 -0.2935  0.9522 -0.0843
              Bcc     0.0000     0.026     0.009     0.009  0.9549  0.2963  0.0218
 
              Baa    -0.0002    -0.096    -0.034    -0.032 -0.3987  0.9086 -0.1249
    70 H(1)   Bbb    -0.0002    -0.092    -0.033    -0.031 -0.2511  0.0229  0.9677
              Bcc     0.0004     0.188     0.067     0.063  0.8820  0.4171  0.2190
 
              Baa    -0.0005    -0.293    -0.104    -0.098 -0.4058  0.9138  0.0161
    71 H(1)   Bbb    -0.0004    -0.223    -0.080    -0.074 -0.2364 -0.1219  0.9640
              Bcc     0.0010     0.516     0.184     0.172  0.8829  0.3874  0.2655
 
              Baa    -0.0017    -0.928    -0.331    -0.309  0.3222 -0.6141  0.7205
    72 H(1)   Bbb    -0.0016    -0.872    -0.311    -0.291  0.6762 -0.3833 -0.6291
              Bcc     0.0034     1.800     0.642     0.600  0.6625  0.6899  0.2917
 
              Baa    -0.0019    -0.992    -0.354    -0.331  0.0758  0.8685 -0.4899
    73 H(1)   Bbb    -0.0014    -0.773    -0.276    -0.258 -0.3141  0.4871  0.8149
              Bcc     0.0033     1.764     0.630     0.589  0.9463  0.0921  0.3097
 
              Baa    -0.0028    -1.508    -0.538    -0.503 -0.2304  0.1259  0.9649
    74 H(1)   Bbb    -0.0012    -0.623    -0.222    -0.208 -0.6009  0.7615 -0.2428
              Bcc     0.0040     2.131     0.760     0.711  0.7654  0.6358  0.0998
 
              Baa    -0.0046    -2.464    -0.879    -0.822 -0.2181  0.1385  0.9661
    75 H(1)   Bbb    -0.0020    -1.085    -0.387    -0.362  0.9705  0.1351  0.1997
              Bcc     0.0067     3.549     1.266     1.184 -0.1029  0.9811 -0.1638
 
              Baa    -0.0047    -2.489    -0.888    -0.830 -0.2205  0.1507  0.9637
    76 H(1)   Bbb    -0.0014    -0.753    -0.269    -0.251  0.7525  0.6549  0.0698
              Bcc     0.0061     3.243     1.157     1.082 -0.6206  0.7405 -0.2578
 
              Baa    -0.0028    -1.478    -0.527    -0.493 -0.2428  0.1628  0.9563
    77 H(1)   Bbb    -0.0012    -0.640    -0.229    -0.214 -0.1495  0.9678 -0.2027
              Bcc     0.0040     2.118     0.756     0.706  0.9585  0.1922  0.2106
 
              Baa    -0.0004    -0.204    -0.073    -0.068 -0.4628  0.8859 -0.0318
    78 H(1)   Bbb    -0.0003    -0.143    -0.051    -0.048  0.4008  0.2412  0.8839
              Bcc     0.0006     0.347     0.124     0.116  0.7907  0.3963 -0.4667
 
              Baa    -0.0002    -0.084    -0.030    -0.028 -0.3873  0.9059  0.1713
    79 H(1)   Bbb    -0.0001    -0.076    -0.027    -0.025  0.3363 -0.0342  0.9412
              Bcc     0.0003     0.160     0.057     0.053  0.8584  0.4221 -0.2914
 
              Baa    -0.0002    -0.084    -0.030    -0.028  0.0650 -0.1613  0.9848
    80 H(1)   Bbb    -0.0002    -0.082    -0.029    -0.027  0.7012 -0.6948 -0.1601
              Bcc     0.0003     0.166     0.059     0.055  0.7100  0.7009  0.0679
 
              Baa    -0.0001    -0.079    -0.028    -0.026 -0.1564  0.3272  0.9319
    81 H(1)   Bbb    -0.0001    -0.075    -0.027    -0.025  0.6894 -0.6394  0.3403
              Bcc     0.0003     0.154     0.055     0.051  0.7073  0.6957 -0.1256
 
              Baa    -0.0001    -0.059    -0.021    -0.020 -0.1557  0.1492  0.9765
    82 H(1)   Bbb    -0.0001    -0.057    -0.020    -0.019  0.7521 -0.6230  0.2151
              Bcc     0.0002     0.116     0.041     0.039  0.6404  0.7679 -0.0152
 
              Baa    -0.0001    -0.032    -0.011    -0.011 -0.1642  0.1469  0.9754
    83 H(1)   Bbb    -0.0001    -0.031    -0.011    -0.010  0.7003 -0.6791  0.2201
              Bcc     0.0001     0.063     0.022     0.021  0.6947  0.7192  0.0086
 
              Baa    -0.0000    -0.019    -0.007    -0.006 -0.1683  0.1159  0.9789
    84 H(1)   Bbb    -0.0000    -0.019    -0.007    -0.006 -0.5510  0.8124 -0.1909
              Bcc     0.0001     0.038     0.014     0.013  0.8174  0.5715  0.0728
 
              Baa    -0.0000    -0.019    -0.007    -0.006 -0.1946  0.1859  0.9631
    85 H(1)   Bbb    -0.0000    -0.019    -0.007    -0.006 -0.6256  0.7327 -0.2678
              Bcc     0.0001     0.038     0.014     0.013  0.7555  0.6546  0.0263
 
              Baa    -0.0000    -0.019    -0.007    -0.006 -0.2288  0.3791  0.8966
    86 H(1)   Bbb    -0.0000    -0.018    -0.007    -0.006 -0.5366  0.7194 -0.4411
              Bcc     0.0001     0.037     0.013     0.012  0.8123  0.5820 -0.0388
 

 ---------------------------------------------------------------------------------

 No NMR shielding tensors so no spin-rotation constants.
 Leave Link  601 at Sat Oct 25 08:53:01 2025, MaxMem= 30870077440 cpu:             206.7 elap:               3.6
 (Enter /public/software/gauss/g16/l9999.exe)
 1\1\GINC-CU056\SP\UM062X\def2TZVPP\C42H33B1F2N4O4(1-,2)\BAIDING\25-Oct
 -2025\0\\#p M062X/DEF2TZVPP scrf=(solvent=water) em=GD3\\Energy calcul
 ation for BONO_CN_reduced\\-1,2\C,0,-0.60196,1.145237,-0.352971\C,0,0.
 422228,0.057017,-0.241173\C,0,1.787405,0.266886,-0.250829\C,0,2.445072
 ,-0.989142,-0.136105\C,0,3.850605,-1.272351,-0.124715\C,0,4.812088,-0.
 300375,-0.091999\C,0,6.226404,-0.532882,-0.109239\C,0,7.110557,0.52593
 3,-0.107811\O,0,6.573504,1.800417,-0.005575\C,0,7.36589,2.91819,0.0179
 12\C,0,8.768472,2.813789,-0.058537\C,0,9.528289,3.996529,-0.023674\C,0
 ,8.915092,5.236132,0.083355\C,0,7.510548,5.308743,0.155912\C,0,6.87274
 9,6.582759,0.26524\N,0,6.35622,7.625016,0.353835\C,0,6.72484,4.144517,
 0.122531\C,0,9.33797,1.496084,-0.178592\C,0,8.545869,0.391066,-0.21506
 1\C,0,9.095947,-1.000852,-0.399419\C,0,8.230696,-2.035639,0.32334\C,0,
 6.775866,-1.947384,-0.147816\N,0,1.49357,-1.964255,-0.054344\C,0,0.230
 55,-1.366033,-0.115425\C,0,-0.933331,-2.145371,-0.069638\C,0,-2.272755
 ,-1.488324,-0.15615\C,0,-2.956729,-1.12025,1.009734\C,0,-4.210649,-0.5
 17418,0.932256\C,0,-4.806811,-0.27282,-0.314962\C,0,-6.154106,0.363857
 ,-0.453869\O,0,-6.631637,0.564358,-1.569254\C,0,-6.91253,0.743218,0.81
 4934\C,0,-8.249986,1.395937,0.576702\C,0,-8.418621,2.781908,0.729162\C
 ,0,-9.646466,3.39667,0.515394\C,0,-10.763099,2.621298,0.13211\N,0,-12.
 004892,3.222061,-0.078192\O,0,-13.027671,2.493651,-0.429768\O,0,-12.14
 2135,4.508492,0.087736\C,0,-10.607793,1.225353,-0.029319\C,0,-9.370359
 ,0.637117,0.191787\C,0,-4.115848,-0.642541,-1.480644\C,0,-2.864237,-1.
 242727,-1.404588\C,0,-0.861323,-3.547785,0.048132\C,0,-1.871709,-4.560
 587,0.069507\C,0,-3.3621,-4.426476,-0.021082\C,0,-1.19599,-5.775431,0.
 189964\C,0,0.183678,-5.518974,0.243661\C,0,1.296166,-6.503894,0.37773\
 N,0,0.384631,-4.181424,0.153079\B,0,1.749994,-3.463911,0.241857\F,0,2.
 302122,-3.620524,1.524603\F,0,2.641322,-4.002867,-0.701676\H,0,-0.1010
 51,2.115605,-0.400291\H,0,-1.218173,1.037436,-1.250728\H,0,-1.283718,1
 .154991,0.502716\H,0,2.279041,1.22464,-0.350784\H,0,4.134072,-2.317044
 ,-0.160875\H,0,4.492917,0.736898,-0.062335\H,0,10.609636,3.926051,-0.0
 83233\H,0,9.504364,6.145381,0.110616\H,0,5.643703,4.192879,0.178321\H,
 0,10.4169,1.39973,-0.254078\H,0,9.107545,-1.23121,-1.474249\H,0,10.134
 55,-1.031081,-0.05726\H,0,8.620264,-3.042342,0.144435\H,0,8.276747,-1.
 856869,1.404411\H,0,6.691844,-2.345638,-1.169089\H,0,6.15174,-2.591228
 ,0.480327\H,0,-2.505853,-1.30679,1.979083\H,0,-4.716807,-0.243716,1.85
 0842\H,0,-7.024748,-0.17533,1.406468\H,0,-6.264136,1.399174,1.407708\H
 ,0,-7.568566,3.391166,1.027002\H,0,-9.763343,4.465257,0.64305\H,0,-11.
 464473,0.630453,-0.319394\H,0,-9.26826,-0.438507,0.069342\H,0,-4.57349
 4,-0.45485,-2.445683\H,0,-2.340672,-1.525231,-2.312376\H,0,-3.774245,-
 3.838812,0.805222\H,0,-3.676758,-3.936062,-0.947536\H,0,-3.821196,-5.4
 18205,0.008804\H,0,-1.648446,-6.757254,0.235173\H,0,1.930984,-6.264312
 ,1.237221\H,0,0.892548,-7.509555,0.509441\H,0,1.939452,-6.496597,-0.50
 8138\\Version=ES64L-G16RevA.03\State=2-A\HF=-2365.0019186\S2=0.765942\
 S2-1=0.\S2A=0.750174\RMSD=4.539e-09\Dipole=25.4793861,-7.7114325,0.902
 9351\Quadrupole=-296.7828449,112.5506625,184.2321824,155.769829,-30.07
 51043,2.394096\PG=C01 [X(C42H33B1F2N4O4)]\\@


 The best way to pay for a lovely moment is to enjoy it.
 -- Richard Bach
 Job cpu time:       2 days  2 hours 48 minutes 22.0 seconds.
 Elapsed time:       0 days  0 hours 48 minutes 10.9 seconds.
 File lengths (MBytes):  RWF=   4735 Int=      0 D2E=      0 Chk=    308 Scr=      1
 Normal termination of Gaussian 16 at Sat Oct 25 08:53:02 2025.
