 Entering Gaussian System, Link 0=g16
 Input=BONO_NO2_reduced_sp.gjf
 Output=BONO_NO2_reduced_sp.log
 Initial command:
 /public/software/gauss/g16/l1.exe "/public/home/baiding/1024_sp/tmp_BONO_NO2_reduced_sp_1526250/Gau-2969307.inp" -scrdir="/public/home/baiding/1024_sp/tmp_BONO_NO2_reduced_sp_1526250/"
 Entering Link 1 = /public/software/gauss/g16/l1.exe PID=   2969308.
  
 Copyright (c) 1988,1990,1992,1993,1995,1998,2003,2009,2016,
            Gaussian, Inc.  All Rights Reserved.
  
 This is part of the Gaussian(R) 16 program.  It is based on
 the Gaussian(R) 09 system (copyright 2009, Gaussian, Inc.),
 the Gaussian(R) 03 system (copyright 2003, Gaussian, Inc.),
 the Gaussian(R) 98 system (copyright 1998, Gaussian, Inc.),
 the Gaussian(R) 94 system (copyright 1995, Gaussian, Inc.),
 the Gaussian 92(TM) system (copyright 1992, Gaussian, Inc.),
 the Gaussian 90(TM) system (copyright 1990, Gaussian, Inc.),
 the Gaussian 88(TM) system (copyright 1988, Gaussian, Inc.),
 the Gaussian 86(TM) system (copyright 1986, Carnegie Mellon
 University), and the Gaussian 82(TM) system (copyright 1983,
 Carnegie Mellon University). Gaussian is a federally registered
 trademark of Gaussian, Inc.
  
 This software contains proprietary and confidential information,
 including trade secrets, belonging to Gaussian, Inc.
  
 This software is provided under written license and may be
 used, copied, transmitted, or stored only in accord with that
 written license.
  
 The following legend is applicable only to US Government
 contracts under FAR:
  
                    RESTRICTED RIGHTS LEGEND
  
 Use, reproduction and disclosure by the US Government is
 subject to restrictions as set forth in subparagraphs (a)
 and (c) of the Commercial Computer Software - Restricted
 Rights clause in FAR 52.227-19.
  
 Gaussian, Inc.
 340 Quinnipiac St., Bldg. 40, Wallingford CT 06492
  
  
 ---------------------------------------------------------------
 Warning -- This program may not be used in any manner that
 competes with the business of Gaussian, Inc. or will provide
 assistance to any competitor of Gaussian, Inc.  The licensee
 of this program is prohibited from giving any competitor of
 Gaussian, Inc. access to this program.  By using this program,
 the user acknowledges that Gaussian, Inc. is engaged in the
 business of creating and licensing software in the field of
 computational chemistry and represents and warrants to the
 licensee that it is not a competitor of Gaussian, Inc. and that
 it will not use this program in any manner prohibited above.
 ---------------------------------------------------------------
  

 Cite this work as:
 Gaussian 16, Revision A.03,
 M. J. Frisch, G. W. Trucks, H. B. Schlegel, G. E. Scuseria, 
 M. A. Robb, J. R. Cheeseman, G. Scalmani, V. Barone, 
 G. A. Petersson, H. Nakatsuji, X. Li, M. Caricato, A. V. Marenich, 
 J. Bloino, B. G. Janesko, R. Gomperts, B. Mennucci, H. P. Hratchian, 
 J. V. Ortiz, A. F. Izmaylov, J. L. Sonnenberg, D. Williams-Young, 
 F. Ding, F. Lipparini, F. Egidi, J. Goings, B. Peng, A. Petrone, 
 T. Henderson, D. Ranasinghe, V. G. Zakrzewski, J. Gao, N. Rega, 
 G. Zheng, W. Liang, M. Hada, M. Ehara, K. Toyota, R. Fukuda, 
 J. Hasegawa, M. Ishida, T. Nakajima, Y. Honda, O. Kitao, H. Nakai, 
 T. Vreven, K. Throssell, J. A. Montgomery, Jr., J. E. Peralta, 
 F. Ogliaro, M. J. Bearpark, J. J. Heyd, E. N. Brothers, K. N. Kudin, 
 V. N. Staroverov, T. A. Keith, R. Kobayashi, J. Normand, 
 K. Raghavachari, A. P. Rendell, J. C. Burant, S. S. Iyengar, 
 J. Tomasi, M. Cossi, J. M. Millam, M. Klene, C. Adamo, R. Cammi, 
 J. W. Ochterski, R. L. Martin, K. Morokuma, O. Farkas, 
 J. B. Foresman, and D. J. Fox, Gaussian, Inc., Wallingford CT, 2016.
 
 ******************************************
 Gaussian 16:  ES64L-G16RevA.03 25-Dec-2016
                25-Oct-2025 
 ******************************************
 %nprocshared=64
 Will use up to   64 processors via shared memory.
 %mem=230GB
 %chk=BONO_NO2_reduced_sp.chk
 ----------------------------------------------
 #p M062X/DEF2TZVPP scrf=(solvent=water) em=GD3
 ----------------------------------------------
 1/38=1,172=1/1;
 2/12=2,17=6,18=5,40=1/2;
 3/5=44,7=202,11=2,25=1,30=1,70=2201,72=1,74=-55,124=31/1,2,3;
 4//1;
 5/5=2,38=5,53=1/2;
 6/7=2,8=2,9=2,10=2,28=1/1;
 99/5=1,9=1/99;
 Leave Link    1 at Sat Oct 25 11:32:56 2025, MaxMem= 30870077440 cpu:              20.5 elap:               0.3
 (Enter /public/software/gauss/g16/l101.exe)
 ---------------------------------------
 Energy calculation for BONO_NO2_reduced
 ---------------------------------------
 Symbolic Z-matrix:
 Charge = -1 Multiplicity = 2
 C                     12.86184   3.10579   0.97363 
 N                     11.96515   3.59132   0.16364 
 O                     12.09254   4.73135  -0.44125 
 C                     10.72668   2.86607  -0.10068 
 C                     10.70547   1.47219  -0.15834 
 C                     9.49898   0.8246   -0.41518 
 C                     8.31724   1.54936  -0.61985 
 C                     7.01445   0.83696  -0.88079 
 C                     6.31689   0.35525   0.38904 
 O                     6.82673   0.52406   1.49523 
 C                     4.99634  -0.33079   0.25879 
 C                     4.39831  -0.59456  -0.98388 
 C                     3.16645  -1.2425   -1.05022 
 C                     2.50361  -1.63534   0.12046 
 C                     1.18511  -2.33538   0.04778 
 C                    -0.00078  -1.6009    0.07579 
 C                    -0.24374  -0.17793   0.17313 
 C                     0.74594   0.94381   0.26454 
 C                    -1.61008  -0.01304   0.17848 
 C                    -2.23446  -1.29551   0.09094 
 C                    -3.62021  -1.61216   0.09074 
 C                    -4.61628  -0.65698   0.07193 
 C                    -6.01028  -0.91183   0.10229 
 C                    -6.92709   0.13965   0.10978 
 O                    -6.40411   1.41665  -0.00688 
 C                    -7.20528   2.5378    0.00618 
 C                    -8.61242   2.40295   0.12257 
 C                    -9.37945   3.59668   0.12454 
 C                    -8.78404   4.83396   0.01971 
 C                    -7.3739    4.93222  -0.09543 
 N                    -6.76799   6.18093  -0.20264 
 O                    -5.48899   6.2599   -0.31694 
 O                    -7.48712   7.24751  -0.1874 
 C                    -6.57844   3.761    -0.10206 
 C                    -9.15099   1.0947    0.2323 
 C                    -8.33881  -0.01773   0.23528 
 C                    -8.88196  -1.41719   0.39899 
 C                    -7.99875  -2.43918  -0.32097 
 C                    -6.54601  -2.3321    0.15523 
 N                    -1.2454   -2.24133   0.02768 
 B                    -1.44956  -3.75125  -0.23495 
 F                    -2.33458  -4.29969   0.71354 
 F                    -1.99245  -3.95912  -1.5183 
 N                    -0.06584  -4.42373  -0.12197 
 C                     0.17558  -5.76192  -0.18217 
 C                    -0.90938  -6.78206  -0.29056 
 C                     1.55806  -5.97098  -0.12744 
 C                     2.19701  -4.72698  -0.03736 
 C                     3.68468  -4.54625   0.04378 
 C                     1.15904  -3.75119  -0.03578 
 C                     3.10024  -1.37142   1.36329 
 C                     4.3308   -0.7288    1.43023 
 C                     8.37176   2.94842  -0.57087 
 C                     9.57056   3.61209  -0.32165 
 H                     12.67237   2.18125   1.49741 
 H                     13.77332   3.67224   1.10765 
 H                     11.61651   0.89787  -0.03322 
 H                     9.48113  -0.25968  -0.47285 
 H                     6.31942   1.48792  -1.42278 
 H                     7.17499  -0.03882  -1.52134 
 H                     4.88641  -0.30183  -1.90672 
 H                     2.7143   -1.44414  -2.016 
 H                     1.41777   0.96858  -0.59886 
 H                     0.21481   1.89825   0.30935 
 H                     1.37577   0.86373   1.15587 
 H                    -2.13093   0.93118   0.25802 
 H                    -3.88062  -2.66288   0.12553 
 H                    -4.31647   0.38632   0.04328 
 H                    -10.45905   3.51854   0.21307 
 H                    -9.37542   5.74002   0.02284 
 H                    -5.50267   3.82446  -0.19059 
 H                    -10.22719   0.97582   0.32472 
 H                    -8.92     -1.66614   1.4694 
 H                    -9.91294  -1.45326   0.03273 
 H                    -8.37433  -3.45253  -0.14734 
 H                    -8.04258  -2.25793  -1.40195 
 H                    -6.46684  -2.71939   1.18153 
 H                    -5.91374  -2.97998  -0.46098 
 H                    -0.47595  -7.77962  -0.38809 
 H                    -1.56056  -6.76836   0.58961 
 H                    -1.54567  -6.59196  -1.16169 
 H                     2.04454  -6.93757  -0.1512 
 H                     4.17455  -5.5233    0.00657 
 H                     4.07626  -3.94367  -0.78201 
 H                     3.99392  -4.05236   0.97067 
 H                     2.59455  -1.6721    2.2754 
 H                     4.79015  -0.52612   2.39146 
 H                     7.4671    3.52669  -0.7341 
 H                     9.61819   4.69367  -0.29385 
 
 ITRead=  0  0  0  0  0  0  0  0  0  0  0  0  0  0  0  0  0  0  0  0
 ITRead=  0  0  0  0  0  0  0  0  0  0  0  0  0  0  0  0  0  0  0  0
 ITRead=  0  0  0  0  0  0  0  0  0  0  0  0  0  0  0  0  0  0  0  0
 ITRead=  0  0  0  0  0  0  0  0  0  0  0  0  0  0  0  0  0  0  0  0
 ITRead=  0  0  0  0  0  0  0  0  0
 MicOpt= -1 -1 -1 -1 -1 -1 -1 -1 -1 -1 -1 -1 -1 -1 -1 -1 -1 -1 -1 -1
 MicOpt= -1 -1 -1 -1 -1 -1 -1 -1 -1 -1 -1 -1 -1 -1 -1 -1 -1 -1 -1 -1
 MicOpt= -1 -1 -1 -1 -1 -1 -1 -1 -1 -1 -1 -1 -1 -1 -1 -1 -1 -1 -1 -1
 MicOpt= -1 -1 -1 -1 -1 -1 -1 -1 -1 -1 -1 -1 -1 -1 -1 -1 -1 -1 -1 -1
 MicOpt= -1 -1 -1 -1 -1 -1 -1 -1 -1
 NAtoms=     89 NQM=       89 NQMF=       0 NMMI=      0 NMMIF=      0
                NMic=       0 NMicF=      0.
                    Isotopes and Nuclear Properties:
 (Nuclear quadrupole moments (NQMom) in fm**2, nuclear magnetic moments (NMagM)
  in nuclear magnetons)

  Atom         1           2           3           4           5           6           7           8           9          10
 IAtWgt=          12          14          16          12          12          12          12          12          12          16
 AtmWgt=  12.0000000  14.0030740  15.9949146  12.0000000  12.0000000  12.0000000  12.0000000  12.0000000  12.0000000  15.9949146
 NucSpn=           0           2           0           0           0           0           0           0           0           0
 AtZEff=  -0.0000000  -0.0000000  -0.0000000  -0.0000000  -0.0000000  -0.0000000  -0.0000000  -0.0000000  -0.0000000  -0.0000000
 NQMom=    0.0000000   2.0440000   0.0000000   0.0000000   0.0000000   0.0000000   0.0000000   0.0000000   0.0000000   0.0000000
 NMagM=    0.0000000   0.4037610   0.0000000   0.0000000   0.0000000   0.0000000   0.0000000   0.0000000   0.0000000   0.0000000
 AtZNuc=   6.0000000   7.0000000   8.0000000   6.0000000   6.0000000   6.0000000   6.0000000   6.0000000   6.0000000   8.0000000

  Atom        11          12          13          14          15          16          17          18          19          20
 IAtWgt=          12          12          12          12          12          12          12          12          12          12
 AtmWgt=  12.0000000  12.0000000  12.0000000  12.0000000  12.0000000  12.0000000  12.0000000  12.0000000  12.0000000  12.0000000
 NucSpn=           0           0           0           0           0           0           0           0           0           0
 AtZEff=  -0.0000000  -0.0000000  -0.0000000  -0.0000000  -0.0000000  -0.0000000  -0.0000000  -0.0000000  -0.0000000  -0.0000000
 NQMom=    0.0000000   0.0000000   0.0000000   0.0000000   0.0000000   0.0000000   0.0000000   0.0000000   0.0000000   0.0000000
 NMagM=    0.0000000   0.0000000   0.0000000   0.0000000   0.0000000   0.0000000   0.0000000   0.0000000   0.0000000   0.0000000
 AtZNuc=   6.0000000   6.0000000   6.0000000   6.0000000   6.0000000   6.0000000   6.0000000   6.0000000   6.0000000   6.0000000

  Atom        21          22          23          24          25          26          27          28          29          30
 IAtWgt=          12          12          12          12          16          12          12          12          12          12
 AtmWgt=  12.0000000  12.0000000  12.0000000  12.0000000  15.9949146  12.0000000  12.0000000  12.0000000  12.0000000  12.0000000
 NucSpn=           0           0           0           0           0           0           0           0           0           0
 AtZEff=  -0.0000000  -0.0000000  -0.0000000  -0.0000000  -0.0000000  -0.0000000  -0.0000000  -0.0000000  -0.0000000  -0.0000000
 NQMom=    0.0000000   0.0000000   0.0000000   0.0000000   0.0000000   0.0000000   0.0000000   0.0000000   0.0000000   0.0000000
 NMagM=    0.0000000   0.0000000   0.0000000   0.0000000   0.0000000   0.0000000   0.0000000   0.0000000   0.0000000   0.0000000
 AtZNuc=   6.0000000   6.0000000   6.0000000   6.0000000   8.0000000   6.0000000   6.0000000   6.0000000   6.0000000   6.0000000

  Atom        31          32          33          34          35          36          37          38          39          40
 IAtWgt=          14          16          16          12          12          12          12          12          12          14
 AtmWgt=  14.0030740  15.9949146  15.9949146  12.0000000  12.0000000  12.0000000  12.0000000  12.0000000  12.0000000  14.0030740
 NucSpn=           2           0           0           0           0           0           0           0           0           2
 AtZEff=  -0.0000000  -0.0000000  -0.0000000  -0.0000000  -0.0000000  -0.0000000  -0.0000000  -0.0000000  -0.0000000  -0.0000000
 NQMom=    2.0440000   0.0000000   0.0000000   0.0000000   0.0000000   0.0000000   0.0000000   0.0000000   0.0000000   2.0440000
 NMagM=    0.4037610   0.0000000   0.0000000   0.0000000   0.0000000   0.0000000   0.0000000   0.0000000   0.0000000   0.4037610
 AtZNuc=   7.0000000   8.0000000   8.0000000   6.0000000   6.0000000   6.0000000   6.0000000   6.0000000   6.0000000   7.0000000

  Atom        41          42          43          44          45          46          47          48          49          50
 IAtWgt=          11          19          19          14          12          12          12          12          12          12
 AtmWgt=  11.0093053  18.9984033  18.9984033  14.0030740  12.0000000  12.0000000  12.0000000  12.0000000  12.0000000  12.0000000
 NucSpn=           3           1           1           2           0           0           0           0           0           0
 AtZEff=  -0.0000000  -0.0000000  -0.0000000  -0.0000000  -0.0000000  -0.0000000  -0.0000000  -0.0000000  -0.0000000  -0.0000000
 NQMom=    4.0590000   0.0000000   0.0000000   2.0440000   0.0000000   0.0000000   0.0000000   0.0000000   0.0000000   0.0000000
 NMagM=    2.6886370   2.6288670   2.6288670   0.4037610   0.0000000   0.0000000   0.0000000   0.0000000   0.0000000   0.0000000
 AtZNuc=   5.0000000   9.0000000   9.0000000   7.0000000   6.0000000   6.0000000   6.0000000   6.0000000   6.0000000   6.0000000

  Atom        51          52          53          54          55          56          57          58          59          60
 IAtWgt=          12          12          12          12           1           1           1           1           1           1
 AtmWgt=  12.0000000  12.0000000  12.0000000  12.0000000   1.0078250   1.0078250   1.0078250   1.0078250   1.0078250   1.0078250
 NucSpn=           0           0           0           0           1           1           1           1           1           1
 AtZEff=  -0.0000000  -0.0000000  -0.0000000  -0.0000000  -0.0000000  -0.0000000  -0.0000000  -0.0000000  -0.0000000  -0.0000000
 NQMom=    0.0000000   0.0000000   0.0000000   0.0000000   0.0000000   0.0000000   0.0000000   0.0000000   0.0000000   0.0000000
 NMagM=    0.0000000   0.0000000   0.0000000   0.0000000   2.7928460   2.7928460   2.7928460   2.7928460   2.7928460   2.7928460
 AtZNuc=   6.0000000   6.0000000   6.0000000   6.0000000   1.0000000   1.0000000   1.0000000   1.0000000   1.0000000   1.0000000

  Atom        61          62          63          64          65          66          67          68          69          70
 IAtWgt=           1           1           1           1           1           1           1           1           1           1
 AtmWgt=   1.0078250   1.0078250   1.0078250   1.0078250   1.0078250   1.0078250   1.0078250   1.0078250   1.0078250   1.0078250
 NucSpn=           1           1           1           1           1           1           1           1           1           1
 AtZEff=  -0.0000000  -0.0000000  -0.0000000  -0.0000000  -0.0000000  -0.0000000  -0.0000000  -0.0000000  -0.0000000  -0.0000000
 NQMom=    0.0000000   0.0000000   0.0000000   0.0000000   0.0000000   0.0000000   0.0000000   0.0000000   0.0000000   0.0000000
 NMagM=    2.7928460   2.7928460   2.7928460   2.7928460   2.7928460   2.7928460   2.7928460   2.7928460   2.7928460   2.7928460
 AtZNuc=   1.0000000   1.0000000   1.0000000   1.0000000   1.0000000   1.0000000   1.0000000   1.0000000   1.0000000   1.0000000

  Atom        71          72          73          74          75          76          77          78          79          80
 IAtWgt=           1           1           1           1           1           1           1           1           1           1
 AtmWgt=   1.0078250   1.0078250   1.0078250   1.0078250   1.0078250   1.0078250   1.0078250   1.0078250   1.0078250   1.0078250
 NucSpn=           1           1           1           1           1           1           1           1           1           1
 AtZEff=  -0.0000000  -0.0000000  -0.0000000  -0.0000000  -0.0000000  -0.0000000  -0.0000000  -0.0000000  -0.0000000  -0.0000000
 NQMom=    0.0000000   0.0000000   0.0000000   0.0000000   0.0000000   0.0000000   0.0000000   0.0000000   0.0000000   0.0000000
 NMagM=    2.7928460   2.7928460   2.7928460   2.7928460   2.7928460   2.7928460   2.7928460   2.7928460   2.7928460   2.7928460
 AtZNuc=   1.0000000   1.0000000   1.0000000   1.0000000   1.0000000   1.0000000   1.0000000   1.0000000   1.0000000   1.0000000

  Atom        81          82          83          84          85          86          87          88          89
 IAtWgt=           1           1           1           1           1           1           1           1           1
 AtmWgt=   1.0078250   1.0078250   1.0078250   1.0078250   1.0078250   1.0078250   1.0078250   1.0078250   1.0078250
 NucSpn=           1           1           1           1           1           1           1           1           1
 AtZEff=  -0.0000000  -0.0000000  -0.0000000  -0.0000000  -0.0000000  -0.0000000  -0.0000000  -0.0000000  -0.0000000
 NQMom=    0.0000000   0.0000000   0.0000000   0.0000000   0.0000000   0.0000000   0.0000000   0.0000000   0.0000000
 NMagM=    2.7928460   2.7928460   2.7928460   2.7928460   2.7928460   2.7928460   2.7928460   2.7928460   2.7928460
 AtZNuc=   1.0000000   1.0000000   1.0000000   1.0000000   1.0000000   1.0000000   1.0000000   1.0000000   1.0000000
 Leave Link  101 at Sat Oct 25 11:32:56 2025, MaxMem= 30870077440 cpu:               6.0 elap:               0.1
 (Enter /public/software/gauss/g16/l202.exe)
 Stoichiometry    C42H35BF2N4O5(1-,2)
 Framework group  C1[X(C42H35BF2N4O5)]
 Deg. of freedom   261
 Full point group                 C1      NOp   1
 Largest Abelian subgroup         C1      NOp   1
 Largest concise Abelian subgroup C1      NOp   1
                         Standard orientation:                         
 ---------------------------------------------------------------------
 Center     Atomic      Atomic             Coordinates (Angstroms)
 Number     Number       Type             X           Y           Z
 ---------------------------------------------------------------------
      1          6           0       12.861840    3.105794    0.973633
      2          7           0       11.965147    3.591316    0.163635
      3          8           0       12.092539    4.731348   -0.441247
      4          6           0       10.726681    2.866066   -0.100680
      5          6           0       10.705465    1.472186   -0.158337
      6          6           0        9.498980    0.824599   -0.415181
      7          6           0        8.317243    1.549363   -0.619846
      8          6           0        7.014452    0.836963   -0.880792
      9          6           0        6.316888    0.355246    0.389040
     10          8           0        6.826733    0.524056    1.495227
     11          6           0        4.996344   -0.330791    0.258786
     12          6           0        4.398305   -0.594562   -0.983877
     13          6           0        3.166451   -1.242503   -1.050217
     14          6           0        2.503613   -1.635343    0.120458
     15          6           0        1.185105   -2.335380    0.047780
     16          6           0       -0.000777   -1.600902    0.075785
     17          6           0       -0.243739   -0.177925    0.173134
     18          6           0        0.745942    0.943811    0.264537
     19          6           0       -1.610075   -0.013042    0.178482
     20          6           0       -2.234458   -1.295505    0.090938
     21          6           0       -3.620205   -1.612156    0.090742
     22          6           0       -4.616280   -0.656983    0.071929
     23          6           0       -6.010276   -0.911830    0.102287
     24          6           0       -6.927094    0.139646    0.109778
     25          8           0       -6.404109    1.416654   -0.006883
     26          6           0       -7.205277    2.537798    0.006182
     27          6           0       -8.612424    2.402948    0.122565
     28          6           0       -9.379451    3.596677    0.124543
     29          6           0       -8.784044    4.833962    0.019706
     30          6           0       -7.373896    4.932223   -0.095433
     31          7           0       -6.767987    6.180928   -0.202643
     32          8           0       -5.488992    6.259904   -0.316938
     33          8           0       -7.487120    7.247510   -0.187400
     34          6           0       -6.578438    3.761003   -0.102063
     35          6           0       -9.150994    1.094699    0.232297
     36          6           0       -8.338812   -0.017725    0.235278
     37          6           0       -8.881961   -1.417191    0.398991
     38          6           0       -7.998754   -2.439183   -0.320969
     39          6           0       -6.546006   -2.332098    0.155227
     40          7           0       -1.245398   -2.241334    0.027681
     41          5           0       -1.449561   -3.751252   -0.234950
     42          9           0       -2.334583   -4.299691    0.713541
     43          9           0       -1.992452   -3.959117   -1.518299
     44          7           0       -0.065840   -4.423731   -0.121969
     45          6           0        0.175578   -5.761923   -0.182165
     46          6           0       -0.909384   -6.782059   -0.290555
     47          6           0        1.558058   -5.970976   -0.127435
     48          6           0        2.197012   -4.726981   -0.037362
     49          6           0        3.684676   -4.546249    0.043780
     50          6           0        1.159039   -3.751193   -0.035781
     51          6           0        3.100243   -1.371424    1.363286
     52          6           0        4.330803   -0.728803    1.430228
     53          6           0        8.371764    2.948424   -0.570873
     54          6           0        9.570561    3.612089   -0.321652
     55          1           0       12.672368    2.181254    1.497411
     56          1           0       13.773325    3.672235    1.107647
     57          1           0       11.616512    0.897867   -0.033215
     58          1           0        9.481125   -0.259684   -0.472845
     59          1           0        6.319424    1.487917   -1.422778
     60          1           0        7.174991   -0.038818   -1.521337
     61          1           0        4.886408   -0.301825   -1.906720
     62          1           0        2.714299   -1.444136   -2.015997
     63          1           0        1.417772    0.968577   -0.598858
     64          1           0        0.214810    1.898250    0.309345
     65          1           0        1.375766    0.863727    1.155874
     66          1           0       -2.130934    0.931184    0.258018
     67          1           0       -3.880615   -2.662881    0.125528
     68          1           0       -4.316474    0.386315    0.043281
     69          1           0      -10.459052    3.518544    0.213065
     70          1           0       -9.375420    5.740018    0.022835
     71          1           0       -5.502665    3.824464   -0.190592
     72          1           0      -10.227190    0.975822    0.324724
     73          1           0       -8.920000   -1.666144    1.469398
     74          1           0       -9.912935   -1.453257    0.032730
     75          1           0       -8.374332   -3.452533   -0.147335
     76          1           0       -8.042576   -2.257934   -1.401954
     77          1           0       -6.466841   -2.719391    1.181531
     78          1           0       -5.913736   -2.979981   -0.460984
     79          1           0       -0.475954   -7.779621   -0.388094
     80          1           0       -1.560562   -6.768364    0.589607
     81          1           0       -1.545673   -6.591960   -1.161692
     82          1           0        2.044537   -6.937566   -0.151201
     83          1           0        4.174551   -5.523302    0.006568
     84          1           0        4.076260   -3.943671   -0.782009
     85          1           0        3.993920   -4.052357    0.970674
     86          1           0        2.594548   -1.672101    2.275404
     87          1           0        4.790153   -0.526120    2.391457
     88          1           0        7.467098    3.526694   -0.734097
     89          1           0        9.618185    4.693668   -0.293851
 ---------------------------------------------------------------------
 Rotational constants (GHZ):           0.0594336           0.0161814           0.0128819
 Leave Link  202 at Sat Oct 25 11:32:56 2025, MaxMem= 30870077440 cpu:               0.2 elap:               0.0
 (Enter /public/software/gauss/g16/l301.exe)
 Standard basis: def2TZVPP (5D, 7F)
 Ernie: Thresh=  0.10000D-02 Tol=  0.10000D-05 Strict=F.
 There are  2469 symmetry adapted cartesian basis functions of A   symmetry.
 There are  2164 symmetry adapted basis functions of A   symmetry.
  2164 basis functions,  3349 primitive gaussians,  2469 cartesian basis functions
   190 alpha electrons      189 beta electrons
       nuclear repulsion energy      6295.0322320806 Hartrees.
 IExCor= 4336 DFT=T Ex+Corr=M062X ExCW=0 ScaHFX=  0.540000
 ScaDFX=  1.000000  1.000000  1.000000  1.000000 ScalE2=  1.000000  1.000000
 IRadAn=      5 IRanWt=     -1 IRanGd=            0 ICorTp=0 IEmpDi=131
 NAtoms=   89 NActive=   89 NUniq=   89 SFac= 1.00D+00 NAtFMM=   60 NAOKFM=T Big=T
 Integral buffers will be    131072 words long.
 Raffenetti 2 integral format.
 Two-electron integral symmetry is turned on.
 R6Disp:  Grimme-D3 Dispersion energy=       -0.0072073943 Hartrees.
 Nuclear repulsion after empirical dispersion term =     6295.0250246863 Hartrees.
 ------------------------------------------------------------------------------
 Polarizable Continuum Model (PCM)
 =================================
 Model                : PCM.
 Atomic radii         : UFF (Universal Force Field).
 Polarization charges : Total charges.
 Charge compensation  : None.
 Solution method      : On-the-fly selection.
 Cavity type          : Scaled VdW (van der Waals Surface) (Alpha=1.100).
 Cavity algorithm     : GePol (No added spheres)
                        Default sphere list used, NSphG=   89.
                        Lebedev-Laikov grids with approx.  5.0 points / Ang**2.
                        Smoothing algorithm: York/Karplus (Gamma=1.0000).
                        Polarization charges: spherical gaussians, with
                                              point-specific exponents (IZeta= 3).
                        Self-potential: point-specific (ISelfS= 7).
                        Self-field    : sphere-specific E.n sum rule (ISelfD= 2).
 Solvent              : Water, Eps=  78.355300 Eps(inf)=   1.777849
 ------------------------------------------------------------------------------
 GePol: Number of generator spheres                  =      89
 GePol: Total number of spheres                      =      89
 GePol: Number of exposed spheres                    =      89 (100.00%)
 GePol: Number of points                             =    6442
 GePol: Average weight of points                     =       0.13
 GePol: Minimum weight of points                     =   0.25D-11
 GePol: Maximum weight of points                     =    0.20577
 GePol: Number of points with low weight             =     436
 GePol: Fraction of low-weight points (<1% of avg)   =       6.77%
 GePol: Cavity surface area                          =    810.593 Ang**2
 GePol: Cavity volume                                =    940.977 Ang**3
 Leave Link  301 at Sat Oct 25 11:32:56 2025, MaxMem= 30870077440 cpu:               4.3 elap:               0.1
 (Enter /public/software/gauss/g16/l302.exe)
 NPDir=0 NMtPBC=     1 NCelOv=     1 NCel=       1 NClECP=     1 NCelD=      1
         NCelK=      1 NCelE2=     1 NClLst=     1 CellRange=     0.0.
 One-electron integrals computed using PRISM.
 One-electron integral symmetry used in STVInt
   1 Symmetry operations used in ECPInt.
 ECPInt:  NShTT=  323610 NPrTT=  926773 LenC2=  170741 LenP2D=  327166.
 LDataN:  DoStor=T MaxTD1= 6 Len=  172
 NBasis=  2164 RedAO= T EigKep=  3.51D-06  NBF=  2164
 NBsUse=  2164 1.00D-06 EigRej= -1.00D+00 NBFU=  2164
 Precomputing XC quadrature grid using
 IXCGrd= 4 IRadAn=           5 IRanWt=          -1 IRanGd=           0 AccXCQ= 0.00D+00.
 Generated NRdTot=       0 NPtTot=           0 NUsed=           0 NTot=          32
 NSgBfM=  2135  2108  2126  2133  2135 MxSgAt=    89 MxSgA2=    89.
 Leave Link  302 at Sat Oct 25 11:33:10 2025, MaxMem= 30870077440 cpu:             864.3 elap:              13.6
 (Enter /public/software/gauss/g16/l303.exe)
 DipDrv:  MaxL=1.
 Leave Link  303 at Sat Oct 25 11:33:11 2025, MaxMem= 30870077440 cpu:              35.0 elap:               0.6
 (Enter /public/software/gauss/g16/l401.exe)
 ExpMin= 6.06D-02 ExpMax= 3.55D+04 ExpMxC= 1.21D+03 IAcc=3 IRadAn=         5 AccDes= 0.00D+00
 Harris functional with IExCor= 1009 and IRadAn=       5 diagonalized for initial guess.
 HarFok:  IExCor= 1009 AccDes= 0.00D+00 IRadAn=         5 IDoV= 1 UseB2=F ITyADJ=14
 ICtDFT=  3500011 ScaDFX=  1.000000  1.000000  1.000000  1.000000
 FoFCou: FMM=F IPFlag=           0 FMFlag=      100000 FMFlg1=        2001
         NFxFlg=           0 DoJE=T BraDBF=F KetDBF=T FulRan=T
         wScrn=  0.000000 ICntrl=       500 IOpCl=  0 I1Cent=   200000004 NGrid=           0
         NMat0=    1 NMatS0=      1 NMatT0=    0 NMatD0=    1 NMtDS0=    0 NMtDT0=    0
 Petite list used in FoFCou.
 Harris En= -2440.23677661937    
 JPrj=0 DoOrth=F DoCkMO=F.
 Initial guess <Sx>= 0.0000 <Sy>= 0.0000 <Sz>= 0.5000 <S**2>= 0.7500 S= 0.5000
 Leave Link  401 at Sat Oct 25 11:33:24 2025, MaxMem= 30870077440 cpu:             867.7 elap:              13.6
 (Enter /public/software/gauss/g16/l502.exe)
 Integral symmetry usage will be decided dynamically.
 UHF open shell SCF:
 Using DIIS extrapolation, IDIIS=  1040.
 NGot= 30870077440 LenX= 30857706789 LenY= 30851608359
 Requested convergence on RMS density matrix=1.00D-08 within 128 cycles.
 Requested convergence on MAX density matrix=1.00D-06.
 Requested convergence on             energy=1.00D-06.
 No special actions if energy rises.
 Fock matrices will be formed incrementally for  20 cycles.

 Cycle   1  Pass 1  IDiag  1:
 FoFJK:  IHMeth= 1 ICntrl=       0 DoSepK=F KAlg= 0 I1Cent=           0 FoldK=F
 IRaf= 490000000 NMat=       1 IRICut=       1 DoRegI=T DoRafI=F ISym2E= 0 IDoP0=0 IntGTp=1.
 FoFCou: FMM=T IPFlag=           0 FMFlag=      100000 FMFlg1=        2001
         NFxFlg=           0 DoJE=F BraDBF=F KetDBF=F FulRan=T
         wScrn=  0.000000 ICntrl=         0 IOpCl=  1 I1Cent=           0 NGrid=           0
         NMat0=    1 NMatS0=      1 NMatT0=    0 NMatD0=    1 NMtDS0=    0 NMtDT0=    0
 Symmetry not used in FoFCou.
 FMM levels:  10  Number of levels for PrismC:   9
 Inv3:  Mode=1 IEnd=   124498092.
 Iteration    1 A*A^-1 deviation from unit magnitude is 9.21D-15 for   1616.
 Iteration    1 A*A^-1 deviation from orthogonality  is 3.57D-15 for   6023    606.
 Iteration    1 A^-1*A deviation from unit magnitude is 9.88D-15 for   1616.
 Iteration    1 A^-1*A deviation from orthogonality  is 2.46D-15 for   4952    101.
 E= -2439.98989157441    
 DIIS: error= 2.11D-02 at cycle   1 NSaved=   1.
 NSaved= 1 IEnMin= 1 EnMin= -2439.98989157441     IErMin= 1 ErrMin= 2.11D-02
 ErrMax= 2.11D-02  0.00D+00 EMaxC= 1.00D-01 BMatC= 7.10D+00 BMatP= 7.10D+00
 IDIUse=3 WtCom= 7.89D-01 WtEn= 2.11D-01
 Coeff-Com:  0.100D+01
 Coeff-En:   0.100D+01
 Coeff:      0.100D+01
 Gap=     0.057 Goal=   None    Shift=    0.000
 Gap=     0.107 Goal=   None    Shift=    0.000
 GapD=    0.057 DampG=0.500 DampE=0.500 DampFc=0.2500 IDamp=-1.
 Damping current iteration by 2.50D-01
 RMSDP=1.51D-03 MaxDP=4.75D-01              OVMax= 6.58D-01

 Cycle   2  Pass 1  IDiag  1:
 RMSU=  3.77D-04    CP:  9.94D-01
 E= -2440.45801709069     Delta-E=       -0.468125516283 Rises=F Damp=T
 DIIS: error= 1.09D-02 at cycle   2 NSaved=   2.
 NSaved= 2 IEnMin= 2 EnMin= -2440.45801709069     IErMin= 2 ErrMin= 1.09D-02
 ErrMax= 1.09D-02  0.00D+00 EMaxC= 1.00D-01 BMatC= 2.43D+00 BMatP= 7.10D+00
 IDIUse=3 WtCom= 8.91D-01 WtEn= 1.09D-01
 Coeff-Com: -0.107D+01 0.207D+01
 Coeff-En:   0.000D+00 0.100D+01
 Coeff:     -0.957D+00 0.196D+01
 Gap=     0.040 Goal=   None    Shift=    0.000
 Gap=     0.154 Goal=   None    Shift=    0.000
 RMSDP=7.90D-04 MaxDP=9.14D-02 DE=-4.68D-01 OVMax= 6.49D-01

 Cycle   3  Pass 1  IDiag  1:
 RMSU=  6.10D-04    CP:  9.73D-01  2.32D+00
 E= -2441.27401970863     Delta-E=       -0.816002617945 Rises=F Damp=F
 DIIS: error= 1.34D-02 at cycle   3 NSaved=   3.
 NSaved= 3 IEnMin= 3 EnMin= -2441.27401970863     IErMin= 2 ErrMin= 1.09D-02
 ErrMax= 1.34D-02  0.00D+00 EMaxC= 1.00D-01 BMatC= 3.84D-01 BMatP= 2.43D+00
 IDIUse=3 WtCom= 8.66D-01 WtEn= 1.34D-01
 Coeff-Com: -0.528D+00 0.912D+00 0.616D+00
 Coeff-En:   0.000D+00 0.000D+00 0.100D+01
 Coeff:     -0.457D+00 0.790D+00 0.667D+00
 Gap=     0.055 Goal=   None    Shift=    0.000
 Gap=     0.121 Goal=   None    Shift=    0.000
 RMSDP=2.40D-04 MaxDP=6.70D-02 DE=-8.16D-01 OVMax= 3.04D-01

 Cycle   4  Pass 1  IDiag  1:
 RMSU=  2.25D-04    CP:  9.71D-01  2.33D+00  8.63D-01
 E= -2441.33991869646     Delta-E=       -0.065898987828 Rises=F Damp=F
 DIIS: error= 6.57D-03 at cycle   4 NSaved=   4.
 NSaved= 4 IEnMin= 4 EnMin= -2441.33991869646     IErMin= 4 ErrMin= 6.57D-03
 ErrMax= 6.57D-03  0.00D+00 EMaxC= 1.00D-01 BMatC= 9.81D-02 BMatP= 3.84D-01
 IDIUse=3 WtCom= 9.34D-01 WtEn= 6.57D-02
 Coeff-Com: -0.888D-01 0.146D+00 0.352D+00 0.591D+00
 Coeff-En:   0.000D+00 0.000D+00 0.180D+00 0.820D+00
 Coeff:     -0.830D-01 0.137D+00 0.341D+00 0.606D+00
 Gap=     0.069 Goal=   None    Shift=    0.000
 Gap=     0.134 Goal=   None    Shift=    0.000
 RMSDP=7.89D-05 MaxDP=2.14D-02 DE=-6.59D-02 OVMax= 8.27D-02

 Cycle   5  Pass 1  IDiag  1:
 RMSU=  6.18D-05    CP:  9.71D-01  2.31D+00  8.89D-01  7.96D-01
 E= -2441.36058295341     Delta-E=       -0.020664256950 Rises=F Damp=F
 DIIS: error= 6.80D-04 at cycle   5 NSaved=   5.
 NSaved= 5 IEnMin= 5 EnMin= -2441.36058295341     IErMin= 5 ErrMin= 6.80D-04
 ErrMax= 6.80D-04  0.00D+00 EMaxC= 1.00D-01 BMatC= 4.82D-03 BMatP= 9.81D-02
 IDIUse=3 WtCom= 9.93D-01 WtEn= 6.80D-03
 Coeff-Com: -0.106D-01 0.161D-01 0.135D+00 0.286D+00 0.574D+00
 Coeff-En:   0.000D+00 0.000D+00 0.000D+00 0.000D+00 0.100D+01
 Coeff:     -0.105D-01 0.159D-01 0.134D+00 0.284D+00 0.577D+00
 Gap=     0.074 Goal=   None    Shift=    0.000
 Gap=     0.128 Goal=   None    Shift=    0.000
 RMSDP=3.32D-05 MaxDP=5.53D-03 DE=-2.07D-02 OVMax= 5.34D-02

 Cycle   6  Pass 1  IDiag  1:
 RMSU=  3.11D-05    CP:  9.71D-01  2.32D+00  8.83D-01  8.38D-01  1.08D+00
 E= -2441.36261605347     Delta-E=       -0.002033100060 Rises=F Damp=F
 DIIS: error= 8.24D-04 at cycle   6 NSaved=   6.
 NSaved= 6 IEnMin= 6 EnMin= -2441.36261605347     IErMin= 5 ErrMin= 6.80D-04
 ErrMax= 8.24D-04  0.00D+00 EMaxC= 1.00D-01 BMatC= 1.13D-03 BMatP= 4.82D-03
 IDIUse=3 WtCom= 9.93D-01 WtEn= 6.80D-03
 Coeff-Com:  0.533D-02-0.823D-02 0.155D-01 0.190D-01 0.275D+00 0.693D+00
 Coeff-En:   0.000D+00 0.000D+00 0.000D+00 0.000D+00 0.000D+00 0.100D+01
 Coeff:      0.530D-02-0.818D-02 0.154D-01 0.188D-01 0.274D+00 0.695D+00
 Gap=     0.079 Goal=   None    Shift=    0.000
 Gap=     0.130 Goal=   None    Shift=    0.000
 RMSDP=2.72D-05 MaxDP=4.35D-03 DE=-2.03D-03 OVMax= 4.38D-02

 Cycle   7  Pass 1  IDiag  1:
 RMSU=  1.77D-05    CP:  9.71D-01  2.33D+00  8.82D-01  8.54D-01  1.28D+00
                    CP:  1.51D+00
 E= -2441.36374340563     Delta-E=       -0.001127352160 Rises=F Damp=F
 DIIS: error= 6.99D-04 at cycle   7 NSaved=   7.
 NSaved= 7 IEnMin= 7 EnMin= -2441.36374340563     IErMin= 5 ErrMin= 6.80D-04
 ErrMax= 6.99D-04  0.00D+00 EMaxC= 1.00D-01 BMatC= 4.24D-04 BMatP= 1.13D-03
 IDIUse=3 WtCom= 9.93D-01 WtEn= 6.80D-03
 Coeff-Com:  0.290D-02-0.379D-02-0.119D-01-0.601D-01 0.112D-01 0.160D+00
 Coeff-Com:  0.901D+00
 Coeff-En:   0.000D+00 0.000D+00 0.000D+00 0.000D+00 0.000D+00 0.000D+00
 Coeff-En:   0.100D+01
 Coeff:      0.288D-02-0.376D-02-0.118D-01-0.597D-01 0.112D-01 0.159D+00
 Coeff:      0.902D+00
 Gap=     0.083 Goal=   None    Shift=    0.000
 Gap=     0.131 Goal=   None    Shift=    0.000
 RMSDP=3.02D-05 MaxDP=4.77D-03 DE=-1.13D-03 OVMax= 5.22D-02

 Cycle   8  Pass 1  IDiag  1:
 RMSU=  1.04D-05    CP:  9.71D-01  2.33D+00  8.81D-01  8.66D-01  1.46D+00
                    CP:  2.14D+00  1.95D+00
 E= -2441.36466685282     Delta-E=       -0.000923447185 Rises=F Damp=F
 DIIS: error= 6.64D-04 at cycle   8 NSaved=   8.
 NSaved= 8 IEnMin= 8 EnMin= -2441.36466685282     IErMin= 8 ErrMin= 6.64D-04
 ErrMax= 6.64D-04  0.00D+00 EMaxC= 1.00D-01 BMatC= 2.95D-04 BMatP= 4.24D-04
 IDIUse=3 WtCom= 9.93D-01 WtEn= 6.64D-03
 Coeff-Com: -0.178D-02 0.353D-02 0.937D-02-0.119D-01-0.358D-01-0.338D+00
 Coeff-Com:  0.209D+00 0.117D+01
 Coeff-En:   0.000D+00 0.000D+00 0.000D+00 0.000D+00 0.000D+00 0.000D+00
 Coeff-En:   0.000D+00 0.100D+01
 Coeff:     -0.177D-02 0.351D-02 0.931D-02-0.118D-01-0.355D-01-0.336D+00
 Coeff:      0.207D+00 0.117D+01
 Gap=     0.089 Goal=   None    Shift=    0.000
 Gap=     0.132 Goal=   None    Shift=    0.000
 RMSDP=3.68D-05 MaxDP=5.11D-03 DE=-9.23D-04 OVMax= 6.38D-02

 Cycle   9  Pass 1  IDiag  1:
 RMSU=  9.31D-06    CP:  9.71D-01  2.34D+00  8.78D-01  8.70D-01  1.61D+00
                    CP:  2.86D+00  3.00D+00  2.16D+00
 E= -2441.36555319396     Delta-E=       -0.000886341140 Rises=F Damp=F
 DIIS: error= 5.08D-04 at cycle   9 NSaved=   9.
 NSaved= 9 IEnMin= 9 EnMin= -2441.36555319396     IErMin= 9 ErrMin= 5.08D-04
 ErrMax= 5.08D-04  0.00D+00 EMaxC= 1.00D-01 BMatC= 1.94D-04 BMatP= 2.95D-04
 IDIUse=3 WtCom= 9.95D-01 WtEn= 5.08D-03
 Coeff-Com: -0.764D-03 0.164D-02 0.234D-01 0.341D-01 0.682D-01-0.167D+00
 Coeff-Com: -0.407D+00 0.249D+00 0.120D+01
 Coeff-En:   0.000D+00 0.000D+00 0.000D+00 0.000D+00 0.000D+00 0.000D+00
 Coeff-En:   0.000D+00 0.000D+00 0.100D+01
 Coeff:     -0.760D-03 0.163D-02 0.233D-01 0.339D-01 0.678D-01-0.166D+00
 Coeff:     -0.405D+00 0.248D+00 0.120D+01
 Gap=     0.092 Goal=   None    Shift=    0.000
 Gap=     0.132 Goal=   None    Shift=    0.000
 RMSDP=3.32D-05 MaxDP=5.06D-03 DE=-8.86D-04 OVMax= 5.87D-02

 Cycle  10  Pass 1  IDiag  1:
 RMSU=  1.99D-05    CP:  9.71D-01  2.35D+00  8.75D-01  8.64D-01  1.69D+00
                    CP:  3.00D+00  3.00D+00  3.00D+00  2.97D+00
 E= -2441.36617829423     Delta-E=       -0.000625100269 Rises=F Damp=F
 DIIS: error= 3.66D-04 at cycle  10 NSaved=  10.
 NSaved=10 IEnMin=10 EnMin= -2441.36617829423     IErMin=10 ErrMin= 3.66D-04
 ErrMax= 3.66D-04  0.00D+00 EMaxC= 1.00D-01 BMatC= 1.44D-04 BMatP= 1.94D-04
 IDIUse=3 WtCom= 9.96D-01 WtEn= 3.66D-03
 Coeff-Com:  0.176D-02-0.244D-02 0.142D-01 0.203D-01 0.100D+00 0.121D+00
 Coeff-Com: -0.274D+00-0.659D+00 0.656D+00 0.102D+01
 Coeff-En:   0.000D+00 0.000D+00 0.000D+00 0.000D+00 0.000D+00 0.000D+00
 Coeff-En:   0.000D+00 0.000D+00 0.000D+00 0.100D+01
 Coeff:      0.175D-02-0.243D-02 0.141D-01 0.202D-01 0.999D-01 0.121D+00
 Coeff:     -0.273D+00-0.657D+00 0.654D+00 0.102D+01
 Gap=     0.095 Goal=   None    Shift=    0.000
 Gap=     0.131 Goal=   None    Shift=    0.000
 RMSDP=2.86D-05 MaxDP=4.68D-03 DE=-6.25D-04 OVMax= 4.97D-02

 Cycle  11  Pass 1  IDiag  1:
 RMSU=  2.01D-05    CP:  9.71D-01  2.36D+00  8.73D-01  8.52D-01  1.73D+00
                    CP:  3.00D+00  3.00D+00  3.00D+00  3.00D+00  1.98D+00
 E= -2441.36659812985     Delta-E=       -0.000419835626 Rises=F Damp=F
 DIIS: error= 2.52D-04 at cycle  11 NSaved=  11.
 NSaved=11 IEnMin=11 EnMin= -2441.36659812985     IErMin=11 ErrMin= 2.52D-04
 ErrMax= 2.52D-04  0.00D+00 EMaxC= 1.00D-01 BMatC= 7.67D-05 BMatP= 1.44D-04
 IDIUse=3 WtCom= 9.97D-01 WtEn= 2.52D-03
 Coeff-Com:  0.311D-02-0.454D-02-0.607D-02-0.249D-01 0.243D-01 0.218D+00
 Coeff-Com:  0.293D+00-0.604D+00-0.732D+00 0.338D+00 0.149D+01
 Coeff-En:   0.000D+00 0.000D+00 0.000D+00 0.000D+00 0.000D+00 0.000D+00
 Coeff-En:   0.000D+00 0.000D+00 0.000D+00 0.000D+00 0.100D+01
 Coeff:      0.311D-02-0.452D-02-0.605D-02-0.249D-01 0.242D-01 0.217D+00
 Coeff:      0.293D+00-0.602D+00-0.731D+00 0.338D+00 0.149D+01
 Gap=     0.097 Goal=   None    Shift=    0.000
 Gap=     0.129 Goal=   None    Shift=    0.000
 RMSDP=3.51D-05 MaxDP=5.95D-03 DE=-4.20D-04 OVMax= 6.06D-02

 Cycle  12  Pass 1  IDiag  1:
 RMSU=  6.15D-06    CP:  9.71D-01  2.36D+00  8.72D-01  8.32D-01  1.74D+00
                    CP:  3.00D+00  3.00D+00  3.00D+00  3.00D+00  3.00D+00
                    CP:  2.32D+00
 E= -2441.36692526571     Delta-E=       -0.000327135862 Rises=F Damp=F
 DIIS: error= 9.82D-05 at cycle  12 NSaved=  12.
 NSaved=12 IEnMin=12 EnMin= -2441.36692526571     IErMin=12 ErrMin= 9.82D-05
 ErrMax= 9.82D-05  0.00D+00 EMaxC= 1.00D-01 BMatC= 2.58D-05 BMatP= 7.67D-05
 IDIUse=1 WtCom= 1.00D+00 WtEn= 0.00D+00
 Coeff-Com:  0.838D-03-0.111D-02-0.361D-02-0.166D-01-0.230D-01 0.235D-01
 Coeff-Com:  0.203D+00 0.452D-01-0.458D+00-0.399D+00 0.690D+00 0.939D+00
 Coeff:      0.838D-03-0.111D-02-0.361D-02-0.166D-01-0.230D-01 0.235D-01
 Coeff:      0.203D+00 0.452D-01-0.458D+00-0.399D+00 0.690D+00 0.939D+00
 Gap=     0.099 Goal=   None    Shift=    0.000
 Gap=     0.129 Goal=   None    Shift=    0.000
 RMSDP=1.62D-05 MaxDP=2.84D-03 DE=-3.27D-04 OVMax= 2.67D-02

 Cycle  13  Pass 1  IDiag  1:
 RMSU=  8.84D-06    CP:  9.71D-01  2.37D+00  8.73D-01  8.17D-01  1.74D+00
                    CP:  3.00D+00  3.00D+00  3.00D+00  3.00D+00  3.00D+00
                    CP:  2.92D+00  1.82D+00
 E= -2441.36699567213     Delta-E=       -0.000070406411 Rises=F Damp=F
 DIIS: error= 4.93D-05 at cycle  13 NSaved=  13.
 NSaved=13 IEnMin=13 EnMin= -2441.36699567213     IErMin=13 ErrMin= 4.93D-05
 ErrMax= 4.93D-05  0.00D+00 EMaxC= 1.00D-01 BMatC= 5.94D-06 BMatP= 2.58D-05
 IDIUse=1 WtCom= 1.00D+00 WtEn= 0.00D+00
 Coeff-Com: -0.423D-03 0.679D-03 0.225D-02 0.346D-02-0.114D-01-0.541D-01
 Coeff-Com: -0.330D-01 0.199D+00 0.134D+00-0.317D+00-0.216D+00 0.366D+00
 Coeff-Com:  0.926D+00
 Coeff:     -0.423D-03 0.679D-03 0.225D-02 0.346D-02-0.114D-01-0.541D-01
 Coeff:     -0.330D-01 0.199D+00 0.134D+00-0.317D+00-0.216D+00 0.366D+00
 Coeff:      0.926D+00
 Gap=     0.099 Goal=   None    Shift=    0.000
 Gap=     0.128 Goal=   None    Shift=    0.000
 RMSDP=5.51D-06 MaxDP=9.70D-04 DE=-7.04D-05 OVMax= 9.45D-03

 Cycle  14  Pass 1  IDiag  1:
 RMSU=  2.59D-06    CP:  9.71D-01  2.37D+00  8.73D-01  8.13D-01  1.73D+00
                    CP:  3.00D+00  3.00D+00  3.00D+00  3.00D+00  3.00D+00
                    CP:  3.00D+00  2.25D+00  1.27D+00
 E= -2441.36701119811     Delta-E=       -0.000015525980 Rises=F Damp=F
 DIIS: error= 2.14D-05 at cycle  14 NSaved=  14.
 NSaved=14 IEnMin=14 EnMin= -2441.36701119811     IErMin=14 ErrMin= 2.14D-05
 ErrMax= 2.14D-05  0.00D+00 EMaxC= 1.00D-01 BMatC= 2.36D-06 BMatP= 5.94D-06
 IDIUse=1 WtCom= 1.00D+00 WtEn= 0.00D+00
 Coeff-Com: -0.374D-03 0.571D-03 0.236D-02 0.579D-02 0.167D-02-0.324D-01
 Coeff-Com: -0.643D-01 0.762D-01 0.180D+00-0.775D-01-0.249D+00-0.547D-01
 Coeff-Com:  0.412D+00 0.800D+00
 Coeff:     -0.374D-03 0.571D-03 0.236D-02 0.579D-02 0.167D-02-0.324D-01
 Coeff:     -0.643D-01 0.762D-01 0.180D+00-0.775D-01-0.249D+00-0.547D-01
 Coeff:      0.412D+00 0.800D+00
 Gap=     0.099 Goal=   None    Shift=    0.000
 Gap=     0.128 Goal=   None    Shift=    0.000
 RMSDP=3.53D-06 MaxDP=5.80D-04 DE=-1.55D-05 OVMax= 5.75D-03

 Cycle  15  Pass 1  IDiag  1:
 RMSU=  1.06D-06    CP:  9.71D-01  2.37D+00  8.73D-01  8.10D-01  1.73D+00
                    CP:  3.00D+00  3.00D+00  3.00D+00  3.00D+00  3.00D+00
                    CP:  3.00D+00  2.48D+00  1.46D+00  1.94D+00
 E= -2441.36701757418     Delta-E=       -0.000006376073 Rises=F Damp=F
 DIIS: error= 1.43D-05 at cycle  15 NSaved=  15.
 NSaved=15 IEnMin=15 EnMin= -2441.36701757418     IErMin=15 ErrMin= 1.43D-05
 ErrMax= 1.43D-05  0.00D+00 EMaxC= 1.00D-01 BMatC= 8.75D-07 BMatP= 2.36D-06
 IDIUse=1 WtCom= 1.00D+00 WtEn= 0.00D+00
 Coeff-Com:  0.765D-04-0.119D-03 0.134D-03 0.490D-03 0.627D-02 0.739D-02
 Coeff-Com: -0.252D-02-0.407D-01 0.197D-01 0.680D-01-0.124D-01-0.151D+00
 Coeff-Com: -0.183D+00 0.220D+00 0.107D+01
 Coeff:      0.765D-04-0.119D-03 0.134D-03 0.490D-03 0.627D-02 0.739D-02
 Coeff:     -0.252D-02-0.407D-01 0.197D-01 0.680D-01-0.124D-01-0.151D+00
 Coeff:     -0.183D+00 0.220D+00 0.107D+01
 Gap=     0.099 Goal=   None    Shift=    0.000
 Gap=     0.128 Goal=   None    Shift=    0.000
 RMSDP=2.20D-06 MaxDP=3.02D-04 DE=-6.38D-06 OVMax= 3.06D-03

 Cycle  16  Pass 1  IDiag  1:
 RMSU=  1.00D-06    CP:  9.71D-01  2.37D+00  8.73D-01  8.09D-01  1.72D+00
                    CP:  3.00D+00  3.00D+00  3.00D+00  3.00D+00  3.00D+00
                    CP:  3.00D+00  2.63D+00  1.49D+00  2.56D+00  1.10D+00
 E= -2441.36702155865     Delta-E=       -0.000003984471 Rises=F Damp=F
 DIIS: error= 1.13D-05 at cycle  16 NSaved=  16.
 NSaved=16 IEnMin=16 EnMin= -2441.36702155865     IErMin=16 ErrMin= 1.13D-05
 ErrMax= 1.13D-05  0.00D+00 EMaxC= 1.00D-01 BMatC= 6.82D-07 BMatP= 8.75D-07
 IDIUse=1 WtCom= 1.00D+00 WtEn= 0.00D+00
 Coeff-Com:  0.147D-03-0.216D-03-0.684D-03-0.215D-02 0.313D-02 0.133D-01
 Coeff-Com:  0.264D-01-0.465D-01-0.731D-01 0.448D-01 0.105D+00-0.243D-01
 Coeff-Com: -0.237D+00-0.339D+00 0.531D+00 0.999D+00
 Coeff:      0.147D-03-0.216D-03-0.684D-03-0.215D-02 0.313D-02 0.133D-01
 Coeff:      0.264D-01-0.465D-01-0.731D-01 0.448D-01 0.105D+00-0.243D-01
 Coeff:     -0.237D+00-0.339D+00 0.531D+00 0.999D+00
 Gap=     0.099 Goal=   None    Shift=    0.000
 Gap=     0.128 Goal=   None    Shift=    0.000
 RMSDP=2.74D-06 MaxDP=3.80D-04 DE=-3.98D-06 OVMax= 4.33D-03

 Cycle  17  Pass 1  IDiag  1:
 RMSU=  9.33D-07    CP:  9.71D-01  2.37D+00  8.73D-01  8.07D-01  1.72D+00
                    CP:  3.00D+00  3.00D+00  3.00D+00  3.00D+00  3.00D+00
                    CP:  3.00D+00  2.80D+00  1.62D+00  3.00D+00  1.78D+00
                    CP:  1.64D+00
 E= -2441.36702461326     Delta-E=       -0.000003054613 Rises=F Damp=F
 DIIS: error= 8.95D-06 at cycle  17 NSaved=  17.
 NSaved=17 IEnMin=17 EnMin= -2441.36702461326     IErMin=17 ErrMin= 8.95D-06
 ErrMax= 8.95D-06  0.00D+00 EMaxC= 1.00D-01 BMatC= 2.74D-07 BMatP= 6.82D-07
 IDIUse=1 WtCom= 1.00D+00 WtEn= 0.00D+00
 Coeff-Com:  0.103D-03-0.159D-03-0.291D-03-0.122D-02 0.790D-03 0.491D-02
 Coeff-Com:  0.169D-01-0.433D-02-0.449D-01-0.345D-02 0.645D-01 0.662D-01
 Coeff-Com: -0.255D-01-0.338D+00-0.284D+00 0.377D+00 0.117D+01
 Coeff:      0.103D-03-0.159D-03-0.291D-03-0.122D-02 0.790D-03 0.491D-02
 Coeff:      0.169D-01-0.433D-02-0.449D-01-0.345D-02 0.645D-01 0.662D-01
 Coeff:     -0.255D-01-0.338D+00-0.284D+00 0.377D+00 0.117D+01
 Gap=     0.099 Goal=   None    Shift=    0.000
 Gap=     0.128 Goal=   None    Shift=    0.000
 RMSDP=2.03D-06 MaxDP=3.37D-04 DE=-3.05D-06 OVMax= 3.04D-03

 Cycle  18  Pass 1  IDiag  1:
 RMSU=  5.70D-07    CP:  9.71D-01  2.37D+00  8.73D-01  8.08D-01  1.71D+00
                    CP:  3.00D+00  3.00D+00  3.00D+00  3.00D+00  3.00D+00
                    CP:  3.00D+00  2.87D+00  1.57D+00  3.00D+00  1.55D+00
                    CP:  3.00D+00  1.77D+00
 E= -2441.36702651486     Delta-E=       -0.000001901595 Rises=F Damp=F
 DIIS: error= 7.16D-06 at cycle  18 NSaved=  18.
 NSaved=18 IEnMin=18 EnMin= -2441.36702651486     IErMin=18 ErrMin= 7.16D-06
 ErrMax= 7.16D-06  0.00D+00 EMaxC= 1.00D-01 BMatC= 2.51D-07 BMatP= 2.74D-07
 IDIUse=1 WtCom= 1.00D+00 WtEn= 0.00D+00
 Coeff-Com: -0.938D-04 0.141D-03 0.175D-03 0.202D-03-0.186D-02-0.779D-02
 Coeff-Com: -0.340D-02 0.287D-01 0.131D-02-0.389D-01-0.147D-01 0.728D-01
 Coeff-Com:  0.126D+00-0.416D-01-0.502D+00-0.455D+00 0.798D+00 0.104D+01
 Coeff:     -0.938D-04 0.141D-03 0.175D-03 0.202D-03-0.186D-02-0.779D-02
 Coeff:     -0.340D-02 0.287D-01 0.131D-02-0.389D-01-0.147D-01 0.728D-01
 Coeff:      0.126D+00-0.416D-01-0.502D+00-0.455D+00 0.798D+00 0.104D+01
 Gap=     0.099 Goal=   None    Shift=    0.000
 Gap=     0.128 Goal=   None    Shift=    0.000
 RMSDP=2.57D-06 MaxDP=3.02D-04 DE=-1.90D-06 OVMax= 3.72D-03

 Cycle  19  Pass 1  IDiag  1:
 RMSU=  1.01D-06    CP:  9.71D-01  2.37D+00  8.73D-01  8.06D-01  1.71D+00
                    CP:  3.00D+00  3.00D+00  3.00D+00  3.00D+00  3.00D+00
                    CP:  3.00D+00  3.00D+00  1.67D+00  3.00D+00  2.14D+00
                    CP:  3.00D+00  3.00D+00  2.37D+00
 E= -2441.36702783580     Delta-E=       -0.000001320941 Rises=F Damp=F
 DIIS: error= 3.70D-06 at cycle  19 NSaved=  19.
 NSaved=19 IEnMin=19 EnMin= -2441.36702783580     IErMin=19 ErrMin= 3.70D-06
 ErrMax= 3.70D-06  0.00D+00 EMaxC= 1.00D-01 BMatC= 7.67D-08 BMatP= 2.51D-07
 IDIUse=1 WtCom= 1.00D+00 WtEn= 0.00D+00
 Coeff-Com: -0.198D-04 0.257D-04 0.201D-03 0.653D-03 0.102D-03-0.285D-02
 Coeff-Com: -0.783D-02 0.125D-01 0.208D-01-0.818D-02-0.353D-01 0.106D-02
 Coeff-Com:  0.719D-01 0.161D+00-0.105D+00-0.493D+00-0.862D-01 0.593D+00
 Coeff-Com:  0.877D+00
 Coeff:     -0.198D-04 0.257D-04 0.201D-03 0.653D-03 0.102D-03-0.285D-02
 Coeff:     -0.783D-02 0.125D-01 0.208D-01-0.818D-02-0.353D-01 0.106D-02
 Coeff:      0.719D-01 0.161D+00-0.105D+00-0.493D+00-0.862D-01 0.593D+00
 Coeff:      0.877D+00
 Gap=     0.099 Goal=   None    Shift=    0.000
 Gap=     0.128 Goal=   None    Shift=    0.000
 RMSDP=1.15D-06 MaxDP=1.93D-04 DE=-1.32D-06 OVMax= 1.66D-03

 Cycle  20  Pass 1  IDiag  1:
 RMSU=  5.67D-07    CP:  9.71D-01  2.37D+00  8.72D-01  8.07D-01  1.70D+00
                    CP:  3.00D+00  3.00D+00  3.00D+00  3.00D+00  3.00D+00
                    CP:  3.00D+00  3.00D+00  1.62D+00  3.00D+00  1.89D+00
                    CP:  3.00D+00  3.00D+00  3.00D+00  1.55D+00
 E= -2441.36702810213     Delta-E=       -0.000000266335 Rises=F Damp=F
 DIIS: error= 2.87D-06 at cycle  20 NSaved=  20.
 NSaved=20 IEnMin=20 EnMin= -2441.36702810213     IErMin=20 ErrMin= 2.87D-06
 ErrMax= 2.87D-06  0.00D+00 EMaxC= 1.00D-01 BMatC= 3.27D-08 BMatP= 7.67D-08
 IDIUse=1 WtCom= 1.00D+00 WtEn= 0.00D+00
 Coeff-Com:  0.866D-05-0.119D-04 0.208D-04 0.118D-03 0.272D-03 0.529D-03
 Coeff-Com: -0.225D-02-0.765D-03 0.513D-02 0.470D-02-0.102D-01-0.172D-01
 Coeff-Com: -0.279D-02 0.777D-01 0.875D-01-0.965D-01-0.262D+00-0.984D-01
 Coeff-Com:  0.504D+00 0.810D+00
 Coeff:      0.866D-05-0.119D-04 0.208D-04 0.118D-03 0.272D-03 0.529D-03
 Coeff:     -0.225D-02-0.765D-03 0.513D-02 0.470D-02-0.102D-01-0.172D-01
 Coeff:     -0.279D-02 0.777D-01 0.875D-01-0.965D-01-0.262D+00-0.984D-01
 Coeff:      0.504D+00 0.810D+00
 Gap=     0.099 Goal=   None    Shift=    0.000
 Gap=     0.128 Goal=   None    Shift=    0.000
 RMSDP=6.89D-07 MaxDP=8.57D-05 DE=-2.66D-07 OVMax= 9.90D-04

 Cycle  21  Pass 1  IDiag  1:
 Restarting incremental Fock formation.
 E= -2441.36702819243     Delta-E=       -0.000000090295 Rises=F Damp=F
 DIIS: error= 8.42D-07 at cycle  21 NSaved=  20.
 NSaved=20 IEnMin=20 EnMin= -2441.36702819243     IErMin=20 ErrMin= 8.42D-07
 ErrMax= 8.42D-07  0.00D+00 EMaxC= 1.00D-01 BMatC= 3.11D-09 BMatP= 3.27D-08
 IDIUse=1 WtCom= 1.00D+00 WtEn= 0.00D+00
 Coeff-Com:  0.310D-05 0.816D-05-0.196D-04 0.141D-03 0.807D-03 0.667D-04
 Coeff-Com: -0.227D-02-0.107D-02 0.381D-02 0.195D-02-0.867D-02-0.145D-01
 Coeff-Com: -0.967D-03 0.566D-01 0.606D-01-0.720D-01-0.195D+00 0.518D-01
 Coeff-Com:  0.263D+00 0.856D+00
 Coeff:      0.310D-05 0.816D-05-0.196D-04 0.141D-03 0.807D-03 0.667D-04
 Coeff:     -0.227D-02-0.107D-02 0.381D-02 0.195D-02-0.867D-02-0.145D-01
 Coeff:     -0.967D-03 0.566D-01 0.606D-01-0.720D-01-0.195D+00 0.518D-01
 Coeff:      0.263D+00 0.856D+00
 Gap=     0.099 Goal=   None    Shift=    0.000
 Gap=     0.128 Goal=   None    Shift=    0.000
 RMSDP=1.91D-07 MaxDP=2.69D-05 DE=-9.03D-08 OVMax= 2.62D-04

 Cycle  22  Pass 1  IDiag  1:
 RMSU=  1.91D-07    CP:  1.00D+00
 E= -2441.36702820043     Delta-E=       -0.000000008005 Rises=F Damp=F
 DIIS: error= 5.85D-07 at cycle  22 NSaved=  20.
 NSaved=20 IEnMin=20 EnMin= -2441.36702820043     IErMin=20 ErrMin= 5.85D-07
 ErrMax= 5.85D-07  0.00D+00 EMaxC= 1.00D-01 BMatC= 6.40D-10 BMatP= 3.11D-09
 IDIUse=1 WtCom= 1.00D+00 WtEn= 0.00D+00
 Coeff-Com:  0.276D-05-0.192D-04 0.175D-04 0.284D-03 0.262D-03-0.815D-03
 Coeff-Com: -0.114D-02 0.545D-03 0.263D-02-0.253D-03-0.469D-02-0.148D-01
 Coeff-Com:  0.361D-02 0.406D-01 0.229D-01-0.636D-01-0.625D-01-0.602D-01
 Coeff-Com:  0.320D+00 0.817D+00
 Coeff:      0.276D-05-0.192D-04 0.175D-04 0.284D-03 0.262D-03-0.815D-03
 Coeff:     -0.114D-02 0.545D-03 0.263D-02-0.253D-03-0.469D-02-0.148D-01
 Coeff:      0.361D-02 0.406D-01 0.229D-01-0.636D-01-0.625D-01-0.602D-01
 Coeff:      0.320D+00 0.817D+00
 Gap=     0.099 Goal=   None    Shift=    0.000
 Gap=     0.128 Goal=   None    Shift=    0.000
 RMSDP=7.52D-08 MaxDP=8.74D-06 DE=-8.01D-09 OVMax= 1.09D-04

 Cycle  23  Pass 1  IDiag  1:
 RMSU=  1.99D-08    CP:  1.00D+00  1.38D+00
 E= -2441.36702820191     Delta-E=       -0.000000001473 Rises=F Damp=F
 DIIS: error= 4.31D-07 at cycle  23 NSaved=  20.
 NSaved=20 IEnMin=20 EnMin= -2441.36702820191     IErMin=20 ErrMin= 4.31D-07
 ErrMax= 4.31D-07  0.00D+00 EMaxC= 1.00D-01 BMatC= 1.66D-10 BMatP= 6.40D-10
 IDIUse=1 WtCom= 1.00D+00 WtEn= 0.00D+00
 Coeff-Com: -0.397D-08 0.341D-05-0.813D-05 0.127D-03 0.410D-04-0.120D-03
 Coeff-Com: -0.458D-03 0.628D-03 0.159D-02 0.942D-03-0.465D-02-0.109D-01
 Coeff-Com:  0.148D-02 0.249D-01 0.228D-01-0.321D-01-0.865D-01-0.106D+00
 Coeff-Com:  0.294D+00 0.895D+00
 Coeff:     -0.397D-08 0.341D-05-0.813D-05 0.127D-03 0.410D-04-0.120D-03
 Coeff:     -0.458D-03 0.628D-03 0.159D-02 0.942D-03-0.465D-02-0.109D-01
 Coeff:      0.148D-02 0.249D-01 0.228D-01-0.321D-01-0.865D-01-0.106D+00
 Coeff:      0.294D+00 0.895D+00
 Gap=     0.099 Goal=   None    Shift=    0.000
 Gap=     0.128 Goal=   None    Shift=    0.000
 RMSDP=1.69D-08 MaxDP=2.74D-06 DE=-1.47D-09 OVMax= 1.44D-05

 Cycle  24  Pass 1  IDiag  1:
 RMSU=  1.51D-08    CP:  1.00D+00  1.41D+00  7.16D-01
 E= -2441.36702820210     Delta-E=       -0.000000000196 Rises=F Damp=F
 DIIS: error= 2.51D-07 at cycle  24 NSaved=  20.
 NSaved=20 IEnMin=20 EnMin= -2441.36702820210     IErMin=20 ErrMin= 2.51D-07
 ErrMax= 2.51D-07  0.00D+00 EMaxC= 1.00D-01 BMatC= 6.69D-11 BMatP= 1.66D-10
 IDIUse=1 WtCom= 1.00D+00 WtEn= 0.00D+00
 Coeff-Com: -0.608D-05-0.766D-04 0.528D-04 0.176D-03 0.926D-04-0.378D-03
 Coeff-Com: -0.185D-03 0.869D-03 0.133D-02 0.174D-02-0.459D-02-0.980D-02
 Coeff-Com:  0.373D-02 0.212D-01 0.839D-02-0.163D-01-0.122D+00-0.123D+00
 Coeff-Com:  0.353D+00 0.886D+00
 Coeff:     -0.608D-05-0.766D-04 0.528D-04 0.176D-03 0.926D-04-0.378D-03
 Coeff:     -0.185D-03 0.869D-03 0.133D-02 0.174D-02-0.459D-02-0.980D-02
 Coeff:      0.373D-02 0.212D-01 0.839D-02-0.163D-01-0.122D+00-0.123D+00
 Coeff:      0.353D+00 0.886D+00
 Gap=     0.099 Goal=   None    Shift=    0.000
 Gap=     0.128 Goal=   None    Shift=    0.000
 RMSDP=1.16D-08 MaxDP=1.78D-06 DE=-1.96D-10 OVMax= 1.42D-05

 Cycle  25  Pass 1  IDiag  1:
 RMSU=  5.17D-09    CP:  1.00D+00  1.45D+00  1.02D+00  1.17D+00
 E= -2441.36702820176     Delta-E=        0.000000000340 Rises=F Damp=F
 DIIS: error= 1.55D-07 at cycle  25 NSaved=  20.
 NSaved=20 IEnMin=19 EnMin= -2441.36702820210     IErMin=20 ErrMin= 1.55D-07
 ErrMax= 1.55D-07  0.00D+00 EMaxC= 1.00D-01 BMatC= 1.54D-11 BMatP= 6.69D-11
 IDIUse=1 WtCom= 1.00D+00 WtEn= 0.00D+00
 Coeff-Com: -0.336D-04-0.425D-04 0.547D-04 0.126D-03-0.908D-05-0.390D-03
 Coeff-Com: -0.236D-03 0.216D-03 0.260D-02 0.225D-02-0.503D-02-0.710D-02
 Coeff-Com: -0.236D-03 0.160D-01 0.254D-01-0.579D-02-0.162D+00-0.194D+00
 Coeff-Com:  0.298D+00 0.103D+01
 Coeff:     -0.336D-04-0.425D-04 0.547D-04 0.126D-03-0.908D-05-0.390D-03
 Coeff:     -0.236D-03 0.216D-03 0.260D-02 0.225D-02-0.503D-02-0.710D-02
 Coeff:     -0.236D-03 0.160D-01 0.254D-01-0.579D-02-0.162D+00-0.194D+00
 Coeff:      0.298D+00 0.103D+01
 Gap=     0.099 Goal=   None    Shift=    0.000
 Gap=     0.128 Goal=   None    Shift=    0.000
 RMSDP=9.58D-09 MaxDP=1.46D-06 DE= 3.40D-10 OVMax= 1.18D-05

 Cycle  26  Pass 1  IDiag  1:
 RMSU=  3.05D-09    CP:  1.00D+00  1.47D+00  1.37D+00  1.18D+00  1.83D+00
 E= -2441.36702820207     Delta-E=       -0.000000000304 Rises=F Damp=F
 DIIS: error= 5.97D-08 at cycle  26 NSaved=  20.
 NSaved=20 IEnMin=18 EnMin= -2441.36702820210     IErMin=20 ErrMin= 5.97D-08
 ErrMax= 5.97D-08  0.00D+00 EMaxC= 1.00D-01 BMatC= 6.00D-12 BMatP= 1.54D-11
 IDIUse=1 WtCom= 1.00D+00 WtEn= 0.00D+00
 Coeff-Com: -0.120D-04-0.155D-04 0.198D-04 0.773D-04-0.915D-04-0.192D-03
 Coeff-Com: -0.168D-03 0.565D-03 0.161D-02 0.214D-03-0.351D-02-0.335D-02
 Coeff-Com:  0.333D-02 0.139D-01 0.202D-01-0.464D-01-0.140D+00-0.526D-01
 Coeff-Com:  0.442D+00 0.765D+00
 Coeff:     -0.120D-04-0.155D-04 0.198D-04 0.773D-04-0.915D-04-0.192D-03
 Coeff:     -0.168D-03 0.565D-03 0.161D-02 0.214D-03-0.351D-02-0.335D-02
 Coeff:      0.333D-02 0.139D-01 0.202D-01-0.464D-01-0.140D+00-0.526D-01
 Coeff:      0.442D+00 0.765D+00
 Gap=     0.099 Goal=   None    Shift=    0.000
 Gap=     0.128 Goal=   None    Shift=    0.000
 RMSDP=4.71D-09 MaxDP=8.26D-07 DE=-3.04D-10 OVMax= 6.92D-06

 Error on total polarization charges =  0.02756
 SCF Done:  E(UM062X) =  -2441.36702820     A.U. after   26 cycles
            NFock= 26  Conv=0.47D-08     -V/T= 2.0054
 <Sx>= 0.0000 <Sy>= 0.0000 <Sz>= 0.5000 <S**2>= 0.8231 S= 0.5359
 <L.S>= 0.000000000000E+00
 KE= 2.428290163407D+03 PE=-1.831204108533D+04 EE= 7.147358869033D+03
 Annihilation of the first spin contaminant:
 S**2 before annihilation     0.8231,   after     0.7529
 Leave Link  502 at Sat Oct 25 12:25:54 2025, MaxMem= 30870077440 cpu:          199349.5 elap:            3150.1
 (Enter /public/software/gauss/g16/l601.exe)
 Copying SCF densities to generalized density rwf, IOpCl= 1 IROHF=0.

 **********************************************************************

            Population analysis using the SCF density.

 **********************************************************************

 Orbital symmetries:
 Alpha Orbitals:
       Occupied  (A) (A) (A) (A) (A) (A) (A) (A) (A) (A) (A) (A)
                 (A) (A) (A) (A) (A) (A) (A) (A) (A) (A) (A) (A)
                 (A) (A) (A) (A) (A) (A) (A) (A) (A) (A) (A) (A)
                 (A) (A) (A) (A) (A) (A) (A) (A) (A) (A) (A) (A)
                 (A) (A) (A) (A) (A) (A) (A) (A) (A) (A) (A) (A)
                 (A) (A) (A) (A) (A) (A) (A) (A) (A) (A) (A) (A)
                 (A) (A) (A) (A) (A) (A) (A) (A) (A) (A) (A) (A)
                 (A) (A) (A) (A) (A) (A) (A) (A) (A) (A) (A) (A)
                 (A) (A) (A) (A) (A) (A) (A) (A) (A) (A) (A) (A)
                 (A) (A) (A) (A) (A) (A) (A) (A) (A) (A) (A) (A)
                 (A) (A) (A) (A) (A) (A) (A) (A) (A) (A) (A) (A)
                 (A) (A) (A) (A) (A) (A) (A) (A) (A) (A) (A) (A)
                 (A) (A) (A) (A) (A) (A) (A) (A) (A) (A) (A) (A)
                 (A) (A) (A) (A) (A) (A) (A) (A) (A) (A) (A) (A)
                 (A) (A) (A) (A) (A) (A) (A) (A) (A) (A) (A) (A)
                 (A) (A) (A) (A) (A) (A) (A) (A) (A) (A)
       Virtual   (A) (A) (A) (A) (A) (A) (A) (A) (A) (A) (A) (A)
                 (A) (A) (A) (A) (A) (A) (A) (A) (A) (A) (A) (A)
                 (A) (A) (A) (A) (A) (A) (A) (A) (A) (A) (A) (A)
                 (A) (A) (A) (A) (A) (A) (A) (A) (A) (A) (A) (A)
                 (A) (A) (A) (A) (A) (A) (A) (A) (A) (A) (A) (A)
                 (A) (A) (A) (A) (A) (A) (A) (A) (A) (A) (A) (A)
                 (A) (A) (A) (A) (A) (A) (A) (A) (A) (A) (A) (A)
                 (A) (A) (A) (A) (A) (A) (A) (A) (A) (A) (A) (A)
                 (A) (A) (A) (A) (A) (A) (A) (A) (A) (A) (A) (A)
                 (A) (A) (A) (A) (A) (A) (A) (A) (A) (A) (A) (A)
                 (A) (A) (A) (A) (A) (A) (A) (A) (A) (A) (A) (A)
                 (A) (A) (A) (A) (A) (A) (A) (A) (A) (A) (A) (A)
                 (A) (A) (A) (A) (A) (A) (A) (A) (A) (A) (A) (A)
                 (A) (A) (A) (A) (A) (A) (A) (A) (A) (A) (A) (A)
                 (A) (A) (A) (A) (A) (A) (A) (A) (A) (A) (A) (A)
                 (A) (A) (A) (A) (A) (A) (A) (A) (A) (A) (A) (A)
                 (A) (A) (A) (A) (A) (A) (A) (A) (A) (A) (A) (A)
                 (A) (A) (A) (A) (A) (A) (A) (A) (A) (A) (A) (A)
                 (A) (A) (A) (A) (A) (A) (A) (A) (A) (A) (A) (A)
                 (A) (A) (A) (A) (A) (A) (A) (A) (A) (A) (A) (A)
                 (A) (A) (A) (A) (A) (A) (A) (A) (A) (A) (A) (A)
                 (A) (A) (A) (A) (A) (A) (A) (A) (A) (A) (A) (A)
                 (A) (A) (A) (A) (A) (A) (A) (A) (A) (A) (A) (A)
                 (A) (A) (A) (A) (A) (A) (A) (A) (A) (A) (A) (A)
                 (A) (A) (A) (A) (A) (A) (A) (A) (A) (A) (A) (A)
                 (A) (A) (A) (A) (A) (A) (A) (A) (A) (A) (A) (A)
                 (A) (A) (A) (A) (A) (A) (A) (A) (A) (A) (A) (A)
                 (A) (A) (A) (A) (A) (A) (A) (A) (A) (A) (A) (A)
                 (A) (A) (A) (A) (A) (A) (A) (A) (A) (A) (A) (A)
                 (A) (A) (A) (A) (A) (A) (A) (A) (A) (A) (A) (A)
                 (A) (A) (A) (A) (A) (A) (A) (A) (A) (A) (A) (A)
                 (A) (A) (A) (A) (A) (A) (A) (A) (A) (A) (A) (A)
                 (A) (A) (A) (A) (A) (A) (A) (A) (A) (A) (A) (A)
                 (A) (A) (A) (A) (A) (A) (A) (A) (A) (A) (A) (A)
                 (A) (A) (A) (A) (A) (A) (A) (A) (A) (A) (A) (A)
                 (A) (A) (A) (A) (A) (A) (A) (A) (A) (A) (A) (A)
                 (A) (A) (A) (A) (A) (A) (A) (A) (A) (A) (A) (A)
                 (A) (A) (A) (A) (A) (A) (A) (A) (A) (A) (A) (A)
                 (A) (A) (A) (A) (A) (A) (A) (A) (A) (A) (A) (A)
                 (A) (A) (A) (A) (A) (A) (A) (A) (A) (A) (A) (A)
                 (A) (A) (A) (A) (A) (A) (A) (A) (A) (A) (A) (A)
                 (A) (A) (A) (A) (A) (A) (A) (A) (A) (A) (A) (A)
                 (A) (A) (A) (A) (A) (A) (A) (A) (A) (A) (A) (A)
                 (A) (A) (A) (A) (A) (A) (A) (A) (A) (A) (A) (A)
                 (A) (A) (A) (A) (A) (A) (A) (A) (A) (A) (A) (A)
                 (A) (A) (A) (A) (A) (A) (A) (A) (A) (A) (A) (A)
                 (A) (A) (A) (A) (A) (A) (A) (A) (A) (A) (A) (A)
                 (A) (A) (A) (A) (A) (A) (A) (A) (A) (A) (A) (A)
                 (A) (A) (A) (A) (A) (A) (A) (A) (A) (A) (A) (A)
                 (A) (A) (A) (A) (A) (A) (A) (A) (A) (A) (A) (A)
                 (A) (A) (A) (A) (A) (A) (A) (A) (A) (A) (A) (A)
                 (A) (A) (A) (A) (A) (A) (A) (A) (A) (A) (A) (A)
                 (A) (A) (A) (A) (A) (A) (A) (A) (A) (A) (A) (A)
                 (A) (A) (A) (A) (A) (A) (A) (A) (A) (A) (A) (A)
                 (A) (A) (A) (A) (A) (A) (A) (A) (A) (A) (A) (A)
                 (A) (A) (A) (A) (A) (A) (A) (A) (A) (A) (A) (A)
                 (A) (A) (A) (A) (A) (A) (A) (A) (A) (A) (A) (A)
                 (A) (A) (A) (A) (A) (A) (A) (A) (A) (A) (A) (A)
                 (A) (A) (A) (A) (A) (A) (A) (A) (A) (A) (A) (A)
                 (A) (A) (A) (A) (A) (A) (A) (A) (A) (A) (A) (A)
                 (A) (A) (A) (A) (A) (A) (A) (A) (A) (A) (A) (A)
                 (A) (A) (A) (A) (A) (A) (A) (A) (A) (A) (A) (A)
                 (A) (A) (A) (A) (A) (A) (A) (A) (A) (A) (A) (A)
                 (A) (A) (A) (A) (A) (A) (A) (A) (A) (A) (A) (A)
                 (A) (A) (A) (A) (A) (A) (A) (A) (A) (A) (A) (A)
                 (A) (A) (A) (A) (A) (A) (A) (A) (A) (A) (A) (A)
                 (A) (A) (A) (A) (A) (A) (A) (A) (A) (A) (A) (A)
                 (A) (A) (A) (A) (A) (A) (A) (A) (A) (A) (A) (A)
                 (A) (A) (A) (A) (A) (A) (A) (A) (A) (A) (A) (A)
                 (A) (A) (A) (A) (A) (A) (A) (A) (A) (A) (A) (A)
                 (A) (A) (A) (A) (A) (A) (A) (A) (A) (A) (A) (A)
                 (A) (A) (A) (A) (A) (A) (A) (A) (A) (A) (A) (A)
                 (A) (A) (A) (A) (A) (A) (A) (A) (A) (A) (A) (A)
                 (A) (A) (A) (A) (A) (A) (A) (A) (A) (A) (A) (A)
                 (A) (A) (A) (A) (A) (A) (A) (A) (A) (A) (A) (A)
                 (A) (A) (A) (A) (A) (A) (A) (A) (A) (A) (A) (A)
                 (A) (A) (A) (A) (A) (A) (A) (A) (A) (A) (A) (A)
                 (A) (A) (A) (A) (A) (A) (A) (A) (A) (A) (A) (A)
                 (A) (A) (A) (A) (A) (A) (A) (A) (A) (A) (A) (A)
                 (A) (A) (A) (A) (A) (A) (A) (A) (A) (A) (A) (A)
                 (A) (A) (A) (A) (A) (A) (A) (A) (A) (A) (A) (A)
                 (A) (A) (A) (A) (A) (A) (A) (A) (A) (A) (A) (A)
                 (A) (A) (A) (A) (A) (A) (A) (A) (A) (A) (A) (A)
                 (A) (A) (A) (A) (A) (A) (A) (A) (A) (A) (A) (A)
                 (A) (A) (A) (A) (A) (A) (A) (A) (A) (A) (A) (A)
                 (A) (A) (A) (A) (A) (A) (A) (A) (A) (A) (A) (A)
                 (A) (A) (A) (A) (A) (A) (A) (A) (A) (A) (A) (A)
                 (A) (A) (A) (A) (A) (A) (A) (A) (A) (A) (A) (A)
                 (A) (A) (A) (A) (A) (A) (A) (A) (A) (A) (A) (A)
                 (A) (A) (A) (A) (A) (A) (A) (A) (A) (A) (A) (A)
                 (A) (A) (A) (A) (A) (A) (A) (A) (A) (A) (A) (A)
                 (A) (A) (A) (A) (A) (A) (A) (A) (A) (A) (A) (A)
                 (A) (A) (A) (A) (A) (A) (A) (A) (A) (A) (A) (A)
                 (A) (A) (A) (A) (A) (A) (A) (A) (A) (A) (A) (A)
                 (A) (A) (A) (A) (A) (A) (A) (A) (A) (A) (A) (A)
                 (A) (A) (A) (A) (A) (A) (A) (A) (A) (A) (A) (A)
                 (A) (A) (A) (A) (A) (A) (A) (A) (A) (A) (A) (A)
                 (A) (A) (A) (A) (A) (A) (A) (A) (A) (A) (A) (A)
                 (A) (A) (A) (A) (A) (A) (A) (A) (A) (A) (A) (A)
                 (A) (A) (A) (A) (A) (A) (A) (A) (A) (A) (A) (A)
                 (A) (A) (A) (A) (A) (A) (A) (A) (A) (A) (A) (A)
                 (A) (A) (A) (A) (A) (A) (A) (A) (A) (A) (A) (A)
                 (A) (A) (A) (A) (A) (A) (A) (A) (A) (A) (A) (A)
                 (A) (A) (A) (A) (A) (A) (A) (A) (A) (A) (A) (A)
                 (A) (A) (A) (A) (A) (A) (A) (A) (A) (A) (A) (A)
                 (A) (A) (A) (A) (A) (A) (A) (A) (A) (A) (A) (A)
                 (A) (A) (A) (A) (A) (A) (A) (A) (A) (A) (A) (A)
                 (A) (A) (A) (A) (A) (A) (A) (A) (A) (A) (A) (A)
                 (A) (A) (A) (A) (A) (A) (A) (A) (A) (A) (A) (A)
                 (A) (A) (A) (A) (A) (A) (A) (A) (A) (A) (A) (A)
                 (A) (A) (A) (A) (A) (A) (A) (A) (A) (A) (A) (A)
                 (A) (A) (A) (A) (A) (A) (A) (A) (A) (A) (A) (A)
                 (A) (A) (A) (A) (A) (A) (A) (A) (A) (A) (A) (A)
                 (A) (A) (A) (A) (A) (A) (A) (A) (A) (A) (A) (A)
                 (A) (A) (A) (A) (A) (A) (A) (A) (A) (A) (A) (A)
                 (A) (A) (A) (A) (A) (A) (A) (A) (A) (A) (A) (A)
                 (A) (A) (A) (A) (A) (A) (A) (A) (A) (A) (A) (A)
                 (A) (A) (A) (A) (A) (A) (A) (A) (A) (A) (A) (A)
                 (A) (A) (A) (A) (A) (A) (A) (A) (A) (A) (A) (A)
                 (A) (A) (A) (A) (A) (A) (A) (A) (A) (A) (A) (A)
                 (A) (A) (A) (A) (A) (A) (A) (A) (A) (A) (A) (A)
                 (A) (A) (A) (A) (A) (A) (A) (A) (A) (A) (A) (A)
                 (A) (A) (A) (A) (A) (A) (A) (A) (A) (A) (A) (A)
                 (A) (A) (A) (A) (A) (A) (A) (A) (A) (A) (A) (A)
                 (A) (A) (A) (A) (A) (A) (A) (A) (A) (A) (A) (A)
                 (A) (A) (A) (A) (A) (A) (A) (A) (A) (A) (A) (A)
                 (A) (A) (A) (A) (A) (A) (A) (A) (A) (A) (A) (A)
                 (A) (A) (A) (A) (A) (A) (A) (A) (A) (A) (A) (A)
                 (A) (A) (A) (A) (A) (A) (A) (A) (A) (A) (A) (A)
                 (A) (A) (A) (A) (A) (A) (A) (A) (A) (A) (A) (A)
                 (A) (A) (A) (A) (A) (A) (A) (A) (A) (A) (A) (A)
                 (A) (A) (A) (A) (A) (A) (A) (A) (A) (A) (A) (A)
                 (A) (A) (A) (A) (A) (A) (A) (A) (A) (A) (A) (A)
                 (A) (A) (A) (A) (A) (A) (A) (A) (A) (A) (A) (A)
                 (A) (A) (A) (A) (A) (A) (A) (A) (A) (A) (A) (A)
                 (A) (A) (A) (A) (A) (A) (A) (A) (A) (A) (A) (A)
                 (A) (A) (A) (A) (A) (A) (A) (A) (A) (A) (A) (A)
                 (A) (A) (A) (A) (A) (A) (A) (A) (A) (A) (A) (A)
                 (A) (A) (A) (A) (A) (A) (A) (A) (A) (A) (A) (A)
                 (A) (A) (A) (A) (A) (A) (A) (A) (A) (A) (A) (A)
                 (A) (A) (A) (A) (A) (A) (A) (A) (A) (A) (A) (A)
                 (A) (A) (A) (A) (A) (A) (A) (A) (A) (A) (A) (A)
                 (A) (A) (A) (A) (A) (A) (A) (A) (A) (A) (A) (A)
                 (A) (A) (A) (A) (A) (A) (A) (A) (A) (A) (A) (A)
                 (A) (A) (A) (A) (A) (A) (A) (A) (A) (A) (A) (A)
                 (A) (A) (A) (A) (A) (A) (A) (A) (A) (A) (A) (A)
                 (A) (A) (A) (A) (A) (A) (A) (A) (A) (A) (A) (A)
                 (A) (A) (A) (A) (A) (A) (A) (A) (A) (A) (A) (A)
                 (A) (A) (A) (A) (A) (A) (A) (A) (A) (A) (A) (A)
                 (A) (A) (A) (A) (A) (A) (A) (A) (A) (A) (A) (A)
                 (A) (A) (A) (A) (A) (A) (A) (A) (A) (A) (A) (A)
                 (A) (A) (A) (A) (A) (A) (A) (A) (A) (A) (A) (A)
                 (A) (A) (A) (A) (A) (A) (A) (A) (A) (A) (A) (A)
                 (A) (A) (A) (A) (A) (A) (A) (A) (A) (A) (A) (A)
                 (A) (A) (A) (A) (A) (A) (A) (A) (A) (A) (A) (A)
                 (A) (A) (A) (A) (A) (A) (A) (A) (A) (A) (A) (A)
                 (A) (A) (A) (A) (A) (A) (A) (A) (A) (A) (A) (A)
                 (A) (A) (A) (A) (A) (A) (A) (A) (A) (A) (A) (A)
                 (A) (A) (A) (A) (A) (A) (A) (A) (A) (A) (A) (A)
                 (A) (A) (A) (A) (A) (A) (A) (A) (A) (A) (A) (A)
                 (A) (A) (A) (A) (A) (A) (A) (A) (A) (A) (A) (A)
                 (A) (A) (A) (A) (A) (A) (A) (A) (A) (A) (A) (A)
                 (A) (A) (A) (A) (A) (A) (A) (A) (A) (A) (A) (A)
                 (A) (A) (A) (A) (A) (A) (A) (A) (A) (A) (A) (A)
                 (A) (A) (A) (A) (A) (A)
 Beta  Orbitals:
       Occupied  (A) (A) (A) (A) (A) (A) (A) (A) (A) (A) (A) (A)
                 (A) (A) (A) (A) (A) (A) (A) (A) (A) (A) (A) (A)
                 (A) (A) (A) (A) (A) (A) (A) (A) (A) (A) (A) (A)
                 (A) (A) (A) (A) (A) (A) (A) (A) (A) (A) (A) (A)
                 (A) (A) (A) (A) (A) (A) (A) (A) (A) (A) (A) (A)
                 (A) (A) (A) (A) (A) (A) (A) (A) (A) (A) (A) (A)
                 (A) (A) (A) (A) (A) (A) (A) (A) (A) (A) (A) (A)
                 (A) (A) (A) (A) (A) (A) (A) (A) (A) (A) (A) (A)
                 (A) (A) (A) (A) (A) (A) (A) (A) (A) (A) (A) (A)
                 (A) (A) (A) (A) (A) (A) (A) (A) (A) (A) (A) (A)
                 (A) (A) (A) (A) (A) (A) (A) (A) (A) (A) (A) (A)
                 (A) (A) (A) (A) (A) (A) (A) (A) (A) (A) (A) (A)
                 (A) (A) (A) (A) (A) (A) (A) (A) (A) (A) (A) (A)
                 (A) (A) (A) (A) (A) (A) (A) (A) (A) (A) (A) (A)
                 (A) (A) (A) (A) (A) (A) (A) (A) (A) (A) (A) (A)
                 (A) (A) (A) (A) (A) (A) (A) (A) (A)
       Virtual   (A) (A) (A) (A) (A) (A) (A) (A) (A) (A) (A) (A)
                 (A) (A) (A) (A) (A) (A) (A) (A) (A) (A) (A) (A)
                 (A) (A) (A) (A) (A) (A) (A) (A) (A) (A) (A) (A)
                 (A) (A) (A) (A) (A) (A) (A) (A) (A) (A) (A) (A)
                 (A) (A) (A) (A) (A) (A) (A) (A) (A) (A) (A) (A)
                 (A) (A) (A) (A) (A) (A) (A) (A) (A) (A) (A) (A)
                 (A) (A) (A) (A) (A) (A) (A) (A) (A) (A) (A) (A)
                 (A) (A) (A) (A) (A) (A) (A) (A) (A) (A) (A) (A)
                 (A) (A) (A) (A) (A) (A) (A) (A) (A) (A) (A) (A)
                 (A) (A) (A) (A) (A) (A) (A) (A) (A) (A) (A) (A)
                 (A) (A) (A) (A) (A) (A) (A) (A) (A) (A) (A) (A)
                 (A) (A) (A) (A) (A) (A) (A) (A) (A) (A) (A) (A)
                 (A) (A) (A) (A) (A) (A) (A) (A) (A) (A) (A) (A)
                 (A) (A) (A) (A) (A) (A) (A) (A) (A) (A) (A) (A)
                 (A) (A) (A) (A) (A) (A) (A) (A) (A) (A) (A) (A)
                 (A) (A) (A) (A) (A) (A) (A) (A) (A) (A) (A) (A)
                 (A) (A) (A) (A) (A) (A) (A) (A) (A) (A) (A) (A)
                 (A) (A) (A) (A) (A) (A) (A) (A) (A) (A) (A) (A)
                 (A) (A) (A) (A) (A) (A) (A) (A) (A) (A) (A) (A)
                 (A) (A) (A) (A) (A) (A) (A) (A) (A) (A) (A) (A)
                 (A) (A) (A) (A) (A) (A) (A) (A) (A) (A) (A) (A)
                 (A) (A) (A) (A) (A) (A) (A) (A) (A) (A) (A) (A)
                 (A) (A) (A) (A) (A) (A) (A) (A) (A) (A) (A) (A)
                 (A) (A) (A) (A) (A) (A) (A) (A) (A) (A) (A) (A)
                 (A) (A) (A) (A) (A) (A) (A) (A) (A) (A) (A) (A)
                 (A) (A) (A) (A) (A) (A) (A) (A) (A) (A) (A) (A)
                 (A) (A) (A) (A) (A) (A) (A) (A) (A) (A) (A) (A)
                 (A) (A) (A) (A) (A) (A) (A) (A) (A) (A) (A) (A)
                 (A) (A) (A) (A) (A) (A) (A) (A) (A) (A) (A) (A)
                 (A) (A) (A) (A) (A) (A) (A) (A) (A) (A) (A) (A)
                 (A) (A) (A) (A) (A) (A) (A) (A) (A) (A) (A) (A)
                 (A) (A) (A) (A) (A) (A) (A) (A) (A) (A) (A) (A)
                 (A) (A) (A) (A) (A) (A) (A) (A) (A) (A) (A) (A)
                 (A) (A) (A) (A) (A) (A) (A) (A) (A) (A) (A) (A)
                 (A) (A) (A) (A) (A) (A) (A) (A) (A) (A) (A) (A)
                 (A) (A) (A) (A) (A) (A) (A) (A) (A) (A) (A) (A)
                 (A) (A) (A) (A) (A) (A) (A) (A) (A) (A) (A) (A)
                 (A) (A) (A) (A) (A) (A) (A) (A) (A) (A) (A) (A)
                 (A) (A) (A) (A) (A) (A) (A) (A) (A) (A) (A) (A)
                 (A) (A) (A) (A) (A) (A) (A) (A) (A) (A) (A) (A)
                 (A) (A) (A) (A) (A) (A) (A) (A) (A) (A) (A) (A)
                 (A) (A) (A) (A) (A) (A) (A) (A) (A) (A) (A) (A)
                 (A) (A) (A) (A) (A) (A) (A) (A) (A) (A) (A) (A)
                 (A) (A) (A) (A) (A) (A) (A) (A) (A) (A) (A) (A)
                 (A) (A) (A) (A) (A) (A) (A) (A) (A) (A) (A) (A)
                 (A) (A) (A) (A) (A) (A) (A) (A) (A) (A) (A) (A)
                 (A) (A) (A) (A) (A) (A) (A) (A) (A) (A) (A) (A)
                 (A) (A) (A) (A) (A) (A) (A) (A) (A) (A) (A) (A)
                 (A) (A) (A) (A) (A) (A) (A) (A) (A) (A) (A) (A)
                 (A) (A) (A) (A) (A) (A) (A) (A) (A) (A) (A) (A)
                 (A) (A) (A) (A) (A) (A) (A) (A) (A) (A) (A) (A)
                 (A) (A) (A) (A) (A) (A) (A) (A) (A) (A) (A) (A)
                 (A) (A) (A) (A) (A) (A) (A) (A) (A) (A) (A) (A)
                 (A) (A) (A) (A) (A) (A) (A) (A) (A) (A) (A) (A)
                 (A) (A) (A) (A) (A) (A) (A) (A) (A) (A) (A) (A)
                 (A) (A) (A) (A) (A) (A) (A) (A) (A) (A) (A) (A)
                 (A) (A) (A) (A) (A) (A) (A) (A) (A) (A) (A) (A)
                 (A) (A) (A) (A) (A) (A) (A) (A) (A) (A) (A) (A)
                 (A) (A) (A) (A) (A) (A) (A) (A) (A) (A) (A) (A)
                 (A) (A) (A) (A) (A) (A) (A) (A) (A) (A) (A) (A)
                 (A) (A) (A) (A) (A) (A) (A) (A) (A) (A) (A) (A)
                 (A) (A) (A) (A) (A) (A) (A) (A) (A) (A) (A) (A)
                 (A) (A) (A) (A) (A) (A) (A) (A) (A) (A) (A) (A)
                 (A) (A) (A) (A) (A) (A) (A) (A) (A) (A) (A) (A)
                 (A) (A) (A) (A) (A) (A) (A) (A) (A) (A) (A) (A)
                 (A) (A) (A) (A) (A) (A) (A) (A) (A) (A) (A) (A)
                 (A) (A) (A) (A) (A) (A) (A) (A) (A) (A) (A) (A)
                 (A) (A) (A) (A) (A) (A) (A) (A) (A) (A) (A) (A)
                 (A) (A) (A) (A) (A) (A) (A) (A) (A) (A) (A) (A)
                 (A) (A) (A) (A) (A) (A) (A) (A) (A) (A) (A) (A)
                 (A) (A) (A) (A) (A) (A) (A) (A) (A) (A) (A) (A)
                 (A) (A) (A) (A) (A) (A) (A) (A) (A) (A) (A) (A)
                 (A) (A) (A) (A) (A) (A) (A) (A) (A) (A) (A) (A)
                 (A) (A) (A) (A) (A) (A) (A) (A) (A) (A) (A) (A)
                 (A) (A) (A) (A) (A) (A) (A) (A) (A) (A) (A) (A)
                 (A) (A) (A) (A) (A) (A) (A) (A) (A) (A) (A) (A)
                 (A) (A) (A) (A) (A) (A) (A) (A) (A) (A) (A) (A)
                 (A) (A) (A) (A) (A) (A) (A) (A) (A) (A) (A) (A)
                 (A) (A) (A) (A) (A) (A) (A) (A) (A) (A) (A) (A)
                 (A) (A) (A) (A) (A) (A) (A) (A) (A) (A) (A) (A)
                 (A) (A) (A) (A) (A) (A) (A) (A) (A) (A) (A) (A)
                 (A) (A) (A) (A) (A) (A) (A) (A) (A) (A) (A) (A)
                 (A) (A) (A) (A) (A) (A) (A) (A) (A) (A) (A) (A)
                 (A) (A) (A) (A) (A) (A) (A) (A) (A) (A) (A) (A)
                 (A) (A) (A) (A) (A) (A) (A) (A) (A) (A) (A) (A)
                 (A) (A) (A) (A) (A) (A) (A) (A) (A) (A) (A) (A)
                 (A) (A) (A) (A) (A) (A) (A) (A) (A) (A) (A) (A)
                 (A) (A) (A) (A) (A) (A) (A) (A) (A) (A) (A) (A)
                 (A) (A) (A) (A) (A) (A) (A) (A) (A) (A) (A) (A)
                 (A) (A) (A) (A) (A) (A) (A) (A) (A) (A) (A) (A)
                 (A) (A) (A) (A) (A) (A) (A) (A) (A) (A) (A) (A)
                 (A) (A) (A) (A) (A) (A) (A) (A) (A) (A) (A) (A)
                 (A) (A) (A) (A) (A) (A) (A) (A) (A) (A) (A) (A)
                 (A) (A) (A) (A) (A) (A) (A) (A) (A) (A) (A) (A)
                 (A) (A) (A) (A) (A) (A) (A) (A) (A) (A) (A) (A)
                 (A) (A) (A) (A) (A) (A) (A) (A) (A) (A) (A) (A)
                 (A) (A) (A) (A) (A) (A) (A) (A) (A) (A) (A) (A)
                 (A) (A) (A) (A) (A) (A) (A) (A) (A) (A) (A) (A)
                 (A) (A) (A) (A) (A) (A) (A) (A) (A) (A) (A) (A)
                 (A) (A) (A) (A) (A) (A) (A) (A) (A) (A) (A) (A)
                 (A) (A) (A) (A) (A) (A) (A) (A) (A) (A) (A) (A)
                 (A) (A) (A) (A) (A) (A) (A) (A) (A) (A) (A) (A)
                 (A) (A) (A) (A) (A) (A) (A) (A) (A) (A) (A) (A)
                 (A) (A) (A) (A) (A) (A) (A) (A) (A) (A) (A) (A)
                 (A) (A) (A) (A) (A) (A) (A) (A) (A) (A) (A) (A)
                 (A) (A) (A) (A) (A) (A) (A) (A) (A) (A) (A) (A)
                 (A) (A) (A) (A) (A) (A) (A) (A) (A) (A) (A) (A)
                 (A) (A) (A) (A) (A) (A) (A) (A) (A) (A) (A) (A)
                 (A) (A) (A) (A) (A) (A) (A) (A) (A) (A) (A) (A)
                 (A) (A) (A) (A) (A) (A) (A) (A) (A) (A) (A) (A)
                 (A) (A) (A) (A) (A) (A) (A) (A) (A) (A) (A) (A)
                 (A) (A) (A) (A) (A) (A) (A) (A) (A) (A) (A) (A)
                 (A) (A) (A) (A) (A) (A) (A) (A) (A) (A) (A) (A)
                 (A) (A) (A) (A) (A) (A) (A) (A) (A) (A) (A) (A)
[...]
              Bcc     0.0322     4.322     1.542     1.442  0.3966  0.9147 -0.0781
 
              Baa    -0.0648    -8.693    -3.102    -2.900  0.8935 -0.4460 -0.0518
    27 C(13)  Bbb    -0.0567    -7.606    -2.714    -2.537  0.4418  0.8939 -0.0756
              Bcc     0.1215    16.299     5.816     5.437  0.0800  0.0447  0.9958
 
              Baa    -0.0408    -5.474    -1.953    -1.826  0.0761  0.0466  0.9960
    28 C(13)  Bbb     0.0163     2.184     0.779     0.728  0.9104 -0.4106 -0.0503
              Bcc     0.0245     3.291     1.174     1.098  0.4066  0.9106 -0.0737
 
              Baa    -0.0415    -5.563    -1.985    -1.856  0.8055 -0.5917 -0.0312
    29 C(13)  Bbb    -0.0313    -4.202    -1.499    -1.402  0.5879  0.8047 -0.0829
              Bcc     0.0728     9.765     3.485     3.257  0.0741  0.0484  0.9961
 
              Baa    -0.0145    -1.946    -0.694    -0.649  0.1531  0.0130  0.9881
    30 C(13)  Bbb    -0.0079    -1.063    -0.379    -0.355  0.9052 -0.4031 -0.1350
              Bcc     0.0224     3.009     1.074     1.004  0.3965  0.9151 -0.0734
 
              Baa    -0.3784   -14.596    -5.208    -4.869  0.9137 -0.4018 -0.0614
    31 N(14)  Bbb    -0.3647   -14.065    -5.019    -4.692  0.3973  0.9147 -0.0744
              Bcc     0.7431    28.661    10.227     9.560  0.0861  0.0436  0.9953
 
              Baa    -0.4589    33.208    11.849    11.077  0.9930  0.0758 -0.0904
    32 O(17)  Bbb    -0.4167    30.156    10.760    10.059 -0.0795  0.9961 -0.0377
              Bcc     0.8757   -63.363   -22.610   -21.136  0.0871  0.0446  0.9952
 
              Baa    -0.4812    34.821    12.425    11.615 -0.5319  0.8468  0.0100
    33 O(17)  Bbb    -0.4381    31.700    11.311    10.574  0.8424  0.5303 -0.0952
              Bcc     0.9193   -66.521   -23.736   -22.189  0.0859  0.0422  0.9954
 
              Baa    -0.0769   -10.323    -3.683    -3.443  0.9505 -0.3052 -0.0576
    34 C(13)  Bbb    -0.0672    -9.015    -3.217    -3.007  0.3010  0.9509 -0.0716
              Bcc     0.1441    19.338     6.900     6.450  0.0766  0.0507  0.9958
 
              Baa    -0.0742    -9.956    -3.552    -3.321  0.0734  0.0622  0.9954
    35 C(13)  Bbb     0.0333     4.462     1.592     1.488  0.9749 -0.2149 -0.0584
              Bcc     0.0409     5.493     1.960     1.832  0.2103  0.9746 -0.0764
 
              Baa    -0.0712    -9.555    -3.409    -3.187  0.7651 -0.6434 -0.0246
    36 C(13)  Bbb    -0.0646    -8.670    -3.094    -2.892  0.6371  0.7620 -0.1164
              Bcc     0.1358    18.225     6.503     6.079  0.0936  0.0734  0.9929
 
              Baa    -0.0017    -0.234    -0.083    -0.078 -0.6854  0.7272 -0.0378
    37 C(13)  Bbb    -0.0001    -0.007    -0.003    -0.002  0.7213  0.6852  0.1013
              Bcc     0.0018     0.241     0.086     0.080 -0.0996 -0.0421  0.9941
 
              Baa    -0.0027    -0.360    -0.128    -0.120 -0.1185 -0.1572  0.9804
    38 C(13)  Bbb    -0.0011    -0.143    -0.051    -0.048  0.7426  0.6414  0.1926
              Bcc     0.0037     0.502     0.179     0.168 -0.6592  0.7509  0.0407
 
              Baa    -0.0003    -0.038    -0.013    -0.013  0.0031  0.9494 -0.3141
    39 C(13)  Bbb    -0.0002    -0.025    -0.009    -0.008  0.5849  0.2531  0.7706
              Bcc     0.0005     0.063     0.022     0.021  0.8111 -0.1861 -0.5545
 
              Baa    -0.0454    -1.751    -0.625    -0.584  0.1292  0.9857  0.1084
    40 N(14)  Bbb    -0.0422    -1.629    -0.581    -0.543  0.9915 -0.1271 -0.0262
              Bcc     0.0876     3.380     1.206     1.128  0.0120 -0.1109  0.9938
 
              Baa    -0.0008    -0.140    -0.050    -0.047 -0.0140 -0.0546  0.9984
    41 B(11)  Bbb    -0.0004    -0.065    -0.023    -0.022  0.9984  0.0538  0.0170
              Bcc     0.0012     0.205     0.073     0.068 -0.0546  0.9971  0.0538
 
              Baa    -0.0023    -1.180    -0.421    -0.394  0.4078 -0.2920  0.8651
    42 F(19)  Bbb    -0.0015    -0.743    -0.265    -0.248 -0.4213  0.7804  0.4620
              Bcc     0.0038     1.923     0.686     0.641  0.8101  0.5529 -0.1952
 
              Baa    -0.0041    -2.041    -0.728    -0.681 -0.1951 -0.5282  0.8264
    43 F(19)  Bbb    -0.0028    -1.395    -0.498    -0.465 -0.6069  0.7269  0.3213
              Bcc     0.0068     3.436     1.226     1.146  0.7705  0.4388  0.4624
 
              Baa    -0.0061    -0.235    -0.084    -0.078 -0.0962 -0.0095  0.9953
    44 N(14)  Bbb     0.0022     0.086     0.031     0.029  0.0826  0.9964  0.0175
              Bcc     0.0039     0.149     0.053     0.050  0.9919 -0.0839  0.0950
 
              Baa    -0.0235    -3.151    -1.124    -1.051 -0.1187  0.9917  0.0496
    45 C(13)  Bbb    -0.0223    -2.986    -1.065    -0.996  0.9918  0.1160  0.0533
              Bcc     0.0457     6.137     2.190     2.047 -0.0471 -0.0555  0.9973
 
              Baa    -0.0006    -0.078    -0.028    -0.026 -0.6022  0.7983 -0.0127
    46 C(13)  Bbb     0.0001     0.019     0.007     0.006  0.7913  0.5989  0.1231
              Bcc     0.0004     0.059     0.021     0.020 -0.1059 -0.0640  0.9923
 
              Baa    -0.0011    -0.154    -0.055    -0.051 -0.0835 -0.1377  0.9869
    47 C(13)  Bbb     0.0001     0.011     0.004     0.004  0.4406  0.8832  0.1605
              Bcc     0.0011     0.143     0.051     0.048  0.8938 -0.4483  0.0131
 
              Baa    -0.0207    -2.771    -0.989    -0.924  0.4191  0.9061  0.0575
    48 C(13)  Bbb    -0.0191    -2.566    -0.916    -0.856  0.9066 -0.4211  0.0287
              Bcc     0.0398     5.337     1.905     1.780 -0.0502 -0.0402  0.9979
 
              Baa    -0.0008    -0.104    -0.037    -0.035  0.2481  0.9671  0.0565
    49 C(13)  Bbb     0.0001     0.020     0.007     0.007  0.9677 -0.2501  0.0312
              Bcc     0.0006     0.084     0.030     0.028 -0.0443 -0.0470  0.9979
 
              Baa    -0.0015    -0.203    -0.072    -0.068  0.7916  0.6099  0.0383
    50 C(13)  Bbb     0.0003     0.042     0.015     0.014 -0.5902  0.7468  0.3066
              Bcc     0.0012     0.161     0.057     0.054  0.1584 -0.2653  0.9511
 
              Baa    -0.0013    -0.171    -0.061    -0.057 -0.5694 -0.2517  0.7826
    51 C(13)  Bbb    -0.0011    -0.142    -0.051    -0.047 -0.4999  0.8617 -0.0866
              Bcc     0.0023     0.313     0.112     0.105  0.6526  0.4406  0.6165
 
              Baa    -0.0005    -0.065    -0.023    -0.022  0.7003 -0.6959  0.1589
    52 C(13)  Bbb    -0.0003    -0.045    -0.016    -0.015 -0.3024 -0.0876  0.9492
              Bcc     0.0008     0.110     0.039     0.037  0.6466  0.7128  0.2717
 
              Baa    -0.0001    -0.007    -0.003    -0.002  0.0322  0.0456  0.9984
    53 C(13)  Bbb    -0.0000    -0.003    -0.001    -0.001 -0.1134  0.9927 -0.0416
              Bcc     0.0001     0.010     0.004     0.003  0.9930  0.1118 -0.0372
 
              Baa    -0.0000    -0.005    -0.002    -0.002  0.0114  0.0269  0.9996
    54 C(13)  Bbb    -0.0000    -0.003    -0.001    -0.001 -0.1094  0.9937 -0.0255
              Bcc     0.0001     0.008     0.003     0.003  0.9939  0.1090 -0.0143
 
              Baa    -0.0000    -0.013    -0.005    -0.004 -0.0960 -0.0551  0.9939
    55 H(1)   Bbb    -0.0000    -0.009    -0.003    -0.003 -0.0434  0.9977  0.0511
              Bcc     0.0000     0.022     0.008     0.007  0.9944  0.0382  0.0982
 
              Baa    -0.0000    -0.011    -0.004    -0.004 -0.0659 -0.0300  0.9974
    56 H(1)   Bbb    -0.0000    -0.008    -0.003    -0.003 -0.0791  0.9966  0.0247
              Bcc     0.0000     0.019     0.007     0.006  0.9947  0.0773  0.0681
 
              Baa    -0.0000    -0.016    -0.006    -0.005 -0.0044  0.0146  0.9999
    57 H(1)   Bbb    -0.0000    -0.011    -0.004    -0.004 -0.0152  0.9998 -0.0147
              Bcc     0.0001     0.027     0.010     0.009  0.9999  0.0152  0.0042
 
              Baa    -0.0000    -0.026    -0.009    -0.009  0.0348  0.0447  0.9984
    58 H(1)   Bbb    -0.0000    -0.015    -0.005    -0.005 -0.0413  0.9982 -0.0433
              Bcc     0.0001     0.041     0.014     0.014  0.9985  0.0397 -0.0366
 
              Baa    -0.0001    -0.048    -0.017    -0.016  0.1248  0.1317  0.9834
    59 H(1)   Bbb    -0.0000    -0.009    -0.003    -0.003 -0.2314  0.9677 -0.1003
              Bcc     0.0001     0.057     0.020     0.019  0.9648  0.2151 -0.1512
 
              Baa    -0.0001    -0.044    -0.016    -0.015  0.1508  0.1481  0.9774
    60 H(1)   Bbb    -0.0000    -0.018    -0.006    -0.006 -0.1905  0.9745 -0.1183
              Bcc     0.0001     0.062     0.022     0.021  0.9700  0.1683 -0.1752
 
              Baa    -0.0002    -0.081    -0.029    -0.027  0.3344  0.1675  0.9274
    61 H(1)   Bbb    -0.0001    -0.035    -0.012    -0.012 -0.4454  0.8953 -0.0011
              Bcc     0.0002     0.116     0.041     0.039  0.8305  0.4127 -0.3740
 
              Baa    -0.0004    -0.239    -0.085    -0.080 -0.0070  0.8898  0.4563
    62 H(1)   Bbb    -0.0003    -0.159    -0.057    -0.053  0.8315 -0.2483  0.4969
              Bcc     0.0007     0.397     0.142     0.133 -0.5555 -0.3829  0.7382
 
              Baa    -0.0004    -0.195    -0.069    -0.065 -0.5876 -0.2117  0.7810
    63 H(1)   Bbb    -0.0002    -0.084    -0.030    -0.028  0.6753  0.4035  0.6174
              Bcc     0.0005     0.279     0.100     0.093 -0.4458  0.8902 -0.0942
 
              Baa    -0.0003    -0.153    -0.055    -0.051 -0.0534  0.0182  0.9984
    64 H(1)   Bbb    -0.0002    -0.101    -0.036    -0.034  0.4942  0.8693  0.0106
              Bcc     0.0005     0.254     0.091     0.085  0.8677 -0.4940  0.0554
 
              Baa    -0.0003    -0.177    -0.063    -0.059  0.5632  0.1481  0.8130
    65 H(1)   Bbb    -0.0002    -0.088    -0.031    -0.029  0.7022  0.4328 -0.5653
              Bcc     0.0005     0.265     0.094     0.088 -0.4355  0.8893  0.1397
 
              Baa    -0.0005    -0.263    -0.094    -0.088  0.0178  0.3514  0.9361
    66 H(1)   Bbb    -0.0003    -0.142    -0.051    -0.048  0.1383  0.9264 -0.3503
              Bcc     0.0008     0.406     0.145     0.135  0.9902 -0.1357  0.0321
 
              Baa    -0.0034    -1.818    -0.649    -0.606  0.9339 -0.3573  0.0074
    67 H(1)   Bbb    -0.0007    -0.367    -0.131    -0.122 -0.0033  0.0122  0.9999
              Bcc     0.0041     2.185     0.780     0.729  0.3574  0.9339 -0.0102
 
              Baa    -0.0010    -0.541    -0.193    -0.181  0.0636  0.4607  0.8853
    68 H(1)   Bbb    -0.0007    -0.383    -0.137    -0.128  0.1043  0.8791 -0.4650
              Bcc     0.0017     0.924     0.330     0.308  0.9925 -0.1219 -0.0079
 
              Baa    -0.0019    -1.034    -0.369    -0.345  0.0959  0.0430  0.9945
    69 H(1)   Bbb    -0.0016    -0.849    -0.303    -0.283  0.9365 -0.3423 -0.0755
              Bcc     0.0035     1.883     0.672     0.628  0.3372  0.9386 -0.0731
 
              Baa    -0.0040    -2.121    -0.757    -0.707  0.0776  0.0505  0.9957
    70 H(1)   Bbb     0.0010     0.548     0.195     0.183  0.4792  0.8739 -0.0816
              Bcc     0.0029     1.573     0.561     0.525  0.8743 -0.4834 -0.0436
 
              Baa    -0.0038    -2.036    -0.727    -0.679  0.0713 -0.0587  0.9957
    71 H(1)   Bbb    -0.0037    -1.953    -0.697    -0.651  0.0420  0.9976  0.0558
              Bcc     0.0075     3.989     1.423     1.331  0.9966 -0.0378 -0.0736
 
              Baa    -0.0039    -2.084    -0.744    -0.695  0.9846 -0.1341 -0.1117
    72 H(1)   Bbb    -0.0015    -0.825    -0.294    -0.275  0.1185  0.0434  0.9920
              Bcc     0.0055     2.908     1.038     0.970  0.1282  0.9900 -0.0587
 
              Baa    -0.0014    -0.737    -0.263    -0.246  0.9078 -0.4182  0.0320
    73 H(1)   Bbb    -0.0007    -0.393    -0.140    -0.131  0.2009  0.5006  0.8421
              Bcc     0.0021     1.130     0.403     0.377  0.3681  0.7580 -0.5384
 
              Baa    -0.0011    -0.603    -0.215    -0.201 -0.4337  0.6641 -0.6090
    74 H(1)   Bbb    -0.0008    -0.410    -0.146    -0.137 -0.3462  0.5012  0.7930
              Bcc     0.0019     1.013     0.361     0.338  0.8319  0.5548  0.0125
 
              Baa    -0.0006    -0.340    -0.121    -0.113  0.1209 -0.0723  0.9900
    75 H(1)   Bbb    -0.0003    -0.155    -0.055    -0.052  0.9674 -0.2149 -0.1338
              Bcc     0.0009     0.494     0.176     0.165  0.2225  0.9739  0.0440
 
              Baa    -0.0007    -0.385    -0.137    -0.128  0.6624 -0.4021  0.6320
    76 H(1)   Bbb    -0.0005    -0.285    -0.102    -0.095  0.7479  0.4032 -0.5273
              Bcc     0.0013     0.670     0.239     0.223 -0.0428  0.8220  0.5679
 
              Baa    -0.0008    -0.452    -0.161    -0.151  0.0869  0.4305  0.8984
    77 H(1)   Bbb    -0.0001    -0.071    -0.025    -0.024  0.9961 -0.0264 -0.0837
              Bcc     0.0010     0.524     0.187     0.175 -0.0123  0.9022 -0.4312
 
              Baa    -0.0009    -0.498    -0.178    -0.166 -0.0755 -0.1968  0.9775
    78 H(1)   Bbb    -0.0000    -0.021    -0.008    -0.007  0.9968  0.0126  0.0795
              Bcc     0.0010     0.519     0.185     0.173 -0.0279  0.9804  0.1953
 
              Baa    -0.0005    -0.264    -0.094    -0.088 -0.2663  0.0098  0.9638
    79 H(1)   Bbb    -0.0004    -0.238    -0.085    -0.079  0.8979 -0.3611  0.2518
              Bcc     0.0009     0.501     0.179     0.167  0.3506  0.9325  0.0874
 
              Baa    -0.0006    -0.315    -0.112    -0.105  0.3825  0.0019  0.9239
    80 H(1)   Bbb    -0.0002    -0.116    -0.041    -0.039 -0.4072  0.8980  0.1668
              Bcc     0.0008     0.431     0.154     0.144  0.8294  0.4400 -0.3443
 
              Baa    -0.0006    -0.327    -0.117    -0.109 -0.4050 -0.1376  0.9039
    81 H(1)   Bbb    -0.0002    -0.093    -0.033    -0.031 -0.3778  0.9254 -0.0284
              Bcc     0.0008     0.419     0.150     0.140  0.8326  0.3530  0.4268
 
              Baa    -0.0006    -0.334    -0.119    -0.111 -0.0443 -0.0367  0.9983
    82 H(1)   Bbb    -0.0004    -0.210    -0.075    -0.070  0.6500  0.7579  0.0567
              Bcc     0.0010     0.544     0.194     0.181  0.7587 -0.6514  0.0097
 
              Baa    -0.0004    -0.226    -0.081    -0.076  0.4145  0.8845  0.2141
    83 H(1)   Bbb    -0.0004    -0.216    -0.077    -0.072 -0.1078 -0.1859  0.9766
              Bcc     0.0008     0.443     0.158     0.148  0.9036 -0.4279  0.0183
 
              Baa    -0.0006    -0.325    -0.116    -0.109  0.2425  0.3033  0.9215
    84 H(1)   Bbb    -0.0002    -0.132    -0.047    -0.044 -0.2543  0.9365 -0.2413
              Bcc     0.0009     0.457     0.163     0.153  0.9362  0.1758 -0.3042
 
              Baa    -0.0006    -0.325    -0.116    -0.108 -0.3254 -0.4199  0.8472
    85 H(1)   Bbb    -0.0003    -0.135    -0.048    -0.045 -0.2843  0.8980  0.3358
              Bcc     0.0009     0.459     0.164     0.153  0.9018  0.1316  0.4116
 
              Baa    -0.0004    -0.239    -0.085    -0.080 -0.0278  0.9404 -0.3388
    86 H(1)   Bbb    -0.0003    -0.164    -0.059    -0.055  0.8578 -0.1516 -0.4912
              Bcc     0.0008     0.403     0.144     0.134  0.5133  0.3043  0.8024
 
              Baa    -0.0002    -0.081    -0.029    -0.027 -0.4345 -0.1721  0.8841
    87 H(1)   Bbb    -0.0001    -0.036    -0.013    -0.012 -0.3990  0.9168 -0.0176
              Bcc     0.0002     0.116     0.041     0.039  0.8075  0.3604  0.4670
 
              Baa    -0.0001    -0.032    -0.012    -0.011  0.0459  0.0550  0.9974
    88 H(1)   Bbb    -0.0000    -0.013    -0.005    -0.004 -0.1114  0.9925 -0.0496
              Bcc     0.0001     0.045     0.016     0.015  0.9927  0.1089 -0.0517
 
              Baa    -0.0000    -0.020    -0.007    -0.007  0.0077  0.0253  0.9996
    89 H(1)   Bbb    -0.0000    -0.012    -0.004    -0.004 -0.1313  0.9910 -0.0241
              Bcc     0.0001     0.033     0.012     0.011  0.9913  0.1311 -0.0110
 

 ---------------------------------------------------------------------------------

 No NMR shielding tensors so no spin-rotation constants.
 Leave Link  601 at Sat Oct 25 12:25:59 2025, MaxMem= 30870077440 cpu:             245.0 elap:               4.3
 (Enter /public/software/gauss/g16/l9999.exe)
 1\1\GINC-CU056\SP\UM062X\def2TZVPP\C42H35B1F2N4O5(1-,2)\BAIDING\25-Oct
 -2025\0\\#p M062X/DEF2TZVPP scrf=(solvent=water) em=GD3\\Energy calcul
 ation for BONO_NO2_reduced\\-1,2\C,0,12.86184,3.105794,0.973633\N,0,11
 .965147,3.591316,0.163635\O,0,12.092539,4.731348,-0.441247\C,0,10.7266
 81,2.866066,-0.10068\C,0,10.705465,1.472186,-0.158337\C,0,9.49898,0.82
 4599,-0.415181\C,0,8.317243,1.549363,-0.619846\C,0,7.014452,0.836963,-
 0.880792\C,0,6.316888,0.355246,0.38904\O,0,6.826733,0.524056,1.495227\
 C,0,4.996344,-0.330791,0.258786\C,0,4.398305,-0.594562,-0.983877\C,0,3
 .166451,-1.242503,-1.050217\C,0,2.503613,-1.635343,0.120458\C,0,1.1851
 05,-2.33538,0.04778\C,0,-0.000777,-1.600902,0.075785\C,0,-0.243739,-0.
 177925,0.173134\C,0,0.745942,0.943811,0.264537\C,0,-1.610075,-0.013042
 ,0.178482\C,0,-2.234458,-1.295505,0.090938\C,0,-3.620205,-1.612156,0.0
 90742\C,0,-4.61628,-0.656983,0.071929\C,0,-6.010276,-0.91183,0.102287\
 C,0,-6.927094,0.139646,0.109778\O,0,-6.404109,1.416654,-0.006883\C,0,-
 7.205277,2.537798,0.006182\C,0,-8.612424,2.402948,0.122565\C,0,-9.3794
 51,3.596677,0.124543\C,0,-8.784044,4.833962,0.019706\C,0,-7.373896,4.9
 32223,-0.095433\N,0,-6.767987,6.180928,-0.202643\O,0,-5.488992,6.25990
 4,-0.316938\O,0,-7.48712,7.24751,-0.1874\C,0,-6.578438,3.761003,-0.102
 063\C,0,-9.150994,1.094699,0.232297\C,0,-8.338812,-0.017725,0.235278\C
 ,0,-8.881961,-1.417191,0.398991\C,0,-7.998754,-2.439183,-0.320969\C,0,
 -6.546006,-2.332098,0.155227\N,0,-1.245398,-2.241334,0.027681\B,0,-1.4
 49561,-3.751252,-0.23495\F,0,-2.334583,-4.299691,0.713541\F,0,-1.99245
 2,-3.959117,-1.518299\N,0,-0.06584,-4.423731,-0.121969\C,0,0.175578,-5
 .761923,-0.182165\C,0,-0.909384,-6.782059,-0.290555\C,0,1.558058,-5.97
 0976,-0.127435\C,0,2.197012,-4.726981,-0.037362\C,0,3.684676,-4.546249
 ,0.04378\C,0,1.159039,-3.751193,-0.035781\C,0,3.100243,-1.371424,1.363
 286\C,0,4.330803,-0.728803,1.430228\C,0,8.371764,2.948424,-0.570873\C,
 0,9.570561,3.612089,-0.321652\H,0,12.672368,2.181254,1.497411\H,0,13.7
 73325,3.672235,1.107647\H,0,11.616512,0.897867,-0.033215\H,0,9.481125,
 -0.259684,-0.472845\H,0,6.319424,1.487917,-1.422778\H,0,7.174991,-0.03
 8818,-1.521337\H,0,4.886408,-0.301825,-1.90672\H,0,2.714299,-1.444136,
 -2.015997\H,0,1.417772,0.968577,-0.598858\H,0,0.21481,1.89825,0.309345
 \H,0,1.375766,0.863727,1.155874\H,0,-2.130934,0.931184,0.258018\H,0,-3
 .880615,-2.662881,0.125528\H,0,-4.316474,0.386315,0.043281\H,0,-10.459
 052,3.518544,0.213065\H,0,-9.37542,5.740018,0.022835\H,0,-5.502665,3.8
 24464,-0.190592\H,0,-10.22719,0.975822,0.324724\H,0,-8.92,-1.666144,1.
 469398\H,0,-9.912935,-1.453257,0.03273\H,0,-8.374332,-3.452533,-0.1473
 35\H,0,-8.042576,-2.257934,-1.401954\H,0,-6.466841,-2.719391,1.181531\
 H,0,-5.913736,-2.979981,-0.460984\H,0,-0.475954,-7.779621,-0.388094\H,
 0,-1.560562,-6.768364,0.589607\H,0,-1.545673,-6.59196,-1.161692\H,0,2.
 044537,-6.937566,-0.151201\H,0,4.174551,-5.523302,0.006568\H,0,4.07626
 ,-3.943671,-0.782009\H,0,3.99392,-4.052357,0.970674\H,0,2.594548,-1.67
 2101,2.275404\H,0,4.790153,-0.52612,2.391457\H,0,7.467098,3.526694,-0.
 734097\H,0,9.618185,4.693668,-0.293851\\Version=ES64L-G16RevA.03\State
 =2-A\HF=-2441.3670282\S2=0.823064\S2-1=0.\S2A=0.752854\RMSD=4.706e-09\
 Dipole=8.4867359,-10.1251876,0.5602218\Quadrupole=-11.1162944,-73.0756
 956,84.19199,64.339931,-2.0736238,8.1426502\PG=C01 [X(C42H35B1F2N4O5)]
 \\@


 We make a living by what we get,
 we make a life by what we give.
                   -- Sir Winston Churchill
 Job cpu time:       2 days  7 hours 56 minutes 59.4 seconds.
 Elapsed time:       0 days  0 hours 53 minutes  3.2 seconds.
 File lengths (MBytes):  RWF=   4997 Int=      0 D2E=      0 Chk=    326 Scr=      1
 Normal termination of Gaussian 16 at Sat Oct 25 12:26:00 2025.
