 Entering Gaussian System, Link 0=g16
 Input=BONO_N3_reduced_sp.gjf
 Output=BONO_N3_reduced_sp.log
 Initial command:
 /public/software/gauss/g16/l1.exe "/public/home/baiding/1024_sp/tmp_BONO_N3_reduced_sp_1526250/Gau-2965423.inp" -scrdir="/public/home/baiding/1024_sp/tmp_BONO_N3_reduced_sp_1526250/"
 Entering Link 1 = /public/software/gauss/g16/l1.exe PID=   2965424.
  
 Copyright (c) 1988,1990,1992,1993,1995,1998,2003,2009,2016,
            Gaussian, Inc.  All Rights Reserved.
  
 This is part of the Gaussian(R) 16 program.  It is based on
 the Gaussian(R) 09 system (copyright 2009, Gaussian, Inc.),
 the Gaussian(R) 03 system (copyright 2003, Gaussian, Inc.),
 the Gaussian(R) 98 system (copyright 1998, Gaussian, Inc.),
 the Gaussian(R) 94 system (copyright 1995, Gaussian, Inc.),
 the Gaussian 92(TM) system (copyright 1992, Gaussian, Inc.),
 the Gaussian 90(TM) system (copyright 1990, Gaussian, Inc.),
 the Gaussian 88(TM) system (copyright 1988, Gaussian, Inc.),
 the Gaussian 86(TM) system (copyright 1986, Carnegie Mellon
 University), and the Gaussian 82(TM) system (copyright 1983,
 Carnegie Mellon University). Gaussian is a federally registered
 trademark of Gaussian, Inc.
  
 This software contains proprietary and confidential information,
 including trade secrets, belonging to Gaussian, Inc.
  
 This software is provided under written license and may be
 used, copied, transmitted, or stored only in accord with that
 written license.
  
 The following legend is applicable only to US Government
 contracts under FAR:
  
                    RESTRICTED RIGHTS LEGEND
  
 Use, reproduction and disclosure by the US Government is
 subject to restrictions as set forth in subparagraphs (a)
 and (c) of the Commercial Computer Software - Restricted
 Rights clause in FAR 52.227-19.
  
 Gaussian, Inc.
 340 Quinnipiac St., Bldg. 40, Wallingford CT 06492
  
  
 ---------------------------------------------------------------
 Warning -- This program may not be used in any manner that
 competes with the business of Gaussian, Inc. or will provide
 assistance to any competitor of Gaussian, Inc.  The licensee
 of this program is prohibited from giving any competitor of
 Gaussian, Inc. access to this program.  By using this program,
 the user acknowledges that Gaussian, Inc. is engaged in the
 business of creating and licensing software in the field of
 computational chemistry and represents and warrants to the
 licensee that it is not a competitor of Gaussian, Inc. and that
 it will not use this program in any manner prohibited above.
 ---------------------------------------------------------------
  

 Cite this work as:
 Gaussian 16, Revision A.03,
 M. J. Frisch, G. W. Trucks, H. B. Schlegel, G. E. Scuseria, 
 M. A. Robb, J. R. Cheeseman, G. Scalmani, V. Barone, 
 G. A. Petersson, H. Nakatsuji, X. Li, M. Caricato, A. V. Marenich, 
 J. Bloino, B. G. Janesko, R. Gomperts, B. Mennucci, H. P. Hratchian, 
 J. V. Ortiz, A. F. Izmaylov, J. L. Sonnenberg, D. Williams-Young, 
 F. Ding, F. Lipparini, F. Egidi, J. Goings, B. Peng, A. Petrone, 
 T. Henderson, D. Ranasinghe, V. G. Zakrzewski, J. Gao, N. Rega, 
 G. Zheng, W. Liang, M. Hada, M. Ehara, K. Toyota, R. Fukuda, 
 J. Hasegawa, M. Ishida, T. Nakajima, Y. Honda, O. Kitao, H. Nakai, 
 T. Vreven, K. Throssell, J. A. Montgomery, Jr., J. E. Peralta, 
 F. Ogliaro, M. J. Bearpark, J. J. Heyd, E. N. Brothers, K. N. Kudin, 
 V. N. Staroverov, T. A. Keith, R. Kobayashi, J. Normand, 
 K. Raghavachari, A. P. Rendell, J. C. Burant, S. S. Iyengar, 
 J. Tomasi, M. Cossi, J. M. Millam, M. Klene, C. Adamo, R. Cammi, 
 J. W. Ochterski, R. L. Martin, K. Morokuma, O. Farkas, 
 J. B. Foresman, and D. J. Fox, Gaussian, Inc., Wallingford CT, 2016.
 
 ******************************************
 Gaussian 16:  ES64L-G16RevA.03 25-Dec-2016
                25-Oct-2025 
 ******************************************
 %nprocshared=64
 Will use up to   64 processors via shared memory.
 %mem=230GB
 %chk=BONO_N3_reduced_sp.chk
 ----------------------------------------------
 #p M062X/DEF2TZVPP scrf=(solvent=water) em=GD3
 ----------------------------------------------
 1/38=1,172=1/1;
 2/12=2,17=6,18=5,40=1/2;
 3/5=44,7=202,11=2,25=1,30=1,70=2201,72=1,74=-55,124=31/1,2,3;
 4//1;
 5/5=2,38=5,53=1/2;
 6/7=2,8=2,9=2,10=2,28=1/1;
 99/5=1,9=1/99;
 Leave Link    1 at Sat Oct 25 10:21:03 2025, MaxMem= 30870077440 cpu:              22.3 elap:               0.4
 (Enter /public/software/gauss/g16/l101.exe)
 --------------------------------------
 Energy calculation for BONO_N3_reduced
 --------------------------------------
 Symbolic Z-matrix:
 Charge = -1 Multiplicity = 2
 C                     0.80719   0.88777  -0.02682 
 C                    -0.19382  -0.22725  -0.00371 
 C                    -1.55875  -0.04581   0.08726 
 C                    -2.1933   -1.32068   0.09329 
 C                    -3.58829  -1.62707   0.1979 
 C                    -4.5673   -0.66927   0.17497 
 C                    -5.97295  -0.91061   0.28395 
 C                    -6.87301   0.13469   0.19673 
 O                    -6.34759   1.40969   0.06749 
 C                    -7.14886   2.52025  -0.00119 
 C                    -8.54978   2.40326   0.06096 
 C                    -9.30747   3.58567  -0.00647 
 C                    -8.69848   4.82642  -0.13277 
 C                    -7.29671   4.90388  -0.19774 
 N                    -6.57894   6.12005  -0.33093 
 N                    -7.21675   7.17812  -0.40225 
 N                    -7.66914   8.22171  -0.47896 
 C                    -6.51309   3.74782  -0.13156 
 C                    -9.10832   1.08138   0.17456 
 C                    -8.30895  -0.01869   0.22572 
 C                    -8.85197  -1.42546   0.28296 
 C                    -7.91838  -2.34448   1.07458 
 C                    -6.5043   -2.31876   0.48479 
 N                    -1.22503  -2.279     0.00416 
 C                     0.02536  -1.65207  -0.05733 
 C                     1.20146  -2.40689  -0.13465 
 C                     2.52572  -1.71554  -0.17968 
 C                     3.11926  -1.39968  -1.41121 
 C                     4.34722  -0.74921  -1.45074 
 C                     5.01211  -0.39761  -0.26442 
 C                     6.3231    0.31655  -0.36632 
 O                     6.82606   0.53261  -1.46768 
 C                     7.0109    0.76927   0.91921 
 C                     8.26707   1.57182   0.69809 
 C                     8.20686   2.96165   0.49513 
 C                     9.34994   3.71659   0.27023 
 C                     10.61512   3.08703   0.24125 
 N                     11.7723   3.83524   0.01941 
 O                     12.93532   3.24545   0.00358 
 O                     11.68743   5.12248  -0.17209 
 C                     10.69128   1.6907    0.4446 
 C                     9.53097   0.95918   0.66602 
 C                     4.41907  -0.72167   0.96613 
 C                     3.18918  -1.3754    1.00654 
 C                     1.15665  -3.81699  -0.16268 
 C                     2.18737  -4.80644  -0.19008 
 C                     3.67698  -4.6354   -0.20508 
 C                     1.53527  -6.04153  -0.19284 
 C                     0.15011  -5.81814  -0.17007 
 C                    -0.94444  -6.83233  -0.17236 
 N                    -0.0774   -4.48085  -0.1461 
 B                    -1.46188  -3.79733  -0.19437 
 F                    -2.28635  -4.30196   0.82626 
 F                    -2.0823   -4.03653  -1.43318 
 H                     1.43313   0.85791  -0.92364 
 H                     0.28529   1.84804  -0.00779 
 H                     1.48151   0.85106   0.83419 
 H                    -2.06491   0.9064    0.16398 
 H                    -3.84995  -2.67242   0.30611 
 H                    -4.26512   0.36582   0.04823 
 H                    -10.39002   3.51739   0.04023 
 H                    -9.30277   5.72616  -0.1819 
 H                    -5.43198   3.80489  -0.17939 
 H                    -10.18874   0.97267   0.20454 
 H                    -9.85978  -1.41107   0.70881 
 H                    -8.94561  -1.80935  -0.74288 
 H                    -7.88426  -2.01456   2.12004 
 H                    -8.30508  -3.36821   1.07059 
 H                    -5.82661  -2.86697   1.14743 
 H                    -6.49342  -2.85754  -0.47363 
 H                     2.61275  -1.66147  -2.33478 
 H                     4.80349  -0.50117  -2.40276 
 H                     6.28024   1.34353   1.5016 
 H                     7.22101  -0.13217   1.50923 
 H                     7.24114   3.46106   0.518 
 H                     9.28732   4.78662   0.11994 
 H                     11.65898   1.20598   0.42805 
 H                     9.60614  -0.11425   0.8228 
 H                     4.90834  -0.46958   1.90018 
 H                     2.7387   -1.62      1.96308 
 H                     4.15818  -5.61709  -0.21291 
 H                     4.02083  -4.08437  -1.08609 
 H                     4.03869  -4.08945   0.67196 
 H                     2.00877  -7.01438  -0.20888 
 H                    -0.52486  -7.83566  -0.26768 
 H                    -1.53211  -6.78384   0.75006 
 H                    -1.63719  -6.66153  -1.00316 
 
 ITRead=  0  0  0  0  0  0  0  0  0  0  0  0  0  0  0  0  0  0  0  0
 ITRead=  0  0  0  0  0  0  0  0  0  0  0  0  0  0  0  0  0  0  0  0
 ITRead=  0  0  0  0  0  0  0  0  0  0  0  0  0  0  0  0  0  0  0  0
 ITRead=  0  0  0  0  0  0  0  0  0  0  0  0  0  0  0  0  0  0  0  0
 ITRead=  0  0  0  0  0  0  0
 MicOpt= -1 -1 -1 -1 -1 -1 -1 -1 -1 -1 -1 -1 -1 -1 -1 -1 -1 -1 -1 -1
 MicOpt= -1 -1 -1 -1 -1 -1 -1 -1 -1 -1 -1 -1 -1 -1 -1 -1 -1 -1 -1 -1
 MicOpt= -1 -1 -1 -1 -1 -1 -1 -1 -1 -1 -1 -1 -1 -1 -1 -1 -1 -1 -1 -1
 MicOpt= -1 -1 -1 -1 -1 -1 -1 -1 -1 -1 -1 -1 -1 -1 -1 -1 -1 -1 -1 -1
 MicOpt= -1 -1 -1 -1 -1 -1 -1
 NAtoms=     87 NQM=       87 NQMF=       0 NMMI=      0 NMMIF=      0
                NMic=       0 NMicF=      0.
                    Isotopes and Nuclear Properties:
 (Nuclear quadrupole moments (NQMom) in fm**2, nuclear magnetic moments (NMagM)
  in nuclear magnetons)

  Atom         1           2           3           4           5           6           7           8           9          10
 IAtWgt=          12          12          12          12          12          12          12          12          16          12
 AtmWgt=  12.0000000  12.0000000  12.0000000  12.0000000  12.0000000  12.0000000  12.0000000  12.0000000  15.9949146  12.0000000
 NucSpn=           0           0           0           0           0           0           0           0           0           0
 AtZEff=  -0.0000000  -0.0000000  -0.0000000  -0.0000000  -0.0000000  -0.0000000  -0.0000000  -0.0000000  -0.0000000  -0.0000000
 NQMom=    0.0000000   0.0000000   0.0000000   0.0000000   0.0000000   0.0000000   0.0000000   0.0000000   0.0000000   0.0000000
 NMagM=    0.0000000   0.0000000   0.0000000   0.0000000   0.0000000   0.0000000   0.0000000   0.0000000   0.0000000   0.0000000
 AtZNuc=   6.0000000   6.0000000   6.0000000   6.0000000   6.0000000   6.0000000   6.0000000   6.0000000   8.0000000   6.0000000

  Atom        11          12          13          14          15          16          17          18          19          20
 IAtWgt=          12          12          12          12          14          14          14          12          12          12
 AtmWgt=  12.0000000  12.0000000  12.0000000  12.0000000  14.0030740  14.0030740  14.0030740  12.0000000  12.0000000  12.0000000
 NucSpn=           0           0           0           0           2           2           2           0           0           0
 AtZEff=  -0.0000000  -0.0000000  -0.0000000  -0.0000000  -0.0000000  -0.0000000  -0.0000000  -0.0000000  -0.0000000  -0.0000000
 NQMom=    0.0000000   0.0000000   0.0000000   0.0000000   2.0440000   2.0440000   2.0440000   0.0000000   0.0000000   0.0000000
 NMagM=    0.0000000   0.0000000   0.0000000   0.0000000   0.4037610   0.4037610   0.4037610   0.0000000   0.0000000   0.0000000
 AtZNuc=   6.0000000   6.0000000   6.0000000   6.0000000   7.0000000   7.0000000   7.0000000   6.0000000   6.0000000   6.0000000

  Atom        21          22          23          24          25          26          27          28          29          30
 IAtWgt=          12          12          12          14          12          12          12          12          12          12
 AtmWgt=  12.0000000  12.0000000  12.0000000  14.0030740  12.0000000  12.0000000  12.0000000  12.0000000  12.0000000  12.0000000
 NucSpn=           0           0           0           2           0           0           0           0           0           0
 AtZEff=  -0.0000000  -0.0000000  -0.0000000  -0.0000000  -0.0000000  -0.0000000  -0.0000000  -0.0000000  -0.0000000  -0.0000000
 NQMom=    0.0000000   0.0000000   0.0000000   2.0440000   0.0000000   0.0000000   0.0000000   0.0000000   0.0000000   0.0000000
 NMagM=    0.0000000   0.0000000   0.0000000   0.4037610   0.0000000   0.0000000   0.0000000   0.0000000   0.0000000   0.0000000
 AtZNuc=   6.0000000   6.0000000   6.0000000   7.0000000   6.0000000   6.0000000   6.0000000   6.0000000   6.0000000   6.0000000

  Atom        31          32          33          34          35          36          37          38          39          40
 IAtWgt=          12          16          12          12          12          12          12          14          16          16
 AtmWgt=  12.0000000  15.9949146  12.0000000  12.0000000  12.0000000  12.0000000  12.0000000  14.0030740  15.9949146  15.9949146
 NucSpn=           0           0           0           0           0           0           0           2           0           0
 AtZEff=  -0.0000000  -0.0000000  -0.0000000  -0.0000000  -0.0000000  -0.0000000  -0.0000000  -0.0000000  -0.0000000  -0.0000000
 NQMom=    0.0000000   0.0000000   0.0000000   0.0000000   0.0000000   0.0000000   0.0000000   2.0440000   0.0000000   0.0000000
 NMagM=    0.0000000   0.0000000   0.0000000   0.0000000   0.0000000   0.0000000   0.0000000   0.4037610   0.0000000   0.0000000
 AtZNuc=   6.0000000   8.0000000   6.0000000   6.0000000   6.0000000   6.0000000   6.0000000   7.0000000   8.0000000   8.0000000

  Atom        41          42          43          44          45          46          47          48          49          50
 IAtWgt=          12          12          12          12          12          12          12          12          12          12
 AtmWgt=  12.0000000  12.0000000  12.0000000  12.0000000  12.0000000  12.0000000  12.0000000  12.0000000  12.0000000  12.0000000
 NucSpn=           0           0           0           0           0           0           0           0           0           0
 AtZEff=  -0.0000000  -0.0000000  -0.0000000  -0.0000000  -0.0000000  -0.0000000  -0.0000000  -0.0000000  -0.0000000  -0.0000000
 NQMom=    0.0000000   0.0000000   0.0000000   0.0000000   0.0000000   0.0000000   0.0000000   0.0000000   0.0000000   0.0000000
 NMagM=    0.0000000   0.0000000   0.0000000   0.0000000   0.0000000   0.0000000   0.0000000   0.0000000   0.0000000   0.0000000
 AtZNuc=   6.0000000   6.0000000   6.0000000   6.0000000   6.0000000   6.0000000   6.0000000   6.0000000   6.0000000   6.0000000

  Atom        51          52          53          54          55          56          57          58          59          60
 IAtWgt=          14          11          19          19           1           1           1           1           1           1
 AtmWgt=  14.0030740  11.0093053  18.9984033  18.9984033   1.0078250   1.0078250   1.0078250   1.0078250   1.0078250   1.0078250
 NucSpn=           2           3           1           1           1           1           1           1           1           1
 AtZEff=  -0.0000000  -0.0000000  -0.0000000  -0.0000000  -0.0000000  -0.0000000  -0.0000000  -0.0000000  -0.0000000  -0.0000000
 NQMom=    2.0440000   4.0590000   0.0000000   0.0000000   0.0000000   0.0000000   0.0000000   0.0000000   0.0000000   0.0000000
 NMagM=    0.4037610   2.6886370   2.6288670   2.6288670   2.7928460   2.7928460   2.7928460   2.7928460   2.7928460   2.7928460
 AtZNuc=   7.0000000   5.0000000   9.0000000   9.0000000   1.0000000   1.0000000   1.0000000   1.0000000   1.0000000   1.0000000

  Atom        61          62          63          64          65          66          67          68          69          70
 IAtWgt=           1           1           1           1           1           1           1           1           1           1
 AtmWgt=   1.0078250   1.0078250   1.0078250   1.0078250   1.0078250   1.0078250   1.0078250   1.0078250   1.0078250   1.0078250
 NucSpn=           1           1           1           1           1           1           1           1           1           1
 AtZEff=  -0.0000000  -0.0000000  -0.0000000  -0.0000000  -0.0000000  -0.0000000  -0.0000000  -0.0000000  -0.0000000  -0.0000000
 NQMom=    0.0000000   0.0000000   0.0000000   0.0000000   0.0000000   0.0000000   0.0000000   0.0000000   0.0000000   0.0000000
 NMagM=    2.7928460   2.7928460   2.7928460   2.7928460   2.7928460   2.7928460   2.7928460   2.7928460   2.7928460   2.7928460
 AtZNuc=   1.0000000   1.0000000   1.0000000   1.0000000   1.0000000   1.0000000   1.0000000   1.0000000   1.0000000   1.0000000

  Atom        71          72          73          74          75          76          77          78          79          80
 IAtWgt=           1           1           1           1           1           1           1           1           1           1
 AtmWgt=   1.0078250   1.0078250   1.0078250   1.0078250   1.0078250   1.0078250   1.0078250   1.0078250   1.0078250   1.0078250
 NucSpn=           1           1           1           1           1           1           1           1           1           1
 AtZEff=  -0.0000000  -0.0000000  -0.0000000  -0.0000000  -0.0000000  -0.0000000  -0.0000000  -0.0000000  -0.0000000  -0.0000000
 NQMom=    0.0000000   0.0000000   0.0000000   0.0000000   0.0000000   0.0000000   0.0000000   0.0000000   0.0000000   0.0000000
 NMagM=    2.7928460   2.7928460   2.7928460   2.7928460   2.7928460   2.7928460   2.7928460   2.7928460   2.7928460   2.7928460
 AtZNuc=   1.0000000   1.0000000   1.0000000   1.0000000   1.0000000   1.0000000   1.0000000   1.0000000   1.0000000   1.0000000

  Atom        81          82          83          84          85          86          87
 IAtWgt=           1           1           1           1           1           1           1
 AtmWgt=   1.0078250   1.0078250   1.0078250   1.0078250   1.0078250   1.0078250   1.0078250
 NucSpn=           1           1           1           1           1           1           1
 AtZEff=  -0.0000000  -0.0000000  -0.0000000  -0.0000000  -0.0000000  -0.0000000  -0.0000000
 NQMom=    0.0000000   0.0000000   0.0000000   0.0000000   0.0000000   0.0000000   0.0000000
 NMagM=    2.7928460   2.7928460   2.7928460   2.7928460   2.7928460   2.7928460   2.7928460
 AtZNuc=   1.0000000   1.0000000   1.0000000   1.0000000   1.0000000   1.0000000   1.0000000
 Leave Link  101 at Sat Oct 25 10:21:03 2025, MaxMem= 30870077440 cpu:               4.2 elap:               0.1
 (Enter /public/software/gauss/g16/l202.exe)
 Stoichiometry    C41H33BF2N6O4(1-,2)
 Framework group  C1[X(C41H33BF2N6O4)]
 Deg. of freedom   255
 Full point group                 C1      NOp   1
 Largest Abelian subgroup         C1      NOp   1
 Largest concise Abelian subgroup C1      NOp   1
                         Standard orientation:                         
 ---------------------------------------------------------------------
 Center     Atomic      Atomic             Coordinates (Angstroms)
 Number     Number       Type             X           Y           Z
 ---------------------------------------------------------------------
      1          6           0       -0.807187    0.887770    0.026816
      2          6           0        0.193815   -0.227247    0.003712
      3          6           0        1.558754   -0.045814   -0.087258
      4          6           0        2.193298   -1.320676   -0.093285
      5          6           0        3.588288   -1.627068   -0.197897
      6          6           0        4.567299   -0.669269   -0.174966
      7          6           0        5.972951   -0.910613   -0.283951
      8          6           0        6.873011    0.134694   -0.196732
      9          8           0        6.347593    1.409685   -0.067494
     10          6           0        7.148860    2.520253    0.001193
     11          6           0        8.549780    2.403259   -0.060961
     12          6           0        9.307474    3.585674    0.006472
     13          6           0        8.698482    4.826419    0.132771
     14          6           0        7.296705    4.903879    0.197742
     15          7           0        6.578937    6.120049    0.330932
     16          7           0        7.216748    7.178124    0.402246
     17          7           0        7.669136    8.221714    0.478959
     18          6           0        6.513086    3.747819    0.131561
     19          6           0        9.108318    1.081381   -0.174556
     20          6           0        8.308953   -0.018694   -0.225724
     21          6           0        8.851970   -1.425461   -0.282964
     22          6           0        7.918377   -2.344483   -1.074575
     23          6           0        6.504301   -2.318755   -0.484785
     24          7           0        1.225030   -2.279000   -0.004159
     25          6           0       -0.025359   -1.652067    0.057333
     26          6           0       -1.201458   -2.406888    0.134650
     27          6           0       -2.525723   -1.715543    0.179677
     28          6           0       -3.119259   -1.399678    1.411206
     29          6           0       -4.347220   -0.749205    1.450736
     30          6           0       -5.012115   -0.397606    0.264420
     31          6           0       -6.323105    0.316549    0.366317
     32          8           0       -6.826056    0.532614    1.467677
     33          6           0       -7.010900    0.769273   -0.919210
     34          6           0       -8.267069    1.571816   -0.698093
     35          6           0       -8.206862    2.961652   -0.495128
     36          6           0       -9.349937    3.716593   -0.270230
     37          6           0      -10.615122    3.087027   -0.241246
     38          7           0      -11.772297    3.835235   -0.019413
     39          8           0      -12.935322    3.245447   -0.003578
     40          8           0      -11.687426    5.122478    0.172087
     41          6           0      -10.691283    1.690700   -0.444596
     42          6           0       -9.530967    0.959180   -0.666017
     43          6           0       -4.419072   -0.721674   -0.966125
     44          6           0       -3.189177   -1.375398   -1.006541
     45          6           0       -1.156653   -3.816988    0.162679
     46          6           0       -2.187374   -4.806436    0.190084
     47          6           0       -3.676975   -4.635396    0.205081
     48          6           0       -1.535272   -6.041526    0.192843
     49          6           0       -0.150107   -5.818139    0.170074
     50          6           0        0.944442   -6.832328    0.172355
     51          7           0        0.077401   -4.480853    0.146098
     52          5           0        1.461884   -3.797327    0.194369
     53          9           0        2.286348   -4.301960   -0.826260
     54          9           0        2.082305   -4.036533    1.433175
     55          1           0       -1.433126    0.857912    0.923637
     56          1           0       -0.285289    1.848036    0.007790
     57          1           0       -1.481511    0.851062   -0.834188
     58          1           0        2.064910    0.906403   -0.163977
     59          1           0        3.849948   -2.672418   -0.306109
     60          1           0        4.265121    0.365815   -0.048228
     61          1           0       10.390016    3.517387   -0.040234
     62          1           0        9.302772    5.726158    0.181904
     63          1           0        5.431978    3.804889    0.179394
     64          1           0       10.188744    0.972672   -0.204536
     65          1           0        9.859780   -1.411070   -0.708807
     66          1           0        8.945611   -1.809349    0.742877
     67          1           0        7.884263   -2.014555   -2.120039
     68          1           0        8.305084   -3.368206   -1.070590
     69          1           0        5.826610   -2.866966   -1.147425
     70          1           0        6.493417   -2.857537    0.473629
     71          1           0       -2.612753   -1.661469    2.334782
     72          1           0       -4.803487   -0.501167    2.402764
     73          1           0       -6.280239    1.343527   -1.501596
     74          1           0       -7.221006   -0.132172   -1.509227
     75          1           0       -7.241140    3.461062   -0.518003
     76          1           0       -9.287318    4.786622   -0.119939
     77          1           0      -11.658982    1.205979   -0.428045
     78          1           0       -9.606142   -0.114252   -0.822804
     79          1           0       -4.908339   -0.469578   -1.900177
     80          1           0       -2.738697   -1.620001   -1.963078
     81          1           0       -4.158177   -5.617093    0.212913
     82          1           0       -4.020825   -4.084369    1.086093
     83          1           0       -4.038692   -4.089446   -0.671962
     84          1           0       -2.008774   -7.014376    0.208883
     85          1           0        0.524855   -7.835658    0.267678
     86          1           0        1.532105   -6.783843   -0.750060
     87          1           0        1.637194   -6.661533    1.003162
 ---------------------------------------------------------------------
 Rotational constants (GHZ):           0.0564902           0.0161890           0.0127486
 Leave Link  202 at Sat Oct 25 10:21:03 2025, MaxMem= 30870077440 cpu:               0.2 elap:               0.0
 (Enter /public/software/gauss/g16/l301.exe)
 Standard basis: def2TZVPP (5D, 7F)
 Ernie: Thresh=  0.10000D-02 Tol=  0.10000D-05 Strict=F.
 There are  2439 symmetry adapted cartesian basis functions of A   symmetry.
 There are  2136 symmetry adapted basis functions of A   symmetry.
  2136 basis functions,  3315 primitive gaussians,  2439 cartesian basis functions
   189 alpha electrons      188 beta electrons
       nuclear repulsion energy      6220.8607632682 Hartrees.
 IExCor= 4336 DFT=T Ex+Corr=M062X ExCW=0 ScaHFX=  0.540000
 ScaDFX=  1.000000  1.000000  1.000000  1.000000 ScalE2=  1.000000  1.000000
 IRadAn=      5 IRanWt=     -1 IRanGd=            0 ICorTp=0 IEmpDi=131
 NAtoms=   87 NActive=   87 NUniq=   87 SFac= 1.00D+00 NAtFMM=   60 NAOKFM=T Big=T
 Integral buffers will be    131072 words long.
 Raffenetti 2 integral format.
 Two-electron integral symmetry is turned on.
 R6Disp:  Grimme-D3 Dispersion energy=       -0.0070831436 Hartrees.
 Nuclear repulsion after empirical dispersion term =     6220.8536801246 Hartrees.
 ------------------------------------------------------------------------------
 Polarizable Continuum Model (PCM)
 =================================
 Model                : PCM.
 Atomic radii         : UFF (Universal Force Field).
 Polarization charges : Total charges.
 Charge compensation  : None.
 Solution method      : On-the-fly selection.
 Cavity type          : Scaled VdW (van der Waals Surface) (Alpha=1.100).
 Cavity algorithm     : GePol (No added spheres)
                        Default sphere list used, NSphG=   87.
                        Lebedev-Laikov grids with approx.  5.0 points / Ang**2.
                        Smoothing algorithm: York/Karplus (Gamma=1.0000).
                        Polarization charges: spherical gaussians, with
                                              point-specific exponents (IZeta= 3).
                        Self-potential: point-specific (ISelfS= 7).
                        Self-field    : sphere-specific E.n sum rule (ISelfD= 2).
 Solvent              : Water, Eps=  78.355300 Eps(inf)=   1.777849
 ------------------------------------------------------------------------------
 GePol: Number of generator spheres                  =      87
 GePol: Total number of spheres                      =      87
 GePol: Number of exposed spheres                    =      87 (100.00%)
 GePol: Number of points                             =    6392
 GePol: Average weight of points                     =       0.13
 GePol: Minimum weight of points                     =   0.20D-11
 GePol: Maximum weight of points                     =    0.20577
 GePol: Number of points with low weight             =     419
 GePol: Fraction of low-weight points (<1% of avg)   =       6.56%
 GePol: Cavity surface area                          =    806.741 Ang**2
 GePol: Cavity volume                                =    934.069 Ang**3
 Leave Link  301 at Sat Oct 25 10:21:03 2025, MaxMem= 30870077440 cpu:               5.3 elap:               0.1
 (Enter /public/software/gauss/g16/l302.exe)
 NPDir=0 NMtPBC=     1 NCelOv=     1 NCel=       1 NClECP=     1 NCelD=      1
         NCelK=      1 NCelE2=     1 NClLst=     1 CellRange=     0.0.
 One-electron integrals computed using PRISM.
 One-electron integral symmetry used in STVInt
   1 Symmetry operations used in ECPInt.
 ECPInt:  NShTT=  314028 NPrTT=  905127 LenC2=  167370 LenP2D=  321531.
 LDataN:  DoStor=T MaxTD1= 6 Len=  172
 NBasis=  2136 RedAO= T EigKep=  3.52D-06  NBF=  2136
 NBsUse=  2136 1.00D-06 EigRej= -1.00D+00 NBFU=  2136
 Precomputing XC quadrature grid using
 IXCGrd= 4 IRadAn=           5 IRanWt=          -1 IRanGd=           0 AccXCQ= 0.00D+00.
 Generated NRdTot=       0 NPtTot=           0 NUsed=           0 NTot=          32
 NSgBfM=  2118  2079  2094  2112  2118 MxSgAt=    87 MxSgA2=    87.
 Leave Link  302 at Sat Oct 25 10:21:16 2025, MaxMem= 30870077440 cpu:             832.5 elap:              13.1
 (Enter /public/software/gauss/g16/l303.exe)
 DipDrv:  MaxL=1.
 Leave Link  303 at Sat Oct 25 10:21:17 2025, MaxMem= 30870077440 cpu:              34.6 elap:               0.6
 (Enter /public/software/gauss/g16/l401.exe)
 ExpMin= 6.06D-02 ExpMax= 3.55D+04 ExpMxC= 1.21D+03 IAcc=3 IRadAn=         5 AccDes= 0.00D+00
 Harris functional with IExCor= 1009 and IRadAn=       5 diagonalized for initial guess.
 HarFok:  IExCor= 1009 AccDes= 0.00D+00 IRadAn=         5 IDoV= 1 UseB2=F ITyADJ=14
 ICtDFT=  3500011 ScaDFX=  1.000000  1.000000  1.000000  1.000000
 FoFCou: FMM=F IPFlag=           0 FMFlag=      100000 FMFlg1=        2001
         NFxFlg=           0 DoJE=T BraDBF=F KetDBF=T FulRan=T
         wScrn=  0.000000 ICntrl=       500 IOpCl=  0 I1Cent=   200000004 NGrid=           0
         NMat0=    1 NMatS0=      1 NMatT0=    0 NMatD0=    1 NMtDS0=    0 NMtDT0=    0
 Petite list used in FoFCou.
 Harris En= -2435.19611244024    
 JPrj=0 DoOrth=F DoCkMO=F.
 Initial guess <Sx>= 0.0000 <Sy>= 0.0000 <Sz>= 0.5000 <S**2>= 0.7500 S= 0.5000
 Leave Link  401 at Sat Oct 25 10:21:30 2025, MaxMem= 30870077440 cpu:             863.1 elap:              13.6
 (Enter /public/software/gauss/g16/l502.exe)
 Integral symmetry usage will be decided dynamically.
 UHF open shell SCF:
 Using DIIS extrapolation, IDIIS=  1040.
 NGot= 30870077440 LenX= 30858003471 LenY= 30852052311
 Requested convergence on RMS density matrix=1.00D-08 within 128 cycles.
 Requested convergence on MAX density matrix=1.00D-06.
 Requested convergence on             energy=1.00D-06.
 No special actions if energy rises.
 Fock matrices will be formed incrementally for  20 cycles.

 Cycle   1  Pass 1  IDiag  1:
 FoFJK:  IHMeth= 1 ICntrl=       0 DoSepK=F KAlg= 0 I1Cent=           0 FoldK=F
 IRaf= 500000000 NMat=       1 IRICut=       1 DoRegI=T DoRafI=F ISym2E= 0 IDoP0=0 IntGTp=1.
 FoFCou: FMM=T IPFlag=           0 FMFlag=      100000 FMFlg1=        2001
         NFxFlg=           0 DoJE=F BraDBF=F KetDBF=F FulRan=T
         wScrn=  0.000000 ICntrl=         0 IOpCl=  1 I1Cent=           0 NGrid=           0
         NMat0=    1 NMatS0=      1 NMatT0=    0 NMatD0=    1 NMtDS0=    0 NMtDT0=    0
 Symmetry not used in FoFCou.
 FMM levels:  10  Number of levels for PrismC:   9
 Inv3:  Mode=1 IEnd=   122572992.
 Iteration    1 A*A^-1 deviation from unit magnitude is 1.11D-14 for    774.
 Iteration    1 A*A^-1 deviation from orthogonality  is 7.66D-15 for   5088    774.
 Iteration    1 A^-1*A deviation from unit magnitude is 1.11D-14 for   6386.
 Iteration    1 A^-1*A deviation from orthogonality  is 3.15D-14 for   4230   4198.
 E= -2434.95738251107    
 DIIS: error= 2.84D-02 at cycle   1 NSaved=   1.
 NSaved= 1 IEnMin= 1 EnMin= -2434.95738251107     IErMin= 1 ErrMin= 2.84D-02
 ErrMax= 2.84D-02  0.00D+00 EMaxC= 1.00D-01 BMatC= 6.97D+00 BMatP= 6.97D+00
 IDIUse=3 WtCom= 7.16D-01 WtEn= 2.84D-01
 Coeff-Com:  0.100D+01
 Coeff-En:   0.100D+01
 Coeff:      0.100D+01
 Gap=    -0.032 Goal=   None    Shift=    0.000
 Gap=     0.154 Goal=   None    Shift=    0.000
 GapD=   -0.032 DampG=0.250 DampE=0.500 DampFc=0.2500 IDamp=-1.
 Damping current iteration by 2.50D-01
 RMSDP=1.47D-03 MaxDP=2.79D-01              OVMax= 9.55D-01

 Cycle   2  Pass 1  IDiag  1:
 RMSU=  3.65D-04    CP:  9.90D-01
 E= -2435.40563709171     Delta-E=       -0.448254580637 Rises=F Damp=T
 DIIS: error= 1.18D-02 at cycle   2 NSaved=   2.
 NSaved= 2 IEnMin= 2 EnMin= -2435.40563709171     IErMin= 2 ErrMin= 1.18D-02
 ErrMax= 1.18D-02  0.00D+00 EMaxC= 1.00D-01 BMatC= 2.39D+00 BMatP= 6.97D+00
 IDIUse=3 WtCom= 8.82D-01 WtEn= 1.18D-01
 Coeff-Com: -0.994D+00 0.199D+01
 Coeff-En:   0.000D+00 0.100D+01
 Coeff:     -0.877D+00 0.188D+01
 Gap=    -0.125 Goal=   None    Shift=    0.000
 Gap=    -0.175 Goal=   None    Shift=    0.000
 RMSDP=8.97D-04 MaxDP=1.13D-01 DE=-4.48D-01 OVMax= 9.95D-01

 Cycle   3  Pass 1  IDiag  1:
 RMSU=  7.78D-04    CP:  9.73D-01  2.21D+00
 E= -2436.09525330019     Delta-E=       -0.689616208487 Rises=F Damp=F
 DIIS: error= 2.61D-02 at cycle   3 NSaved=   3.
 NSaved= 3 IEnMin= 3 EnMin= -2436.09525330019     IErMin= 2 ErrMin= 1.18D-02
 ErrMax= 2.61D-02  0.00D+00 EMaxC= 1.00D-01 BMatC= 9.53D-01 BMatP= 2.39D+00
 IDIUse=3 WtCom= 7.39D-01 WtEn= 2.61D-01
 Coeff-Com: -0.636D+00 0.113D+01 0.509D+00
 Coeff-En:   0.000D+00 0.000D+00 0.100D+01
 Coeff:     -0.470D+00 0.833D+00 0.637D+00
 Gap=     0.089 Goal=   None    Shift=    0.000
 Gap=     0.124 Goal=   None    Shift=    0.000
 RMSDP=5.82D-04 MaxDP=1.71D-01 DE=-6.90D-01 OVMax= 9.81D-01

 Cycle   4  Pass 1  IDiag  1:
 RMSU=  4.67D-04    CP:  9.60D-01  2.33D+00  5.60D-01
 E= -2436.24358215186     Delta-E=       -0.148328851663 Rises=F Damp=F
 DIIS: error= 1.70D-02 at cycle   4 NSaved=   4.
 NSaved= 4 IEnMin= 4 EnMin= -2436.24358215186     IErMin= 2 ErrMin= 1.18D-02
 ErrMax= 1.70D-02  0.00D+00 EMaxC= 1.00D-01 BMatC= 4.32D-01 BMatP= 9.53D-01
 IDIUse=3 WtCom= 8.30D-01 WtEn= 1.70D-01
 Coeff-Com: -0.137D+00 0.244D+00 0.401D+00 0.492D+00
 Coeff-En:   0.000D+00 0.000D+00 0.302D+00 0.698D+00
 Coeff:     -0.114D+00 0.203D+00 0.384D+00 0.527D+00
 Gap=     0.014 Goal=   None    Shift=    0.000
 Gap=     0.172 Goal=   None    Shift=    0.000
 RMSDP=1.61D-04 MaxDP=3.40D-02 DE=-1.48D-01 OVMax= 1.07D-01

 Cycle   5  Pass 1  IDiag  1:
 RMSU=  1.34D-04    CP:  9.62D-01  2.33D+00  6.31D-01  8.52D-01
 E= -2436.33910243056     Delta-E=       -0.095520278701 Rises=F Damp=F
 DIIS: error= 4.17D-03 at cycle   5 NSaved=   5.
 NSaved= 5 IEnMin= 5 EnMin= -2436.33910243056     IErMin= 5 ErrMin= 4.17D-03
 ErrMax= 4.17D-03  0.00D+00 EMaxC= 1.00D-01 BMatC= 2.22D-02 BMatP= 4.32D-01
 IDIUse=3 WtCom= 9.58D-01 WtEn= 4.17D-02
 Coeff-Com: -0.203D-01 0.404D-01 0.177D+00 0.156D+00 0.647D+00
 Coeff-En:   0.000D+00 0.000D+00 0.000D+00 0.000D+00 0.100D+01
 Coeff:     -0.195D-01 0.388D-01 0.170D+00 0.149D+00 0.662D+00
 Gap=     0.057 Goal=   None    Shift=    0.000
 Gap=     0.134 Goal=   None    Shift=    0.000
 RMSDP=7.75D-05 MaxDP=1.55D-02 DE=-9.55D-02 OVMax= 2.84D-02

 Cycle   6  Pass 1  IDiag  1:
 RMSU=  6.44D-05    CP:  9.63D-01  2.31D+00  6.65D-01  8.04D-01  1.18D+00
 E= -2436.34400117453     Delta-E=       -0.004898743971 Rises=F Damp=F
 DIIS: error= 2.53D-03 at cycle   6 NSaved=   6.
 NSaved= 6 IEnMin= 6 EnMin= -2436.34400117453     IErMin= 6 ErrMin= 2.53D-03
 ErrMax= 2.53D-03  0.00D+00 EMaxC= 1.00D-01 BMatC= 9.19D-03 BMatP= 2.22D-02
 IDIUse=3 WtCom= 9.75D-01 WtEn= 2.53D-02
 Coeff-Com:  0.897D-02-0.109D-01 0.242D-01-0.854D-01 0.319D+00 0.744D+00
 Coeff-En:   0.000D+00 0.000D+00 0.000D+00 0.000D+00 0.000D+00 0.100D+01
 Coeff:      0.874D-02-0.106D-01 0.236D-01-0.832D-01 0.311D+00 0.751D+00
 Gap=     0.085 Goal=   None    Shift=    0.000
 Gap=     0.134 Goal=   None    Shift=    0.000
 RMSDP=4.93D-05 MaxDP=9.21D-03 DE=-4.90D-03 OVMax= 1.89D-02

 Cycle   7  Pass 1  IDiag  1:
 RMSU=  2.98D-05    CP:  9.64D-01  2.32D+00  6.86D-01  7.68D-01  1.40D+00
                    CP:  1.19D+00
 E= -2436.34674849658     Delta-E=       -0.002747322051 Rises=F Damp=F
 DIIS: error= 5.77D-04 at cycle   7 NSaved=   7.
 NSaved= 7 IEnMin= 7 EnMin= -2436.34674849658     IErMin= 7 ErrMin= 5.77D-04
 ErrMax= 5.77D-04  0.00D+00 EMaxC= 1.00D-01 BMatC= 7.35D-04 BMatP= 9.19D-03
 IDIUse=3 WtCom= 9.94D-01 WtEn= 5.77D-03
 Coeff-Com: -0.128D-02 0.296D-02 0.172D-02-0.343D-01-0.771D-02 0.226D+00
 Coeff-Com:  0.812D+00
 Coeff-En:   0.000D+00 0.000D+00 0.000D+00 0.000D+00 0.000D+00 0.000D+00
 Coeff-En:   0.100D+01
 Coeff:     -0.128D-02 0.294D-02 0.171D-02-0.341D-01-0.766D-02 0.225D+00
 Coeff:      0.813D+00
 Gap=     0.094 Goal=   None    Shift=    0.000
 Gap=     0.134 Goal=   None    Shift=    0.000
 RMSDP=1.78D-05 MaxDP=2.45D-03 DE=-2.75D-03 OVMax= 1.36D-02

 Cycle   8  Pass 1  IDiag  1:
 RMSU=  1.37D-05    CP:  9.64D-01  2.31D+00  6.92D-01  7.62D-01  1.42D+00
                    CP:  1.33D+00  1.10D+00
 E= -2436.34707586260     Delta-E=       -0.000327366024 Rises=F Damp=F
 DIIS: error= 2.27D-04 at cycle   8 NSaved=   8.
 NSaved= 8 IEnMin= 8 EnMin= -2436.34707586260     IErMin= 8 ErrMin= 2.27D-04
 ErrMax= 2.27D-04  0.00D+00 EMaxC= 1.00D-01 BMatC= 2.92D-04 BMatP= 7.35D-04
 IDIUse=3 WtCom= 9.98D-01 WtEn= 2.27D-03
 Coeff-Com: -0.422D-02 0.657D-02-0.440D-03 0.680D-02-0.751D-01-0.698D-01
 Coeff-Com:  0.434D+00 0.703D+00
 Coeff-En:   0.000D+00 0.000D+00 0.000D+00 0.000D+00 0.000D+00 0.000D+00
 Coeff-En:   0.000D+00 0.100D+01
 Coeff:     -0.421D-02 0.655D-02-0.439D-03 0.679D-02-0.750D-01-0.696D-01
 Coeff:      0.433D+00 0.703D+00
 Gap=     0.096 Goal=   None    Shift=    0.000
 Gap=     0.134 Goal=   None    Shift=    0.000
 RMSDP=1.01D-05 MaxDP=1.66D-03 DE=-3.27D-04 OVMax= 7.67D-03

 Cycle   9  Pass 1  IDiag  1:
 RMSU=  6.31D-06    CP:  9.64D-01  2.31D+00  6.95D-01  7.59D-01  1.44D+00
                    CP:  1.37D+00  1.30D+00  1.21D+00
 E= -2436.34721576635     Delta-E=       -0.000139903746 Rises=F Damp=F
 DIIS: error= 1.08D-04 at cycle   9 NSaved=   9.
 NSaved= 9 IEnMin= 9 EnMin= -2436.34721576635     IErMin= 9 ErrMin= 1.08D-04
 ErrMax= 1.08D-04  0.00D+00 EMaxC= 1.00D-01 BMatC= 7.31D-05 BMatP= 2.92D-04
 IDIUse=3 WtCom= 9.99D-01 WtEn= 1.08D-03
 Coeff-Com: -0.196D-02 0.298D-02-0.737D-03 0.813D-02-0.365D-01-0.734D-01
 Coeff-Com:  0.703D-01 0.355D+00 0.676D+00
 Coeff-En:   0.000D+00 0.000D+00 0.000D+00 0.000D+00 0.000D+00 0.000D+00
 Coeff-En:   0.000D+00 0.000D+00 0.100D+01
 Coeff:     -0.196D-02 0.297D-02-0.737D-03 0.812D-02-0.365D-01-0.733D-01
 Coeff:      0.703D-01 0.355D+00 0.676D+00
 Gap=     0.097 Goal=   None    Shift=    0.000
 Gap=     0.134 Goal=   None    Shift=    0.000
 RMSDP=5.00D-06 MaxDP=6.86D-04 DE=-1.40D-04 OVMax= 4.78D-03

 Cycle  10  Pass 1  IDiag  1:
 RMSU=  3.13D-06    CP:  9.64D-01  2.31D+00  6.95D-01  7.58D-01  1.44D+00
                    CP:  1.39D+00  1.37D+00  1.39D+00  1.28D+00
 E= -2436.34725905876     Delta-E=       -0.000043292412 Rises=F Damp=F
 DIIS: error= 5.09D-05 at cycle  10 NSaved=  10.
 NSaved=10 IEnMin=10 EnMin= -2436.34725905876     IErMin=10 ErrMin= 5.09D-05
 ErrMax= 5.09D-05  0.00D+00 EMaxC= 1.00D-01 BMatC= 2.53D-05 BMatP= 7.31D-05
 IDIUse=1 WtCom= 1.00D+00 WtEn= 0.00D+00
 Coeff-Com:  0.595D-03-0.882D-03 0.753D-03 0.210D-02 0.977D-02-0.112D-01
 Coeff-Com: -0.140D+00-0.103D+00 0.378D+00 0.864D+00
 Coeff:      0.595D-03-0.882D-03 0.753D-03 0.210D-02 0.977D-02-0.112D-01
 Coeff:     -0.140D+00-0.103D+00 0.378D+00 0.864D+00
 Gap=     0.098 Goal=   None    Shift=    0.000
 Gap=     0.134 Goal=   None    Shift=    0.000
 RMSDP=4.73D-06 MaxDP=5.29D-04 DE=-4.33D-05 OVMax= 4.68D-03

 Cycle  11  Pass 1  IDiag  1:
 RMSU=  2.27D-06    CP:  9.64D-01  2.31D+00  6.95D-01  7.58D-01  1.44D+00
                    CP:  1.39D+00  1.41D+00  1.58D+00  1.69D+00  1.45D+00
 E= -2436.34728352234     Delta-E=       -0.000024463583 Rises=F Damp=F
 DIIS: error= 2.35D-05 at cycle  11 NSaved=  11.
 NSaved=11 IEnMin=11 EnMin= -2436.34728352234     IErMin=11 ErrMin= 2.35D-05
 ErrMax= 2.35D-05  0.00D+00 EMaxC= 1.00D-01 BMatC= 6.71D-06 BMatP= 2.53D-05
 IDIUse=1 WtCom= 1.00D+00 WtEn= 0.00D+00
 Coeff-Com:  0.350D-03-0.469D-03 0.450D-03-0.135D-02 0.102D-01 0.873D-02
 Coeff-Com: -0.748D-01-0.117D+00 0.243D-01 0.400D+00 0.749D+00
 Coeff:      0.350D-03-0.469D-03 0.450D-03-0.135D-02 0.102D-01 0.873D-02
 Coeff:     -0.748D-01-0.117D+00 0.243D-01 0.400D+00 0.749D+00
 Gap=     0.098 Goal=   None    Shift=    0.000
 Gap=     0.133 Goal=   None    Shift=    0.000
 RMSDP=2.38D-06 MaxDP=2.73D-04 DE=-2.45D-05 OVMax= 2.18D-03

 Cycle  12  Pass 1  IDiag  1:
 RMSU=  1.13D-06    CP:  9.64D-01  2.31D+00  6.96D-01  7.58D-01  1.44D+00
                    CP:  1.40D+00  1.43D+00  1.65D+00  1.85D+00  1.81D+00
                    CP:  1.29D+00
 E= -2436.34729075926     Delta-E=       -0.000007236918 Rises=F Damp=F
 DIIS: error= 1.70D-05 at cycle  12 NSaved=  12.
 NSaved=12 IEnMin=12 EnMin= -2436.34729075926     IErMin=12 ErrMin= 1.70D-05
 ErrMax= 1.70D-05  0.00D+00 EMaxC= 1.00D-01 BMatC= 2.34D-06 BMatP= 6.71D-06
 IDIUse=1 WtCom= 1.00D+00 WtEn= 0.00D+00
 Coeff-Com: -0.430D-04 0.984D-04 0.478D-04-0.127D-02 0.677D-03 0.701D-02
 Coeff-Com:  0.209D-01-0.118D-01-0.143D+00-0.151D+00 0.375D+00 0.903D+00
 Coeff:     -0.430D-04 0.984D-04 0.478D-04-0.127D-02 0.677D-03 0.701D-02
 Coeff:      0.209D-01-0.118D-01-0.143D+00-0.151D+00 0.375D+00 0.903D+00
 Gap=     0.098 Goal=   None    Shift=    0.000
 Gap=     0.133 Goal=   None    Shift=    0.000
 RMSDP=1.91D-06 MaxDP=2.56D-04 DE=-7.24D-06 OVMax= 2.03D-03

 Cycle  13  Pass 1  IDiag  1:
 RMSU=  7.89D-07    CP:  9.64D-01  2.31D+00  6.96D-01  7.57D-01  1.44D+00
                    CP:  1.40D+00  1.44D+00  1.69D+00  1.97D+00  2.08D+00
                    CP:  1.70D+00  1.48D+00
 E= -2436.34729461855     Delta-E=       -0.000003859288 Rises=F Damp=F
 DIIS: error= 8.94D-06 at cycle  13 NSaved=  13.
 NSaved=13 IEnMin=13 EnMin= -2436.34729461855     IErMin=13 ErrMin= 8.94D-06
 ErrMax= 8.94D-06  0.00D+00 EMaxC= 1.00D-01 BMatC= 6.53D-07 BMatP= 2.34D-06
 IDIUse=1 WtCom= 1.00D+00 WtEn= 0.00D+00
 Coeff-Com: -0.106D-03 0.147D-03 0.196D-04 0.451D-03-0.286D-02-0.109D-02
 Coeff-Com:  0.317D-01 0.347D-01-0.596D-01-0.190D+00-0.118D+00 0.325D+00
 Coeff-Com:  0.980D+00
 Coeff:     -0.106D-03 0.147D-03 0.196D-04 0.451D-03-0.286D-02-0.109D-02
 Coeff:      0.317D-01 0.347D-01-0.596D-01-0.190D+00-0.118D+00 0.325D+00
 Coeff:      0.980D+00
 Gap=     0.098 Goal=   None    Shift=    0.000
 Gap=     0.133 Goal=   None    Shift=    0.000
 RMSDP=1.32D-06 MaxDP=1.94D-04 DE=-3.86D-06 OVMax= 1.46D-03

 Cycle  14  Pass 1  IDiag  1:
 RMSU=  3.59D-07    CP:  9.64D-01  2.31D+00  6.96D-01  7.57D-01  1.44D+00
                    CP:  1.40D+00  1.45D+00  1.72D+00  2.03D+00  2.24D+00
                    CP:  1.97D+00  2.05D+00  1.59D+00
 E= -2436.34729613384     Delta-E=       -0.000001515285 Rises=F Damp=F
 DIIS: error= 5.23D-06 at cycle  14 NSaved=  14.
 NSaved=14 IEnMin=14 EnMin= -2436.34729613384     IErMin=14 ErrMin= 5.23D-06
 ErrMax= 5.23D-06  0.00D+00 EMaxC= 1.00D-01 BMatC= 2.34D-07 BMatP= 6.53D-07
 IDIUse=1 WtCom= 1.00D+00 WtEn= 0.00D+00
 Coeff-Com: -0.963D-04 0.132D-03-0.683D-04 0.444D-03-0.141D-02-0.180D-02
 Coeff-Com:  0.857D-02 0.164D-01 0.100D-01-0.452D-01-0.143D+00-0.936D-01
 Coeff-Com:  0.412D+00 0.838D+00
 Coeff:     -0.963D-04 0.132D-03-0.683D-04 0.444D-03-0.141D-02-0.180D-02
 Coeff:      0.857D-02 0.164D-01 0.100D-01-0.452D-01-0.143D+00-0.936D-01
 Coeff:      0.412D+00 0.838D+00
 Gap=     0.098 Goal=   None    Shift=    0.000
 Gap=     0.133 Goal=   None    Shift=    0.000
 RMSDP=7.00D-07 MaxDP=1.01D-04 DE=-1.52D-06 OVMax= 7.38D-04

 Cycle  15  Pass 1  IDiag  1:
 RMSU=  1.92D-07    CP:  9.64D-01  2.31D+00  6.96D-01  7.57D-01  1.44D+00
                    CP:  1.40D+00  1.46D+00  1.73D+00  2.06D+00  2.32D+00
                    CP:  2.08D+00  2.32D+00  2.07D+00  1.50D+00
 E= -2436.34729660001     Delta-E=       -0.000000466174 Rises=F Damp=F
 DIIS: error= 3.18D-06 at cycle  15 NSaved=  15.
 NSaved=15 IEnMin=15 EnMin= -2436.34729660001     IErMin=15 ErrMin= 3.18D-06
 ErrMax= 3.18D-06  0.00D+00 EMaxC= 1.00D-01 BMatC= 9.05D-08 BMatP= 2.34D-07
 IDIUse=1 WtCom= 1.00D+00 WtEn= 0.00D+00
 Coeff-Com: -0.109D-04 0.127D-04-0.734D-04-0.172D-04 0.747D-03 0.324D-03
 Coeff-Com: -0.106D-01-0.105D-01 0.296D-01 0.627D-01-0.128D-02-0.172D+00
 Coeff-Com: -0.260D+00 0.319D+00 0.104D+01
 Coeff:     -0.109D-04 0.127D-04-0.734D-04-0.172D-04 0.747D-03 0.324D-03
 Coeff:     -0.106D-01-0.105D-01 0.296D-01 0.627D-01-0.128D-02-0.172D+00
 Coeff:     -0.260D+00 0.319D+00 0.104D+01
 Gap=     0.098 Goal=   None    Shift=    0.000
 Gap=     0.133 Goal=   None    Shift=    0.000
 RMSDP=5.66D-07 MaxDP=9.13D-05 DE=-4.66D-07 OVMax= 5.99D-04

 Cycle  16  Pass 1  IDiag  1:
 RMSU=  1.56D-07    CP:  9.64D-01  2.31D+00  6.96D-01  7.57D-01  1.44D+00
                    CP:  1.40D+00  1.46D+00  1.74D+00  2.08D+00  2.36D+00
                    CP:  2.16D+00  2.52D+00  2.42D+00  2.18D+00  1.72D+00
 E= -2436.34729682505     Delta-E=       -0.000000225045 Rises=F Damp=F
 DIIS: error= 1.70D-06 at cycle  16 NSaved=  16.
 NSaved=16 IEnMin=16 EnMin= -2436.34729682505     IErMin=16 ErrMin= 1.70D-06
 ErrMax= 1.70D-06  0.00D+00 EMaxC= 1.00D-01 BMatC= 3.12D-08 BMatP= 9.05D-08
 IDIUse=1 WtCom= 1.00D+00 WtEn= 0.00D+00
 Coeff-Com:  0.476D-05-0.574D-05-0.156D-04-0.115D-03 0.701D-03 0.827D-03
 Coeff-Com: -0.680D-02-0.959D-02 0.859D-02 0.387D-01 0.475D-01-0.419D-01
 Coeff-Com: -0.247D+00-0.126D+00 0.440D+00 0.895D+00
 Coeff:      0.476D-05-0.574D-05-0.156D-04-0.115D-03 0.701D-03 0.827D-03
 Coeff:     -0.680D-02-0.959D-02 0.859D-02 0.387D-01 0.475D-01-0.419D-01
 Coeff:     -0.247D+00-0.126D+00 0.440D+00 0.895D+00
 Gap=     0.098 Goal=   None    Shift=    0.000
 Gap=     0.133 Goal=   None    Shift=    0.000
 RMSDP=3.17D-07 MaxDP=5.38D-05 DE=-2.25D-07 OVMax= 3.50D-04

 Cycle  17  Pass 1  IDiag  1:
 RMSU=  7.35D-08    CP:  9.64D-01  2.31D+00  6.96D-01  7.57D-01  1.44D+00
                    CP:  1.40D+00  1.46D+00  1.74D+00  2.08D+00  2.38D+00
                    CP:  2.20D+00  2.61D+00  2.61D+00  2.57D+00  2.37D+00
                    CP:  1.50D+00
 E= -2436.34729689630     Delta-E=       -0.000000071243 Rises=F Damp=F
 DIIS: error= 9.75D-07 at cycle  17 NSaved=  17.
 NSaved=17 IEnMin=17 EnMin= -2436.34729689630     IErMin=17 ErrMin= 9.75D-07
 ErrMax= 9.75D-07  0.00D+00 EMaxC= 1.00D-01 BMatC= 9.14D-09 BMatP= 3.12D-08
 IDIUse=1 WtCom= 1.00D+00 WtEn= 0.00D+00
 Coeff-Com:  0.100D-04-0.127D-04 0.169D-04-0.204D-04-0.716D-04 0.881D-05
 Coeff-Com:  0.210D-02 0.140D-02-0.898D-02-0.125D-01 0.163D-01 0.524D-01
 Coeff-Com:  0.279D-01-0.166D+00-0.298D+00 0.262D+00 0.112D+01
 Coeff:      0.100D-04-0.127D-04 0.169D-04-0.204D-04-0.716D-04 0.881D-05
 Coeff:      0.210D-02 0.140D-02-0.898D-02-0.125D-01 0.163D-01 0.524D-01
 Coeff:      0.279D-01-0.166D+00-0.298D+00 0.262D+00 0.112D+01
 Gap=     0.098 Goal=   None    Shift=    0.000
 Gap=     0.133 Goal=   None    Shift=    0.000
 RMSDP=2.37D-07 MaxDP=4.30D-05 DE=-7.12D-08 OVMax= 2.89D-04

 Cycle  18  Pass 1  IDiag  1:
 RMSU=  6.13D-08    CP:  9.64D-01  2.31D+00  6.96D-01  7.58D-01  1.44D+00
                    CP:  1.40D+00  1.46D+00  1.75D+00  2.09D+00  2.40D+00
                    CP:  2.22D+00  2.66D+00  2.72D+00  2.86D+00  2.87D+00
                    CP:  2.09D+00  1.81D+00
 E= -2436.34729692752     Delta-E=       -0.000000031221 Rises=F Damp=F
 DIIS: error= 8.45D-07 at cycle  18 NSaved=  18.
 NSaved=18 IEnMin=18 EnMin= -2436.34729692752     IErMin=18 ErrMin= 8.45D-07
 ErrMax= 8.45D-07  0.00D+00 EMaxC= 1.00D-01 BMatC= 3.86D-09 BMatP= 9.14D-09
 IDIUse=1 WtCom= 1.00D+00 WtEn= 0.00D+00
 Coeff-Com:  0.844D-05-0.115D-04 0.133D-04 0.884D-05-0.165D-03-0.273D-03
 Coeff-Com:  0.212D-02 0.272D-02-0.501D-02-0.120D-01-0.500D-02 0.257D-01
 Coeff-Com:  0.649D-01-0.289D-01-0.200D+00-0.117D+00 0.418D+00 0.854D+00
 Coeff:      0.844D-05-0.115D-04 0.133D-04 0.884D-05-0.165D-03-0.273D-03
 Coeff:      0.212D-02 0.272D-02-0.501D-02-0.120D-01-0.500D-02 0.257D-01
 Coeff:      0.649D-01-0.289D-01-0.200D+00-0.117D+00 0.418D+00 0.854D+00
 Gap=     0.098 Goal=   None    Shift=    0.000
 Gap=     0.133 Goal=   None    Shift=    0.000
 RMSDP=9.84D-08 MaxDP=1.72D-05 DE=-3.12D-08 OVMax= 1.34D-04

 Cycle  19  Pass 1  IDiag  1:
 RMSU=  2.80D-08    CP:  9.64D-01  2.31D+00  6.96D-01  7.58D-01  1.44D+00
                    CP:  1.40D+00  1.46D+00  1.75D+00  2.09D+00  2.40D+00
                    CP:  2.23D+00  2.68D+00  2.75D+00  2.95D+00  3.00D+00
                    CP:  2.35D+00  2.40D+00  1.67D+00
 E= -2436.34729693732     Delta-E=       -0.000000009797 Rises=F Damp=F
 DIIS: error= 6.42D-07 at cycle  19 NSaved=  19.
 NSaved=19 IEnMin=19 EnMin= -2436.34729693732     IErMin=19 ErrMin= 6.42D-07
 ErrMax= 6.42D-07  0.00D+00 EMaxC= 1.00D-01 BMatC= 2.02D-09 BMatP= 3.86D-09
 IDIUse=1 WtCom= 1.00D+00 WtEn= 0.00D+00
 Coeff-Com:  0.197D-05-0.232D-05 0.808D-05 0.402D-05-0.219D-04-0.154D-03
 Coeff-Com: -0.169D-03 0.600D-03 0.224D-02 0.147D-02-0.106D-01-0.156D-01
 Coeff-Com:  0.150D-01 0.696D-01 0.627D-01-0.191D+00-0.361D+00 0.331D+00
 Coeff-Com:  0.109D+01
 Coeff:      0.197D-05-0.232D-05 0.808D-05 0.402D-05-0.219D-04-0.154D-03
 Coeff:     -0.169D-03 0.600D-03 0.224D-02 0.147D-02-0.106D-01-0.156D-01
 Coeff:      0.150D-01 0.696D-01 0.627D-01-0.191D+00-0.361D+00 0.331D+00
 Coeff:      0.109D+01
 Gap=     0.098 Goal=   None    Shift=    0.000
 Gap=     0.133 Goal=   None    Shift=    0.000
 RMSDP=1.03D-07 MaxDP=1.67D-05 DE=-9.80D-09 OVMax= 1.40D-04

 Cycle  20  Pass 1  IDiag  1:
 RMSU=  2.77D-08    CP:  9.64D-01  2.31D+00  6.96D-01  7.58D-01  1.44D+00
                    CP:  1.40D+00  1.46D+00  1.75D+00  2.09D+00  2.40D+00
                    CP:  2.23D+00  2.70D+00  2.78D+00  3.00D+00  3.00D+00
                    CP:  2.57D+00  3.00D+00  2.62D+00  2.31D+00
 E= -2436.34729694549     Delta-E=       -0.000000008171 Rises=F Damp=F
 DIIS: error= 5.65D-07 at cycle  20 NSaved=  20.
 NSaved=20 IEnMin=20 EnMin= -2436.34729694549     IErMin=20 ErrMin= 5.65D-07
 ErrMax= 5.65D-07  0.00D+00 EMaxC= 1.00D-01 BMatC= 9.27D-10 BMatP= 2.02D-09
 IDIUse=1 WtCom= 1.00D+00 WtEn= 0.00D+00
 Coeff-Com: -0.557D-06 0.869D-06 0.359D-05-0.206D-05 0.501D-04 0.435D-04
 Coeff-Com: -0.870D-03-0.762D-03 0.268D-02 0.508D-02-0.201D-02-0.147D-01
 Coeff-Com: -0.196D-01 0.318D-01 0.940D-01-0.231D-01-0.251D+00-0.213D+00
 Coeff-Com:  0.326D+00 0.107D+01
 Coeff:     -0.557D-06 0.869D-06 0.359D-05-0.206D-05 0.501D-04 0.435D-04
 Coeff:     -0.870D-03-0.762D-03 0.268D-02 0.508D-02-0.201D-02-0.147D-01
 Coeff:     -0.196D-01 0.318D-01 0.940D-01-0.231D-01-0.251D+00-0.213D+00
 Coeff:      0.326D+00 0.107D+01
 Gap=     0.098 Goal=   None    Shift=    0.000
 Gap=     0.133 Goal=   None    Shift=    0.000
 RMSDP=7.91D-08 MaxDP=1.28D-05 DE=-8.17D-09 OVMax= 1.11D-04

 Cycle  21  Pass 1  IDiag  1:
 Restarting incremental Fock formation.
 E= -2436.34729695026     Delta-E=       -0.000000004773 Rises=F Damp=F
 DIIS: error= 4.64D-07 at cycle  21 NSaved=  20.
 NSaved=20 IEnMin=20 EnMin= -2436.34729695026     IErMin=20 ErrMin= 4.64D-07
 ErrMax= 4.64D-07  0.00D+00 EMaxC= 1.00D-01 BMatC= 5.31D-10 BMatP= 9.27D-10
 IDIUse=1 WtCom= 1.00D+00 WtEn= 0.00D+00
 Coeff-Com: -0.634D-06-0.575D-05-0.576D-05 0.334D-04 0.154D-03-0.270D-03
 Coeff-Com: -0.898D-03-0.775D-03 0.833D-03 0.797D-02 0.787D-02-0.195D-01
 Coeff-Com: -0.462D-01-0.161D-01 0.142D+00 0.199D+00-0.354D+00-0.756D+00
 Coeff-Com:  0.418D+00 0.142D+01
 Coeff:     -0.634D-06-0.575D-05-0.576D-05 0.334D-04 0.154D-03-0.270D-03
 Coeff:     -0.898D-03-0.775D-03 0.833D-03 0.797D-02 0.787D-02-0.195D-01
 Coeff:     -0.462D-01-0.161D-01 0.142D+00 0.199D+00-0.354D+00-0.756D+00
 Coeff:      0.418D+00 0.142D+01
 Gap=     0.098 Goal=   None    Shift=    0.000
 Gap=     0.133 Goal=   None    Shift=    0.000
 RMSDP=1.07D-07 MaxDP=1.65D-05 DE=-4.77D-09 OVMax= 1.55D-04

 Cycle  22  Pass 1  IDiag  1:
 RMSU=  1.07D-07    CP:  1.00D+00
 E= -2436.34729695559     Delta-E=       -0.000000005335 Rises=F Damp=F
 DIIS: error= 2.72D-07 at cycle  22 NSaved=  20.
 NSaved=20 IEnMin=20 EnMin= -2436.34729695559     IErMin=20 ErrMin= 2.72D-07
 ErrMax= 2.72D-07  0.00D+00 EMaxC= 1.00D-01 BMatC= 2.45D-10 BMatP= 5.31D-10
 IDIUse=1 WtCom= 1.00D+00 WtEn= 0.00D+00
 Coeff-Com: -0.428D-05 0.535D-05-0.125D-04 0.277D-04 0.430D-03 0.169D-03
 Coeff-Com: -0.157D-02-0.268D-02 0.285D-02 0.941D-02 0.530D-02-0.264D-01
 Coeff-Com: -0.526D-01 0.478D-01 0.162D+00 0.510D-01-0.316D+00-0.511D+00
 Coeff-Com:  0.295D+00 0.134D+01
 Coeff:     -0.428D-05 0.535D-05-0.125D-04 0.277D-04 0.430D-03 0.169D-03
 Coeff:     -0.157D-02-0.268D-02 0.285D-02 0.941D-02 0.530D-02-0.264D-01
 Coeff:     -0.526D-01 0.478D-01 0.162D+00 0.510D-01-0.316D+00-0.511D+00
 Coeff:      0.295D+00 0.134D+01
 Gap=     0.098 Goal=   None    Shift=    0.000
 Gap=     0.133 Goal=   None    Shift=    0.000
 RMSDP=8.09D-08 MaxDP=1.23D-05 DE=-5.34D-09 OVMax= 1.17D-04

 Cycle  23  Pass 1  IDiag  1:
 RMSU=  1.27D-08    CP:  1.00D+00  1.74D+00
 E= -2436.34729695791     Delta-E=       -0.000000002314 Rises=F Damp=F
 DIIS: error= 1.54D-07 at cycle  23 NSaved=  20.
 NSaved=20 IEnMin=20 EnMin= -2436.34729695791     IErMin=20 ErrMin= 1.54D-07
 ErrMax= 1.54D-07  0.00D+00 EMaxC= 1.00D-01 BMatC= 1.09D-10 BMatP= 2.45D-10
 IDIUse=1 WtCom= 1.00D+00 WtEn= 0.00D+00
 Coeff-Com:  0.782D-05-0.115D-04-0.522D-04 0.276D-03 0.421D-03-0.252D-03
 Coeff-Com: -0.141D-02-0.250D-02 0.809D-04 0.112D-01 0.107D-01-0.139D-01
 Coeff-Com: -0.438D-01-0.391D-01 0.188D+00 0.234D+00-0.399D+00-0.521D+00
 Coeff-Com:  0.568D+00 0.101D+01
 Coeff:      0.782D-05-0.115D-04-0.522D-04 0.276D-03 0.421D-03-0.252D-03
 Coeff:     -0.141D-02-0.250D-02 0.809D-04 0.112D-01 0.107D-01-0.139D-01
 Coeff:     -0.438D-01-0.391D-01 0.188D+00 0.234D+00-0.399D+00-0.521D+00
 Coeff:      0.568D+00 0.101D+01
 Gap=     0.098 Goal=   None    Shift=    0.000
 Gap=     0.133 Goal=   None    Shift=    0.000
 RMSDP=4.17D-08 MaxDP=6.27D-06 DE=-2.31D-09 OVMax= 5.89D-05

 Cycle  24  Pass 1  IDiag  1:
 RMSU=  5.77D-09    CP:  1.00D+00  2.11D+00  1.94D+00
 E= -2436.34729695849     Delta-E=       -0.000000000577 Rises=F Damp=F
 DIIS: error= 7.17D-08 at cycle  24 NSaved=  20.
 NSaved=20 IEnMin=20 EnMin= -2436.34729695849     IErMin=20 ErrMin= 7.17D-08
 ErrMax= 7.17D-08  0.00D+00 EMaxC= 1.00D-01 BMatC= 3.05D-11 BMatP= 1.09D-10
 IDIUse=1 WtCom= 1.00D+00 WtEn= 0.00D+00
 Coeff-Com: -0.123D-05-0.302D-04-0.394D-04 0.915D-04 0.441D-03 0.421D-03
 Coeff-Com: -0.198D-02-0.333D-02 0.274D-02 0.131D-01 0.128D-01-0.332D-01
 Coeff-Com: -0.755D-01 0.600D-01 0.214D+00 0.193D-01-0.316D+00-0.285D+00
 Coeff-Com:  0.383D+00 0.101D+01
 Coeff:     -0.123D-05-0.302D-04-0.394D-04 0.915D-04 0.441D-03 0.421D-03
 Coeff:     -0.198D-02-0.333D-02 0.274D-02 0.131D-01 0.128D-01-0.332D-01
 Coeff:     -0.755D-01 0.600D-01 0.214D+00 0.193D-01-0.316D+00-0.285D+00
 Coeff:      0.383D+00 0.101D+01
 Gap=     0.098 Goal=   None    Shift=    0.000
 Gap=     0.133 Goal=   None    Shift=    0.000
 RMSDP=2.24D-08 MaxDP=3.34D-06 DE=-5.77D-10 OVMax= 3.19D-05

 Cycle  25  Pass 1  IDiag  1:
 RMSU=  3.25D-09    CP:  1.00D+00  2.30D+00  2.51D+00  1.48D+00
 E= -2436.34729695863     Delta-E=       -0.000000000146 Rises=F Damp=F
 DIIS: error= 3.69D-08 at cycle  25 NSaved=  20.
 NSaved=20 IEnMin=20 EnMin= -2436.34729695863     IErMin=20 ErrMin= 3.69D-08
 ErrMax= 3.69D-08  0.00D+00 EMaxC= 1.00D-01 BMatC= 9.29D-12 BMatP= 3.05D-11
 IDIUse=1 WtCom= 1.00D+00 WtEn= 0.00D+00
 Coeff-Com: -0.271D-05-0.913D-04-0.710D-04 0.281D-03 0.590D-03-0.109D-03
 Coeff-Com: -0.156D-02-0.248D-02 0.233D-02 0.102D-01 0.169D-02-0.194D-01
 Coeff-Com: -0.370D-01 0.679D-02 0.118D+00 0.450D-01-0.248D+00-0.155D+00
 Coeff-Com:  0.356D+00 0.923D+00
 Coeff:     -0.271D-05-0.913D-04-0.710D-04 0.281D-03 0.590D-03-0.109D-03
 Coeff:     -0.156D-02-0.248D-02 0.233D-02 0.102D-01 0.169D-02-0.194D-01
 Coeff:     -0.370D-01 0.679D-02 0.118D+00 0.450D-01-0.248D+00-0.155D+00
 Coeff:      0.356D+00 0.923D+00
 Gap=     0.098 Goal=   None    Shift=    0.000
 Gap=     0.133 Goal=   None    Shift=    0.000
 RMSDP=8.15D-09 MaxDP=1.27D-06 DE=-1.46D-10 OVMax= 1.17D-05

 Cycle  26  Pass 1  IDiag  1:
 RMSU=  1.83D-09    CP:  1.00D+00  2.37D+00  2.68D+00  1.70D+00  1.53D+00
 E= -2436.34729695780     Delta-E=        0.000000000831 Rises=F Damp=F
 DIIS: error= 2.43D-08 at cycle  26 NSaved=  20.
 NSaved=20 IEnMin=19 EnMin= -2436.34729695863     IErMin=20 ErrMin= 2.43D-08
 ErrMax= 2.43D-08  0.00D+00 EMaxC= 1.00D-01 BMatC= 2.99D-12 BMatP= 9.29D-12
 IDIUse=1 WtCom= 1.00D+00 WtEn= 0.00D+00
 Coeff-Com: -0.261D-04-0.342D-04 0.191D-04 0.138D-03 0.368D-03 0.909D-04
 Coeff-Com: -0.139D-02-0.161D-02 0.633D-03 0.588D-02 0.805D-02-0.218D-01
 Coeff-Com: -0.361D-01 0.367D-01 0.826D-01-0.271D-01-0.166D+00-0.150D+00
 Coeff-Com:  0.349D+00 0.921D+00
 Coeff:     -0.261D-04-0.342D-04 0.191D-04 0.138D-03 0.368D-03 0.909D-04
 Coeff:     -0.139D-02-0.161D-02 0.633D-03 0.588D-02 0.805D-02-0.218D-01
 Coeff:     -0.361D-01 0.367D-01 0.826D-01-0.271D-01-0.166D+00-0.150D+00
 Coeff:      0.349D+00 0.921D+00
 Gap=     0.098 Goal=   None    Shift=    0.000
 Gap=     0.133 Goal=   None    Shift=    0.000
 RMSDP=3.82D-09 MaxDP=5.80D-07 DE= 8.31D-10 OVMax= 5.12D-06

 Error on total polarization charges =  0.02792
 SCF Done:  E(UM062X) =  -2436.34729696     A.U. after   26 cycles
            NFock= 26  Conv=0.38D-08     -V/T= 2.0054
 <Sx>= 0.0000 <Sy>= 0.0000 <Sz>= 0.5000 <S**2>= 0.7659 S= 0.5079
 <L.S>= 0.000000000000E+00
 KE= 2.423266432880D+03 PE=-1.814701468155D+04 EE= 7.066547271584D+03
 Annihilation of the first spin contaminant:
 S**2 before annihilation     0.7659,   after     0.7502
 Leave Link  502 at Sat Oct 25 11:11:38 2025, MaxMem= 30870077440 cpu:          190293.8 elap:            3007.9
 (Enter /public/software/gauss/g16/l601.exe)
 Copying SCF densities to generalized density rwf, IOpCl= 1 IROHF=0.

 **********************************************************************

            Population analysis using the SCF density.

 **********************************************************************

 Orbital symmetries:
 Alpha Orbitals:
       Occupied  (A) (A) (A) (A) (A) (A) (A) (A) (A) (A) (A) (A)
                 (A) (A) (A) (A) (A) (A) (A) (A) (A) (A) (A) (A)
                 (A) (A) (A) (A) (A) (A) (A) (A) (A) (A) (A) (A)
                 (A) (A) (A) (A) (A) (A) (A) (A) (A) (A) (A) (A)
                 (A) (A) (A) (A) (A) (A) (A) (A) (A) (A) (A) (A)
                 (A) (A) (A) (A) (A) (A) (A) (A) (A) (A) (A) (A)
                 (A) (A) (A) (A) (A) (A) (A) (A) (A) (A) (A) (A)
                 (A) (A) (A) (A) (A) (A) (A) (A) (A) (A) (A) (A)
                 (A) (A) (A) (A) (A) (A) (A) (A) (A) (A) (A) (A)
                 (A) (A) (A) (A) (A) (A) (A) (A) (A) (A) (A) (A)
                 (A) (A) (A) (A) (A) (A) (A) (A) (A) (A) (A) (A)
                 (A) (A) (A) (A) (A) (A) (A) (A) (A) (A) (A) (A)
                 (A) (A) (A) (A) (A) (A) (A) (A) (A) (A) (A) (A)
                 (A) (A) (A) (A) (A) (A) (A) (A) (A) (A) (A) (A)
                 (A) (A) (A) (A) (A) (A) (A) (A) (A) (A) (A) (A)
                 (A) (A) (A) (A) (A) (A) (A) (A) (A)
       Virtual   (A) (A) (A) (A) (A) (A) (A) (A) (A) (A) (A) (A)
                 (A) (A) (A) (A) (A) (A) (A) (A) (A) (A) (A) (A)
                 (A) (A) (A) (A) (A) (A) (A) (A) (A) (A) (A) (A)
                 (A) (A) (A) (A) (A) (A) (A) (A) (A) (A) (A) (A)
                 (A) (A) (A) (A) (A) (A) (A) (A) (A) (A) (A) (A)
                 (A) (A) (A) (A) (A) (A) (A) (A) (A) (A) (A) (A)
                 (A) (A) (A) (A) (A) (A) (A) (A) (A) (A) (A) (A)
                 (A) (A) (A) (A) (A) (A) (A) (A) (A) (A) (A) (A)
                 (A) (A) (A) (A) (A) (A) (A) (A) (A) (A) (A) (A)
                 (A) (A) (A) (A) (A) (A) (A) (A) (A) (A) (A) (A)
                 (A) (A) (A) (A) (A) (A) (A) (A) (A) (A) (A) (A)
                 (A) (A) (A) (A) (A) (A) (A) (A) (A) (A) (A) (A)
                 (A) (A) (A) (A) (A) (A) (A) (A) (A) (A) (A) (A)
                 (A) (A) (A) (A) (A) (A) (A) (A) (A) (A) (A) (A)
                 (A) (A) (A) (A) (A) (A) (A) (A) (A) (A) (A) (A)
                 (A) (A) (A) (A) (A) (A) (A) (A) (A) (A) (A) (A)
                 (A) (A) (A) (A) (A) (A) (A) (A) (A) (A) (A) (A)
                 (A) (A) (A) (A) (A) (A) (A) (A) (A) (A) (A) (A)
                 (A) (A) (A) (A) (A) (A) (A) (A) (A) (A) (A) (A)
                 (A) (A) (A) (A) (A) (A) (A) (A) (A) (A) (A) (A)
                 (A) (A) (A) (A) (A) (A) (A) (A) (A) (A) (A) (A)
                 (A) (A) (A) (A) (A) (A) (A) (A) (A) (A) (A) (A)
                 (A) (A) (A) (A) (A) (A) (A) (A) (A) (A) (A) (A)
                 (A) (A) (A) (A) (A) (A) (A) (A) (A) (A) (A) (A)
                 (A) (A) (A) (A) (A) (A) (A) (A) (A) (A) (A) (A)
                 (A) (A) (A) (A) (A) (A) (A) (A) (A) (A) (A) (A)
                 (A) (A) (A) (A) (A) (A) (A) (A) (A) (A) (A) (A)
                 (A) (A) (A) (A) (A) (A) (A) (A) (A) (A) (A) (A)
                 (A) (A) (A) (A) (A) (A) (A) (A) (A) (A) (A) (A)
                 (A) (A) (A) (A) (A) (A) (A) (A) (A) (A) (A) (A)
                 (A) (A) (A) (A) (A) (A) (A) (A) (A) (A) (A) (A)
                 (A) (A) (A) (A) (A) (A) (A) (A) (A) (A) (A) (A)
                 (A) (A) (A) (A) (A) (A) (A) (A) (A) (A) (A) (A)
                 (A) (A) (A) (A) (A) (A) (A) (A) (A) (A) (A) (A)
                 (A) (A) (A) (A) (A) (A) (A) (A) (A) (A) (A) (A)
                 (A) (A) (A) (A) (A) (A) (A) (A) (A) (A) (A) (A)
                 (A) (A) (A) (A) (A) (A) (A) (A) (A) (A) (A) (A)
                 (A) (A) (A) (A) (A) (A) (A) (A) (A) (A) (A) (A)
                 (A) (A) (A) (A) (A) (A) (A) (A) (A) (A) (A) (A)
                 (A) (A) (A) (A) (A) (A) (A) (A) (A) (A) (A) (A)
                 (A) (A) (A) (A) (A) (A) (A) (A) (A) (A) (A) (A)
                 (A) (A) (A) (A) (A) (A) (A) (A) (A) (A) (A) (A)
                 (A) (A) (A) (A) (A) (A) (A) (A) (A) (A) (A) (A)
                 (A) (A) (A) (A) (A) (A) (A) (A) (A) (A) (A) (A)
                 (A) (A) (A) (A) (A) (A) (A) (A) (A) (A) (A) (A)
                 (A) (A) (A) (A) (A) (A) (A) (A) (A) (A) (A) (A)
                 (A) (A) (A) (A) (A) (A) (A) (A) (A) (A) (A) (A)
                 (A) (A) (A) (A) (A) (A) (A) (A) (A) (A) (A) (A)
                 (A) (A) (A) (A) (A) (A) (A) (A) (A) (A) (A) (A)
                 (A) (A) (A) (A) (A) (A) (A) (A) (A) (A) (A) (A)
                 (A) (A) (A) (A) (A) (A) (A) (A) (A) (A) (A) (A)
                 (A) (A) (A) (A) (A) (A) (A) (A) (A) (A) (A) (A)
                 (A) (A) (A) (A) (A) (A) (A) (A) (A) (A) (A) (A)
                 (A) (A) (A) (A) (A) (A) (A) (A) (A) (A) (A) (A)
                 (A) (A) (A) (A) (A) (A) (A) (A) (A) (A) (A) (A)
                 (A) (A) (A) (A) (A) (A) (A) (A) (A) (A) (A) (A)
                 (A) (A) (A) (A) (A) (A) (A) (A) (A) (A) (A) (A)
                 (A) (A) (A) (A) (A) (A) (A) (A) (A) (A) (A) (A)
                 (A) (A) (A) (A) (A) (A) (A) (A) (A) (A) (A) (A)
                 (A) (A) (A) (A) (A) (A) (A) (A) (A) (A) (A) (A)
                 (A) (A) (A) (A) (A) (A) (A) (A) (A) (A) (A) (A)
                 (A) (A) (A) (A) (A) (A) (A) (A) (A) (A) (A) (A)
                 (A) (A) (A) (A) (A) (A) (A) (A) (A) (A) (A) (A)
                 (A) (A) (A) (A) (A) (A) (A) (A) (A) (A) (A) (A)
                 (A) (A) (A) (A) (A) (A) (A) (A) (A) (A) (A) (A)
                 (A) (A) (A) (A) (A) (A) (A) (A) (A) (A) (A) (A)
                 (A) (A) (A) (A) (A) (A) (A) (A) (A) (A) (A) (A)
                 (A) (A) (A) (A) (A) (A) (A) (A) (A) (A) (A) (A)
                 (A) (A) (A) (A) (A) (A) (A) (A) (A) (A) (A) (A)
                 (A) (A) (A) (A) (A) (A) (A) (A) (A) (A) (A) (A)
                 (A) (A) (A) (A) (A) (A) (A) (A) (A) (A) (A) (A)
                 (A) (A) (A) (A) (A) (A) (A) (A) (A) (A) (A) (A)
                 (A) (A) (A) (A) (A) (A) (A) (A) (A) (A) (A) (A)
                 (A) (A) (A) (A) (A) (A) (A) (A) (A) (A) (A) (A)
                 (A) (A) (A) (A) (A) (A) (A) (A) (A) (A) (A) (A)
                 (A) (A) (A) (A) (A) (A) (A) (A) (A) (A) (A) (A)
                 (A) (A) (A) (A) (A) (A) (A) (A) (A) (A) (A) (A)
                 (A) (A) (A) (A) (A) (A) (A) (A) (A) (A) (A) (A)
                 (A) (A) (A) (A) (A) (A) (A) (A) (A) (A) (A) (A)
                 (A) (A) (A) (A) (A) (A) (A) (A) (A) (A) (A) (A)
                 (A) (A) (A) (A) (A) (A) (A) (A) (A) (A) (A) (A)
                 (A) (A) (A) (A) (A) (A) (A) (A) (A) (A) (A) (A)
                 (A) (A) (A) (A) (A) (A) (A) (A) (A) (A) (A) (A)
                 (A) (A) (A) (A) (A) (A) (A) (A) (A) (A) (A) (A)
                 (A) (A) (A) (A) (A) (A) (A) (A) (A) (A) (A) (A)
                 (A) (A) (A) (A) (A) (A) (A) (A) (A) (A) (A) (A)
                 (A) (A) (A) (A) (A) (A) (A) (A) (A) (A) (A) (A)
                 (A) (A) (A) (A) (A) (A) (A) (A) (A) (A) (A) (A)
                 (A) (A) (A) (A) (A) (A) (A) (A) (A) (A) (A) (A)
                 (A) (A) (A) (A) (A) (A) (A) (A) (A) (A) (A) (A)
                 (A) (A) (A) (A) (A) (A) (A) (A) (A) (A) (A) (A)
                 (A) (A) (A) (A) (A) (A) (A) (A) (A) (A) (A) (A)
                 (A) (A) (A) (A) (A) (A) (A) (A) (A) (A) (A) (A)
                 (A) (A) (A) (A) (A) (A) (A) (A) (A) (A) (A) (A)
                 (A) (A) (A) (A) (A) (A) (A) (A) (A) (A) (A) (A)
                 (A) (A) (A) (A) (A) (A) (A) (A) (A) (A) (A) (A)
                 (A) (A) (A) (A) (A) (A) (A) (A) (A) (A) (A) (A)
                 (A) (A) (A) (A) (A) (A) (A) (A) (A) (A) (A) (A)
                 (A) (A) (A) (A) (A) (A) (A) (A) (A) (A) (A) (A)
                 (A) (A) (A) (A) (A) (A) (A) (A) (A) (A) (A) (A)
                 (A) (A) (A) (A) (A) (A) (A) (A) (A) (A) (A) (A)
                 (A) (A) (A) (A) (A) (A) (A) (A) (A) (A) (A) (A)
                 (A) (A) (A) (A) (A) (A) (A) (A) (A) (A) (A) (A)
                 (A) (A) (A) (A) (A) (A) (A) (A) (A) (A) (A) (A)
                 (A) (A) (A) (A) (A) (A) (A) (A) (A) (A) (A) (A)
                 (A) (A) (A) (A) (A) (A) (A) (A) (A) (A) (A) (A)
                 (A) (A) (A) (A) (A) (A) (A) (A) (A) (A) (A) (A)
                 (A) (A) (A) (A) (A) (A) (A) (A) (A) (A) (A) (A)
                 (A) (A) (A) (A) (A) (A) (A) (A) (A) (A) (A) (A)
                 (A) (A) (A) (A) (A) (A) (A) (A) (A) (A) (A) (A)
                 (A) (A) (A) (A) (A) (A) (A) (A) (A) (A) (A) (A)
                 (A) (A) (A) (A) (A) (A) (A) (A) (A) (A) (A) (A)
                 (A) (A) (A) (A) (A) (A) (A) (A) (A) (A) (A) (A)
                 (A) (A) (A) (A) (A) (A) (A) (A) (A) (A) (A) (A)
                 (A) (A) (A) (A) (A) (A) (A) (A) (A) (A) (A) (A)
                 (A) (A) (A) (A) (A) (A) (A) (A) (A) (A) (A) (A)
                 (A) (A) (A) (A) (A) (A) (A) (A) (A) (A) (A) (A)
                 (A) (A) (A) (A) (A) (A) (A) (A) (A) (A) (A) (A)
                 (A) (A) (A) (A) (A) (A) (A) (A) (A) (A) (A) (A)
                 (A) (A) (A) (A) (A) (A) (A) (A) (A) (A) (A) (A)
                 (A) (A) (A) (A) (A) (A) (A) (A) (A) (A) (A) (A)
                 (A) (A) (A) (A) (A) (A) (A) (A) (A) (A) (A) (A)
                 (A) (A) (A) (A) (A) (A) (A) (A) (A) (A) (A) (A)
                 (A) (A) (A) (A) (A) (A) (A) (A) (A) (A) (A) (A)
                 (A) (A) (A) (A) (A) (A) (A) (A) (A) (A) (A) (A)
                 (A) (A) (A) (A) (A) (A) (A) (A) (A) (A) (A) (A)
                 (A) (A) (A) (A) (A) (A) (A) (A) (A) (A) (A) (A)
                 (A) (A) (A) (A) (A) (A) (A) (A) (A) (A) (A) (A)
                 (A) (A) (A) (A) (A) (A) (A) (A) (A) (A) (A) (A)
                 (A) (A) (A) (A) (A) (A) (A) (A) (A) (A) (A) (A)
                 (A) (A) (A) (A) (A) (A) (A) (A) (A) (A) (A) (A)
                 (A) (A) (A) (A) (A) (A) (A) (A) (A) (A) (A) (A)
                 (A) (A) (A) (A) (A) (A) (A) (A) (A) (A) (A) (A)
                 (A) (A) (A) (A) (A) (A) (A) (A) (A) (A) (A) (A)
                 (A) (A) (A) (A) (A) (A) (A) (A) (A) (A) (A) (A)
                 (A) (A) (A) (A) (A) (A) (A) (A) (A) (A) (A) (A)
                 (A) (A) (A) (A) (A) (A) (A) (A) (A) (A) (A) (A)
                 (A) (A) (A) (A) (A) (A) (A) (A) (A) (A) (A) (A)
                 (A) (A) (A) (A) (A) (A) (A) (A) (A) (A) (A) (A)
                 (A) (A) (A) (A) (A) (A) (A) (A) (A) (A) (A) (A)
                 (A) (A) (A) (A) (A) (A) (A) (A) (A) (A) (A) (A)
                 (A) (A) (A) (A) (A) (A) (A) (A) (A) (A) (A) (A)
                 (A) (A) (A) (A) (A) (A) (A) (A) (A) (A) (A) (A)
                 (A) (A) (A) (A) (A) (A) (A) (A) (A) (A) (A) (A)
                 (A) (A) (A) (A) (A) (A) (A) (A) (A) (A) (A) (A)
                 (A) (A) (A) (A) (A) (A) (A) (A) (A) (A) (A) (A)
                 (A) (A) (A) (A) (A) (A) (A) (A) (A) (A) (A) (A)
                 (A) (A) (A) (A) (A) (A) (A) (A) (A) (A) (A) (A)
                 (A) (A) (A) (A) (A) (A) (A) (A) (A) (A) (A) (A)
                 (A) (A) (A) (A) (A) (A) (A) (A) (A) (A) (A) (A)
                 (A) (A) (A) (A) (A) (A) (A) (A) (A) (A) (A) (A)
                 (A) (A) (A) (A) (A) (A) (A) (A) (A) (A) (A) (A)
                 (A) (A) (A) (A) (A) (A) (A) (A) (A) (A) (A) (A)
                 (A) (A) (A) (A) (A) (A) (A) (A) (A) (A) (A) (A)
                 (A) (A) (A) (A) (A) (A) (A) (A) (A) (A) (A) (A)
                 (A) (A) (A) (A) (A) (A) (A) (A) (A) (A) (A) (A)
                 (A) (A) (A) (A) (A) (A) (A) (A) (A) (A) (A) (A)
                 (A) (A) (A) (A) (A) (A) (A) (A) (A) (A) (A) (A)
                 (A) (A) (A) (A) (A) (A) (A) (A) (A) (A) (A) (A)
                 (A) (A) (A) (A) (A) (A) (A) (A) (A) (A) (A) (A)
                 (A) (A) (A) (A) (A) (A) (A) (A) (A) (A) (A) (A)
                 (A) (A) (A) (A) (A) (A) (A) (A) (A) (A) (A) (A)
                 (A) (A) (A)
 Beta  Orbitals:
       Occupied  (A) (A) (A) (A) (A) (A) (A) (A) (A) (A) (A) (A)
                 (A) (A) (A) (A) (A) (A) (A) (A) (A) (A) (A) (A)
                 (A) (A) (A) (A) (A) (A) (A) (A) (A) (A) (A) (A)
                 (A) (A) (A) (A) (A) (A) (A) (A) (A) (A) (A) (A)
                 (A) (A) (A) (A) (A) (A) (A) (A) (A) (A) (A) (A)
                 (A) (A) (A) (A) (A) (A) (A) (A) (A) (A) (A) (A)
                 (A) (A) (A) (A) (A) (A) (A) (A) (A) (A) (A) (A)
                 (A) (A) (A) (A) (A) (A) (A) (A) (A) (A) (A) (A)
                 (A) (A) (A) (A) (A) (A) (A) (A) (A) (A) (A) (A)
                 (A) (A) (A) (A) (A) (A) (A) (A) (A) (A) (A) (A)
                 (A) (A) (A) (A) (A) (A) (A) (A) (A) (A) (A) (A)
                 (A) (A) (A) (A) (A) (A) (A) (A) (A) (A) (A) (A)
                 (A) (A) (A) (A) (A) (A) (A) (A) (A) (A) (A) (A)
                 (A) (A) (A) (A) (A) (A) (A) (A) (A) (A) (A) (A)
                 (A) (A) (A) (A) (A) (A) (A) (A) (A) (A) (A) (A)
                 (A) (A) (A) (A) (A) (A) (A) (A)
       Virtual   (A) (A) (A) (A) (A) (A) (A) (A) (A) (A) (A) (A)
                 (A) (A) (A) (A) (A) (A) (A) (A) (A) (A) (A) (A)
                 (A) (A) (A) (A) (A) (A) (A) (A) (A) (A) (A) (A)
                 (A) (A) (A) (A) (A) (A) (A) (A) (A) (A) (A) (A)
                 (A) (A) (A) (A) (A) (A) (A) (A) (A) (A) (A) (A)
                 (A) (A) (A) (A) (A) (A) (A) (A) (A) (A) (A) (A)
                 (A) (A) (A) (A) (A) (A) (A) (A) (A) (A) (A) (A)
                 (A) (A) (A) (A) (A) (A) (A) (A) (A) (A) (A) (A)
                 (A) (A) (A) (A) (A) (A) (A) (A) (A) (A) (A) (A)
                 (A) (A) (A) (A) (A) (A) (A) (A) (A) (A) (A) (A)
                 (A) (A) (A) (A) (A) (A) (A) (A) (A) (A) (A) (A)
                 (A) (A) (A) (A) (A) (A) (A) (A) (A) (A) (A) (A)
                 (A) (A) (A) (A) (A) (A) (A) (A) (A) (A) (A) (A)
                 (A) (A) (A) (A) (A) (A) (A) (A) (A) (A) (A) (A)
                 (A) (A) (A) (A) (A) (A) (A) (A) (A) (A) (A) (A)
                 (A) (A) (A) (A) (A) (A) (A) (A) (A) (A) (A) (A)
                 (A) (A) (A) (A) (A) (A) (A) (A) (A) (A) (A) (A)
                 (A) (A) (A) (A) (A) (A) (A) (A) (A) (A) (A) (A)
                 (A) (A) (A) (A) (A) (A) (A) (A) (A) (A) (A) (A)
                 (A) (A) (A) (A) (A) (A) (A) (A) (A) (A) (A) (A)
                 (A) (A) (A) (A) (A) (A) (A) (A) (A) (A) (A) (A)
                 (A) (A) (A) (A) (A) (A) (A) (A) (A) (A) (A) (A)
                 (A) (A) (A) (A) (A) (A) (A) (A) (A) (A) (A) (A)
                 (A) (A) (A) (A) (A) (A) (A) (A) (A) (A) (A) (A)
                 (A) (A) (A) (A) (A) (A) (A) (A) (A) (A) (A) (A)
                 (A) (A) (A) (A) (A) (A) (A) (A) (A) (A) (A) (A)
                 (A) (A) (A) (A) (A) (A) (A) (A) (A) (A) (A) (A)
                 (A) (A) (A) (A) (A) (A) (A) (A) (A) (A) (A) (A)
                 (A) (A) (A) (A) (A) (A) (A) (A) (A) (A) (A) (A)
                 (A) (A) (A) (A) (A) (A) (A) (A) (A) (A) (A) (A)
                 (A) (A) (A) (A) (A) (A) (A) (A) (A) (A) (A) (A)
                 (A) (A) (A) (A) (A) (A) (A) (A) (A) (A) (A) (A)
                 (A) (A) (A) (A) (A) (A) (A) (A) (A) (A) (A) (A)
                 (A) (A) (A) (A) (A) (A) (A) (A) (A) (A) (A) (A)
                 (A) (A) (A) (A) (A) (A) (A) (A) (A) (A) (A) (A)
                 (A) (A) (A) (A) (A) (A) (A) (A) (A) (A) (A) (A)
                 (A) (A) (A) (A) (A) (A) (A) (A) (A) (A) (A) (A)
                 (A) (A) (A) (A) (A) (A) (A) (A) (A) (A) (A) (A)
                 (A) (A) (A) (A) (A) (A) (A) (A) (A) (A) (A) (A)
                 (A) (A) (A) (A) (A) (A) (A) (A) (A) (A) (A) (A)
                 (A) (A) (A) (A) (A) (A) (A) (A) (A) (A) (A) (A)
                 (A) (A) (A) (A) (A) (A) (A) (A) (A) (A) (A) (A)
                 (A) (A) (A) (A) (A) (A) (A) (A) (A) (A) (A) (A)
                 (A) (A) (A) (A) (A) (A) (A) (A) (A) (A) (A) (A)
                 (A) (A) (A) (A) (A) (A) (A) (A) (A) (A) (A) (A)
                 (A) (A) (A) (A) (A) (A) (A) (A) (A) (A) (A) (A)
                 (A) (A) (A) (A) (A) (A) (A) (A) (A) (A) (A) (A)
                 (A) (A) (A) (A) (A) (A) (A) (A) (A) (A) (A) (A)
                 (A) (A) (A) (A) (A) (A) (A) (A) (A) (A) (A) (A)
                 (A) (A) (A) (A) (A) (A) (A) (A) (A) (A) (A) (A)
                 (A) (A) (A) (A) (A) (A) (A) (A) (A) (A) (A) (A)
                 (A) (A) (A) (A) (A) (A) (A) (A) (A) (A) (A) (A)
                 (A) (A) (A) (A) (A) (A) (A) (A) (A) (A) (A) (A)
                 (A) (A) (A) (A) (A) (A) (A) (A) (A) (A) (A) (A)
                 (A) (A) (A) (A) (A) (A) (A) (A) (A) (A) (A) (A)
                 (A) (A) (A) (A) (A) (A) (A) (A) (A) (A) (A) (A)
                 (A) (A) (A) (A) (A) (A) (A) (A) (A) (A) (A) (A)
                 (A) (A) (A) (A) (A) (A) (A) (A) (A) (A) (A) (A)
                 (A) (A) (A) (A) (A) (A) (A) (A) (A) (A) (A) (A)
                 (A) (A) (A) (A) (A) (A) (A) (A) (A) (A) (A) (A)
                 (A) (A) (A) (A) (A) (A) (A) (A) (A) (A) (A) (A)
                 (A) (A) (A) (A) (A) (A) (A) (A) (A) (A) (A) (A)
                 (A) (A) (A) (A) (A) (A) (A) (A) (A) (A) (A) (A)
                 (A) (A) (A) (A) (A) (A) (A) (A) (A) (A) (A) (A)
                 (A) (A) (A) (A) (A) (A) (A) (A) (A) (A) (A) (A)
                 (A) (A) (A) (A) (A) (A) (A) (A) (A) (A) (A) (A)
                 (A) (A) (A) (A) (A) (A) (A) (A) (A) (A) (A) (A)
                 (A) (A) (A) (A) (A) (A) (A) (A) (A) (A) (A) (A)
                 (A) (A) (A) (A) (A) (A) (A) (A) (A) (A) (A) (A)
                 (A) (A) (A) (A) (A) (A) (A) (A) (A) (A) (A) (A)
                 (A) (A) (A) (A) (A) (A) (A) (A) (A) (A) (A) (A)
                 (A) (A) (A) (A) (A) (A) (A) (A) (A) (A) (A) (A)
                 (A) (A) (A) (A) (A) (A) (A) (A) (A) (A) (A) (A)
                 (A) (A) (A) (A) (A) (A) (A) (A) (A) (A) (A) (A)
                 (A) (A) (A) (A) (A) (A) (A) (A) (A) (A) (A) (A)
                 (A) (A) (A) (A) (A) (A) (A) (A) (A) (A) (A) (A)
                 (A) (A) (A) (A) (A) (A) (A) (A) (A) (A) (A) (A)
                 (A) (A) (A) (A) (A) (A) (A) (A) (A) (A) (A) (A)
                 (A) (A) (A) (A) (A) (A) (A) (A) (A) (A) (A) (A)
                 (A) (A) (A) (A) (A) (A) (A) (A) (A) (A) (A) (A)
                 (A) (A) (A) (A) (A) (A) (A) (A) (A) (A) (A) (A)
                 (A) (A) (A) (A) (A) (A) (A) (A) (A) (A) (A) (A)
                 (A) (A) (A) (A) (A) (A) (A) (A) (A) (A) (A) (A)
                 (A) (A) (A) (A) (A) (A) (A) (A) (A) (A) (A) (A)
                 (A) (A) (A) (A) (A) (A) (A) (A) (A) (A) (A) (A)
                 (A) (A) (A) (A) (A) (A) (A) (A) (A) (A) (A) (A)
                 (A) (A) (A) (A) (A) (A) (A) (A) (A) (A) (A) (A)
                 (A) (A) (A) (A) (A) (A) (A) (A) (A) (A) (A) (A)
                 (A) (A) (A) (A) (A) (A) (A) (A) (A) (A) (A) (A)
                 (A) (A) (A) (A) (A) (A) (A) (A) (A) (A) (A) (A)
                 (A) (A) (A) (A) (A) (A) (A) (A) (A) (A) (A) (A)
                 (A) (A) (A) (A) (A) (A) (A) (A) (A) (A) (A) (A)
                 (A) (A) (A) (A) (A) (A) (A) (A) (A) (A) (A) (A)
                 (A) (A) (A) (A) (A) (A) (A) (A) (A) (A) (A) (A)
                 (A) (A) (A) (A) (A) (A) (A) (A) (A) (A) (A) (A)
                 (A) (A) (A) (A) (A) (A) (A) (A) (A) (A) (A) (A)
                 (A) (A) (A) (A) (A) (A) (A) (A) (A) (A) (A) (A)
                 (A) (A) (A) (A) (A) (A) (A) (A) (A) (A) (A) (A)
                 (A) (A) (A) (A) (A) (A) (A) (A) (A) (A) (A) (A)
                 (A) (A) (A) (A) (A) (A) (A) (A) (A) (A) (A) (A)
                 (A) (A) (A) (A) (A) (A) (A) (A) (A) (A) (A) (A)
                 (A) (A) (A) (A) (A) (A) (A) (A) (A) (A) (A) (A)
                 (A) (A) (A) (A) (A) (A) (A) (A) (A) (A) (A) (A)
                 (A) (A) (A) (A) (A) (A) (A) (A) (A) (A) (A) (A)
                 (A) (A) (A) (A) (A) (A) (A) (A) (A) (A) (A) (A)
                 (A) (A) (A) (A) (A) (A) (A) (A) (A) (A) (A) (A)
                 (A) (A) (A) (A) (A) (A) (A) (A) (A) (A) (A) (A)
                 (A) (A) (A) (A) (A) (A) (A) (A) (A) (A) (A) (A)
                 (A) (A) (A) (A) (A) (A) (A) (A) (A) (A) (A) (A)
                 (A) (A) (A) (A) (A) (A) (A) (A) (A) (A) (A) (A)
                 (A) (A) (A) (A) (A) (A) (A) (A) (A) (A) (A) (A)
                 (A) (A) (A) (A) (A) (A) (A) (A) (A) (A) (A) (A)
                 (A) (A) (A) (A) (A) (A) (A) (A) (A) (A) (A) (A)
                 (A) (A) (A) (A) (A) (A) (A) (A) (A) (A) (A) (A)
                 (A) (A) (A) (A) (A) (A) (A) (A) (A) (A) (A) (A)
                 (A) (A) (A) (A) (A) (A) (A) (A) (A) (A) (A) (A)
                 (A) (A) (A) (A) (A) (A) (A) (A) (A) (A) (A) (A)
                 (A) (A) (A) (A) (A) (A) (A) (A) (A) (A) (A) (A)
                 (A) (A) (A) (A) (A) (A) (A) (A) (A) (A) (A) (A)
                 (A) (A) (A) (A) (A) (A) (A) (A) (A) (A) (A) (A)
                 (A) (A) (A) (A) (A) (A) (A) (A) (A) (A) (A) (A)
                 (A) (A) (A) (A) (A) (A) (A) (A) (A) (A) (A) (A)
                 (A) (A) (A) (A) (A) (A) (A) (A) (A) (A) (A) (A)
                 (A) (A) (A) (A) (A) (A) (A) (A) (A) (A) (A) (A)
                 (A) (A) (A) (A) (A) (A) (A) (A) (A) (A) (A) (A)
                 (A) (A) (A) (A) (A) (A) (A) (A) (A) (A) (A) (A)
                 (A) (A) (A) (A) (A) (A) (A) (A) (A) (A) (A) (A)
[...]
 
              Baa    -0.0001    -0.012    -0.004    -0.004  0.4030  0.9026 -0.1515
    25 C(13)  Bbb    -0.0001    -0.011    -0.004    -0.004  0.0359  0.1498  0.9881
              Bcc     0.0002     0.023     0.008     0.008  0.9145 -0.4036  0.0280
 
              Baa    -0.0001    -0.015    -0.005    -0.005  0.4970  0.8632  0.0884
    26 C(13)  Bbb    -0.0001    -0.014    -0.005    -0.005 -0.0647 -0.0648  0.9958
              Bcc     0.0002     0.029     0.010     0.010  0.8653 -0.5007  0.0236
 
              Baa    -0.0002    -0.029    -0.010    -0.010  0.5020  0.8647 -0.0155
    27 C(13)  Bbb    -0.0001    -0.019    -0.007    -0.006 -0.0483  0.0459  0.9978
              Bcc     0.0004     0.047     0.017     0.016  0.8635 -0.5001  0.0648
 
              Baa    -0.0003    -0.035    -0.012    -0.012  0.5410  0.8259 -0.1585
    28 C(13)  Bbb    -0.0003    -0.034    -0.012    -0.011 -0.0487  0.2189  0.9745
              Bcc     0.0005     0.068     0.024     0.023  0.8396 -0.5195  0.1586
 
              Baa    -0.0006    -0.075    -0.027    -0.025  0.5243  0.8511 -0.0259
    29 C(13)  Bbb    -0.0004    -0.053    -0.019    -0.018 -0.4070  0.2772  0.8704
              Bcc     0.0010     0.128     0.046     0.043  0.7480 -0.4458  0.4917
 
              Baa    -0.0012    -0.155    -0.055    -0.052  0.2712  0.5936  0.7577
    30 C(13)  Bbb    -0.0011    -0.152    -0.054    -0.051  0.3925  0.6506 -0.6502
              Bcc     0.0023     0.308     0.110     0.103  0.8789 -0.4737  0.0565
 
              Baa    -0.0061    -0.816    -0.291    -0.272  0.7800  0.5194 -0.3489
    31 C(13)  Bbb    -0.0057    -0.771    -0.275    -0.257 -0.2757  0.7859  0.5536
              Bcc     0.0118     1.587     0.566     0.529  0.5617 -0.3356  0.7562
 
              Baa    -0.0061     0.438     0.156     0.146  0.5307  0.8472  0.0243
    32 O(17)  Bbb     0.0010    -0.074    -0.026    -0.025 -0.4966  0.2876  0.8189
              Bcc     0.0050    -0.364    -0.130    -0.121  0.6868 -0.4467  0.5734
 
              Baa    -0.0016    -0.210    -0.075    -0.070  0.5582  0.8211  0.1190
    33 C(13)  Bbb    -0.0007    -0.096    -0.034    -0.032  0.0626 -0.1846  0.9808
              Bcc     0.0023     0.307     0.109     0.102  0.8273 -0.5400 -0.1545
 
              Baa    -0.0865   -11.601    -4.140    -3.870  0.5518  0.8309  0.0710
    34 C(13)  Bbb    -0.0798   -10.706    -3.820    -3.571  0.8299 -0.5387 -0.1452
              Bcc     0.1662    22.307     7.960     7.441  0.0824 -0.1390  0.9869
 
              Baa    -0.0540    -7.248    -2.586    -2.418  0.0972 -0.1474  0.9843
    35 C(13)  Bbb     0.0232     3.113     1.111     1.038  0.7204  0.6928  0.0326
              Bcc     0.0308     4.134     1.475     1.379 -0.6867  0.7059  0.1735
 
              Baa    -0.0691    -9.271    -3.308    -3.093  0.4001  0.9116  0.0939
    36 C(13)  Bbb    -0.0596    -7.999    -2.854    -2.668  0.9113 -0.3848 -0.1466
              Bcc     0.1287    17.270     6.162     5.761  0.0975 -0.1442  0.9847
 
              Baa    -0.0639    -8.579    -3.061    -2.862  0.0941 -0.1504  0.9841
    37 C(13)  Bbb     0.0149     1.999     0.713     0.667  0.5533  0.8297  0.0739
              Bcc     0.0490     6.580     2.348     2.195  0.8277 -0.5376 -0.1613
 
              Baa    -0.5587   -21.549    -7.689    -7.188  0.5531  0.8295  0.0775
    38 N(14)  Bbb    -0.5465   -21.077    -7.521    -7.031  0.8281 -0.5372 -0.1599
              Bcc     1.1052    42.626    15.210    14.219  0.0911 -0.1526  0.9841
 
              Baa    -0.5489    39.716    14.172    13.248  0.8927  0.4506 -0.0123
    39 O(17)  Bbb    -0.4888    35.370    12.621    11.798 -0.4415  0.8796  0.1772
              Bcc     1.0377   -75.087   -26.793   -25.046  0.0906 -0.1527  0.9841
 
              Baa    -0.5492    39.739    14.180    13.255  0.0627  0.9870  0.1478
    40 O(17)  Bbb    -0.4891    35.392    12.629    11.805  0.9938 -0.0482 -0.0998
              Bcc     1.0383   -75.130   -26.808   -25.061  0.0914 -0.1532  0.9840
 
              Baa    -0.0707    -9.486    -3.385    -3.164  0.6825  0.7296  0.0436
    41 C(13)  Bbb    -0.0612    -8.215    -2.931    -2.740  0.7249 -0.6681 -0.1676
              Bcc     0.1319    17.701     6.316     5.904  0.0931 -0.1460  0.9849
 
              Baa    -0.0539    -7.230    -2.580    -2.412  0.0958 -0.1478  0.9844
    42 C(13)  Bbb     0.0231     3.096     1.105     1.033  0.3495  0.9309  0.1058
              Bcc     0.0308     4.134     1.475     1.379  0.9320 -0.3339 -0.1409
 
              Baa    -0.0006    -0.076    -0.027    -0.025  0.5103  0.8598 -0.0152
    43 C(13)  Bbb    -0.0002    -0.025    -0.009    -0.008  0.0235  0.0038  0.9997
              Bcc     0.0008     0.101     0.036     0.034  0.8596 -0.5106 -0.0183
 
              Baa    -0.0002    -0.033    -0.012    -0.011  0.3904  0.7800 -0.4891
    44 C(13)  Bbb    -0.0002    -0.032    -0.011    -0.011  0.2988  0.3952  0.8687
              Bcc     0.0005     0.065     0.023     0.022  0.8708 -0.4853 -0.0788
 
              Baa    -0.0001    -0.011    -0.004    -0.004  0.5898  0.7986 -0.1197
    45 C(13)  Bbb    -0.0001    -0.011    -0.004    -0.004  0.0422  0.1176  0.9922
              Bcc     0.0002     0.022     0.008     0.007  0.8065 -0.5902  0.0357
 
              Baa    -0.0001    -0.012    -0.004    -0.004  0.0003  0.0568  0.9984
    46 C(13)  Bbb    -0.0001    -0.011    -0.004    -0.004  0.6912  0.7215 -0.0413
              Bcc     0.0002     0.023     0.008     0.008  0.7227 -0.6901  0.0391
 
              Baa    -0.0001    -0.016    -0.006    -0.005  0.1279  0.1728  0.9766
    47 C(13)  Bbb    -0.0001    -0.016    -0.006    -0.005  0.7472  0.6308 -0.2095
              Bcc     0.0002     0.032     0.011     0.011 -0.6522  0.7565 -0.0485
 
              Baa    -0.0001    -0.008    -0.003    -0.003  0.1603  0.2033  0.9659
    48 C(13)  Bbb    -0.0001    -0.008    -0.003    -0.003  0.6942  0.6724 -0.2567
              Bcc     0.0001     0.017     0.006     0.006 -0.7017  0.7117 -0.0334
 
              Baa    -0.0001    -0.007    -0.003    -0.002  0.0209  0.0683  0.9974
    49 C(13)  Bbb    -0.0001    -0.007    -0.002    -0.002  0.6494  0.7576 -0.0655
              Bcc     0.0001     0.014     0.005     0.005  0.7601 -0.6491  0.0286
 
              Baa    -0.0000    -0.005    -0.002    -0.002  0.0990  0.1532  0.9832
    50 C(13)  Bbb    -0.0000    -0.005    -0.002    -0.002  0.6438  0.7436 -0.1807
              Bcc     0.0001     0.010     0.004     0.003  0.7588 -0.6509  0.0250
 
              Baa    -0.0001    -0.002    -0.001    -0.001  0.5714  0.8118  0.1204
    51 N(14)  Bbb    -0.0001    -0.002    -0.001    -0.001 -0.0933 -0.0816  0.9923
              Bcc     0.0001     0.005     0.002     0.002  0.8153 -0.5783  0.0291
 
              Baa    -0.0000    -0.008    -0.003    -0.003 -0.3748 -0.6163  0.6926
    52 B(11)  Bbb    -0.0000    -0.008    -0.003    -0.003  0.3240  0.6129  0.7207
              Bcc     0.0001     0.017     0.006     0.006  0.8686 -0.4946  0.0300
 
              Baa    -0.0000    -0.020    -0.007    -0.007 -0.0823 -0.2241  0.9711
    53 F(19)  Bbb    -0.0000    -0.020    -0.007    -0.007  0.4913  0.8387  0.2351
              Bcc     0.0001     0.040     0.014     0.014  0.8671 -0.4964 -0.0411
 
              Baa    -0.0000    -0.021    -0.008    -0.007 -0.4223 -0.5965  0.6825
    54 F(19)  Bbb    -0.0000    -0.021    -0.008    -0.007  0.2654  0.6386  0.7223
              Bcc     0.0001     0.042     0.015     0.014  0.8667 -0.4862  0.1114
 
              Baa    -0.0002    -0.083    -0.030    -0.028 -0.1917 -0.2928  0.9368
    55 H(1)   Bbb    -0.0001    -0.079    -0.028    -0.026  0.1498  0.9345  0.3228
              Bcc     0.0003     0.162     0.058     0.054  0.9699 -0.2023  0.1353
 
              Baa    -0.0001    -0.062    -0.022    -0.021 -0.0464 -0.1990  0.9789
    56 H(1)   Bbb    -0.0001    -0.059    -0.021    -0.020  0.0956  0.9746  0.2026
              Bcc     0.0002     0.122     0.043     0.041  0.9943 -0.1030  0.0262
 
              Baa    -0.0002    -0.086    -0.031    -0.029  0.0675  0.0234  0.9974
    57 H(1)   Bbb    -0.0002    -0.083    -0.030    -0.028  0.2010  0.9789 -0.0366
              Bcc     0.0003     0.170     0.061     0.057  0.9773 -0.2029 -0.0613
 
              Baa    -0.0001    -0.033    -0.012    -0.011 -0.0372 -0.1927  0.9806
    58 H(1)   Bbb    -0.0001    -0.032    -0.012    -0.011  0.1635  0.9668  0.1962
              Bcc     0.0001     0.065     0.023     0.022  0.9858 -0.1677  0.0045
 
              Baa    -0.0000    -0.019    -0.007    -0.006 -0.0769 -0.2104  0.9746
    59 H(1)   Bbb    -0.0000    -0.019    -0.007    -0.006  0.3618  0.9050  0.2239
              Bcc     0.0001     0.038     0.013     0.013  0.9291 -0.3699 -0.0065
 
              Baa    -0.0000    -0.020    -0.007    -0.007 -0.0505 -0.2173  0.9748
    60 H(1)   Bbb    -0.0000    -0.020    -0.007    -0.007  0.1778  0.9585  0.2229
              Bcc     0.0001     0.041     0.014     0.014  0.9828 -0.1845  0.0098
 
              Baa    -0.0000    -0.008    -0.003    -0.003 -0.0040 -0.1707  0.9853
    61 H(1)   Bbb    -0.0000    -0.008    -0.003    -0.003 -0.0073  0.9853  0.1706
              Bcc     0.0000     0.016     0.006     0.005  1.0000  0.0065  0.0052
 
              Baa    -0.0000    -0.009    -0.003    -0.003  0.0055 -0.1848  0.9828
    62 H(1)   Bbb    -0.0000    -0.009    -0.003    -0.003 -0.1159  0.9760  0.1842
              Bcc     0.0000     0.018     0.006     0.006  0.9933  0.1149  0.0161
 
              Baa    -0.0000    -0.017    -0.006    -0.006 -0.0143 -0.2143  0.9767
    63 H(1)   Bbb    -0.0000    -0.017    -0.006    -0.006 -0.0342  0.9763  0.2137
              Bcc     0.0001     0.034     0.012     0.011  0.9993  0.0304  0.0213
 
              Baa    -0.0000    -0.008    -0.003    -0.003 -0.0516 -0.4772  0.8773
    64 H(1)   Bbb    -0.0000    -0.008    -0.003    -0.003  0.0990  0.8717  0.4799
              Bcc     0.0000     0.016     0.006     0.005  0.9938 -0.1116 -0.0023
 
              Baa    -0.0000    -0.008    -0.003    -0.003 -0.0208 -0.2042  0.9787
    65 H(1)   Bbb    -0.0000    -0.008    -0.003    -0.003  0.2226  0.9534  0.2037
              Bcc     0.0000     0.016     0.006     0.005  0.9747 -0.2221 -0.0256
 
              Baa    -0.0000    -0.009    -0.003    -0.003 -0.1006 -0.2178  0.9708
    66 H(1)   Bbb    -0.0000    -0.009    -0.003    -0.003  0.2324  0.9436  0.2358
              Bcc     0.0000     0.017     0.006     0.006  0.9674 -0.2493  0.0444
 
              Baa    -0.0000    -0.010    -0.004    -0.003  0.0473 -0.1931  0.9800
    67 H(1)   Bbb    -0.0000    -0.010    -0.004    -0.003  0.2839  0.9433  0.1721
              Bcc     0.0000     0.020     0.007     0.007  0.9577 -0.2701 -0.0994
 
              Baa    -0.0000    -0.009    -0.003    -0.003 -0.0221 -0.1963  0.9803
    68 H(1)   Bbb    -0.0000    -0.009    -0.003    -0.003  0.3292  0.9244  0.1925
              Bcc     0.0000     0.018     0.006     0.006  0.9440 -0.3270 -0.0442
 
              Baa    -0.0000    -0.013    -0.005    -0.004 -0.0017 -0.1604  0.9871
    69 H(1)   Bbb    -0.0000    -0.013    -0.005    -0.004  0.3472  0.9256  0.1510
              Bcc     0.0000     0.026     0.009     0.009  0.9378 -0.3429 -0.0541
 
              Baa    -0.0000    -0.012    -0.004    -0.004 -0.1429 -0.3051  0.9416
    70 H(1)   Bbb    -0.0000    -0.012    -0.004    -0.004  0.3013  0.8928  0.3350
              Bcc     0.0000     0.024     0.009     0.008  0.9428 -0.3316  0.0356
 
              Baa    -0.0002    -0.085    -0.030    -0.028  0.5378  0.8327 -0.1321
    71 H(1)   Bbb    -0.0001    -0.077    -0.028    -0.026 -0.1925  0.2738  0.9423
              Bcc     0.0003     0.162     0.058     0.054  0.8208 -0.4814  0.3076
 
              Baa    -0.0004    -0.208    -0.074    -0.070  0.5282  0.8488 -0.0214
    72 H(1)   Bbb    -0.0003    -0.145    -0.052    -0.048 -0.3969  0.2691  0.8775
              Bcc     0.0007     0.354     0.126     0.118  0.7507 -0.4550  0.4790
 
              Baa    -0.0017    -0.930    -0.332    -0.310  0.0676  0.9038 -0.4226
    73 H(1)   Bbb    -0.0016    -0.867    -0.309    -0.289  0.3431  0.3766  0.8605
              Bcc     0.0034     1.797     0.641     0.599  0.9369 -0.2031 -0.2846
 
              Baa    -0.0018    -0.959    -0.342    -0.320  0.7748  0.3924  0.4957
    74 H(1)   Bbb    -0.0015    -0.815    -0.291    -0.272 -0.2632 -0.5126  0.8173
              Bcc     0.0033     1.774     0.633     0.592 -0.5748  0.7637  0.2939
 
              Baa    -0.0028    -1.490    -0.532    -0.497  0.0868 -0.1612  0.9831
    75 H(1)   Bbb    -0.0012    -0.634    -0.226    -0.211  0.7426  0.6683  0.0440
              Bcc     0.0040     2.124     0.758     0.709 -0.6641  0.7262  0.1777
 
              Baa    -0.0046    -2.470    -0.882    -0.824  0.0895 -0.1462  0.9852
    76 H(1)   Bbb    -0.0017    -0.888    -0.317    -0.296  0.9511 -0.2811 -0.1281
              Bcc     0.0063     3.359     1.198     1.120  0.2957  0.9485  0.1139
 
              Baa    -0.0046    -2.468    -0.881    -0.823  0.0982 -0.1502  0.9838
    77 H(1)   Bbb    -0.0019    -0.990    -0.353    -0.330 -0.6290  0.7567  0.1783
              Bcc     0.0065     3.457     1.234     1.153  0.7712  0.6363  0.0202
 
              Baa    -0.0028    -1.499    -0.535    -0.500  0.1041 -0.1327  0.9857
    78 H(1)   Bbb    -0.0012    -0.630    -0.225    -0.210  0.3274  0.9404  0.0921
              Bcc     0.0040     2.129     0.760     0.710  0.9391 -0.3131 -0.1414
 
              Baa    -0.0005    -0.293    -0.105    -0.098  0.5371  0.8429  0.0334
    79 H(1)   Bbb    -0.0004    -0.218    -0.078    -0.073  0.1967 -0.1636  0.9667
              Bcc     0.0010     0.512     0.183     0.171  0.8203 -0.5126 -0.2537
 
              Baa    -0.0002    -0.095    -0.034    -0.032  0.5249  0.8435  0.1137
    80 H(1)   Bbb    -0.0002    -0.092    -0.033    -0.031  0.1168 -0.2038  0.9720
              Bcc     0.0004     0.187     0.067     0.062  0.8431 -0.4970 -0.2055
 
              Baa    -0.0001    -0.055    -0.020    -0.019  0.1523  0.1630  0.9748
    81 H(1)   Bbb    -0.0001    -0.054    -0.019    -0.018  0.7981  0.5615 -0.2186
              Bcc     0.0002     0.109     0.039     0.036 -0.5830  0.8113 -0.0446
 
              Baa    -0.0001    -0.076    -0.027    -0.025  0.1903  0.3485  0.9178
    82 H(1)   Bbb    -0.0001    -0.073    -0.026    -0.024  0.7362  0.5678 -0.3683
              Bcc     0.0003     0.149     0.053     0.050 -0.6495  0.7457 -0.1485
 
              Baa    -0.0001    -0.079    -0.028    -0.026 -0.0163 -0.0711  0.9973
    83 H(1)   Bbb    -0.0001    -0.077    -0.027    -0.026  0.7568  0.6510  0.0588
              Bcc     0.0003     0.156     0.056     0.052 -0.6534  0.7558  0.0432
 
              Baa    -0.0001    -0.030    -0.011    -0.010  0.1792  0.1935  0.9646
    84 H(1)   Bbb    -0.0001    -0.030    -0.011    -0.010  0.7417  0.6176 -0.2616
              Bcc     0.0001     0.060     0.021     0.020 -0.6463  0.7623 -0.0328
 
              Baa    -0.0000    -0.019    -0.007    -0.006  0.1741  0.2193  0.9600
    85 H(1)   Bbb    -0.0000    -0.019    -0.007    -0.006  0.6775  0.6808 -0.2784
              Bcc     0.0001     0.037     0.013     0.012  0.7147 -0.6988  0.0300
 
              Baa    -0.0000    -0.018    -0.007    -0.006 -0.0082 -0.0646  0.9979
    86 H(1)   Bbb    -0.0000    -0.018    -0.007    -0.006  0.6310  0.7738  0.0553
              Bcc     0.0001     0.037     0.013     0.012  0.7758 -0.6301 -0.0345
 
              Baa    -0.0000    -0.018    -0.007    -0.006  0.2338  0.4029  0.8849
    87 H(1)   Bbb    -0.0000    -0.018    -0.007    -0.006  0.5799  0.6727 -0.4595
              Bcc     0.0001     0.037     0.013     0.012  0.7804 -0.6206  0.0763
 

 ---------------------------------------------------------------------------------

 No NMR shielding tensors so no spin-rotation constants.
 Leave Link  601 at Sat Oct 25 11:11:42 2025, MaxMem= 30870077440 cpu:             233.9 elap:               4.1
 (Enter /public/software/gauss/g16/l9999.exe)
 1\1\GINC-CU056\SP\UM062X\def2TZVPP\C41H33B1F2N6O4(1-,2)\BAIDING\25-Oct
 -2025\0\\#p M062X/DEF2TZVPP scrf=(solvent=water) em=GD3\\Energy calcul
 ation for BONO_N3_reduced\\-1,2\C,0,0.807187,0.88777,-0.026816\C,0,-0.
 193815,-0.227247,-0.003712\C,0,-1.558754,-0.045814,0.087258\C,0,-2.193
 298,-1.320676,0.093285\C,0,-3.588288,-1.627068,0.197897\C,0,-4.567299,
 -0.669269,0.174966\C,0,-5.972951,-0.910613,0.283951\C,0,-6.873011,0.13
 4694,0.196732\O,0,-6.347593,1.409685,0.067494\C,0,-7.14886,2.520253,-0
 .001193\C,0,-8.54978,2.403259,0.060961\C,0,-9.307474,3.585674,-0.00647
 2\C,0,-8.698482,4.826419,-0.132771\C,0,-7.296705,4.903879,-0.197742\N,
 0,-6.578937,6.120049,-0.330932\N,0,-7.216748,7.178124,-0.402246\N,0,-7
 .669136,8.221714,-0.478959\C,0,-6.513086,3.747819,-0.131561\C,0,-9.108
 318,1.081381,0.174556\C,0,-8.308953,-0.018694,0.225724\C,0,-8.85197,-1
 .425461,0.282964\C,0,-7.918377,-2.344483,1.074575\C,0,-6.504301,-2.318
 755,0.484785\N,0,-1.22503,-2.279,0.004159\C,0,0.025359,-1.652067,-0.05
 7333\C,0,1.201458,-2.406888,-0.13465\C,0,2.525723,-1.715543,-0.179677\
 C,0,3.119259,-1.399678,-1.411206\C,0,4.34722,-0.749205,-1.450736\C,0,5
 .012115,-0.397606,-0.26442\C,0,6.323105,0.316549,-0.366317\O,0,6.82605
 6,0.532614,-1.467677\C,0,7.0109,0.769273,0.91921\C,0,8.267069,1.571816
 ,0.698093\C,0,8.206862,2.961652,0.495128\C,0,9.349937,3.716593,0.27023
 \C,0,10.615122,3.087027,0.241246\N,0,11.772297,3.835235,0.019413\O,0,1
 2.935322,3.245447,0.003578\O,0,11.687426,5.122478,-0.172087\C,0,10.691
 283,1.6907,0.444596\C,0,9.530967,0.95918,0.666017\C,0,4.419072,-0.7216
 74,0.966125\C,0,3.189177,-1.375398,1.006541\C,0,1.156653,-3.816988,-0.
 162679\C,0,2.187374,-4.806436,-0.190084\C,0,3.676975,-4.635396,-0.2050
 81\C,0,1.535272,-6.041526,-0.192843\C,0,0.150107,-5.818139,-0.170074\C
 ,0,-0.944442,-6.832328,-0.172355\N,0,-0.077401,-4.480853,-0.146098\B,0
 ,-1.461884,-3.797327,-0.194369\F,0,-2.286348,-4.30196,0.82626\F,0,-2.0
 82305,-4.036533,-1.433175\H,0,1.433126,0.857912,-0.923637\H,0,0.285289
 ,1.848036,-0.00779\H,0,1.481511,0.851062,0.834188\H,0,-2.06491,0.90640
 3,0.163977\H,0,-3.849948,-2.672418,0.306109\H,0,-4.265121,0.365815,0.0
 48228\H,0,-10.390016,3.517387,0.040234\H,0,-9.302772,5.726158,-0.18190
 4\H,0,-5.431978,3.804889,-0.179394\H,0,-10.188744,0.972672,0.204536\H,
 0,-9.85978,-1.41107,0.708807\H,0,-8.945611,-1.809349,-0.742877\H,0,-7.
 884263,-2.014555,2.120039\H,0,-8.305084,-3.368206,1.07059\H,0,-5.82661
 ,-2.866966,1.147425\H,0,-6.493417,-2.857537,-0.473629\H,0,2.612753,-1.
 661469,-2.334782\H,0,4.803487,-0.501167,-2.402764\H,0,6.280239,1.34352
 7,1.501596\H,0,7.221006,-0.132172,1.509227\H,0,7.24114,3.461062,0.5180
 03\H,0,9.287318,4.786622,0.119939\H,0,11.658982,1.205979,0.428045\H,0,
 9.606142,-0.114252,0.822804\H,0,4.908339,-0.469578,1.900177\H,0,2.7386
 97,-1.620001,1.963078\H,0,4.158177,-5.617093,-0.212913\H,0,4.020825,-4
 .084369,-1.086093\H,0,4.038692,-4.089446,0.671962\H,0,2.008774,-7.0143
 76,-0.208883\H,0,-0.524855,-7.835658,-0.267678\H,0,-1.532105,-6.783843
 ,0.75006\H,0,-1.637194,-6.661533,-1.003162\\Version=ES64L-G16RevA.03\S
 tate=2-A\HF=-2436.347297\S2=0.765939\S2-1=0.\S2A=0.750174\RMSD=3.821e-
 09\Dipole=-24.9553819,-6.6508598,1.8179752\Quadrupole=-293.9894031,117
 .8734442,176.1159588,-199.3952299,16.7111883,1.0571492\PG=C01 [X(C41H3
 3B1F2N6O4)]\\@


 POCKETA-POCKETA
 BARON VON RICHTOFEN
 SLAUGHTERED THE ALLIES WITH
 HARDLY A CARE.
 KILLED EIGHTY-ONE WITH HIS
 BLOOD-COLORED TRIPLANE, THEN
 UN-AEROBATICALLY
 PLUNGED FROM THE AIR.
   -- TONY HOFFMAN
 Job cpu time:       2 days  5 hours 25 minutes 19.3 seconds.
 Elapsed time:       0 days  0 hours 50 minutes 40.3 seconds.
 File lengths (MBytes):  RWF=   4876 Int=      0 D2E=      0 Chk=    317 Scr=      1
 Normal termination of Gaussian 16 at Sat Oct 25 11:11:44 2025.
