 Entering Gaussian System, Link 0=g16
 Input=BONO_CO_reduced_sp.gjf
 Output=BONO_CO_reduced_sp.log
 Initial command:
 /public/software/gauss/g16/l1.exe "/public/home/baiding/1024_sp/tmp_BONO_CO_reduced_sp_1526250/Gau-2962221.inp" -scrdir="/public/home/baiding/1024_sp/tmp_BONO_CO_reduced_sp_1526250/"
 Entering Link 1 = /public/software/gauss/g16/l1.exe PID=   2962222.
  
 Copyright (c) 1988,1990,1992,1993,1995,1998,2003,2009,2016,
            Gaussian, Inc.  All Rights Reserved.
  
 This is part of the Gaussian(R) 16 program.  It is based on
 the Gaussian(R) 09 system (copyright 2009, Gaussian, Inc.),
 the Gaussian(R) 03 system (copyright 2003, Gaussian, Inc.),
 the Gaussian(R) 98 system (copyright 1998, Gaussian, Inc.),
 the Gaussian(R) 94 system (copyright 1995, Gaussian, Inc.),
 the Gaussian 92(TM) system (copyright 1992, Gaussian, Inc.),
 the Gaussian 90(TM) system (copyright 1990, Gaussian, Inc.),
 the Gaussian 88(TM) system (copyright 1988, Gaussian, Inc.),
 the Gaussian 86(TM) system (copyright 1986, Carnegie Mellon
 University), and the Gaussian 82(TM) system (copyright 1983,
 Carnegie Mellon University). Gaussian is a federally registered
 trademark of Gaussian, Inc.
  
 This software contains proprietary and confidential information,
 including trade secrets, belonging to Gaussian, Inc.
  
 This software is provided under written license and may be
 used, copied, transmitted, or stored only in accord with that
 written license.
  
 The following legend is applicable only to US Government
 contracts under FAR:
  
                    RESTRICTED RIGHTS LEGEND
  
 Use, reproduction and disclosure by the US Government is
 subject to restrictions as set forth in subparagraphs (a)
 and (c) of the Commercial Computer Software - Restricted
 Rights clause in FAR 52.227-19.
  
 Gaussian, Inc.
 340 Quinnipiac St., Bldg. 40, Wallingford CT 06492
  
  
 ---------------------------------------------------------------
 Warning -- This program may not be used in any manner that
 competes with the business of Gaussian, Inc. or will provide
 assistance to any competitor of Gaussian, Inc.  The licensee
 of this program is prohibited from giving any competitor of
 Gaussian, Inc. access to this program.  By using this program,
 the user acknowledges that Gaussian, Inc. is engaged in the
 business of creating and licensing software in the field of
 computational chemistry and represents and warrants to the
 licensee that it is not a competitor of Gaussian, Inc. and that
 it will not use this program in any manner prohibited above.
 ---------------------------------------------------------------
  

 Cite this work as:
 Gaussian 16, Revision A.03,
 M. J. Frisch, G. W. Trucks, H. B. Schlegel, G. E. Scuseria, 
 M. A. Robb, J. R. Cheeseman, G. Scalmani, V. Barone, 
 G. A. Petersson, H. Nakatsuji, X. Li, M. Caricato, A. V. Marenich, 
 J. Bloino, B. G. Janesko, R. Gomperts, B. Mennucci, H. P. Hratchian, 
 J. V. Ortiz, A. F. Izmaylov, J. L. Sonnenberg, D. Williams-Young, 
 F. Ding, F. Lipparini, F. Egidi, J. Goings, B. Peng, A. Petrone, 
 T. Henderson, D. Ranasinghe, V. G. Zakrzewski, J. Gao, N. Rega, 
 G. Zheng, W. Liang, M. Hada, M. Ehara, K. Toyota, R. Fukuda, 
 J. Hasegawa, M. Ishida, T. Nakajima, Y. Honda, O. Kitao, H. Nakai, 
 T. Vreven, K. Throssell, J. A. Montgomery, Jr., J. E. Peralta, 
 F. Ogliaro, M. J. Bearpark, J. J. Heyd, E. N. Brothers, K. N. Kudin, 
 V. N. Staroverov, T. A. Keith, R. Kobayashi, J. Normand, 
 K. Raghavachari, A. P. Rendell, J. C. Burant, S. S. Iyengar, 
 J. Tomasi, M. Cossi, J. M. Millam, M. Klene, C. Adamo, R. Cammi, 
 J. W. Ochterski, R. L. Martin, K. Morokuma, O. Farkas, 
 J. B. Foresman, and D. J. Fox, Gaussian, Inc., Wallingford CT, 2016.
 
 ******************************************
 Gaussian 16:  ES64L-G16RevA.03 25-Dec-2016
                25-Oct-2025 
 ******************************************
 %nprocshared=64
 Will use up to   64 processors via shared memory.
 %mem=230GB
 %chk=BONO_CO_reduced_sp.chk
 ----------------------------------------------
 #p M062X/DEF2TZVPP scrf=(solvent=water) em=GD3
 ----------------------------------------------
 1/38=1,172=1/1;
 2/12=2,17=6,18=5,40=1/2;
 3/5=44,7=202,11=2,25=1,30=1,70=2201,72=1,74=-55,124=31/1,2,3;
 4//1;
 5/5=2,38=5,53=1/2;
 6/7=2,8=2,9=2,10=2,28=1/1;
 99/5=1,9=1/99;
 Leave Link    1 at Sat Oct 25 09:12:39 2025, MaxMem= 30870077440 cpu:              20.4 elap:               0.3
 (Enter /public/software/gauss/g16/l101.exe)
 --------------------------------------
 Energy calculation for BONO_CO_reduced
 --------------------------------------
 Symbolic Z-matrix:
 Charge = -1 Multiplicity = 2
 C                    -0.62154   1.15382   0.06434 
 C                     0.39731   0.05563   0.02449 
 C                     1.76034   0.25897  -0.06802 
 C                     2.41169  -1.00536  -0.09303 
 C                     3.81143  -1.29545  -0.20233 
 C                     4.78299  -0.33355  -0.16187 
 C                     6.19021  -0.57093  -0.29243 
 C                     7.08296   0.4814   -0.26573 
 O                     6.56679   1.74493  -0.03092 
 C                     7.36918   2.8577    0.02657 
 C                     8.76628   2.74908  -0.1471 
 C                     9.54198   3.91991  -0.07058 
 C                     8.94199   5.14841   0.16983 
 C                     7.54876   5.23196   0.33752 
 C                     6.93553   6.54164   0.59051 
 O                     5.7322    6.7303    0.75435 
 C                     6.75489   4.07515   0.26411 
 C                     9.3114    1.44195  -0.40317 
 C                     8.50648   0.34688  -0.47452 
 C                     9.03055  -1.02859  -0.80212 
 C                     8.20197  -2.11438  -0.11221 
 C                     6.72137  -1.98021  -0.48087 
 N                     1.45845  -1.97916  -0.01502 
 C                     0.20066  -1.37187   0.06015 
 C                    -0.96504  -2.14659   0.13177 
 C                    -2.30055  -1.47834   0.19028 
 C                    -2.98579  -1.16376  -0.99047 
 C                    -4.23709  -0.55318  -0.93954 
 C                    -4.82814  -0.24385   0.29562 
 C                    -6.17251   0.40418   0.40556 
 O                    -6.64336   0.67025   1.51008 
 C                    -6.93729   0.71342  -0.87852 
 C                    -8.27766   1.36888  -0.6664 
 C                    -9.4021    0.61412  -0.28629 
 C                    -10.64204   1.20444  -0.0849 
 C                    -10.7951   2.59868  -0.26148 
 N                    -12.03874   3.2018   -0.07 
 O                    -13.06586   2.47687   0.27601 
 O                    -12.17291   4.48709  -0.24679 
 C                    -9.67421   3.37022  -0.64045 
 C                    -8.44427   2.75339  -0.83473 
 C                    -4.13497  -0.55763   1.4763 
 C                    -2.88706  -1.16865   1.42667 
 C                    -0.89928  -3.55415   0.13802 
 C                    -1.91613  -4.56046   0.16268 
 C                    -3.40744  -4.41211   0.19826 
 C                    -1.24651  -5.78435   0.14052 
 C                     0.13594  -5.53982   0.10593 
 C                     1.24428  -6.53806   0.08027 
 N                     0.34411  -4.20034   0.09957 
 B                     1.72003  -3.49874   0.14271 
 F                     2.36341  -3.7594    1.36452 
 F                     2.53376  -3.9653   -0.90377 
 H                    -1.30962   1.10532  -0.78508 
 H                    -1.23156   1.11362   0.97175 
 H                    -0.11637   2.12274   0.03696 
 H                     2.25313   1.21907  -0.13299 
 H                     4.08107  -2.3357   -0.3373 
 H                     4.47732   0.69991  -0.03078 
 H                     10.61656   3.84465  -0.20444 
 H                     9.54271   6.05116   0.22888 
 H                     7.64553   7.38928   0.62747 
 H                     5.67981   4.13284   0.39344 
 H                     10.38234   1.3443   -0.55422 
 H                     8.97423  -1.17222  -1.8906 
 H                     10.08795  -1.09087  -0.52862 
 H                     8.56898  -3.10504  -0.39712 
 H                     8.31809  -2.02494   0.97468 
 H                     6.56932  -2.29255  -1.52399 
 H                     6.13142  -2.67049   0.13073 
 H                    -2.53828  -1.39948  -1.95062 
 H                    -4.74469  -0.32304  -1.86921 
 H                    -6.29435   1.34348  -1.50477 
 H                    -7.04661  -0.23329  -1.42378 
 H                    -9.30126  -0.46022  -0.15175 
 H                    -11.50196   0.61234   0.20129 
 H                    -9.78967   4.43747  -0.78002 
 H                    -7.59093   3.3595   -1.12958 
 H                    -4.58841  -0.31908   2.4321 
 H                    -2.36252  -1.4092    2.34593 
 H                    -3.87322  -5.40102   0.21569 
 H                    -3.74663  -3.86296   1.08208 
 H                    -3.78907  -3.87464  -0.67557 
 H                    -1.70486  -6.76446   0.14787 
 H                     0.84038  -7.54876   0.16359 
 H                     1.82044  -6.46518  -0.84779 
 H                     1.94351  -6.36959   0.90597 
 
 ITRead=  0  0  0  0  0  0  0  0  0  0  0  0  0  0  0  0  0  0  0  0
 ITRead=  0  0  0  0  0  0  0  0  0  0  0  0  0  0  0  0  0  0  0  0
 ITRead=  0  0  0  0  0  0  0  0  0  0  0  0  0  0  0  0  0  0  0  0
 ITRead=  0  0  0  0  0  0  0  0  0  0  0  0  0  0  0  0  0  0  0  0
 ITRead=  0  0  0  0  0  0  0
 MicOpt= -1 -1 -1 -1 -1 -1 -1 -1 -1 -1 -1 -1 -1 -1 -1 -1 -1 -1 -1 -1
 MicOpt= -1 -1 -1 -1 -1 -1 -1 -1 -1 -1 -1 -1 -1 -1 -1 -1 -1 -1 -1 -1
 MicOpt= -1 -1 -1 -1 -1 -1 -1 -1 -1 -1 -1 -1 -1 -1 -1 -1 -1 -1 -1 -1
 MicOpt= -1 -1 -1 -1 -1 -1 -1 -1 -1 -1 -1 -1 -1 -1 -1 -1 -1 -1 -1 -1
 MicOpt= -1 -1 -1 -1 -1 -1 -1
 NAtoms=     87 NQM=       87 NQMF=       0 NMMI=      0 NMMIF=      0
                NMic=       0 NMicF=      0.
                    Isotopes and Nuclear Properties:
 (Nuclear quadrupole moments (NQMom) in fm**2, nuclear magnetic moments (NMagM)
  in nuclear magnetons)

  Atom         1           2           3           4           5           6           7           8           9          10
 IAtWgt=          12          12          12          12          12          12          12          12          16          12
 AtmWgt=  12.0000000  12.0000000  12.0000000  12.0000000  12.0000000  12.0000000  12.0000000  12.0000000  15.9949146  12.0000000
 NucSpn=           0           0           0           0           0           0           0           0           0           0
 AtZEff=  -0.0000000  -0.0000000  -0.0000000  -0.0000000  -0.0000000  -0.0000000  -0.0000000  -0.0000000  -0.0000000  -0.0000000
 NQMom=    0.0000000   0.0000000   0.0000000   0.0000000   0.0000000   0.0000000   0.0000000   0.0000000   0.0000000   0.0000000
 NMagM=    0.0000000   0.0000000   0.0000000   0.0000000   0.0000000   0.0000000   0.0000000   0.0000000   0.0000000   0.0000000
 AtZNuc=   6.0000000   6.0000000   6.0000000   6.0000000   6.0000000   6.0000000   6.0000000   6.0000000   8.0000000   6.0000000

  Atom        11          12          13          14          15          16          17          18          19          20
 IAtWgt=          12          12          12          12          12          16          12          12          12          12
 AtmWgt=  12.0000000  12.0000000  12.0000000  12.0000000  12.0000000  15.9949146  12.0000000  12.0000000  12.0000000  12.0000000
 NucSpn=           0           0           0           0           0           0           0           0           0           0
 AtZEff=  -0.0000000  -0.0000000  -0.0000000  -0.0000000  -0.0000000  -0.0000000  -0.0000000  -0.0000000  -0.0000000  -0.0000000
 NQMom=    0.0000000   0.0000000   0.0000000   0.0000000   0.0000000   0.0000000   0.0000000   0.0000000   0.0000000   0.0000000
 NMagM=    0.0000000   0.0000000   0.0000000   0.0000000   0.0000000   0.0000000   0.0000000   0.0000000   0.0000000   0.0000000
 AtZNuc=   6.0000000   6.0000000   6.0000000   6.0000000   6.0000000   8.0000000   6.0000000   6.0000000   6.0000000   6.0000000

  Atom        21          22          23          24          25          26          27          28          29          30
 IAtWgt=          12          12          14          12          12          12          12          12          12          12
 AtmWgt=  12.0000000  12.0000000  14.0030740  12.0000000  12.0000000  12.0000000  12.0000000  12.0000000  12.0000000  12.0000000
 NucSpn=           0           0           2           0           0           0           0           0           0           0
 AtZEff=  -0.0000000  -0.0000000  -0.0000000  -0.0000000  -0.0000000  -0.0000000  -0.0000000  -0.0000000  -0.0000000  -0.0000000
 NQMom=    0.0000000   0.0000000   2.0440000   0.0000000   0.0000000   0.0000000   0.0000000   0.0000000   0.0000000   0.0000000
 NMagM=    0.0000000   0.0000000   0.4037610   0.0000000   0.0000000   0.0000000   0.0000000   0.0000000   0.0000000   0.0000000
 AtZNuc=   6.0000000   6.0000000   7.0000000   6.0000000   6.0000000   6.0000000   6.0000000   6.0000000   6.0000000   6.0000000

  Atom        31          32          33          34          35          36          37          38          39          40
 IAtWgt=          16          12          12          12          12          12          14          16          16          12
 AtmWgt=  15.9949146  12.0000000  12.0000000  12.0000000  12.0000000  12.0000000  14.0030740  15.9949146  15.9949146  12.0000000
 NucSpn=           0           0           0           0           0           0           2           0           0           0
 AtZEff=  -0.0000000  -0.0000000  -0.0000000  -0.0000000  -0.0000000  -0.0000000  -0.0000000  -0.0000000  -0.0000000  -0.0000000
 NQMom=    0.0000000   0.0000000   0.0000000   0.0000000   0.0000000   0.0000000   2.0440000   0.0000000   0.0000000   0.0000000
 NMagM=    0.0000000   0.0000000   0.0000000   0.0000000   0.0000000   0.0000000   0.4037610   0.0000000   0.0000000   0.0000000
 AtZNuc=   8.0000000   6.0000000   6.0000000   6.0000000   6.0000000   6.0000000   7.0000000   8.0000000   8.0000000   6.0000000

  Atom        41          42          43          44          45          46          47          48          49          50
 IAtWgt=          12          12          12          12          12          12          12          12          12          14
 AtmWgt=  12.0000000  12.0000000  12.0000000  12.0000000  12.0000000  12.0000000  12.0000000  12.0000000  12.0000000  14.0030740
 NucSpn=           0           0           0           0           0           0           0           0           0           2
 AtZEff=  -0.0000000  -0.0000000  -0.0000000  -0.0000000  -0.0000000  -0.0000000  -0.0000000  -0.0000000  -0.0000000  -0.0000000
 NQMom=    0.0000000   0.0000000   0.0000000   0.0000000   0.0000000   0.0000000   0.0000000   0.0000000   0.0000000   2.0440000
 NMagM=    0.0000000   0.0000000   0.0000000   0.0000000   0.0000000   0.0000000   0.0000000   0.0000000   0.0000000   0.4037610
 AtZNuc=   6.0000000   6.0000000   6.0000000   6.0000000   6.0000000   6.0000000   6.0000000   6.0000000   6.0000000   7.0000000

  Atom        51          52          53          54          55          56          57          58          59          60
 IAtWgt=          11          19          19           1           1           1           1           1           1           1
 AtmWgt=  11.0093053  18.9984033  18.9984033   1.0078250   1.0078250   1.0078250   1.0078250   1.0078250   1.0078250   1.0078250
 NucSpn=           3           1           1           1           1           1           1           1           1           1
 AtZEff=  -0.0000000  -0.0000000  -0.0000000  -0.0000000  -0.0000000  -0.0000000  -0.0000000  -0.0000000  -0.0000000  -0.0000000
 NQMom=    4.0590000   0.0000000   0.0000000   0.0000000   0.0000000   0.0000000   0.0000000   0.0000000   0.0000000   0.0000000
 NMagM=    2.6886370   2.6288670   2.6288670   2.7928460   2.7928460   2.7928460   2.7928460   2.7928460   2.7928460   2.7928460
 AtZNuc=   5.0000000   9.0000000   9.0000000   1.0000000   1.0000000   1.0000000   1.0000000   1.0000000   1.0000000   1.0000000

  Atom        61          62          63          64          65          66          67          68          69          70
 IAtWgt=           1           1           1           1           1           1           1           1           1           1
 AtmWgt=   1.0078250   1.0078250   1.0078250   1.0078250   1.0078250   1.0078250   1.0078250   1.0078250   1.0078250   1.0078250
 NucSpn=           1           1           1           1           1           1           1           1           1           1
 AtZEff=  -0.0000000  -0.0000000  -0.0000000  -0.0000000  -0.0000000  -0.0000000  -0.0000000  -0.0000000  -0.0000000  -0.0000000
 NQMom=    0.0000000   0.0000000   0.0000000   0.0000000   0.0000000   0.0000000   0.0000000   0.0000000   0.0000000   0.0000000
 NMagM=    2.7928460   2.7928460   2.7928460   2.7928460   2.7928460   2.7928460   2.7928460   2.7928460   2.7928460   2.7928460
 AtZNuc=   1.0000000   1.0000000   1.0000000   1.0000000   1.0000000   1.0000000   1.0000000   1.0000000   1.0000000   1.0000000

  Atom        71          72          73          74          75          76          77          78          79          80
 IAtWgt=           1           1           1           1           1           1           1           1           1           1
 AtmWgt=   1.0078250   1.0078250   1.0078250   1.0078250   1.0078250   1.0078250   1.0078250   1.0078250   1.0078250   1.0078250
 NucSpn=           1           1           1           1           1           1           1           1           1           1
 AtZEff=  -0.0000000  -0.0000000  -0.0000000  -0.0000000  -0.0000000  -0.0000000  -0.0000000  -0.0000000  -0.0000000  -0.0000000
 NQMom=    0.0000000   0.0000000   0.0000000   0.0000000   0.0000000   0.0000000   0.0000000   0.0000000   0.0000000   0.0000000
 NMagM=    2.7928460   2.7928460   2.7928460   2.7928460   2.7928460   2.7928460   2.7928460   2.7928460   2.7928460   2.7928460
 AtZNuc=   1.0000000   1.0000000   1.0000000   1.0000000   1.0000000   1.0000000   1.0000000   1.0000000   1.0000000   1.0000000

  Atom        81          82          83          84          85          86          87
 IAtWgt=           1           1           1           1           1           1           1
 AtmWgt=   1.0078250   1.0078250   1.0078250   1.0078250   1.0078250   1.0078250   1.0078250
 NucSpn=           1           1           1           1           1           1           1
 AtZEff=  -0.0000000  -0.0000000  -0.0000000  -0.0000000  -0.0000000  -0.0000000  -0.0000000
 NQMom=    0.0000000   0.0000000   0.0000000   0.0000000   0.0000000   0.0000000   0.0000000
 NMagM=    2.7928460   2.7928460   2.7928460   2.7928460   2.7928460   2.7928460   2.7928460
 AtZNuc=   1.0000000   1.0000000   1.0000000   1.0000000   1.0000000   1.0000000   1.0000000
 Leave Link  101 at Sat Oct 25 09:12:40 2025, MaxMem= 30870077440 cpu:               4.0 elap:               0.1
 (Enter /public/software/gauss/g16/l202.exe)
 Stoichiometry    C42H34BF2N3O5(1-,2)
 Framework group  C1[X(C42H34BF2N3O5)]
 Deg. of freedom   255
 Full point group                 C1      NOp   1
 Largest Abelian subgroup         C1      NOp   1
 Largest concise Abelian subgroup C1      NOp   1
                         Standard orientation:                         
 ---------------------------------------------------------------------
 Center     Atomic      Atomic             Coordinates (Angstroms)
 Number     Number       Type             X           Y           Z
 ---------------------------------------------------------------------
      1          6           0       -0.621541    1.153817    0.064341
      2          6           0        0.397306    0.055629    0.024491
      3          6           0        1.760335    0.258973   -0.068021
      4          6           0        2.411692   -1.005361   -0.093030
      5          6           0        3.811431   -1.295452   -0.202329
      6          6           0        4.782994   -0.333554   -0.161865
      7          6           0        6.190207   -0.570929   -0.292432
      8          6           0        7.082956    0.481400   -0.265730
      9          8           0        6.566788    1.744929   -0.030918
     10          6           0        7.369182    2.857703    0.026568
     11          6           0        8.766285    2.749076   -0.147104
     12          6           0        9.541976    3.919914   -0.070583
     13          6           0        8.941987    5.148409    0.169833
     14          6           0        7.548762    5.231965    0.337523
     15          6           0        6.935531    6.541635    0.590505
     16          8           0        5.732204    6.730302    0.754354
     17          6           0        6.754885    4.075155    0.264112
     18          6           0        9.311398    1.441953   -0.403172
     19          6           0        8.506482    0.346884   -0.474522
     20          6           0        9.030554   -1.028589   -0.802118
     21          6           0        8.201970   -2.114385   -0.112205
     22          6           0        6.721374   -1.980206   -0.480867
     23          7           0        1.458453   -1.979161   -0.015015
     24          6           0        0.200664   -1.371865    0.060150
     25          6           0       -0.965037   -2.146594    0.131774
     26          6           0       -2.300553   -1.478338    0.190278
     27          6           0       -2.985785   -1.163764   -0.990470
     28          6           0       -4.237086   -0.553177   -0.939544
     29          6           0       -4.828141   -0.243845    0.295624
     30          6           0       -6.172509    0.404182    0.405561
     31          8           0       -6.643358    0.670245    1.510075
     32          6           0       -6.937290    0.713424   -0.878516
     33          6           0       -8.277658    1.368876   -0.666402
     34          6           0       -9.402104    0.614120   -0.286287
     35          6           0      -10.642038    1.204444   -0.084895
     36          6           0      -10.795101    2.598679   -0.261475
     37          7           0      -12.038738    3.201804   -0.069998
     38          8           0      -13.065860    2.476873    0.276009
     39          8           0      -12.172909    4.487088   -0.246788
     40          6           0       -9.674207    3.370220   -0.640452
     41          6           0       -8.444274    2.753385   -0.834729
     42          6           0       -4.134965   -0.557630    1.476297
     43          6           0       -2.887061   -1.168648    1.426666
     44          6           0       -0.899276   -3.554145    0.138016
     45          6           0       -1.916126   -4.560460    0.162679
     46          6           0       -3.407444   -4.412107    0.198256
     47          6           0       -1.246510   -5.784354    0.140519
     48          6           0        0.135940   -5.539817    0.105929
     49          6           0        1.244280   -6.538058    0.080273
     50          7           0        0.344112   -4.200342    0.099565
     51          5           0        1.720027   -3.498735    0.142708
     52          9           0        2.363405   -3.759401    1.364515
     53          9           0        2.533756   -3.965296   -0.903774
     54          1           0       -1.309624    1.105324   -0.785083
     55          1           0       -1.231556    1.113619    0.971752
     56          1           0       -0.116368    2.122736    0.036958
     57          1           0        2.253133    1.219071   -0.132985
     58          1           0        4.081070   -2.335703   -0.337300
     59          1           0        4.477318    0.699913   -0.030779
     60          1           0       10.616560    3.844654   -0.204439
     61          1           0        9.542706    6.051157    0.228876
     62          1           0        7.645528    7.389278    0.627468
     63          1           0        5.679809    4.132841    0.393438
     64          1           0       10.382342    1.344296   -0.554222
     65          1           0        8.974226   -1.172219   -1.890601
     66          1           0       10.087954   -1.090872   -0.528620
     67          1           0        8.568978   -3.105036   -0.397116
     68          1           0        8.318091   -2.024943    0.974675
     69          1           0        6.569320   -2.292546   -1.523987
     70          1           0        6.131419   -2.670492    0.130734
     71          1           0       -2.538282   -1.399476   -1.950616
     72          1           0       -4.744690   -0.323040   -1.869212
     73          1           0       -6.294349    1.343482   -1.504773
     74          1           0       -7.046606   -0.233293   -1.423783
     75          1           0       -9.301256   -0.460222   -0.151748
     76          1           0      -11.501958    0.612343    0.201287
     77          1           0       -9.789673    4.437470   -0.780021
     78          1           0       -7.590933    3.359497   -1.129581
     79          1           0       -4.588409   -0.319084    2.432096
     80          1           0       -2.362520   -1.409195    2.345927
     81          1           0       -3.873215   -5.401021    0.215694
     82          1           0       -3.746627   -3.862957    1.082081
     83          1           0       -3.789065   -3.874638   -0.675567
     84          1           0       -1.704855   -6.764463    0.147865
     85          1           0        0.840382   -7.548756    0.163594
     86          1           0        1.820440   -6.465175   -0.847786
     87          1           0        1.943514   -6.369594    0.905974
 ---------------------------------------------------------------------
 Rotational constants (GHZ):           0.0680727           0.0161920           0.0132665
 Leave Link  202 at Sat Oct 25 09:12:40 2025, MaxMem= 30870077440 cpu:               0.2 elap:               0.0
 (Enter /public/software/gauss/g16/l301.exe)
 Standard basis: def2TZVPP (5D, 7F)
 Ernie: Thresh=  0.10000D-02 Tol=  0.10000D-05 Strict=F.
 There are  2418 symmetry adapted cartesian basis functions of A   symmetry.
 There are  2119 symmetry adapted basis functions of A   symmetry.
  2119 basis functions,  3281 primitive gaussians,  2418 cartesian basis functions
   186 alpha electrons      185 beta electrons
       nuclear repulsion energy      6089.9003625549 Hartrees.
 IExCor= 4336 DFT=T Ex+Corr=M062X ExCW=0 ScaHFX=  0.540000
 ScaDFX=  1.000000  1.000000  1.000000  1.000000 ScalE2=  1.000000  1.000000
 IRadAn=      5 IRanWt=     -1 IRanGd=            0 ICorTp=0 IEmpDi=131
 NAtoms=   87 NActive=   87 NUniq=   87 SFac= 1.00D+00 NAtFMM=   60 NAOKFM=T Big=T
 Integral buffers will be    131072 words long.
 Raffenetti 2 integral format.
 Two-electron integral symmetry is turned on.
 R6Disp:  Grimme-D3 Dispersion energy=       -0.0070699852 Hartrees.
 Nuclear repulsion after empirical dispersion term =     6089.8932925697 Hartrees.
 ------------------------------------------------------------------------------
 Polarizable Continuum Model (PCM)
 =================================
 Model                : PCM.
 Atomic radii         : UFF (Universal Force Field).
 Polarization charges : Total charges.
 Charge compensation  : None.
 Solution method      : On-the-fly selection.
 Cavity type          : Scaled VdW (van der Waals Surface) (Alpha=1.100).
 Cavity algorithm     : GePol (No added spheres)
                        Default sphere list used, NSphG=   87.
                        Lebedev-Laikov grids with approx.  5.0 points / Ang**2.
                        Smoothing algorithm: York/Karplus (Gamma=1.0000).
                        Polarization charges: spherical gaussians, with
                                              point-specific exponents (IZeta= 3).
                        Self-potential: point-specific (ISelfS= 7).
                        Self-field    : sphere-specific E.n sum rule (ISelfD= 2).
 Solvent              : Water, Eps=  78.355300 Eps(inf)=   1.777849
 ------------------------------------------------------------------------------
 GePol: Number of generator spheres                  =      87
 GePol: Total number of spheres                      =      87
 GePol: Number of exposed spheres                    =      87 (100.00%)
 GePol: Number of points                             =    6317
 GePol: Average weight of points                     =       0.13
 GePol: Minimum weight of points                     =   0.22D-11
 GePol: Maximum weight of points                     =    0.20577
 GePol: Number of points with low weight             =     410
 GePol: Fraction of low-weight points (<1% of avg)   =       6.49%
 GePol: Cavity surface area                          =    796.661 Ang**2
 GePol: Cavity volume                                =    923.343 Ang**3
 Leave Link  301 at Sat Oct 25 09:12:40 2025, MaxMem= 30870077440 cpu:               3.5 elap:               0.1
 (Enter /public/software/gauss/g16/l302.exe)
 NPDir=0 NMtPBC=     1 NCelOv=     1 NCel=       1 NClECP=     1 NCelD=      1
         NCelK=      1 NCelE2=     1 NClLst=     1 CellRange=     0.0.
 One-electron integrals computed using PRISM.
 One-electron integral symmetry used in STVInt
   1 Symmetry operations used in ECPInt.
 ECPInt:  NShTT=  310078 NPrTT=  889046 LenC2=  167082 LenP2D=  320494.
 LDataN:  DoStor=T MaxTD1= 6 Len=  172
 NBasis=  2119 RedAO= T EigKep=  3.48D-06  NBF=  2119
 NBsUse=  2119 1.00D-06 EigRej= -1.00D+00 NBFU=  2119
 Precomputing XC quadrature grid using
 IXCGrd= 4 IRadAn=           5 IRanWt=          -1 IRanGd=           0 AccXCQ= 0.00D+00.
 Generated NRdTot=       0 NPtTot=           0 NUsed=           0 NTot=          32
 NSgBfM=  2091  2055  2061  2079  2091 MxSgAt=    87 MxSgA2=    87.
 Leave Link  302 at Sat Oct 25 09:12:53 2025, MaxMem= 30870077440 cpu:             815.1 elap:              12.8
 (Enter /public/software/gauss/g16/l303.exe)
 DipDrv:  MaxL=1.
 Leave Link  303 at Sat Oct 25 09:12:53 2025, MaxMem= 30870077440 cpu:              33.8 elap:               0.6
 (Enter /public/software/gauss/g16/l401.exe)
 ExpMin= 6.06D-02 ExpMax= 3.55D+04 ExpMxC= 1.21D+03 IAcc=3 IRadAn=         5 AccDes= 0.00D+00
 Harris functional with IExCor= 1009 and IRadAn=       5 diagonalized for initial guess.
 HarFok:  IExCor= 1009 AccDes= 0.00D+00 IRadAn=         5 IDoV= 1 UseB2=F ITyADJ=14
 ICtDFT=  3500011 ScaDFX=  1.000000  1.000000  1.000000  1.000000
 FoFCou: FMM=F IPFlag=           0 FMFlag=      100000 FMFlg1=        2001
         NFxFlg=           0 DoJE=T BraDBF=F KetDBF=T FulRan=T
         wScrn=  0.000000 ICntrl=       500 IOpCl=  0 I1Cent=   200000004 NGrid=           0
         NMat0=    1 NMatS0=      1 NMatT0=    0 NMatD0=    1 NMtDS0=    0 NMtDT0=    0
 Petite list used in FoFCou.
 Harris En= -2384.97240435020    
 JPrj=0 DoOrth=F DoCkMO=F.
 Initial guess <Sx>= 0.0000 <Sy>= 0.0000 <Sz>= 0.5000 <S**2>= 0.7500 S= 0.5000
 Leave Link  401 at Sat Oct 25 09:13:06 2025, MaxMem= 30870077440 cpu:             842.6 elap:              13.2
 (Enter /public/software/gauss/g16/l502.exe)
 Integral symmetry usage will be decided dynamically.
 UHF open shell SCF:
 Using DIIS extrapolation, IDIIS=  1040.
 NGot= 30870077440 LenX= 30858208957 LenY= 30852359815
 Requested convergence on RMS density matrix=1.00D-08 within 128 cycles.
 Requested convergence on MAX density matrix=1.00D-06.
 Requested convergence on             energy=1.00D-06.
 No special actions if energy rises.
 Fock matrices will be formed incrementally for  20 cycles.

 Cycle   1  Pass 1  IDiag  1:
 FoFJK:  IHMeth= 1 ICntrl=       0 DoSepK=F KAlg= 0 I1Cent=           0 FoldK=F
 IRaf= 500000000 NMat=       1 IRICut=       1 DoRegI=T DoRafI=F ISym2E= 0 IDoP0=0 IntGTp=1.
 FoFCou: FMM=T IPFlag=           0 FMFlag=      100000 FMFlg1=        2001
         NFxFlg=           0 DoJE=F BraDBF=F KetDBF=F FulRan=T
         wScrn=  0.000000 ICntrl=         0 IOpCl=  1 I1Cent=           0 NGrid=           0
         NMat0=    1 NMatS0=      1 NMatT0=    0 NMatD0=    1 NMtDS0=    0 NMtDT0=    0
 Symmetry not used in FoFCou.
 FMM levels:  10  Number of levels for PrismC:   9
 Inv3:  Mode=1 IEnd=   119713467.
 Iteration    1 A*A^-1 deviation from unit magnitude is 1.45D-14 for    664.
 Iteration    1 A*A^-1 deviation from orthogonality  is 6.59D-15 for   4573   1742.
 Iteration    1 A^-1*A deviation from unit magnitude is 1.52D-14 for    664.
 Iteration    1 A^-1*A deviation from orthogonality  is 1.10D-14 for   5364    169.
 E= -2384.74043463013    
 DIIS: error= 2.63D-02 at cycle   1 NSaved=   1.
 NSaved= 1 IEnMin= 1 EnMin= -2384.74043463013     IErMin= 1 ErrMin= 2.63D-02
 ErrMax= 2.63D-02  0.00D+00 EMaxC= 1.00D-01 BMatC= 6.83D+00 BMatP= 6.83D+00
 IDIUse=3 WtCom= 7.37D-01 WtEn= 2.63D-01
 Coeff-Com:  0.100D+01
 Coeff-En:   0.100D+01
 Coeff:      0.100D+01
 Gap=     0.080 Goal=   None    Shift=    0.000
 Gap=     0.131 Goal=   None    Shift=    0.000
 GapD=    0.080 DampG=0.500 DampE=0.500 DampFc=0.2500 IDamp=-1.
 Damping current iteration by 2.50D-01
 RMSDP=1.80D-03 MaxDP=7.73D-01              OVMax= 9.55D-01

 Cycle   2  Pass 1  IDiag  1:
 RMSU=  4.49D-04    CP:  9.95D-01
 E= -2385.19452238592     Delta-E=       -0.454087755787 Rises=F Damp=T
 DIIS: error= 1.16D-02 at cycle   2 NSaved=   2.
 NSaved= 2 IEnMin= 2 EnMin= -2385.19452238592     IErMin= 2 ErrMin= 1.16D-02
 ErrMax= 1.16D-02  0.00D+00 EMaxC= 1.00D-01 BMatC= 2.34D+00 BMatP= 6.83D+00
 IDIUse=3 WtCom= 8.84D-01 WtEn= 1.16D-01
 Coeff-Com: -0.106D+01 0.206D+01
 Coeff-En:   0.000D+00 0.100D+01
 Coeff:     -0.935D+00 0.194D+01
 Gap=    -0.031 Goal=   None    Shift=    0.000
 Gap=     0.210 Goal=   None    Shift=    0.000
 RMSDP=8.00D-04 MaxDP=9.51D-02 DE=-4.54D-01 OVMax= 9.94D-01

 Cycle   3  Pass 1  IDiag  1:
 RMSU=  6.91D-04    CP:  9.72D-01  1.88D+00
 E= -2385.94864086924     Delta-E=       -0.754118483317 Rises=F Damp=F
 DIIS: error= 1.83D-02 at cycle   3 NSaved=   3.
 NSaved= 3 IEnMin= 3 EnMin= -2385.94864086924     IErMin= 2 ErrMin= 1.16D-02
 ErrMax= 1.83D-02  0.00D+00 EMaxC= 1.00D-01 BMatC= 5.12D-01 BMatP= 2.34D+00
 IDIUse=3 WtCom= 8.17D-01 WtEn= 1.83D-01
 Coeff-Com: -0.579D+00 0.100D+01 0.578D+00
 Coeff-En:   0.000D+00 0.000D+00 0.100D+01
 Coeff:     -0.473D+00 0.818D+00 0.655D+00
 Gap=    -0.009 Goal=   None    Shift=    0.000
 Gap=     0.137 Goal=   None    Shift=    0.000
 RMSDP=4.45D-04 MaxDP=1.52D-01 DE=-7.54D-01 OVMax= 9.89D-01

 Cycle   4  Pass 1  IDiag  1:
 RMSU=  3.97D-04    CP:  9.67D-01  2.04D+00  7.31D-01
 E= -2385.99654554257     Delta-E=       -0.047904673338 Rises=F Damp=F
 DIIS: error= 1.61D-02 at cycle   4 NSaved=   4.
 NSaved= 4 IEnMin= 4 EnMin= -2385.99654554257     IErMin= 2 ErrMin= 1.16D-02
 ErrMax= 1.61D-02  0.00D+00 EMaxC= 1.00D-01 BMatC= 3.50D-01 BMatP= 5.12D-01
 IDIUse=3 WtCom= 8.39D-01 WtEn= 1.61D-01
 Coeff-Com: -0.164D+00 0.284D+00 0.453D+00 0.426D+00
 Coeff-En:   0.000D+00 0.000D+00 0.385D+00 0.615D+00
 Coeff:     -0.138D+00 0.238D+00 0.442D+00 0.457D+00
 Gap=     0.003 Goal=   None    Shift=    0.000
 Gap=     0.180 Goal=   None    Shift=    0.000
 RMSDP=1.39D-04 MaxDP=2.88D-02 DE=-4.79D-02 OVMax= 9.46D-02

 Cycle   5  Pass 1  IDiag  1:
 RMSU=  1.31D-04    CP:  9.68D-01  2.01D+00  7.63D-01  9.01D-01
 E= -2386.07238672480     Delta-E=       -0.075841182228 Rises=F Damp=F
 DIIS: error= 4.63D-03 at cycle   5 NSaved=   5.
 NSaved= 5 IEnMin= 5 EnMin= -2386.07238672480     IErMin= 5 ErrMin= 4.63D-03
 ErrMax= 4.63D-03  0.00D+00 EMaxC= 1.00D-01 BMatC= 2.79D-02 BMatP= 3.50D-01
 IDIUse=3 WtCom= 9.54D-01 WtEn= 4.63D-02
 Coeff-Com: -0.104D-01 0.262D-01 0.177D+00 0.893D-02 0.798D+00
 Coeff-En:   0.000D+00 0.000D+00 0.000D+00 0.000D+00 0.100D+01
 Coeff:     -0.990D-02 0.250D-01 0.169D+00 0.851D-02 0.807D+00
 Gap=     0.052 Goal=   None    Shift=    0.000
 Gap=     0.137 Goal=   None    Shift=    0.000
 RMSDP=9.66D-05 MaxDP=2.40D-02 DE=-7.58D-02 OVMax= 3.34D-02

 Cycle   6  Pass 1  IDiag  1:
 RMSU=  6.41D-05    CP:  9.68D-01  1.95D+00  7.99D-01  8.61D-01  1.46D+00
 E= -2386.07941575726     Delta-E=       -0.007029032458 Rises=F Damp=F
 DIIS: error= 2.44D-03 at cycle   6 NSaved=   6.
 NSaved= 6 IEnMin= 6 EnMin= -2386.07941575726     IErMin= 6 ErrMin= 2.44D-03
 ErrMax= 2.44D-03  0.00D+00 EMaxC= 1.00D-01 BMatC= 7.89D-03 BMatP= 2.79D-02
 IDIUse=3 WtCom= 9.76D-01 WtEn= 2.44D-02
 Coeff-Com:  0.491D-02-0.410D-02 0.343D-01-0.130D+00 0.405D+00 0.690D+00
 Coeff-En:   0.000D+00 0.000D+00 0.000D+00 0.000D+00 0.000D+00 0.100D+01
 Coeff:      0.479D-02-0.400D-02 0.334D-01-0.127D+00 0.395D+00 0.698D+00
 Gap=     0.079 Goal=   None    Shift=    0.000
 Gap=     0.136 Goal=   None    Shift=    0.000
 RMSDP=4.65D-05 MaxDP=8.30D-03 DE=-7.03D-03 OVMax= 2.12D-02

 Cycle   7  Pass 1  IDiag  1:
 RMSU=  2.73D-05    CP:  9.69D-01  1.96D+00  8.10D-01  8.31D-01  1.70D+00
                    CP:  1.21D+00
 E= -2386.08178867148     Delta-E=       -0.002372914223 Rises=F Damp=F
 DIIS: error= 6.75D-04 at cycle   7 NSaved=   7.
 NSaved= 7 IEnMin= 7 EnMin= -2386.08178867148     IErMin= 7 ErrMin= 6.75D-04
 ErrMax= 6.75D-04  0.00D+00 EMaxC= 1.00D-01 BMatC= 7.55D-04 BMatP= 7.89D-03
 IDIUse=3 WtCom= 9.93D-01 WtEn= 6.75D-03
 Coeff-Com: -0.623D-02 0.103D-01 0.692D-02-0.192D-01-0.693D-01 0.189D+00
 Coeff-Com:  0.888D+00
 Coeff-En:   0.000D+00 0.000D+00 0.000D+00 0.000D+00 0.000D+00 0.000D+00
 Coeff-En:   0.100D+01
 Coeff:     -0.618D-02 0.102D-01 0.687D-02-0.191D-01-0.688D-01 0.188D+00
 Coeff:      0.889D+00
 Gap=     0.090 Goal=   None    Shift=    0.000
 Gap=     0.136 Goal=   None    Shift=    0.000
 RMSDP=2.28D-05 MaxDP=4.64D-03 DE=-2.37D-03 OVMax= 1.78D-02

 Cycle   8  Pass 1  IDiag  1:
 RMSU=  1.47D-05    CP:  9.69D-01  1.95D+00  8.17D-01  8.25D-01  1.77D+00
                    CP:  1.41D+00  1.17D+00
 E= -2386.08218767468     Delta-E=       -0.000399003193 Rises=F Damp=F
 DIIS: error= 2.57D-04 at cycle   8 NSaved=   8.
 NSaved= 8 IEnMin= 8 EnMin= -2386.08218767468     IErMin= 8 ErrMin= 2.57D-04
 ErrMax= 2.57D-04  0.00D+00 EMaxC= 1.00D-01 BMatC= 2.19D-04 BMatP= 7.55D-04
 IDIUse=3 WtCom= 9.97D-01 WtEn= 2.57D-03
 Coeff-Com: -0.351D-02 0.543D-02 0.190D-02 0.141D-01-0.996D-01-0.483D-01
 Coeff-Com:  0.387D+00 0.743D+00
 Coeff-En:   0.000D+00 0.000D+00 0.000D+00 0.000D+00 0.000D+00 0.000D+00
 Coeff-En:   0.000D+00 0.100D+01
 Coeff:     -0.350D-02 0.542D-02 0.189D-02 0.141D-01-0.993D-01-0.482D-01
 Coeff:      0.386D+00 0.744D+00
 Gap=     0.093 Goal=   None    Shift=    0.000
 Gap=     0.135 Goal=   None    Shift=    0.000
 RMSDP=1.07D-05 MaxDP=1.64D-03 DE=-3.99D-04 OVMax= 8.89D-03

 Cycle   9  Pass 1  IDiag  1:
 RMSU=  6.36D-06    CP:  9.69D-01  1.94D+00  8.19D-01  8.21D-01  1.79D+00
                    CP:  1.48D+00  1.38D+00  1.17D+00
 E= -2386.08232407299     Delta-E=       -0.000136398312 Rises=F Damp=F
 DIIS: error= 1.26D-04 at cycle   9 NSaved=   9.
 NSaved= 9 IEnMin= 9 EnMin= -2386.08232407299     IErMin= 9 ErrMin= 1.26D-04
 ErrMax= 1.26D-04  0.00D+00 EMaxC= 1.00D-01 BMatC= 5.17D-05 BMatP= 2.19D-04
 IDIUse=3 WtCom= 9.99D-01 WtEn= 1.26D-03
 Coeff-Com:  0.490D-03-0.619D-03 0.146D-02 0.492D-02-0.878D-02-0.549D-01
 Coeff-Com: -0.115D+00 0.207D+00 0.966D+00
 Coeff-En:   0.000D+00 0.000D+00 0.000D+00 0.000D+00 0.000D+00 0.000D+00
 Coeff-En:   0.000D+00 0.000D+00 0.100D+01
 Coeff:      0.490D-03-0.619D-03 0.145D-02 0.492D-02-0.876D-02-0.549D-01
 Coeff:     -0.115D+00 0.206D+00 0.966D+00
 Gap=     0.094 Goal=   None    Shift=    0.000
 Gap=     0.135 Goal=   None    Shift=    0.000
 RMSDP=7.01D-06 MaxDP=1.14D-03 DE=-1.36D-04 OVMax= 7.55D-03

 Cycle  10  Pass 1  IDiag  1:
 RMSU=  3.43D-06    CP:  9.69D-01  1.94D+00  8.20D-01  8.19D-01  1.80D+00
                    CP:  1.52D+00  1.45D+00  1.46D+00  1.40D+00
 E= -2386.08237370185     Delta-E=       -0.000049628859 Rises=F Damp=F
 DIIS: error= 5.03D-05 at cycle  10 NSaved=  10.
 NSaved=10 IEnMin=10 EnMin= -2386.08237370185     IErMin=10 ErrMin= 5.03D-05
 ErrMax= 5.03D-05  0.00D+00 EMaxC= 1.00D-01 BMatC= 2.00D-05 BMatP= 5.17D-05
 IDIUse=1 WtCom= 1.00D+00 WtEn= 0.00D+00
 Coeff-Com:  0.782D-03-0.104D-02 0.114D-02-0.142D-02 0.181D-01-0.205D-01
 Coeff-Com: -0.157D+00-0.703D-01 0.516D+00 0.714D+00
 Coeff:      0.782D-03-0.104D-02 0.114D-02-0.142D-02 0.181D-01-0.205D-01
 Coeff:     -0.157D+00-0.703D-01 0.516D+00 0.714D+00
 Gap=     0.094 Goal=   None    Shift=    0.000
 Gap=     0.135 Goal=   None    Shift=    0.000
 RMSDP=3.88D-06 MaxDP=5.74D-04 DE=-4.96D-05 OVMax= 3.71D-03

 Cycle  11  Pass 1  IDiag  1:
 RMSU=  1.83D-06    CP:  9.69D-01  1.94D+00  8.20D-01  8.18D-01  1.81D+00
                    CP:  1.53D+00  1.49D+00  1.59D+00  1.71D+00  1.28D+00
 E= -2386.08238968412     Delta-E=       -0.000015982274 Rises=F Damp=F
 DIIS: error= 2.81D-05 at cycle  11 NSaved=  11.
 NSaved=11 IEnMin=11 EnMin= -2386.08238968412     IErMin=11 ErrMin= 2.81D-05
 ErrMax= 2.81D-05  0.00D+00 EMaxC= 1.00D-01 BMatC= 4.09D-06 BMatP= 2.00D-05
 IDIUse=1 WtCom= 1.00D+00 WtEn= 0.00D+00
 Coeff-Com: -0.805D-05 0.737D-04 0.111D-03-0.222D-02 0.697D-02 0.583D-02
 Coeff-Com: -0.162D-01-0.773D-01-0.106D+00 0.256D+00 0.933D+00
 Coeff:     -0.805D-05 0.737D-04 0.111D-03-0.222D-02 0.697D-02 0.583D-02
 Coeff:     -0.162D-01-0.773D-01-0.106D+00 0.256D+00 0.933D+00
 Gap=     0.095 Goal=   None    Shift=    0.000
 Gap=     0.134 Goal=   None    Shift=    0.000
 RMSDP=2.38D-06 MaxDP=2.72D-04 DE=-1.60D-05 OVMax= 2.35D-03

 Cycle  12  Pass 1  IDiag  1:
 RMSU=  1.02D-06    CP:  9.69D-01  1.94D+00  8.20D-01  8.18D-01  1.81D+00
                    CP:  1.54D+00  1.51D+00  1.65D+00  1.86D+00  1.66D+00
                    CP:  1.33D+00
 E= -2386.08239558924     Delta-E=       -0.000005905114 Rises=F Damp=F
 DIIS: error= 1.34D-05 at cycle  12 NSaved=  12.
 NSaved=12 IEnMin=12 EnMin= -2386.08239558924     IErMin=12 ErrMin= 1.34D-05
 ErrMax= 1.34D-05  0.00D+00 EMaxC= 1.00D-01 BMatC= 1.11D-06 BMatP= 4.09D-06
 IDIUse=1 WtCom= 1.00D+00 WtEn= 0.00D+00
 Coeff-Com: -0.237D-03 0.352D-03 0.123D-04 0.599D-04-0.285D-02 0.687D-02
 Coeff-Com:  0.401D-01-0.250D-02-0.184D+00-0.120D+00 0.296D+00 0.966D+00
 Coeff:     -0.237D-03 0.352D-03 0.123D-04 0.599D-04-0.285D-02 0.687D-02
 Coeff:      0.401D-01-0.250D-02-0.184D+00-0.120D+00 0.296D+00 0.966D+00
 Gap=     0.095 Goal=   None    Shift=    0.000
 Gap=     0.134 Goal=   None    Shift=    0.000
 RMSDP=1.52D-06 MaxDP=1.85D-04 DE=-5.91D-06 OVMax= 1.63D-03

 Cycle  13  Pass 1  IDiag  1:
 RMSU=  4.92D-07    CP:  9.69D-01  1.94D+00  8.20D-01  8.17D-01  1.81D+00
                    CP:  1.54D+00  1.52D+00  1.67D+00  1.94D+00  1.88D+00
                    CP:  1.71D+00  1.69D+00
 E= -2386.08239790420     Delta-E=       -0.000002314961 Rises=F Damp=F
 DIIS: error= 7.68D-06 at cycle  13 NSaved=  13.
 NSaved=13 IEnMin=13 EnMin= -2386.08239790420     IErMin=13 ErrMin= 7.68D-06
 ErrMax= 7.68D-06  0.00D+00 EMaxC= 1.00D-01 BMatC= 4.45D-07 BMatP= 1.11D-06
 IDIUse=1 WtCom= 1.00D+00 WtEn= 0.00D+00
 Coeff-Com: -0.136D-03 0.182D-03 0.144D-04 0.934D-03-0.370D-02 0.791D-03
 Coeff-Com:  0.229D-01 0.246D-01-0.452D-01-0.136D+00-0.169D+00 0.421D+00
 Coeff-Com:  0.883D+00
 Coeff:     -0.136D-03 0.182D-03 0.144D-04 0.934D-03-0.370D-02 0.791D-03
 Coeff:      0.229D-01 0.246D-01-0.452D-01-0.136D+00-0.169D+00 0.421D+00
 Coeff:      0.883D+00
 Gap=     0.095 Goal=   None    Shift=    0.000
 Gap=     0.134 Goal=   None    Shift=    0.000
 RMSDP=9.56D-07 MaxDP=1.16D-04 DE=-2.31D-06 OVMax= 1.05D-03

 Cycle  14  Pass 1  IDiag  1:
 RMSU=  3.27D-07    CP:  9.69D-01  1.94D+00  8.20D-01  8.17D-01  1.81D+00
                    CP:  1.54D+00  1.52D+00  1.69D+00  1.98D+00  2.00D+00
                    CP:  1.90D+00  2.26D+00  1.56D+00
 E= -2386.08239886974     Delta-E=       -0.000000965545 Rises=F Damp=F
 DIIS: error= 4.39D-06 at cycle  14 NSaved=  14.
 NSaved=14 IEnMin=14 EnMin= -2386.08239886974     IErMin=14 ErrMin= 4.39D-06
 ErrMax= 4.39D-06  0.00D+00 EMaxC= 1.00D-01 BMatC= 1.55D-07 BMatP= 4.45D-07
 IDIUse=1 WtCom= 1.00D+00 WtEn= 0.00D+00
 Coeff-Com:  0.817D-05-0.189D-04-0.704D-04 0.207D-03-0.686D-04-0.163D-02
 Coeff-Com: -0.804D-02 0.658D-02 0.522D-01 0.638D-03-0.154D+00-0.214D+00
 Coeff-Com:  0.265D+00 0.105D+01
 Coeff:      0.817D-05-0.189D-04-0.704D-04 0.207D-03-0.686D-04-0.163D-02
 Coeff:     -0.804D-02 0.658D-02 0.522D-01 0.638D-03-0.154D+00-0.214D+00
 Coeff:      0.265D+00 0.105D+01
 Gap=     0.095 Goal=   None    Shift=    0.000
 Gap=     0.134 Goal=   None    Shift=    0.000
 RMSDP=7.31D-07 MaxDP=9.78D-05 DE=-9.66D-07 OVMax= 7.81D-04

 Cycle  15  Pass 1  IDiag  1:
 RMSU=  2.16D-07    CP:  9.69D-01  1.94D+00  8.20D-01  8.17D-01  1.81D+00
                    CP:  1.54D+00  1.53D+00  1.69D+00  2.01D+00  2.06D+00
                    CP:  2.04D+00  2.69D+00  2.20D+00  1.63D+00
 E= -2386.08239931861     Delta-E=       -0.000000448865 Rises=F Damp=F
 DIIS: error= 2.87D-06 at cycle  15 NSaved=  15.
 NSaved=15 IEnMin=15 EnMin= -2386.08239931861     IErMin=15 ErrMin= 2.87D-06
 ErrMax= 2.87D-06  0.00D+00 EMaxC= 1.00D-01 BMatC= 7.08D-08 BMatP= 1.55D-07
 IDIUse=1 WtCom= 1.00D+00 WtEn= 0.00D+00
 Coeff-Com:  0.349D-04-0.501D-04-0.739D-04-0.266D-03 0.147D-02-0.631D-03
 Coeff-Com: -0.132D-01-0.809D-02 0.432D-01 0.557D-01-0.256D-02-0.286D+00
 Coeff-Com: -0.252D+00 0.515D+00 0.946D+00
 Coeff:      0.349D-04-0.501D-04-0.739D-04-0.266D-03 0.147D-02-0.631D-03
 Coeff:     -0.132D-01-0.809D-02 0.432D-01 0.557D-01-0.256D-02-0.286D+00
 Coeff:     -0.252D+00 0.515D+00 0.946D+00
 Gap=     0.095 Goal=   None    Shift=    0.000
 Gap=     0.134 Goal=   None    Shift=    0.000
 RMSDP=5.38D-07 MaxDP=7.13D-05 DE=-4.49D-07 OVMax= 5.50D-04

 Cycle  16  Pass 1  IDiag  1:
 RMSU=  1.14D-07    CP:  9.69D-01  1.94D+00  8.20D-01  8.17D-01  1.81D+00
                    CP:  1.54D+00  1.53D+00  1.70D+00  2.03D+00  2.10D+00
                    CP:  2.11D+00  2.98D+00  2.63D+00  2.39D+00  1.57D+00
 E= -2386.08239950098     Delta-E=       -0.000000182376 Rises=F Damp=F
 DIIS: error= 2.18D-06 at cycle  16 NSaved=  16.
 NSaved=16 IEnMin=16 EnMin= -2386.08239950098     IErMin=16 ErrMin= 2.18D-06
 ErrMax= 2.18D-06  0.00D+00 EMaxC= 1.00D-01 BMatC= 1.92D-08 BMatP= 7.08D-08
 IDIUse=1 WtCom= 1.00D+00 WtEn= 0.00D+00
 Coeff-Com:  0.508D-05-0.610D-05 0.132D-04-0.347D-04 0.314D-03 0.372D-03
 Coeff-Com: -0.713D-04-0.414D-02-0.813D-02 0.128D-01 0.556D-01 0.159D-01
 Coeff-Com: -0.164D+00-0.274D+00 0.251D+00 0.111D+01
 Coeff:      0.508D-05-0.610D-05 0.132D-04-0.347D-04 0.314D-03 0.372D-03
 Coeff:     -0.713D-04-0.414D-02-0.813D-02 0.128D-01 0.556D-01 0.159D-01
 Coeff:     -0.164D+00-0.274D+00 0.251D+00 0.111D+01
 Gap=     0.095 Goal=   None    Shift=    0.000
 Gap=     0.134 Goal=   None    Shift=    0.000
 RMSDP=3.19D-07 MaxDP=4.35D-05 DE=-1.82D-07 OVMax= 3.20D-04

 Cycle  17  Pass 1  IDiag  1:
 RMSU=  1.30D-07    CP:  9.69D-01  1.94D+00  8.20D-01  8.17D-01  1.81D+00
                    CP:  1.54D+00  1.53D+00  1.70D+00  2.03D+00  2.12D+00
                    CP:  2.15D+00  3.00D+00  2.88D+00  2.87D+00  2.17D+00
                    CP:  1.59D+00
 E= -2386.08239955235     Delta-E=       -0.000000051363 Rises=F Damp=F
 DIIS: error= 9.87D-07 at cycle  17 NSaved=  17.
 NSaved=17 IEnMin=17 EnMin= -2386.08239955235     IErMin=17 ErrMin= 9.87D-07
 ErrMax= 9.87D-07  0.00D+00 EMaxC= 1.00D-01 BMatC= 5.72D-09 BMatP= 1.92D-08
 IDIUse=1 WtCom= 1.00D+00 WtEn= 0.00D+00
 Coeff-Com: -0.291D-05 0.479D-05 0.162D-04 0.250D-04-0.200D-03 0.288D-03
 Coeff-Com:  0.324D-02-0.231D-04-0.143D-01-0.741D-02 0.253D-01 0.773D-01
 Coeff-Com: -0.163D-01-0.250D+00-0.116D+00 0.502D+00 0.797D+00
 Coeff:     -0.291D-05 0.479D-05 0.162D-04 0.250D-04-0.200D-03 0.288D-03
 Coeff:      0.324D-02-0.231D-04-0.143D-01-0.741D-02 0.253D-01 0.773D-01
 Coeff:     -0.163D-01-0.250D+00-0.116D+00 0.502D+00 0.797D+00
 Gap=     0.095 Goal=   None    Shift=    0.000
 Gap=     0.134 Goal=   None    Shift=    0.000
 RMSDP=1.25D-07 MaxDP=1.78D-05 DE=-5.14D-08 OVMax= 1.49D-04

 Cycle  18  Pass 1  IDiag  1:
 RMSU=  3.95D-08    CP:  9.69D-01  1.94D+00  8.20D-01  8.17D-01  1.81D+00
                    CP:  1.54D+00  1.53D+00  1.70D+00  2.04D+00  2.13D+00
                    CP:  2.17D+00  3.00D+00  2.97D+00  3.00D+00  2.40D+00
                    CP:  1.96D+00  1.43D+00
 E= -2386.08239956309     Delta-E=       -0.000000010741 Rises=F Damp=F
 DIIS: error= 7.26D-07 at cycle  18 NSaved=  18.
 NSaved=18 IEnMin=18 EnMin= -2386.08239956309     IErMin=18 ErrMin= 7.26D-07
 ErrMax= 7.26D-07  0.00D+00 EMaxC= 1.00D-01 BMatC= 2.02D-09 BMatP= 5.72D-09
 IDIUse=1 WtCom= 1.00D+00 WtEn= 0.00D+00
 Coeff-Com:  0.345D-05-0.446D-05 0.613D-05-0.557D-05-0.107D-03-0.112D-03
 Coeff-Com:  0.708D-03 0.127D-02-0.686D-03-0.519D-02-0.118D-01 0.130D-01
 Coeff-Com:  0.459D-01 0.251D-01-0.103D+00-0.203D+00 0.165D+00 0.107D+01
 Coeff:      0.345D-05-0.446D-05 0.613D-05-0.557D-05-0.107D-03-0.112D-03
 Coeff:      0.708D-03 0.127D-02-0.686D-03-0.519D-02-0.118D-01 0.130D-01
 Coeff:      0.459D-01 0.251D-01-0.103D+00-0.203D+00 0.165D+00 0.107D+01
 Gap=     0.095 Goal=   None    Shift=    0.000
 Gap=     0.134 Goal=   None    Shift=    0.000
 RMSDP=7.94D-08 MaxDP=1.22D-05 DE=-1.07D-08 OVMax= 1.05D-04

 Cycle  19  Pass 1  IDiag  1:
 RMSU=  3.30D-08    CP:  9.69D-01  1.94D+00  8.20D-01  8.17D-01  1.81D+00
                    CP:  1.54D+00  1.53D+00  1.70D+00  2.04D+00  2.13D+00
                    CP:  2.17D+00  3.00D+00  3.00D+00  3.00D+00  2.52D+00
                    CP:  2.22D+00  1.71D+00  2.08D+00
 E= -2386.08239956939     Delta-E=       -0.000000006301 Rises=F Damp=F
 DIIS: error= 5.46D-07 at cycle  19 NSaved=  19.
 NSaved=19 IEnMin=19 EnMin= -2386.08239956939     IErMin=19 ErrMin= 5.46D-07
 ErrMax= 5.46D-07  0.00D+00 EMaxC= 1.00D-01 BMatC= 9.77D-10 BMatP= 2.02D-09
 IDIUse=1 WtCom= 1.00D+00 WtEn= 0.00D+00
 Coeff-Com:  0.345D-05-0.463D-05 0.776D-05-0.816D-05 0.150D-04-0.158D-03
 Coeff-Com: -0.631D-03 0.698D-03 0.396D-02-0.362D-04-0.129D-01-0.171D-01
 Coeff-Com:  0.252D-01 0.817D-01-0.143D-01-0.216D+00-0.174D+00 0.398D+00
 Coeff-Com:  0.926D+00
 Coeff:      0.345D-05-0.463D-05 0.776D-05-0.816D-05 0.150D-04-0.158D-03
 Coeff:     -0.631D-03 0.698D-03 0.396D-02-0.362D-04-0.129D-01-0.171D-01
 Coeff:      0.252D-01 0.817D-01-0.143D-01-0.216D+00-0.174D+00 0.398D+00
 Coeff:      0.926D+00
 Gap=     0.095 Goal=   None    Shift=    0.000
 Gap=     0.134 Goal=   None    Shift=    0.000
 RMSDP=5.81D-08 MaxDP=8.48D-06 DE=-6.30D-09 OVMax= 8.06D-05

 Cycle  20  Pass 1  IDiag  1:
 RMSU=  1.59D-08    CP:  9.69D-01  1.94D+00  8.20D-01  8.17D-01  1.81D+00
                    CP:  1.54D+00  1.53D+00  1.70D+00  2.04D+00  2.13D+00
                    CP:  2.18D+00  3.00D+00  3.00D+00  3.00D+00  2.58D+00
                    CP:  2.41D+00  1.89D+00  3.00D+00  1.78D+00
 E= -2386.08239957318     Delta-E=       -0.000000003794 Rises=F Damp=F
 DIIS: error= 4.90D-07 at cycle  20 NSaved=  20.
 NSaved=20 IEnMin=20 EnMin= -2386.08239957318     IErMin=20 ErrMin= 4.90D-07
 ErrMax= 4.90D-07  0.00D+00 EMaxC= 1.00D-01 BMatC= 5.61D-10 BMatP= 9.77D-10
 IDIUse=1 WtCom= 1.00D+00 WtEn= 0.00D+00
 Coeff-Com: -0.139D-05 0.216D-05-0.248D-05-0.711D-05 0.749D-04 0.364D-04
 Coeff-Com: -0.670D-03-0.724D-03 0.125D-02 0.366D-02 0.506D-02-0.130D-01
 Coeff-Com: -0.244D-01 0.172D-02 0.590D-01 0.101D+00-0.158D+00-0.625D+00
 Coeff-Com:  0.220D+00 0.143D+01
 Coeff:     -0.139D-05 0.216D-05-0.248D-05-0.711D-05 0.749D-04 0.364D-04
 Coeff:     -0.670D-03-0.724D-03 0.125D-02 0.366D-02 0.506D-02-0.130D-01
 Coeff:     -0.244D-01 0.172D-02 0.590D-01 0.101D+00-0.158D+00-0.625D+00
 Coeff:      0.220D+00 0.143D+01
 Gap=     0.095 Goal=   None    Shift=    0.000
 Gap=     0.134 Goal=   None    Shift=    0.000
 RMSDP=8.19D-08 MaxDP=1.12D-05 DE=-3.79D-09 OVMax= 1.18D-04

 Cycle  21  Pass 1  IDiag  1:
 Restarting incremental Fock formation.
 E= -2386.08239957738     Delta-E=       -0.000000004195 Rises=F Damp=F
 DIIS: error= 3.47D-07 at cycle  21 NSaved=  20.
 NSaved=20 IEnMin=20 EnMin= -2386.08239957738     IErMin=20 ErrMin= 3.47D-07
 ErrMax= 3.47D-07  0.00D+00 EMaxC= 1.00D-01 BMatC= 2.95D-10 BMatP= 5.61D-10
 IDIUse=1 WtCom= 1.00D+00 WtEn= 0.00D+00
 Coeff-Com: -0.795D-06-0.754D-05 0.404D-05 0.326D-04 0.112D-03 0.269D-04
 Coeff-Com: -0.738D-03-0.162D-02 0.160D-02 0.965D-02 0.391D-02-0.250D-01
 Coeff-Com: -0.472D-01 0.333D-01 0.166D+00 0.379D-01-0.473D+00-0.485D+00
 Coeff-Com:  0.579D+00 0.120D+01
 Coeff:     -0.795D-06-0.754D-05 0.404D-05 0.326D-04 0.112D-03 0.269D-04
 Coeff:     -0.738D-03-0.162D-02 0.160D-02 0.965D-02 0.391D-02-0.250D-01
 Coeff:     -0.472D-01 0.333D-01 0.166D+00 0.379D-01-0.473D+00-0.485D+00
 Coeff:      0.579D+00 0.120D+01
 Gap=     0.095 Goal=   None    Shift=    0.000
 Gap=     0.134 Goal=   None    Shift=    0.000
 RMSDP=7.51D-08 MaxDP=1.06D-05 DE=-4.19D-09 OVMax= 1.10D-04

 Cycle  22  Pass 1  IDiag  1:
 RMSU=  7.50D-08    CP:  1.00D+00
 E= -2386.08239958000     Delta-E=       -0.000000002627 Rises=F Damp=F
 DIIS: error= 2.20D-07 at cycle  22 NSaved=  20.
 NSaved=20 IEnMin=20 EnMin= -2386.08239958000     IErMin=20 ErrMin= 2.20D-07
 ErrMax= 2.20D-07  0.00D+00 EMaxC= 1.00D-01 BMatC= 1.67D-10 BMatP= 2.95D-10
 IDIUse=1 WtCom= 1.00D+00 WtEn= 0.00D+00
 Coeff-Com: -0.169D-05 0.144D-04-0.281D-04 0.399D-04 0.412D-03 0.992D-04
 Coeff-Com: -0.142D-02-0.162D-02 0.119D-02 0.905D-02 0.311D-02-0.207D-01
 Coeff-Com: -0.158D-01 0.347D-02 0.110D+00 0.169D+00-0.380D+00-0.565D+00
 Coeff-Com:  0.556D+00 0.113D+01
 Coeff:     -0.169D-05 0.144D-04-0.281D-04 0.399D-04 0.412D-03 0.992D-04
 Coeff:     -0.142D-02-0.162D-02 0.119D-02 0.905D-02 0.311D-02-0.207D-01
 Coeff:     -0.158D-01 0.347D-02 0.110D+00 0.169D+00-0.380D+00-0.565D+00
 Coeff:      0.556D+00 0.113D+01
 Gap=     0.095 Goal=   None    Shift=    0.000
 Gap=     0.134 Goal=   None    Shift=    0.000
 RMSDP=6.03D-08 MaxDP=8.40D-06 DE=-2.63D-09 OVMax= 8.78D-05

 Cycle  23  Pass 1  IDiag  1:
 RMSU=  9.97D-09    CP:  1.00D+00  1.79D+00
 E= -2386.08239958077     Delta-E=       -0.000000000764 Rises=F Damp=F
 DIIS: error= 1.27D-07 at cycle  23 NSaved=  20.
 NSaved=20 IEnMin=20 EnMin= -2386.08239958077     IErMin=20 ErrMin= 1.27D-07
 ErrMax= 1.27D-07  0.00D+00 EMaxC= 1.00D-01 BMatC= 5.27D-11 BMatP= 1.67D-10
 IDIUse=1 WtCom= 1.00D+00 WtEn= 0.00D+00
 Coeff-Com:  0.260D-05-0.166D-04-0.227D-04 0.958D-04 0.251D-03 0.239D-03
 Coeff-Com: -0.110D-02-0.335D-02 0.126D-02 0.988D-02 0.126D-01-0.151D-01
 Coeff-Com: -0.704D-01 0.214D-01 0.253D+00 0.565D-01-0.401D+00-0.333D+00
 Coeff-Com:  0.355D+00 0.111D+01
 Coeff:      0.260D-05-0.166D-04-0.227D-04 0.958D-04 0.251D-03 0.239D-03
 Coeff:     -0.110D-02-0.335D-02 0.126D-02 0.988D-02 0.126D-01-0.151D-01
 Coeff:     -0.704D-01 0.214D-01 0.253D+00 0.565D-01-0.401D+00-0.333D+00
 Coeff:      0.355D+00 0.111D+01
 Gap=     0.095 Goal=   None    Shift=    0.000
 Gap=     0.134 Goal=   None    Shift=    0.000
 RMSDP=3.46D-08 MaxDP=4.90D-06 DE=-7.64D-10 OVMax= 4.98D-05

 Cycle  24  Pass 1  IDiag  1:
 RMSU=  5.92D-09    CP:  1.00D+00  2.24D+00  1.78D+00
 E= -2386.08239958134     Delta-E=       -0.000000000569 Rises=F Damp=F
 DIIS: error= 4.89D-08 at cycle  24 NSaved=  20.
 NSaved=20 IEnMin=20 EnMin= -2386.08239958134     IErMin=20 ErrMin= 4.89D-08
 ErrMax= 4.89D-08  0.00D+00 EMaxC= 1.00D-01 BMatC= 1.94D-11 BMatP= 5.27D-11
 IDIUse=1 WtCom= 1.00D+00 WtEn= 0.00D+00
 Coeff-Com: -0.898D-05-0.313D-04-0.646D-04 0.132D-03 0.618D-03-0.148D-03
 Coeff-Com: -0.234D-02-0.216D-02 0.408D-02 0.132D-01-0.160D-02-0.380D-01
 Coeff-Com: -0.254D-01 0.675D-01 0.147D+00 0.230D-02-0.340D+00-0.207D+00
 Coeff-Com:  0.533D+00 0.849D+00
 Coeff:     -0.898D-05-0.313D-04-0.646D-04 0.132D-03 0.618D-03-0.148D-03
 Coeff:     -0.234D-02-0.216D-02 0.408D-02 0.132D-01-0.160D-02-0.380D-01
 Coeff:     -0.254D-01 0.675D-01 0.147D+00 0.230D-02-0.340D+00-0.207D+00
 Coeff:      0.533D+00 0.849D+00
 Gap=     0.095 Goal=   None    Shift=    0.000
 Gap=     0.134 Goal=   None    Shift=    0.000
 RMSDP=1.35D-08 MaxDP=1.92D-06 DE=-5.69D-10 OVMax= 1.91D-05

 Cycle  25  Pass 1  IDiag  1:
 RMSU=  2.11D-09    CP:  1.00D+00  2.40D+00  2.20D+00  1.51D+00
 E= -2386.08239958136     Delta-E=       -0.000000000022 Rises=F Damp=F
 DIIS: error= 3.15D-08 at cycle  25 NSaved=  20.
 NSaved=20 IEnMin=20 EnMin= -2386.08239958136     IErMin=20 ErrMin= 3.15D-08
 ErrMax= 3.15D-08  0.00D+00 EMaxC= 1.00D-01 BMatC= 4.27D-12 BMatP= 1.94D-11
 IDIUse=1 WtCom= 1.00D+00 WtEn= 0.00D+00
 Coeff-Com:  0.489D-05-0.285D-04-0.675D-04 0.785D-05 0.339D-03 0.756D-03
 Coeff-Com: -0.905D-03-0.287D-02-0.150D-02 0.595D-02 0.161D-01-0.139D-01
 Coeff-Com: -0.801D-01 0.143D-01 0.159D+00 0.385D-01-0.192D+00-0.280D+00
 Coeff-Com:  0.193D+00 0.114D+01
 Coeff:      0.489D-05-0.285D-04-0.675D-04 0.785D-05 0.339D-03 0.756D-03
 Coeff:     -0.905D-03-0.287D-02-0.150D-02 0.595D-02 0.161D-01-0.139D-01
 Coeff:     -0.801D-01 0.143D-01 0.159D+00 0.385D-01-0.192D+00-0.280D+00
 Coeff:      0.193D+00 0.114D+01
 Gap=     0.095 Goal=   None    Shift=    0.000
 Gap=     0.134 Goal=   None    Shift=    0.000
 RMSDP=6.58D-09 MaxDP=9.44D-07 DE=-2.18D-11 OVMax= 8.81D-06

 Error on total polarization charges =  0.02782
 SCF Done:  E(UM062X) =  -2386.08239958     A.U. after   25 cycles
            NFock= 25  Conv=0.66D-08     -V/T= 2.0054
 <Sx>= 0.0000 <Sy>= 0.0000 <Sz>= 0.5000 <S**2>= 0.7659 S= 0.5079
 <L.S>= 0.000000000000E+00
 KE= 2.373291809046D+03 PE=-1.776893920939D+04 EE= 6.919671708192D+03
 Annihilation of the first spin contaminant:
 S**2 before annihilation     0.7659,   after     0.7502
 Leave Link  502 at Sat Oct 25 10:01:06 2025, MaxMem= 30870077440 cpu:          182194.5 elap:            2880.0
 (Enter /public/software/gauss/g16/l601.exe)
 Copying SCF densities to generalized density rwf, IOpCl= 1 IROHF=0.

 **********************************************************************

            Population analysis using the SCF density.

 **********************************************************************

 Orbital symmetries:
 Alpha Orbitals:
       Occupied  (A) (A) (A) (A) (A) (A) (A) (A) (A) (A) (A) (A)
                 (A) (A) (A) (A) (A) (A) (A) (A) (A) (A) (A) (A)
                 (A) (A) (A) (A) (A) (A) (A) (A) (A) (A) (A) (A)
                 (A) (A) (A) (A) (A) (A) (A) (A) (A) (A) (A) (A)
                 (A) (A) (A) (A) (A) (A) (A) (A) (A) (A) (A) (A)
                 (A) (A) (A) (A) (A) (A) (A) (A) (A) (A) (A) (A)
                 (A) (A) (A) (A) (A) (A) (A) (A) (A) (A) (A) (A)
                 (A) (A) (A) (A) (A) (A) (A) (A) (A) (A) (A) (A)
                 (A) (A) (A) (A) (A) (A) (A) (A) (A) (A) (A) (A)
                 (A) (A) (A) (A) (A) (A) (A) (A) (A) (A) (A) (A)
                 (A) (A) (A) (A) (A) (A) (A) (A) (A) (A) (A) (A)
                 (A) (A) (A) (A) (A) (A) (A) (A) (A) (A) (A) (A)
                 (A) (A) (A) (A) (A) (A) (A) (A) (A) (A) (A) (A)
                 (A) (A) (A) (A) (A) (A) (A) (A) (A) (A) (A) (A)
                 (A) (A) (A) (A) (A) (A) (A) (A) (A) (A) (A) (A)
                 (A) (A) (A) (A) (A) (A)
       Virtual   (A) (A) (A) (A) (A) (A) (A) (A) (A) (A) (A) (A)
                 (A) (A) (A) (A) (A) (A) (A) (A) (A) (A) (A) (A)
                 (A) (A) (A) (A) (A) (A) (A) (A) (A) (A) (A) (A)
                 (A) (A) (A) (A) (A) (A) (A) (A) (A) (A) (A) (A)
                 (A) (A) (A) (A) (A) (A) (A) (A) (A) (A) (A) (A)
                 (A) (A) (A) (A) (A) (A) (A) (A) (A) (A) (A) (A)
                 (A) (A) (A) (A) (A) (A) (A) (A) (A) (A) (A) (A)
                 (A) (A) (A) (A) (A) (A) (A) (A) (A) (A) (A) (A)
                 (A) (A) (A) (A) (A) (A) (A) (A) (A) (A) (A) (A)
                 (A) (A) (A) (A) (A) (A) (A) (A) (A) (A) (A) (A)
                 (A) (A) (A) (A) (A) (A) (A) (A) (A) (A) (A) (A)
                 (A) (A) (A) (A) (A) (A) (A) (A) (A) (A) (A) (A)
                 (A) (A) (A) (A) (A) (A) (A) (A) (A) (A) (A) (A)
                 (A) (A) (A) (A) (A) (A) (A) (A) (A) (A) (A) (A)
                 (A) (A) (A) (A) (A) (A) (A) (A) (A) (A) (A) (A)
                 (A) (A) (A) (A) (A) (A) (A) (A) (A) (A) (A) (A)
                 (A) (A) (A) (A) (A) (A) (A) (A) (A) (A) (A) (A)
                 (A) (A) (A) (A) (A) (A) (A) (A) (A) (A) (A) (A)
                 (A) (A) (A) (A) (A) (A) (A) (A) (A) (A) (A) (A)
                 (A) (A) (A) (A) (A) (A) (A) (A) (A) (A) (A) (A)
                 (A) (A) (A) (A) (A) (A) (A) (A) (A) (A) (A) (A)
                 (A) (A) (A) (A) (A) (A) (A) (A) (A) (A) (A) (A)
                 (A) (A) (A) (A) (A) (A) (A) (A) (A) (A) (A) (A)
                 (A) (A) (A) (A) (A) (A) (A) (A) (A) (A) (A) (A)
                 (A) (A) (A) (A) (A) (A) (A) (A) (A) (A) (A) (A)
                 (A) (A) (A) (A) (A) (A) (A) (A) (A) (A) (A) (A)
                 (A) (A) (A) (A) (A) (A) (A) (A) (A) (A) (A) (A)
                 (A) (A) (A) (A) (A) (A) (A) (A) (A) (A) (A) (A)
                 (A) (A) (A) (A) (A) (A) (A) (A) (A) (A) (A) (A)
                 (A) (A) (A) (A) (A) (A) (A) (A) (A) (A) (A) (A)
                 (A) (A) (A) (A) (A) (A) (A) (A) (A) (A) (A) (A)
                 (A) (A) (A) (A) (A) (A) (A) (A) (A) (A) (A) (A)
                 (A) (A) (A) (A) (A) (A) (A) (A) (A) (A) (A) (A)
                 (A) (A) (A) (A) (A) (A) (A) (A) (A) (A) (A) (A)
                 (A) (A) (A) (A) (A) (A) (A) (A) (A) (A) (A) (A)
                 (A) (A) (A) (A) (A) (A) (A) (A) (A) (A) (A) (A)
                 (A) (A) (A) (A) (A) (A) (A) (A) (A) (A) (A) (A)
                 (A) (A) (A) (A) (A) (A) (A) (A) (A) (A) (A) (A)
                 (A) (A) (A) (A) (A) (A) (A) (A) (A) (A) (A) (A)
                 (A) (A) (A) (A) (A) (A) (A) (A) (A) (A) (A) (A)
                 (A) (A) (A) (A) (A) (A) (A) (A) (A) (A) (A) (A)
                 (A) (A) (A) (A) (A) (A) (A) (A) (A) (A) (A) (A)
                 (A) (A) (A) (A) (A) (A) (A) (A) (A) (A) (A) (A)
                 (A) (A) (A) (A) (A) (A) (A) (A) (A) (A) (A) (A)
                 (A) (A) (A) (A) (A) (A) (A) (A) (A) (A) (A) (A)
                 (A) (A) (A) (A) (A) (A) (A) (A) (A) (A) (A) (A)
                 (A) (A) (A) (A) (A) (A) (A) (A) (A) (A) (A) (A)
                 (A) (A) (A) (A) (A) (A) (A) (A) (A) (A) (A) (A)
                 (A) (A) (A) (A) (A) (A) (A) (A) (A) (A) (A) (A)
                 (A) (A) (A) (A) (A) (A) (A) (A) (A) (A) (A) (A)
                 (A) (A) (A) (A) (A) (A) (A) (A) (A) (A) (A) (A)
                 (A) (A) (A) (A) (A) (A) (A) (A) (A) (A) (A) (A)
                 (A) (A) (A) (A) (A) (A) (A) (A) (A) (A) (A) (A)
                 (A) (A) (A) (A) (A) (A) (A) (A) (A) (A) (A) (A)
                 (A) (A) (A) (A) (A) (A) (A) (A) (A) (A) (A) (A)
                 (A) (A) (A) (A) (A) (A) (A) (A) (A) (A) (A) (A)
                 (A) (A) (A) (A) (A) (A) (A) (A) (A) (A) (A) (A)
                 (A) (A) (A) (A) (A) (A) (A) (A) (A) (A) (A) (A)
                 (A) (A) (A) (A) (A) (A) (A) (A) (A) (A) (A) (A)
                 (A) (A) (A) (A) (A) (A) (A) (A) (A) (A) (A) (A)
                 (A) (A) (A) (A) (A) (A) (A) (A) (A) (A) (A) (A)
                 (A) (A) (A) (A) (A) (A) (A) (A) (A) (A) (A) (A)
                 (A) (A) (A) (A) (A) (A) (A) (A) (A) (A) (A) (A)
                 (A) (A) (A) (A) (A) (A) (A) (A) (A) (A) (A) (A)
                 (A) (A) (A) (A) (A) (A) (A) (A) (A) (A) (A) (A)
                 (A) (A) (A) (A) (A) (A) (A) (A) (A) (A) (A) (A)
                 (A) (A) (A) (A) (A) (A) (A) (A) (A) (A) (A) (A)
                 (A) (A) (A) (A) (A) (A) (A) (A) (A) (A) (A) (A)
                 (A) (A) (A) (A) (A) (A) (A) (A) (A) (A) (A) (A)
                 (A) (A) (A) (A) (A) (A) (A) (A) (A) (A) (A) (A)
                 (A) (A) (A) (A) (A) (A) (A) (A) (A) (A) (A) (A)
                 (A) (A) (A) (A) (A) (A) (A) (A) (A) (A) (A) (A)
                 (A) (A) (A) (A) (A) (A) (A) (A) (A) (A) (A) (A)
                 (A) (A) (A) (A) (A) (A) (A) (A) (A) (A) (A) (A)
                 (A) (A) (A) (A) (A) (A) (A) (A) (A) (A) (A) (A)
                 (A) (A) (A) (A) (A) (A) (A) (A) (A) (A) (A) (A)
                 (A) (A) (A) (A) (A) (A) (A) (A) (A) (A) (A) (A)
                 (A) (A) (A) (A) (A) (A) (A) (A) (A) (A) (A) (A)
                 (A) (A) (A) (A) (A) (A) (A) (A) (A) (A) (A) (A)
                 (A) (A) (A) (A) (A) (A) (A) (A) (A) (A) (A) (A)
                 (A) (A) (A) (A) (A) (A) (A) (A) (A) (A) (A) (A)
                 (A) (A) (A) (A) (A) (A) (A) (A) (A) (A) (A) (A)
                 (A) (A) (A) (A) (A) (A) (A) (A) (A) (A) (A) (A)
                 (A) (A) (A) (A) (A) (A) (A) (A) (A) (A) (A) (A)
                 (A) (A) (A) (A) (A) (A) (A) (A) (A) (A) (A) (A)
                 (A) (A) (A) (A) (A) (A) (A) (A) (A) (A) (A) (A)
                 (A) (A) (A) (A) (A) (A) (A) (A) (A) (A) (A) (A)
                 (A) (A) (A) (A) (A) (A) (A) (A) (A) (A) (A) (A)
                 (A) (A) (A) (A) (A) (A) (A) (A) (A) (A) (A) (A)
                 (A) (A) (A) (A) (A) (A) (A) (A) (A) (A) (A) (A)
                 (A) (A) (A) (A) (A) (A) (A) (A) (A) (A) (A) (A)
                 (A) (A) (A) (A) (A) (A) (A) (A) (A) (A) (A) (A)
                 (A) (A) (A) (A) (A) (A) (A) (A) (A) (A) (A) (A)
                 (A) (A) (A) (A) (A) (A) (A) (A) (A) (A) (A) (A)
                 (A) (A) (A) (A) (A) (A) (A) (A) (A) (A) (A) (A)
                 (A) (A) (A) (A) (A) (A) (A) (A) (A) (A) (A) (A)
                 (A) (A) (A) (A) (A) (A) (A) (A) (A) (A) (A) (A)
                 (A) (A) (A) (A) (A) (A) (A) (A) (A) (A) (A) (A)
                 (A) (A) (A) (A) (A) (A) (A) (A) (A) (A) (A) (A)
                 (A) (A) (A) (A) (A) (A) (A) (A) (A) (A) (A) (A)
                 (A) (A) (A) (A) (A) (A) (A) (A) (A) (A) (A) (A)
                 (A) (A) (A) (A) (A) (A) (A) (A) (A) (A) (A) (A)
                 (A) (A) (A) (A) (A) (A) (A) (A) (A) (A) (A) (A)
                 (A) (A) (A) (A) (A) (A) (A) (A) (A) (A) (A) (A)
                 (A) (A) (A) (A) (A) (A) (A) (A) (A) (A) (A) (A)
                 (A) (A) (A) (A) (A) (A) (A) (A) (A) (A) (A) (A)
                 (A) (A) (A) (A) (A) (A) (A) (A) (A) (A) (A) (A)
                 (A) (A) (A) (A) (A) (A) (A) (A) (A) (A) (A) (A)
                 (A) (A) (A) (A) (A) (A) (A) (A) (A) (A) (A) (A)
                 (A) (A) (A) (A) (A) (A) (A) (A) (A) (A) (A) (A)
                 (A) (A) (A) (A) (A) (A) (A) (A) (A) (A) (A) (A)
                 (A) (A) (A) (A) (A) (A) (A) (A) (A) (A) (A) (A)
                 (A) (A) (A) (A) (A) (A) (A) (A) (A) (A) (A) (A)
                 (A) (A) (A) (A) (A) (A) (A) (A) (A) (A) (A) (A)
                 (A) (A) (A) (A) (A) (A) (A) (A) (A) (A) (A) (A)
                 (A) (A) (A) (A) (A) (A) (A) (A) (A) (A) (A) (A)
                 (A) (A) (A) (A) (A) (A) (A) (A) (A) (A) (A) (A)
                 (A) (A) (A) (A) (A) (A) (A) (A) (A) (A) (A) (A)
                 (A) (A) (A) (A) (A) (A) (A) (A) (A) (A) (A) (A)
                 (A) (A) (A) (A) (A) (A) (A) (A) (A) (A) (A) (A)
                 (A) (A) (A) (A) (A) (A) (A) (A) (A) (A) (A) (A)
                 (A) (A) (A) (A) (A) (A) (A) (A) (A) (A) (A) (A)
                 (A) (A) (A) (A) (A) (A) (A) (A) (A) (A) (A) (A)
                 (A) (A) (A) (A) (A) (A) (A) (A) (A) (A) (A) (A)
                 (A) (A) (A) (A) (A) (A) (A) (A) (A) (A) (A) (A)
                 (A) (A) (A) (A) (A) (A) (A) (A) (A) (A) (A) (A)
                 (A) (A) (A) (A) (A) (A) (A) (A) (A) (A) (A) (A)
                 (A) (A) (A) (A) (A) (A) (A) (A) (A) (A) (A) (A)
                 (A) (A) (A) (A) (A) (A) (A) (A) (A) (A) (A) (A)
                 (A) (A) (A) (A) (A) (A) (A) (A) (A) (A) (A) (A)
                 (A) (A) (A) (A) (A) (A) (A) (A) (A) (A) (A) (A)
                 (A) (A) (A) (A) (A) (A) (A) (A) (A) (A) (A) (A)
                 (A) (A) (A) (A) (A) (A) (A) (A) (A) (A) (A) (A)
                 (A) (A) (A) (A) (A) (A) (A) (A) (A) (A) (A) (A)
                 (A) (A) (A) (A) (A) (A) (A) (A) (A) (A) (A) (A)
                 (A) (A) (A) (A) (A) (A) (A) (A) (A) (A) (A) (A)
                 (A) (A) (A) (A) (A) (A) (A) (A) (A) (A) (A) (A)
                 (A) (A) (A) (A) (A) (A) (A) (A) (A) (A) (A) (A)
                 (A) (A) (A) (A) (A) (A) (A) (A) (A) (A) (A) (A)
                 (A) (A) (A) (A) (A) (A) (A) (A) (A) (A) (A) (A)
                 (A) (A) (A) (A) (A) (A) (A) (A) (A) (A) (A) (A)
                 (A) (A) (A) (A) (A) (A) (A) (A) (A) (A) (A) (A)
                 (A) (A) (A) (A) (A) (A) (A) (A) (A) (A) (A) (A)
                 (A) (A) (A) (A) (A) (A) (A) (A) (A) (A) (A) (A)
                 (A) (A) (A) (A) (A) (A) (A) (A) (A) (A) (A) (A)
                 (A) (A) (A) (A) (A) (A) (A) (A) (A) (A) (A) (A)
                 (A) (A) (A) (A) (A) (A) (A) (A) (A) (A) (A) (A)
                 (A) (A) (A) (A) (A) (A) (A) (A) (A) (A) (A) (A)
                 (A) (A) (A) (A) (A) (A) (A) (A) (A) (A) (A) (A)
                 (A) (A) (A) (A) (A) (A) (A) (A) (A) (A) (A) (A)
                 (A) (A) (A) (A) (A) (A) (A) (A) (A) (A) (A) (A)
                 (A) (A) (A) (A) (A) (A) (A) (A) (A) (A) (A) (A)
                 (A) (A) (A) (A) (A) (A) (A) (A) (A) (A) (A) (A)
                 (A) (A) (A) (A) (A) (A) (A) (A) (A) (A) (A) (A)
                 (A) (A) (A) (A) (A) (A) (A) (A) (A) (A) (A) (A)
                 (A) (A) (A) (A) (A) (A) (A) (A) (A) (A) (A) (A)
                 (A) (A) (A) (A) (A) (A) (A) (A) (A) (A) (A) (A)
                 (A) (A) (A) (A) (A) (A) (A) (A) (A) (A) (A) (A)
                 (A) (A) (A) (A) (A) (A) (A) (A) (A) (A) (A) (A)
                 (A) (A) (A) (A) (A) (A) (A) (A) (A) (A) (A) (A)
                 (A) (A) (A) (A) (A) (A) (A) (A) (A) (A) (A) (A)
                 (A)
 Beta  Orbitals:
       Occupied  (A) (A) (A) (A) (A) (A) (A) (A) (A) (A) (A) (A)
                 (A) (A) (A) (A) (A) (A) (A) (A) (A) (A) (A) (A)
                 (A) (A) (A) (A) (A) (A) (A) (A) (A) (A) (A) (A)
                 (A) (A) (A) (A) (A) (A) (A) (A) (A) (A) (A) (A)
                 (A) (A) (A) (A) (A) (A) (A) (A) (A) (A) (A) (A)
                 (A) (A) (A) (A) (A) (A) (A) (A) (A) (A) (A) (A)
                 (A) (A) (A) (A) (A) (A) (A) (A) (A) (A) (A) (A)
                 (A) (A) (A) (A) (A) (A) (A) (A) (A) (A) (A) (A)
                 (A) (A) (A) (A) (A) (A) (A) (A) (A) (A) (A) (A)
                 (A) (A) (A) (A) (A) (A) (A) (A) (A) (A) (A) (A)
                 (A) (A) (A) (A) (A) (A) (A) (A) (A) (A) (A) (A)
                 (A) (A) (A) (A) (A) (A) (A) (A) (A) (A) (A) (A)
                 (A) (A) (A) (A) (A) (A) (A) (A) (A) (A) (A) (A)
                 (A) (A) (A) (A) (A) (A) (A) (A) (A) (A) (A) (A)
                 (A) (A) (A) (A) (A) (A) (A) (A) (A) (A) (A) (A)
                 (A) (A) (A) (A) (A)
       Virtual   (A) (A) (A) (A) (A) (A) (A) (A) (A) (A) (A) (A)
                 (A) (A) (A) (A) (A) (A) (A) (A) (A) (A) (A) (A)
                 (A) (A) (A) (A) (A) (A) (A) (A) (A) (A) (A) (A)
                 (A) (A) (A) (A) (A) (A) (A) (A) (A) (A) (A) (A)
                 (A) (A) (A) (A) (A) (A) (A) (A) (A) (A) (A) (A)
                 (A) (A) (A) (A) (A) (A) (A) (A) (A) (A) (A) (A)
                 (A) (A) (A) (A) (A) (A) (A) (A) (A) (A) (A) (A)
                 (A) (A) (A) (A) (A) (A) (A) (A) (A) (A) (A) (A)
                 (A) (A) (A) (A) (A) (A) (A) (A) (A) (A) (A) (A)
                 (A) (A) (A) (A) (A) (A) (A) (A) (A) (A) (A) (A)
                 (A) (A) (A) (A) (A) (A) (A) (A) (A) (A) (A) (A)
                 (A) (A) (A) (A) (A) (A) (A) (A) (A) (A) (A) (A)
                 (A) (A) (A) (A) (A) (A) (A) (A) (A) (A) (A) (A)
                 (A) (A) (A) (A) (A) (A) (A) (A) (A) (A) (A) (A)
                 (A) (A) (A) (A) (A) (A) (A) (A) (A) (A) (A) (A)
                 (A) (A) (A) (A) (A) (A) (A) (A) (A) (A) (A) (A)
                 (A) (A) (A) (A) (A) (A) (A) (A) (A) (A) (A) (A)
                 (A) (A) (A) (A) (A) (A) (A) (A) (A) (A) (A) (A)
                 (A) (A) (A) (A) (A) (A) (A) (A) (A) (A) (A) (A)
                 (A) (A) (A) (A) (A) (A) (A) (A) (A) (A) (A) (A)
                 (A) (A) (A) (A) (A) (A) (A) (A) (A) (A) (A) (A)
                 (A) (A) (A) (A) (A) (A) (A) (A) (A) (A) (A) (A)
                 (A) (A) (A) (A) (A) (A) (A) (A) (A) (A) (A) (A)
                 (A) (A) (A) (A) (A) (A) (A) (A) (A) (A) (A) (A)
                 (A) (A) (A) (A) (A) (A) (A) (A) (A) (A) (A) (A)
                 (A) (A) (A) (A) (A) (A) (A) (A) (A) (A) (A) (A)
                 (A) (A) (A) (A) (A) (A) (A) (A) (A) (A) (A) (A)
                 (A) (A) (A) (A) (A) (A) (A) (A) (A) (A) (A) (A)
                 (A) (A) (A) (A) (A) (A) (A) (A) (A) (A) (A) (A)
                 (A) (A) (A) (A) (A) (A) (A) (A) (A) (A) (A) (A)
                 (A) (A) (A) (A) (A) (A) (A) (A) (A) (A) (A) (A)
                 (A) (A) (A) (A) (A) (A) (A) (A) (A) (A) (A) (A)
                 (A) (A) (A) (A) (A) (A) (A) (A) (A) (A) (A) (A)
                 (A) (A) (A) (A) (A) (A) (A) (A) (A) (A) (A) (A)
                 (A) (A) (A) (A) (A) (A) (A) (A) (A) (A) (A) (A)
                 (A) (A) (A) (A) (A) (A) (A) (A) (A) (A) (A) (A)
                 (A) (A) (A) (A) (A) (A) (A) (A) (A) (A) (A) (A)
                 (A) (A) (A) (A) (A) (A) (A) (A) (A) (A) (A) (A)
                 (A) (A) (A) (A) (A) (A) (A) (A) (A) (A) (A) (A)
                 (A) (A) (A) (A) (A) (A) (A) (A) (A) (A) (A) (A)
                 (A) (A) (A) (A) (A) (A) (A) (A) (A) (A) (A) (A)
                 (A) (A) (A) (A) (A) (A) (A) (A) (A) (A) (A) (A)
                 (A) (A) (A) (A) (A) (A) (A) (A) (A) (A) (A) (A)
                 (A) (A) (A) (A) (A) (A) (A) (A) (A) (A) (A) (A)
                 (A) (A) (A) (A) (A) (A) (A) (A) (A) (A) (A) (A)
                 (A) (A) (A) (A) (A) (A) (A) (A) (A) (A) (A) (A)
                 (A) (A) (A) (A) (A) (A) (A) (A) (A) (A) (A) (A)
                 (A) (A) (A) (A) (A) (A) (A) (A) (A) (A) (A) (A)
                 (A) (A) (A) (A) (A) (A) (A) (A) (A) (A) (A) (A)
                 (A) (A) (A) (A) (A) (A) (A) (A) (A) (A) (A) (A)
                 (A) (A) (A) (A) (A) (A) (A) (A) (A) (A) (A) (A)
                 (A) (A) (A) (A) (A) (A) (A) (A) (A) (A) (A) (A)
                 (A) (A) (A) (A) (A) (A) (A) (A) (A) (A) (A) (A)
                 (A) (A) (A) (A) (A) (A) (A) (A) (A) (A) (A) (A)
                 (A) (A) (A) (A) (A) (A) (A) (A) (A) (A) (A) (A)
                 (A) (A) (A) (A) (A) (A) (A) (A) (A) (A) (A) (A)
                 (A) (A) (A) (A) (A) (A) (A) (A) (A) (A) (A) (A)
                 (A) (A) (A) (A) (A) (A) (A) (A) (A) (A) (A) (A)
                 (A) (A) (A) (A) (A) (A) (A) (A) (A) (A) (A) (A)
                 (A) (A) (A) (A) (A) (A) (A) (A) (A) (A) (A) (A)
                 (A) (A) (A) (A) (A) (A) (A) (A) (A) (A) (A) (A)
                 (A) (A) (A) (A) (A) (A) (A) (A) (A) (A) (A) (A)
                 (A) (A) (A) (A) (A) (A) (A) (A) (A) (A) (A) (A)
                 (A) (A) (A) (A) (A) (A) (A) (A) (A) (A) (A) (A)
                 (A) (A) (A) (A) (A) (A) (A) (A) (A) (A) (A) (A)
                 (A) (A) (A) (A) (A) (A) (A) (A) (A) (A) (A) (A)
                 (A) (A) (A) (A) (A) (A) (A) (A) (A) (A) (A) (A)
                 (A) (A) (A) (A) (A) (A) (A) (A) (A) (A) (A) (A)
                 (A) (A) (A) (A) (A) (A) (A) (A) (A) (A) (A) (A)
                 (A) (A) (A) (A) (A) (A) (A) (A) (A) (A) (A) (A)
                 (A) (A) (A) (A) (A) (A) (A) (A) (A) (A) (A) (A)
                 (A) (A) (A) (A) (A) (A) (A) (A) (A) (A) (A) (A)
                 (A) (A) (A) (A) (A) (A) (A) (A) (A) (A) (A) (A)
                 (A) (A) (A) (A) (A) (A) (A) (A) (A) (A) (A) (A)
                 (A) (A) (A) (A) (A) (A) (A) (A) (A) (A) (A) (A)
                 (A) (A) (A) (A) (A) (A) (A) (A) (A) (A) (A) (A)
                 (A) (A) (A) (A) (A) (A) (A) (A) (A) (A) (A) (A)
                 (A) (A) (A) (A) (A) (A) (A) (A) (A) (A) (A) (A)
                 (A) (A) (A) (A) (A) (A) (A) (A) (A) (A) (A) (A)
                 (A) (A) (A) (A) (A) (A) (A) (A) (A) (A) (A) (A)
                 (A) (A) (A) (A) (A) (A) (A) (A) (A) (A) (A) (A)
                 (A) (A) (A) (A) (A) (A) (A) (A) (A) (A) (A) (A)
                 (A) (A) (A) (A) (A) (A) (A) (A) (A) (A) (A) (A)
                 (A) (A) (A) (A) (A) (A) (A) (A) (A) (A) (A) (A)
                 (A) (A) (A) (A) (A) (A) (A) (A) (A) (A) (A) (A)
                 (A) (A) (A) (A) (A) (A) (A) (A) (A) (A) (A) (A)
                 (A) (A) (A) (A) (A) (A) (A) (A) (A) (A) (A) (A)
                 (A) (A) (A) (A) (A) (A) (A) (A) (A) (A) (A) (A)
                 (A) (A) (A) (A) (A) (A) (A) (A) (A) (A) (A) (A)
                 (A) (A) (A) (A) (A) (A) (A) (A) (A) (A) (A) (A)
                 (A) (A) (A) (A) (A) (A) (A) (A) (A) (A) (A) (A)
                 (A) (A) (A) (A) (A) (A) (A) (A) (A) (A) (A) (A)
                 (A) (A) (A) (A) (A) (A) (A) (A) (A) (A) (A) (A)
                 (A) (A) (A) (A) (A) (A) (A) (A) (A) (A) (A) (A)
                 (A) (A) (A) (A) (A) (A) (A) (A) (A) (A) (A) (A)
                 (A) (A) (A) (A) (A) (A) (A) (A) (A) (A) (A) (A)
                 (A) (A) (A) (A) (A) (A) (A) (A) (A) (A) (A) (A)
                 (A) (A) (A) (A) (A) (A) (A) (A) (A) (A) (A) (A)
                 (A) (A) (A) (A) (A) (A) (A) (A) (A) (A) (A) (A)
                 (A) (A) (A) (A) (A) (A) (A) (A) (A) (A) (A) (A)
                 (A) (A) (A) (A) (A) (A) (A) (A) (A) (A) (A) (A)
                 (A) (A) (A) (A) (A) (A) (A) (A) (A) (A) (A) (A)
                 (A) (A) (A) (A) (A) (A) (A) (A) (A) (A) (A) (A)
                 (A) (A) (A) (A) (A) (A) (A) (A) (A) (A) (A) (A)
                 (A) (A) (A) (A) (A) (A) (A) (A) (A) (A) (A) (A)
                 (A) (A) (A) (A) (A) (A) (A) (A) (A) (A) (A) (A)
                 (A) (A) (A) (A) (A) (A) (A) (A) (A) (A) (A) (A)
                 (A) (A) (A) (A) (A) (A) (A) (A) (A) (A) (A) (A)
                 (A) (A) (A) (A) (A) (A) (A) (A) (A) (A) (A) (A)
                 (A) (A) (A) (A) (A) (A) (A) (A) (A) (A) (A) (A)
                 (A) (A) (A) (A) (A) (A) (A) (A) (A) (A) (A) (A)
                 (A) (A) (A) (A) (A) (A) (A) (A) (A) (A) (A) (A)
                 (A) (A) (A) (A) (A) (A) (A) (A) (A) (A) (A) (A)
                 (A) (A) (A) (A) (A) (A) (A) (A) (A) (A) (A) (A)
                 (A) (A) (A) (A) (A) (A) (A) (A) (A) (A) (A) (A)
                 (A) (A) (A) (A) (A) (A) (A) (A) (A) (A) (A) (A)
                 (A) (A) (A) (A) (A) (A) (A) (A) (A) (A) (A) (A)
                 (A) (A) (A) (A) (A) (A) (A) (A) (A) (A) (A) (A)
                 (A) (A) (A) (A) (A) (A) (A) (A) (A) (A) (A) (A)
                 (A) (A) (A) (A) (A) (A) (A) (A) (A) (A) (A) (A)
                 (A) (A) (A) (A) (A) (A) (A) (A) (A) (A) (A) (A)
                 (A) (A) (A) (A) (A) (A) (A) (A) (A) (A) (A) (A)
                 (A) (A) (A) (A) (A) (A) (A) (A) (A) (A) (A) (A)
                 (A) (A) (A) (A) (A) (A) (A) (A) (A) (A) (A) (A)
                 (A) (A) (A) (A) (A) (A) (A) (A) (A) (A) (A) (A)
                 (A) (A) (A) (A) (A) (A) (A) (A) (A) (A) (A) (A)
                 (A) (A) (A) (A) (A) (A) (A) (A) (A) (A) (A) (A)
                 (A) (A) (A) (A) (A) (A) (A) (A) (A) (A) (A) (A)
                 (A) (A) (A) (A) (A) (A) (A) (A) (A) (A) (A) (A)
                 (A) (A) (A) (A) (A) (A) (A) (A) (A) (A) (A) (A)
                 (A) (A) (A) (A) (A) (A) (A) (A) (A) (A) (A) (A)
                 (A) (A) (A) (A) (A) (A) (A) (A) (A) (A) (A) (A)
                 (A) (A) (A) (A) (A) (A) (A) (A) (A) (A) (A) (A)
                 (A) (A) (A) (A) (A) (A) (A) (A) (A) (A) (A) (A)
                 (A) (A) (A) (A) (A) (A) (A) (A) (A) (A) (A) (A)
                 (A) (A) (A) (A) (A) (A) (A) (A) (A) (A) (A) (A)
                 (A) (A) (A) (A) (A) (A) (A) (A) (A) (A) (A) (A)
                 (A) (A) (A) (A) (A) (A) (A) (A) (A) (A) (A) (A)
                 (A) (A) (A) (A) (A) (A) (A) (A) (A) (A) (A) (A)
                 (A) (A) (A) (A) (A) (A) (A) (A) (A) (A) (A) (A)
                 (A) (A) (A) (A) (A) (A) (A) (A) (A) (A) (A) (A)
                 (A) (A) (A) (A) (A) (A) (A) (A) (A) (A) (A) (A)
                 (A) (A) (A) (A) (A) (A) (A) (A) (A) (A) (A) (A)
                 (A) (A) (A) (A) (A) (A) (A) (A) (A) (A) (A) (A)
                 (A) (A) (A) (A) (A) (A) (A) (A) (A) (A) (A) (A)
[...]
    24 C(13)  Bbb    -0.0001    -0.011    -0.004    -0.004  0.0323  0.1764  0.9838
              Bcc     0.0002     0.023     0.008     0.008  0.9421 -0.3342  0.0290
 
              Baa    -0.0001    -0.015    -0.005    -0.005  0.4077  0.8188 -0.4042
    25 C(13)  Bbb    -0.0001    -0.014    -0.005    -0.005  0.1559  0.3737  0.9143
              Bcc     0.0002     0.029     0.010     0.010  0.8997 -0.4357  0.0247
 
              Baa    -0.0002    -0.026    -0.009    -0.009  0.3524  0.7778  0.5204
    26 C(13)  Bbb    -0.0001    -0.019    -0.007    -0.006 -0.2867 -0.4397  0.8512
              Bcc     0.0003     0.045     0.016     0.015  0.8909 -0.4491  0.0680
 
              Baa    -0.0003    -0.034    -0.012    -0.011  0.4608  0.7915  0.4015
    27 C(13)  Bbb    -0.0002    -0.031    -0.011    -0.010 -0.1306 -0.3870  0.9128
              Bcc     0.0005     0.066     0.023     0.022  0.8778 -0.4730 -0.0749
 
              Baa    -0.0006    -0.075    -0.027    -0.025  0.3873  0.8911 -0.2365
    28 C(13)  Bbb    -0.0002    -0.026    -0.009    -0.009  0.1022  0.2134  0.9716
              Bcc     0.0007     0.100     0.036     0.034  0.9163 -0.4004 -0.0084
 
              Baa    -0.0012    -0.154    -0.055    -0.051  0.4046  0.7529 -0.5191
    29 C(13)  Bbb    -0.0011    -0.147    -0.052    -0.049  0.1860  0.4880  0.8528
              Bcc     0.0022     0.301     0.107     0.100  0.8954 -0.4416  0.0574
 
              Baa    -0.0059    -0.789    -0.282    -0.263  0.1485  0.9383  0.3124
    30 C(13)  Bbb    -0.0057    -0.769    -0.274    -0.256  0.8114  0.0650 -0.5808
              Bcc     0.0116     1.558     0.556     0.520  0.5653 -0.3397  0.7517
 
              Baa    -0.0058     0.420     0.150     0.140  0.4736  0.8807  0.0036
    31 O(17)  Bbb     0.0011    -0.079    -0.028    -0.026 -0.5479  0.2915  0.7841
              Bcc     0.0047    -0.342    -0.122    -0.114  0.6896 -0.3733  0.6206
 
              Baa    -0.0016    -0.218    -0.078    -0.073  0.3908  0.8551 -0.3406
    32 C(13)  Bbb    -0.0007    -0.090    -0.032    -0.030  0.2750  0.2446  0.9298
              Bcc     0.0023     0.308     0.110     0.103  0.8784 -0.4571 -0.1396
 
              Baa    -0.0864   -11.599    -4.139    -3.869  0.3996  0.8879 -0.2280
    33 C(13)  Bbb    -0.0798   -10.704    -3.820    -3.571  0.8901 -0.4353 -0.1350
              Bcc     0.1662    22.303     7.958     7.439  0.2192  0.1490  0.9642
 
              Baa    -0.0542    -7.272    -2.595    -2.426  0.2279  0.1439  0.9630
    34 C(13)  Bbb     0.0234     3.135     1.118     1.046  0.1959  0.9620 -0.1901
              Bcc     0.0308     4.138     1.476     1.380  0.9538 -0.2320 -0.1911
 
              Baa    -0.0680    -9.122    -3.255    -3.043  0.5476  0.8001 -0.2449
    35 C(13)  Bbb    -0.0585    -7.849    -2.801    -2.618  0.8069 -0.5824 -0.0986
              Bcc     0.1265    16.972     6.056     5.661  0.2215  0.1436  0.9645
 
              Baa    -0.0639    -8.576    -3.060    -2.861  0.2156  0.1530  0.9644
    36 C(13)  Bbb     0.0149     1.995     0.712     0.666  0.3915  0.8912 -0.2290
              Bcc     0.0490     6.581     2.348     2.195  0.8945 -0.4270 -0.1322
 
              Baa    -0.5585   -21.541    -7.686    -7.185  0.3912  0.8909 -0.2307
    37 N(14)  Bbb    -0.5463   -21.071    -7.519    -7.028  0.8938 -0.4276 -0.1354
              Bcc     1.1049    42.612    15.205    14.214  0.2193  0.1532  0.9636
 
              Baa    -0.5504    39.828    14.212    13.285  0.7889  0.5532 -0.2677
    38 O(17)  Bbb    -0.4904    35.484    12.661    11.836 -0.5741  0.8188  0.0004
              Bcc     1.0408   -75.312   -26.873   -25.121  0.2194  0.1533  0.9635
 
              Baa    -0.5473    39.603    14.131    13.210 -0.1038  0.9856 -0.1335
    39 O(17)  Bbb    -0.4873    35.261    12.582    11.762  0.9702  0.0707 -0.2319
              Bcc     1.0346   -74.864   -26.713   -24.972  0.2192  0.1536  0.9635
 
              Baa    -0.0718    -9.639    -3.439    -3.215  0.2421  0.9488 -0.2027
    40 C(13)  Bbb    -0.0623    -8.365    -2.985    -2.790  0.9442 -0.2785 -0.1760
              Bcc     0.1342    18.004     6.424     6.006  0.2234  0.1487  0.9633
 
              Baa    -0.0537    -7.207    -2.572    -2.404  0.2263  0.1457  0.9631
    41 C(13)  Bbb     0.0229     3.075     1.097     1.026  0.5887  0.7673 -0.2544
              Bcc     0.0308     4.133     1.475     1.379  0.7760 -0.6245 -0.0879
 
              Baa    -0.0006    -0.074    -0.027    -0.025  0.4679  0.8146 -0.3427
    42 C(13)  Bbb    -0.0004    -0.052    -0.019    -0.017 -0.3046  0.5127  0.8028
              Bcc     0.0009     0.126     0.045     0.042  0.8296 -0.2712  0.4880
 
              Baa    -0.0003    -0.035    -0.013    -0.012  0.3822  0.9183  0.1032
    43 C(13)  Bbb    -0.0002    -0.032    -0.012    -0.011 -0.1874 -0.0323  0.9818
              Bcc     0.0005     0.068     0.024     0.023  0.9049 -0.3946  0.1598
 
              Baa    -0.0001    -0.011    -0.004    -0.004 -0.2247 -0.2944  0.9289
    44 C(13)  Bbb    -0.0001    -0.011    -0.004    -0.004  0.4855  0.7927  0.3687
              Bcc     0.0002     0.023     0.008     0.008  0.8449 -0.5338  0.0352
 
              Baa    -0.0001    -0.012    -0.004    -0.004 -0.0018  0.0594  0.9982
    45 C(13)  Bbb    -0.0001    -0.012    -0.004    -0.004  0.6377  0.7690 -0.0446
              Bcc     0.0002     0.024     0.009     0.008  0.7702 -0.6365  0.0393
 
              Baa    -0.0001    -0.017    -0.006    -0.006  0.0883  0.1603  0.9831
    46 C(13)  Bbb    -0.0001    -0.016    -0.006    -0.005  0.7008  0.6914 -0.1757
              Bcc     0.0003     0.034     0.012     0.011  0.7079 -0.7045  0.0513
 
              Baa    -0.0001    -0.009    -0.003    -0.003  0.2621  0.3385  0.9037
    47 C(13)  Bbb    -0.0001    -0.009    -0.003    -0.003  0.6102  0.6674 -0.4269
              Bcc     0.0001     0.017     0.006     0.006  0.7476 -0.6634  0.0317
 
              Baa    -0.0001    -0.007    -0.003    -0.002  0.1020  0.1795  0.9785
    48 C(13)  Bbb    -0.0001    -0.007    -0.002    -0.002  0.5911  0.7802 -0.2047
              Bcc     0.0001     0.014     0.005     0.005  0.8001 -0.5992  0.0265
 
              Baa    -0.0000    -0.005    -0.002    -0.002  0.1859  0.2777  0.9425
    49 C(13)  Bbb    -0.0000    -0.005    -0.002    -0.002  0.5752  0.7469 -0.3335
              Bcc     0.0001     0.010     0.004     0.003  0.7966 -0.6042  0.0209
 
              Baa    -0.0001    -0.002    -0.001    -0.001  0.5050  0.8338  0.2232
    50 N(14)  Bbb    -0.0001    -0.002    -0.001    -0.001 -0.1411 -0.1754  0.9743
              Bcc     0.0001     0.005     0.002     0.002  0.8515 -0.5235  0.0291
 
              Baa    -0.0000    -0.008    -0.003    -0.003  0.2723  0.6072  0.7464
    51 B(11)  Bbb    -0.0000    -0.008    -0.003    -0.003 -0.3436 -0.6633  0.6649
              Bcc     0.0001     0.017     0.006     0.006  0.8988 -0.4375  0.0281
 
              Baa    -0.0000    -0.021    -0.007    -0.007  0.4210  0.7412 -0.5228
    52 F(19)  Bbb    -0.0000    -0.021    -0.007    -0.007  0.1453  0.5139  0.8455
              Bcc     0.0001     0.042     0.015     0.014  0.8954 -0.4319  0.1087
 
              Baa    -0.0000    -0.020    -0.007    -0.007  0.1877  0.2865  0.9395
    53 F(19)  Bbb    -0.0000    -0.020    -0.007    -0.007  0.4014  0.8506 -0.3396
              Bcc     0.0001     0.041     0.014     0.014  0.8965 -0.4409 -0.0447
 
              Baa    -0.0002    -0.082    -0.029    -0.027  0.0685  0.1027  0.9923
    54 H(1)   Bbb    -0.0001    -0.079    -0.028    -0.026  0.1168  0.9870 -0.1103
              Bcc     0.0003     0.160     0.057     0.054  0.9908 -0.1235 -0.0556
 
              Baa    -0.0001    -0.078    -0.028    -0.026 -0.1661 -0.2591  0.9515
    55 H(1)   Bbb    -0.0001    -0.074    -0.026    -0.025  0.0815  0.9580  0.2751
              Bcc     0.0003     0.152     0.054     0.051  0.9827 -0.1232  0.1380
 
              Baa    -0.0001    -0.058    -0.021    -0.019 -0.0330 -0.1208  0.9921
    56 H(1)   Bbb    -0.0001    -0.055    -0.020    -0.018  0.0250  0.9923  0.1216
              Bcc     0.0002     0.113     0.040     0.038  0.9991 -0.0288  0.0298
 
              Baa    -0.0001    -0.031    -0.011    -0.010 -0.0188 -0.0958  0.9952
    57 H(1)   Bbb    -0.0001    -0.031    -0.011    -0.010  0.1013  0.9901  0.0972
              Bcc     0.0001     0.062     0.022     0.021  0.9947 -0.1026  0.0089
 
              Baa    -0.0000    -0.018    -0.007    -0.006  0.0614  0.1650  0.9844
    58 H(1)   Bbb    -0.0000    -0.018    -0.007    -0.006  0.3082  0.9349 -0.1760
              Bcc     0.0001     0.037     0.013     0.012  0.9493 -0.3142 -0.0066
 
              Baa    -0.0000    -0.019    -0.007    -0.006 -0.0281 -0.1181  0.9926
    59 H(1)   Bbb    -0.0000    -0.019    -0.007    -0.006  0.1242  0.9849  0.1207
              Bcc     0.0001     0.039     0.014     0.013  0.9919 -0.1267  0.0130
 
              Baa    -0.0000    -0.007    -0.003    -0.002  0.0045 -0.0971  0.9953
    60 H(1)   Bbb    -0.0000    -0.007    -0.003    -0.002 -0.0468  0.9942  0.0972
              Bcc     0.0000     0.015     0.005     0.005  0.9989  0.0470  0.0001
 
              Baa    -0.0000    -0.008    -0.003    -0.003 -0.0094 -0.0725  0.9973
    61 H(1)   Bbb    -0.0000    -0.008    -0.003    -0.003 -0.1552  0.9854  0.0702
              Bcc     0.0000     0.016     0.006     0.005  0.9878  0.1541  0.0206
 
              Baa    -0.0000    -0.010    -0.004    -0.003 -0.0190 -0.1026  0.9945
    62 H(1)   Bbb    -0.0000    -0.010    -0.004    -0.003 -0.2377  0.9667  0.0952
              Bcc     0.0000     0.021     0.007     0.007  0.9712  0.2346  0.0428
 
              Baa    -0.0000    -0.016    -0.006    -0.005 -0.0232 -0.1549  0.9877
    63 H(1)   Bbb    -0.0000    -0.015    -0.006    -0.005 -0.0855  0.9846  0.1524
              Bcc     0.0001     0.031     0.011     0.010  0.9961  0.0809  0.0360
 
              Baa    -0.0000    -0.008    -0.003    -0.003  0.0233  0.1006  0.9947
    64 H(1)   Bbb    -0.0000    -0.008    -0.003    -0.003  0.0656  0.9926 -0.1019
              Bcc     0.0000     0.015     0.005     0.005  0.9976 -0.0676 -0.0165
 
              Baa    -0.0000    -0.009    -0.003    -0.003  0.0772 -0.0328  0.9965
    65 H(1)   Bbb    -0.0000    -0.009    -0.003    -0.003  0.1939  0.9809  0.0173
              Bcc     0.0000     0.017     0.006     0.006  0.9780 -0.1919 -0.0821
 
              Baa    -0.0000    -0.008    -0.003    -0.003  0.0064 -0.0491  0.9988
    66 H(1)   Bbb    -0.0000    -0.008    -0.003    -0.003  0.1802  0.9825  0.0471
              Bcc     0.0000     0.015     0.005     0.005  0.9836 -0.1797 -0.0151
 
              Baa    -0.0000    -0.009    -0.003    -0.003  0.0106  0.0034  0.9999
    67 H(1)   Bbb    -0.0000    -0.009    -0.003    -0.003  0.2854  0.9584 -0.0063
              Bcc     0.0000     0.017     0.006     0.006  0.9583 -0.2855 -0.0092
 
              Baa    -0.0000    -0.009    -0.003    -0.003 -0.0715 -0.0431  0.9965
    68 H(1)   Bbb    -0.0000    -0.009    -0.003    -0.003  0.2352  0.9702  0.0589
              Bcc     0.0000     0.019     0.007     0.006  0.9693 -0.2386  0.0592
 
              Baa    -0.0000    -0.012    -0.004    -0.004  0.1065  0.1168  0.9874
    69 H(1)   Bbb    -0.0000    -0.012    -0.004    -0.004  0.2610  0.9550 -0.1411
              Bcc     0.0000     0.024     0.009     0.008  0.9594 -0.2728 -0.0712
 
              Baa    -0.0000    -0.013    -0.005    -0.004 -0.0352 -0.0471  0.9983
    70 H(1)   Bbb    -0.0000    -0.013    -0.005    -0.004  0.2975  0.9531  0.0554
              Bcc     0.0000     0.026     0.009     0.009  0.9541 -0.2990  0.0195
 
              Baa    -0.0002    -0.096    -0.034    -0.032  0.4015  0.9029 -0.1538
    71 H(1)   Bbb    -0.0002    -0.092    -0.033    -0.031  0.2485  0.0543  0.9671
              Bcc     0.0004     0.188     0.067     0.063  0.8815 -0.4265 -0.2026
 
              Baa    -0.0006    -0.294    -0.105    -0.098  0.4058  0.9133 -0.0344
    72 H(1)   Bbb    -0.0004    -0.222    -0.079    -0.074  0.2422 -0.0711  0.9676
              Bcc     0.0010     0.516     0.184     0.172  0.8813 -0.4010 -0.2500
 
              Baa    -0.0018    -0.985    -0.351    -0.329 -0.0828  0.8427 -0.5320
    73 H(1)   Bbb    -0.0015    -0.784    -0.280    -0.261  0.3122  0.5289  0.7892
              Bcc     0.0033     1.769     0.631     0.590  0.9464 -0.1008 -0.3069
 
              Baa    -0.0017    -0.913    -0.326    -0.305 -0.4033 -0.6304  0.6633
    74 H(1)   Bbb    -0.0017    -0.886    -0.316    -0.295  0.6293  0.3352  0.7012
              Bcc     0.0034     1.799     0.642     0.600 -0.6643  0.7002  0.2616
 
              Baa    -0.0028    -1.481    -0.529    -0.494  0.2324  0.1693  0.9578
    75 H(1)   Bbb    -0.0012    -0.639    -0.228    -0.213  0.1532  0.9661 -0.2080
              Bcc     0.0040     2.120     0.756     0.707  0.9605 -0.1950 -0.1986
 
              Baa    -0.0047    -2.488    -0.888    -0.830  0.2127  0.1577  0.9643
    76 H(1)   Bbb    -0.0015    -0.777    -0.277    -0.259  0.7502 -0.6587 -0.0578
              Bcc     0.0061     3.265     1.165     1.089  0.6261  0.7357 -0.2584
 
              Baa    -0.0046    -2.465    -0.880    -0.822  0.2090  0.1479  0.9667
    77 H(1)   Bbb    -0.0020    -1.062    -0.379    -0.354  0.9720 -0.1398 -0.1887
              Bcc     0.0066     3.528     1.259     1.177  0.1073  0.9791 -0.1730
 
              Baa    -0.0028    -1.506    -0.538    -0.502  0.2192  0.1341  0.9664
    78 H(1)   Bbb    -0.0012    -0.625    -0.223    -0.208  0.6051  0.7584 -0.2424
              Bcc     0.0040     2.131     0.760     0.711  0.7654 -0.6379 -0.0851
 
              Baa    -0.0004    -0.205    -0.073    -0.068  0.4534  0.8890 -0.0634
    79 H(1)   Bbb    -0.0003    -0.144    -0.051    -0.048 -0.4055  0.2691  0.8736
              Bcc     0.0007     0.349     0.124     0.116  0.7937 -0.3704  0.4825
 
              Baa    -0.0002    -0.084    -0.030    -0.028  0.3918  0.9131  0.1125
    80 H(1)   Bbb    -0.0001    -0.077    -0.027    -0.026 -0.3277  0.0242  0.9445
              Bcc     0.0003     0.161     0.057     0.054  0.8597 -0.4070  0.3087
 
              Baa    -0.0001    -0.060    -0.021    -0.020  0.1567  0.1929  0.9686
    81 H(1)   Bbb    -0.0001    -0.057    -0.020    -0.019  0.7516  0.6129 -0.2437
              Bcc     0.0002     0.117     0.042     0.039 -0.6407  0.7663 -0.0490
 
              Baa    -0.0002    -0.080    -0.029    -0.027  0.1539  0.3636  0.9188
    82 H(1)   Bbb    -0.0001    -0.077    -0.027    -0.026  0.6899  0.6261 -0.3634
              Bcc     0.0003     0.157     0.056     0.052  0.7073 -0.6898  0.1545
 
              Baa    -0.0002    -0.084    -0.030    -0.028 -0.0421 -0.0995  0.9941
    83 H(1)   Bbb    -0.0002    -0.081    -0.029    -0.027  0.7016  0.7055  0.1004
              Bcc     0.0003     0.165     0.059     0.055  0.7114 -0.7017 -0.0401
 
              Baa    -0.0001    -0.032    -0.011    -0.011  0.1748  0.2097  0.9620
    84 H(1)   Bbb    -0.0001    -0.031    -0.011    -0.010  0.6982  0.6625 -0.2713
              Bcc     0.0001     0.063     0.022     0.021 -0.6943  0.7191 -0.0306
 
              Baa    -0.0000    -0.019    -0.007    -0.006  0.2021  0.2689  0.9417
    85 H(1)   Bbb    -0.0000    -0.019    -0.007    -0.006  0.6243  0.7055 -0.3355
              Bcc     0.0001     0.038     0.014     0.013  0.7546 -0.6557  0.0253
 
              Baa    -0.0000    -0.019    -0.007    -0.006  0.1528  0.1467  0.9773
    86 H(1)   Bbb    -0.0000    -0.019    -0.007    -0.006  0.5636  0.7994 -0.2081
              Bcc     0.0001     0.038     0.013     0.013  0.8118 -0.5826 -0.0395
 
              Baa    -0.0000    -0.019    -0.007    -0.006  0.2378  0.4472  0.8623
    87 H(1)   Bbb    -0.0000    -0.019    -0.007    -0.006  0.5269  0.6864 -0.5013
              Bcc     0.0001     0.037     0.013     0.012  0.8160 -0.5736  0.0724
 

 ---------------------------------------------------------------------------------

 No NMR shielding tensors so no spin-rotation constants.
 Leave Link  601 at Sat Oct 25 10:01:10 2025, MaxMem= 30870077440 cpu:             220.0 elap:               3.9
 (Enter /public/software/gauss/g16/l9999.exe)
 1\1\GINC-CU056\SP\UM062X\def2TZVPP\C42H34B1F2N3O5(1-,2)\BAIDING\25-Oct
 -2025\0\\#p M062X/DEF2TZVPP scrf=(solvent=water) em=GD3\\Energy calcul
 ation for BONO_CO_reduced\\-1,2\C,0,-0.621541,1.153817,0.064341\C,0,0.
 397306,0.055629,0.024491\C,0,1.760335,0.258973,-0.068021\C,0,2.411692,
 -1.005361,-0.09303\C,0,3.811431,-1.295452,-0.202329\C,0,4.782994,-0.33
 3554,-0.161865\C,0,6.190207,-0.570929,-0.292432\C,0,7.082956,0.4814,-0
 .26573\O,0,6.566788,1.744929,-0.030918\C,0,7.369182,2.857703,0.026568\
 C,0,8.766285,2.749076,-0.147104\C,0,9.541976,3.919914,-0.070583\C,0,8.
 941987,5.148409,0.169833\C,0,7.548762,5.231965,0.337523\C,0,6.935531,6
 .541635,0.590505\O,0,5.732204,6.730302,0.754354\C,0,6.754885,4.075155,
 0.264112\C,0,9.311398,1.441953,-0.403172\C,0,8.506482,0.346884,-0.4745
 22\C,0,9.030554,-1.028589,-0.802118\C,0,8.20197,-2.114385,-0.112205\C,
 0,6.721374,-1.980206,-0.480867\N,0,1.458453,-1.979161,-0.015015\C,0,0.
 200664,-1.371865,0.06015\C,0,-0.965037,-2.146594,0.131774\C,0,-2.30055
 3,-1.478338,0.190278\C,0,-2.985785,-1.163764,-0.99047\C,0,-4.237086,-0
 .553177,-0.939544\C,0,-4.828141,-0.243845,0.295624\C,0,-6.172509,0.404
 182,0.405561\O,0,-6.643358,0.670245,1.510075\C,0,-6.93729,0.713424,-0.
 878516\C,0,-8.277658,1.368876,-0.666402\C,0,-9.402104,0.61412,-0.28628
 7\C,0,-10.642038,1.204444,-0.084895\C,0,-10.795101,2.598679,-0.261475\
 N,0,-12.038738,3.201804,-0.069998\O,0,-13.06586,2.476873,0.276009\O,0,
 -12.172909,4.487088,-0.246788\C,0,-9.674207,3.37022,-0.640452\C,0,-8.4
 44274,2.753385,-0.834729\C,0,-4.134965,-0.55763,1.476297\C,0,-2.887061
 ,-1.168648,1.426666\C,0,-0.899276,-3.554145,0.138016\C,0,-1.916126,-4.
 56046,0.162679\C,0,-3.407444,-4.412107,0.198256\C,0,-1.24651,-5.784354
 ,0.140519\C,0,0.13594,-5.539817,0.105929\C,0,1.24428,-6.538058,0.08027
 3\N,0,0.344112,-4.200342,0.099565\B,0,1.720027,-3.498735,0.142708\F,0,
 2.363405,-3.759401,1.364515\F,0,2.533756,-3.965296,-0.903774\H,0,-1.30
 9624,1.105324,-0.785083\H,0,-1.231556,1.113619,0.971752\H,0,-0.116368,
 2.122736,0.036958\H,0,2.253133,1.219071,-0.132985\H,0,4.08107,-2.33570
 3,-0.3373\H,0,4.477318,0.699913,-0.030779\H,0,10.61656,3.844654,-0.204
 439\H,0,9.542706,6.051157,0.228876\H,0,7.645528,7.389278,0.627468\H,0,
 5.679809,4.132841,0.393438\H,0,10.382342,1.344296,-0.554222\H,0,8.9742
 26,-1.172219,-1.890601\H,0,10.087954,-1.090872,-0.52862\H,0,8.568978,-
 3.105036,-0.397116\H,0,8.318091,-2.024943,0.974675\H,0,6.56932,-2.2925
 46,-1.523987\H,0,6.131419,-2.670492,0.130734\H,0,-2.538282,-1.399476,-
 1.950616\H,0,-4.74469,-0.32304,-1.869212\H,0,-6.294349,1.343482,-1.504
 773\H,0,-7.046606,-0.233293,-1.423783\H,0,-9.301256,-0.460222,-0.15174
 8\H,0,-11.501958,0.612343,0.201287\H,0,-9.789673,4.43747,-0.780021\H,0
 ,-7.590933,3.359497,-1.129581\H,0,-4.588409,-0.319084,2.432096\H,0,-2.
 36252,-1.409195,2.345927\H,0,-3.873215,-5.401021,0.215694\H,0,-3.74662
 7,-3.862957,1.082081\H,0,-3.789065,-3.874638,-0.675567\H,0,-1.704855,-
 6.764463,0.147865\H,0,0.840382,-7.548756,0.163594\H,0,1.82044,-6.46517
 5,-0.847786\H,0,1.943514,-6.369594,0.905974\\Version=ES64L-G16RevA.03\
 State=2-A\HF=-2386.0823996\S2=0.765942\S2-1=0.\S2A=0.750174\RMSD=6.576
 e-09\Dipole=26.0882508,-6.4498337,-2.0587823\Quadrupole=-301.7546528,1
 29.7680113,171.9866415,178.9666967,8.2413685,-2.944929\PG=C01 [X(C42H3
 4B1F2N3O5)]\\@


 A MATHEMATICIAN IS A MACHINE FOR TURNING COFFEE INTO THEOREMS.
     -- QUOTED BY PAUL ERDOS
 Job cpu time:       2 days  3 hours  9 minutes 19.2 seconds.
 Elapsed time:       0 days  0 hours 48 minutes 31.5 seconds.
 File lengths (MBytes):  RWF=   4793 Int=      0 D2E=      0 Chk=    312 Scr=      1
 Normal termination of Gaussian 16 at Sat Oct 25 10:01:12 2025.
