 Entering Gaussian System, Link 0=g16
 Input=BONO_CHO_reduced_sp.gjf
 Output=BONO_CHO_reduced_sp.log
 Initial command:
 /public/software/gauss/g16/l1.exe "/public/home/baiding/1024_sp/tmp_BONO_CHO_reduced_sp_1526250/Gau-2954996.inp" -scrdir="/public/home/baiding/1024_sp/tmp_BONO_CHO_reduced_sp_1526250/"
 Entering Link 1 = /public/software/gauss/g16/l1.exe PID=   2954997.
  
 Copyright (c) 1988,1990,1992,1993,1995,1998,2003,2009,2016,
            Gaussian, Inc.  All Rights Reserved.
  
 This is part of the Gaussian(R) 16 program.  It is based on
 the Gaussian(R) 09 system (copyright 2009, Gaussian, Inc.),
 the Gaussian(R) 03 system (copyright 2003, Gaussian, Inc.),
 the Gaussian(R) 98 system (copyright 1998, Gaussian, Inc.),
 the Gaussian(R) 94 system (copyright 1995, Gaussian, Inc.),
 the Gaussian 92(TM) system (copyright 1992, Gaussian, Inc.),
 the Gaussian 90(TM) system (copyright 1990, Gaussian, Inc.),
 the Gaussian 88(TM) system (copyright 1988, Gaussian, Inc.),
 the Gaussian 86(TM) system (copyright 1986, Carnegie Mellon
 University), and the Gaussian 82(TM) system (copyright 1983,
 Carnegie Mellon University). Gaussian is a federally registered
 trademark of Gaussian, Inc.
  
 This software contains proprietary and confidential information,
 including trade secrets, belonging to Gaussian, Inc.
  
 This software is provided under written license and may be
 used, copied, transmitted, or stored only in accord with that
 written license.
  
 The following legend is applicable only to US Government
 contracts under FAR:
  
                    RESTRICTED RIGHTS LEGEND
  
 Use, reproduction and disclosure by the US Government is
 subject to restrictions as set forth in subparagraphs (a)
 and (c) of the Commercial Computer Software - Restricted
 Rights clause in FAR 52.227-19.
  
 Gaussian, Inc.
 340 Quinnipiac St., Bldg. 40, Wallingford CT 06492
  
  
 ---------------------------------------------------------------
 Warning -- This program may not be used in any manner that
 competes with the business of Gaussian, Inc. or will provide
 assistance to any competitor of Gaussian, Inc.  The licensee
 of this program is prohibited from giving any competitor of
 Gaussian, Inc. access to this program.  By using this program,
 the user acknowledges that Gaussian, Inc. is engaged in the
 business of creating and licensing software in the field of
 computational chemistry and represents and warrants to the
 licensee that it is not a competitor of Gaussian, Inc. and that
 it will not use this program in any manner prohibited above.
 ---------------------------------------------------------------
  

 Cite this work as:
 Gaussian 16, Revision A.03,
 M. J. Frisch, G. W. Trucks, H. B. Schlegel, G. E. Scuseria, 
 M. A. Robb, J. R. Cheeseman, G. Scalmani, V. Barone, 
 G. A. Petersson, H. Nakatsuji, X. Li, M. Caricato, A. V. Marenich, 
 J. Bloino, B. G. Janesko, R. Gomperts, B. Mennucci, H. P. Hratchian, 
 J. V. Ortiz, A. F. Izmaylov, J. L. Sonnenberg, D. Williams-Young, 
 F. Ding, F. Lipparini, F. Egidi, J. Goings, B. Peng, A. Petrone, 
 T. Henderson, D. Ranasinghe, V. G. Zakrzewski, J. Gao, N. Rega, 
 G. Zheng, W. Liang, M. Hada, M. Ehara, K. Toyota, R. Fukuda, 
 J. Hasegawa, M. Ishida, T. Nakajima, Y. Honda, O. Kitao, H. Nakai, 
 T. Vreven, K. Throssell, J. A. Montgomery, Jr., J. E. Peralta, 
 F. Ogliaro, M. J. Bearpark, J. J. Heyd, E. N. Brothers, K. N. Kudin, 
 V. N. Staroverov, T. A. Keith, R. Kobayashi, J. Normand, 
 K. Raghavachari, A. P. Rendell, J. C. Burant, S. S. Iyengar, 
 J. Tomasi, M. Cossi, J. M. Millam, M. Klene, C. Adamo, R. Cammi, 
 J. W. Ochterski, R. L. Martin, K. Morokuma, O. Farkas, 
 J. B. Foresman, and D. J. Fox, Gaussian, Inc., Wallingford CT, 2016.
 
 ******************************************
 Gaussian 16:  ES64L-G16RevA.03 25-Dec-2016
                25-Oct-2025 
 ******************************************
 %nprocshared=64
 Will use up to   64 processors via shared memory.
 %mem=230GB
 %chk=BONO_CHO_reduced_sp.chk
 ----------------------------------------------
 #p M062X/DEF2TZVPP scrf=(solvent=water) em=GD3
 ----------------------------------------------
 1/38=1,172=1/1;
 2/12=2,17=6,18=5,40=1/2;
 3/5=44,7=202,11=2,25=1,30=1,70=2201,72=1,74=-55,124=31/1,2,3;
 4//1;
 5/5=2,38=5,53=1/2;
 6/7=2,8=2,9=2,10=2,28=1/1;
 99/5=1,9=1/99;
 Leave Link    1 at Sat Oct 25 06:50:16 2025, MaxMem= 30870077440 cpu:              14.3 elap:               0.2
 (Enter /public/software/gauss/g16/l101.exe)
 ---------------------------------------
 Energy calculation for BONO_CHO_reduced
 ---------------------------------------
 Symbolic Z-matrix:
 Charge = -1 Multiplicity = 2
 C                    -6.93249   6.98377  -1.15984 
 O                    -6.27967   5.73488  -0.90143 
 C                    -7.05333   4.65406  -0.5882 
 C                    -6.35201   3.46359  -0.35064 
 C                    -7.06649   2.32014  -0.02766 
 C                    -8.47178   2.31209   0.06855 
 C                    -9.14422   3.5204   -0.17414 
 C                    -8.45606   4.68494  -0.49864 
 C                    -9.11173   1.06773   0.39833 
 C                    -8.38995  -0.06812   0.60578 
 C                    -9.04294  -1.39723   0.90169 
 C                    -8.14359  -2.27056   1.77819 
 C                    -6.77511  -2.4408    1.11712 
 C                    -6.12163  -1.11679   0.73144 
 C                    -4.69235  -1.15179   0.5976 
 C                    -3.79798  -0.1449    0.33301 
 C                    -2.37121  -0.22672   0.20247 
 N                    -1.54989  -1.31242   0.03541 
 C                    -0.22202  -0.85201  -0.03254 
 C                     0.84551  -1.73139  -0.25494 
 C                     2.24704  -1.21261  -0.2762 
 C                     2.97051  -1.08833   0.91719 
 C                     4.2812   -0.61579   0.90322 
 C                     4.89432  -0.25359  -0.30677 
 C                     6.29653   0.2645   -0.376 
 O                     6.78846   0.58051  -1.45808 
 C                     7.09329   0.38353   0.92046 
 C                     8.48113   0.9443    0.74866 
 C                     9.56046   0.11654   0.39297 
 C                     10.84254   0.62225   0.22476 
 C                     11.08531   2.00219   0.41034 
 N                     12.37178   2.5199    0.25312 
 O                     12.58738   3.79326   0.43552 
 O                     13.35628   1.72726  -0.06793 
 C                     10.00951   2.84705   0.7642 
 C                     8.73672   2.31453   0.92604 
 C                     4.16477  -0.38069  -1.50041 
 C                     2.85884  -0.85703  -1.48784 
 C                     0.62422  -3.10653  -0.46835 
 C                     1.51488  -4.19909  -0.70766 
 C                     3.01167  -4.21354  -0.79353 
 C                     0.70585  -5.32749  -0.85535 
 C                    -0.63549  -4.94141  -0.70742 
 C                    -1.85152  -5.80323  -0.77828 
 N                    -0.68228  -3.60519  -0.47525 
 B                    -1.962    -2.79174  -0.18211 
 F                    -2.85975  -2.89792  -1.25399 
 F                    -2.57053  -3.31652   0.97975 
 C                    -0.23403   0.58136   0.10588 
 C                     0.90771   1.55246   0.11157 
 C                    -1.55899   0.94069   0.23045 
 C                    -6.9473   -0.02719   0.52126 
 O                    -6.34372   1.17546   0.2036 
 H                    -7.48735   7.33023  -0.28174 
 H                    -6.13465   7.69107  -1.38805 
 H                    -7.60946   6.90765  -2.01707 
 H                    -5.27038   3.44275  -0.41993 
 H                    -10.22798   3.5381   -0.1064 
 H                    -9.00465   5.60024  -0.68004 
 H                    -10.19562   1.04284   0.47083 
 H                    -10.01885  -1.22708   1.36678 
 H                    -9.23103  -1.92046  -0.04663 
 H                    -8.02169  -1.80023   2.76181 
 H                    -8.60778  -3.24849   1.94034 
 H                    -6.10067  -2.98173   1.78965 
 H                    -6.88204  -3.07235   0.22274 
 H                    -4.27714  -2.13863   0.76706 
 H                    -4.15551   0.87324   0.25462 
 H                     2.50539  -1.36272   1.85854 
 H                     4.81668  -0.53089   1.84185 
 H                     6.5094    1.00103   1.61348 
 H                     7.12833  -0.61711   1.37056 
 H                     9.39037  -0.94818   0.25168 
 H                     11.66717  -0.026    -0.04256 
 H                     10.19261   3.90367   0.911 
 H                     7.91943   2.97631   1.20282 
 H                     4.63519  -0.10231  -2.43701 
 H                     2.30614  -0.95241  -2.41704 
 H                     3.48131  -3.80121   0.10473 
 H                     3.36124  -5.24215  -0.91637 
 H                     3.38222  -3.62974  -1.64231 
 H                     1.04484  -6.3364   -1.05051 
 H                    -2.41986  -5.75708   0.15639 
 H                    -2.52342  -5.47323  -1.57719 
 H                    -1.56585  -6.84007  -0.96538 
 H                     1.6006    1.36777   0.93784 
 H                     1.4926    1.50553  -0.81175 
 H                     0.51922   2.56892   0.2158 
 H                    -1.94221   1.94523   0.35311 
 
 ITRead=  0  0  0  0  0  0  0  0  0  0  0  0  0  0  0  0  0  0  0  0
 ITRead=  0  0  0  0  0  0  0  0  0  0  0  0  0  0  0  0  0  0  0  0
 ITRead=  0  0  0  0  0  0  0  0  0  0  0  0  0  0  0  0  0  0  0  0
 ITRead=  0  0  0  0  0  0  0  0  0  0  0  0  0  0  0  0  0  0  0  0
 ITRead=  0  0  0  0  0  0  0  0  0
 MicOpt= -1 -1 -1 -1 -1 -1 -1 -1 -1 -1 -1 -1 -1 -1 -1 -1 -1 -1 -1 -1
 MicOpt= -1 -1 -1 -1 -1 -1 -1 -1 -1 -1 -1 -1 -1 -1 -1 -1 -1 -1 -1 -1
 MicOpt= -1 -1 -1 -1 -1 -1 -1 -1 -1 -1 -1 -1 -1 -1 -1 -1 -1 -1 -1 -1
 MicOpt= -1 -1 -1 -1 -1 -1 -1 -1 -1 -1 -1 -1 -1 -1 -1 -1 -1 -1 -1 -1
 MicOpt= -1 -1 -1 -1 -1 -1 -1 -1 -1
 NAtoms=     89 NQM=       89 NQMF=       0 NMMI=      0 NMMIF=      0
                NMic=       0 NMicF=      0.
                    Isotopes and Nuclear Properties:
 (Nuclear quadrupole moments (NQMom) in fm**2, nuclear magnetic moments (NMagM)
  in nuclear magnetons)

  Atom         1           2           3           4           5           6           7           8           9          10
 IAtWgt=          12          16          12          12          12          12          12          12          12          12
 AtmWgt=  12.0000000  15.9949146  12.0000000  12.0000000  12.0000000  12.0000000  12.0000000  12.0000000  12.0000000  12.0000000
 NucSpn=           0           0           0           0           0           0           0           0           0           0
 AtZEff=  -0.0000000  -0.0000000  -0.0000000  -0.0000000  -0.0000000  -0.0000000  -0.0000000  -0.0000000  -0.0000000  -0.0000000
 NQMom=    0.0000000   0.0000000   0.0000000   0.0000000   0.0000000   0.0000000   0.0000000   0.0000000   0.0000000   0.0000000
 NMagM=    0.0000000   0.0000000   0.0000000   0.0000000   0.0000000   0.0000000   0.0000000   0.0000000   0.0000000   0.0000000
 AtZNuc=   6.0000000   8.0000000   6.0000000   6.0000000   6.0000000   6.0000000   6.0000000   6.0000000   6.0000000   6.0000000

  Atom        11          12          13          14          15          16          17          18          19          20
 IAtWgt=          12          12          12          12          12          12          12          14          12          12
 AtmWgt=  12.0000000  12.0000000  12.0000000  12.0000000  12.0000000  12.0000000  12.0000000  14.0030740  12.0000000  12.0000000
 NucSpn=           0           0           0           0           0           0           0           2           0           0
 AtZEff=  -0.0000000  -0.0000000  -0.0000000  -0.0000000  -0.0000000  -0.0000000  -0.0000000  -0.0000000  -0.0000000  -0.0000000
 NQMom=    0.0000000   0.0000000   0.0000000   0.0000000   0.0000000   0.0000000   0.0000000   2.0440000   0.0000000   0.0000000
 NMagM=    0.0000000   0.0000000   0.0000000   0.0000000   0.0000000   0.0000000   0.0000000   0.4037610   0.0000000   0.0000000
 AtZNuc=   6.0000000   6.0000000   6.0000000   6.0000000   6.0000000   6.0000000   6.0000000   7.0000000   6.0000000   6.0000000

  Atom        21          22          23          24          25          26          27          28          29          30
 IAtWgt=          12          12          12          12          12          16          12          12          12          12
 AtmWgt=  12.0000000  12.0000000  12.0000000  12.0000000  12.0000000  15.9949146  12.0000000  12.0000000  12.0000000  12.0000000
 NucSpn=           0           0           0           0           0           0           0           0           0           0
 AtZEff=  -0.0000000  -0.0000000  -0.0000000  -0.0000000  -0.0000000  -0.0000000  -0.0000000  -0.0000000  -0.0000000  -0.0000000
 NQMom=    0.0000000   0.0000000   0.0000000   0.0000000   0.0000000   0.0000000   0.0000000   0.0000000   0.0000000   0.0000000
 NMagM=    0.0000000   0.0000000   0.0000000   0.0000000   0.0000000   0.0000000   0.0000000   0.0000000   0.0000000   0.0000000
 AtZNuc=   6.0000000   6.0000000   6.0000000   6.0000000   6.0000000   8.0000000   6.0000000   6.0000000   6.0000000   6.0000000

  Atom        31          32          33          34          35          36          37          38          39          40
 IAtWgt=          12          14          16          16          12          12          12          12          12          12
 AtmWgt=  12.0000000  14.0030740  15.9949146  15.9949146  12.0000000  12.0000000  12.0000000  12.0000000  12.0000000  12.0000000
 NucSpn=           0           2           0           0           0           0           0           0           0           0
 AtZEff=  -0.0000000  -0.0000000  -0.0000000  -0.0000000  -0.0000000  -0.0000000  -0.0000000  -0.0000000  -0.0000000  -0.0000000
 NQMom=    0.0000000   2.0440000   0.0000000   0.0000000   0.0000000   0.0000000   0.0000000   0.0000000   0.0000000   0.0000000
 NMagM=    0.0000000   0.4037610   0.0000000   0.0000000   0.0000000   0.0000000   0.0000000   0.0000000   0.0000000   0.0000000
 AtZNuc=   6.0000000   7.0000000   8.0000000   8.0000000   6.0000000   6.0000000   6.0000000   6.0000000   6.0000000   6.0000000

  Atom        41          42          43          44          45          46          47          48          49          50
 IAtWgt=          12          12          12          12          14          11          19          19          12          12
 AtmWgt=  12.0000000  12.0000000  12.0000000  12.0000000  14.0030740  11.0093053  18.9984033  18.9984033  12.0000000  12.0000000
 NucSpn=           0           0           0           0           2           3           1           1           0           0
 AtZEff=  -0.0000000  -0.0000000  -0.0000000  -0.0000000  -0.0000000  -0.0000000  -0.0000000  -0.0000000  -0.0000000  -0.0000000
 NQMom=    0.0000000   0.0000000   0.0000000   0.0000000   2.0440000   4.0590000   0.0000000   0.0000000   0.0000000   0.0000000
 NMagM=    0.0000000   0.0000000   0.0000000   0.0000000   0.4037610   2.6886370   2.6288670   2.6288670   0.0000000   0.0000000
 AtZNuc=   6.0000000   6.0000000   6.0000000   6.0000000   7.0000000   5.0000000   9.0000000   9.0000000   6.0000000   6.0000000

  Atom        51          52          53          54          55          56          57          58          59          60
 IAtWgt=          12          12          16           1           1           1           1           1           1           1
 AtmWgt=  12.0000000  12.0000000  15.9949146   1.0078250   1.0078250   1.0078250   1.0078250   1.0078250   1.0078250   1.0078250
 NucSpn=           0           0           0           1           1           1           1           1           1           1
 AtZEff=  -0.0000000  -0.0000000  -0.0000000  -0.0000000  -0.0000000  -0.0000000  -0.0000000  -0.0000000  -0.0000000  -0.0000000
 NQMom=    0.0000000   0.0000000   0.0000000   0.0000000   0.0000000   0.0000000   0.0000000   0.0000000   0.0000000   0.0000000
 NMagM=    0.0000000   0.0000000   0.0000000   2.7928460   2.7928460   2.7928460   2.7928460   2.7928460   2.7928460   2.7928460
 AtZNuc=   6.0000000   6.0000000   8.0000000   1.0000000   1.0000000   1.0000000   1.0000000   1.0000000   1.0000000   1.0000000

  Atom        61          62          63          64          65          66          67          68          69          70
 IAtWgt=           1           1           1           1           1           1           1           1           1           1
 AtmWgt=   1.0078250   1.0078250   1.0078250   1.0078250   1.0078250   1.0078250   1.0078250   1.0078250   1.0078250   1.0078250
 NucSpn=           1           1           1           1           1           1           1           1           1           1
 AtZEff=  -0.0000000  -0.0000000  -0.0000000  -0.0000000  -0.0000000  -0.0000000  -0.0000000  -0.0000000  -0.0000000  -0.0000000
 NQMom=    0.0000000   0.0000000   0.0000000   0.0000000   0.0000000   0.0000000   0.0000000   0.0000000   0.0000000   0.0000000
 NMagM=    2.7928460   2.7928460   2.7928460   2.7928460   2.7928460   2.7928460   2.7928460   2.7928460   2.7928460   2.7928460
 AtZNuc=   1.0000000   1.0000000   1.0000000   1.0000000   1.0000000   1.0000000   1.0000000   1.0000000   1.0000000   1.0000000

  Atom        71          72          73          74          75          76          77          78          79          80
 IAtWgt=           1           1           1           1           1           1           1           1           1           1
 AtmWgt=   1.0078250   1.0078250   1.0078250   1.0078250   1.0078250   1.0078250   1.0078250   1.0078250   1.0078250   1.0078250
 NucSpn=           1           1           1           1           1           1           1           1           1           1
 AtZEff=  -0.0000000  -0.0000000  -0.0000000  -0.0000000  -0.0000000  -0.0000000  -0.0000000  -0.0000000  -0.0000000  -0.0000000
 NQMom=    0.0000000   0.0000000   0.0000000   0.0000000   0.0000000   0.0000000   0.0000000   0.0000000   0.0000000   0.0000000
 NMagM=    2.7928460   2.7928460   2.7928460   2.7928460   2.7928460   2.7928460   2.7928460   2.7928460   2.7928460   2.7928460
 AtZNuc=   1.0000000   1.0000000   1.0000000   1.0000000   1.0000000   1.0000000   1.0000000   1.0000000   1.0000000   1.0000000

  Atom        81          82          83          84          85          86          87          88          89
 IAtWgt=           1           1           1           1           1           1           1           1           1
 AtmWgt=   1.0078250   1.0078250   1.0078250   1.0078250   1.0078250   1.0078250   1.0078250   1.0078250   1.0078250
 NucSpn=           1           1           1           1           1           1           1           1           1
 AtZEff=  -0.0000000  -0.0000000  -0.0000000  -0.0000000  -0.0000000  -0.0000000  -0.0000000  -0.0000000  -0.0000000
 NQMom=    0.0000000   0.0000000   0.0000000   0.0000000   0.0000000   0.0000000   0.0000000   0.0000000   0.0000000
 NMagM=    2.7928460   2.7928460   2.7928460   2.7928460   2.7928460   2.7928460   2.7928460   2.7928460   2.7928460
 AtZNuc=   1.0000000   1.0000000   1.0000000   1.0000000   1.0000000   1.0000000   1.0000000   1.0000000   1.0000000
 Leave Link  101 at Sat Oct 25 06:50:16 2025, MaxMem= 30870077440 cpu:               4.3 elap:               0.1
 (Enter /public/software/gauss/g16/l202.exe)
 Stoichiometry    C42H36BF2N3O5(1-,2)
 Framework group  C1[X(C42H36BF2N3O5)]
 Deg. of freedom   261
 Full point group                 C1      NOp   1
 Largest Abelian subgroup         C1      NOp   1
 Largest concise Abelian subgroup C1      NOp   1
                         Standard orientation:                         
 ---------------------------------------------------------------------
 Center     Atomic      Atomic             Coordinates (Angstroms)
 Number     Number       Type             X           Y           Z
 ---------------------------------------------------------------------
      1          6           0        6.932490    6.983769    1.159836
      2          8           0        6.279671    5.734879    0.901431
      3          6           0        7.053325    4.654059    0.588198
      4          6           0        6.352013    3.463592    0.350637
      5          6           0        7.066489    2.320140    0.027659
      6          6           0        8.471776    2.312089   -0.068549
      7          6           0        9.144217    3.520402    0.174144
      8          6           0        8.456055    4.684935    0.498640
      9          6           0        9.111731    1.067726   -0.398325
     10          6           0        8.389953   -0.068124   -0.605780
     11          6           0        9.042942   -1.397226   -0.901694
     12          6           0        8.143594   -2.270564   -1.778186
     13          6           0        6.775111   -2.440803   -1.117123
     14          6           0        6.121626   -1.116795   -0.731442
     15          6           0        4.692345   -1.151793   -0.597595
     16          6           0        3.797981   -0.144904   -0.333012
     17          6           0        2.371210   -0.226716   -0.202467
     18          7           0        1.549887   -1.312421   -0.035409
     19          6           0        0.222024   -0.852007    0.032536
     20          6           0       -0.845514   -1.731393    0.254935
     21          6           0       -2.247036   -1.212608    0.276203
     22          6           0       -2.970509   -1.088328   -0.917189
     23          6           0       -4.281196   -0.615793   -0.903220
     24          6           0       -4.894316   -0.253593    0.306766
     25          6           0       -6.296529    0.264495    0.375998
     26          8           0       -6.788460    0.580506    1.458078
     27          6           0       -7.093289    0.383529   -0.920462
     28          6           0       -8.481132    0.944300   -0.748659
     29          6           0       -9.560461    0.116539   -0.392968
     30          6           0      -10.842543    0.622252   -0.224762
     31          6           0      -11.085315    2.002187   -0.410337
     32          7           0      -12.371780    2.519903   -0.253120
     33          8           0      -12.587381    3.793255   -0.435522
     34          8           0      -13.356282    1.727257    0.067928
     35          6           0      -10.009512    2.847048   -0.764195
     36          6           0       -8.736717    2.314531   -0.926042
     37          6           0       -4.164775   -0.380686    1.500408
     38          6           0       -2.858836   -0.857027    1.487841
     39          6           0       -0.624216   -3.106533    0.468349
     40          6           0       -1.514884   -4.199092    0.707660
     41          6           0       -3.011672   -4.213536    0.793533
     42          6           0       -0.705846   -5.327495    0.855347
     43          6           0        0.635492   -4.941406    0.707420
     44          6           0        1.851522   -5.803227    0.778283
     45          7           0        0.682280   -3.605188    0.475251
     46          5           0        1.961995   -2.791738    0.182109
     47          9           0        2.859747   -2.897921    1.253985
     48          9           0        2.570527   -3.316515   -0.979754
     49          6           0        0.234027    0.581363   -0.105875
     50          6           0       -0.907706    1.552462   -0.111570
     51          6           0        1.558990    0.940685   -0.230448
     52          6           0        6.947303   -0.027190   -0.521260
     53          8           0        6.343723    1.175462   -0.203595
     54          1           0        7.487345    7.330231    0.281742
     55          1           0        6.134648    7.691072    1.388051
     56          1           0        7.609457    6.907649    2.017071
     57          1           0        5.270378    3.442747    0.419932
     58          1           0       10.227983    3.538104    0.106398
     59          1           0        9.004647    5.600243    0.680043
     60          1           0       10.195619    1.042837   -0.470834
     61          1           0       10.018853   -1.227078   -1.366777
     62          1           0        9.231033   -1.920458    0.046630
     63          1           0        8.021692   -1.800225   -2.761814
     64          1           0        8.607778   -3.248488   -1.940341
     65          1           0        6.100671   -2.981728   -1.789647
     66          1           0        6.882039   -3.072352   -0.222741
     67          1           0        4.277140   -2.138632   -0.767056
     68          1           0        4.155514    0.873237   -0.254619
     69          1           0       -2.505388   -1.362719   -1.858535
     70          1           0       -4.816676   -0.530887   -1.841845
     71          1           0       -6.509397    1.001030   -1.613481
     72          1           0       -7.128334   -0.617109   -1.370556
     73          1           0       -9.390369   -0.948176   -0.251679
     74          1           0      -11.667174   -0.025995    0.042555
     75          1           0      -10.192606    3.903673   -0.911000
     76          1           0       -7.919433    2.976310   -1.202819
     77          1           0       -4.635192   -0.102306    2.437010
     78          1           0       -2.306139   -0.952412    2.417041
     79          1           0       -3.481311   -3.801210   -0.104730
     80          1           0       -3.361244   -5.242152    0.916374
     81          1           0       -3.382219   -3.629740    1.642306
     82          1           0       -1.044838   -6.336404    1.050511
     83          1           0        2.419861   -5.757075   -0.156387
     84          1           0        2.523420   -5.473232    1.577191
     85          1           0        1.565852   -6.840068    0.965375
     86          1           0       -1.600599    1.367768   -0.937843
     87          1           0       -1.492598    1.505526    0.811752
     88          1           0       -0.519220    2.568918   -0.215799
     89          1           0        1.942210    1.945225   -0.353108
 ---------------------------------------------------------------------
 Rotational constants (GHZ):           0.0815605           0.0158892           0.0136056
 Leave Link  202 at Sat Oct 25 06:50:16 2025, MaxMem= 30870077440 cpu:               0.2 elap:               0.0
 (Enter /public/software/gauss/g16/l301.exe)
 Standard basis: def2TZVPP (5D, 7F)
 Ernie: Thresh=  0.10000D-02 Tol=  0.10000D-05 Strict=F.
 There are  2448 symmetry adapted cartesian basis functions of A   symmetry.
 There are  2147 symmetry adapted basis functions of A   symmetry.
  2147 basis functions,  3315 primitive gaussians,  2448 cartesian basis functions
   187 alpha electrons      186 beta electrons
       nuclear repulsion energy      6220.3794276104 Hartrees.
 IExCor= 4336 DFT=T Ex+Corr=M062X ExCW=0 ScaHFX=  0.540000
 ScaDFX=  1.000000  1.000000  1.000000  1.000000 ScalE2=  1.000000  1.000000
 IRadAn=      5 IRanWt=     -1 IRanGd=            0 ICorTp=0 IEmpDi=131
 NAtoms=   89 NActive=   89 NUniq=   89 SFac= 1.00D+00 NAtFMM=   60 NAOKFM=T Big=T
 Integral buffers will be    131072 words long.
 Raffenetti 2 integral format.
 Two-electron integral symmetry is turned on.
 R6Disp:  Grimme-D3 Dispersion energy=       -0.0074011434 Hartrees.
 Nuclear repulsion after empirical dispersion term =     6220.3720264670 Hartrees.
 ------------------------------------------------------------------------------
 Polarizable Continuum Model (PCM)
 =================================
 Model                : PCM.
 Atomic radii         : UFF (Universal Force Field).
 Polarization charges : Total charges.
 Charge compensation  : None.
 Solution method      : On-the-fly selection.
 Cavity type          : Scaled VdW (van der Waals Surface) (Alpha=1.100).
 Cavity algorithm     : GePol (No added spheres)
                        Default sphere list used, NSphG=   89.
                        Lebedev-Laikov grids with approx.  5.0 points / Ang**2.
                        Smoothing algorithm: York/Karplus (Gamma=1.0000).
                        Polarization charges: spherical gaussians, with
                                              point-specific exponents (IZeta= 3).
                        Self-potential: point-specific (ISelfS= 7).
                        Self-field    : sphere-specific E.n sum rule (ISelfD= 2).
 Solvent              : Water, Eps=  78.355300 Eps(inf)=   1.777849
 ------------------------------------------------------------------------------
 GePol: Number of generator spheres                  =      89
 GePol: Total number of spheres                      =      89
 GePol: Number of exposed spheres                    =      89 (100.00%)
 GePol: Number of points                             =    6354
 GePol: Average weight of points                     =       0.13
 GePol: Minimum weight of points                     =   0.14D-10
 GePol: Maximum weight of points                     =    0.20577
 GePol: Number of points with low weight             =     437
 GePol: Fraction of low-weight points (<1% of avg)   =       6.88%
 GePol: Cavity surface area                          =    799.008 Ang**2
 GePol: Cavity volume                                =    929.094 Ang**3
 Leave Link  301 at Sat Oct 25 06:50:16 2025, MaxMem= 30870077440 cpu:               3.7 elap:               0.1
 (Enter /public/software/gauss/g16/l302.exe)
 NPDir=0 NMtPBC=     1 NCelOv=     1 NCel=       1 NClECP=     1 NCelD=      1
         NCelK=      1 NCelE2=     1 NClLst=     1 CellRange=     0.0.
 One-electron integrals computed using PRISM.
 One-electron integral symmetry used in STVInt
   1 Symmetry operations used in ECPInt.
 ECPInt:  NShTT=  319600 NPrTT=  910500 LenC2=  173960 LenP2D=  332516.
 LDataN:  DoStor=T MaxTD1= 6 Len=  172
 NBasis=  2147 RedAO= T EigKep=  3.65D-06  NBF=  2147
 NBsUse=  2147 1.00D-06 EigRej= -1.00D+00 NBFU=  2147
 Precomputing XC quadrature grid using
 IXCGrd= 4 IRadAn=           5 IRanWt=          -1 IRanGd=           0 AccXCQ= 0.00D+00.
 Generated NRdTot=       0 NPtTot=           0 NUsed=           0 NTot=          32
 NSgBfM=  2051  2016  2032  2048  2051 MxSgAt=    89 MxSgA2=    89.
 Leave Link  302 at Sat Oct 25 06:50:29 2025, MaxMem= 30870077440 cpu:             847.1 elap:              13.3
 (Enter /public/software/gauss/g16/l303.exe)
 DipDrv:  MaxL=1.
 Leave Link  303 at Sat Oct 25 06:50:30 2025, MaxMem= 30870077440 cpu:              34.5 elap:               0.6
 (Enter /public/software/gauss/g16/l401.exe)
 ExpMin= 6.06D-02 ExpMax= 3.55D+04 ExpMxC= 1.21D+03 IAcc=3 IRadAn=         5 AccDes= 0.00D+00
 Harris functional with IExCor= 1009 and IRadAn=       5 diagonalized for initial guess.
 HarFok:  IExCor= 1009 AccDes= 0.00D+00 IRadAn=         5 IDoV= 1 UseB2=F ITyADJ=14
 ICtDFT=  3500011 ScaDFX=  1.000000  1.000000  1.000000  1.000000
 FoFCou: FMM=F IPFlag=           0 FMFlag=      100000 FMFlg1=        2001
         NFxFlg=           0 DoJE=T BraDBF=F KetDBF=T FulRan=T
         wScrn=  0.000000 ICntrl=       500 IOpCl=  0 I1Cent=   200000004 NGrid=           0
         NMat0=    1 NMatS0=      1 NMatT0=    0 NMatD0=    1 NMtDS0=    0 NMtDT0=    0
 Petite list used in FoFCou.
 Harris En= -2386.17384935517    
 JPrj=0 DoOrth=F DoCkMO=F.
 Initial guess <Sx>= 0.0000 <Sy>= 0.0000 <Sz>= 0.5000 <S**2>= 0.7500 S= 0.5000
 Leave Link  401 at Sat Oct 25 06:50:44 2025, MaxMem= 30870077440 cpu:             889.3 elap:              14.0
 (Enter /public/software/gauss/g16/l502.exe)
 Integral symmetry usage will be decided dynamically.
 UHF open shell SCF:
 Using DIIS extrapolation, IDIIS=  1040.
 NGot= 30870077440 LenX= 30857914795 LenY= 30851919643
 Requested convergence on RMS density matrix=1.00D-08 within 128 cycles.
 Requested convergence on MAX density matrix=1.00D-06.
 Requested convergence on             energy=1.00D-06.
 No special actions if energy rises.
 Fock matrices will be formed incrementally for  20 cycles.

 Cycle   1  Pass 1  IDiag  1:
 FoFJK:  IHMeth= 1 ICntrl=       0 DoSepK=F KAlg= 0 I1Cent=           0 FoldK=F
 IRaf= 510000000 NMat=       1 IRICut=       1 DoRegI=T DoRafI=F ISym2E= 0 IDoP0=0 IntGTp=1.
 FoFCou: FMM=T IPFlag=           0 FMFlag=      100000 FMFlg1=        2001
         NFxFlg=           0 DoJE=F BraDBF=F KetDBF=F FulRan=T
         wScrn=  0.000000 ICntrl=         0 IOpCl=  1 I1Cent=           0 NGrid=           0
         NMat0=    1 NMatS0=      1 NMatT0=    0 NMatD0=    1 NMtDS0=    0 NMtDT0=    0
 Symmetry not used in FoFCou.
 FMM levels:  10  Number of levels for PrismC:   9
 Inv3:  Mode=1 IEnd=   121119948.
 Iteration    1 A*A^-1 deviation from unit magnitude is 1.78D-14 for   6344.
 Iteration    1 A*A^-1 deviation from orthogonality  is 3.61D-15 for   2639   2619.
 Iteration    1 A^-1*A deviation from unit magnitude is 1.78D-14 for   6344.
 Iteration    1 A^-1*A deviation from orthogonality  is 1.01D-14 for   4260   4210.
 E= -2385.90442819361    
 DIIS: error= 2.68D-02 at cycle   1 NSaved=   1.
 NSaved= 1 IEnMin= 1 EnMin= -2385.90442819361     IErMin= 1 ErrMin= 2.68D-02
 ErrMax= 2.68D-02  0.00D+00 EMaxC= 1.00D-01 BMatC= 6.84D+00 BMatP= 6.84D+00
 IDIUse=3 WtCom= 7.32D-01 WtEn= 2.68D-01
 Coeff-Com:  0.100D+01
 Coeff-En:   0.100D+01
 Coeff:      0.100D+01
 Gap=    -0.027 Goal=   None    Shift=    0.000
 Gap=     0.133 Goal=   None    Shift=    0.000
 GapD=   -0.027 DampG=0.250 DampE=0.500 DampFc=0.2500 IDamp=-1.
 Damping current iteration by 2.50D-01
 RMSDP=1.50D-03 MaxDP=2.77D-01              OVMax= 9.55D-01

 Cycle   2  Pass 1  IDiag  1:
 RMSU=  3.74D-04    CP:  9.91D-01
 E= -2386.34234323112     Delta-E=       -0.437915037512 Rises=F Damp=T
 DIIS: error= 1.38D-02 at cycle   2 NSaved=   2.
 NSaved= 2 IEnMin= 2 EnMin= -2386.34234323112     IErMin= 2 ErrMin= 1.38D-02
 ErrMax= 1.38D-02  0.00D+00 EMaxC= 1.00D-01 BMatC= 2.37D+00 BMatP= 6.84D+00
 IDIUse=3 WtCom= 8.62D-01 WtEn= 1.38D-01
 Coeff-Com: -0.102D+01 0.202D+01
 Coeff-En:   0.000D+00 0.100D+01
 Coeff:     -0.878D+00 0.188D+01
 Gap=    -0.128 Goal=   None    Shift=    0.000
 Gap=    -0.173 Goal=   None    Shift=    0.000
 RMSDP=8.99D-04 MaxDP=1.18D-01 DE=-4.38D-01 OVMax= 9.94D-01

 Cycle   3  Pass 1  IDiag  1:
 RMSU=  7.82D-04    CP:  9.77D-01  2.18D+00
 E= -2387.02059747682     Delta-E=       -0.678254245702 Rises=F Damp=F
 DIIS: error= 2.16D-02 at cycle   3 NSaved=   3.
 NSaved= 3 IEnMin= 3 EnMin= -2387.02059747682     IErMin= 2 ErrMin= 1.38D-02
 ErrMax= 2.16D-02  0.00D+00 EMaxC= 1.00D-01 BMatC= 9.39D-01 BMatP= 2.37D+00
 IDIUse=3 WtCom= 7.84D-01 WtEn= 2.16D-01
 Coeff-Com: -0.643D+00 0.114D+01 0.504D+00
 Coeff-En:   0.000D+00 0.000D+00 0.100D+01
 Coeff:     -0.504D+00 0.893D+00 0.611D+00
 Gap=     0.100 Goal=   None    Shift=    0.000
 Gap=     0.121 Goal=   None    Shift=    0.000
 RMSDP=5.96D-04 MaxDP=1.61D-01 DE=-6.78D-01 OVMax= 9.83D-01

 Cycle   4  Pass 1  IDiag  1:
 RMSU=  4.72D-04    CP:  9.64D-01  2.27D+00  5.42D-01
 E= -2387.18458719318     Delta-E=       -0.163989716359 Rises=F Damp=F
 DIIS: error= 1.59D-02 at cycle   4 NSaved=   4.
 NSaved= 4 IEnMin= 4 EnMin= -2387.18458719318     IErMin= 2 ErrMin= 1.38D-02
 ErrMax= 1.59D-02  0.00D+00 EMaxC= 1.00D-01 BMatC= 3.42D-01 BMatP= 9.39D-01
 IDIUse=3 WtCom= 8.41D-01 WtEn= 1.59D-01
 Coeff-Com: -0.134D+00 0.237D+00 0.378D+00 0.520D+00
 Coeff-En:   0.000D+00 0.000D+00 0.256D+00 0.744D+00
 Coeff:     -0.113D+00 0.200D+00 0.358D+00 0.555D+00
 Gap=     0.016 Goal=   None    Shift=    0.000
 Gap=     0.173 Goal=   None    Shift=    0.000
 RMSDP=1.56D-04 MaxDP=2.77D-02 DE=-1.64D-01 OVMax= 9.05D-02

 Cycle   5  Pass 1  IDiag  1:
 RMSU=  1.33D-04    CP:  9.66D-01  2.28D+00  6.11D-01  8.70D-01
 E= -2387.26098790806     Delta-E=       -0.076400714877 Rises=F Damp=F
 DIIS: error= 4.33D-03 at cycle   5 NSaved=   5.
 NSaved= 5 IEnMin= 5 EnMin= -2387.26098790806     IErMin= 5 ErrMin= 4.33D-03
 ErrMax= 4.33D-03  0.00D+00 EMaxC= 1.00D-01 BMatC= 1.94D-02 BMatP= 3.42D-01
 IDIUse=3 WtCom= 9.57D-01 WtEn= 4.33D-02
 Coeff-Com: -0.135D-01 0.299D-01 0.166D+00 0.174D+00 0.644D+00
 Coeff-En:   0.000D+00 0.000D+00 0.000D+00 0.000D+00 0.100D+01
 Coeff:     -0.129D-01 0.286D-01 0.159D+00 0.167D+00 0.659D+00
 Gap=     0.059 Goal=   None    Shift=    0.000
 Gap=     0.131 Goal=   None    Shift=    0.000
 RMSDP=7.24D-05 MaxDP=1.38D-02 DE=-7.64D-02 OVMax= 2.90D-02

 Cycle   6  Pass 1  IDiag  1:
 RMSU=  6.23D-05    CP:  9.67D-01  2.26D+00  6.41D-01  8.36D-01  1.17D+00
 E= -2387.26519373732     Delta-E=       -0.004205829264 Rises=F Damp=F
 DIIS: error= 2.57D-03 at cycle   6 NSaved=   6.
 NSaved= 6 IEnMin= 6 EnMin= -2387.26519373732     IErMin= 6 ErrMin= 2.57D-03
 ErrMax= 2.57D-03  0.00D+00 EMaxC= 1.00D-01 BMatC= 8.31D-03 BMatP= 1.94D-02
 IDIUse=3 WtCom= 9.74D-01 WtEn= 2.57D-02
 Coeff-Com:  0.139D-01-0.180D-01 0.204D-01-0.892D-01 0.322D+00 0.750D+00
 Coeff-En:   0.000D+00 0.000D+00 0.000D+00 0.000D+00 0.000D+00 0.100D+01
 Coeff:      0.136D-01-0.175D-01 0.199D-01-0.869D-01 0.314D+00 0.757D+00
 Gap=     0.086 Goal=   None    Shift=    0.000
 Gap=     0.131 Goal=   None    Shift=    0.000
 RMSDP=5.05D-05 MaxDP=8.81D-03 DE=-4.21D-03 OVMax= 1.83D-02

 Cycle   7  Pass 1  IDiag  1:
 RMSU=  3.06D-05    CP:  9.67D-01  2.27D+00  6.61D-01  8.02D-01  1.40D+00
                    CP:  1.16D+00
 E= -2387.26774080472     Delta-E=       -0.002547067397 Rises=F Damp=F
 DIIS: error= 6.42D-04 at cycle   7 NSaved=   7.
 NSaved= 7 IEnMin= 7 EnMin= -2387.26774080472     IErMin= 7 ErrMin= 6.42D-04
 ErrMax= 6.42D-04  0.00D+00 EMaxC= 1.00D-01 BMatC= 6.19D-04 BMatP= 8.31D-03
 IDIUse=3 WtCom= 9.94D-01 WtEn= 6.42D-03
 Coeff-Com: -0.140D-02 0.319D-02 0.297D-03-0.361D-01-0.198D-01 0.208D+00
 Coeff-Com:  0.846D+00
 Coeff-En:   0.000D+00 0.000D+00 0.000D+00 0.000D+00 0.000D+00 0.000D+00
 Coeff-En:   0.100D+01
 Coeff:     -0.139D-02 0.317D-02 0.295D-03-0.359D-01-0.197D-01 0.206D+00
 Coeff:      0.847D+00
 Gap=     0.093 Goal=   None    Shift=    0.000
 Gap=     0.131 Goal=   None    Shift=    0.000
 RMSDP=1.89D-05 MaxDP=2.56D-03 DE=-2.55D-03 OVMax= 1.38D-02

 Cycle   8  Pass 1  IDiag  1:
 RMSU=  1.38D-05    CP:  9.68D-01  2.26D+00  6.68D-01  7.97D-01  1.43D+00
                    CP:  1.32D+00  1.15D+00
 E= -2387.26805239000     Delta-E=       -0.000311585285 Rises=F Damp=F
 DIIS: error= 2.19D-04 at cycle   8 NSaved=   8.
 NSaved= 8 IEnMin= 8 EnMin= -2387.26805239000     IErMin= 8 ErrMin= 2.19D-04
 ErrMax= 2.19D-04  0.00D+00 EMaxC= 1.00D-01 BMatC= 1.96D-04 BMatP= 6.19D-04
 IDIUse=3 WtCom= 9.98D-01 WtEn= 2.19D-03
 Coeff-Com: -0.478D-02 0.729D-02-0.936D-03 0.686D-02-0.745D-01-0.781D-01
 Coeff-Com:  0.392D+00 0.753D+00
 Coeff-En:   0.000D+00 0.000D+00 0.000D+00 0.000D+00 0.000D+00 0.000D+00
 Coeff-En:   0.000D+00 0.100D+01
 Coeff:     -0.477D-02 0.727D-02-0.934D-03 0.685D-02-0.743D-01-0.780D-01
 Coeff:      0.391D+00 0.753D+00
 Gap=     0.095 Goal=   None    Shift=    0.000
 Gap=     0.131 Goal=   None    Shift=    0.000
 RMSDP=1.09D-05 MaxDP=2.50D-03 DE=-3.12D-04 OVMax= 7.84D-03

 Cycle   9  Pass 1  IDiag  1:
 RMSU=  6.20D-06    CP:  9.68D-01  2.27D+00  6.70D-01  7.93D-01  1.45D+00
                    CP:  1.35D+00  1.39D+00  1.23D+00
 E= -2387.26817325769     Delta-E=       -0.000120867684 Rises=F Damp=F
 DIIS: error= 1.04D-04 at cycle   9 NSaved=   9.
 NSaved= 9 IEnMin= 9 EnMin= -2387.26817325769     IErMin= 9 ErrMin= 1.04D-04
 ErrMax= 1.04D-04  0.00D+00 EMaxC= 1.00D-01 BMatC= 3.87D-05 BMatP= 1.96D-04
 IDIUse=3 WtCom= 9.99D-01 WtEn= 1.04D-03
 Coeff-Com: -0.122D-02 0.180D-02 0.261D-03 0.862D-02-0.212D-01-0.613D-01
 Coeff-Com: -0.218D-01 0.246D+00 0.849D+00
 Coeff-En:   0.000D+00 0.000D+00 0.000D+00 0.000D+00 0.000D+00 0.000D+00
 Coeff-En:   0.000D+00 0.000D+00 0.100D+01
 Coeff:     -0.122D-02 0.180D-02 0.261D-03 0.861D-02-0.212D-01-0.612D-01
 Coeff:     -0.217D-01 0.246D+00 0.849D+00
 Gap=     0.096 Goal=   None    Shift=    0.000
 Gap=     0.131 Goal=   None    Shift=    0.000
 RMSDP=5.77D-06 MaxDP=8.29D-04 DE=-1.21D-04 OVMax= 5.56D-03

 Cycle  10  Pass 1  IDiag  1:
 RMSU=  3.25D-06    CP:  9.68D-01  2.27D+00  6.70D-01  7.93D-01  1.45D+00
                    CP:  1.38D+00  1.45D+00  1.49D+00  1.33D+00
 E= -2387.26821138074     Delta-E=       -0.000038123058 Rises=F Damp=F
 DIIS: error= 6.16D-05 at cycle  10 NSaved=  10.
 NSaved=10 IEnMin=10 EnMin= -2387.26821138074     IErMin=10 ErrMin= 6.16D-05
 ErrMax= 6.16D-05  0.00D+00 EMaxC= 1.00D-01 BMatC= 1.87D-05 BMatP= 3.87D-05
 IDIUse=1 WtCom= 1.00D+00 WtEn= 0.00D+00
 Coeff-Com:  0.664D-03-0.961D-03 0.765D-03 0.153D-02 0.123D-01-0.644D-02
 Coeff-Com: -0.146D+00-0.139D+00 0.464D+00 0.813D+00
 Coeff:      0.664D-03-0.961D-03 0.765D-03 0.153D-02 0.123D-01-0.644D-02
 Coeff:     -0.146D+00-0.139D+00 0.464D+00 0.813D+00
 Gap=     0.097 Goal=   None    Shift=    0.000
 Gap=     0.130 Goal=   None    Shift=    0.000
 RMSDP=4.51D-06 MaxDP=8.45D-04 DE=-3.81D-05 OVMax= 4.06D-03

 Cycle  11  Pass 1  IDiag  1:
 RMSU=  1.99D-06    CP:  9.68D-01  2.26D+00  6.70D-01  7.92D-01  1.46D+00
                    CP:  1.39D+00  1.50D+00  1.66D+00  1.71D+00  1.39D+00
 E= -2387.26823060368     Delta-E=       -0.000019222940 Rises=F Damp=F
 DIIS: error= 2.34D-05 at cycle  11 NSaved=  11.
 NSaved=11 IEnMin=11 EnMin= -2387.26823060368     IErMin=11 ErrMin= 2.34D-05
 ErrMax= 2.34D-05  0.00D+00 EMaxC= 1.00D-01 BMatC= 3.49D-06 BMatP= 1.87D-05
 IDIUse=1 WtCom= 1.00D+00 WtEn= 0.00D+00
 Coeff-Com:  0.230D-03-0.282D-03 0.970D-04-0.227D-02 0.627D-02 0.108D-01
 Coeff-Com: -0.261D-01-0.887D-01-0.884D-01 0.209D+00 0.979D+00
 Coeff:      0.230D-03-0.282D-03 0.970D-04-0.227D-02 0.627D-02 0.108D-01
 Coeff:     -0.261D-01-0.887D-01-0.884D-01 0.209D+00 0.979D+00
 Gap=     0.097 Goal=   None    Shift=    0.000
 Gap=     0.130 Goal=   None    Shift=    0.000
 RMSDP=2.54D-06 MaxDP=2.92D-04 DE=-1.92D-05 OVMax= 2.39D-03

 Cycle  12  Pass 1  IDiag  1:
 RMSU=  1.07D-06    CP:  9.68D-01  2.26D+00  6.70D-01  7.92D-01  1.46D+00
                    CP:  1.39D+00  1.52D+00  1.73D+00  1.89D+00  1.80D+00
                    CP:  1.40D+00
 E= -2387.26823677477     Delta-E=       -0.000006171091 Rises=F Damp=F
 DIIS: error= 1.30D-05 at cycle  12 NSaved=  12.
 NSaved=12 IEnMin=12 EnMin= -2387.26823677477     IErMin=12 ErrMin= 1.30D-05
 ErrMax= 1.30D-05  0.00D+00 EMaxC= 1.00D-01 BMatC= 1.22D-06 BMatP= 3.49D-06
 IDIUse=1 WtCom= 1.00D+00 WtEn= 0.00D+00
 Coeff-Com: -0.395D-04 0.703D-04 0.816D-04-0.559D-03-0.117D-02 0.448D-02
 Coeff-Com:  0.343D-01 0.121D-01-0.174D+00-0.174D+00 0.354D+00 0.945D+00
 Coeff:     -0.395D-04 0.703D-04 0.816D-04-0.559D-03-0.117D-02 0.448D-02
 Coeff:      0.343D-01 0.121D-01-0.174D+00-0.174D+00 0.354D+00 0.945D+00
 Gap=     0.097 Goal=   None    Shift=    0.000
 Gap=     0.130 Goal=   None    Shift=    0.000
 RMSDP=1.63D-06 MaxDP=2.21D-04 DE=-6.17D-06 OVMax= 1.71D-03

 Cycle  13  Pass 1  IDiag  1:
 RMSU=  5.20D-07    CP:  9.68D-01  2.26D+00  6.70D-01  7.92D-01  1.46D+00
                    CP:  1.40D+00  1.53D+00  1.76D+00  1.97D+00  2.03D+00
                    CP:  1.82D+00  1.64D+00
 E= -2387.26823915050     Delta-E=       -0.000002375729 Rises=F Damp=F
 DIIS: error= 8.04D-06 at cycle  13 NSaved=  13.
 NSaved=13 IEnMin=13 EnMin= -2387.26823915050     IErMin=13 ErrMin= 8.04D-06
 ErrMax= 8.04D-06  0.00D+00 EMaxC= 1.00D-01 BMatC= 4.56D-07 BMatP= 1.22D-06
 IDIUse=1 WtCom= 1.00D+00 WtEn= 0.00D+00
 Coeff-Com: -0.164D-03 0.229D-03-0.117D-04 0.567D-03-0.271D-02-0.158D-02
 Coeff-Com:  0.256D-01 0.350D-01-0.558D-01-0.155D+00-0.156D+00 0.449D+00
 Coeff-Com:  0.862D+00
 Coeff:     -0.164D-03 0.229D-03-0.117D-04 0.567D-03-0.271D-02-0.158D-02
 Coeff:      0.256D-01 0.350D-01-0.558D-01-0.155D+00-0.156D+00 0.449D+00
 Coeff:      0.862D+00
 Gap=     0.097 Goal=   None    Shift=    0.000
 Gap=     0.130 Goal=   None    Shift=    0.000
 RMSDP=1.05D-06 MaxDP=1.40D-04 DE=-2.38D-06 OVMax= 1.08D-03

 Cycle  14  Pass 1  IDiag  1:
 RMSU=  2.97D-07    CP:  9.68D-01  2.26D+00  6.70D-01  7.92D-01  1.46D+00
                    CP:  1.40D+00  1.53D+00  1.78D+00  2.02D+00  2.17D+00
                    CP:  2.03D+00  2.21D+00  1.51D+00
 E= -2387.26824001764     Delta-E=       -0.000000867136 Rises=F Damp=F
 DIIS: error= 4.39D-06 at cycle  14 NSaved=  14.
 NSaved=14 IEnMin=14 EnMin= -2387.26824001764     IErMin=14 ErrMin= 4.39D-06
 ErrMax= 4.39D-06  0.00D+00 EMaxC= 1.00D-01 BMatC= 1.29D-07 BMatP= 4.56D-07
 IDIUse=1 WtCom= 1.00D+00 WtEn= 0.00D+00
 Coeff-Com: -0.627D-04 0.839D-04-0.861D-04 0.284D-03-0.342D-03-0.105D-02
 Coeff-Com: -0.216D-02 0.507D-02 0.295D-01-0.139D-02-0.139D+00-0.111D+00
 Coeff-Com:  0.268D+00 0.953D+00
 Coeff:     -0.627D-04 0.839D-04-0.861D-04 0.284D-03-0.342D-03-0.105D-02
 Coeff:     -0.216D-02 0.507D-02 0.295D-01-0.139D-02-0.139D+00-0.111D+00
 Coeff:      0.268D+00 0.953D+00
 Gap=     0.097 Goal=   None    Shift=    0.000
 Gap=     0.130 Goal=   None    Shift=    0.000
 RMSDP=5.95D-07 MaxDP=7.77D-05 DE=-8.67D-07 OVMax= 5.61D-04

 Cycle  15  Pass 1  IDiag  1:
 RMSU=  1.83D-07    CP:  9.68D-01  2.26D+00  6.70D-01  7.92D-01  1.46D+00
                    CP:  1.40D+00  1.54D+00  1.79D+00  2.04D+00  2.23D+00
                    CP:  2.13D+00  2.51D+00  2.00D+00  1.52D+00
 E= -2387.26824029653     Delta-E=       -0.000000278886 Rises=F Damp=F
 DIIS: error= 2.60D-06 at cycle  15 NSaved=  15.
 NSaved=15 IEnMin=15 EnMin= -2387.26824029653     IErMin=15 ErrMin= 2.60D-06
 ErrMax= 2.60D-06  0.00D+00 EMaxC= 1.00D-01 BMatC= 5.10D-08 BMatP= 1.29D-07
 IDIUse=1 WtCom= 1.00D+00 WtEn= 0.00D+00
 Coeff-Com:  0.457D-05-0.778D-05-0.494D-04-0.743D-04 0.871D-03 0.573D-03
 Coeff-Com: -0.108D-01-0.124D-01 0.325D-01 0.589D-01 0.117D-01-0.226D+00
 Coeff-Com: -0.240D+00 0.378D+00 0.101D+01
 Coeff:      0.457D-05-0.778D-05-0.494D-04-0.743D-04 0.871D-03 0.573D-03
 Coeff:     -0.108D-01-0.124D-01 0.325D-01 0.589D-01 0.117D-01-0.226D+00
 Coeff:     -0.240D+00 0.378D+00 0.101D+01
 Gap=     0.097 Goal=   None    Shift=    0.000
 Gap=     0.130 Goal=   None    Shift=    0.000
 RMSDP=4.53D-07 MaxDP=6.18D-05 DE=-2.79D-07 OVMax= 4.37D-04

 Cycle  16  Pass 1  IDiag  1:
 RMSU=  1.01D-07    CP:  9.68D-01  2.26D+00  6.70D-01  7.92D-01  1.46D+00
                    CP:  1.40D+00  1.54D+00  1.80D+00  2.05D+00  2.27D+00
                    CP:  2.19D+00  2.72D+00  2.38D+00  2.15D+00  1.73D+00
 E= -2387.26824041554     Delta-E=       -0.000000119011 Rises=F Damp=F
 DIIS: error= 1.30D-06 at cycle  16 NSaved=  16.
 NSaved=16 IEnMin=16 EnMin= -2387.26824041554     IErMin=16 ErrMin= 1.30D-06
 ErrMax= 1.30D-06  0.00D+00 EMaxC= 1.00D-01 BMatC= 1.28D-08 BMatP= 5.10D-08
 IDIUse=1 WtCom= 1.00D+00 WtEn= 0.00D+00
 Coeff-Com:  0.654D-05-0.687D-05-0.856D-06-0.864D-04 0.305D-03 0.488D-03
 Coeff-Com: -0.207D-02-0.454D-02-0.568D-03 0.162D-01 0.452D-01-0.308D-01
 Coeff-Com: -0.138D+00-0.180D+00 0.261D+00 0.103D+01
 Coeff:      0.654D-05-0.687D-05-0.856D-06-0.864D-04 0.305D-03 0.488D-03
 Coeff:     -0.207D-02-0.454D-02-0.568D-03 0.162D-01 0.452D-01-0.308D-01
 Coeff:     -0.138D+00-0.180D+00 0.261D+00 0.103D+01
 Gap=     0.097 Goal=   None    Shift=    0.000
 Gap=     0.130 Goal=   None    Shift=    0.000
 RMSDP=2.37D-07 MaxDP=3.52D-05 DE=-1.19D-07 OVMax= 2.37D-04

 Cycle  17  Pass 1  IDiag  1:
 RMSU=  5.78D-08    CP:  9.68D-01  2.26D+00  6.70D-01  7.92D-01  1.46D+00
                    CP:  1.40D+00  1.54D+00  1.80D+00  2.06D+00  2.28D+00
                    CP:  2.22D+00  2.80D+00  2.57D+00  2.50D+00  2.30D+00
                    CP:  1.53D+00
 E= -2387.26824044687     Delta-E=       -0.000000031336 Rises=F Damp=F
 DIIS: error= 9.22D-07 at cycle  17 NSaved=  17.
 NSaved=17 IEnMin=17 EnMin= -2387.26824044687     IErMin=17 ErrMin= 9.22D-07
 ErrMax= 9.22D-07  0.00D+00 EMaxC= 1.00D-01 BMatC= 5.06D-09 BMatP= 1.28D-08
 IDIUse=1 WtCom= 1.00D+00 WtEn= 0.00D+00
 Coeff-Com:  0.890D-05-0.120D-04 0.134D-04-0.144D-04-0.120D-03-0.644D-04
 Coeff-Com:  0.239D-02 0.196D-02-0.106D-01-0.102D-01 0.168D-01 0.562D-01
 Coeff-Com:  0.117D-01-0.212D+00-0.208D+00 0.522D+00 0.830D+00
 Coeff:      0.890D-05-0.120D-04 0.134D-04-0.144D-04-0.120D-03-0.644D-04
 Coeff:      0.239D-02 0.196D-02-0.106D-01-0.102D-01 0.168D-01 0.562D-01
 Coeff:      0.117D-01-0.212D+00-0.208D+00 0.522D+00 0.830D+00
 Gap=     0.097 Goal=   None    Shift=    0.000
 Gap=     0.130 Goal=   None    Shift=    0.000
 RMSDP=1.30D-07 MaxDP=1.92D-05 DE=-3.13D-08 OVMax= 1.51D-04

 Cycle  18  Pass 1  IDiag  1:
 RMSU=  3.47D-08    CP:  9.68D-01  2.26D+00  6.70D-01  7.92D-01  1.46D+00
                    CP:  1.40D+00  1.54D+00  1.80D+00  2.06D+00  2.29D+00
                    CP:  2.24D+00  2.84D+00  2.66D+00  2.67D+00  2.62D+00
                    CP:  1.96D+00  1.66D+00
 E= -2387.26824045697     Delta-E=       -0.000000010097 Rises=F Damp=F
 DIIS: error= 7.23D-07 at cycle  18 NSaved=  18.
 NSaved=18 IEnMin=18 EnMin= -2387.26824045697     IErMin=18 ErrMin= 7.23D-07
 ErrMax= 7.23D-07  0.00D+00 EMaxC= 1.00D-01 BMatC= 1.64D-09 BMatP= 5.06D-09
 IDIUse=1 WtCom= 1.00D+00 WtEn= 0.00D+00
 Coeff-Com:  0.487D-05-0.657D-05 0.986D-05 0.681D-05-0.100D-03-0.216D-03
 Coeff-Com:  0.114D-02 0.178D-02-0.270D-02-0.627D-02-0.809D-02 0.227D-01
 Coeff-Com:  0.405D-01-0.622D-02-0.129D+00-0.127D+00 0.216D+00 0.997D+00
 Coeff:      0.487D-05-0.657D-05 0.986D-05 0.681D-05-0.100D-03-0.216D-03
 Coeff:      0.114D-02 0.178D-02-0.270D-02-0.627D-02-0.809D-02 0.227D-01
 Coeff:      0.405D-01-0.622D-02-0.129D+00-0.127D+00 0.216D+00 0.997D+00
 Gap=     0.097 Goal=   None    Shift=    0.000
 Gap=     0.130 Goal=   None    Shift=    0.000
 RMSDP=7.20D-08 MaxDP=9.76D-06 DE=-1.01D-08 OVMax= 8.75D-05

 Cycle  19  Pass 1  IDiag  1:
 RMSU=  2.12D-08    CP:  9.68D-01  2.26D+00  6.70D-01  7.92D-01  1.46D+00
                    CP:  1.40D+00  1.54D+00  1.80D+00  2.06D+00  2.29D+00
                    CP:  2.24D+00  2.85D+00  2.69D+00  2.73D+00  2.77D+00
                    CP:  2.21D+00  2.37D+00  1.77D+00
 E= -2387.26824046104     Delta-E=       -0.000000004069 Rises=F Damp=F
 DIIS: error= 4.27D-07 at cycle  19 NSaved=  19.
 NSaved=19 IEnMin=19 EnMin= -2387.26824046104     IErMin=19 ErrMin= 4.27D-07
 ErrMax= 4.27D-07  0.00D+00 EMaxC= 1.00D-01 BMatC= 7.83D-10 BMatP= 1.64D-09
 IDIUse=1 WtCom= 1.00D+00 WtEn= 0.00D+00
 Coeff-Com:  0.191D-05-0.239D-05 0.692D-05 0.500D-05-0.498D-06-0.939D-04
 Coeff-Com: -0.310D-03 0.220D-03 0.255D-02 0.859D-03-0.101D-01-0.948D-02
 Coeff-Com:  0.136D-01 0.714D-01 0.720D-02-0.226D+00-0.177D+00 0.397D+00
 Coeff-Com:  0.930D+00
 Coeff:      0.191D-05-0.239D-05 0.692D-05 0.500D-05-0.498D-06-0.939D-04
 Coeff:     -0.310D-03 0.220D-03 0.255D-02 0.859D-03-0.101D-01-0.948D-02
 Coeff:      0.136D-01 0.714D-01 0.720D-02-0.226D+00-0.177D+00 0.397D+00
 Coeff:      0.930D+00
 Gap=     0.097 Goal=   None    Shift=    0.000
 Gap=     0.130 Goal=   None    Shift=    0.000
 RMSDP=5.76D-08 MaxDP=7.27D-06 DE=-4.07D-09 OVMax= 7.02D-05

 Cycle  20  Pass 1  IDiag  1:
 RMSU=  1.32D-08    CP:  9.68D-01  2.26D+00  6.70D-01  7.92D-01  1.46D+00
                    CP:  1.40D+00  1.54D+00  1.80D+00  2.06D+00  2.29D+00
                    CP:  2.24D+00  2.86D+00  2.71D+00  2.76D+00  2.85D+00
                    CP:  2.39D+00  2.96D+00  2.58D+00  1.89D+00
 E= -2387.26824046358     Delta-E=       -0.000000002539 Rises=F Damp=F
 DIIS: error= 2.49D-07 at cycle  20 NSaved=  20.
 NSaved=20 IEnMin=20 EnMin= -2387.26824046358     IErMin=20 ErrMin= 2.49D-07
 ErrMax= 2.49D-07  0.00D+00 EMaxC= 1.00D-01 BMatC= 3.69D-10 BMatP= 7.83D-10
 IDIUse=1 WtCom= 1.00D+00 WtEn= 0.00D+00
 Coeff-Com: -0.607D-06 0.102D-05 0.965D-07-0.465D-05 0.302D-04 0.680D-04
 Coeff-Com: -0.518D-03-0.699D-03 0.133D-02 0.256D-02 0.246D-02-0.902D-02
 Coeff-Com: -0.164D-01 0.751D-02 0.447D-01 0.477D-01-0.895D-01-0.411D+00
 Coeff-Com:  0.702D-01 0.135D+01
 Coeff:     -0.607D-06 0.102D-05 0.965D-07-0.465D-05 0.302D-04 0.680D-04
 Coeff:     -0.518D-03-0.699D-03 0.133D-02 0.256D-02 0.246D-02-0.902D-02
 Coeff:     -0.164D-01 0.751D-02 0.447D-01 0.477D-01-0.895D-01-0.411D+00
 Coeff:      0.702D-01 0.135D+01
 Gap=     0.097 Goal=   None    Shift=    0.000
 Gap=     0.130 Goal=   None    Shift=    0.000
 RMSDP=6.44D-08 MaxDP=1.04D-05 DE=-2.54D-09 OVMax= 7.99D-05

 Cycle  21  Pass 1  IDiag  1:
 Restarting incremental Fock formation.
 E= -2387.26824046573     Delta-E=       -0.000000002148 Rises=F Damp=F
 DIIS: error= 2.08D-07 at cycle  21 NSaved=  20.
 NSaved=20 IEnMin=20 EnMin= -2387.26824046573     IErMin=20 ErrMin= 2.08D-07
 ErrMax= 2.08D-07  0.00D+00 EMaxC= 1.00D-01 BMatC= 2.10D-10 BMatP= 3.69D-10
 IDIUse=1 WtCom= 1.00D+00 WtEn= 0.00D+00
 Coeff-Com: -0.411D-06-0.421D-05-0.524D-05 0.189D-04 0.105D-03-0.508D-05
 Coeff-Com: -0.481D-03-0.123D-02 0.377D-03 0.795D-02 0.308D-02-0.158D-01
 Coeff-Com: -0.459D-01 0.106D-01 0.169D+00 0.878D-01-0.401D+00-0.589D+00
 Coeff-Com:  0.471D+00 0.130D+01
 Coeff:     -0.411D-06-0.421D-05-0.524D-05 0.189D-04 0.105D-03-0.508D-05
 Coeff:     -0.481D-03-0.123D-02 0.377D-03 0.795D-02 0.308D-02-0.158D-01
 Coeff:     -0.459D-01 0.106D-01 0.169D+00 0.878D-01-0.401D+00-0.589D+00
 Coeff:      0.471D+00 0.130D+01
 Gap=     0.097 Goal=   None    Shift=    0.000
 Gap=     0.130 Goal=   None    Shift=    0.000
 RMSDP=7.15D-08 MaxDP=1.22D-05 DE=-2.15D-09 OVMax= 8.86D-05

 Cycle  22  Pass 1  IDiag  1:
 RMSU=  7.15D-08    CP:  1.00D+00
 E= -2387.26824046810     Delta-E=       -0.000000002370 Rises=F Damp=F
 DIIS: error= 1.78D-07 at cycle  22 NSaved=  20.
 NSaved=20 IEnMin=20 EnMin= -2387.26824046810     IErMin=20 ErrMin= 1.78D-07
 ErrMax= 1.78D-07  0.00D+00 EMaxC= 1.00D-01 BMatC= 1.23D-10 BMatP= 2.10D-10
 IDIUse=1 WtCom= 1.00D+00 WtEn= 0.00D+00
 Coeff-Com: -0.212D-05 0.807D-05-0.104D-04-0.808D-05 0.367D-03 0.317D-03
 Coeff-Com: -0.140D-02-0.180D-02 0.121D-02 0.733D-02 0.609D-02-0.240D-01
 Coeff-Com: -0.241D-01 0.263D-01 0.929D-01 0.154D+00-0.290D+00-0.807D+00
 Coeff-Com:  0.587D+00 0.127D+01
 Coeff:     -0.212D-05 0.807D-05-0.104D-04-0.808D-05 0.367D-03 0.317D-03
 Coeff:     -0.140D-02-0.180D-02 0.121D-02 0.733D-02 0.609D-02-0.240D-01
 Coeff:     -0.241D-01 0.263D-01 0.929D-01 0.154D+00-0.290D+00-0.807D+00
 Coeff:      0.587D+00 0.127D+01
 Gap=     0.097 Goal=   None    Shift=    0.000
 Gap=     0.130 Goal=   None    Shift=    0.000
 RMSDP=6.86D-08 MaxDP=1.20D-05 DE=-2.37D-09 OVMax= 8.46D-05

 Cycle  23  Pass 1  IDiag  1:
 RMSU=  9.70D-09    CP:  1.00D+00  1.95D+00
 E= -2387.26824046915     Delta-E=       -0.000000001055 Rises=F Damp=F
 DIIS: error= 1.02D-07 at cycle  23 NSaved=  20.
 NSaved=20 IEnMin=20 EnMin= -2387.26824046915     IErMin=20 ErrMin= 1.02D-07
 ErrMax= 1.02D-07  0.00D+00 EMaxC= 1.00D-01 BMatC= 4.48D-11 BMatP= 1.23D-10
 IDIUse=1 WtCom= 1.00D+00 WtEn= 0.00D+00
 Coeff-Com:  0.321D-05-0.117D-05-0.357D-04 0.955D-04 0.239D-03 0.643D-04
 Coeff-Com: -0.634D-03-0.299D-02 0.110D-02 0.907D-02 0.119D-01-0.111D-01
 Coeff-Com: -0.753D-01-0.130D-01 0.260D+00 0.187D+00-0.480D+00-0.438D+00
 Coeff-Com:  0.350D+00 0.120D+01
 Coeff:      0.321D-05-0.117D-05-0.357D-04 0.955D-04 0.239D-03 0.643D-04
 Coeff:     -0.634D-03-0.299D-02 0.110D-02 0.907D-02 0.119D-01-0.111D-01
 Coeff:     -0.753D-01-0.130D-01 0.260D+00 0.187D+00-0.480D+00-0.438D+00
 Coeff:      0.350D+00 0.120D+01
 Gap=     0.097 Goal=   None    Shift=    0.000
 Gap=     0.130 Goal=   None    Shift=    0.000
 RMSDP=4.17D-08 MaxDP=7.17D-06 DE=-1.06D-09 OVMax= 5.08D-05

 Cycle  24  Pass 1  IDiag  1:
 RMSU=  6.09D-09    CP:  1.00D+00  2.51D+00  2.11D+00
 E= -2387.26824046981     Delta-E=       -0.000000000660 Rises=F Damp=F
 DIIS: error= 4.66D-08 at cycle  24 NSaved=  20.
 NSaved=20 IEnMin=20 EnMin= -2387.26824046981     IErMin=20 ErrMin= 4.66D-08
 ErrMax= 4.66D-08  0.00D+00 EMaxC= 1.00D-01 BMatC= 1.39D-11 BMatP= 4.48D-11
 IDIUse=1 WtCom= 1.00D+00 WtEn= 0.00D+00
 Coeff-Com:  0.249D-06-0.185D-04-0.805D-04 0.153D-04 0.563D-03 0.340D-03
 Coeff-Com: -0.198D-02-0.232D-02 0.202D-02 0.142D-01 0.554D-02-0.444D-01
 Coeff-Com: -0.406D-01 0.626D-01 0.173D+00 0.630D-01-0.376D+00-0.279D+00
 Coeff-Com:  0.525D+00 0.898D+00
 Coeff:      0.249D-06-0.185D-04-0.805D-04 0.153D-04 0.563D-03 0.340D-03
 Coeff:     -0.198D-02-0.232D-02 0.202D-02 0.142D-01 0.554D-02-0.444D-01
 Coeff:     -0.406D-01 0.626D-01 0.173D+00 0.630D-01-0.376D+00-0.279D+00
 Coeff:      0.525D+00 0.898D+00
 Gap=     0.097 Goal=   None    Shift=    0.000
 Gap=     0.130 Goal=   None    Shift=    0.000
 RMSDP=1.76D-08 MaxDP=3.04D-06 DE=-6.60D-10 OVMax= 2.22D-05

 Cycle  25  Pass 1  IDiag  1:
 RMSU=  2.17D-09    CP:  1.00D+00  2.74D+00  2.64D+00  1.45D+00
 E= -2387.26824046925     Delta-E=        0.000000000562 Rises=F Damp=F
 DIIS: error= 2.36D-08 at cycle  25 NSaved=  20.
 NSaved=20 IEnMin=19 EnMin= -2387.26824046981     IErMin=20 ErrMin= 2.36D-08
 ErrMax= 2.36D-08  0.00D+00 EMaxC= 1.00D-01 BMatC= 3.43D-12 BMatP= 1.39D-11
 IDIUse=1 WtCom= 1.00D+00 WtEn= 0.00D+00
 Coeff-Com:  0.281D-05-0.577D-04-0.697D-04 0.175D-03 0.331D-03 0.283D-03
 Coeff-Com: -0.123D-02-0.220D-02 0.889D-03 0.611D-02 0.822D-02-0.970D-02
 Coeff-Com: -0.580D-01-0.710D-02 0.164D+00 0.159D-01-0.189D+00-0.194D+00
 Coeff-Com:  0.263D+00 0.100D+01
 Coeff:      0.281D-05-0.577D-04-0.697D-04 0.175D-03 0.331D-03 0.283D-03
 Coeff:     -0.123D-02-0.220D-02 0.889D-03 0.611D-02 0.822D-02-0.970D-02
 Coeff:     -0.580D-01-0.710D-02 0.164D+00 0.159D-01-0.189D+00-0.194D+00
 Coeff:      0.263D+00 0.100D+01
 Gap=     0.097 Goal=   None    Shift=    0.000
 Gap=     0.130 Goal=   None    Shift=    0.000
 RMSDP=7.27D-09 MaxDP=1.26D-06 DE= 5.62D-10 OVMax= 9.31D-06

 Cycle  26  Pass 1  IDiag  1:
 RMSU=  1.79D-09    CP:  1.00D+00  2.83D+00  2.81D+00  1.53D+00  1.49D+00
 E= -2387.26824046932     Delta-E=       -0.000000000071 Rises=F Damp=F
 DIIS: error= 1.19D-08 at cycle  26 NSaved=  20.
 NSaved=20 IEnMin=18 EnMin= -2387.26824046981     IErMin=20 ErrMin= 1.19D-08
 ErrMax= 1.19D-08  0.00D+00 EMaxC= 1.00D-01 BMatC= 1.29D-12 BMatP= 3.43D-12
 IDIUse=1 WtCom= 1.00D+00 WtEn= 0.00D+00
 Coeff-Com: -0.102D-04-0.220D-04-0.102D-04 0.790D-04 0.354D-03-0.118D-03
 Coeff-Com: -0.914D-03-0.147D-02 0.614D-03 0.773D-02 0.282D-02-0.229D-01
 Coeff-Com: -0.251D-01 0.434D-01 0.670D-01-0.203D-01-0.194D+00-0.104D+00
 Coeff-Com:  0.457D+00 0.790D+00
 Coeff:     -0.102D-04-0.220D-04-0.102D-04 0.790D-04 0.354D-03-0.118D-03
 Coeff:     -0.914D-03-0.147D-02 0.614D-03 0.773D-02 0.282D-02-0.229D-01
 Coeff:     -0.251D-01 0.434D-01 0.670D-01-0.203D-01-0.194D+00-0.104D+00
 Coeff:      0.457D+00 0.790D+00
 Gap=     0.097 Goal=   None    Shift=    0.000
 Gap=     0.130 Goal=   None    Shift=    0.000
 RMSDP=2.49D-09 MaxDP=3.87D-07 DE=-7.09D-11 OVMax= 3.07D-06

 Error on total polarization charges =  0.02813
 SCF Done:  E(UM062X) =  -2387.26824047     A.U. after   26 cycles
            NFock= 26  Conv=0.25D-08     -V/T= 2.0054
 <Sx>= 0.0000 <Sy>= 0.0000 <Sz>= 0.5000 <S**2>= 0.7659 S= 0.5079
 <L.S>= 0.000000000000E+00
 KE= 2.374419658401D+03 PE=-1.803424607659D+04 EE= 7.052186151249D+03
 Annihilation of the first spin contaminant:
 S**2 before annihilation     0.7659,   after     0.7502
 Leave Link  502 at Sat Oct 25 07:42:48 2025, MaxMem= 30870077440 cpu:          197770.4 elap:            3124.2
 (Enter /public/software/gauss/g16/l601.exe)
 Copying SCF densities to generalized density rwf, IOpCl= 1 IROHF=0.

 **********************************************************************

            Population analysis using the SCF density.

 **********************************************************************

 Orbital symmetries:
 Alpha Orbitals:
       Occupied  (A) (A) (A) (A) (A) (A) (A) (A) (A) (A) (A) (A)
                 (A) (A) (A) (A) (A) (A) (A) (A) (A) (A) (A) (A)
                 (A) (A) (A) (A) (A) (A) (A) (A) (A) (A) (A) (A)
                 (A) (A) (A) (A) (A) (A) (A) (A) (A) (A) (A) (A)
                 (A) (A) (A) (A) (A) (A) (A) (A) (A) (A) (A) (A)
                 (A) (A) (A) (A) (A) (A) (A) (A) (A) (A) (A) (A)
                 (A) (A) (A) (A) (A) (A) (A) (A) (A) (A) (A) (A)
                 (A) (A) (A) (A) (A) (A) (A) (A) (A) (A) (A) (A)
                 (A) (A) (A) (A) (A) (A) (A) (A) (A) (A) (A) (A)
                 (A) (A) (A) (A) (A) (A) (A) (A) (A) (A) (A) (A)
                 (A) (A) (A) (A) (A) (A) (A) (A) (A) (A) (A) (A)
                 (A) (A) (A) (A) (A) (A) (A) (A) (A) (A) (A) (A)
                 (A) (A) (A) (A) (A) (A) (A) (A) (A) (A) (A) (A)
                 (A) (A) (A) (A) (A) (A) (A) (A) (A) (A) (A) (A)
                 (A) (A) (A) (A) (A) (A) (A) (A) (A) (A) (A) (A)
                 (A) (A) (A) (A) (A) (A) (A)
       Virtual   (A) (A) (A) (A) (A) (A) (A) (A) (A) (A) (A) (A)
                 (A) (A) (A) (A) (A) (A) (A) (A) (A) (A) (A) (A)
                 (A) (A) (A) (A) (A) (A) (A) (A) (A) (A) (A) (A)
                 (A) (A) (A) (A) (A) (A) (A) (A) (A) (A) (A) (A)
                 (A) (A) (A) (A) (A) (A) (A) (A) (A) (A) (A) (A)
                 (A) (A) (A) (A) (A) (A) (A) (A) (A) (A) (A) (A)
                 (A) (A) (A) (A) (A) (A) (A) (A) (A) (A) (A) (A)
                 (A) (A) (A) (A) (A) (A) (A) (A) (A) (A) (A) (A)
                 (A) (A) (A) (A) (A) (A) (A) (A) (A) (A) (A) (A)
                 (A) (A) (A) (A) (A) (A) (A) (A) (A) (A) (A) (A)
                 (A) (A) (A) (A) (A) (A) (A) (A) (A) (A) (A) (A)
                 (A) (A) (A) (A) (A) (A) (A) (A) (A) (A) (A) (A)
                 (A) (A) (A) (A) (A) (A) (A) (A) (A) (A) (A) (A)
                 (A) (A) (A) (A) (A) (A) (A) (A) (A) (A) (A) (A)
                 (A) (A) (A) (A) (A) (A) (A) (A) (A) (A) (A) (A)
                 (A) (A) (A) (A) (A) (A) (A) (A) (A) (A) (A) (A)
                 (A) (A) (A) (A) (A) (A) (A) (A) (A) (A) (A) (A)
                 (A) (A) (A) (A) (A) (A) (A) (A) (A) (A) (A) (A)
                 (A) (A) (A) (A) (A) (A) (A) (A) (A) (A) (A) (A)
                 (A) (A) (A) (A) (A) (A) (A) (A) (A) (A) (A) (A)
                 (A) (A) (A) (A) (A) (A) (A) (A) (A) (A) (A) (A)
                 (A) (A) (A) (A) (A) (A) (A) (A) (A) (A) (A) (A)
                 (A) (A) (A) (A) (A) (A) (A) (A) (A) (A) (A) (A)
                 (A) (A) (A) (A) (A) (A) (A) (A) (A) (A) (A) (A)
                 (A) (A) (A) (A) (A) (A) (A) (A) (A) (A) (A) (A)
                 (A) (A) (A) (A) (A) (A) (A) (A) (A) (A) (A) (A)
                 (A) (A) (A) (A) (A) (A) (A) (A) (A) (A) (A) (A)
                 (A) (A) (A) (A) (A) (A) (A) (A) (A) (A) (A) (A)
                 (A) (A) (A) (A) (A) (A) (A) (A) (A) (A) (A) (A)
                 (A) (A) (A) (A) (A) (A) (A) (A) (A) (A) (A) (A)
                 (A) (A) (A) (A) (A) (A) (A) (A) (A) (A) (A) (A)
                 (A) (A) (A) (A) (A) (A) (A) (A) (A) (A) (A) (A)
                 (A) (A) (A) (A) (A) (A) (A) (A) (A) (A) (A) (A)
                 (A) (A) (A) (A) (A) (A) (A) (A) (A) (A) (A) (A)
                 (A) (A) (A) (A) (A) (A) (A) (A) (A) (A) (A) (A)
                 (A) (A) (A) (A) (A) (A) (A) (A) (A) (A) (A) (A)
                 (A) (A) (A) (A) (A) (A) (A) (A) (A) (A) (A) (A)
                 (A) (A) (A) (A) (A) (A) (A) (A) (A) (A) (A) (A)
                 (A) (A) (A) (A) (A) (A) (A) (A) (A) (A) (A) (A)
                 (A) (A) (A) (A) (A) (A) (A) (A) (A) (A) (A) (A)
                 (A) (A) (A) (A) (A) (A) (A) (A) (A) (A) (A) (A)
                 (A) (A) (A) (A) (A) (A) (A) (A) (A) (A) (A) (A)
                 (A) (A) (A) (A) (A) (A) (A) (A) (A) (A) (A) (A)
                 (A) (A) (A) (A) (A) (A) (A) (A) (A) (A) (A) (A)
                 (A) (A) (A) (A) (A) (A) (A) (A) (A) (A) (A) (A)
                 (A) (A) (A) (A) (A) (A) (A) (A) (A) (A) (A) (A)
                 (A) (A) (A) (A) (A) (A) (A) (A) (A) (A) (A) (A)
                 (A) (A) (A) (A) (A) (A) (A) (A) (A) (A) (A) (A)
                 (A) (A) (A) (A) (A) (A) (A) (A) (A) (A) (A) (A)
                 (A) (A) (A) (A) (A) (A) (A) (A) (A) (A) (A) (A)
                 (A) (A) (A) (A) (A) (A) (A) (A) (A) (A) (A) (A)
                 (A) (A) (A) (A) (A) (A) (A) (A) (A) (A) (A) (A)
                 (A) (A) (A) (A) (A) (A) (A) (A) (A) (A) (A) (A)
                 (A) (A) (A) (A) (A) (A) (A) (A) (A) (A) (A) (A)
                 (A) (A) (A) (A) (A) (A) (A) (A) (A) (A) (A) (A)
                 (A) (A) (A) (A) (A) (A) (A) (A) (A) (A) (A) (A)
                 (A) (A) (A) (A) (A) (A) (A) (A) (A) (A) (A) (A)
                 (A) (A) (A) (A) (A) (A) (A) (A) (A) (A) (A) (A)
                 (A) (A) (A) (A) (A) (A) (A) (A) (A) (A) (A) (A)
                 (A) (A) (A) (A) (A) (A) (A) (A) (A) (A) (A) (A)
                 (A) (A) (A) (A) (A) (A) (A) (A) (A) (A) (A) (A)
                 (A) (A) (A) (A) (A) (A) (A) (A) (A) (A) (A) (A)
                 (A) (A) (A) (A) (A) (A) (A) (A) (A) (A) (A) (A)
                 (A) (A) (A) (A) (A) (A) (A) (A) (A) (A) (A) (A)
                 (A) (A) (A) (A) (A) (A) (A) (A) (A) (A) (A) (A)
                 (A) (A) (A) (A) (A) (A) (A) (A) (A) (A) (A) (A)
                 (A) (A) (A) (A) (A) (A) (A) (A) (A) (A) (A) (A)
                 (A) (A) (A) (A) (A) (A) (A) (A) (A) (A) (A) (A)
                 (A) (A) (A) (A) (A) (A) (A) (A) (A) (A) (A) (A)
                 (A) (A) (A) (A) (A) (A) (A) (A) (A) (A) (A) (A)
                 (A) (A) (A) (A) (A) (A) (A) (A) (A) (A) (A) (A)
                 (A) (A) (A) (A) (A) (A) (A) (A) (A) (A) (A) (A)
                 (A) (A) (A) (A) (A) (A) (A) (A) (A) (A) (A) (A)
                 (A) (A) (A) (A) (A) (A) (A) (A) (A) (A) (A) (A)
                 (A) (A) (A) (A) (A) (A) (A) (A) (A) (A) (A) (A)
                 (A) (A) (A) (A) (A) (A) (A) (A) (A) (A) (A) (A)
                 (A) (A) (A) (A) (A) (A) (A) (A) (A) (A) (A) (A)
                 (A) (A) (A) (A) (A) (A) (A) (A) (A) (A) (A) (A)
                 (A) (A) (A) (A) (A) (A) (A) (A) (A) (A) (A) (A)
                 (A) (A) (A) (A) (A) (A) (A) (A) (A) (A) (A) (A)
                 (A) (A) (A) (A) (A) (A) (A) (A) (A) (A) (A) (A)
                 (A) (A) (A) (A) (A) (A) (A) (A) (A) (A) (A) (A)
                 (A) (A) (A) (A) (A) (A) (A) (A) (A) (A) (A) (A)
                 (A) (A) (A) (A) (A) (A) (A) (A) (A) (A) (A) (A)
                 (A) (A) (A) (A) (A) (A) (A) (A) (A) (A) (A) (A)
                 (A) (A) (A) (A) (A) (A) (A) (A) (A) (A) (A) (A)
                 (A) (A) (A) (A) (A) (A) (A) (A) (A) (A) (A) (A)
                 (A) (A) (A) (A) (A) (A) (A) (A) (A) (A) (A) (A)
                 (A) (A) (A) (A) (A) (A) (A) (A) (A) (A) (A) (A)
                 (A) (A) (A) (A) (A) (A) (A) (A) (A) (A) (A) (A)
                 (A) (A) (A) (A) (A) (A) (A) (A) (A) (A) (A) (A)
                 (A) (A) (A) (A) (A) (A) (A) (A) (A) (A) (A) (A)
                 (A) (A) (A) (A) (A) (A) (A) (A) (A) (A) (A) (A)
                 (A) (A) (A) (A) (A) (A) (A) (A) (A) (A) (A) (A)
                 (A) (A) (A) (A) (A) (A) (A) (A) (A) (A) (A) (A)
                 (A) (A) (A) (A) (A) (A) (A) (A) (A) (A) (A) (A)
                 (A) (A) (A) (A) (A) (A) (A) (A) (A) (A) (A) (A)
                 (A) (A) (A) (A) (A) (A) (A) (A) (A) (A) (A) (A)
                 (A) (A) (A) (A) (A) (A) (A) (A) (A) (A) (A) (A)
                 (A) (A) (A) (A) (A) (A) (A) (A) (A) (A) (A) (A)
                 (A) (A) (A) (A) (A) (A) (A) (A) (A) (A) (A) (A)
                 (A) (A) (A) (A) (A) (A) (A) (A) (A) (A) (A) (A)
                 (A) (A) (A) (A) (A) (A) (A) (A) (A) (A) (A) (A)
                 (A) (A) (A) (A) (A) (A) (A) (A) (A) (A) (A) (A)
                 (A) (A) (A) (A) (A) (A) (A) (A) (A) (A) (A) (A)
                 (A) (A) (A) (A) (A) (A) (A) (A) (A) (A) (A) (A)
                 (A) (A) (A) (A) (A) (A) (A) (A) (A) (A) (A) (A)
                 (A) (A) (A) (A) (A) (A) (A) (A) (A) (A) (A) (A)
                 (A) (A) (A) (A) (A) (A) (A) (A) (A) (A) (A) (A)
                 (A) (A) (A) (A) (A) (A) (A) (A) (A) (A) (A) (A)
                 (A) (A) (A) (A) (A) (A) (A) (A) (A) (A) (A) (A)
                 (A) (A) (A) (A) (A) (A) (A) (A) (A) (A) (A) (A)
                 (A) (A) (A) (A) (A) (A) (A) (A) (A) (A) (A) (A)
                 (A) (A) (A) (A) (A) (A) (A) (A) (A) (A) (A) (A)
                 (A) (A) (A) (A) (A) (A) (A) (A) (A) (A) (A) (A)
                 (A) (A) (A) (A) (A) (A) (A) (A) (A) (A) (A) (A)
                 (A) (A) (A) (A) (A) (A) (A) (A) (A) (A) (A) (A)
                 (A) (A) (A) (A) (A) (A) (A) (A) (A) (A) (A) (A)
                 (A) (A) (A) (A) (A) (A) (A) (A) (A) (A) (A) (A)
                 (A) (A) (A) (A) (A) (A) (A) (A) (A) (A) (A) (A)
                 (A) (A) (A) (A) (A) (A) (A) (A) (A) (A) (A) (A)
                 (A) (A) (A) (A) (A) (A) (A) (A) (A) (A) (A) (A)
                 (A) (A) (A) (A) (A) (A) (A) (A) (A) (A) (A) (A)
                 (A) (A) (A) (A) (A) (A) (A) (A) (A) (A) (A) (A)
                 (A) (A) (A) (A) (A) (A) (A) (A) (A) (A) (A) (A)
                 (A) (A) (A) (A) (A) (A) (A) (A) (A) (A) (A) (A)
                 (A) (A) (A) (A) (A) (A) (A) (A) (A) (A) (A) (A)
                 (A) (A) (A) (A) (A) (A) (A) (A) (A) (A) (A) (A)
                 (A) (A) (A) (A) (A) (A) (A) (A) (A) (A) (A) (A)
                 (A) (A) (A) (A) (A) (A) (A) (A) (A) (A) (A) (A)
                 (A) (A) (A) (A) (A) (A) (A) (A) (A) (A) (A) (A)
                 (A) (A) (A) (A) (A) (A) (A) (A) (A) (A) (A) (A)
                 (A) (A) (A) (A) (A) (A) (A) (A) (A) (A) (A) (A)
                 (A) (A) (A) (A) (A) (A) (A) (A) (A) (A) (A) (A)
                 (A) (A) (A) (A) (A) (A) (A) (A) (A) (A) (A) (A)
                 (A) (A) (A) (A) (A) (A) (A) (A) (A) (A) (A) (A)
                 (A) (A) (A) (A) (A) (A) (A) (A) (A) (A) (A) (A)
                 (A) (A) (A) (A) (A) (A) (A) (A) (A) (A) (A) (A)
                 (A) (A) (A) (A) (A) (A) (A) (A) (A) (A) (A) (A)
                 (A) (A) (A) (A) (A) (A) (A) (A) (A) (A) (A) (A)
                 (A) (A) (A) (A) (A) (A) (A) (A) (A) (A) (A) (A)
                 (A) (A) (A) (A) (A) (A) (A) (A) (A) (A) (A) (A)
                 (A) (A) (A) (A) (A) (A) (A) (A) (A) (A) (A) (A)
                 (A) (A) (A) (A) (A) (A) (A) (A) (A) (A) (A) (A)
                 (A) (A) (A) (A) (A) (A) (A) (A) (A) (A) (A) (A)
                 (A) (A) (A) (A) (A) (A) (A) (A) (A) (A) (A) (A)
                 (A) (A) (A) (A) (A) (A) (A) (A) (A) (A) (A) (A)
                 (A) (A) (A) (A) (A) (A) (A) (A) (A) (A) (A) (A)
                 (A) (A) (A) (A) (A) (A) (A) (A) (A) (A) (A) (A)
                 (A) (A) (A) (A) (A) (A) (A) (A) (A) (A) (A) (A)
                 (A) (A) (A) (A) (A) (A) (A) (A) (A) (A) (A) (A)
                 (A) (A) (A) (A) (A) (A) (A) (A) (A) (A) (A) (A)
                 (A) (A) (A) (A) (A) (A) (A) (A) (A) (A) (A) (A)
                 (A) (A) (A) (A) (A) (A) (A) (A) (A) (A) (A) (A)
                 (A) (A) (A) (A) (A) (A) (A) (A) (A) (A) (A) (A)
                 (A) (A) (A) (A) (A) (A) (A) (A) (A) (A) (A) (A)
                 (A) (A) (A) (A) (A) (A) (A) (A) (A) (A) (A) (A)
                 (A) (A) (A) (A) (A) (A) (A) (A) (A) (A) (A) (A)
                 (A) (A) (A) (A) (A) (A) (A) (A) (A) (A) (A) (A)
                 (A) (A) (A) (A) (A) (A) (A) (A) (A) (A) (A) (A)
                 (A) (A) (A) (A) (A) (A) (A) (A) (A) (A) (A) (A)
                 (A) (A) (A) (A) (A) (A) (A) (A) (A) (A) (A) (A)
                 (A) (A) (A) (A) (A) (A) (A) (A) (A) (A) (A) (A)
                 (A) (A) (A) (A)
 Beta  Orbitals:
       Occupied  (A) (A) (A) (A) (A) (A) (A) (A) (A) (A) (A) (A)
                 (A) (A) (A) (A) (A) (A) (A) (A) (A) (A) (A) (A)
                 (A) (A) (A) (A) (A) (A) (A) (A) (A) (A) (A) (A)
                 (A) (A) (A) (A) (A) (A) (A) (A) (A) (A) (A) (A)
                 (A) (A) (A) (A) (A) (A) (A) (A) (A) (A) (A) (A)
                 (A) (A) (A) (A) (A) (A) (A) (A) (A) (A) (A) (A)
                 (A) (A) (A) (A) (A) (A) (A) (A) (A) (A) (A) (A)
                 (A) (A) (A) (A) (A) (A) (A) (A) (A) (A) (A) (A)
                 (A) (A) (A) (A) (A) (A) (A) (A) (A) (A) (A) (A)
                 (A) (A) (A) (A) (A) (A) (A) (A) (A) (A) (A) (A)
                 (A) (A) (A) (A) (A) (A) (A) (A) (A) (A) (A) (A)
                 (A) (A) (A) (A) (A) (A) (A) (A) (A) (A) (A) (A)
                 (A) (A) (A) (A) (A) (A) (A) (A) (A) (A) (A) (A)
                 (A) (A) (A) (A) (A) (A) (A) (A) (A) (A) (A) (A)
                 (A) (A) (A) (A) (A) (A) (A) (A) (A) (A) (A) (A)
                 (A) (A) (A) (A) (A) (A)
       Virtual   (A) (A) (A) (A) (A) (A) (A) (A) (A) (A) (A) (A)
                 (A) (A) (A) (A) (A) (A) (A) (A) (A) (A) (A) (A)
                 (A) (A) (A) (A) (A) (A) (A) (A) (A) (A) (A) (A)
                 (A) (A) (A) (A) (A) (A) (A) (A) (A) (A) (A) (A)
                 (A) (A) (A) (A) (A) (A) (A) (A) (A) (A) (A) (A)
                 (A) (A) (A) (A) (A) (A) (A) (A) (A) (A) (A) (A)
                 (A) (A) (A) (A) (A) (A) (A) (A) (A) (A) (A) (A)
                 (A) (A) (A) (A) (A) (A) (A) (A) (A) (A) (A) (A)
                 (A) (A) (A) (A) (A) (A) (A) (A) (A) (A) (A) (A)
                 (A) (A) (A) (A) (A) (A) (A) (A) (A) (A) (A) (A)
                 (A) (A) (A) (A) (A) (A) (A) (A) (A) (A) (A) (A)
                 (A) (A) (A) (A) (A) (A) (A) (A) (A) (A) (A) (A)
                 (A) (A) (A) (A) (A) (A) (A) (A) (A) (A) (A) (A)
                 (A) (A) (A) (A) (A) (A) (A) (A) (A) (A) (A) (A)
                 (A) (A) (A) (A) (A) (A) (A) (A) (A) (A) (A) (A)
                 (A) (A) (A) (A) (A) (A) (A) (A) (A) (A) (A) (A)
                 (A) (A) (A) (A) (A) (A) (A) (A) (A) (A) (A) (A)
                 (A) (A) (A) (A) (A) (A) (A) (A) (A) (A) (A) (A)
                 (A) (A) (A) (A) (A) (A) (A) (A) (A) (A) (A) (A)
                 (A) (A) (A) (A) (A) (A) (A) (A) (A) (A) (A) (A)
                 (A) (A) (A) (A) (A) (A) (A) (A) (A) (A) (A) (A)
                 (A) (A) (A) (A) (A) (A) (A) (A) (A) (A) (A) (A)
                 (A) (A) (A) (A) (A) (A) (A) (A) (A) (A) (A) (A)
                 (A) (A) (A) (A) (A) (A) (A) (A) (A) (A) (A) (A)
                 (A) (A) (A) (A) (A) (A) (A) (A) (A) (A) (A) (A)
                 (A) (A) (A) (A) (A) (A) (A) (A) (A) (A) (A) (A)
                 (A) (A) (A) (A) (A) (A) (A) (A) (A) (A) (A) (A)
                 (A) (A) (A) (A) (A) (A) (A) (A) (A) (A) (A) (A)
                 (A) (A) (A) (A) (A) (A) (A) (A) (A) (A) (A) (A)
                 (A) (A) (A) (A) (A) (A) (A) (A) (A) (A) (A) (A)
                 (A) (A) (A) (A) (A) (A) (A) (A) (A) (A) (A) (A)
                 (A) (A) (A) (A) (A) (A) (A) (A) (A) (A) (A) (A)
                 (A) (A) (A) (A) (A) (A) (A) (A) (A) (A) (A) (A)
                 (A) (A) (A) (A) (A) (A) (A) (A) (A) (A) (A) (A)
                 (A) (A) (A) (A) (A) (A) (A) (A) (A) (A) (A) (A)
                 (A) (A) (A) (A) (A) (A) (A) (A) (A) (A) (A) (A)
                 (A) (A) (A) (A) (A) (A) (A) (A) (A) (A) (A) (A)
                 (A) (A) (A) (A) (A) (A) (A) (A) (A) (A) (A) (A)
                 (A) (A) (A) (A) (A) (A) (A) (A) (A) (A) (A) (A)
                 (A) (A) (A) (A) (A) (A) (A) (A) (A) (A) (A) (A)
                 (A) (A) (A) (A) (A) (A) (A) (A) (A) (A) (A) (A)
                 (A) (A) (A) (A) (A) (A) (A) (A) (A) (A) (A) (A)
                 (A) (A) (A) (A) (A) (A) (A) (A) (A) (A) (A) (A)
                 (A) (A) (A) (A) (A) (A) (A) (A) (A) (A) (A) (A)
                 (A) (A) (A) (A) (A) (A) (A) (A) (A) (A) (A) (A)
                 (A) (A) (A) (A) (A) (A) (A) (A) (A) (A) (A) (A)
                 (A) (A) (A) (A) (A) (A) (A) (A) (A) (A) (A) (A)
                 (A) (A) (A) (A) (A) (A) (A) (A) (A) (A) (A) (A)
                 (A) (A) (A) (A) (A) (A) (A) (A) (A) (A) (A) (A)
                 (A) (A) (A) (A) (A) (A) (A) (A) (A) (A) (A) (A)
                 (A) (A) (A) (A) (A) (A) (A) (A) (A) (A) (A) (A)
                 (A) (A) (A) (A) (A) (A) (A) (A) (A) (A) (A) (A)
                 (A) (A) (A) (A) (A) (A) (A) (A) (A) (A) (A) (A)
                 (A) (A) (A) (A) (A) (A) (A) (A) (A) (A) (A) (A)
                 (A) (A) (A) (A) (A) (A) (A) (A) (A) (A) (A) (A)
                 (A) (A) (A) (A) (A) (A) (A) (A) (A) (A) (A) (A)
                 (A) (A) (A) (A) (A) (A) (A) (A) (A) (A) (A) (A)
                 (A) (A) (A) (A) (A) (A) (A) (A) (A) (A) (A) (A)
                 (A) (A) (A) (A) (A) (A) (A) (A) (A) (A) (A) (A)
                 (A) (A) (A) (A) (A) (A) (A) (A) (A) (A) (A) (A)
                 (A) (A) (A) (A) (A) (A) (A) (A) (A) (A) (A) (A)
                 (A) (A) (A) (A) (A) (A) (A) (A) (A) (A) (A) (A)
                 (A) (A) (A) (A) (A) (A) (A) (A) (A) (A) (A) (A)
                 (A) (A) (A) (A) (A) (A) (A) (A) (A) (A) (A) (A)
                 (A) (A) (A) (A) (A) (A) (A) (A) (A) (A) (A) (A)
                 (A) (A) (A) (A) (A) (A) (A) (A) (A) (A) (A) (A)
                 (A) (A) (A) (A) (A) (A) (A) (A) (A) (A) (A) (A)
                 (A) (A) (A) (A) (A) (A) (A) (A) (A) (A) (A) (A)
                 (A) (A) (A) (A) (A) (A) (A) (A) (A) (A) (A) (A)
                 (A) (A) (A) (A) (A) (A) (A) (A) (A) (A) (A) (A)
                 (A) (A) (A) (A) (A) (A) (A) (A) (A) (A) (A) (A)
                 (A) (A) (A) (A) (A) (A) (A) (A) (A) (A) (A) (A)
                 (A) (A) (A) (A) (A) (A) (A) (A) (A) (A) (A) (A)
                 (A) (A) (A) (A) (A) (A) (A) (A) (A) (A) (A) (A)
                 (A) (A) (A) (A) (A) (A) (A) (A) (A) (A) (A) (A)
                 (A) (A) (A) (A) (A) (A) (A) (A) (A) (A) (A) (A)
                 (A) (A) (A) (A) (A) (A) (A) (A) (A) (A) (A) (A)
                 (A) (A) (A) (A) (A) (A) (A) (A) (A) (A) (A) (A)
                 (A) (A) (A) (A) (A) (A) (A) (A) (A) (A) (A) (A)
                 (A) (A) (A) (A) (A) (A) (A) (A) (A) (A) (A) (A)
                 (A) (A) (A) (A) (A) (A) (A) (A) (A) (A) (A) (A)
                 (A) (A) (A) (A) (A) (A) (A) (A) (A) (A) (A) (A)
                 (A) (A) (A) (A) (A) (A) (A) (A) (A) (A) (A) (A)
                 (A) (A) (A) (A) (A) (A) (A) (A) (A) (A) (A) (A)
                 (A) (A) (A) (A) (A) (A) (A) (A) (A) (A) (A) (A)
                 (A) (A) (A) (A) (A) (A) (A) (A) (A) (A) (A) (A)
                 (A) (A) (A) (A) (A) (A) (A) (A) (A) (A) (A) (A)
                 (A) (A) (A) (A) (A) (A) (A) (A) (A) (A) (A) (A)
                 (A) (A) (A) (A) (A) (A) (A) (A) (A) (A) (A) (A)
                 (A) (A) (A) (A) (A) (A) (A) (A) (A) (A) (A) (A)
                 (A) (A) (A) (A) (A) (A) (A) (A) (A) (A) (A) (A)
                 (A) (A) (A) (A) (A) (A) (A) (A) (A) (A) (A) (A)
                 (A) (A) (A) (A) (A) (A) (A) (A) (A) (A) (A) (A)
                 (A) (A) (A) (A) (A) (A) (A) (A) (A) (A) (A) (A)
                 (A) (A) (A) (A) (A) (A) (A) (A) (A) (A) (A) (A)
                 (A) (A) (A) (A) (A) (A) (A) (A) (A) (A) (A) (A)
                 (A) (A) (A) (A) (A) (A) (A) (A) (A) (A) (A) (A)
                 (A) (A) (A) (A) (A) (A) (A) (A) (A) (A) (A) (A)
                 (A) (A) (A) (A) (A) (A) (A) (A) (A) (A) (A) (A)
                 (A) (A) (A) (A) (A) (A) (A) (A) (A) (A) (A) (A)
                 (A) (A) (A) (A) (A) (A) (A) (A) (A) (A) (A) (A)
                 (A) (A) (A) (A) (A) (A) (A) (A) (A) (A) (A) (A)
                 (A) (A) (A) (A) (A) (A) (A) (A) (A) (A) (A) (A)
                 (A) (A) (A) (A) (A) (A) (A) (A) (A) (A) (A) (A)
                 (A) (A) (A) (A) (A) (A) (A) (A) (A) (A) (A) (A)
                 (A) (A) (A) (A) (A) (A) (A) (A) (A) (A) (A) (A)
                 (A) (A) (A) (A) (A) (A) (A) (A) (A) (A) (A) (A)
                 (A) (A) (A) (A) (A) (A) (A) (A) (A) (A) (A) (A)
                 (A) (A) (A) (A) (A) (A) (A) (A) (A) (A) (A) (A)
                 (A) (A) (A) (A) (A) (A) (A) (A) (A) (A) (A) (A)
                 (A) (A) (A) (A) (A) (A) (A) (A) (A) (A) (A) (A)
                 (A) (A) (A) (A) (A) (A) (A) (A) (A) (A) (A) (A)
                 (A) (A) (A) (A) (A) (A) (A) (A) (A) (A) (A) (A)
                 (A) (A) (A) (A) (A) (A) (A) (A) (A) (A) (A) (A)
                 (A) (A) (A) (A) (A) (A) (A) (A) (A) (A) (A) (A)
                 (A) (A) (A) (A) (A) (A) (A) (A) (A) (A) (A) (A)
                 (A) (A) (A) (A) (A) (A) (A) (A) (A) (A) (A) (A)
                 (A) (A) (A) (A) (A) (A) (A) (A) (A) (A) (A) (A)
                 (A) (A) (A) (A) (A) (A) (A) (A) (A) (A) (A) (A)
[...]
              Bcc     0.0050    -0.361    -0.129    -0.120  0.7549 -0.2379  0.6112
 
              Baa    -0.0016    -0.213    -0.076    -0.071  0.3450  0.8965 -0.2779
    27 C(13)  Bbb    -0.0007    -0.096    -0.034    -0.032  0.2116  0.2142  0.9536
              Bcc     0.0023     0.308     0.110     0.103  0.9145 -0.3877 -0.1158
 
              Baa    -0.0864   -11.593    -4.137    -3.867  0.3437  0.9126 -0.2215
    28 C(13)  Bbb    -0.0797   -10.698    -3.817    -3.569  0.9211 -0.3736 -0.1100
              Bcc     0.1661    22.291     7.954     7.435  0.1831  0.1662  0.9689
 
              Baa    -0.0540    -7.251    -2.587    -2.419  0.1932  0.1621  0.9677
    29 C(13)  Bbb     0.0232     3.117     1.112     1.040  0.1321  0.9730 -0.1893
              Bcc     0.0308     4.134     1.475     1.379  0.9722 -0.1644 -0.1666
 
              Baa    -0.0689    -9.251    -3.301    -3.086  0.4960  0.8359 -0.2351
    30 C(13)  Bbb    -0.0594    -7.976    -2.846    -2.661  0.8479 -0.5247 -0.0765
              Bcc     0.1284    17.228     6.147     5.747  0.1873  0.1614  0.9690
 
              Baa    -0.0639    -8.572    -3.059    -2.859  0.1808  0.1679  0.9691
    31 C(13)  Bbb     0.0149     1.995     0.712     0.665  0.3379  0.9147 -0.2215
              Bcc     0.0490     6.577     2.347     2.194  0.9237 -0.3675 -0.1087
 
              Baa    -0.5587   -21.550    -7.689    -7.188  0.3385  0.9143 -0.2225
    32 N(14)  Bbb    -0.5465   -21.079    -7.522    -7.031  0.9230 -0.3686 -0.1106
              Bcc     1.1053    42.629    15.211    14.219  0.1831  0.1679  0.9687
 
              Baa    -0.5485    39.686    14.161    13.238 -0.1665  0.9764 -0.1379
    33 O(17)  Bbb    -0.4884    35.338    12.609    11.787  0.9689  0.1360 -0.2069
              Bcc     1.0368   -75.024   -26.771   -25.025  0.1832  0.1681  0.9686
 
              Baa    -0.5497    39.777    14.194    13.268  0.7561  0.6057 -0.2480
    34 O(17)  Bbb    -0.4896    35.430    12.642    11.818 -0.6283  0.7778 -0.0158
              Bcc     1.0394   -75.208   -26.836   -25.087  0.1833  0.1678  0.9686
 
              Baa    -0.0708    -9.499    -3.389    -3.168  0.1807  0.9629 -0.2006
    35 C(13)  Bbb    -0.0613    -8.228    -2.936    -2.745  0.9652 -0.2129 -0.1520
              Bcc     0.1321    17.727     6.325     5.913  0.1891  0.1661  0.9678
 
              Baa    -0.0538    -7.220    -2.576    -2.408  0.1924  0.1627  0.9677
    36 C(13)  Bbb     0.0230     3.088     1.102     1.030  0.5399  0.8059 -0.2428
              Bcc     0.0308     4.132     1.474     1.378  0.8194 -0.5692 -0.0672
 
              Baa    -0.0006    -0.074    -0.027    -0.025  0.3759  0.8833 -0.2801
    37 C(13)  Bbb    -0.0004    -0.053    -0.019    -0.018 -0.3919  0.4254  0.8157
              Bcc     0.0009     0.127     0.045     0.042  0.8397 -0.1969  0.5061
 
              Baa    -0.0003    -0.035    -0.013    -0.012  0.3192  0.9471 -0.0332
    38 C(13)  Bbb    -0.0002    -0.033    -0.012    -0.011 -0.1622  0.0891  0.9827
              Bcc     0.0005     0.068     0.024     0.023  0.9337 -0.3083  0.1820
 
              Baa    -0.0001    -0.011    -0.004    -0.004  0.3806  0.6584 -0.6493
    39 C(13)  Bbb    -0.0001    -0.011    -0.004    -0.004  0.2358  0.6099  0.7566
              Bcc     0.0002     0.023     0.008     0.008  0.8942 -0.4410  0.0769
 
              Baa    -0.0001    -0.012    -0.004    -0.004  0.0353  0.2319  0.9721
    40 C(13)  Bbb    -0.0001    -0.012    -0.004    -0.004  0.5581  0.8023 -0.2116
              Bcc     0.0002     0.024     0.008     0.008  0.8290 -0.5500  0.1011
 
              Baa    -0.0001    -0.017    -0.006    -0.006  0.0997  0.3149  0.9439
    41 C(13)  Bbb    -0.0001    -0.016    -0.006    -0.005  0.6270  0.7167 -0.3053
              Bcc     0.0002     0.033     0.012     0.011  0.7726 -0.6222  0.1260
 
              Baa    -0.0001    -0.009    -0.003    -0.003  0.1793  0.4059  0.8962
    42 C(13)  Bbb    -0.0001    -0.008    -0.003    -0.003  0.5583  0.7081 -0.4324
              Bcc     0.0001     0.017     0.006     0.006  0.8101 -0.5778  0.0997
 
              Baa    -0.0001    -0.007    -0.003    -0.002  0.0823  0.2900  0.9535
    43 C(13)  Bbb    -0.0001    -0.007    -0.002    -0.002  0.5098  0.8099 -0.2903
              Bcc     0.0001     0.014     0.005     0.005  0.8564 -0.5099  0.0812
 
              Baa    -0.0000    -0.005    -0.002    -0.002  0.1512  0.3860  0.9100
    44 C(13)  Bbb    -0.0000    -0.005    -0.002    -0.002  0.4981  0.7654 -0.4074
              Bcc     0.0001     0.010     0.004     0.003  0.8538 -0.5149  0.0766
 
              Baa    -0.0001    -0.002    -0.001    -0.001  0.4251  0.9011  0.0857
    45 N(14)  Bbb    -0.0001    -0.002    -0.001    -0.001 -0.0986 -0.0480  0.9940
              Bcc     0.0001     0.005     0.002     0.002  0.8997 -0.4310  0.0684
 
              Baa    -0.0000    -0.008    -0.003    -0.003  0.0898  0.3565  0.9300
    46 B(11)  Bbb    -0.0000    -0.008    -0.003    -0.003  0.3350  0.8685 -0.3653
              Bcc     0.0001     0.017     0.006     0.006  0.9379 -0.3444  0.0414
 
              Baa    -0.0000    -0.020    -0.007    -0.007  0.2146  0.7987  0.5622
    47 F(19)  Bbb    -0.0000    -0.020    -0.007    -0.007 -0.2731 -0.5036  0.8197
              Bcc     0.0001     0.041     0.014     0.014  0.9378 -0.3294  0.1100
 
              Baa    -0.0000    -0.021    -0.008    -0.007  0.1701  0.3337  0.9272
    48 F(19)  Bbb    -0.0000    -0.021    -0.008    -0.007  0.3225  0.8703 -0.3723
              Bcc     0.0001     0.042     0.015     0.014  0.9312 -0.3623 -0.0404
 
              Baa    -0.0001    -0.012    -0.004    -0.004 -0.0178  0.0829  0.9964
    49 C(13)  Bbb    -0.0001    -0.012    -0.004    -0.004  0.1146  0.9902 -0.0803
              Bcc     0.0002     0.024     0.009     0.008  0.9933 -0.1128  0.0271
 
              Baa    -0.0001    -0.017    -0.006    -0.006 -0.0323 -0.0356  0.9988
    50 C(13)  Bbb    -0.0001    -0.016    -0.006    -0.005  0.0191  0.9992  0.0362
              Bcc     0.0002     0.033     0.012     0.011  0.9993 -0.0202  0.0316
 
              Baa    -0.0001    -0.009    -0.003    -0.003 -0.0319 -0.2379  0.9708
    51 C(13)  Bbb    -0.0001    -0.009    -0.003    -0.003  0.0731  0.9681  0.2397
              Bcc     0.0001     0.017     0.006     0.006  0.9968 -0.0786  0.0135
 
              Baa    -0.0000    -0.003    -0.001    -0.001  0.1141  0.9590  0.2595
    52 C(13)  Bbb    -0.0000    -0.003    -0.001    -0.001 -0.0235 -0.2585  0.9657
              Bcc     0.0000     0.006     0.002     0.002  0.9932 -0.1163 -0.0070
 
              Baa    -0.0000     0.002     0.001     0.001  0.0479  0.9690  0.2424
    53 O(17)  Bbb    -0.0000     0.002     0.001     0.001 -0.0243 -0.2415  0.9701
              Bcc     0.0000    -0.004    -0.001    -0.001  0.9986 -0.0524  0.0119
 
              Baa    -0.0000    -0.010    -0.004    -0.003 -0.0063 -0.1017  0.9948
    54 H(1)   Bbb    -0.0000    -0.010    -0.004    -0.003 -0.2612  0.9604  0.0965
              Bcc     0.0000     0.020     0.007     0.007  0.9653  0.2593  0.0326
 
              Baa    -0.0000    -0.012    -0.004    -0.004 -0.0446 -0.1710  0.9843
    55 H(1)   Bbb    -0.0000    -0.012    -0.004    -0.004 -0.3059  0.9403  0.1495
              Bcc     0.0000     0.024     0.008     0.008  0.9510  0.2944  0.0943
 
              Baa    -0.0000    -0.010    -0.003    -0.003 -0.0697 -0.2103  0.9752
    56 H(1)   Bbb    -0.0000    -0.010    -0.003    -0.003 -0.2555  0.9487  0.1863
              Bcc     0.0000     0.019     0.007     0.006  0.9643  0.2362  0.1198
 
              Baa    -0.0000    -0.016    -0.006    -0.005 -0.0372 -0.1285  0.9910
    57 H(1)   Bbb    -0.0000    -0.016    -0.006    -0.005 -0.0846  0.9885  0.1250
              Bcc     0.0001     0.032     0.011     0.011  0.9957  0.0792  0.0477
 
              Baa    -0.0000    -0.007    -0.003    -0.002 -0.0146 -0.1096  0.9939
    58 H(1)   Bbb    -0.0000    -0.007    -0.003    -0.002 -0.0639  0.9920  0.1085
              Bcc     0.0000     0.015     0.005     0.005  0.9978  0.0619  0.0215
 
              Baa    -0.0000    -0.008    -0.003    -0.003 -0.0310 -0.1176  0.9926
    59 H(1)   Bbb    -0.0000    -0.008    -0.003    -0.003 -0.1683  0.9795  0.1108
              Bcc     0.0000     0.017     0.006     0.006  0.9852  0.1636  0.0501
 
              Baa    -0.0000    -0.007    -0.003    -0.002  0.0083  0.0629  0.9980
    60 H(1)   Bbb    -0.0000    -0.007    -0.003    -0.002  0.0515  0.9967 -0.0632
              Bcc     0.0000     0.015     0.005     0.005  0.9986 -0.0519 -0.0051
 
              Baa    -0.0000    -0.007    -0.003    -0.002  0.0506  0.0241  0.9984
    61 H(1)   Bbb    -0.0000    -0.007    -0.003    -0.002  0.1544  0.9875 -0.0316
              Bcc     0.0000     0.015     0.005     0.005  0.9867 -0.1557 -0.0463
 
              Baa    -0.0000    -0.008    -0.003    -0.003 -0.0202 -0.0020  0.9998
    62 H(1)   Bbb    -0.0000    -0.008    -0.003    -0.003  0.1931  0.9812  0.0058
              Bcc     0.0000     0.016     0.006     0.005  0.9810 -0.1932  0.0195
 
              Baa    -0.0000    -0.009    -0.003    -0.003  0.1506  0.1467  0.9777
    63 H(1)   Bbb    -0.0000    -0.009    -0.003    -0.003  0.1750  0.9693 -0.1724
              Bcc     0.0000     0.019     0.007     0.006  0.9730 -0.1971 -0.1203
 
              Baa    -0.0000    -0.008    -0.003    -0.003  0.1078  0.1108  0.9880
    64 H(1)   Bbb    -0.0000    -0.008    -0.003    -0.003  0.2476  0.9595 -0.1346
              Bcc     0.0000     0.017     0.006     0.006  0.9628 -0.2591 -0.0759
 
              Baa    -0.0000    -0.012    -0.004    -0.004  0.1389  0.2053  0.9688
    65 H(1)   Bbb    -0.0000    -0.012    -0.004    -0.004  0.2543  0.9381 -0.2353
              Bcc     0.0000     0.025     0.009     0.008  0.9571 -0.2791 -0.0781
 
              Baa    -0.0000    -0.011    -0.004    -0.004 -0.0060  0.0072  1.0000
    66 H(1)   Bbb    -0.0000    -0.011    -0.004    -0.004  0.2734  0.9619 -0.0053
              Bcc     0.0000     0.022     0.008     0.007  0.9619 -0.2734  0.0077
 
              Baa    -0.0000    -0.018    -0.006    -0.006  0.0314  0.0240  0.9992
    67 H(1)   Bbb    -0.0000    -0.018    -0.006    -0.006  0.2601  0.9651 -0.0314
              Bcc     0.0001     0.035     0.013     0.012  0.9651 -0.2609 -0.0241
 
              Baa    -0.0000    -0.020    -0.007    -0.007 -0.0121 -0.0494  0.9987
    68 H(1)   Bbb    -0.0000    -0.020    -0.007    -0.007  0.0758  0.9959  0.0502
              Bcc     0.0001     0.040     0.014     0.013  0.9970 -0.0763  0.0083
 
              Baa    -0.0002    -0.095    -0.034    -0.032  0.3349  0.9297 -0.1531
    69 H(1)   Bbb    -0.0002    -0.092    -0.033    -0.031  0.2196  0.0810  0.9722
              Bcc     0.0004     0.187     0.067     0.062  0.9163 -0.3592 -0.1771
 
              Baa    -0.0006    -0.294    -0.105    -0.098  0.3358  0.9349 -0.1150
    70 H(1)   Bbb    -0.0004    -0.220    -0.078    -0.073  0.2510  0.0288  0.9676
              Bcc     0.0010     0.514     0.183     0.171  0.9079 -0.3537 -0.2250
 
              Baa    -0.0018    -0.965    -0.344    -0.322 -0.1527  0.7827 -0.6034
    71 H(1)   Bbb    -0.0015    -0.814    -0.291    -0.272  0.2709  0.6204  0.7360
              Bcc     0.0033     1.779     0.635     0.593  0.9504 -0.0511 -0.3068
 
              Baa    -0.0017    -0.919    -0.328    -0.306  0.6936  0.6410  0.3286
    72 H(1)   Bbb    -0.0016    -0.871    -0.311    -0.290 -0.0862 -0.3790  0.9214
              Bcc     0.0034     1.790     0.639     0.597  0.7152 -0.6674 -0.2076
 
              Baa    -0.0028    -1.488    -0.531    -0.496  0.1970  0.1850  0.9628
    73 H(1)   Bbb    -0.0012    -0.635    -0.227    -0.212  0.0959  0.9737 -0.2067
              Bcc     0.0040     2.124     0.758     0.708  0.9757 -0.1331 -0.1741
 
              Baa    -0.0047    -2.487    -0.887    -0.829  0.1768  0.1757  0.9684
    74 H(1)   Bbb    -0.0016    -0.835    -0.298    -0.279  0.7890 -0.6135 -0.0328
              Bcc     0.0062     3.321     1.185     1.108  0.5884  0.7699 -0.2471
 
              Baa    -0.0046    -2.465    -0.880    -0.822  0.1714  0.1638  0.9715
    75 H(1)   Bbb    -0.0019    -1.003    -0.358    -0.335  0.9837 -0.0828 -0.1596
              Bcc     0.0065     3.468     1.238     1.157  0.0543  0.9830 -0.1753
 
              Baa    -0.0028    -1.500    -0.535    -0.500  0.1841  0.1472  0.9718
    76 H(1)   Bbb    -0.0012    -0.628    -0.224    -0.209  0.5615  0.7958 -0.2269
              Bcc     0.0040     2.128     0.759     0.710  0.8067 -0.5875 -0.0639
 
              Baa    -0.0004    -0.206    -0.074    -0.069  0.3635  0.9216 -0.1362
    77 H(1)   Bbb    -0.0003    -0.145    -0.052    -0.048 -0.4290  0.2954  0.8537
              Bcc     0.0007     0.351     0.125     0.117  0.8270 -0.2518  0.5027
 
              Baa    -0.0002    -0.084    -0.030    -0.028  0.3322  0.9412 -0.0610
    78 H(1)   Bbb    -0.0001    -0.077    -0.028    -0.026 -0.2939  0.1648  0.9415
              Bcc     0.0003     0.161     0.058     0.054  0.8963 -0.2948  0.3314
 
              Baa    -0.0002    -0.083    -0.030    -0.028 -0.0011  0.0596  0.9982
    79 H(1)   Bbb    -0.0002    -0.081    -0.029    -0.027  0.6324  0.7733 -0.0454
              Bcc     0.0003     0.164     0.058     0.055  0.7747 -0.6312  0.0385
 
              Baa    -0.0001    -0.058    -0.021    -0.019  0.1440  0.3243  0.9349
    80 H(1)   Bbb    -0.0001    -0.056    -0.020    -0.019  0.6867  0.6475 -0.3304
              Bcc     0.0002     0.114     0.041     0.038  0.7125 -0.6896  0.1294
 
              Baa    -0.0001    -0.077    -0.028    -0.026  0.1362  0.5024  0.8539
    81 H(1)   Bbb    -0.0001    -0.074    -0.026    -0.025  0.6232  0.6265 -0.4680
              Bcc     0.0003     0.152     0.054     0.051  0.7701 -0.5959  0.2278
 
              Baa    -0.0001    -0.031    -0.011    -0.010  0.1648  0.3572  0.9194
    82 H(1)   Bbb    -0.0001    -0.031    -0.011    -0.010  0.6250  0.6833 -0.3775
              Bcc     0.0001     0.062     0.022     0.021  0.7630 -0.6368  0.1107
 
              Baa    -0.0000    -0.019    -0.007    -0.006  0.1142  0.2272  0.9671
    83 H(1)   Bbb    -0.0000    -0.019    -0.007    -0.006  0.4847  0.8370 -0.2538
              Bcc     0.0001     0.037     0.013     0.013  0.8672 -0.4978  0.0145
 
              Baa    -0.0000    -0.019    -0.007    -0.006  0.1866  0.5520  0.8127
    84 H(1)   Bbb    -0.0000    -0.018    -0.007    -0.006  0.4566  0.6837 -0.5692
              Bcc     0.0001     0.037     0.013     0.012  0.8699 -0.4773  0.1244
 
              Baa    -0.0000    -0.019    -0.007    -0.006  0.1703  0.3822  0.9083
    85 H(1)   Bbb    -0.0000    -0.019    -0.007    -0.006  0.5502  0.7277 -0.4094
              Bcc     0.0001     0.038     0.014     0.013  0.8174 -0.5695  0.0863
 
              Baa    -0.0002    -0.084    -0.030    -0.028  0.0641  0.1820  0.9812
    86 H(1)   Bbb    -0.0002    -0.081    -0.029    -0.027  0.0217  0.9828 -0.1837
              Bcc     0.0003     0.165     0.059     0.055  0.9977 -0.0331 -0.0590
 
              Baa    -0.0001    -0.079    -0.028    -0.026 -0.1367 -0.1923  0.9718
    87 H(1)   Bbb    -0.0001    -0.076    -0.027    -0.025 -0.0067  0.9811  0.1932
              Bcc     0.0003     0.155     0.055     0.052  0.9906 -0.0199  0.1354
 
              Baa    -0.0001    -0.059    -0.021    -0.020 -0.0152 -0.0545  0.9984
    88 H(1)   Bbb    -0.0001    -0.057    -0.020    -0.019 -0.0707  0.9961  0.0532
              Bcc     0.0002     0.116     0.042     0.039  0.9974  0.0697  0.0190
 
              Baa    -0.0001    -0.032    -0.011    -0.011 -0.0032 -0.0371  0.9993
    89 H(1)   Bbb    -0.0001    -0.031    -0.011    -0.010  0.0020  0.9993  0.0371
              Bcc     0.0001     0.063     0.023     0.021  1.0000 -0.0021  0.0032
 

 ---------------------------------------------------------------------------------

 No NMR shielding tensors so no spin-rotation constants.
 Leave Link  601 at Sat Oct 25 07:42:52 2025, MaxMem= 30870077440 cpu:             209.4 elap:               3.7
 (Enter /public/software/gauss/g16/l9999.exe)
 1\1\GINC-CU056\SP\UM062X\def2TZVPP\C42H36B1F2N3O5(1-,2)\BAIDING\25-Oct
 -2025\0\\#p M062X/DEF2TZVPP scrf=(solvent=water) em=GD3\\Energy calcul
 ation for BONO_CHO_reduced\\-1,2\C,0,-6.93249,6.983769,-1.159836\O,0,-
 6.279671,5.734879,-0.901431\C,0,-7.053325,4.654059,-0.588198\C,0,-6.35
 2013,3.463592,-0.350637\C,0,-7.066489,2.32014,-0.027659\C,0,-8.471776,
 2.312089,0.068549\C,0,-9.144217,3.520402,-0.174144\C,0,-8.456055,4.684
 935,-0.49864\C,0,-9.111731,1.067726,0.398325\C,0,-8.389953,-0.068124,0
 .60578\C,0,-9.042942,-1.397226,0.901694\C,0,-8.143594,-2.270564,1.7781
 86\C,0,-6.775111,-2.440803,1.117123\C,0,-6.121626,-1.116795,0.731442\C
 ,0,-4.692345,-1.151793,0.597595\C,0,-3.797981,-0.144904,0.333012\C,0,-
 2.37121,-0.226716,0.202467\N,0,-1.549887,-1.312421,0.035409\C,0,-0.222
 024,-0.852007,-0.032536\C,0,0.845514,-1.731393,-0.254935\C,0,2.247036,
 -1.212608,-0.276203\C,0,2.970509,-1.088328,0.917189\C,0,4.281196,-0.61
 5793,0.90322\C,0,4.894316,-0.253593,-0.306766\C,0,6.296529,0.264495,-0
 .375998\O,0,6.78846,0.580506,-1.458078\C,0,7.093289,0.383529,0.920462\
 C,0,8.481132,0.9443,0.748659\C,0,9.560461,0.116539,0.392968\C,0,10.842
 543,0.622252,0.224762\C,0,11.085315,2.002187,0.410337\N,0,12.37178,2.5
 19903,0.25312\O,0,12.587381,3.793255,0.435522\O,0,13.356282,1.727257,-
 0.067928\C,0,10.009512,2.847048,0.764195\C,0,8.736717,2.314531,0.92604
 2\C,0,4.164775,-0.380686,-1.500408\C,0,2.858836,-0.857027,-1.487841\C,
 0,0.624216,-3.106533,-0.468349\C,0,1.514884,-4.199092,-0.70766\C,0,3.0
 11672,-4.213536,-0.793533\C,0,0.705846,-5.327495,-0.855347\C,0,-0.6354
 92,-4.941406,-0.70742\C,0,-1.851522,-5.803227,-0.778283\N,0,-0.68228,-
 3.605188,-0.475251\B,0,-1.961995,-2.791738,-0.182109\F,0,-2.859747,-2.
 897921,-1.253985\F,0,-2.570527,-3.316515,0.979754\C,0,-0.234027,0.5813
 63,0.105875\C,0,0.907706,1.552462,0.11157\C,0,-1.55899,0.940685,0.2304
 48\C,0,-6.947303,-0.02719,0.52126\O,0,-6.343723,1.175462,0.203595\H,0,
 -7.487345,7.330231,-0.281742\H,0,-6.134648,7.691072,-1.388051\H,0,-7.6
 09457,6.907649,-2.017071\H,0,-5.270378,3.442747,-0.419932\H,0,-10.2279
 83,3.538104,-0.106398\H,0,-9.004647,5.600243,-0.680043\H,0,-10.195619,
 1.042837,0.470834\H,0,-10.018853,-1.227078,1.366777\H,0,-9.231033,-1.9
 20458,-0.04663\H,0,-8.021692,-1.800225,2.761814\H,0,-8.607778,-3.24848
 8,1.940341\H,0,-6.100671,-2.981728,1.789647\H,0,-6.882039,-3.072352,0.
 222741\H,0,-4.27714,-2.138632,0.767056\H,0,-4.155514,0.873237,0.254619
 \H,0,2.505388,-1.362719,1.858535\H,0,4.816676,-0.530887,1.841845\H,0,6
 .509397,1.00103,1.613481\H,0,7.128334,-0.617109,1.370556\H,0,9.390369,
 -0.948176,0.251679\H,0,11.667174,-0.025995,-0.042555\H,0,10.192606,3.9
 03673,0.911\H,0,7.919433,2.97631,1.202819\H,0,4.635192,-0.102306,-2.43
 701\H,0,2.306139,-0.952412,-2.417041\H,0,3.481311,-3.80121,0.10473\H,0
 ,3.361244,-5.242152,-0.916374\H,0,3.382219,-3.62974,-1.642306\H,0,1.04
 4838,-6.336404,-1.050511\H,0,-2.419861,-5.757075,0.156387\H,0,-2.52342
 ,-5.473232,-1.577191\H,0,-1.565852,-6.840068,-0.965375\H,0,1.600599,1.
 367768,0.937843\H,0,1.492598,1.505526,-0.811752\H,0,0.51922,2.568918,0
 .215799\H,0,-1.94221,1.945225,0.353108\\Version=ES64L-G16RevA.03\State
 =2-A\HF=-2387.2682405\S2=0.765928\S2-1=0.\S2A=0.750174\RMSD=2.493e-09\
 Dipole=-25.9998142,-3.4112866,0.8388802\Quadrupole=-359.216513,184.565
 6863,174.6508267,-160.795492,5.5886935,-3.7307258\PG=C01 [X(C42H36B1F2
 N3O5)]\\@


 JUST WHEN YOU THINK YOU'VE GOT THE WORLD ON A STRING,
 YOU FIND OUT IT'S YOUR LEASH.
 Job cpu time:       2 days  7 hours 30 minutes  4.1 seconds.
 Elapsed time:       0 days  0 hours 52 minutes 36.7 seconds.
 File lengths (MBytes):  RWF=   4911 Int=      0 D2E=      0 Chk=    321 Scr=      1
 Normal termination of Gaussian 16 at Sat Oct 25 07:42:54 2025.
