 Entering Gaussian System, Link 0=g16
 Input=DNB_24NO2_sp.gjf
 Output=DNB_24NO2_sp.log
 Initial command:
 /public/software/gauss/g16/l1.exe "/public/home/baiding/1024_sp/tmp_DNB_24NO2_sp_1526250/Gau-2974192.inp" -scrdir="/public/home/baiding/1024_sp/tmp_DNB_24NO2_sp_1526250/"
 Entering Link 1 = /public/software/gauss/g16/l1.exe PID=   2974193.
  
 Copyright (c) 1988,1990,1992,1993,1995,1998,2003,2009,2016,
            Gaussian, Inc.  All Rights Reserved.
  
 This is part of the Gaussian(R) 16 program.  It is based on
 the Gaussian(R) 09 system (copyright 2009, Gaussian, Inc.),
 the Gaussian(R) 03 system (copyright 2003, Gaussian, Inc.),
 the Gaussian(R) 98 system (copyright 1998, Gaussian, Inc.),
 the Gaussian(R) 94 system (copyright 1995, Gaussian, Inc.),
 the Gaussian 92(TM) system (copyright 1992, Gaussian, Inc.),
 the Gaussian 90(TM) system (copyright 1990, Gaussian, Inc.),
 the Gaussian 88(TM) system (copyright 1988, Gaussian, Inc.),
 the Gaussian 86(TM) system (copyright 1986, Carnegie Mellon
 University), and the Gaussian 82(TM) system (copyright 1983,
 Carnegie Mellon University). Gaussian is a federally registered
 trademark of Gaussian, Inc.
  
 This software contains proprietary and confidential information,
 including trade secrets, belonging to Gaussian, Inc.
  
 This software is provided under written license and may be
 used, copied, transmitted, or stored only in accord with that
 written license.
  
 The following legend is applicable only to US Government
 contracts under FAR:
  
                    RESTRICTED RIGHTS LEGEND
  
 Use, reproduction and disclosure by the US Government is
 subject to restrictions as set forth in subparagraphs (a)
 and (c) of the Commercial Computer Software - Restricted
 Rights clause in FAR 52.227-19.
  
 Gaussian, Inc.
 340 Quinnipiac St., Bldg. 40, Wallingford CT 06492
  
  
 ---------------------------------------------------------------
 Warning -- This program may not be used in any manner that
 competes with the business of Gaussian, Inc. or will provide
 assistance to any competitor of Gaussian, Inc.  The licensee
 of this program is prohibited from giving any competitor of
 Gaussian, Inc. access to this program.  By using this program,
 the user acknowledges that Gaussian, Inc. is engaged in the
 business of creating and licensing software in the field of
 computational chemistry and represents and warrants to the
 licensee that it is not a competitor of Gaussian, Inc. and that
 it will not use this program in any manner prohibited above.
 ---------------------------------------------------------------
  

 Cite this work as:
 Gaussian 16, Revision A.03,
 M. J. Frisch, G. W. Trucks, H. B. Schlegel, G. E. Scuseria, 
 M. A. Robb, J. R. Cheeseman, G. Scalmani, V. Barone, 
 G. A. Petersson, H. Nakatsuji, X. Li, M. Caricato, A. V. Marenich, 
 J. Bloino, B. G. Janesko, R. Gomperts, B. Mennucci, H. P. Hratchian, 
 J. V. Ortiz, A. F. Izmaylov, J. L. Sonnenberg, D. Williams-Young, 
 F. Ding, F. Lipparini, F. Egidi, J. Goings, B. Peng, A. Petrone, 
 T. Henderson, D. Ranasinghe, V. G. Zakrzewski, J. Gao, N. Rega, 
 G. Zheng, W. Liang, M. Hada, M. Ehara, K. Toyota, R. Fukuda, 
 J. Hasegawa, M. Ishida, T. Nakajima, Y. Honda, O. Kitao, H. Nakai, 
 T. Vreven, K. Throssell, J. A. Montgomery, Jr., J. E. Peralta, 
 F. Ogliaro, M. J. Bearpark, J. J. Heyd, E. N. Brothers, K. N. Kudin, 
 V. N. Staroverov, T. A. Keith, R. Kobayashi, J. Normand, 
 K. Raghavachari, A. P. Rendell, J. C. Burant, S. S. Iyengar, 
 J. Tomasi, M. Cossi, J. M. Millam, M. Klene, C. Adamo, R. Cammi, 
 J. W. Ochterski, R. L. Martin, K. Morokuma, O. Farkas, 
 J. B. Foresman, and D. J. Fox, Gaussian, Inc., Wallingford CT, 2016.
 
 ******************************************
 Gaussian 16:  ES64L-G16RevA.03 25-Dec-2016
                25-Oct-2025 
 ******************************************
 %nprocshared=64
 Will use up to   64 processors via shared memory.
 %mem=230GB
 %chk=DNB_24NO2_sp.chk
 ----------------------------------------------
 #p M062X/DEF2TZVPP scrf=(solvent=water) em=GD3
 ----------------------------------------------
 1/38=1,172=1/1;
 2/12=2,17=6,18=5,40=1/2;
 3/5=44,7=202,11=2,25=1,30=1,70=2201,72=1,74=-55,124=31/1,2,3;
 4//1;
 5/5=2,38=5,53=1/2;
 6/7=2,8=2,9=2,10=2,28=1/1;
 99/5=1,9=1/99;
 Leave Link    1 at Sat Oct 25 13:12:15 2025, MaxMem= 30870077440 cpu:              21.4 elap:               0.3
 (Enter /public/software/gauss/g16/l101.exe)
 --------------------------------
 Energy calculation for DNB_24NO2
 --------------------------------
 Symbolic Z-matrix:
 Charge =  0 Multiplicity = 1
 C                     0.75121  -3.17121   0.13789 
 C                    -0.63405  -2.61738   0.00595 
 C                    -1.79899  -3.37825   0.01644 
 C                    -2.90288  -2.51028  -0.0827 
 C                    -4.35007  -2.86779  -0.10964 
 N                    -2.4562   -1.2354   -0.15212 
 C                    -1.05565  -1.25271  -0.1098 
 C                    -0.33495  -0.04976  -0.14772 
 C                     1.15794  -0.09569  -0.23513 
 C                     1.73099  -0.26635  -1.5037 
 C                     3.10959  -0.28422  -1.6835 
 C                     3.93045  -0.11428  -0.57083 
 N                     5.38581  -0.13266  -0.74282 
 O                     6.09155   0.00927   0.25741 
 O                     5.83167  -0.28891  -1.88072 
 C                     3.41626   0.07805   0.70307 
 C                     2.03432   0.07398   0.85025 
 N                     1.52432   0.26583   2.21223 
 O                     0.43816  -0.23325   2.506 
 O                     2.2181    0.91718   2.9953 
 C                    -0.98206   1.19387  -0.21119 
 C                    -0.48626   2.53935  -0.2683 
 C                     0.92586   3.04156  -0.26615 
 C                    -1.60955   3.35837  -0.31828 
 C                    -2.75987   2.54713  -0.29727 
 C                    -4.18591   2.9796   -0.34189 
 N                    -2.3837    1.25038  -0.23094 
 B                    -3.34102   0.03161  -0.24852 
 F                    -4.22157   0.09156   0.84125 
 F                    -4.08469   0.01713  -1.43873 
 H                     1.36631  -2.96849  -0.74447 
 H                     1.27358  -2.74713   1.00186 
 H                     0.70269  -4.25461   0.27268 
 H                    -1.8605   -4.45534   0.09564 
 H                    -4.82747  -2.492    -1.02045 
 H                    -4.47131  -3.95149  -0.06822 
 H                    -4.87822  -2.41879   0.73766 
 H                     1.07815  -0.38314  -2.3607 
 H                     3.5396   -0.42494  -2.66676 
 H                     4.06481   0.2145    1.55726 
 H                     1.53853   2.56665  -1.03789 
 H                     0.92838   4.11909  -0.44859 
 H                     1.42186   2.86969   0.69547 
 H                    -1.61216   4.43897  -0.36743 
 H                    -4.69966   2.53672  -1.20116 
 H                    -4.72082   2.65221   0.5554 
 H                    -4.24802   4.06667  -0.41375 
 
 ITRead=  0  0  0  0  0  0  0  0  0  0  0  0  0  0  0  0  0  0  0  0
 ITRead=  0  0  0  0  0  0  0  0  0  0  0  0  0  0  0  0  0  0  0  0
 ITRead=  0  0  0  0  0  0  0
 MicOpt= -1 -1 -1 -1 -1 -1 -1 -1 -1 -1 -1 -1 -1 -1 -1 -1 -1 -1 -1 -1
 MicOpt= -1 -1 -1 -1 -1 -1 -1 -1 -1 -1 -1 -1 -1 -1 -1 -1 -1 -1 -1 -1
 MicOpt= -1 -1 -1 -1 -1 -1 -1
 NAtoms=     47 NQM=       47 NQMF=       0 NMMI=      0 NMMIF=      0
                NMic=       0 NMicF=      0.
                    Isotopes and Nuclear Properties:
 (Nuclear quadrupole moments (NQMom) in fm**2, nuclear magnetic moments (NMagM)
  in nuclear magnetons)

  Atom         1           2           3           4           5           6           7           8           9          10
 IAtWgt=          12          12          12          12          12          14          12          12          12          12
 AtmWgt=  12.0000000  12.0000000  12.0000000  12.0000000  12.0000000  14.0030740  12.0000000  12.0000000  12.0000000  12.0000000
 NucSpn=           0           0           0           0           0           2           0           0           0           0
 AtZEff=  -0.0000000  -0.0000000  -0.0000000  -0.0000000  -0.0000000  -0.0000000  -0.0000000  -0.0000000  -0.0000000  -0.0000000
 NQMom=    0.0000000   0.0000000   0.0000000   0.0000000   0.0000000   2.0440000   0.0000000   0.0000000   0.0000000   0.0000000
 NMagM=    0.0000000   0.0000000   0.0000000   0.0000000   0.0000000   0.4037610   0.0000000   0.0000000   0.0000000   0.0000000
 AtZNuc=   6.0000000   6.0000000   6.0000000   6.0000000   6.0000000   7.0000000   6.0000000   6.0000000   6.0000000   6.0000000

  Atom        11          12          13          14          15          16          17          18          19          20
 IAtWgt=          12          12          14          16          16          12          12          14          16          16
 AtmWgt=  12.0000000  12.0000000  14.0030740  15.9949146  15.9949146  12.0000000  12.0000000  14.0030740  15.9949146  15.9949146
 NucSpn=           0           0           2           0           0           0           0           2           0           0
 AtZEff=  -0.0000000  -0.0000000  -0.0000000  -0.0000000  -0.0000000  -0.0000000  -0.0000000  -0.0000000  -0.0000000  -0.0000000
 NQMom=    0.0000000   0.0000000   2.0440000   0.0000000   0.0000000   0.0000000   0.0000000   2.0440000   0.0000000   0.0000000
 NMagM=    0.0000000   0.0000000   0.4037610   0.0000000   0.0000000   0.0000000   0.0000000   0.4037610   0.0000000   0.0000000
 AtZNuc=   6.0000000   6.0000000   7.0000000   8.0000000   8.0000000   6.0000000   6.0000000   7.0000000   8.0000000   8.0000000

  Atom        21          22          23          24          25          26          27          28          29          30
 IAtWgt=          12          12          12          12          12          12          14          11          19          19
 AtmWgt=  12.0000000  12.0000000  12.0000000  12.0000000  12.0000000  12.0000000  14.0030740  11.0093053  18.9984033  18.9984033
 NucSpn=           0           0           0           0           0           0           2           3           1           1
 AtZEff=  -0.0000000  -0.0000000  -0.0000000  -0.0000000  -0.0000000  -0.0000000  -0.0000000  -0.0000000  -0.0000000  -0.0000000
 NQMom=    0.0000000   0.0000000   0.0000000   0.0000000   0.0000000   0.0000000   2.0440000   4.0590000   0.0000000   0.0000000
 NMagM=    0.0000000   0.0000000   0.0000000   0.0000000   0.0000000   0.0000000   0.4037610   2.6886370   2.6288670   2.6288670
 AtZNuc=   6.0000000   6.0000000   6.0000000   6.0000000   6.0000000   6.0000000   7.0000000   5.0000000   9.0000000   9.0000000

  Atom        31          32          33          34          35          36          37          38          39          40
 IAtWgt=           1           1           1           1           1           1           1           1           1           1
 AtmWgt=   1.0078250   1.0078250   1.0078250   1.0078250   1.0078250   1.0078250   1.0078250   1.0078250   1.0078250   1.0078250
 NucSpn=           1           1           1           1           1           1           1           1           1           1
 AtZEff=  -0.0000000  -0.0000000  -0.0000000  -0.0000000  -0.0000000  -0.0000000  -0.0000000  -0.0000000  -0.0000000  -0.0000000
 NQMom=    0.0000000   0.0000000   0.0000000   0.0000000   0.0000000   0.0000000   0.0000000   0.0000000   0.0000000   0.0000000
 NMagM=    2.7928460   2.7928460   2.7928460   2.7928460   2.7928460   2.7928460   2.7928460   2.7928460   2.7928460   2.7928460
 AtZNuc=   1.0000000   1.0000000   1.0000000   1.0000000   1.0000000   1.0000000   1.0000000   1.0000000   1.0000000   1.0000000

  Atom        41          42          43          44          45          46          47
 IAtWgt=           1           1           1           1           1           1           1
 AtmWgt=   1.0078250   1.0078250   1.0078250   1.0078250   1.0078250   1.0078250   1.0078250
 NucSpn=           1           1           1           1           1           1           1
 AtZEff=  -0.0000000  -0.0000000  -0.0000000  -0.0000000  -0.0000000  -0.0000000  -0.0000000
 NQMom=    0.0000000   0.0000000   0.0000000   0.0000000   0.0000000   0.0000000   0.0000000
 NMagM=    2.7928460   2.7928460   2.7928460   2.7928460   2.7928460   2.7928460   2.7928460
 AtZNuc=   1.0000000   1.0000000   1.0000000   1.0000000   1.0000000   1.0000000   1.0000000
 Leave Link  101 at Sat Oct 25 13:12:15 2025, MaxMem= 30870077440 cpu:               3.6 elap:               0.1
 (Enter /public/software/gauss/g16/l202.exe)
                          Input orientation:                          
 ---------------------------------------------------------------------
 Center     Atomic      Atomic             Coordinates (Angstroms)
 Number     Number       Type             X           Y           Z
 ---------------------------------------------------------------------
      1          6           0        0.751209   -3.171212    0.137888
      2          6           0       -0.634051   -2.617379    0.005949
      3          6           0       -1.798992   -3.378254    0.016443
      4          6           0       -2.902877   -2.510281   -0.082696
      5          6           0       -4.350073   -2.867786   -0.109640
      6          7           0       -2.456201   -1.235403   -0.152124
      7          6           0       -1.055651   -1.252712   -0.109803
      8          6           0       -0.334949   -0.049757   -0.147715
      9          6           0        1.157944   -0.095692   -0.235129
     10          6           0        1.730990   -0.266353   -1.503700
     11          6           0        3.109593   -0.284215   -1.683499
     12          6           0        3.930451   -0.114280   -0.570834
     13          7           0        5.385812   -0.132663   -0.742816
     14          8           0        6.091553    0.009265    0.257409
     15          8           0        5.831671   -0.288912   -1.880717
     16          6           0        3.416264    0.078054    0.703067
     17          6           0        2.034317    0.073981    0.850253
     18          7           0        1.524321    0.265834    2.212234
     19          8           0        0.438159   -0.233248    2.505997
     20          8           0        2.218097    0.917180    2.995296
     21          6           0       -0.982058    1.193871   -0.211194
     22          6           0       -0.486264    2.539345   -0.268300
     23          6           0        0.925855    3.041557   -0.266152
     24          6           0       -1.609548    3.358366   -0.318280
     25          6           0       -2.759870    2.547131   -0.297265
     26          6           0       -4.185914    2.979597   -0.341894
     27          7           0       -2.383701    1.250383   -0.230941
     28          5           0       -3.341024    0.031607   -0.248515
     29          9           0       -4.221570    0.091555    0.841249
     30          9           0       -4.084693    0.017132   -1.438730
     31          1           0        1.366312   -2.968491   -0.744474
     32          1           0        1.273581   -2.747133    1.001861
     33          1           0        0.702687   -4.254607    0.272682
     34          1           0       -1.860502   -4.455337    0.095644
     35          1           0       -4.827465   -2.492000   -1.020449
     36          1           0       -4.471307   -3.951490   -0.068218
     37          1           0       -4.878219   -2.418790    0.737664
     38          1           0        1.078152   -0.383144   -2.360697
     39          1           0        3.539601   -0.424940   -2.666762
     40          1           0        4.064810    0.214500    1.557258
     41          1           0        1.538531    2.566648   -1.037888
     42          1           0        0.928381    4.119093   -0.448593
     43          1           0        1.421861    2.869693    0.695471
     44          1           0       -1.612158    4.438973   -0.367432
     45          1           0       -4.699659    2.536718   -1.201156
     46          1           0       -4.720822    2.652209    0.555398
     47          1           0       -4.248022    4.066671   -0.413754
 ---------------------------------------------------------------------
                    Distance matrix (angstroms):
                    1          2          3          4          5
     1  C    0.000000
     2  C    1.497693   0.000000
     3  C    2.561472   1.391448   0.000000
     4  C    3.719924   2.273081   1.407753   0.000000
     5  C    5.116289   3.726243   2.604705   1.490943   0.000000
     6  N    3.757518   2.292395   2.247699   1.352647   2.500646
     7  C    2.647024   1.432990   2.255310   2.234829   3.669016
     8  C    3.317347   2.589548   3.639954   3.557058   4.905503
     9  C    3.124644   3.102945   4.425152   4.726917   6.167536
    10  C    3.477497   3.660571   4.945254   5.341085   6.759451
    11  C    4.148997   4.723638   6.046246   6.608157   8.049751
    12  C    4.467068   5.237639   6.620041   7.257649   8.738511
    13  N    5.611414   6.555396   7.920337   8.648190  10.132584
    14  O    6.216831   7.224697   8.590346   9.346847  10.836960
    15  O    6.180090   7.126488   8.448093   9.190195  10.651536
    16  C    4.240245   4.914914   6.294157   6.873750   8.345925
    17  C    3.561616   3.882841   5.225651   5.650194   7.094774
    18  N    4.088264   4.223645   5.398637   5.707329   7.051183
    19  O    3.786499   3.617175   4.592797   4.800910   6.058838
    20  O    5.199182   5.437283   6.592520   6.888098   8.191914
    21  C    4.709567   3.833261   4.650110   4.174542   5.277395
    22  C    5.857200   5.166126   6.068139   5.601178   6.647651
    23  C    6.228342   5.876300   6.979873   6.746536   7.923399
    24  C    6.958208   6.063518   6.747590   6.014085   6.805805
    25  C    6.724320   5.593139   6.010981   5.063981   5.646705
    26  C    7.901761   6.637987   6.800593   5.643769   5.854296
    27  N    5.432697   4.251703   4.671976   3.799225   4.565156
    28  B    5.210924   3.795995   3.751695   2.584698   3.073100
    29  F    5.989065   4.572345   4.311469   3.059767   3.111013
    30  F    6.003100   4.575443   4.344031   3.102150   3.187422
    31  H    1.094537   2.165148   3.281166   4.344408   5.752409
    32  H    1.095064   2.155861   3.287867   4.321477   5.733714
    33  H    1.092826   2.130383   2.663090   4.021077   5.253554
    34  H    2.910635   2.211406   1.081741   2.213954   2.959801
    35  H    5.738003   4.319020   3.321482   2.140970   1.094848
    36  H    5.284504   4.063236   2.734417   2.130086   1.091251
    37  H    5.711071   4.311358   3.304901   2.140873   1.094742
    38  H    3.758077   3.677561   4.785336   5.055946   6.380151
    39  H    4.814894   5.419367   6.665000   7.247866   8.646001
    40  H    4.945463   5.701350   7.047423   7.659148   9.115333
    41  H    5.909768   5.716979   6.898734   6.812760   8.066621
    42  H    7.316003   6.930213   7.991560   7.665574   8.763187
    43  H    6.103540   5.900015   7.061998   6.946440   8.178147
    44  H    7.984721   7.133597   7.828876   7.073836   7.807135
    45  H    8.005340   6.674653   6.699501   5.472803   5.524697
    46  H    8.001854   6.691199   6.722652   5.510299   5.572259
    47  H    8.813828   7.610089   7.849186   6.721258   6.941872
                    6          7          8          9         10
     6  N    0.000000
     7  C    1.401296   0.000000
     8  C    2.430121   1.402836   0.000000
     9  C    3.790498   2.500881   1.496155   0.000000
    10  C    4.505373   3.268214   2.480668   1.402419   0.000000
    11  C    5.850464   4.556727   3.778687   2.437673   1.390393
    12  C    6.497812   5.135152   4.286821   2.792819   2.393949
    13  N    7.941166   6.568688   5.752228   4.258401   3.735578
    14  O    8.647602   7.267046   6.439529   4.959245   4.710836
    15  O    8.518961   7.176368   6.409968   4.958731   4.118038
    16  C    6.078023   4.736002   3.848606   2.451613   2.797961
    17  C    4.783722   3.497102   2.573844   1.405302   2.397692
    18  N    4.867079   3.788680   3.020901   2.500904   3.759535
    19  O    4.055520   3.180123   2.770118   2.837390   4.213096
    20  O    6.032324   5.006745   4.163115   3.547602   4.677498
    21  C    2.842175   2.449789   1.403350   2.498630   3.341176
    22  C    4.259445   3.837840   2.596322   3.106113   3.783434
    23  C    5.453778   4.731972   3.340640   3.145975   3.622435
    24  C    4.674093   4.648904   3.642664   4.426787   5.069813
    25  C    3.797479   4.168730   3.556183   4.726271   5.434979
    26  C    4.560060   5.269236   4.903532   6.166492   6.848046
    27  N    2.488092   2.836173   2.427895   3.788824   4.566299
    28  B    1.548392   2.625194   3.008865   4.500789   5.233507
    29  F    2.421598   3.568557   4.012959   5.489337   6.407796
    30  F    2.424084   3.543113   3.966330   5.380207   5.822951
    31  H    4.238641   3.035228   3.430659   2.925034   2.830365
    32  H    4.186679   2.982350   3.344358   2.928081   3.555465
    33  H    4.390288   3.499917   4.351343   4.214464   4.485433
    34  H    3.283934   3.308595   4.668583   5.312902   5.744937
    35  H    2.820624   4.073290   5.187380   6.494932   6.942648
    36  H    3.383020   4.353371   5.686765   6.825211   7.355905
    37  H    2.838714   4.085335   5.199761   6.540518   7.303310
    38  H    4.253915   3.221147   2.646751   2.146400   1.083643
    39  H    6.552091   5.323494   4.636647   3.419581   2.156139
    40  H    6.895491   5.581301   4.725954   3.429102   3.879098
    41  H    5.585522   4.709420   3.338849   2.806657   2.877484
    42  H    6.341444   5.736502   4.366445   4.226426   4.581437
    43  H    5.710481   4.876552   3.510062   3.119163   3.842746
    44  H    5.740846   5.724627   4.672070   5.315464   5.882843
    45  H    4.512479   5.369323   5.181726   6.494175   7.021537
    46  H    4.554407   5.396701   5.199122   6.537261   7.374535
    47  H    5.602773   6.211236   5.685763   6.825074   7.464025
                   11         12         13         14         15
    11  C    0.000000
    12  C    1.393093   0.000000
    13  N    2.467595   1.465603   0.000000
    14  O    3.570062   2.317674   1.232341   0.000000
    15  O    2.729217   2.315368   1.232081   2.174404   0.000000
    16  C    2.433307   1.387157   2.452366   2.713027   3.555952
    17  C    2.775684   2.377026   3.716596   4.100831   4.691459
    18  N    4.241742   3.698569   4.878753   4.974613   5.967684
    19  O    4.969007   4.655872   5.919812   6.088992   6.952433
    20  O    4.912152   4.088196   5.010995   4.829492   6.187736
    21  C    4.592824   5.096405   6.526261   7.187409   7.170276
    22  C    4.785966   5.161456   6.468854   7.067203   7.107407
    23  C    4.223546   4.368036   5.494916   6.012765   6.145395
    24  C    6.115759   6.543290   7.829596   8.417532   8.433006
    25  C    6.662489   7.205438   8.586731   9.224756   9.185044
    26  C    8.104122   8.689066  10.072976  10.714867  10.649091
    27  N    5.885677   6.468875   7.908234   8.579557   8.519597
    28  B    6.615843   7.280077   8.742367   9.446162   9.322293
    29  F    7.762829   8.275977   9.739678  10.329964  10.422164
    30  F    7.204753   8.063067   9.497221  10.316634   9.930926
    31  H    3.335586   3.840766   4.919177   5.674390   5.330162
    32  H    4.080204   4.057615   5.175886   5.600428   5.926912
    33  H    5.038239   5.317169   6.320864   6.871733   6.831569
    34  H    6.727961   7.268019   8.479245   9.121075   8.968535
    35  H    8.265037   9.086077  10.485923  11.274493  10.918372
    36  H    8.574852   9.250208  10.592512  11.285727  11.083816
    37  H    8.615311   9.198674  10.619253  11.245532  11.229160
    38  H    2.143627   3.378092   4.608277   5.669449   4.778619
    39  H    1.082366   2.154574   2.682441   3.905351   2.426923
    40  H    3.415210   2.157527   2.675053   2.416488   3.898063
    41  H    3.318504   3.623092   4.709025   5.380336   5.224522
    42  H    5.066735   5.191225   6.167065   6.636827   6.747128
    43  H    4.295937   4.098859   5.176458   5.493630   6.004994
    44  H    6.807016   7.175932   8.367338   8.908418   8.947263
    45  H    8.317135   9.050077  10.442816  11.178805  10.924967
    46  H    8.657404   9.152398  10.563376  11.134694  11.222297
    47  H    8.641583   9.186536  10.514440  11.127435  11.078055
                   16         17         18         19         20
    16  C    0.000000
    17  C    1.389769   0.000000
    18  N    2.427405   1.466934   0.000000
    19  O    3.495222   2.320258   1.230905   0.000000
    20  O    2.719200   2.312135   1.232381   2.175104   0.000000
    21  C    4.628840   3.388118   3.607796   3.381836   4.538626
    22  C    4.715001   3.698988   3.919739   4.029709   4.538287
    23  C    3.990473   3.358803   3.768978   4.318218   4.101208
    24  C    6.087888   5.042857   5.078227   5.006929   5.620502
    25  C    6.726190   5.515206   5.464082   5.080962   6.186910
    26  C    8.203902   6.968148   6.818714   6.309905   7.510110
    27  N    5.990519   4.698062   4.712863   4.201772   5.629936
    28  B    6.824119   5.486654   5.457264   4.683984   6.496951
    29  F    7.639096   6.255918   5.909758   4.958826   6.840386
    30  F    7.800985   6.533373   6.697196   6.006642   7.758597
    31  H    3.947039   3.499431   4.384968   4.348400   5.459840
    32  H    3.558377   2.925814   3.256661   3.046305   4.277041
    33  H    5.130369   4.565468   4.987117   4.607494   6.037920
    34  H    6.983184   6.021110   6.182753   5.377702   7.342131
    35  H    8.805382   7.560942   7.642059   6.727896   8.797082
    36  H    8.890775   7.705268   7.676838   6.674935   8.822539
    37  H    8.662210   7.349132   7.097470   6.013940   8.159859
    38  H    3.881510   3.381333   4.640252   4.910883   5.628230
    39  H    3.409393   3.858004   5.323826   6.034329   5.967123
    40  H    1.081144   2.154647   2.624064   3.775339   2.443780
    41  H    3.570701   3.166113   3.982115   4.648587   4.410117
    42  H    4.883224   4.390106   4.720461   5.283256   4.876063
    43  H    3.430882   2.866194   3.015153   3.724771   3.120175
    44  H    6.741558   5.816588   5.822995   5.855770   6.195306
    45  H    8.691335   7.457867   7.452924   6.914685   8.251573
    46  H    8.535821   7.236443   6.887794   6.224611   7.557250
    47  H    8.711925   7.550303   7.393383   6.998181   7.959372
                   21         22         23         24         25
    21  C    0.000000
    22  C    1.435052   0.000000
    23  C    2.656520   1.498767   0.000000
    24  C    2.256158   1.391064   2.555651   0.000000
    25  C    2.235920   2.273804   3.718870   1.407759   0.000000
    26  C    3.670231   3.726479   5.112706   2.604167   1.490845
    27  N    1.402921   2.294142   3.763337   2.247339   1.351835
    28  B    2.630014   3.799842   5.221721   3.751027   2.582243
    29  F    3.580108   4.601661   6.035299   4.340417   3.076140
    30  F    3.538065   4.547544   5.968892   4.306460   3.075548
    31  H    4.808793   5.830526   6.045120   7.004749   6.902714
    32  H    4.700098   5.714649   5.936135   6.879849   6.781275
    33  H    5.723497   6.918385   7.319437   7.978285   7.653612
    34  H    5.725327   7.137686   8.006129   7.828682   7.070912
    35  H    5.387735   6.687764   8.018099   6.713778   5.494614
    36  H    6.218524   7.619156   8.835793   7.854056   6.724102
    37  H    5.397381   6.699577   8.031831   6.721217   5.497168
    38  H    3.369244   3.920008   4.017324   5.039255   5.251159
    39  H    5.394049   5.545015   4.960967   6.807533   7.357381
    40  H    5.436678   5.426771   4.601099   6.752768   7.446924
    41  H    2.986856   2.166289   1.093840   3.324914   4.361783
    42  H    3.501865   2.128222   1.092875   2.652691   4.012127
    43  H    3.067450   2.163082   1.095572   3.233564   4.310040
    44  H    3.309399   2.210441   2.899058   1.081727   2.213873
    45  H    4.074779   4.315429   5.724989   3.317132   2.140072
    46  H    4.085679   4.315402   5.719397   3.307869   2.140890
    47  H    4.354369   4.062598   5.276519   2.733561   2.130063
                   26         27         28         29         30
    26  C    0.000000
    27  N    2.500093   0.000000
    28  B    3.068094   1.549900   0.000000
    29  F    3.121199   2.422857   1.402334   0.000000
    30  F    3.160616   2.423435   1.403519   2.285296   0.000000
    31  H    8.146719   5.667911   5.604068   6.565274   6.253750
    32  H    8.025410   5.556586   5.529866   6.187134   6.504517
    33  H    8.752704   6.331220   5.915647   6.592473   6.640459
    34  H    7.802386   5.738958   4.737410   5.177335   5.225352
    35  H    5.550712   4.538803   3.028858   3.241571   2.649984
    36  H    6.942357   5.607500   4.144286   4.151591   4.216365
    37  H    5.548632   4.541326   3.056135   2.596873   3.361561
    38  H    6.564601   4.380491   4.915531   6.210060   5.259773
    39  H    8.756681   6.620078   7.307486   8.532800   7.735202
    40  H    8.906570   6.771558   7.625001   8.318166   8.685004
    41  H    5.781367   4.215166   5.555142   6.544922   6.187193
    42  H    5.240787   4.387113   5.914000   6.663839   6.552661
    43  H    5.703976   4.238243   5.624137   6.291869   6.558510
    44  H    2.958826   3.283446   4.735820   5.212483   5.178203
    45  H    1.094718   2.821283   3.004829   3.221616   2.604407
    46  H    1.094734   2.836473   3.068823   2.624483   3.365240
    47  H    1.091215   3.382394   4.139045   4.168606   4.180433
                   31         32         33         34         35
    31  H    0.000000
    32  H    1.762749   0.000000
    33  H    1.768926   1.769209   0.000000
    34  H    3.650868   3.682617   2.577125   0.000000
    35  H    6.218205   6.432542   5.946558   3.728703   0.000000
    36  H    5.958306   5.966513   5.194065   2.664022   1.778680
    37  H    6.441512   6.166219   5.893466   3.696800   1.760368
    38  H    3.062553   4.115025   4.697221   5.590354   6.412476
    39  H    3.858501   4.897573   5.599532   7.282589   8.774445
    40  H    4.765637   4.107395   5.738199   7.684596   9.645842
    41  H    5.545585   5.697986   6.996124   7.883311   8.131182
    42  H    7.107262   7.026239   8.407736   9.032990   8.784266
    43  H    6.013395   5.627130   7.172978   8.049209   8.411077
    44  H    7.992745   7.864005   9.019234   8.909818   7.668313
    45  H    8.204382   8.273570   8.802252   7.657110   5.033587
    46  H    8.386605   8.079919   8.786267   7.675286   5.381222
    47  H    9.006866   8.883692   9.706924   8.864782   6.612110
                   36         37         38         39         40
    36  H    0.000000
    37  H    1.778818   0.000000
    38  H    6.984629   7.015843   0.000000
    39  H    9.130369   9.296518   2.480757   0.000000
    40  H    9.636542   9.358617   4.962628   4.304309   0.000000
    41  H    8.918774   8.317563   3.265432   3.950584   4.318503
    42  H    9.717799   8.824269   4.893742   5.690956   5.395041
    43  H    9.046612   8.225621   4.476522   5.161787   3.844204
    44  H    8.869280   7.675761   5.870578   7.448838   7.333387
    45  H    6.590337   5.324281   6.576719   8.877208   9.477207
    46  H    6.637770   5.076714   7.165548   9.385401   9.172430
    47  H    8.028708   6.616957   7.208299   9.268100   9.371621
                   41         42         43         44         45
    41  H    0.000000
    42  H    1.769078   0.000000
    43  H    1.763514   1.764484   0.000000
    44  H    3.725849   2.561884   3.577384   0.000000
    45  H    6.240398   5.894497   6.417248   3.721066   0.000000
    46  H    6.459519   5.922267   6.148128   3.702423   1.760474
    47  H    6.010308   5.176786   5.900060   2.662430   1.778970
                   46         47
    46  H    0.000000
    47  H    1.778623   0.000000
 Stoichiometry    C19H17BF2N4O4
 Framework group  C1[X(C19H17BF2N4O4)]
 Deg. of freedom   135
 Full point group                 C1      NOp   1
 Largest Abelian subgroup         C1      NOp   1
 Largest concise Abelian subgroup C1      NOp   1
                         Standard orientation:                         
 ---------------------------------------------------------------------
 Center     Atomic      Atomic             Coordinates (Angstroms)
 Number     Number       Type             X           Y           Z
 ---------------------------------------------------------------------
      1          6           0       -0.751209    3.171212    0.137888
      2          6           0        0.634051    2.617379    0.005949
      3          6           0        1.798992    3.378254    0.016443
      4          6           0        2.902877    2.510281   -0.082696
      5          6           0        4.350073    2.867786   -0.109640
      6          7           0        2.456201    1.235403   -0.152124
      7          6           0        1.055651    1.252712   -0.109803
      8          6           0        0.334949    0.049757   -0.147715
      9          6           0       -1.157944    0.095692   -0.235129
     10          6           0       -1.730990    0.266353   -1.503700
     11          6           0       -3.109593    0.284215   -1.683499
     12          6           0       -3.930451    0.114280   -0.570834
     13          7           0       -5.385812    0.132663   -0.742816
     14          8           0       -6.091553   -0.009265    0.257409
     15          8           0       -5.831671    0.288912   -1.880717
     16          6           0       -3.416264   -0.078054    0.703067
     17          6           0       -2.034317   -0.073981    0.850253
     18          7           0       -1.524321   -0.265834    2.212234
     19          8           0       -0.438159    0.233248    2.505997
     20          8           0       -2.218097   -0.917180    2.995296
     21          6           0        0.982058   -1.193871   -0.211194
     22          6           0        0.486264   -2.539345   -0.268300
     23          6           0       -0.925855   -3.041557   -0.266152
     24          6           0        1.609548   -3.358366   -0.318280
     25          6           0        2.759870   -2.547131   -0.297265
     26          6           0        4.185914   -2.979597   -0.341894
     27          7           0        2.383701   -1.250383   -0.230941
     28          5           0        3.341024   -0.031607   -0.248515
     29          9           0        4.221570   -0.091555    0.841249
     30          9           0        4.084693   -0.017132   -1.438730
     31          1           0       -1.366312    2.968491   -0.744474
     32          1           0       -1.273581    2.747133    1.001861
     33          1           0       -0.702687    4.254607    0.272682
     34          1           0        1.860502    4.455337    0.095644
     35          1           0        4.827465    2.492000   -1.020449
     36          1           0        4.471307    3.951490   -0.068218
     37          1           0        4.878219    2.418790    0.737664
     38          1           0       -1.078152    0.383144   -2.360697
     39          1           0       -3.539601    0.424940   -2.666762
     40          1           0       -4.064810   -0.214500    1.557258
     41          1           0       -1.538531   -2.566648   -1.037888
     42          1           0       -0.928381   -4.119093   -0.448593
     43          1           0       -1.421861   -2.869693    0.695471
     44          1           0        1.612158   -4.438973   -0.367432
     45          1           0        4.699659   -2.536718   -1.201156
     46          1           0        4.720822   -2.652209    0.555398
     47          1           0        4.248022   -4.066671   -0.413754
 ---------------------------------------------------------------------
 Rotational constants (GHZ):           0.2765098           0.1095666           0.0943434
 Leave Link  202 at Sat Oct 25 13:12:15 2025, MaxMem= 30870077440 cpu:               0.3 elap:               0.0
 (Enter /public/software/gauss/g16/l301.exe)
 Standard basis: def2TZVPP (5D, 7F)
 Ernie: Thresh=  0.10000D-02 Tol=  0.10000D-05 Strict=F.
 There are  1335 symmetry adapted cartesian basis functions of A   symmetry.
 There are  1168 symmetry adapted basis functions of A   symmetry.
  1168 basis functions,  1819 primitive gaussians,  1335 cartesian basis functions
   107 alpha electrons      107 beta electrons
       nuclear repulsion energy      3024.9075740401 Hartrees.
 IExCor= 4336 DFT=T Ex+Corr=M062X ExCW=0 ScaHFX=  0.540000
 ScaDFX=  1.000000  1.000000  1.000000  1.000000 ScalE2=  1.000000  1.000000
 IRadAn=      5 IRanWt=     -1 IRanGd=            0 ICorTp=0 IEmpDi=131
 NAtoms=   47 NActive=   47 NUniq=   47 SFac= 1.00D+00 NAtFMM=   60 NAOKFM=F Big=F
 Integral buffers will be    131072 words long.
 Raffenetti 2 integral format.
 Two-electron integral symmetry is turned on.
 R6Disp:  Grimme-D3 Dispersion energy=       -0.0041362562 Hartrees.
 Nuclear repulsion after empirical dispersion term =     3024.9034377839 Hartrees.
 ------------------------------------------------------------------------------
 Polarizable Continuum Model (PCM)
 =================================
 Model                : PCM.
 Atomic radii         : UFF (Universal Force Field).
 Polarization charges : Total charges.
 Charge compensation  : None.
 Solution method      : On-the-fly selection.
 Cavity type          : Scaled VdW (van der Waals Surface) (Alpha=1.100).
 Cavity algorithm     : GePol (No added spheres)
                        Default sphere list used, NSphG=   47.
                        Lebedev-Laikov grids with approx.  5.0 points / Ang**2.
                        Smoothing algorithm: York/Karplus (Gamma=1.0000).
                        Polarization charges: spherical gaussians, with
                                              point-specific exponents (IZeta= 3).
                        Self-potential: point-specific (ISelfS= 7).
                        Self-field    : sphere-specific E.n sum rule (ISelfD= 2).
 Solvent              : Water, Eps=  78.355300 Eps(inf)=   1.777849
 ------------------------------------------------------------------------------
 GePol: Number of generator spheres                  =      47
 GePol: Total number of spheres                      =      47
 GePol: Number of exposed spheres                    =      47 (100.00%)
 GePol: Number of points                             =    3492
 GePol: Average weight of points                     =       0.13
 GePol: Minimum weight of points                     =   0.13D-11
 GePol: Maximum weight of points                     =    0.20577
 GePol: Number of points with low weight             =     242
 GePol: Fraction of low-weight points (<1% of avg)   =       6.93%
 GePol: Cavity surface area                          =    437.073 Ang**2
 GePol: Cavity volume                                =    508.971 Ang**3
 Leave Link  301 at Sat Oct 25 13:12:15 2025, MaxMem= 30870077440 cpu:               3.5 elap:               0.1
 (Enter /public/software/gauss/g16/l302.exe)
 NPDir=0 NMtPBC=     1 NCelOv=     1 NCel=       1 NClECP=     1 NCelD=      1
         NCelK=      1 NCelE2=     1 NClLst=     1 CellRange=     0.0.
 One-electron integrals computed using PRISM.
 One-electron integral symmetry used in STVInt
   1 Symmetry operations used in ECPInt.
 ECPInt:  NShTT=   93528 NPrTT=  271927 LenC2=   76725 LenP2D=  156633.
 LDataN:  DoStor=T MaxTD1= 6 Len=  172
 NBasis=  1168 RedAO= T EigKep=  3.08D-06  NBF=  1168
 NBsUse=  1168 1.00D-06 EigRej= -1.00D+00 NBFU=  1168
 Precomputing XC quadrature grid using
 IXCGrd= 4 IRadAn=           5 IRanWt=          -1 IRanGd=           0 AccXCQ= 0.00D+00.
 Generated NRdTot=       0 NPtTot=           0 NUsed=           0 NTot=          32
 NSgBfM=  1298  1298  1298  1298  1298 MxSgAt=    47 MxSgA2=    47.
 Leave Link  302 at Sat Oct 25 13:12:18 2025, MaxMem= 30870077440 cpu:             199.4 elap:               3.1
 (Enter /public/software/gauss/g16/l303.exe)
 DipDrv:  MaxL=1.
 Leave Link  303 at Sat Oct 25 13:12:18 2025, MaxMem= 30870077440 cpu:              13.2 elap:               0.2
 (Enter /public/software/gauss/g16/l401.exe)
 ExpMin= 6.06D-02 ExpMax= 3.55D+04 ExpMxC= 1.21D+03 IAcc=3 IRadAn=         5 AccDes= 0.00D+00
 Harris functional with IExCor= 1009 and IRadAn=       5 diagonalized for initial guess.
 HarFok:  IExCor= 1009 AccDes= 0.00D+00 IRadAn=         5 IDoV= 1 UseB2=F ITyADJ=14
 ICtDFT=  3500011 ScaDFX=  1.000000  1.000000  1.000000  1.000000
 FoFCou: FMM=F IPFlag=           0 FMFlag=      100000 FMFlg1=           0
         NFxFlg=           0 DoJE=T BraDBF=F KetDBF=T FulRan=T
         wScrn=  0.000000 ICntrl=       500 IOpCl=  0 I1Cent=   200000004 NGrid=           0
         NMat0=    1 NMatS0=      1 NMatT0=    0 NMatD0=    1 NMtDS0=    0 NMtDT0=    0
 Petite list used in FoFCou.
 Harris En= -1477.99714427199    
 JPrj=0 DoOrth=F DoCkMO=F.
 Leave Link  401 at Sat Oct 25 13:12:23 2025, MaxMem= 30870077440 cpu:             313.7 elap:               5.0
 (Enter /public/software/gauss/g16/l502.exe)
 Integral symmetry usage will be decided dynamically.
 Closed shell SCF:
 Using DIIS extrapolation, IDIIS=  1040.
 NGot= 30870077440 LenX= 30866416311 LenY= 30864632751
 Requested convergence on RMS density matrix=1.00D-08 within 128 cycles.
 Requested convergence on MAX density matrix=1.00D-06.
 Requested convergence on             energy=1.00D-06.
 No special actions if energy rises.
 Fock matrices will be formed incrementally for  20 cycles.

 Cycle   1  Pass 1  IDiag  1:
 FoFJK:  IHMeth= 1 ICntrl=       0 DoSepK=F KAlg= 0 I1Cent=           0 FoldK=F
 IRaf= 740000000 NMat=       1 IRICut=       1 DoRegI=T DoRafI=F ISym2E= 0 IDoP0=0 IntGTp=1.
 FoFCou: FMM=F IPFlag=           0 FMFlag=      100000 FMFlg1=           0
         NFxFlg=           0 DoJE=F BraDBF=F KetDBF=F FulRan=T
         wScrn=  0.000000 ICntrl=         0 IOpCl=  0 I1Cent=           0 NGrid=           0
         NMat0=    1 NMatS0=      1 NMatT0=    0 NMatD0=    1 NMtDS0=    0 NMtDT0=    0
 Symmetry not used in FoFCou.
 Inv3:  Mode=1 IEnd=    36582192.
 Iteration    1 A*A^-1 deviation from unit magnitude is 9.10D-15 for    386.
 Iteration    1 A*A^-1 deviation from orthogonality  is 4.97D-15 for   3152    575.
 Iteration    1 A^-1*A deviation from unit magnitude is 9.44D-15 for    194.
 Iteration    1 A^-1*A deviation from orthogonality  is 4.12D-15 for   3013   2078.
 E= -1477.93607924168    
 DIIS: error= 2.95D-02 at cycle   1 NSaved=   1.
 NSaved= 1 IEnMin= 1 EnMin= -1477.93607924168     IErMin= 1 ErrMin= 2.95D-02
 ErrMax= 2.95D-02  0.00D+00 EMaxC= 1.00D-01 BMatC= 1.14D+00 BMatP= 1.14D+00
 IDIUse=3 WtCom= 7.05D-01 WtEn= 2.95D-01
 Coeff-Com:  0.100D+01
 Coeff-En:   0.100D+01
 Coeff:      0.100D+01
 Gap=     0.168 Goal=   None    Shift=    0.000
 GapD=    0.168 DampG=1.000 DampE=0.500 DampFc=0.5000 IDamp=-1.
 Damping current iteration by 5.00D-01
 RMSDP=2.82D-03 MaxDP=6.90D-01              OVMax= 2.60D-01

 Cycle   2  Pass 1  IDiag  1:
 RMSU=  1.41D-03    CP:  1.02D+00
 E= -1478.29454365107     Delta-E=       -0.358464409391 Rises=F Damp=T
 DIIS: error= 5.80D-03 at cycle   2 NSaved=   2.
 NSaved= 2 IEnMin= 2 EnMin= -1478.29454365107     IErMin= 2 ErrMin= 5.80D-03
 ErrMax= 5.80D-03  0.00D+00 EMaxC= 1.00D-01 BMatC= 1.15D-01 BMatP= 1.14D+00
 IDIUse=3 WtCom= 9.42D-01 WtEn= 5.80D-02
 Coeff-Com:  0.264D-01 0.974D+00
 Coeff-En:   0.632D-01 0.937D+00
 Coeff:      0.286D-01 0.971D+00
 Gap=     0.180 Goal=   None    Shift=    0.000
 RMSDP=7.94D-04 MaxDP=1.56D-01 DE=-3.58D-01 OVMax= 1.68D-01

 Cycle   3  Pass 1  IDiag  1:
 RMSU=  7.75D-04    CP:  9.94D-01  1.06D+00
 E= -1478.69313191899     Delta-E=       -0.398588267921 Rises=F Damp=F
 DIIS: error= 7.31D-03 at cycle   3 NSaved=   3.
 NSaved= 3 IEnMin= 3 EnMin= -1478.69313191899     IErMin= 2 ErrMin= 5.80D-03
 ErrMax= 7.31D-03  0.00D+00 EMaxC= 1.00D-01 BMatC= 5.39D-02 BMatP= 1.15D-01
 IDIUse=3 WtCom= 9.27D-01 WtEn= 7.31D-02
 Coeff-Com: -0.749D-01 0.410D+00 0.665D+00
 Coeff-En:   0.000D+00 0.000D+00 0.100D+01
 Coeff:     -0.694D-01 0.380D+00 0.689D+00
 Gap=     0.168 Goal=   None    Shift=    0.000
 RMSDP=4.01D-04 MaxDP=8.57D-02 DE=-3.99D-01 OVMax= 4.59D-02

 Cycle   4  Pass 1  IDiag  1:
 RMSU=  3.18D-04    CP:  1.00D+00  1.22D+00  8.75D-01
 E= -1478.72730270371     Delta-E=       -0.034170784724 Rises=F Damp=F
 DIIS: error= 1.75D-03 at cycle   4 NSaved=   4.
 NSaved= 4 IEnMin= 4 EnMin= -1478.72730270371     IErMin= 4 ErrMin= 1.75D-03
 ErrMax= 1.75D-03  0.00D+00 EMaxC= 1.00D-01 BMatC= 7.87D-03 BMatP= 5.39D-02
 IDIUse=3 WtCom= 9.83D-01 WtEn= 1.75D-02
 Coeff-Com: -0.249D-01 0.683D-01 0.321D+00 0.636D+00
 Coeff-En:   0.000D+00 0.000D+00 0.939D-01 0.906D+00
 Coeff:     -0.245D-01 0.671D-01 0.317D+00 0.640D+00
 Gap=     0.168 Goal=   None    Shift=    0.000
 RMSDP=1.66D-04 MaxDP=3.62D-02 DE=-3.42D-02 OVMax= 1.51D-02

 Cycle   5  Pass 1  IDiag  1:
 RMSU=  8.19D-05    CP:  1.00D+00  1.16D+00  9.42D-01  6.84D-01
 E= -1478.73316085333     Delta-E=       -0.005858149612 Rises=F Damp=F
 DIIS: error= 3.08D-04 at cycle   5 NSaved=   5.
 NSaved= 5 IEnMin= 5 EnMin= -1478.73316085333     IErMin= 5 ErrMin= 3.08D-04
 ErrMax= 3.08D-04  0.00D+00 EMaxC= 1.00D-01 BMatC= 3.92D-04 BMatP= 7.87D-03
 IDIUse=3 WtCom= 9.97D-01 WtEn= 3.08D-03
 Coeff-Com: -0.900D-02 0.174D-01 0.132D+00 0.314D+00 0.545D+00
 Coeff-En:   0.000D+00 0.000D+00 0.000D+00 0.000D+00 0.100D+01
 Coeff:     -0.897D-02 0.173D-01 0.132D+00 0.313D+00 0.547D+00
 Gap=     0.168 Goal=   None    Shift=    0.000
 RMSDP=4.92D-05 MaxDP=1.19D-02 DE=-5.86D-03 OVMax= 5.21D-03

 Cycle   6  Pass 1  IDiag  1:
 RMSU=  2.50D-05    CP:  1.00D+00  1.18D+00  9.31D-01  7.53D-01  7.67D-01
 E= -1478.73344399351     Delta-E=       -0.000283140182 Rises=F Damp=F
 DIIS: error= 1.55D-04 at cycle   6 NSaved=   6.
 NSaved= 6 IEnMin= 6 EnMin= -1478.73344399351     IErMin= 6 ErrMin= 1.55D-04
 ErrMax= 1.55D-04  0.00D+00 EMaxC= 1.00D-01 BMatC= 5.56D-05 BMatP= 3.92D-04
 IDIUse=3 WtCom= 9.98D-01 WtEn= 1.55D-03
 Coeff-Com: -0.185D-02 0.135D-02 0.342D-01 0.938D-01 0.300D+00 0.572D+00
 Coeff-En:   0.000D+00 0.000D+00 0.000D+00 0.000D+00 0.697D-01 0.930D+00
 Coeff:     -0.185D-02 0.135D-02 0.342D-01 0.937D-01 0.300D+00 0.573D+00
 Gap=     0.168 Goal=   None    Shift=    0.000
 RMSDP=1.52D-05 MaxDP=3.73D-03 DE=-2.83D-04 OVMax= 1.77D-03

 Cycle   7  Pass 1  IDiag  1:
 RMSU=  9.66D-06    CP:  1.00D+00  1.17D+00  9.36D-01  7.35D-01  8.66D-01
                    CP:  8.91D-01
 E= -1478.73348866104     Delta-E=       -0.000044667528 Rises=F Damp=F
 DIIS: error= 4.58D-05 at cycle   7 NSaved=   7.
 NSaved= 7 IEnMin= 7 EnMin= -1478.73348866104     IErMin= 7 ErrMin= 4.58D-05
 ErrMax= 4.58D-05  0.00D+00 EMaxC= 1.00D-01 BMatC= 6.36D-06 BMatP= 5.56D-05
 IDIUse=1 WtCom= 1.00D+00 WtEn= 0.00D+00
 Coeff-Com:  0.688D-03-0.239D-02-0.606D-02-0.970D-02 0.523D-01 0.282D+00
 Coeff-Com:  0.683D+00
 Coeff:      0.688D-03-0.239D-02-0.606D-02-0.970D-02 0.523D-01 0.282D+00
 Coeff:      0.683D+00
 Gap=     0.168 Goal=   None    Shift=    0.000
 RMSDP=5.92D-06 MaxDP=1.70D-03 DE=-4.47D-05 OVMax= 6.32D-04

 Cycle   8  Pass 1  IDiag  1:
 RMSU=  3.91D-06    CP:  1.00D+00  1.18D+00  9.35D-01  7.41D-01  8.74D-01
                    CP:  1.02D+00  9.09D-01
 E= -1478.73349399354     Delta-E=       -0.000005332506 Rises=F Damp=F
 DIIS: error= 1.60D-05 at cycle   8 NSaved=   8.
 NSaved= 8 IEnMin= 8 EnMin= -1478.73349399354     IErMin= 8 ErrMin= 1.60D-05
 ErrMax= 1.60D-05  0.00D+00 EMaxC= 1.00D-01 BMatC= 7.34D-07 BMatP= 6.36D-06
 IDIUse=1 WtCom= 1.00D+00 WtEn= 0.00D+00
 Coeff-Com:  0.533D-03-0.123D-02-0.675D-02-0.164D-01-0.165D-01 0.483D-01
 Coeff-Com:  0.305D+00 0.687D+00
 Coeff:      0.533D-03-0.123D-02-0.675D-02-0.164D-01-0.165D-01 0.483D-01
 Coeff:      0.305D+00 0.687D+00
 Gap=     0.168 Goal=   None    Shift=    0.000
 RMSDP=2.12D-06 MaxDP=3.00D-04 DE=-5.33D-06 OVMax= 3.07D-04

 Cycle   9  Pass 1  IDiag  1:
 RMSU=  1.29D-06    CP:  1.00D+00  1.18D+00  9.35D-01  7.43D-01  8.81D-01
                    CP:  1.04D+00  1.01D+00  1.03D+00
 E= -1478.73349462530     Delta-E=       -0.000000631763 Rises=F Damp=F
 DIIS: error= 8.79D-06 at cycle   9 NSaved=   9.
 NSaved= 9 IEnMin= 9 EnMin= -1478.73349462530     IErMin= 9 ErrMin= 8.79D-06
 ErrMax= 8.79D-06  0.00D+00 EMaxC= 1.00D-01 BMatC= 1.77D-07 BMatP= 7.34D-07
 IDIUse=1 WtCom= 1.00D+00 WtEn= 0.00D+00
 Coeff-Com:  0.213D-03-0.399D-03-0.284D-02-0.787D-02-0.154D-01-0.752D-02
 Coeff-Com:  0.846D-01 0.385D+00 0.564D+00
 Coeff:      0.213D-03-0.399D-03-0.284D-02-0.787D-02-0.154D-01-0.752D-02
 Coeff:      0.846D-01 0.385D+00 0.564D+00
 Gap=     0.168 Goal=   None    Shift=    0.000
 RMSDP=9.72D-07 MaxDP=1.72D-04 DE=-6.32D-07 OVMax= 1.40D-04

 Cycle  10  Pass 1  IDiag  1:
 RMSU=  6.17D-07    CP:  1.00D+00  1.18D+00  9.35D-01  7.42D-01  8.85D-01
                    CP:  1.04D+00  1.04D+00  1.07D+00  8.07D-01
 E= -1478.73349478440     Delta-E=       -0.000000159100 Rises=F Damp=F
 DIIS: error= 3.50D-06 at cycle  10 NSaved=  10.
 NSaved=10 IEnMin=10 EnMin= -1478.73349478440     IErMin=10 ErrMin= 3.50D-06
 ErrMax= 3.50D-06  0.00D+00 EMaxC= 1.00D-01 BMatC= 1.35D-08 BMatP= 1.77D-07
 IDIUse=1 WtCom= 1.00D+00 WtEn= 0.00D+00
 Coeff-Com:  0.117D-04 0.162D-04-0.971D-04-0.861D-03-0.414D-02-0.989D-02
 Coeff-Com: -0.129D-01 0.552D-01 0.222D+00 0.750D+00
 Coeff:      0.117D-04 0.162D-04-0.971D-04-0.861D-03-0.414D-02-0.989D-02
 Coeff:     -0.129D-01 0.552D-01 0.222D+00 0.750D+00
 Gap=     0.168 Goal=   None    Shift=    0.000
 RMSDP=3.31D-07 MaxDP=5.60D-05 DE=-1.59D-07 OVMax= 5.30D-05

 Cycle  11  Pass 1  IDiag  1:
 RMSU=  1.80D-07    CP:  1.00D+00  1.18D+00  9.35D-01  7.42D-01  8.85D-01
                    CP:  1.05D+00  1.04D+00  1.11D+00  8.80D-01  1.07D+00
 E= -1478.73349480360     Delta-E=       -0.000000019197 Rises=F Damp=F
 DIIS: error= 7.51D-07 at cycle  11 NSaved=  11.
 NSaved=11 IEnMin=11 EnMin= -1478.73349480360     IErMin=11 ErrMin= 7.51D-07
 ErrMax= 7.51D-07  0.00D+00 EMaxC= 1.00D-01 BMatC= 1.85D-09 BMatP= 1.35D-08
 IDIUse=1 WtCom= 1.00D+00 WtEn= 0.00D+00
 Coeff-Com: -0.235D-04 0.559D-04 0.353D-03 0.782D-03 0.696D-03-0.166D-02
 Coeff-Com: -0.164D-01-0.378D-01-0.229D-01 0.254D+00 0.823D+00
 Coeff:     -0.235D-04 0.559D-04 0.353D-03 0.782D-03 0.696D-03-0.166D-02
 Coeff:     -0.164D-01-0.378D-01-0.229D-01 0.254D+00 0.823D+00
 Gap=     0.168 Goal=   None    Shift=    0.000
 RMSDP=1.23D-07 MaxDP=1.82D-05 DE=-1.92D-08 OVMax= 3.00D-05

 Cycle  12  Pass 1  IDiag  1:
 RMSU=  7.61D-08    CP:  1.00D+00  1.18D+00  9.35D-01  7.42D-01  8.85D-01
                    CP:  1.05D+00  1.05D+00  1.12D+00  8.99D-01  1.17D+00
                    CP:  1.13D+00
 E= -1478.73349480741     Delta-E=       -0.000000003805 Rises=F Damp=F
 DIIS: error= 4.06D-07 at cycle  12 NSaved=  12.
 NSaved=12 IEnMin=12 EnMin= -1478.73349480741     IErMin=12 ErrMin= 4.06D-07
 ErrMax= 4.06D-07  0.00D+00 EMaxC= 1.00D-01 BMatC= 3.91D-10 BMatP= 1.85D-09
 IDIUse=1 WtCom= 1.00D+00 WtEn= 0.00D+00
 Coeff-Com: -0.115D-04 0.222D-04 0.164D-03 0.448D-03 0.778D-03 0.555D-03
 Coeff-Com: -0.582D-02-0.229D-01-0.407D-01 0.204D-01 0.360D+00 0.687D+00
 Coeff:     -0.115D-04 0.222D-04 0.164D-03 0.448D-03 0.778D-03 0.555D-03
 Coeff:     -0.582D-02-0.229D-01-0.407D-01 0.204D-01 0.360D+00 0.687D+00
 Gap=     0.168 Goal=   None    Shift=    0.000
 RMSDP=5.10D-08 MaxDP=6.05D-06 DE=-3.81D-09 OVMax= 1.50D-05

 Cycle  13  Pass 1  IDiag  1:
 RMSU=  3.20D-08    CP:  1.00D+00  1.18D+00  9.35D-01  7.42D-01  8.85D-01
                    CP:  1.05D+00  1.05D+00  1.12D+00  9.06D-01  1.21D+00
                    CP:  1.25D+00  1.18D+00
 E= -1478.73349480795     Delta-E=       -0.000000000545 Rises=F Damp=F
 DIIS: error= 2.90D-07 at cycle  13 NSaved=  13.
 NSaved=13 IEnMin=13 EnMin= -1478.73349480795     IErMin=13 ErrMin= 2.90D-07
 ErrMax= 2.90D-07  0.00D+00 EMaxC= 1.00D-01 BMatC= 9.12D-11 BMatP= 3.91D-10
 IDIUse=1 WtCom= 1.00D+00 WtEn= 0.00D+00
 Coeff-Com:  0.230D-06-0.284D-05-0.104D-04 0.205D-04 0.189D-03 0.708D-03
 Coeff-Com:  0.129D-02-0.887D-03-0.136D-01-0.500D-01-0.420D-01 0.304D+00
 Coeff-Com:  0.800D+00
 Coeff:      0.230D-06-0.284D-05-0.104D-04 0.205D-04 0.189D-03 0.708D-03
 Coeff:      0.129D-02-0.887D-03-0.136D-01-0.500D-01-0.420D-01 0.304D+00
 Coeff:      0.800D+00
 Gap=     0.168 Goal=   None    Shift=    0.000
 RMSDP=3.10D-08 MaxDP=4.48D-06 DE=-5.45D-10 OVMax= 1.08D-05

 Cycle  14  Pass 1  IDiag  1:
 RMSU=  1.65D-08    CP:  1.00D+00  1.18D+00  9.35D-01  7.42D-01  8.85D-01
                    CP:  1.05D+00  1.05D+00  1.12D+00  9.06D-01  1.23D+00
                    CP:  1.31D+00  1.43D+00  1.16D+00
 E= -1478.73349480807     Delta-E=       -0.000000000123 Rises=F Damp=F
 DIIS: error= 1.82D-07 at cycle  14 NSaved=  14.
 NSaved=14 IEnMin=14 EnMin= -1478.73349480807     IErMin=14 ErrMin= 1.82D-07
 ErrMax= 1.82D-07  0.00D+00 EMaxC= 1.00D-01 BMatC= 3.10D-11 BMatP= 9.12D-11
 IDIUse=1 WtCom= 1.00D+00 WtEn= 0.00D+00
 Coeff-Com:  0.264D-05-0.640D-05-0.434D-04-0.884D-04-0.681D-04 0.298D-03
 Coeff-Com:  0.208D-02 0.489D-02 0.170D-02-0.332D-01-0.109D+00 0.946D-02
 Coeff-Com:  0.456D+00 0.668D+00
 Coeff:      0.264D-05-0.640D-05-0.434D-04-0.884D-04-0.681D-04 0.298D-03
 Coeff:      0.208D-02 0.489D-02 0.170D-02-0.332D-01-0.109D+00 0.946D-02
 Coeff:      0.456D+00 0.668D+00
 Gap=     0.168 Goal=   None    Shift=    0.000
 RMSDP=1.59D-08 MaxDP=1.69D-06 DE=-1.23D-10 OVMax= 5.50D-06

 Cycle  15  Pass 1  IDiag  1:
 RMSU=  8.37D-09    CP:  1.00D+00  1.18D+00  9.35D-01  7.42D-01  8.85D-01
                    CP:  1.05D+00  1.05D+00  1.12D+00  9.06D-01  1.23D+00
                    CP:  1.34D+00  1.54D+00  1.38D+00  1.08D+00
 E= -1478.73349480839     Delta-E=       -0.000000000320 Rises=F Damp=F
 DIIS: error= 5.85D-08 at cycle  15 NSaved=  15.
 NSaved=15 IEnMin=15 EnMin= -1478.73349480839     IErMin=15 ErrMin= 5.85D-08
 ErrMax= 5.85D-08  0.00D+00 EMaxC= 1.00D-01 BMatC= 5.08D-12 BMatP= 3.10D-11
 IDIUse=1 WtCom= 1.00D+00 WtEn= 0.00D+00
 Coeff-Com:  0.101D-05-0.196D-05-0.165D-04-0.426D-04-0.792D-04-0.492D-04
 Coeff-Com:  0.578D-03 0.235D-02 0.419D-02-0.260D-02-0.386D-01-0.734D-01
 Coeff-Com:  0.584D-02 0.309D+00 0.793D+00
 Coeff:      0.101D-05-0.196D-05-0.165D-04-0.426D-04-0.792D-04-0.492D-04
 Coeff:      0.578D-03 0.235D-02 0.419D-02-0.260D-02-0.386D-01-0.734D-01
 Coeff:      0.584D-02 0.309D+00 0.793D+00
 Gap=     0.168 Goal=   None    Shift=    0.000
 RMSDP=8.42D-09 MaxDP=1.47D-06 DE=-3.20D-10 OVMax= 3.05D-06

 Cycle  16  Pass 1  IDiag  1:
 RMSU=  3.56D-09    CP:  1.00D+00  1.18D+00  9.35D-01  7.42D-01  8.85D-01
                    CP:  1.05D+00  1.05D+00  1.12D+00  9.06D-01  1.24D+00
                    CP:  1.35D+00  1.59D+00  1.48D+00  1.32D+00  1.11D+00
 E= -1478.73349480842     Delta-E=       -0.000000000026 Rises=F Damp=F
 DIIS: error= 1.69D-08 at cycle  16 NSaved=  16.
 NSaved=16 IEnMin=16 EnMin= -1478.73349480842     IErMin=16 ErrMin= 1.69D-08
 ErrMax= 1.69D-08  0.00D+00 EMaxC= 1.00D-01 BMatC= 7.45D-13 BMatP= 5.08D-12
 IDIUse=1 WtCom= 1.00D+00 WtEn= 0.00D+00
 Coeff-Com: -0.114D-06 0.428D-06 0.178D-05-0.868D-07-0.206D-04-0.888D-04
 Coeff-Com: -0.179D-03-0.828D-05 0.158D-02 0.560D-02 0.612D-02-0.333D-01
 Coeff-Com: -0.868D-01-0.726D-02 0.306D+00 0.808D+00
 Coeff:     -0.114D-06 0.428D-06 0.178D-05-0.868D-07-0.206D-04-0.888D-04
 Coeff:     -0.179D-03-0.828D-05 0.158D-02 0.560D-02 0.612D-02-0.333D-01
 Coeff:     -0.868D-01-0.726D-02 0.306D+00 0.808D+00
 Gap=     0.168 Goal=   None    Shift=    0.000
 RMSDP=3.40D-09 MaxDP=6.91D-07 DE=-2.64D-11 OVMax= 1.20D-06

 Error on total polarization charges =  0.01597
 SCF Done:  E(RM062X) =  -1478.73349481     A.U. after   16 cycles
            NFock= 16  Conv=0.34D-08     -V/T= 2.0052
 KE= 1.471123908754D+03 PE=-9.505401930754D+03 EE= 3.530641089408D+03
 Leave Link  502 at Sat Oct 25 13:23:07 2025, MaxMem= 30870077440 cpu:           40747.9 elap:             644.2
 (Enter /public/software/gauss/g16/l601.exe)
 Copying SCF densities to generalized density rwf, IOpCl= 0 IROHF=0.

 **********************************************************************

            Population analysis using the SCF density.

 **********************************************************************

 Orbital symmetries:
       Occupied  (A) (A) (A) (A) (A) (A) (A) (A) (A) (A) (A) (A)
                 (A) (A) (A) (A) (A) (A) (A) (A) (A) (A) (A) (A)
                 (A) (A) (A) (A) (A) (A) (A) (A) (A) (A) (A) (A)
                 (A) (A) (A) (A) (A) (A) (A) (A) (A) (A) (A) (A)
                 (A) (A) (A) (A) (A) (A) (A) (A) (A) (A) (A) (A)
                 (A) (A) (A) (A) (A) (A) (A) (A) (A) (A) (A) (A)
                 (A) (A) (A) (A) (A) (A) (A) (A) (A) (A) (A) (A)
                 (A) (A) (A) (A) (A) (A) (A) (A) (A) (A) (A) (A)
                 (A) (A) (A) (A) (A) (A) (A) (A) (A) (A) (A)
       Virtual   (A) (A) (A) (A) (A) (A) (A) (A) (A) (A) (A) (A)
                 (A) (A) (A) (A) (A) (A) (A) (A) (A) (A) (A) (A)
                 (A) (A) (A) (A) (A) (A) (A) (A) (A) (A) (A) (A)
                 (A) (A) (A) (A) (A) (A) (A) (A) (A) (A) (A) (A)
                 (A) (A) (A) (A) (A) (A) (A) (A) (A) (A) (A) (A)
                 (A) (A) (A) (A) (A) (A) (A) (A) (A) (A) (A) (A)
                 (A) (A) (A) (A) (A) (A) (A) (A) (A) (A) (A) (A)
                 (A) (A) (A) (A) (A) (A) (A) (A) (A) (A) (A) (A)
                 (A) (A) (A) (A) (A) (A) (A) (A) (A) (A) (A) (A)
                 (A) (A) (A) (A) (A) (A) (A) (A) (A) (A) (A) (A)
                 (A) (A) (A) (A) (A) (A) (A) (A) (A) (A) (A) (A)
                 (A) (A) (A) (A) (A) (A) (A) (A) (A) (A) (A) (A)
                 (A) (A) (A) (A) (A) (A) (A) (A) (A) (A) (A) (A)
                 (A) (A) (A) (A) (A) (A) (A) (A) (A) (A) (A) (A)
                 (A) (A) (A) (A) (A) (A) (A) (A) (A) (A) (A) (A)
                 (A) (A) (A) (A) (A) (A) (A) (A) (A) (A) (A) (A)
                 (A) (A) (A) (A) (A) (A) (A) (A) (A) (A) (A) (A)
                 (A) (A) (A) (A) (A) (A) (A) (A) (A) (A) (A) (A)
                 (A) (A) (A) (A) (A) (A) (A) (A) (A) (A) (A) (A)
                 (A) (A) (A) (A) (A) (A) (A) (A) (A) (A) (A) (A)
                 (A) (A) (A) (A) (A) (A) (A) (A) (A) (A) (A) (A)
                 (A) (A) (A) (A) (A) (A) (A) (A) (A) (A) (A) (A)
                 (A) (A) (A) (A) (A) (A) (A) (A) (A) (A) (A) (A)
                 (A) (A) (A) (A) (A) (A) (A) (A) (A) (A) (A) (A)
                 (A) (A) (A) (A) (A) (A) (A) (A) (A) (A) (A) (A)
                 (A) (A) (A) (A) (A) (A) (A) (A) (A) (A) (A) (A)
                 (A) (A) (A) (A) (A) (A) (A) (A) (A) (A) (A) (A)
                 (A) (A) (A) (A) (A) (A) (A) (A) (A) (A) (A) (A)
                 (A) (A) (A) (A) (A) (A) (A) (A) (A) (A) (A) (A)
                 (A) (A) (A) (A) (A) (A) (A) (A) (A) (A) (A) (A)
                 (A) (A) (A) (A) (A) (A) (A) (A) (A) (A) (A) (A)
                 (A) (A) (A) (A) (A) (A) (A) (A) (A) (A) (A) (A)
                 (A) (A) (A) (A) (A) (A) (A) (A) (A) (A) (A) (A)
                 (A) (A) (A) (A) (A) (A) (A) (A) (A) (A) (A) (A)
                 (A) (A) (A) (A) (A) (A) (A) (A) (A) (A) (A) (A)
                 (A) (A) (A) (A) (A) (A) (A) (A) (A) (A) (A) (A)
                 (A) (A) (A) (A) (A) (A) (A) (A) (A) (A) (A) (A)
                 (A) (A) (A) (A) (A) (A) (A) (A) (A) (A) (A) (A)
                 (A) (A) (A) (A) (A) (A) (A) (A) (A) (A) (A) (A)
                 (A) (A) (A) (A) (A) (A) (A) (A) (A) (A) (A) (A)
                 (A) (A) (A) (A) (A) (A) (A) (A) (A) (A) (A) (A)
                 (A) (A) (A) (A) (A) (A) (A) (A) (A) (A) (A) (A)
                 (A) (A) (A) (A) (A) (A) (A) (A) (A) (A) (A) (A)
                 (A) (A) (A) (A) (A) (A) (A) (A) (A) (A) (A) (A)
                 (A) (A) (A) (A) (A) (A) (A) (A) (A) (A) (A) (A)
                 (A) (A) (A) (A) (A) (A) (A) (A) (A) (A) (A) (A)
                 (A) (A) (A) (A) (A) (A) (A) (A) (A) (A) (A) (A)
                 (A) (A) (A) (A) (A) (A) (A) (A) (A) (A) (A) (A)
                 (A) (A) (A) (A) (A) (A) (A) (A) (A) (A) (A) (A)
                 (A) (A) (A) (A) (A) (A) (A) (A) (A) (A) (A) (A)
                 (A) (A) (A) (A) (A) (A) (A) (A) (A) (A) (A) (A)
                 (A) (A) (A) (A) (A) (A) (A) (A) (A) (A) (A) (A)
                 (A) (A) (A) (A) (A) (A) (A) (A) (A) (A) (A) (A)
                 (A) (A) (A) (A) (A) (A) (A) (A) (A) (A) (A) (A)
                 (A) (A) (A) (A) (A) (A) (A) (A) (A) (A) (A) (A)
                 (A) (A) (A) (A) (A) (A) (A) (A) (A) (A) (A) (A)
                 (A) (A) (A) (A) (A) (A) (A) (A) (A) (A) (A) (A)
                 (A) (A) (A) (A) (A) (A) (A) (A) (A) (A) (A) (A)
                 (A) (A) (A) (A) (A) (A) (A) (A) (A) (A) (A) (A)
                 (A) (A) (A) (A) (A) (A) (A) (A) (A) (A) (A) (A)
                 (A) (A) (A) (A) (A) (A) (A) (A) (A) (A) (A) (A)
                 (A) (A) (A) (A) (A) (A) (A) (A) (A) (A) (A) (A)
                 (A) (A) (A) (A) (A) (A) (A) (A) (A) (A) (A) (A)
                 (A) (A) (A) (A) (A) (A) (A) (A) (A) (A) (A) (A)
                 (A) (A) (A) (A) (A) (A) (A) (A) (A) (A) (A) (A)
                 (A) (A) (A) (A) (A) (A) (A) (A) (A) (A) (A) (A)
                 (A) (A) (A) (A) (A) (A) (A) (A) (A) (A) (A) (A)
                 (A) (A) (A) (A) (A) (A) (A) (A) (A) (A) (A) (A)
                 (A) (A) (A) (A) (A) (A) (A) (A) (A) (A) (A) (A)
                 (A) (A) (A) (A) (A) (A) (A) (A) (A) (A) (A) (A)
                 (A) (A) (A) (A) (A) (A) (A) (A) (A) (A) (A) (A)
                 (A) (A) (A) (A) (A) (A) (A) (A) (A) (A) (A) (A)
                 (A) (A) (A) (A) (A) (A) (A) (A) (A) (A) (A) (A)
                 (A) (A) (A) (A) (A) (A) (A) (A) (A) (A) (A) (A)
                 (A) (A) (A) (A) (A) (A) (A) (A) (A) (A) (A) (A)
                 (A) (A) (A) (A) (A) (A) (A) (A) (A) (A) (A) (A)
                 (A) (A) (A) (A) (A) (A) (A) (A) (A) (A) (A) (A)
                 (A) (A) (A) (A) (A) (A) (A) (A) (A) (A) (A) (A)
                 (A) (A) (A) (A) (A) (A) (A) (A) (A) (A) (A) (A)
                 (A) (A) (A) (A) (A) (A) (A) (A) (A) (A) (A) (A)
                 (A) (A) (A) (A) (A) (A) (A) (A) (A) (A) (A) (A)
                 (A) (A) (A) (A) (A) (A) (A) (A) (A) (A) (A) (A)
                 (A) (A) (A) (A) (A) (A) (A) (A) (A) (A) (A) (A)
                 (A) (A) (A) (A) (A) (A) (A) (A) (A) (A) (A) (A)
                 (A) (A) (A) (A) (A) (A) (A) (A) (A) (A) (A) (A)
                 (A) (A) (A) (A) (A) (A) (A) (A) (A) (A) (A) (A)
                 (A) (A) (A) (A) (A) (A) (A) (A) (A) (A) (A) (A)
                 (A) (A) (A) (A) (A) (A) (A) (A) (A) (A) (A) (A)
                 (A) (A) (A) (A) (A)
 The electronic state is 1-A.
 Alpha  occ. eigenvalues --  -25.20469 -25.20439 -19.69461 -19.69319 -19.69043
 Alpha  occ. eigenvalues --  -19.69026 -15.02849 -15.02578 -14.78597 -14.78496
 Alpha  occ. eigenvalues --  -10.64716 -10.64119 -10.62548 -10.61929 -10.61049
 Alpha  occ. eigenvalues --  -10.60586 -10.60464 -10.60301 -10.59486 -10.59470
 Alpha  occ. eigenvalues --  -10.59201 -10.57617 -10.57396 -10.54699 -10.54497
 Alpha  occ. eigenvalues --  -10.54465 -10.54427 -10.54232 -10.54129  -7.13209
 Alpha  occ. eigenvalues --   -1.38546  -1.38181  -1.32348  -1.29114  -1.20137
 Alpha  occ. eigenvalues --   -1.19768  -1.11011  -1.09068  -1.04324  -0.97360
 Alpha  occ. eigenvalues --   -0.94605  -0.91525  -0.91246  -0.90837  -0.86999
 Alpha  occ. eigenvalues --   -0.85722  -0.83916  -0.81172  -0.81033  -0.80708
 Alpha  occ. eigenvalues --   -0.77299  -0.73824  -0.71878  -0.70368  -0.69786
 Alpha  occ. eigenvalues --   -0.68402  -0.66202  -0.65427  -0.64610  -0.64520
 Alpha  occ. eigenvalues --   -0.63852  -0.63592  -0.62665  -0.62545  -0.61845
 Alpha  occ. eigenvalues --   -0.60663  -0.58556  -0.58214  -0.57695  -0.56306
 Alpha  occ. eigenvalues --   -0.54950  -0.53488  -0.52975  -0.52864  -0.51839
 Alpha  occ. eigenvalues --   -0.51159  -0.50362  -0.50230  -0.49807  -0.49192
 Alpha  occ. eigenvalues --   -0.48707  -0.48085  -0.47949  -0.47665  -0.47609
 Alpha  occ. eigenvalues --   -0.47426  -0.47079  -0.46745  -0.46150  -0.44943
 Alpha  occ. eigenvalues --   -0.44613  -0.44213  -0.44051  -0.42814  -0.42602
 Alpha  occ. eigenvalues --   -0.42025  -0.41537  -0.40906  -0.40772  -0.40645
 Alpha  occ. eigenvalues --   -0.40574  -0.36540  -0.36161  -0.35207  -0.32291
 Alpha  occ. eigenvalues --   -0.31346  -0.25940
 Alpha virt. eigenvalues --   -0.09127  -0.08772  -0.07654  -0.01228   0.01585
 Alpha virt. eigenvalues --    0.04864   0.05524   0.06457   0.07036   0.07874
 Alpha virt. eigenvalues --    0.08486   0.09171   0.09329   0.09689   0.09879
 Alpha virt. eigenvalues --    0.10413   0.10968   0.11915   0.12581   0.13054
 Alpha virt. eigenvalues --    0.13438   0.13694   0.13781   0.14238   0.15111
 Alpha virt. eigenvalues --    0.15619   0.16025   0.16285   0.16543   0.16901
 Alpha virt. eigenvalues --    0.17108   0.17425   0.17480   0.17721   0.18016
 Alpha virt. eigenvalues --    0.18659   0.19002   0.19678   0.20653   0.20750
 Alpha virt. eigenvalues --    0.21275   0.22230   0.22451   0.22609   0.22928
 Alpha virt. eigenvalues --    0.23680   0.23877   0.24757   0.25106   0.25407
 Alpha virt. eigenvalues --    0.25800   0.25904   0.26170   0.26683   0.27251
 Alpha virt. eigenvalues --    0.27801   0.28088   0.28498   0.29042   0.29711
 Alpha virt. eigenvalues --    0.30139   0.30594   0.30891   0.31140   0.31284
 Alpha virt. eigenvalues --    0.31875   0.32129   0.32509   0.32590   0.32968
 Alpha virt. eigenvalues --    0.33616   0.33862   0.34323   0.34983   0.35543
 Alpha virt. eigenvalues --    0.35686   0.36228   0.36283   0.36998   0.37362
 Alpha virt. eigenvalues --    0.37570   0.37876   0.38260   0.38654   0.38816
 Alpha virt. eigenvalues --    0.38930   0.39635   0.40011   0.40225   0.40562
 Alpha virt. eigenvalues --    0.41057   0.41422   0.42087   0.42180   0.42419
 Alpha virt. eigenvalues --    0.42772   0.42951   0.43357   0.43675   0.44127
 Alpha virt. eigenvalues --    0.44606   0.45096   0.45494   0.45711   0.46341
 Alpha virt. eigenvalues --    0.46672   0.46929   0.47007   0.47969   0.48249
 Alpha virt. eigenvalues --    0.48379   0.48541   0.49014   0.49320   0.49869
 Alpha virt. eigenvalues --    0.49993   0.50261   0.50447   0.50807   0.50899
 Alpha virt. eigenvalues --    0.51325   0.51639   0.51748   0.51838   0.52252
 Alpha virt. eigenvalues --    0.52754   0.52895   0.53329   0.54301   0.54528
 Alpha virt. eigenvalues --    0.54928   0.55529   0.55784   0.56289   0.56856
 Alpha virt. eigenvalues --    0.57199   0.57272   0.57833   0.57935   0.58660
 Alpha virt. eigenvalues --    0.59047   0.59200   0.59537   0.59943   0.60755
 Alpha virt. eigenvalues --    0.60900   0.61241   0.61679   0.62495   0.62952
 Alpha virt. eigenvalues --    0.63712   0.64041   0.64227   0.64654   0.65320
 Alpha virt. eigenvalues --    0.65457   0.65886   0.65989   0.66847   0.67139
 Alpha virt. eigenvalues --    0.67648   0.67820   0.67990   0.68448   0.69197
 Alpha virt. eigenvalues --    0.69728   0.69815   0.70398   0.70724   0.71258
 Alpha virt. eigenvalues --    0.72097   0.72682   0.72962   0.73326   0.74274
 Alpha virt. eigenvalues --    0.74357   0.74514   0.75484   0.75813   0.76012
 Alpha virt. eigenvalues --    0.76792   0.77338   0.77995   0.78911   0.79293
 Alpha virt. eigenvalues --    0.80127   0.80256   0.81296   0.81421   0.81805
 Alpha virt. eigenvalues --    0.82247   0.82732   0.83456   0.83708   0.84046
 Alpha virt. eigenvalues --    0.84273   0.84670   0.85219   0.85648   0.86212
 Alpha virt. eigenvalues --    0.86731   0.87388   0.88121   0.88664   0.89339
 Alpha virt. eigenvalues --    0.89868   0.90502   0.91035   0.91635   0.91729
 Alpha virt. eigenvalues --    0.92583   0.93130   0.93699   0.93734   0.94774
 Alpha virt. eigenvalues --    0.95907   0.96230   0.96610   0.97727   0.98272
 Alpha virt. eigenvalues --    0.98600   0.99265   0.99511   0.99914   1.00204
 Alpha virt. eigenvalues --    1.00263   1.01136   1.01295   1.02119   1.02878
 Alpha virt. eigenvalues --    1.03078   1.03380   1.04230   1.04503   1.04859
 Alpha virt. eigenvalues --    1.05495   1.05968   1.06347   1.06533   1.06823
 Alpha virt. eigenvalues --    1.08077   1.08274   1.08488   1.08631   1.09328
 Alpha virt. eigenvalues --    1.09714   1.10228   1.10502   1.10756   1.11207
 Alpha virt. eigenvalues --    1.11607   1.12218   1.12818   1.13395   1.13556
 Alpha virt. eigenvalues --    1.14052   1.14705   1.14898   1.15176   1.15442
 Alpha virt. eigenvalues --    1.17094   1.17972   1.18187   1.18814   1.19886
 Alpha virt. eigenvalues --    1.20544   1.20935   1.21494   1.21840   1.22160
 Alpha virt. eigenvalues --    1.22879   1.23298   1.23631   1.24488   1.24623
 Alpha virt. eigenvalues --    1.25210   1.26291   1.26783   1.27705   1.28148
 Alpha virt. eigenvalues --    1.28374   1.29075   1.29535   1.29561   1.30071
 Alpha virt. eigenvalues --    1.30369   1.30903   1.31330   1.32612   1.33003
 Alpha virt. eigenvalues --    1.33435   1.34031   1.34676   1.34960   1.35852
 Alpha virt. eigenvalues --    1.36130   1.37281   1.37860   1.38151   1.39383
 Alpha virt. eigenvalues --    1.39925   1.40483   1.41199   1.42271   1.42667
 Alpha virt. eigenvalues --    1.43268   1.43492   1.43745   1.44412   1.44625
 Alpha virt. eigenvalues --    1.45565   1.45850   1.46017   1.46483   1.46705
 Alpha virt. eigenvalues --    1.47817   1.48150   1.48531   1.48739   1.49669
 Alpha virt. eigenvalues --    1.49787   1.50452   1.50950   1.51491   1.52171
 Alpha virt. eigenvalues --    1.53051   1.53360   1.53746   1.53837   1.54187
 Alpha virt. eigenvalues --    1.54383   1.54994   1.55353   1.55754   1.56254
 Alpha virt. eigenvalues --    1.56819   1.57117   1.58238   1.58423   1.58862
 Alpha virt. eigenvalues --    1.59516   1.59909   1.60318   1.61027   1.61700
 Alpha virt. eigenvalues --    1.62449   1.63589   1.63925   1.64143   1.64638
 Alpha virt. eigenvalues --    1.64970   1.65448   1.65584   1.65925   1.66514
 Alpha virt. eigenvalues --    1.67373   1.67867   1.68094   1.69036   1.69572
 Alpha virt. eigenvalues --    1.70369   1.70827   1.71246   1.71537   1.72061
 Alpha virt. eigenvalues --    1.73743   1.74014   1.74309   1.74624   1.75144
 Alpha virt. eigenvalues --    1.77005   1.77612   1.79187   1.79304   1.79753
 Alpha virt. eigenvalues --    1.80579   1.80898   1.81381   1.81424   1.82592
 Alpha virt. eigenvalues --    1.83332   1.83996   1.84507   1.84801   1.85865
 Alpha virt. eigenvalues --    1.86800   1.87662   1.88353   1.88584   1.89845
 Alpha virt. eigenvalues --    1.90808   1.91364   1.91807   1.93792   1.93854
 Alpha virt. eigenvalues --    1.94177   1.95152   1.95952   1.97030   1.98252
 Alpha virt. eigenvalues --    1.98327   1.99008   1.99714   2.00004   2.00763
 Alpha virt. eigenvalues --    2.01141   2.02597   2.03701   2.04446   2.05114
 Alpha virt. eigenvalues --    2.06232   2.06538   2.06982   2.07716   2.08145
 Alpha virt. eigenvalues --    2.08633   2.09697   2.09988   2.11129   2.11426
 Alpha virt. eigenvalues --    2.12563   2.13529   2.14034   2.15066   2.16346
 Alpha virt. eigenvalues --    2.16586   2.16757   2.17351   2.17922   2.18492
 Alpha virt. eigenvalues --    2.19054   2.20040   2.20202   2.21129   2.22642
 Alpha virt. eigenvalues --    2.23961   2.24743   2.25225   2.25393   2.26266
 Alpha virt. eigenvalues --    2.27078   2.27699   2.28807   2.29710   2.30603
 Alpha virt. eigenvalues --    2.30929   2.31266   2.32690   2.33829   2.34492
 Alpha virt. eigenvalues --    2.34615   2.36557   2.36824   2.37565   2.38755
 Alpha virt. eigenvalues --    2.39023   2.40029   2.40665   2.41301   2.42669
 Alpha virt. eigenvalues --    2.43378   2.44667   2.46202   2.46779   2.48007
 Alpha virt. eigenvalues --    2.49070   2.49514   2.49641   2.50788   2.51431
 Alpha virt. eigenvalues --    2.52009   2.52406   2.53108   2.53786   2.54881
 Alpha virt. eigenvalues --    2.56047   2.57213   2.57586   2.57906   2.58678
 Alpha virt. eigenvalues --    2.59532   2.60627   2.60947   2.62106   2.62410
 Alpha virt. eigenvalues --    2.63022   2.63282   2.64061   2.65025   2.65408
 Alpha virt. eigenvalues --    2.66389   2.67017   2.68373   2.69473   2.70829
 Alpha virt. eigenvalues --    2.70867   2.71374   2.71482   2.72624   2.72945
 Alpha virt. eigenvalues --    2.73228   2.73931   2.74350   2.74503   2.75277
 Alpha virt. eigenvalues --    2.75619   2.76378   2.76698   2.77070   2.77519
 Alpha virt. eigenvalues --    2.77959   2.78095   2.78338   2.79303   2.79918
 Alpha virt. eigenvalues --    2.80914   2.81509   2.81881   2.82225   2.82605
 Alpha virt. eigenvalues --    2.82803   2.83224   2.83615   2.83973   2.84178
 Alpha virt. eigenvalues --    2.84709   2.85672   2.86289   2.86914   2.87320
 Alpha virt. eigenvalues --    2.87574   2.89131   2.89367   2.90067   2.90250
 Alpha virt. eigenvalues --    2.91200   2.91806   2.92014   2.92360   2.92993
 Alpha virt. eigenvalues --    2.93909   2.94334   2.94498   2.95211   2.95459
 Alpha virt. eigenvalues --    2.96105   2.96390   2.97382   2.97402   2.98346
 Alpha virt. eigenvalues --    2.98502   2.99254   3.00056   3.00728   3.01122
 Alpha virt. eigenvalues --    3.01510   3.01670   3.02184   3.02257   3.02511
 Alpha virt. eigenvalues --    3.03297   3.03680   3.03805   3.04222   3.04611
 Alpha virt. eigenvalues --    3.04983   3.05180   3.05662   3.06454   3.06734
 Alpha virt. eigenvalues --    3.07180   3.07440   3.07997   3.08483   3.09380
 Alpha virt. eigenvalues --    3.10009   3.10405   3.10545   3.10672   3.11204
 Alpha virt. eigenvalues --    3.12253   3.12963   3.13258   3.13456   3.14578
 Alpha virt. eigenvalues --    3.14818   3.15539   3.15734   3.16676   3.17168
 Alpha virt. eigenvalues --    3.17457   3.18003   3.18126   3.19191   3.19432
 Alpha virt. eigenvalues --    3.19961   3.20348   3.20596   3.20983   3.21335
 Alpha virt. eigenvalues --    3.22085   3.22691   3.22880   3.23752   3.23837
 Alpha virt. eigenvalues --    3.24593   3.24915   3.25148   3.25476   3.25796
 Alpha virt. eigenvalues --    3.26955   3.27620   3.27842   3.28145   3.28615
 Alpha virt. eigenvalues --    3.29578   3.30244   3.31204   3.31597   3.32230
 Alpha virt. eigenvalues --    3.32593   3.33179   3.33620   3.34334   3.34680
 Alpha virt. eigenvalues --    3.35171   3.35989   3.36539   3.36928   3.37001
 Alpha virt. eigenvalues --    3.37439   3.38403   3.38896   3.39046   3.39597
 Alpha virt. eigenvalues --    3.40055   3.40513   3.40867   3.41630   3.41799
 Alpha virt. eigenvalues --    3.42018   3.42949   3.43347   3.43854   3.44884
 Alpha virt. eigenvalues --    3.45208   3.46292   3.46746   3.47169   3.47694
 Alpha virt. eigenvalues --    3.48143   3.48612   3.49465   3.50299   3.50679
 Alpha virt. eigenvalues --    3.50760   3.51060   3.51619   3.52248   3.52677
 Alpha virt. eigenvalues --    3.53440   3.53900   3.54012   3.54959   3.55071
 Alpha virt. eigenvalues --    3.55367   3.56296   3.56868   3.57213   3.58309
 Alpha virt. eigenvalues --    3.58910   3.59374   3.59971   3.60391   3.61044
 Alpha virt. eigenvalues --    3.61868   3.62427   3.62905   3.64067   3.64805
 Alpha virt. eigenvalues --    3.65415   3.65831   3.66562   3.67189   3.67632
 Alpha virt. eigenvalues --    3.67954   3.68906   3.70158   3.70362   3.70983
 Alpha virt. eigenvalues --    3.72524   3.73435   3.73559   3.73907   3.74802
 Alpha virt. eigenvalues --    3.75112   3.75948   3.76749   3.77345   3.77739
 Alpha virt. eigenvalues --    3.78640   3.79173   3.79501   3.80691   3.81166
 Alpha virt. eigenvalues --    3.81573   3.82714   3.84770   3.84961   3.85554
 Alpha virt. eigenvalues --    3.86080   3.86246   3.86442   3.86953   3.87143
 Alpha virt. eigenvalues --    3.87537   3.88167   3.89180   3.89395   3.90181
 Alpha virt. eigenvalues --    3.90599   3.90874   3.91184   3.91607   3.92146
 Alpha virt. eigenvalues --    3.92643   3.93189   3.93898   3.94985   3.95134
 Alpha virt. eigenvalues --    3.96271   3.96836   3.97210   3.98044   3.99064
 Alpha virt. eigenvalues --    3.99303   3.99625   3.99757   4.00352   4.00647
 Alpha virt. eigenvalues --    4.01236   4.01816   4.02382   4.02751   4.03165
 Alpha virt. eigenvalues --    4.04094   4.04347   4.05101   4.05368   4.05630
 Alpha virt. eigenvalues --    4.06217   4.06828   4.07162   4.08246   4.08392
 Alpha virt. eigenvalues --    4.08853   4.09589   4.09888   4.10163   4.10900
 Alpha virt. eigenvalues --    4.11498   4.11654   4.12713   4.13944   4.14274
 Alpha virt. eigenvalues --    4.14888   4.15072   4.15352   4.15870   4.16484
 Alpha virt. eigenvalues --    4.16941   4.17590   4.17910   4.18190   4.18930
 Alpha virt. eigenvalues --    4.19202   4.19533   4.20478   4.21483   4.22139
 Alpha virt. eigenvalues --    4.22289   4.23117   4.23847   4.24072   4.24449
 Alpha virt. eigenvalues --    4.25281   4.26160   4.27425   4.28375   4.28604
 Alpha virt. eigenvalues --    4.30085   4.30679   4.30785   4.31397   4.32586
 Alpha virt. eigenvalues --    4.32884   4.33957   4.34576   4.35790   4.36360
 Alpha virt. eigenvalues --    4.37394   4.38879   4.39856   4.40052   4.41167
 Alpha virt. eigenvalues --    4.44108   4.44724   4.45153   4.45581   4.46553
 Alpha virt. eigenvalues --    4.47024   4.47277   4.47661   4.49272   4.49615
 Alpha virt. eigenvalues --    4.51109   4.51566   4.52516   4.54999   4.55150
 Alpha virt. eigenvalues --    4.55681   4.56228   4.56881   4.57705   4.58243
 Alpha virt. eigenvalues --    4.59376   4.61060   4.61596   4.62394   4.63476
 Alpha virt. eigenvalues --    4.63682   4.64315   4.65251   4.65312   4.67774
 Alpha virt. eigenvalues --    4.68170   4.69688   4.69742   4.70642   4.71073
 Alpha virt. eigenvalues --    4.71948   4.72647   4.73497   4.74071   4.75177
 Alpha virt. eigenvalues --    4.75690   4.76219   4.76710   4.78622   4.78978
 Alpha virt. eigenvalues --    4.80634   4.81411   4.82299   4.82461   4.84308
 Alpha virt. eigenvalues --    4.85204   4.86291   4.86492   4.87874   4.88236
 Alpha virt. eigenvalues --    4.90514   4.91431   4.92071   4.92816   4.94230
 Alpha virt. eigenvalues --    4.94682   4.96388   4.97393   4.98791   4.99961
 Alpha virt. eigenvalues --    5.00389   5.01598   5.03377   5.04070   5.04849
 Alpha virt. eigenvalues --    5.05023   5.06430   5.07947   5.08336   5.08538
 Alpha virt. eigenvalues --    5.08728   5.08889   5.09510   5.10015   5.11170
 Alpha virt. eigenvalues --    5.11554   5.12475   5.13108   5.13757   5.14050
 Alpha virt. eigenvalues --    5.14433   5.15168   5.16012   5.16545   5.17024
 Alpha virt. eigenvalues --    5.17297   5.17575   5.17992   5.18810   5.19235
 Alpha virt. eigenvalues --    5.19579   5.19916   5.20780   5.21828   5.22466
 Alpha virt. eigenvalues --    5.23470   5.23707   5.24643   5.27051   5.27621
 Alpha virt. eigenvalues --    5.28053   5.28772   5.29748   5.31729   5.32499
 Alpha virt. eigenvalues --    5.33475   5.33929   5.34130   5.34893   5.35145
 Alpha virt. eigenvalues --    5.36611   5.37470   5.37878   5.38133   5.39157
 Alpha virt. eigenvalues --    5.39530   5.39643   5.40795   5.41400   5.42444
 Alpha virt. eigenvalues --    5.42769   5.43921   5.44679   5.45580   5.47931
 Alpha virt. eigenvalues --    5.48174   5.49528   5.51044   5.51530   5.52174
 Alpha virt. eigenvalues --    5.53080   5.55277   5.56126   5.56386   5.57025
 Alpha virt. eigenvalues --    5.58636   5.58772   5.59303   5.59761   5.60263
 Alpha virt. eigenvalues --    5.60707   5.61151   5.62037   5.62515   5.65636
 Alpha virt. eigenvalues --    5.66671   5.67442   5.68592   5.70845   5.71569
 Alpha virt. eigenvalues --    5.74591   5.75334   5.77819   5.81124   5.85024
 Alpha virt. eigenvalues --    5.85829   5.88022   5.92323   5.92480   5.94704
[...]
     8  C   -0.022436  -0.004409   0.002621  -0.001314   0.011546   0.011861
     9  C   -0.002096  -0.000020   0.022880   0.016397   0.000165   0.000400
    10  C    0.000405   0.000000   0.000332  -0.000240  -0.000001  -0.000014
    11  C    0.000066   0.000001   0.000064  -0.000051   0.000000  -0.000000
    12  C    0.000002   0.000000  -0.000007   0.000028  -0.000000   0.000000
    13  N   -0.000000  -0.000000   0.000000   0.000000   0.000000   0.000000
    14  O   -0.000000  -0.000000  -0.000000  -0.000000   0.000000  -0.000000
    15  O   -0.000000  -0.000000  -0.000000   0.000000   0.000000   0.000000
    16  C    0.000009  -0.000000   0.000014  -0.000022   0.000000  -0.000000
    17  C   -0.001430  -0.000003  -0.001155  -0.000399  -0.000013  -0.000001
    18  N    0.000064  -0.000001  -0.000105   0.000011   0.000001   0.000000
    19  O    0.000445  -0.000003  -0.000071  -0.000011  -0.000004   0.000000
    20  O   -0.000009   0.000000   0.000011  -0.000012   0.000000  -0.000000
    21  C   -0.130338   0.009582   0.368808  -0.058785  -0.009895  -0.009555
    22  C   -0.042323   0.011240  -0.142496  -0.001146  -0.000536  -0.001500
    23  C    0.004112  -0.000495   0.000094   0.000242   0.000002  -0.000003
    24  C    0.502172  -0.049896  -0.101996   0.000188   0.000211   0.000894
    25  C    5.084072   0.255935   0.460331  -0.027873  -0.001632  -0.001114
    26  C    0.255935   5.024719  -0.052643  -0.017035  -0.008910  -0.012393
    27  N    0.460331  -0.052643   6.355088   0.353178  -0.033185  -0.035619
    28  B   -0.027873  -0.017035   0.353178   3.384248   0.354289   0.360751
    29  F   -0.001632  -0.008910  -0.033185   0.354289   9.124354  -0.032488
    30  F   -0.001114  -0.012393  -0.035619   0.360751  -0.032488   9.122650
    31  H   -0.000004  -0.000000   0.000002  -0.000001   0.000000  -0.000001
    32  H   -0.000001   0.000000   0.000005   0.000043  -0.000001   0.000000
    33  H    0.000000   0.000000  -0.000001   0.000009  -0.000000  -0.000000
    34  H    0.000000   0.000000   0.000005   0.000210   0.000011   0.000009
    35  H    0.000001  -0.000020  -0.000166  -0.001950  -0.001531   0.004835
    36  H    0.000004   0.000002   0.000030   0.003428   0.000305   0.000198
    37  H   -0.000002  -0.000014   0.000165  -0.004093   0.004970  -0.000907
    38  H   -0.000038  -0.000001  -0.000041  -0.000016  -0.000000  -0.000003
    39  H    0.000000  -0.000000   0.000000   0.000001   0.000000  -0.000000
    40  H    0.000000  -0.000000  -0.000000  -0.000000   0.000000  -0.000000
    41  H    0.000304   0.000012   0.000447   0.000019   0.000000  -0.000001
    42  H    0.000707   0.000004  -0.000365   0.000003  -0.000000  -0.000000
    43  H   -0.000495   0.000015   0.000338   0.000029  -0.000001   0.000000
    44  H   -0.014701  -0.001651   0.003816   0.000189   0.000007   0.000013
    45  H   -0.045769   0.420515  -0.006809  -0.002661  -0.001651   0.005242
    46  H   -0.043828   0.415936  -0.005599  -0.003376   0.004632  -0.000865
    47  H   -0.027270   0.422999   0.006113   0.003483   0.000298   0.000214
              31         32         33         34         35         36
     1  C    0.430364   0.434350   0.412291  -0.001384   0.000019   0.000006
     2  C   -0.049131  -0.041774  -0.039071  -0.012950   0.000158   0.002623
     3  C    0.000133   0.000638  -0.014890   0.395660   0.004098  -0.019970
     4  C   -0.000392   0.000020   0.000597  -0.014533  -0.046663  -0.027515
     5  C    0.000001   0.000006   0.000008  -0.001524   0.422669   0.423192
     6  N    0.000223   0.000215  -0.000362   0.003914  -0.006601   0.006045
     7  C   -0.008836  -0.027620   0.027113   0.009753  -0.000790  -0.000910
     8  C   -0.005159   0.004061  -0.001009  -0.000269  -0.000705   0.000062
     9  C    0.005357  -0.019710   0.000464   0.000238  -0.000024  -0.000001
    10  C    0.003832  -0.006013   0.000729   0.000007  -0.000000  -0.000000
    11  C   -0.006666   0.002936  -0.000147   0.000000  -0.000000  -0.000000
    12  C    0.001741   0.000402  -0.000011  -0.000000   0.000000  -0.000000
    13  N   -0.000006  -0.000000   0.000000   0.000000   0.000000  -0.000000
    14  O    0.000001   0.000002   0.000000  -0.000000  -0.000000  -0.000000
    15  O   -0.000005  -0.000001   0.000000   0.000000  -0.000000   0.000000
    16  C    0.000618  -0.000256  -0.000127  -0.000000   0.000000   0.000000
    17  C   -0.008165   0.014683   0.000268  -0.000014   0.000001  -0.000000
    18  N   -0.000026  -0.001798   0.000010   0.000000   0.000000   0.000000
    19  O    0.000208   0.003827   0.000009  -0.000022   0.000000   0.000000
    20  O   -0.000003   0.000030   0.000001  -0.000000   0.000000   0.000000
    21  C   -0.001295   0.001831  -0.000063  -0.000029   0.000160  -0.000001
    22  C   -0.000033  -0.000093   0.000005  -0.000001   0.000014  -0.000000
    23  C   -0.000004  -0.000022  -0.000000  -0.000000   0.000000  -0.000000
    24  C    0.000004   0.000002  -0.000000   0.000000  -0.000002  -0.000000
    25  C   -0.000004  -0.000001   0.000000   0.000000   0.000001   0.000004
    26  C   -0.000000   0.000000   0.000000   0.000000  -0.000020   0.000002
    27  N    0.000002   0.000005  -0.000001   0.000005  -0.000166   0.000030
    28  B   -0.000001   0.000043   0.000009   0.000210  -0.001950   0.003428
    29  F    0.000000  -0.000001  -0.000000   0.000011  -0.001531   0.000305
    30  F   -0.000001   0.000000  -0.000000   0.000009   0.004835   0.000198
    31  H    0.524864  -0.031262  -0.017263  -0.000064  -0.000001   0.000000
    32  H   -0.031262   0.524400  -0.019039  -0.000176   0.000000   0.000001
    33  H   -0.017263  -0.019039   0.510453   0.002528   0.000001  -0.000003
    34  H   -0.000064  -0.000176   0.002528   0.451273  -0.000021   0.000469
    35  H   -0.000001   0.000000   0.000001  -0.000021   0.515212  -0.019142
    36  H    0.000000   0.000001  -0.000003   0.000469  -0.019142   0.511244
    37  H    0.000000  -0.000001   0.000001   0.000087  -0.027440  -0.018206
    38  H    0.000653  -0.000088   0.000001   0.000001  -0.000000   0.000000
    39  H   -0.000161   0.000018  -0.000000   0.000000  -0.000000   0.000000
    40  H    0.000016  -0.000138   0.000000   0.000000  -0.000000   0.000000
    41  H   -0.000007   0.000005   0.000000   0.000000   0.000000   0.000000
    42  H    0.000000   0.000000  -0.000000  -0.000000   0.000000   0.000000
    43  H    0.000002  -0.000006   0.000000   0.000000  -0.000000   0.000000
    44  H    0.000000   0.000000  -0.000000  -0.000000  -0.000000  -0.000000
    45  H    0.000000  -0.000000  -0.000000  -0.000000  -0.000038   0.000000
    46  H   -0.000000   0.000000  -0.000000   0.000000   0.000018  -0.000000
    47  H    0.000000  -0.000000   0.000000  -0.000000   0.000000  -0.000000
              37         38         39         40         41         42
     1  C   -0.000022   0.000171  -0.000078   0.000005   0.000005  -0.000000
     2  C   -0.003211   0.000779  -0.000001  -0.000021  -0.000030   0.000005
     3  C    0.007305   0.000039   0.000002  -0.000000   0.000002  -0.000000
     4  C   -0.043432  -0.000011  -0.000000   0.000000  -0.000003   0.000000
     5  C    0.413918  -0.000002  -0.000000  -0.000000  -0.000000   0.000000
     6  N   -0.005724  -0.000133  -0.000000   0.000000  -0.000002  -0.000000
     7  C    0.001990  -0.005268  -0.000065   0.000202  -0.001434  -0.000017
     8  C    0.001003   0.000603  -0.000280   0.000749  -0.014589  -0.000432
     9  C    0.000032  -0.040816   0.002920   0.014495   0.031571   0.000850
    10  C    0.000000   0.429228  -0.006362  -0.000506  -0.008533   0.000426
    11  C   -0.000000  -0.034645   0.383838   0.003149   0.001077  -0.000068
    12  C    0.000000   0.007816  -0.015377   0.007517  -0.001758  -0.000107
    13  N    0.000000  -0.000079  -0.004347  -0.005570  -0.000013   0.000000
    14  O    0.000000  -0.000001   0.000639   0.017660   0.000000   0.000000
    15  O    0.000000  -0.000081   0.015409   0.000823  -0.000001   0.000000
    16  C   -0.000000  -0.002905   0.005920   0.334270   0.001307   0.000083
    17  C   -0.000001   0.022384  -0.000508  -0.000319  -0.023255  -0.000540
    18  N   -0.000000  -0.000213   0.000008  -0.000831   0.000470   0.000027
    19  O   -0.000002   0.000057   0.000000   0.000317  -0.000110  -0.000001
    20  O   -0.000000   0.000010   0.000005   0.016306   0.000283  -0.000004
    21  C   -0.000330   0.002628  -0.000015  -0.000271  -0.001534   0.026446
    22  C   -0.000009   0.000107   0.000007   0.000052  -0.054707  -0.037598
    23  C   -0.000000  -0.000017  -0.000079  -0.000144   0.435776   0.411272
    24  C    0.000005   0.000082   0.000001  -0.000002  -0.001655  -0.015571
    25  C   -0.000002  -0.000038   0.000000   0.000000   0.000304   0.000707
    26  C   -0.000014  -0.000001  -0.000000  -0.000000   0.000012   0.000004
    27  N    0.000165  -0.000041   0.000000  -0.000000   0.000447  -0.000365
    28  B   -0.004093  -0.000016   0.000001  -0.000000   0.000019   0.000003
    29  F    0.004970  -0.000000   0.000000   0.000000   0.000000  -0.000000
    30  F   -0.000907  -0.000003  -0.000000  -0.000000  -0.000001  -0.000000
    31  H    0.000000   0.000653  -0.000161   0.000016  -0.000007   0.000000
    32  H   -0.000001  -0.000088   0.000018  -0.000138   0.000005   0.000000
    33  H    0.000001   0.000001  -0.000000   0.000000   0.000000  -0.000000
    34  H    0.000087   0.000001   0.000000   0.000000   0.000000  -0.000000
    35  H   -0.027440  -0.000000  -0.000000  -0.000000   0.000000   0.000000
    36  H   -0.018206   0.000000   0.000000   0.000000   0.000000   0.000000
    37  H    0.514283   0.000000   0.000000   0.000000  -0.000000  -0.000000
    38  H    0.000000   0.436288  -0.001648  -0.000020   0.000019  -0.000006
    39  H    0.000000  -0.001648   0.413846  -0.000147  -0.000018   0.000000
    40  H    0.000000  -0.000020  -0.000147   0.401860   0.000037   0.000005
    41  H   -0.000000   0.000019  -0.000018   0.000037   0.525562  -0.016499
    42  H   -0.000000  -0.000006   0.000000   0.000005  -0.016499   0.510090
    43  H    0.000000   0.000072   0.000005  -0.000330  -0.029792  -0.019196
    44  H    0.000000   0.000001   0.000000  -0.000000  -0.000163   0.002422
    45  H    0.000020   0.000000  -0.000000   0.000000  -0.000001   0.000000
    46  H   -0.000037  -0.000000   0.000000  -0.000000  -0.000000   0.000002
    47  H   -0.000000   0.000000   0.000000   0.000000   0.000001  -0.000003
              43         44         45         46         47
     1  C   -0.000017  -0.000000  -0.000000   0.000000  -0.000000
     2  C   -0.000047  -0.000001  -0.000002   0.000007  -0.000000
     3  C    0.000003   0.000000   0.000003   0.000000  -0.000000
     4  C   -0.000005   0.000000  -0.000006   0.000008   0.000004
     5  C   -0.000000   0.000000  -0.000026  -0.000009   0.000002
     6  N   -0.000007   0.000003  -0.000038   0.000019   0.000030
     7  C   -0.000694  -0.000020  -0.000182   0.000022  -0.000001
     8  C   -0.005594   0.000020   0.000166   0.000088   0.000046
     9  C   -0.032387   0.000295   0.000023  -0.000022  -0.000000
    10  C    0.001649  -0.000010  -0.000000   0.000000  -0.000000
    11  C    0.000139  -0.000001  -0.000000   0.000000  -0.000000
    12  C    0.002405  -0.000000   0.000000  -0.000000   0.000000
    13  N    0.000010   0.000000   0.000000  -0.000000  -0.000000
    14  O   -0.000003  -0.000000  -0.000000   0.000000   0.000000
    15  O   -0.000000   0.000000  -0.000000   0.000000  -0.000000
    16  C   -0.006210  -0.000002  -0.000000   0.000000  -0.000000
    17  C    0.029802   0.000042  -0.000001   0.000003  -0.000000
    18  N   -0.003169  -0.000007  -0.000000   0.000000   0.000000
    19  O   -0.000212  -0.000007   0.000000  -0.000001   0.000000
    20  O    0.005646   0.000002  -0.000000   0.000000  -0.000000
    21  C   -0.010227   0.010814   0.000017   0.000978  -0.000962
    22  C   -0.045864  -0.015539  -0.001427  -0.001515   0.002700
    23  C    0.419316  -0.002212  -0.000002   0.000001   0.000010
    24  C    0.001729   0.397684   0.005783   0.005657  -0.020112
    25  C   -0.000495  -0.014701  -0.045769  -0.043828  -0.027270
    26  C    0.000015  -0.001651   0.420515   0.415936   0.422999
    27  N    0.000338   0.003816  -0.006809  -0.005599   0.006113
    28  B    0.000029   0.000189  -0.002661  -0.003376   0.003483
    29  F   -0.000001   0.000007  -0.001651   0.004632   0.000298
    30  F    0.000000   0.000013   0.005242  -0.000865   0.000214
    31  H    0.000002   0.000000   0.000000  -0.000000   0.000000
    32  H   -0.000006   0.000000  -0.000000   0.000000  -0.000000
    33  H    0.000000  -0.000000  -0.000000  -0.000000   0.000000
    34  H    0.000000  -0.000000  -0.000000   0.000000  -0.000000
    35  H   -0.000000  -0.000000  -0.000038   0.000018   0.000000
    36  H    0.000000  -0.000000   0.000000  -0.000000  -0.000000
    37  H    0.000000   0.000000   0.000020  -0.000037  -0.000000
    38  H    0.000072   0.000001   0.000000  -0.000000   0.000000
    39  H    0.000005   0.000000  -0.000000   0.000000   0.000000
    40  H   -0.000330  -0.000000   0.000000  -0.000000   0.000000
    41  H   -0.029792  -0.000163  -0.000001  -0.000000   0.000001
    42  H   -0.019196   0.002422   0.000000   0.000002  -0.000003
    43  H    0.529836   0.000080   0.000000  -0.000001   0.000000
    44  H    0.000080   0.451178   0.000031   0.000036   0.000483
    45  H    0.000000   0.000031   0.514548  -0.027179  -0.019106
    46  H   -0.000001   0.000036  -0.027179   0.513043  -0.018169
    47  H    0.000000   0.000483  -0.019106  -0.018169   0.510869
 Mulliken charges:
               1
     1  C   -0.419802
     2  C    0.004266
     3  C   -0.114620
     4  C    0.062535
     5  C   -0.412458
     6  N   -0.092586
     7  C    0.166405
     8  C   -0.086882
     9  C   -0.160534
    10  C   -0.120415
    11  C   -0.027751
    12  C   -0.063390
    13  N    0.503834
    14  O   -0.353898
    15  O   -0.352032
    16  C    0.099634
    17  C   -0.167091
    18  N    0.551577
    19  O   -0.320405
    20  O   -0.338351
    21  C    0.177482
    22  C    0.004126
    23  C   -0.425170
    24  C   -0.107715
    25  C    0.061683
    26  C   -0.412193
    27  N   -0.095102
    28  B    0.383569
    29  F   -0.356341
    30  F   -0.354507
    31  H    0.160464
    32  H    0.160522
    33  H    0.137498
    34  H    0.166822
    35  H    0.157908
    36  H    0.138137
    37  H    0.159655
    38  H    0.185092
    39  H    0.206468
    40  H    0.210837
    41  H    0.157211
    42  H    0.138064
    43  H    0.163183
    44  H    0.167196
    45  H    0.158552
    46  H    0.160153
    47  H    0.138372
 Sum of Mulliken charges =  -0.00000
 Mulliken charges with hydrogens summed into heavy atoms:
               1
     1  C    0.038681
     2  C    0.004266
     3  C    0.052202
     4  C    0.062535
     5  C    0.043242
     6  N   -0.092586
     7  C    0.166405
     8  C   -0.086882
     9  C   -0.160534
    10  C    0.064677
    11  C    0.178717
    12  C   -0.063390
    13  N    0.503834
    14  O   -0.353898
    15  O   -0.352032
    16  C    0.310471
    17  C   -0.167091
    18  N    0.551577
    19  O   -0.320405
    20  O   -0.338351
    21  C    0.177482
    22  C    0.004126
    23  C    0.033288
    24  C    0.059481
    25  C    0.061683
    26  C    0.044884
    27  N   -0.095102
    28  B    0.383569
    29  F   -0.356341
    30  F   -0.354507
 Electronic spatial extent (au):  <R**2>=          11488.7308
 Charge=              0.0000 electrons
 Dipole moment (field-independent basis, Debye):
    X=             -1.6439    Y=              0.7509    Z=             -4.1992  Tot=              4.5716
 Quadrupole moment (field-independent basis, Debye-Ang):
   XX=           -214.7751   YY=           -141.8877   ZZ=           -185.5289
   XY=             -1.5040   XZ=              2.3766   YZ=              3.6658
 Traceless Quadrupole moment (field-independent basis, Debye-Ang):
   XX=            -34.0445   YY=             38.8429   ZZ=             -4.7984
   XY=             -1.5040   XZ=              2.3766   YZ=              3.6658
 Octapole moment (field-independent basis, Debye-Ang**2):
  XXX=            221.8553  YYY=             -4.4308  ZZZ=            -36.2237  XYY=             55.6865
  XXY=              3.6555  XXZ=             33.7512  XZZ=             -6.6286  YZZ=              9.9214
  YYZ=             -2.0498  XYZ=             -5.4186
 Hexadecapole moment (field-independent basis, Debye-Ang**3):
 XXXX=         -11842.4010 YYYY=          -3206.0291 ZZZZ=          -1485.3546 XXXY=             46.4647
 XXXZ=           -223.9276 YYYX=             -4.0271 YYYZ=             32.9928 ZZZX=             61.6941
 ZZZY=              7.6164 XXYY=          -1936.9364 XXZZ=          -1997.9176 YYZZ=           -896.5644
 XXYZ=             41.1114 YYXZ=             -7.2836 ZZXY=            -28.0184
 N-N= 3.024903437784D+03 E-N=-9.505401922321D+03  KE= 1.471123908754D+03
 No NMR shielding tensors so no spin-rotation constants.
 Leave Link  601 at Sat Oct 25 13:23:09 2025, MaxMem= 30870077440 cpu:              77.0 elap:               1.4
 (Enter /public/software/gauss/g16/l9999.exe)
 1\1\GINC-CU056\SP\RM062X\def2TZVPP\C19H17B1F2N4O4\BAIDING\25-Oct-2025\
 0\\#p M062X/DEF2TZVPP scrf=(solvent=water) em=GD3\\Energy calculation 
 for DNB_24NO2\\0,1\C,0,0.751209,-3.171212,0.137888\C,0,-0.634051,-2.61
 7379,0.005949\C,0,-1.798992,-3.378254,0.016443\C,0,-2.902877,-2.510281
 ,-0.082696\C,0,-4.350073,-2.867786,-0.10964\N,0,-2.456201,-1.235403,-0
 .152124\C,0,-1.055651,-1.252712,-0.109803\C,0,-0.334949,-0.049757,-0.1
 47715\C,0,1.157944,-0.095692,-0.235129\C,0,1.73099,-0.266353,-1.5037\C
 ,0,3.109593,-0.284215,-1.683499\C,0,3.930451,-0.11428,-0.570834\N,0,5.
 385812,-0.132663,-0.742816\O,0,6.091553,0.009265,0.257409\O,0,5.831671
 ,-0.288912,-1.880717\C,0,3.416264,0.078054,0.703067\C,0,2.034317,0.073
 981,0.850253\N,0,1.524321,0.265834,2.212234\O,0,0.438159,-0.233248,2.5
 05997\O,0,2.218097,0.91718,2.995296\C,0,-0.982058,1.193871,-0.211194\C
 ,0,-0.486264,2.539345,-0.2683\C,0,0.925855,3.041557,-0.266152\C,0,-1.6
 09548,3.358366,-0.31828\C,0,-2.75987,2.547131,-0.297265\C,0,-4.185914,
 2.979597,-0.341894\N,0,-2.383701,1.250383,-0.230941\B,0,-3.341024,0.03
 1607,-0.248515\F,0,-4.22157,0.091555,0.841249\F,0,-4.084693,0.017132,-
 1.43873\H,0,1.366312,-2.968491,-0.744474\H,0,1.273581,-2.747133,1.0018
 61\H,0,0.702687,-4.254607,0.272682\H,0,-1.860502,-4.455337,0.095644\H,
 0,-4.827465,-2.492,-1.020449\H,0,-4.471307,-3.95149,-0.068218\H,0,-4.8
 78219,-2.41879,0.737664\H,0,1.078152,-0.383144,-2.360697\H,0,3.539601,
 -0.42494,-2.666762\H,0,4.06481,0.2145,1.557258\H,0,1.538531,2.566648,-
 1.037888\H,0,0.928381,4.119093,-0.448593\H,0,1.421861,2.869693,0.69547
 1\H,0,-1.612158,4.438973,-0.367432\H,0,-4.699659,2.536718,-1.201156\H,
 0,-4.720822,2.652209,0.555398\H,0,-4.248022,4.066671,-0.413754\\Versio
 n=ES64L-G16RevA.03\State=1-A\HF=-1478.7334948\RMSD=3.400e-09\Dipole=0.
 6467774,-0.2954432,-1.6520827\Quadrupole=-25.3112718,28.8787393,-3.567
 4676,-1.1182048,-1.7669678,-2.7254316\PG=C01 [X(C19H17B1F2N4O4)]\\@


 TERENCE, THIS IS STUPID STUFF:
 YOU EAT YOUR VICTUALS FAST ENOUGH;
 THERE CAN'T BE MUCH AMISS, 'TIS CLEAR
 TO SEE THE RATE YOU DRINK YOUR BEER.
 BUT OH, GOOD LORD, THE VERSE YOU MAKE,
 IT GIVES A CHAP THE BELLY-ACHE.
 THE COW, THE OLD COW, SHE IS DEAD;
 IT SLEEPS WELL, THE HORNED HEAD:
 WE POOR LADS, 'TIS OUR TURN NOW
 TO HEAR SUCH TUNES AS KILLED THE COW.
 PRETTY FRIENDSHIP 'TIS TO RHYME
 YOUR FRIENDS TO DEATH BEFORE THEIR TIME.
 MOPING, MELANCHOLY MAD:
 COME PIPE A TUNE TO DANCE TO, LAD.

     -- A. E. HOUSMAN
 Job cpu time:       0 days 11 hours 29 minutes 54.8 seconds.
 Elapsed time:       0 days  0 hours 10 minutes 54.8 seconds.
 File lengths (MBytes):  RWF=    911 Int=      0 D2E=      0 Chk=     81 Scr=      1
 Normal termination of Gaussian 16 at Sat Oct 25 13:23:09 2025.
