 Entering Gaussian System, Link 0=g16
 Input=DNB_24NO2_reduced_sp.gjf
 Output=DNB_24NO2_reduced_sp.log
 Initial command:
 /public/software/gauss/g16/l1.exe "/public/home/baiding/1024_sp/tmp_DNB_24NO2_reduced_sp_1526250/Gau-2972661.inp" -scrdir="/public/home/baiding/1024_sp/tmp_DNB_24NO2_reduced_sp_1526250/"
 Entering Link 1 = /public/software/gauss/g16/l1.exe PID=   2972662.
  
 Copyright (c) 1988,1990,1992,1993,1995,1998,2003,2009,2016,
            Gaussian, Inc.  All Rights Reserved.
  
 This is part of the Gaussian(R) 16 program.  It is based on
 the Gaussian(R) 09 system (copyright 2009, Gaussian, Inc.),
 the Gaussian(R) 03 system (copyright 2003, Gaussian, Inc.),
 the Gaussian(R) 98 system (copyright 1998, Gaussian, Inc.),
 the Gaussian(R) 94 system (copyright 1995, Gaussian, Inc.),
 the Gaussian 92(TM) system (copyright 1992, Gaussian, Inc.),
 the Gaussian 90(TM) system (copyright 1990, Gaussian, Inc.),
 the Gaussian 88(TM) system (copyright 1988, Gaussian, Inc.),
 the Gaussian 86(TM) system (copyright 1986, Carnegie Mellon
 University), and the Gaussian 82(TM) system (copyright 1983,
 Carnegie Mellon University). Gaussian is a federally registered
 trademark of Gaussian, Inc.
  
 This software contains proprietary and confidential information,
 including trade secrets, belonging to Gaussian, Inc.
  
 This software is provided under written license and may be
 used, copied, transmitted, or stored only in accord with that
 written license.
  
 The following legend is applicable only to US Government
 contracts under FAR:
  
                    RESTRICTED RIGHTS LEGEND
  
 Use, reproduction and disclosure by the US Government is
 subject to restrictions as set forth in subparagraphs (a)
 and (c) of the Commercial Computer Software - Restricted
 Rights clause in FAR 52.227-19.
  
 Gaussian, Inc.
 340 Quinnipiac St., Bldg. 40, Wallingford CT 06492
  
  
 ---------------------------------------------------------------
 Warning -- This program may not be used in any manner that
 competes with the business of Gaussian, Inc. or will provide
 assistance to any competitor of Gaussian, Inc.  The licensee
 of this program is prohibited from giving any competitor of
 Gaussian, Inc. access to this program.  By using this program,
 the user acknowledges that Gaussian, Inc. is engaged in the
 business of creating and licensing software in the field of
 computational chemistry and represents and warrants to the
 licensee that it is not a competitor of Gaussian, Inc. and that
 it will not use this program in any manner prohibited above.
 ---------------------------------------------------------------
  

 Cite this work as:
 Gaussian 16, Revision A.03,
 M. J. Frisch, G. W. Trucks, H. B. Schlegel, G. E. Scuseria, 
 M. A. Robb, J. R. Cheeseman, G. Scalmani, V. Barone, 
 G. A. Petersson, H. Nakatsuji, X. Li, M. Caricato, A. V. Marenich, 
 J. Bloino, B. G. Janesko, R. Gomperts, B. Mennucci, H. P. Hratchian, 
 J. V. Ortiz, A. F. Izmaylov, J. L. Sonnenberg, D. Williams-Young, 
 F. Ding, F. Lipparini, F. Egidi, J. Goings, B. Peng, A. Petrone, 
 T. Henderson, D. Ranasinghe, V. G. Zakrzewski, J. Gao, N. Rega, 
 G. Zheng, W. Liang, M. Hada, M. Ehara, K. Toyota, R. Fukuda, 
 J. Hasegawa, M. Ishida, T. Nakajima, Y. Honda, O. Kitao, H. Nakai, 
 T. Vreven, K. Throssell, J. A. Montgomery, Jr., J. E. Peralta, 
 F. Ogliaro, M. J. Bearpark, J. J. Heyd, E. N. Brothers, K. N. Kudin, 
 V. N. Staroverov, T. A. Keith, R. Kobayashi, J. Normand, 
 K. Raghavachari, A. P. Rendell, J. C. Burant, S. S. Iyengar, 
 J. Tomasi, M. Cossi, J. M. Millam, M. Klene, C. Adamo, R. Cammi, 
 J. W. Ochterski, R. L. Martin, K. Morokuma, O. Farkas, 
 J. B. Foresman, and D. J. Fox, Gaussian, Inc., Wallingford CT, 2016.
 
 ******************************************
 Gaussian 16:  ES64L-G16RevA.03 25-Dec-2016
                25-Oct-2025 
 ******************************************
 %nprocshared=64
 Will use up to   64 processors via shared memory.
 %mem=230GB
 %chk=DNB_24NO2_reduced_sp.chk
 ----------------------------------------------
 #p M062X/DEF2TZVPP scrf=(solvent=water) em=GD3
 ----------------------------------------------
 1/38=1,172=1/1;
 2/12=2,17=6,18=5,40=1/2;
 3/5=44,7=202,11=2,25=1,30=1,70=2201,72=1,74=-55,124=31/1,2,3;
 4//1;
 5/5=2,38=5,53=1/2;
 6/7=2,8=2,9=2,10=2,28=1/1;
 99/5=1,9=1/99;
 Leave Link    1 at Sat Oct 25 12:46:32 2025, MaxMem= 30870077440 cpu:              11.8 elap:               0.2
 (Enter /public/software/gauss/g16/l101.exe)
 ----------------------------------------
 Energy calculation for DNB_24NO2_reduced
 ----------------------------------------
 Symbolic Z-matrix:
 Charge = -1 Multiplicity = 2
 C                     0.96567  -2.95664  -0.53723 
 C                    -0.45305  -2.48421  -0.42939 
 C                    -1.56474  -3.32273  -0.49596 
 C                    -2.72537  -2.53817  -0.38908 
 C                    -4.146    -2.99193  -0.42952 
 N                    -2.3677   -1.23977  -0.2497 
 C                    -0.96676  -1.15772  -0.26239 
 C                    -0.32998   0.09418  -0.15591 
 C                     1.15403   0.18026  -0.21753 
 C                     1.7568    0.59214  -1.42177 
 C                     3.1296    0.60999  -1.60097 
 C                     3.97982   0.2025   -0.54137 
 N                     5.36692   0.21469  -0.69029 
 O                     6.12098  -0.15543   0.28443 
 O                     5.87105   0.59576  -1.81029 
 C                     3.416    -0.20547   0.67767 
 C                     2.03838  -0.20334   0.82246 
 N                     1.53363  -0.5602    2.14047 
 O                     0.43124  -0.11831   2.49117 
 O                     2.22701  -1.28684   2.86719 
 C                    -1.08252   1.27964  -0.07502 
 C                    -0.68894   2.64161   0.12372 
 C                     0.68187   3.21397   0.31705 
 C                    -1.86884   3.38276   0.15802 
 C                    -2.95442   2.5033    0.00268 
 C                    -4.40891   2.83448  -0.0092 
 N                    -2.48301   1.24127  -0.13111 
 B                    -3.34429  -0.03949  -0.22702 
 F                    -4.2036   -0.13062   0.88057 
 F                    -4.11734  -0.02138  -1.40068 
 H                     0.97862  -3.99565  -0.87726 
 H                     1.54749  -2.35851  -1.24416 
 H                     1.48995  -2.92078   0.42413 
 H                    -1.54927  -4.39732  -0.62082 
 H                    -4.67252  -2.55091  -1.28227 
 H                    -4.19181  -4.0793   -0.51206 
 H                    -4.68237  -2.68186   0.47288 
 H                     1.11234   0.88463  -2.24447 
 H                     3.56254   0.92461  -2.54079 
 H                     4.05373  -0.4871    1.50286 
 H                     1.27968   3.186    -0.59975 
 H                     0.60255   4.25747   0.63369 
 H                     1.24251   2.66635   1.0811 
 H                    -1.9501    4.45273   0.29633 
 H                    -4.88495   2.4741   -0.92677 
 H                    -4.92544   2.35541   0.82893 
 H                    -4.54994   3.91448   0.06141 
 
 ITRead=  0  0  0  0  0  0  0  0  0  0  0  0  0  0  0  0  0  0  0  0
 ITRead=  0  0  0  0  0  0  0  0  0  0  0  0  0  0  0  0  0  0  0  0
 ITRead=  0  0  0  0  0  0  0
 MicOpt= -1 -1 -1 -1 -1 -1 -1 -1 -1 -1 -1 -1 -1 -1 -1 -1 -1 -1 -1 -1
 MicOpt= -1 -1 -1 -1 -1 -1 -1 -1 -1 -1 -1 -1 -1 -1 -1 -1 -1 -1 -1 -1
 MicOpt= -1 -1 -1 -1 -1 -1 -1
 NAtoms=     47 NQM=       47 NQMF=       0 NMMI=      0 NMMIF=      0
                NMic=       0 NMicF=      0.
                    Isotopes and Nuclear Properties:
 (Nuclear quadrupole moments (NQMom) in fm**2, nuclear magnetic moments (NMagM)
  in nuclear magnetons)

  Atom         1           2           3           4           5           6           7           8           9          10
 IAtWgt=          12          12          12          12          12          14          12          12          12          12
 AtmWgt=  12.0000000  12.0000000  12.0000000  12.0000000  12.0000000  14.0030740  12.0000000  12.0000000  12.0000000  12.0000000
 NucSpn=           0           0           0           0           0           2           0           0           0           0
 AtZEff=  -0.0000000  -0.0000000  -0.0000000  -0.0000000  -0.0000000  -0.0000000  -0.0000000  -0.0000000  -0.0000000  -0.0000000
 NQMom=    0.0000000   0.0000000   0.0000000   0.0000000   0.0000000   2.0440000   0.0000000   0.0000000   0.0000000   0.0000000
 NMagM=    0.0000000   0.0000000   0.0000000   0.0000000   0.0000000   0.4037610   0.0000000   0.0000000   0.0000000   0.0000000
 AtZNuc=   6.0000000   6.0000000   6.0000000   6.0000000   6.0000000   7.0000000   6.0000000   6.0000000   6.0000000   6.0000000

  Atom        11          12          13          14          15          16          17          18          19          20
 IAtWgt=          12          12          14          16          16          12          12          14          16          16
 AtmWgt=  12.0000000  12.0000000  14.0030740  15.9949146  15.9949146  12.0000000  12.0000000  14.0030740  15.9949146  15.9949146
 NucSpn=           0           0           2           0           0           0           0           2           0           0
 AtZEff=  -0.0000000  -0.0000000  -0.0000000  -0.0000000  -0.0000000  -0.0000000  -0.0000000  -0.0000000  -0.0000000  -0.0000000
 NQMom=    0.0000000   0.0000000   2.0440000   0.0000000   0.0000000   0.0000000   0.0000000   2.0440000   0.0000000   0.0000000
 NMagM=    0.0000000   0.0000000   0.4037610   0.0000000   0.0000000   0.0000000   0.0000000   0.4037610   0.0000000   0.0000000
 AtZNuc=   6.0000000   6.0000000   7.0000000   8.0000000   8.0000000   6.0000000   6.0000000   7.0000000   8.0000000   8.0000000

  Atom        21          22          23          24          25          26          27          28          29          30
 IAtWgt=          12          12          12          12          12          12          14          11          19          19
 AtmWgt=  12.0000000  12.0000000  12.0000000  12.0000000  12.0000000  12.0000000  14.0030740  11.0093053  18.9984033  18.9984033
 NucSpn=           0           0           0           0           0           0           2           3           1           1
 AtZEff=  -0.0000000  -0.0000000  -0.0000000  -0.0000000  -0.0000000  -0.0000000  -0.0000000  -0.0000000  -0.0000000  -0.0000000
 NQMom=    0.0000000   0.0000000   0.0000000   0.0000000   0.0000000   0.0000000   2.0440000   4.0590000   0.0000000   0.0000000
 NMagM=    0.0000000   0.0000000   0.0000000   0.0000000   0.0000000   0.0000000   0.4037610   2.6886370   2.6288670   2.6288670
 AtZNuc=   6.0000000   6.0000000   6.0000000   6.0000000   6.0000000   6.0000000   7.0000000   5.0000000   9.0000000   9.0000000

  Atom        31          32          33          34          35          36          37          38          39          40
 IAtWgt=           1           1           1           1           1           1           1           1           1           1
 AtmWgt=   1.0078250   1.0078250   1.0078250   1.0078250   1.0078250   1.0078250   1.0078250   1.0078250   1.0078250   1.0078250
 NucSpn=           1           1           1           1           1           1           1           1           1           1
 AtZEff=  -0.0000000  -0.0000000  -0.0000000  -0.0000000  -0.0000000  -0.0000000  -0.0000000  -0.0000000  -0.0000000  -0.0000000
 NQMom=    0.0000000   0.0000000   0.0000000   0.0000000   0.0000000   0.0000000   0.0000000   0.0000000   0.0000000   0.0000000
 NMagM=    2.7928460   2.7928460   2.7928460   2.7928460   2.7928460   2.7928460   2.7928460   2.7928460   2.7928460   2.7928460
 AtZNuc=   1.0000000   1.0000000   1.0000000   1.0000000   1.0000000   1.0000000   1.0000000   1.0000000   1.0000000   1.0000000

  Atom        41          42          43          44          45          46          47
 IAtWgt=           1           1           1           1           1           1           1
 AtmWgt=   1.0078250   1.0078250   1.0078250   1.0078250   1.0078250   1.0078250   1.0078250
 NucSpn=           1           1           1           1           1           1           1
 AtZEff=  -0.0000000  -0.0000000  -0.0000000  -0.0000000  -0.0000000  -0.0000000  -0.0000000
 NQMom=    0.0000000   0.0000000   0.0000000   0.0000000   0.0000000   0.0000000   0.0000000
 NMagM=    2.7928460   2.7928460   2.7928460   2.7928460   2.7928460   2.7928460   2.7928460
 AtZNuc=   1.0000000   1.0000000   1.0000000   1.0000000   1.0000000   1.0000000   1.0000000
 Leave Link  101 at Sat Oct 25 12:46:32 2025, MaxMem= 30870077440 cpu:               3.9 elap:               0.1
 (Enter /public/software/gauss/g16/l202.exe)
                          Input orientation:                          
 ---------------------------------------------------------------------
 Center     Atomic      Atomic             Coordinates (Angstroms)
 Number     Number       Type             X           Y           Z
 ---------------------------------------------------------------------
      1          6           0        0.965673   -2.956635   -0.537234
      2          6           0       -0.453054   -2.484213   -0.429389
      3          6           0       -1.564743   -3.322726   -0.495964
      4          6           0       -2.725372   -2.538171   -0.389084
      5          6           0       -4.145998   -2.991931   -0.429515
      6          7           0       -2.367700   -1.239769   -0.249696
      7          6           0       -0.966763   -1.157720   -0.262392
      8          6           0       -0.329980    0.094184   -0.155906
      9          6           0        1.154026    0.180261   -0.217533
     10          6           0        1.756800    0.592143   -1.421766
     11          6           0        3.129600    0.609992   -1.600972
     12          6           0        3.979819    0.202495   -0.541374
     13          7           0        5.366918    0.214690   -0.690291
     14          8           0        6.120980   -0.155426    0.284426
     15          8           0        5.871051    0.595757   -1.810291
     16          6           0        3.416000   -0.205473    0.677674
     17          6           0        2.038377   -0.203343    0.822460
     18          7           0        1.533632   -0.560202    2.140467
     19          8           0        0.431235   -0.118314    2.491174
     20          8           0        2.227013   -1.286838    2.867190
     21          6           0       -1.082523    1.279644   -0.075018
     22          6           0       -0.688938    2.641605    0.123716
     23          6           0        0.681874    3.213969    0.317054
     24          6           0       -1.868835    3.382757    0.158019
     25          6           0       -2.954423    2.503302    0.002679
     26          6           0       -4.408909    2.834483   -0.009201
     27          7           0       -2.483006    1.241267   -0.131109
     28          5           0       -3.344287   -0.039485   -0.227016
     29          9           0       -4.203602   -0.130620    0.880566
     30          9           0       -4.117342   -0.021383   -1.400678
     31          1           0        0.978616   -3.995652   -0.877259
     32          1           0        1.547491   -2.358505   -1.244156
     33          1           0        1.489949   -2.920781    0.424130
     34          1           0       -1.549272   -4.397319   -0.620815
     35          1           0       -4.672519   -2.550909   -1.282273
     36          1           0       -4.191809   -4.079296   -0.512056
     37          1           0       -4.682372   -2.681860    0.472877
     38          1           0        1.112335    0.884628   -2.244466
     39          1           0        3.562543    0.924614   -2.540789
     40          1           0        4.053731   -0.487097    1.502864
     41          1           0        1.279676    3.186002   -0.599750
     42          1           0        0.602553    4.257470    0.633693
     43          1           0        1.242507    2.666353    1.081095
     44          1           0       -1.950099    4.452734    0.296327
     45          1           0       -4.884954    2.474097   -0.926767
     46          1           0       -4.925440    2.355413    0.828928
     47          1           0       -4.549943    3.914483    0.061406
 ---------------------------------------------------------------------
                    Distance matrix (angstroms):
                    1          2          3          4          5
     1  C    0.000000
     2  C    1.499200   0.000000
     3  C    2.557094   1.394055   0.000000
     4  C    3.717644   2.273316   1.404995   0.000000
     5  C    5.112928   3.727682   2.603213   1.491882   0.000000
     6  N    3.760543   2.290589   2.245907   1.353959   2.502948
     7  C    2.654419   1.432260   2.258182   2.239286   3.674207
     8  C    3.336409   2.595780   3.649048   3.566731   4.915380
     9  C    3.158766   3.118816   4.442988   4.740151   6.180452
    10  C    3.741939   3.915640   5.216891   5.563736   6.976616
    11  C    4.305223   4.876692   6.222875   6.757241   8.202468
    12  C    4.366371   5.184718   6.570496   7.245276   8.731882
    13  N    5.426941   6.420609   7.784536   8.553019  10.042211
    14  O    5.924448   7.010756   8.349319   9.186350  10.675500
    15  O    6.188933   7.168501   8.507232   9.259580  10.729367
    16  C    3.879304   4.624697   5.991869   6.655517   8.134742
    17  C    3.252703   3.602322   4.944822   5.441743   6.898562
    18  N    3.638070   3.775301   4.917544   5.333864   6.691510
    19  O    4.184847   3.861235   4.814060   4.910780   6.143221
    20  O    3.996161   4.414057   5.461965   6.057662   7.375017
    21  C    4.728087   3.832549   4.646670   4.168129   5.268482
    22  C    5.874937   5.160967   6.060056   5.589285   6.632802
    23  C    6.235920   5.857859   6.959646   6.722728   7.898032
    24  C    6.978947   6.063895   6.744158   6.007526   6.794653
    25  C    6.743113   5.596323   6.010196   5.061857   5.639524
    26  C    7.918459   6.641828   6.799812   5.643050   5.847468
    27  N    5.448000   4.253102   4.669728   3.795977   4.557911
    28  B    5.213612   3.791685   3.744166   2.579293   3.066053
    29  F    6.059531   4.617574   4.364396   3.097334   3.147496
    30  F    5.932814   4.520613   4.270027   3.048791   3.125401
    31  H    1.093316   2.129487   2.658362   4.010248   5.241145
    32  H    1.093623   2.163753   3.342980   4.361283   5.786250
    33  H    1.095615   2.166644   3.215474   4.310062   5.700673
    34  H    2.899570   2.213213   1.081932   2.212090   2.958834
    35  H    5.701658   4.305316   3.297310   2.142272   1.094952
    36  H    5.278316   4.065638   2.733886   2.130874   1.091455
    37  H    5.744235   4.329004   3.327007   2.143239   1.094601
    38  H    4.206121   4.134494   5.284490   5.466808   6.780252
    39  H    5.081541   5.674780   6.964931   7.493903   8.900472
    40  H    4.449351   5.294637   6.603284   7.330935   8.788847
    41  H    6.150975   5.931502   7.103874   6.989345   8.223976
    42  H    7.317529   6.906138   7.964463   7.635568   8.731149
    43  H    5.857783   5.628927   6.799767   6.707649   7.958273
    44  H    8.005954   7.133656   7.825216   7.067078   7.795631
    45  H    7.992148   6.668880   6.694218   5.484134   5.538120
    46  H    8.049190   6.708769   6.729850   5.501910   5.548450
    47  H    8.831345   7.613717   7.848521   6.720770   6.935613
                    6          7          8          9         10
     6  N    0.000000
     7  C    1.403395   0.000000
     8  C    2.437320   1.408579   0.000000
     9  C    3.797377   2.507978   1.487777   0.000000
    10  C    4.662741   3.438599   2.490987   1.408247   0.000000
    11  C    5.955491   4.657982   3.784570   2.449789   1.384562
    12  C    6.515842   5.137771   4.328358   2.844376   2.422546
    13  N    7.882505   6.494776   5.723175   4.239475   3.702766
    14  O    8.574309   7.179116   6.470787   5.003527   4.745105
    15  O    8.583800   7.226782   6.437496   4.995982   4.132557
    16  C    5.948190   4.582479   3.849288   2.463070   2.792272
    17  C    4.651582   3.334457   2.579697   1.418032   2.397631
    18  N    4.625482   3.518911   3.028960   2.500510   3.750628
    19  O    4.074809   3.258357   2.762542   2.819338   4.192013
    20  O    5.552349   4.473384   4.193393   3.580391   4.706040
    21  C    2.833661   2.447295   1.406478   2.496218   3.216853
    22  C    4.245320   3.828986   2.587739   3.093733   3.545482
    23  C    5.427420   4.708017   3.313699   3.116423   3.324595
    24  C    4.667209   4.648270   3.644357   4.419809   4.840297
    25  C    3.797172   4.174223   3.566048   4.724867   5.279886
    26  C    4.563321   5.277325   4.916139   6.167215   6.711140
    27  N    2.486543   2.841015   2.439659   3.789618   4.479187
    28  B    1.547552   2.627608   3.018107   4.503687   5.277070
    29  F    2.424508   3.583073   4.016187   5.477832   6.430359
    30  F    2.422906   3.537387   3.988349   5.406275   5.906133
    31  H    4.380246   3.495199   4.354254   4.231342   4.685074
    32  H    4.191568   2.954187   3.274885   2.766605   2.963390
    33  H    4.261608   3.100827   3.569117   3.184500   3.977333
    34  H    3.282937   3.311010   4.677223   5.331482   6.038739
    35  H    2.845610   4.088247   5.207962   6.522391   7.157819
    36  H    3.385132   4.358768   5.697236   6.841675   7.618127
    37  H    2.821249   4.082814   5.200491   6.536968   7.468046
    38  H    4.539032   3.524550   2.658413   2.146236   1.085227
    39  H    6.715761   5.481042   4.639937   3.428197   2.150223
    40  H    6.698713   5.363881   4.722958   3.437066   3.872223
    41  H    5.745723   4.901859   3.513877   3.032550   2.762510
    42  H    6.310500   5.708766   4.338898   4.201469   4.357961
    43  H    5.482918   4.616207   3.258672   2.806228   3.291072
    44  H    5.733858   5.723313   4.671858   5.306003   5.621130
    45  H    4.537377   5.383652   5.196730   6.498767   6.920959
    46  H    4.542114   5.404092   5.215487   6.541122   7.268224
    47  H    5.605826   6.218623   5.696490   6.823304   7.280985
                   11         12         13         14         15
    11  C    0.000000
    12  C    1.418335   0.000000
    13  N    2.447692   1.395123   0.000000
    14  O    3.617865   2.322633   1.286728   0.000000
    15  O    2.749467   2.311182   1.285987   2.239326   0.000000
    16  C    2.437055   1.403712   2.419493   2.733874   3.585975
    17  C    2.779443   2.407061   3.679994   4.118182   4.717979
    18  N    4.232592   3.709152   4.827808   4.965128   5.979794
    19  O    4.955528   4.678858   5.881631   6.102812   6.971664
    20  O    4.937317   4.112025   4.976873   4.807675   6.221094
    21  C    4.529785   5.196638   6.565667   7.353848   7.199380
    22  C    4.656526   5.309321   6.574642   7.363708   7.138581
    23  C    4.055969   4.547781   5.653323   6.398262   6.189361
    24  C    5.980521   6.694025   7.944331   8.739100   8.458572
    25  C    6.570514   7.326214   8.658098   9.461034   9.209483
    26  C    8.019427   8.808026  10.143668  10.950084  10.673959
    27  N    5.836125   6.558618   7.936489   8.726511   8.545560
    28  B    6.649871   7.334842   8.727217   9.479783   9.371913
    29  F    7.777042   8.312717   9.704725  10.341808  10.453084
    30  F    7.277151   8.145707   9.513757  10.376935  10.015819
    31  H    5.134438   5.171506   6.084335   6.522327   6.774032
    32  H    3.382656   3.601228   4.638547   5.301596   5.267005
    33  H    4.388149   4.109319   5.109207   5.395661   6.045885
    34  H    6.922840   7.192736   8.313191   8.811690   9.022575
    35  H    8.424128   9.110056  10.430210  11.166580  11.015770
    36  H    8.762316   9.225513  10.480427  11.062764  11.171512
    37  H    8.727201   9.185955  10.522889  11.096432  11.284076
    38  H    2.135150   3.404158   4.578838   5.706447   4.787205
    39  H    1.081519   2.166388   2.680318   3.961556   2.443560
    40  H    3.419272   2.158682   2.650829   2.422419   3.930931
    41  H    3.325732   4.024363   5.053953   5.948540   5.408836
    42  H    4.968278   5.406434   6.387189   7.074509   6.865732
    43  H    3.870817   4.024410   5.114609   5.691803   5.837028
    44  H    6.646033   7.343719   8.513118   9.293955   8.971315
    45  H    8.256059   9.159307  10.500558  11.380332  10.954470
    46  H    8.592705   9.263715  10.621834  11.341260  11.252826
    47  H    8.523998   9.321965  10.611204  11.422893  11.095689
                   16         17         18         19         20
    16  C    0.000000
    17  C    1.385212   0.000000
    18  N    2.410167   1.455767   0.000000
    19  O    3.493594   2.318349   1.238362   0.000000
    20  O    2.716067   2.321738   1.239719   2.175237   0.000000
    21  C    4.796752   3.569977   3.890716   3.291062   5.118246
    22  C    5.026255   4.002527   4.388470   3.804839   5.609107
    23  C    4.392957   3.711274   4.277230   3.986694   5.398881
    24  C    6.408972   5.344895   5.572594   4.794938   6.776481
    25  C    6.955240   5.738120   5.839335   4.952591   7.029784
    26  C    8.422727   7.175482   7.173476   6.196602   8.324324
    27  N    6.127435   4.841394   4.953658   4.149413   6.129061
    28  B    6.822573   5.486467   5.447037   4.652885   6.493796
    29  F    7.622670   6.242673   5.889630   4.906722   6.829079
    30  F    7.816948   6.547391   6.690556   5.987108   7.750285
    31  H    4.766982   4.288793   4.606195   5.165241   4.787177
    32  H    3.438067   3.025986   3.832722   4.496351   4.302718
    33  H    3.338691   2.800698   2.918913   3.639693   3.030111
    34  H    6.626581   5.704709   5.643797   5.649493   6.008461
    35  H    8.646768   7.414654   7.361683   6.797406   8.149814
    36  H    8.619787   7.457826   7.224997   6.788321   7.772927
    37  H    8.471013   7.171731   6.776503   6.065828   7.444355
    38  H    3.877382   3.383381   4.636018   4.888361   5.664521
    39  H    3.414246   3.860934   5.313691   6.017760   5.993363
    40  H    1.080255   2.145954   2.600535   3.772961   2.416168
    41  H    4.206875   3.753128   4.648368   4.603495   5.737893
    42  H    5.275915   4.689997   5.132956   4.756792   6.194088
    43  H    3.624114   2.989223   3.408472   3.225036   4.448270
    44  H    7.116132   6.153358   6.377050   5.602016   7.549854
    45  H    8.869057   7.626335   7.733896   6.831162   8.894876
    46  H    8.727006   7.419031   7.206980   6.129955   8.281189
    47  H    8.989442   7.806514   7.832955   6.854149   8.991846
                   21         22         23         24         25
    21  C    0.000000
    22  C    1.431552   0.000000
    23  C    2.647344   1.498034   0.000000
    24  C    2.257361   1.393786   2.561230   0.000000
    25  C    2.237719   2.272928   3.718405   1.405729   0.000000
    26  C    3.672424   3.727339   5.115322   2.603948   1.491761
    27  N    1.402131   2.290101   3.756177   2.246504   1.353834
    28  B    2.622743   3.789741   5.204896   3.746592   2.582735
    29  F    3.555716   4.539925   5.947411   4.279840   3.044451
    30  F    3.558114   4.601004   6.037432   4.367321   3.113812
    31  H    5.720195   6.916348   7.313896   7.976258   7.647188
    32  H    4.638964   5.645688   5.851422   6.826380   6.742329
    33  H    4.950791   5.981466   6.188668   7.147506   7.025008
    34  H    5.722207   7.130284   7.986821   7.825489   7.069778
    35  H    5.386898   6.693872   8.028773   6.718890   5.490720
    36  H    6.211030   7.605578   8.810898   7.843943   6.717639
    37  H    5.380763   6.663986   7.972466   6.692885   5.485690
    38  H    3.111261   3.455407   3.488913   4.571647   4.920192
    39  H    5.270931   5.303087   4.659041   6.544150   7.171634
    40  H    5.656164   5.846686   5.145236   7.201470   7.765775
    41  H    3.080508   2.166844   1.094842   3.244387   4.330888
    42  H    3.494167   2.130504   1.093365   2.664422   4.015889
    43  H    2.943692   2.155845   1.094510   3.323515   4.336333
    44  H    3.310451   2.213710   2.908995   1.081935   2.212506
    45  H    4.075620   4.328755   5.751876   3.331576   2.142819
    46  H    4.091749   4.304321   5.695709   3.293689   2.142304
    47  H    4.357062   4.065890   5.284693   2.735033   2.130860
                   26         27         28         29         30
    26  C    0.000000
    27  N    2.502459   0.000000
    28  B    3.072549   1.546392   0.000000
    29  F    3.102527   2.421985   1.404801   0.000000
    30  F    3.190171   2.424282   1.405498   2.285486   0.000000
    31  H    8.742408   6.321779   5.895894   6.699538   6.483639
    32  H    7.998183   5.517439   5.508350   6.523265   6.130006
    33  H    8.252719   5.780597   5.665306   6.356875   6.571008
    34  H    7.800677   5.736316   4.729469   5.244457   5.133419
    35  H    5.540095   4.527664   3.030679   3.279566   2.592440
    36  H    6.935441   5.601207   4.137586   4.187073   4.154739
    37  H    5.544116   4.537944   3.043430   2.627595   3.302666
    38  H    6.267574   4.185683   4.978511   6.249459   5.374231
    39  H    8.579078   6.515788   7.347607   8.551736   7.821470
    40  H    9.216046   6.956008   7.610750   8.288418   8.684117
    41  H    5.729949   4.261384   5.650109   6.577055   6.329029
    42  H    5.249091   4.382132   5.897643   6.512711   6.687650
    43  H    5.758083   4.168903   5.483739   6.125632   6.489307
    44  H    2.959363   3.283323   4.732619   5.140695   5.253046
    45  H    1.094726   2.814657   3.030083   3.242722   2.653534
    46  H    1.094885   2.851048   3.057875   2.589223   3.357577
    47  H    1.091456   3.384579   4.143749   4.141719   4.220886
                   31         32         33         34         35
    31  H    0.000000
    32  H    1.771576   0.000000
    33  H    1.763639   1.761432   0.000000
    34  H    2.572415   3.759688   3.536798   0.000000
    35  H    5.846935   6.223102   6.405047   3.688011   0.000000
    36  H    5.183982   6.036278   5.873753   2.663826   1.777719
    37  H    5.966213   6.470236   6.177136   3.735676   1.760056
    38  H    5.069938   3.421680   4.663168   6.133462   6.796563
    39  H    5.801123   4.064549   5.279532   7.624954   9.026592
    40  H    5.237488   4.162875   3.695871   7.154963   9.389555
    41  H    7.193317   5.588250   6.195591   8.093834   8.294975
    42  H    8.398716   6.941927   7.235930   9.006082   8.823340
    43  H    6.948892   5.545179   5.631065   7.783700   8.233642
    44  H    9.018309   7.810198   8.137505   8.906472   7.678188
    45  H    8.731641   8.051778   8.459847   7.644393   5.042043
    46  H    8.837702   8.271489   8.316207   7.687630   5.347255
    47  H    9.696200   8.844974   9.128674   8.863154   6.604680
                   36         37         38         39         40
    36  H    0.000000
    37  H    1.778643   0.000000
    38  H    7.468315   7.326829   0.000000
    39  H    9.449066   9.490388   2.468385   0.000000
    40  H    9.216980   9.066276   4.957411   4.311070   0.000000
    41  H    9.095570   8.433762   2.833622   3.754063   5.060437
    42  H    9.685056   8.724139   4.463154   5.472367   5.931020
    43  H    8.807593   8.004842   3.775029   4.640503   4.245600
    44  H    8.858571   7.641918   5.344671   7.133448   7.867886
    45  H    6.602984   5.346395   6.342730   8.738774   9.724807
    46  H    6.613768   5.055687   6.932798   9.243811   9.442434
    47  H    8.022320   6.610491   6.823376   9.029018   9.771127
                   41         42         43         44         45
    41  H    0.000000
    42  H    1.768593   0.000000
    43  H    1.759732   1.772389   0.000000
    44  H    3.583156   2.582242   3.741624   0.000000
    45  H    6.214210   5.977306   6.450911   3.744908   0.000000
    46  H    6.421407   5.849329   6.180926   3.679004   1.760168
    47  H    5.912044   5.195514   6.012493   2.665350   1.778603
                   46         47
    46  H    0.000000
    47  H    1.777860   0.000000
 Stoichiometry    C19H17BF2N4O4(1-,2)
 Framework group  C1[X(C19H17BF2N4O4)]
 Deg. of freedom   135
 Full point group                 C1      NOp   1
 Largest Abelian subgroup         C1      NOp   1
 Largest concise Abelian subgroup C1      NOp   1
                         Standard orientation:                         
 ---------------------------------------------------------------------
 Center     Atomic      Atomic             Coordinates (Angstroms)
 Number     Number       Type             X           Y           Z
 ---------------------------------------------------------------------
      1          6           0        0.965673   -2.956635   -0.537234
      2          6           0       -0.453054   -2.484213   -0.429389
      3          6           0       -1.564743   -3.322726   -0.495964
      4          6           0       -2.725372   -2.538171   -0.389084
      5          6           0       -4.145998   -2.991931   -0.429515
      6          7           0       -2.367700   -1.239769   -0.249696
      7          6           0       -0.966763   -1.157720   -0.262392
      8          6           0       -0.329980    0.094184   -0.155906
      9          6           0        1.154026    0.180261   -0.217533
     10          6           0        1.756800    0.592143   -1.421766
     11          6           0        3.129600    0.609992   -1.600972
     12          6           0        3.979819    0.202495   -0.541374
     13          7           0        5.366918    0.214690   -0.690291
     14          8           0        6.120980   -0.155426    0.284426
     15          8           0        5.871051    0.595757   -1.810291
     16          6           0        3.416000   -0.205473    0.677674
     17          6           0        2.038377   -0.203343    0.822460
     18          7           0        1.533632   -0.560202    2.140467
     19          8           0        0.431235   -0.118314    2.491174
     20          8           0        2.227013   -1.286838    2.867190
     21          6           0       -1.082523    1.279644   -0.075018
     22          6           0       -0.688938    2.641605    0.123716
     23          6           0        0.681874    3.213969    0.317054
     24          6           0       -1.868835    3.382757    0.158019
     25          6           0       -2.954423    2.503302    0.002679
     26          6           0       -4.408909    2.834483   -0.009201
     27          7           0       -2.483006    1.241267   -0.131109
     28          5           0       -3.344287   -0.039485   -0.227016
     29          9           0       -4.203602   -0.130620    0.880566
     30          9           0       -4.117342   -0.021383   -1.400678
     31          1           0        0.978616   -3.995652   -0.877259
     32          1           0        1.547491   -2.358505   -1.244156
     33          1           0        1.489949   -2.920781    0.424130
     34          1           0       -1.549272   -4.397319   -0.620815
     35          1           0       -4.672519   -2.550909   -1.282273
     36          1           0       -4.191809   -4.079296   -0.512056
     37          1           0       -4.682372   -2.681860    0.472877
     38          1           0        1.112335    0.884628   -2.244466
     39          1           0        3.562543    0.924614   -2.540789
     40          1           0        4.053731   -0.487097    1.502864
     41          1           0        1.279676    3.186002   -0.599750
     42          1           0        0.602553    4.257470    0.633693
     43          1           0        1.242507    2.666353    1.081095
     44          1           0       -1.950099    4.452734    0.296327
     45          1           0       -4.884954    2.474097   -0.926767
     46          1           0       -4.925440    2.355413    0.828928
     47          1           0       -4.549943    3.914483    0.061406
 ---------------------------------------------------------------------
 Rotational constants (GHZ):           0.2768854           0.1094286           0.0935101
 Leave Link  202 at Sat Oct 25 12:46:32 2025, MaxMem= 30870077440 cpu:               0.3 elap:               0.0
 (Enter /public/software/gauss/g16/l301.exe)
 Standard basis: def2TZVPP (5D, 7F)
 Ernie: Thresh=  0.10000D-02 Tol=  0.10000D-05 Strict=F.
 There are  1335 symmetry adapted cartesian basis functions of A   symmetry.
 There are  1168 symmetry adapted basis functions of A   symmetry.
  1168 basis functions,  1819 primitive gaussians,  1335 cartesian basis functions
   108 alpha electrons      107 beta electrons
       nuclear repulsion energy      3020.2879444059 Hartrees.
 IExCor= 4336 DFT=T Ex+Corr=M062X ExCW=0 ScaHFX=  0.540000
 ScaDFX=  1.000000  1.000000  1.000000  1.000000 ScalE2=  1.000000  1.000000
 IRadAn=      5 IRanWt=     -1 IRanGd=            0 ICorTp=0 IEmpDi=131
 NAtoms=   47 NActive=   47 NUniq=   47 SFac= 1.00D+00 NAtFMM=   60 NAOKFM=F Big=F
 Integral buffers will be    131072 words long.
 Raffenetti 2 integral format.
 Two-electron integral symmetry is turned on.
 R6Disp:  Grimme-D3 Dispersion energy=       -0.0041246969 Hartrees.
 Nuclear repulsion after empirical dispersion term =     3020.2838197090 Hartrees.
 ------------------------------------------------------------------------------
 Polarizable Continuum Model (PCM)
 =================================
 Model                : PCM.
 Atomic radii         : UFF (Universal Force Field).
 Polarization charges : Total charges.
 Charge compensation  : None.
 Solution method      : On-the-fly selection.
 Cavity type          : Scaled VdW (van der Waals Surface) (Alpha=1.100).
 Cavity algorithm     : GePol (No added spheres)
                        Default sphere list used, NSphG=   47.
                        Lebedev-Laikov grids with approx.  5.0 points / Ang**2.
                        Smoothing algorithm: York/Karplus (Gamma=1.0000).
                        Polarization charges: spherical gaussians, with
                                              point-specific exponents (IZeta= 3).
                        Self-potential: point-specific (ISelfS= 7).
                        Self-field    : sphere-specific E.n sum rule (ISelfD= 2).
 Solvent              : Water, Eps=  78.355300 Eps(inf)=   1.777849
 ------------------------------------------------------------------------------
 GePol: Number of generator spheres                  =      47
 GePol: Total number of spheres                      =      47
 GePol: Number of exposed spheres                    =      47 (100.00%)
 GePol: Number of points                             =    3494
 GePol: Average weight of points                     =       0.13
 GePol: Minimum weight of points                     =   0.36D-11
 GePol: Maximum weight of points                     =    0.20577
 GePol: Number of points with low weight             =     226
 GePol: Fraction of low-weight points (<1% of avg)   =       6.47%
 GePol: Cavity surface area                          =    436.821 Ang**2
 GePol: Cavity volume                                =    509.191 Ang**3
 Leave Link  301 at Sat Oct 25 12:46:32 2025, MaxMem= 30870077440 cpu:               3.8 elap:               0.1
 (Enter /public/software/gauss/g16/l302.exe)
 NPDir=0 NMtPBC=     1 NCelOv=     1 NCel=       1 NClECP=     1 NCelD=      1
         NCelK=      1 NCelE2=     1 NClLst=     1 CellRange=     0.0.
 One-electron integrals computed using PRISM.
 One-electron integral symmetry used in STVInt
   1 Symmetry operations used in ECPInt.
 ECPInt:  NShTT=   93528 NPrTT=  271927 LenC2=   76674 LenP2D=  156449.
 LDataN:  DoStor=T MaxTD1= 6 Len=  172
 NBasis=  1168 RedAO= T EigKep=  3.58D-06  NBF=  1168
 NBsUse=  1168 1.00D-06 EigRej= -1.00D+00 NBFU=  1168
 Precomputing XC quadrature grid using
 IXCGrd= 4 IRadAn=           5 IRanWt=          -1 IRanGd=           0 AccXCQ= 0.00D+00.
 Generated NRdTot=       0 NPtTot=           0 NUsed=           0 NTot=          32
 NSgBfM=  1301  1301  1301  1301  1301 MxSgAt=    47 MxSgA2=    47.
 Leave Link  302 at Sat Oct 25 12:46:35 2025, MaxMem= 30870077440 cpu:             202.5 elap:               3.2
 (Enter /public/software/gauss/g16/l303.exe)
 DipDrv:  MaxL=1.
 Leave Link  303 at Sat Oct 25 12:46:36 2025, MaxMem= 30870077440 cpu:              13.6 elap:               0.3
 (Enter /public/software/gauss/g16/l401.exe)
 ExpMin= 6.06D-02 ExpMax= 3.55D+04 ExpMxC= 1.21D+03 IAcc=3 IRadAn=         5 AccDes= 0.00D+00
 Harris functional with IExCor= 1009 and IRadAn=       5 diagonalized for initial guess.
 HarFok:  IExCor= 1009 AccDes= 0.00D+00 IRadAn=         5 IDoV= 1 UseB2=F ITyADJ=14
 ICtDFT=  3500011 ScaDFX=  1.000000  1.000000  1.000000  1.000000
 FoFCou: FMM=F IPFlag=           0 FMFlag=      100000 FMFlg1=           0
         NFxFlg=           0 DoJE=T BraDBF=F KetDBF=T FulRan=T
         wScrn=  0.000000 ICntrl=       500 IOpCl=  0 I1Cent=   200000004 NGrid=           0
         NMat0=    1 NMatS0=      1 NMatT0=    0 NMatD0=    1 NMtDS0=    0 NMtDT0=    0
 Petite list used in FoFCou.
 Harris En= -1478.20248206981    
 JPrj=0 DoOrth=F DoCkMO=F.
 Initial guess <Sx>= 0.0000 <Sy>= 0.0000 <Sz>= 0.5000 <S**2>= 0.7500 S= 0.5000
 Leave Link  401 at Sat Oct 25 12:46:41 2025, MaxMem= 30870077440 cpu:             342.7 elap:               5.4
 (Enter /public/software/gauss/g16/l502.exe)
 Integral symmetry usage will be decided dynamically.
 UHF open shell SCF:
 Using DIIS extrapolation, IDIIS=  1040.
 NGot= 30870077440 LenX= 30866416311 LenY= 30864632751
 Requested convergence on RMS density matrix=1.00D-08 within 128 cycles.
 Requested convergence on MAX density matrix=1.00D-06.
 Requested convergence on             energy=1.00D-06.
 No special actions if energy rises.
 Fock matrices will be formed incrementally for  20 cycles.

 Cycle   1  Pass 1  IDiag  1:
 FoFJK:  IHMeth= 1 ICntrl=       0 DoSepK=F KAlg= 0 I1Cent=           0 FoldK=F
 IRaf= 740000000 NMat=       1 IRICut=       1 DoRegI=T DoRafI=F ISym2E= 0 IDoP0=0 IntGTp=1.
 FoFCou: FMM=F IPFlag=           0 FMFlag=      100000 FMFlg1=           0
         NFxFlg=           0 DoJE=F BraDBF=F KetDBF=F FulRan=T
         wScrn=  0.000000 ICntrl=         0 IOpCl=  1 I1Cent=           0 NGrid=           0
         NMat0=    1 NMatS0=      1 NMatT0=    0 NMatD0=    1 NMtDS0=    0 NMtDT0=    0
 Symmetry not used in FoFCou.
 Inv3:  Mode=1 IEnd=    36624108.
 Iteration    1 A*A^-1 deviation from unit magnitude is 1.53D-14 for     53.
 Iteration    1 A*A^-1 deviation from orthogonality  is 3.69D-15 for   2730    704.
 Iteration    1 A^-1*A deviation from unit magnitude is 1.44D-14 for     53.
 Iteration    1 A^-1*A deviation from orthogonality  is 5.12D-15 for   3311    843.
 E= -1477.96523308854    
 DIIS: error= 2.87D-02 at cycle   1 NSaved=   1.
 NSaved= 1 IEnMin= 1 EnMin= -1477.96523308854     IErMin= 1 ErrMin= 2.87D-02
 ErrMax= 2.87D-02  0.00D+00 EMaxC= 1.00D-01 BMatC= 4.81D+00 BMatP= 4.81D+00
 IDIUse=3 WtCom= 7.13D-01 WtEn= 2.87D-01
 Coeff-Com:  0.100D+01
 Coeff-En:   0.100D+01
 Coeff:      0.100D+01
 Gap=    -0.007 Goal=   None    Shift=    0.000
 Gap=     0.165 Goal=   None    Shift=    0.000
 GapD=   -0.007 DampG=0.250 DampE=0.500 DampFc=0.2500 IDamp=-1.
 Damping current iteration by 2.50D-01
 RMSDP=3.59D-03 MaxDP=8.79D-01              OVMax= 8.57D-01

 Cycle   2  Pass 1  IDiag  1:
 RMSU=  8.90D-04    CP:  1.02D+00
 E= -1478.27723508386     Delta-E=       -0.312001995322 Rises=F Damp=T
 DIIS: error= 1.20D-02 at cycle   2 NSaved=   2.
 NSaved= 2 IEnMin= 2 EnMin= -1478.27723508386     IErMin= 2 ErrMin= 1.20D-02
 ErrMax= 1.20D-02  0.00D+00 EMaxC= 1.00D-01 BMatC= 1.47D+00 BMatP= 4.81D+00
 IDIUse=3 WtCom= 8.80D-01 WtEn= 1.20D-01
 Coeff-Com: -0.906D+00 0.191D+01
 Coeff-En:   0.000D+00 0.100D+01
 Coeff:     -0.798D+00 0.180D+01
 Gap=     0.045 Goal=   None    Shift=    0.000
 Gap=     0.207 Goal=   None    Shift=    0.000
 RMSDP=1.57D-03 MaxDP=4.23D-01 DE=-3.12D-01 OVMax= 7.13D-01

 Cycle   3  Pass 1  IDiag  1:
 RMSU=  1.01D-03    CP:  1.05D+00  2.35D+00
 E= -1478.80480332433     Delta-E=       -0.527568240471 Rises=F Damp=F
 DIIS: error= 1.02D-02 at cycle   3 NSaved=   3.
 NSaved= 3 IEnMin= 3 EnMin= -1478.80480332433     IErMin= 3 ErrMin= 1.02D-02
 ErrMax= 1.02D-02  0.00D+00 EMaxC= 1.00D-01 BMatC= 2.21D-01 BMatP= 1.47D+00
 IDIUse=3 WtCom= 8.98D-01 WtEn= 1.02D-01
 Coeff-Com: -0.418D+00 0.779D+00 0.639D+00
 Coeff-En:   0.000D+00 0.000D+00 0.100D+01
 Coeff:     -0.375D+00 0.699D+00 0.676D+00
 Gap=     0.048 Goal=   None    Shift=    0.000
 Gap=     0.160 Goal=   None    Shift=    0.000
 RMSDP=5.97D-04 MaxDP=1.64D-01 DE=-5.28D-01 OVMax= 3.45D-01

 Cycle   4  Pass 1  IDiag  1:
 RMSU=  4.91D-04    CP:  1.02D+00  2.11D+00  7.61D-01
 E= -1478.84272389971     Delta-E=       -0.037920575381 Rises=F Damp=F
 DIIS: error= 6.83D-03 at cycle   4 NSaved=   4.
 NSaved= 4 IEnMin= 4 EnMin= -1478.84272389971     IErMin= 4 ErrMin= 6.83D-03
 ErrMax= 6.83D-03  0.00D+00 EMaxC= 1.00D-01 BMatC= 7.16D-02 BMatP= 2.21D-01
 IDIUse=3 WtCom= 9.32D-01 WtEn= 6.83D-02
 Coeff-Com: -0.865D-01 0.155D+00 0.375D+00 0.557D+00
 Coeff-En:   0.000D+00 0.000D+00 0.191D+00 0.809D+00
 Coeff:     -0.806D-01 0.144D+00 0.363D+00 0.574D+00
 Gap=     0.070 Goal=   None    Shift=    0.000
 Gap=     0.179 Goal=   None    Shift=    0.000
 RMSDP=3.28D-04 MaxDP=9.52D-02 DE=-3.79D-02 OVMax= 8.08D-02

 Cycle   5  Pass 1  IDiag  1:
 RMSU=  2.20D-04    CP:  1.04D+00  2.27D+00  8.86D-01  7.15D-01
 E= -1478.85799767765     Delta-E=       -0.015273777942 Rises=F Damp=F
 DIIS: error= 8.43D-04 at cycle   5 NSaved=   5.
 NSaved= 5 IEnMin= 5 EnMin= -1478.85799767765     IErMin= 5 ErrMin= 8.43D-04
 ErrMax= 8.43D-04  0.00D+00 EMaxC= 1.00D-01 BMatC= 7.73D-03 BMatP= 7.16D-02
 IDIUse=3 WtCom= 9.92D-01 WtEn= 8.43D-03
 Coeff-Com: -0.814D-02 0.158D-01 0.171D+00 0.312D+00 0.510D+00
 Coeff-En:   0.000D+00 0.000D+00 0.000D+00 0.000D+00 0.100D+01
 Coeff:     -0.807D-02 0.157D-01 0.169D+00 0.309D+00 0.514D+00
 Gap=     0.078 Goal=   None    Shift=    0.000
 Gap=     0.170 Goal=   None    Shift=    0.000
 RMSDP=1.69D-04 MaxDP=5.40D-02 DE=-1.53D-02 OVMax= 9.26D-02

 Cycle   6  Pass 1  IDiag  1:
 RMSU=  1.08D-04    CP:  1.03D+00  2.18D+00  8.27D-01  8.58D-01  8.20D-01
 E= -1478.86164451503     Delta-E=       -0.003646837376 Rises=F Damp=F
 DIIS: error= 1.26D-03 at cycle   6 NSaved=   6.
 NSaved= 6 IEnMin= 6 EnMin= -1478.86164451503     IErMin= 5 ErrMin= 8.43D-04
 ErrMax= 1.26D-03  0.00D+00 EMaxC= 1.00D-01 BMatC= 2.51D-03 BMatP= 7.73D-03
 IDIUse=3 WtCom= 9.92D-01 WtEn= 8.43D-03
 Coeff-Com:  0.111D-01-0.151D-01 0.267D-01-0.162D-01 0.261D+00 0.732D+00
 Coeff-En:   0.000D+00 0.000D+00 0.000D+00 0.000D+00 0.000D+00 0.100D+01
 Coeff:      0.110D-01-0.149D-01 0.265D-01-0.160D-01 0.259D+00 0.734D+00
 Gap=     0.087 Goal=   None    Shift=    0.000
 Gap=     0.174 Goal=   None    Shift=    0.000
 RMSDP=1.19D-04 MaxDP=2.94D-02 DE=-3.65D-03 OVMax= 9.23D-02

 Cycle   7  Pass 1  IDiag  1:
 RMSU=  5.50D-05    CP:  1.03D+00  2.22D+00  8.30D-01  8.51D-01  1.17D+00
                    CP:  1.57D+00
 E= -1478.86438204645     Delta-E=       -0.002737531419 Rises=F Damp=F
 DIIS: error= 1.08D-03 at cycle   7 NSaved=   7.
 NSaved= 7 IEnMin= 7 EnMin= -1478.86438204645     IErMin= 5 ErrMin= 8.43D-04
 ErrMax= 1.08D-03  0.00D+00 EMaxC= 1.00D-01 BMatC= 1.37D-03 BMatP= 2.51D-03
 IDIUse=3 WtCom= 9.92D-01 WtEn= 8.43D-03
 Coeff-Com:  0.962D-02-0.120D-01-0.165D-01-0.126D+00 0.313D-01 0.222D+00
 Coeff-Com:  0.892D+00
 Coeff-En:   0.000D+00 0.000D+00 0.000D+00 0.000D+00 0.000D+00 0.000D+00
 Coeff-En:   0.100D+01
 Coeff:      0.954D-02-0.119D-01-0.164D-01-0.125D+00 0.310D-01 0.220D+00
 Coeff:      0.893D+00
 Gap=     0.096 Goal=   None    Shift=    0.000
 Gap=     0.175 Goal=   None    Shift=    0.000
 RMSDP=1.23D-04 MaxDP=3.25D-02 DE=-2.74D-03 OVMax= 9.74D-02

 Cycle   8  Pass 1  IDiag  1:
 RMSU=  3.07D-05    CP:  1.04D+00  2.24D+00  8.27D-01  8.37D-01  1.46D+00
                    CP:  2.27D+00  2.12D+00
 E= -1478.86673724643     Delta-E=       -0.002355199987 Rises=F Damp=F
 DIIS: error= 7.66D-04 at cycle   8 NSaved=   8.
 NSaved= 8 IEnMin= 8 EnMin= -1478.86673724643     IErMin= 8 ErrMin= 7.66D-04
 ErrMax= 7.66D-04  0.00D+00 EMaxC= 1.00D-01 BMatC= 6.87D-04 BMatP= 1.37D-03
 IDIUse=3 WtCom= 9.92D-01 WtEn= 7.66D-03
 Coeff-Com:  0.809D-03 0.102D-02 0.250D-01-0.605D-03-0.372D-02-0.380D+00
 Coeff-Com:  0.826D-01 0.127D+01
 Coeff-En:   0.000D+00 0.000D+00 0.000D+00 0.000D+00 0.000D+00 0.000D+00
 Coeff-En:   0.000D+00 0.100D+01
 Coeff:      0.803D-03 0.102D-02 0.249D-01-0.600D-03-0.370D-02-0.377D+00
 Coeff:      0.820D-01 0.127D+01
 Gap=     0.107 Goal=   None    Shift=    0.000
 Gap=     0.174 Goal=   None    Shift=    0.000
 RMSDP=1.36D-04 MaxDP=3.99D-02 DE=-2.36D-03 OVMax= 1.08D-01

 Cycle   9  Pass 1  IDiag  1:
 RMSU=  4.30D-05    CP:  1.04D+00  2.27D+00  8.23D-01  7.92D-01  1.70D+00
                    CP:  2.94D+00  3.00D+00  2.28D+00
 E= -1478.86852378831     Delta-E=       -0.001786541874 Rises=F Damp=F
 DIIS: error= 5.34D-04 at cycle   9 NSaved=   9.
 NSaved= 9 IEnMin= 9 EnMin= -1478.86852378831     IErMin= 9 ErrMin= 5.34D-04
 ErrMax= 5.34D-04  0.00D+00 EMaxC= 1.00D-01 BMatC= 3.84D-04 BMatP= 6.87D-04
 IDIUse=3 WtCom= 9.95D-01 WtEn= 5.34D-03
 Coeff-Com: -0.957D-03 0.229D-02 0.464D-01 0.878D-01 0.838D-01-0.188D+00
 Coeff-Com: -0.680D+00 0.786D+00 0.863D+00
 Coeff-En:   0.000D+00 0.000D+00 0.000D+00 0.000D+00 0.000D+00 0.000D+00
 Coeff-En:   0.000D+00 0.000D+00 0.100D+01
 Coeff:     -0.952D-03 0.227D-02 0.461D-01 0.873D-01 0.833D-01-0.187D+00
 Coeff:     -0.676D+00 0.782D+00 0.863D+00
 Gap=     0.111 Goal=   None    Shift=    0.000
 Gap=     0.173 Goal=   None    Shift=    0.000
 RMSDP=7.27D-05 MaxDP=1.95D-02 DE=-1.79D-03 OVMax= 5.65D-02

 Cycle  10  Pass 1  IDiag  1:
 RMSU=  3.13D-05    CP:  1.04D+00  2.30D+00  8.20D-01  7.57D-01  1.78D+00
                    CP:  3.00D+00  3.00D+00  3.00D+00  2.06D+00
 E= -1478.86911176463     Delta-E=       -0.000587976322 Rises=F Damp=F
 DIIS: error= 3.61D-04 at cycle  10 NSaved=  10.
 NSaved=10 IEnMin=10 EnMin= -1478.86911176463     IErMin=10 ErrMin= 3.61D-04
 ErrMax= 3.61D-04  0.00D+00 EMaxC= 1.00D-01 BMatC= 2.10D-04 BMatP= 3.84D-04
 IDIUse=3 WtCom= 9.96D-01 WtEn= 3.61D-03
 Coeff-Com:  0.924D-03-0.121D-02 0.231D-01 0.441D-01 0.746D-01 0.300D-01
 Coeff-Com: -0.579D+00 0.205D-01 0.484D+00 0.903D+00
 Coeff-En:   0.000D+00 0.000D+00 0.000D+00 0.000D+00 0.000D+00 0.000D+00
 Coeff-En:   0.000D+00 0.000D+00 0.000D+00 0.100D+01
 Coeff:      0.921D-03-0.121D-02 0.230D-01 0.440D-01 0.744D-01 0.299D-01
 Coeff:     -0.577D+00 0.205D-01 0.482D+00 0.904D+00
 Gap=     0.116 Goal=   None    Shift=    0.000
 Gap=     0.172 Goal=   None    Shift=    0.000
 RMSDP=7.64D-05 MaxDP=1.91D-02 DE=-5.88D-04 OVMax= 5.08D-02

 Cycle  11  Pass 1  IDiag  1:
 RMSU=  2.89D-05    CP:  1.04D+00  2.32D+00  8.22D-01  7.08D-01  1.87D+00
                    CP:  3.00D+00  3.00D+00  3.00D+00  3.00D+00  2.17D+00
 E= -1478.86939708727     Delta-E=       -0.000285322644 Rises=F Damp=F
 DIIS: error= 1.56D-04 at cycle  11 NSaved=  11.
 NSaved=11 IEnMin=11 EnMin= -1478.86939708727     IErMin=11 ErrMin= 1.56D-04
 ErrMax= 1.56D-04  0.00D+00 EMaxC= 1.00D-01 BMatC= 4.15D-05 BMatP= 2.10D-04
 IDIUse=3 WtCom= 9.98D-01 WtEn= 1.56D-03
 Coeff-Com:  0.302D-02-0.455D-02 0.278D-03-0.120D-01 0.401D-01 0.121D+00
 Coeff-Com: -0.891D-02-0.217D+00-0.141D+00 0.277D+00 0.942D+00
 Coeff-En:   0.000D+00 0.000D+00 0.000D+00 0.000D+00 0.000D+00 0.000D+00
 Coeff-En:   0.000D+00 0.000D+00 0.000D+00 0.000D+00 0.100D+01
 Coeff:      0.302D-02-0.454D-02 0.277D-03-0.120D-01 0.400D-01 0.120D+00
 Coeff:     -0.889D-02-0.217D+00-0.140D+00 0.277D+00 0.942D+00
 Gap=     0.114 Goal=   None    Shift=    0.000
 Gap=     0.172 Goal=   None    Shift=    0.000
 RMSDP=2.43D-05 MaxDP=6.71D-03 DE=-2.85D-04 OVMax= 1.23D-02

 Cycle  12  Pass 1  IDiag  1:
 RMSU=  2.24D-05    CP:  1.04D+00  2.33D+00  8.23D-01  7.05D-01  1.86D+00
                    CP:  3.00D+00  3.00D+00  3.00D+00  3.00D+00  2.18D+00
                    CP:  9.14D-01
 E= -1478.86942611756     Delta-E=       -0.000029030287 Rises=F Damp=F
 DIIS: error= 2.04D-04 at cycle  12 NSaved=  12.
 NSaved=12 IEnMin=12 EnMin= -1478.86942611756     IErMin=11 ErrMin= 1.56D-04
 ErrMax= 2.04D-04  0.00D+00 EMaxC= 1.00D-01 BMatC= 5.29D-05 BMatP= 4.15D-05
 IDIUse=3 WtCom= 9.98D-01 WtEn= 1.56D-03
 Coeff-Com:  0.160D-02-0.222D-02-0.222D-02-0.171D-01 0.741D-02 0.162D-01
 Coeff-Com:  0.637D-01-0.309D-01-0.192D+00-0.128D+00 0.614D+00 0.670D+00
 Coeff-En:   0.000D+00 0.000D+00 0.000D+00 0.000D+00 0.000D+00 0.000D+00
 Coeff-En:   0.000D+00 0.000D+00 0.000D+00 0.000D+00 0.000D+00 0.100D+01
 Coeff:      0.160D-02-0.221D-02-0.222D-02-0.171D-01 0.740D-02 0.162D-01
 Coeff:      0.636D-01-0.309D-01-0.192D+00-0.128D+00 0.613D+00 0.671D+00
 Gap=     0.116 Goal=   None    Shift=    0.000
 Gap=     0.172 Goal=   None    Shift=    0.000
 RMSDP=2.74D-05 MaxDP=5.49D-03 DE=-2.90D-05 OVMax= 1.36D-02

 Cycle  13  Pass 1  IDiag  1:
 RMSU=  1.18D-05    CP:  1.04D+00  2.34D+00  8.26D-01  6.88D-01  1.90D+00
                    CP:  3.00D+00  3.00D+00  3.00D+00  3.00D+00  2.58D+00
                    CP:  1.36D+00  1.21D+00
 E= -1478.86945957239     Delta-E=       -0.000033454829 Rises=F Damp=F
 DIIS: error= 5.99D-05 at cycle  13 NSaved=  13.
 NSaved=13 IEnMin=13 EnMin= -1478.86945957239     IErMin=13 ErrMin= 5.99D-05
 ErrMax= 5.99D-05  0.00D+00 EMaxC= 1.00D-01 BMatC= 4.22D-06 BMatP= 4.15D-05
 IDIUse=1 WtCom= 1.00D+00 WtEn= 0.00D+00
 Coeff-Com:  0.161D-03-0.126D-03 0.124D-02-0.574D-03-0.130D-02-0.229D-01
 Coeff-Com:  0.210D-01 0.777D-01-0.177D-01-0.183D+00-0.115D+00 0.165D+00
 Coeff-Com:  0.108D+01
 Coeff:      0.161D-03-0.126D-03 0.124D-02-0.574D-03-0.130D-02-0.229D-01
 Coeff:      0.210D-01 0.777D-01-0.177D-01-0.183D+00-0.115D+00 0.165D+00
 Coeff:      0.108D+01
 Gap=     0.116 Goal=   None    Shift=    0.000
 Gap=     0.172 Goal=   None    Shift=    0.000
 RMSDP=1.14D-05 MaxDP=2.67D-03 DE=-3.35D-05 OVMax= 6.68D-03

 Cycle  14  Pass 1  IDiag  1:
 RMSU=  5.28D-06    CP:  1.04D+00  2.34D+00  8.26D-01  6.85D-01  1.90D+00
                    CP:  3.00D+00  3.00D+00  3.00D+00  3.00D+00  2.62D+00
                    CP:  1.41D+00  1.59D+00  1.17D+00
 E= -1478.86946774964     Delta-E=       -0.000008177252 Rises=F Damp=F
 DIIS: error= 2.92D-05 at cycle  14 NSaved=  14.
 NSaved=14 IEnMin=14 EnMin= -1478.86946774964     IErMin=14 ErrMin= 2.92D-05
 ErrMax= 2.92D-05  0.00D+00 EMaxC= 1.00D-01 BMatC= 2.27D-06 BMatP= 4.22D-06
 IDIUse=1 WtCom= 1.00D+00 WtEn= 0.00D+00
 Coeff-Com: -0.336D-03 0.507D-03 0.167D-02 0.521D-02-0.244D-03-0.116D-01
 Coeff-Com: -0.214D-01 0.378D-01 0.540D-01-0.203D-01-0.234D+00-0.236D+00
 Coeff-Com:  0.495D+00 0.930D+00
 Coeff:     -0.336D-03 0.507D-03 0.167D-02 0.521D-02-0.244D-03-0.116D-01
 Coeff:     -0.214D-01 0.378D-01 0.540D-01-0.203D-01-0.234D+00-0.236D+00
 Coeff:      0.495D+00 0.930D+00
 Gap=     0.117 Goal=   None    Shift=    0.000
 Gap=     0.172 Goal=   None    Shift=    0.000
 RMSDP=9.04D-06 MaxDP=2.02D-03 DE=-8.18D-06 OVMax= 4.49D-03

 Cycle  15  Pass 1  IDiag  1:
 RMSU=  1.74D-06    CP:  1.04D+00  2.35D+00  8.26D-01  6.81D-01  1.90D+00
                    CP:  3.00D+00  3.00D+00  3.00D+00  3.00D+00  2.71D+00
                    CP:  1.50D+00  1.82D+00  1.43D+00  1.50D+00
 E= -1478.86947092751     Delta-E=       -0.000003177868 Rises=F Damp=F
 DIIS: error= 1.52D-05 at cycle  15 NSaved=  15.
 NSaved=15 IEnMin=15 EnMin= -1478.86947092751     IErMin=15 ErrMin= 1.52D-05
 ErrMax= 1.52D-05  0.00D+00 EMaxC= 1.00D-01 BMatC= 4.64D-07 BMatP= 2.27D-06
 IDIUse=1 WtCom= 1.00D+00 WtEn= 0.00D+00
 Coeff-Com: -0.554D-04 0.553D-04 0.451D-03 0.203D-02 0.166D-02 0.434D-02
 Coeff-Com: -0.140D-01-0.409D-02 0.240D-01 0.318D-01-0.603D-01-0.184D+00
 Coeff-Com:  0.190D-01 0.389D+00 0.790D+00
 Coeff:     -0.554D-04 0.553D-04 0.451D-03 0.203D-02 0.166D-02 0.434D-02
 Coeff:     -0.140D-01-0.409D-02 0.240D-01 0.318D-01-0.603D-01-0.184D+00
 Coeff:      0.190D-01 0.389D+00 0.790D+00
 Gap=     0.117 Goal=   None    Shift=    0.000
 Gap=     0.172 Goal=   None    Shift=    0.000
 RMSDP=3.17D-06 MaxDP=3.16D-04 DE=-3.18D-06 OVMax= 1.76D-03

 Cycle  16  Pass 1  IDiag  1:
 RMSU=  8.73D-07    CP:  1.04D+00  2.35D+00  8.26D-01  6.80D-01  1.90D+00
                    CP:  3.00D+00  3.00D+00  3.00D+00  3.00D+00  2.74D+00
                    CP:  1.53D+00  1.90D+00  1.52D+00  1.73D+00  1.55D+00
 E= -1478.86947152083     Delta-E=       -0.000000593317 Rises=F Damp=F
 DIIS: error= 9.30D-06 at cycle  16 NSaved=  16.
 NSaved=16 IEnMin=16 EnMin= -1478.86947152083     IErMin=16 ErrMin= 9.30D-06
 ErrMax= 9.30D-06  0.00D+00 EMaxC= 1.00D-01 BMatC= 1.97D-07 BMatP= 4.64D-07
 IDIUse=1 WtCom= 1.00D+00 WtEn= 0.00D+00
 Coeff-Com:  0.623D-04-0.968D-04-0.213D-03-0.740D-03 0.685D-03 0.340D-02
 Coeff-Com: -0.898D-03-0.766D-02-0.750D-02 0.110D-01 0.511D-01-0.233D-01
 Coeff-Com: -0.113D+00-0.155D+00 0.296D+00 0.947D+00
 Coeff:      0.623D-04-0.968D-04-0.213D-03-0.740D-03 0.685D-03 0.340D-02
 Coeff:     -0.898D-03-0.766D-02-0.750D-02 0.110D-01 0.511D-01-0.233D-01
 Coeff:     -0.113D+00-0.155D+00 0.296D+00 0.947D+00
 Gap=     0.117 Goal=   None    Shift=    0.000
 Gap=     0.172 Goal=   None    Shift=    0.000
 RMSDP=3.13D-06 MaxDP=5.27D-04 DE=-5.93D-07 OVMax= 1.57D-03

 Cycle  17  Pass 1  IDiag  1:
 RMSU=  4.76D-07    CP:  1.04D+00  2.35D+00  8.26D-01  6.78D-01  1.91D+00
                    CP:  3.00D+00  3.00D+00  3.00D+00  3.00D+00  2.78D+00
                    CP:  1.57D+00  1.95D+00  1.63D+00  1.85D+00  2.07D+00
                    CP:  1.69D+00
 E= -1478.86947180595     Delta-E=       -0.000000285119 Rises=F Damp=F
 DIIS: error= 2.29D-06 at cycle  17 NSaved=  17.
 NSaved=17 IEnMin=17 EnMin= -1478.86947180595     IErMin=17 ErrMin= 2.29D-06
 ErrMax= 2.29D-06  0.00D+00 EMaxC= 1.00D-01 BMatC= 2.49D-08 BMatP= 1.97D-07
 IDIUse=1 WtCom= 1.00D+00 WtEn= 0.00D+00
 Coeff-Com:  0.446D-04-0.641D-04-0.135D-03-0.595D-03 0.278D-03 0.156D-02
 Coeff-Com:  0.228D-02-0.343D-02-0.774D-02-0.848D-03 0.337D-01 0.298D-01
 Coeff-Com: -0.469D-01-0.133D+00-0.922D-01 0.328D+00 0.889D+00
 Coeff:      0.446D-04-0.641D-04-0.135D-03-0.595D-03 0.278D-03 0.156D-02
 Coeff:      0.228D-02-0.343D-02-0.774D-02-0.848D-03 0.337D-01 0.298D-01
 Coeff:     -0.469D-01-0.133D+00-0.922D-01 0.328D+00 0.889D+00
 Gap=     0.117 Goal=   None    Shift=    0.000
 Gap=     0.172 Goal=   None    Shift=    0.000
 RMSDP=8.68D-07 MaxDP=8.46D-05 DE=-2.85D-07 OVMax= 4.02D-04

 Cycle  18  Pass 1  IDiag  1:
 RMSU=  2.25D-07    CP:  1.04D+00  2.35D+00  8.26D-01  6.78D-01  1.91D+00
                    CP:  3.00D+00  3.00D+00  3.00D+00  3.00D+00  2.78D+00
                    CP:  1.57D+00  1.96D+00  1.65D+00  1.90D+00  2.30D+00
                    CP:  2.14D+00  1.41D+00
 E= -1478.86947184659     Delta-E=       -0.000000040644 Rises=F Damp=F
 DIIS: error= 2.22D-06 at cycle  18 NSaved=  18.
 NSaved=18 IEnMin=18 EnMin= -1478.86947184659     IErMin=18 ErrMin= 2.22D-06
 ErrMax= 2.22D-06  0.00D+00 EMaxC= 1.00D-01 BMatC= 8.69D-09 BMatP= 2.49D-08
 IDIUse=1 WtCom= 1.00D+00 WtEn= 0.00D+00
 Coeff-Com: -0.104D-07 0.187D-05 0.464D-04 0.652D-04-0.599D-04-0.686D-03
 Coeff-Com:  0.477D-03 0.221D-02 0.105D-03-0.476D-02-0.543D-02 0.196D-01
 Coeff-Com:  0.241D-01 0.621D-02-0.162D+00-0.206D+00 0.391D+00 0.935D+00
 Coeff:     -0.104D-07 0.187D-05 0.464D-04 0.652D-04-0.599D-04-0.686D-03
 Coeff:      0.477D-03 0.221D-02 0.105D-03-0.476D-02-0.543D-02 0.196D-01
 Coeff:      0.241D-01 0.621D-02-0.162D+00-0.206D+00 0.391D+00 0.935D+00
 Gap=     0.117 Goal=   None    Shift=    0.000
 Gap=     0.172 Goal=   None    Shift=    0.000
 RMSDP=5.34D-07 MaxDP=6.89D-05 DE=-4.06D-08 OVMax= 2.28D-04

 Cycle  19  Pass 1  IDiag  1:
 RMSU=  1.37D-07    CP:  1.04D+00  2.35D+00  8.26D-01  6.78D-01  1.91D+00
                    CP:  3.00D+00  3.00D+00  3.00D+00  3.00D+00  2.78D+00
                    CP:  1.58D+00  1.97D+00  1.66D+00  1.93D+00  2.42D+00
                    CP:  2.38D+00  1.79D+00  1.57D+00
 E= -1478.86947186032     Delta-E=       -0.000000013730 Rises=F Damp=F
 DIIS: error= 8.56D-07 at cycle  19 NSaved=  19.
 NSaved=19 IEnMin=19 EnMin= -1478.86947186032     IErMin=19 ErrMin= 8.56D-07
 ErrMax= 8.56D-07  0.00D+00 EMaxC= 1.00D-01 BMatC= 2.98D-09 BMatP= 8.69D-09
 IDIUse=1 WtCom= 1.00D+00 WtEn= 0.00D+00
 Coeff-Com: -0.835D-05 0.131D-04 0.565D-04 0.152D-03-0.798D-04-0.658D-03
 Coeff-Com: -0.471D-03 0.199D-02 0.183D-02-0.231D-02-0.103D-01 0.259D-03
 Coeff-Com:  0.232D-01 0.348D-01-0.536D-01-0.166D+00-0.486D-01 0.444D+00
 Coeff-Com:  0.776D+00
 Coeff:     -0.835D-05 0.131D-04 0.565D-04 0.152D-03-0.798D-04-0.658D-03
 Coeff:     -0.471D-03 0.199D-02 0.183D-02-0.231D-02-0.103D-01 0.259D-03
 Coeff:      0.232D-01 0.348D-01-0.536D-01-0.166D+00-0.486D-01 0.444D+00
 Coeff:      0.776D+00
 Gap=     0.117 Goal=   None    Shift=    0.000
 Gap=     0.172 Goal=   None    Shift=    0.000
 RMSDP=2.34D-07 MaxDP=3.20D-05 DE=-1.37D-08 OVMax= 1.05D-04

 Cycle  20  Pass 1  IDiag  1:
 RMSU=  5.53D-08    CP:  1.04D+00  2.35D+00  8.26D-01  6.78D-01  1.91D+00
                    CP:  3.00D+00  3.00D+00  3.00D+00  3.00D+00  2.79D+00
                    CP:  1.58D+00  1.98D+00  1.67D+00  1.94D+00  2.44D+00
                    CP:  2.46D+00  1.89D+00  2.01D+00  1.27D+00
 E= -1478.86947186324     Delta-E=       -0.000000002921 Rises=F Damp=F
 DIIS: error= 5.33D-07 at cycle  20 NSaved=  20.
 NSaved=20 IEnMin=20 EnMin= -1478.86947186324     IErMin=20 ErrMin= 5.33D-07
 ErrMax= 5.33D-07  0.00D+00 EMaxC= 1.00D-01 BMatC= 5.24D-10 BMatP= 2.98D-09
 IDIUse=1 WtCom= 1.00D+00 WtEn= 0.00D+00
 Coeff-Com: -0.357D-06 0.557D-06 0.129D-04 0.342D-04 0.247D-04 0.782D-04
 Coeff-Com: -0.267D-03-0.337D-04 0.508D-03 0.423D-03-0.192D-02-0.483D-02
 Coeff-Com:  0.265D-02 0.109D-01 0.152D-01-0.101D-01-0.106D+00-0.177D-01
 Coeff-Com:  0.227D+00 0.884D+00
 Coeff:     -0.357D-06 0.557D-06 0.129D-04 0.342D-04 0.247D-04 0.782D-04
 Coeff:     -0.267D-03-0.337D-04 0.508D-03 0.423D-03-0.192D-02-0.483D-02
 Coeff:      0.265D-02 0.109D-01 0.152D-01-0.101D-01-0.106D+00-0.177D-01
 Coeff:      0.227D+00 0.884D+00
 Gap=     0.117 Goal=   None    Shift=    0.000
 Gap=     0.172 Goal=   None    Shift=    0.000
 RMSDP=7.94D-08 MaxDP=1.80D-05 DE=-2.92D-09 OVMax= 2.28D-05

 Cycle  21  Pass 1  IDiag  1:
 Restarting incremental Fock formation.
 E= -1478.86947186406     Delta-E=       -0.000000000813 Rises=F Damp=F
 DIIS: error= 2.67D-07 at cycle  21 NSaved=  20.
 NSaved=20 IEnMin=20 EnMin= -1478.86947186406     IErMin=20 ErrMin= 2.67D-07
 ErrMax= 2.67D-07  0.00D+00 EMaxC= 1.00D-01 BMatC= 3.43D-10 BMatP= 5.24D-10
 IDIUse=1 WtCom= 1.00D+00 WtEn= 0.00D+00
 Coeff-Com:  0.489D-06-0.381D-05-0.165D-04 0.224D-04 0.136D-03-0.751D-04
 Coeff-Com: -0.464D-03-0.212D-03 0.869D-03 0.209D-02-0.274D-02-0.544D-02
 Coeff-Com: -0.538D-02 0.233D-01 0.486D-01-0.432D-01-0.139D+00-0.169D+00
 Coeff-Com:  0.471D+00 0.819D+00
 Coeff:      0.489D-06-0.381D-05-0.165D-04 0.224D-04 0.136D-03-0.751D-04
 Coeff:     -0.464D-03-0.212D-03 0.869D-03 0.209D-02-0.274D-02-0.544D-02
 Coeff:     -0.538D-02 0.233D-01 0.486D-01-0.432D-01-0.139D+00-0.169D+00
 Coeff:      0.471D+00 0.819D+00
 Gap=     0.117 Goal=   None    Shift=    0.000
 Gap=     0.172 Goal=   None    Shift=    0.000
 RMSDP=6.68D-08 MaxDP=1.46D-05 DE=-8.13D-10 OVMax= 1.98D-05

 Cycle  22  Pass 1  IDiag  1:
 RMSU=  6.53D-08    CP:  1.00D+00
 E= -1478.86947186446     Delta-E=       -0.000000000404 Rises=F Damp=F
 DIIS: error= 2.18D-07 at cycle  22 NSaved=  20.
 NSaved=20 IEnMin=20 EnMin= -1478.86947186446     IErMin=20 ErrMin= 2.18D-07
 ErrMax= 2.18D-07  0.00D+00 EMaxC= 1.00D-01 BMatC= 1.41D-10 BMatP= 3.43D-10
 IDIUse=1 WtCom= 1.00D+00 WtEn= 0.00D+00
 Coeff-Com: -0.112D-04-0.250D-04-0.170D-04-0.130D-04 0.199D-03-0.125D-03
 Coeff-Com: -0.358D-03-0.320D-05 0.166D-02 0.279D-02-0.306D-02-0.754D-02
 Coeff-Com: -0.531D-02 0.185D-01 0.501D-01-0.163D-02-0.184D+00-0.402D+00
 Coeff-Com:  0.100D+00 0.143D+01
 Coeff:     -0.112D-04-0.250D-04-0.170D-04-0.130D-04 0.199D-03-0.125D-03
 Coeff:     -0.358D-03-0.320D-05 0.166D-02 0.279D-02-0.306D-02-0.754D-02
 Coeff:     -0.531D-02 0.185D-01 0.501D-01-0.163D-02-0.184D+00-0.402D+00
 Coeff:      0.100D+00 0.143D+01
 Gap=     0.117 Goal=   None    Shift=    0.000
 Gap=     0.172 Goal=   None    Shift=    0.000
 RMSDP=7.12D-08 MaxDP=1.14D-05 DE=-4.04D-10 OVMax= 2.58D-05

 Cycle  23  Pass 1  IDiag  1:
 RMSU=  5.50D-08    CP:  1.00D+00  1.68D+00
 E= -1478.86947186504     Delta-E=       -0.000000000585 Rises=F Damp=F
 DIIS: error= 1.49D-07 at cycle  23 NSaved=  20.
 NSaved=20 IEnMin=20 EnMin= -1478.86947186504     IErMin=20 ErrMin= 1.49D-07
 ErrMax= 1.49D-07  0.00D+00 EMaxC= 1.00D-01 BMatC= 6.52D-11 BMatP= 1.41D-10
 IDIUse=1 WtCom= 1.00D+00 WtEn= 0.00D+00
 Coeff-Com:  0.645D-05-0.313D-05-0.362D-04 0.924D-04 0.916D-04 0.185D-04
 Coeff-Com: -0.309D-03-0.580D-03 0.212D-02 0.130D-02 0.377D-03-0.111D-01
 Coeff-Com: -0.160D-01 0.259D-01 0.605D-01 0.461D-01-0.286D+00-0.340D+00
 Coeff-Com:  0.269D+00 0.125D+01
 Coeff:      0.645D-05-0.313D-05-0.362D-04 0.924D-04 0.916D-04 0.185D-04
 Coeff:     -0.309D-03-0.580D-03 0.212D-02 0.130D-02 0.377D-03-0.111D-01
 Coeff:     -0.160D-01 0.259D-01 0.605D-01 0.461D-01-0.286D+00-0.340D+00
 Coeff:      0.269D+00 0.125D+01
 Gap=     0.117 Goal=   None    Shift=    0.000
 Gap=     0.172 Goal=   None    Shift=    0.000
 RMSDP=5.49D-08 MaxDP=7.72D-06 DE=-5.85D-10 OVMax= 1.83D-05

 Cycle  24  Pass 1  IDiag  1:
 RMSU=  1.95D-08    CP:  1.00D+00  2.06D+00  1.81D+00
 E= -1478.86947186519     Delta-E=       -0.000000000145 Rises=F Damp=F
 DIIS: error= 1.03D-07 at cycle  24 NSaved=  20.
 NSaved=20 IEnMin=20 EnMin= -1478.86947186519     IErMin=20 ErrMin= 1.03D-07
 ErrMax= 1.03D-07  0.00D+00 EMaxC= 1.00D-01 BMatC= 3.99D-11 BMatP= 6.52D-11
 IDIUse=1 WtCom= 1.00D+00 WtEn= 0.00D+00
 Coeff-Com: -0.948D-05-0.388D-04 0.425D-05 0.119D-03 0.105D-03-0.254D-03
 Coeff-Com: -0.853D-03-0.221D-03 0.186D-02 0.272D-02-0.218D-02-0.142D-01
 Coeff-Com: -0.812D-02 0.206D-01 0.999D-01 0.237D-01-0.182D+00-0.472D+00
 Coeff-Com:  0.603D+00 0.927D+00
 Coeff:     -0.948D-05-0.388D-04 0.425D-05 0.119D-03 0.105D-03-0.254D-03
 Coeff:     -0.853D-03-0.221D-03 0.186D-02 0.272D-02-0.218D-02-0.142D-01
 Coeff:     -0.812D-02 0.206D-01 0.999D-01 0.237D-01-0.182D+00-0.472D+00
 Coeff:      0.603D+00 0.927D+00
 Gap=     0.117 Goal=   None    Shift=    0.000
 Gap=     0.172 Goal=   None    Shift=    0.000
 RMSDP=3.75D-08 MaxDP=5.41D-06 DE=-1.45D-10 OVMax= 1.18D-05

 Cycle  25  Pass 1  IDiag  1:
 RMSU=  2.14D-08    CP:  1.00D+00  2.48D+00  1.86D+00  1.58D+00
 E= -1478.86947186527     Delta-E=       -0.000000000079 Rises=F Damp=F
 DIIS: error= 6.29D-08 at cycle  25 NSaved=  20.
 NSaved=20 IEnMin=20 EnMin= -1478.86947186527     IErMin=20 ErrMin= 6.29D-08
 ErrMax= 6.29D-08  0.00D+00 EMaxC= 1.00D-01 BMatC= 1.32D-11 BMatP= 3.99D-11
 IDIUse=1 WtCom= 1.00D+00 WtEn= 0.00D+00
 Coeff-Com:  0.884D-05-0.515D-04-0.534D-05 0.620D-04 0.616D-04-0.136D-03
 Coeff-Com: -0.117D-02 0.115D-04 0.137D-02 0.505D-02 0.111D-02-0.151D-01
 Coeff-Com: -0.269D-01 0.278D-01 0.150D+00 0.131D+00-0.377D+00-0.410D+00
 Coeff-Com:  0.316D+00 0.120D+01
 Coeff:      0.884D-05-0.515D-04-0.534D-05 0.620D-04 0.616D-04-0.136D-03
 Coeff:     -0.117D-02 0.115D-04 0.137D-02 0.505D-02 0.111D-02-0.151D-01
 Coeff:     -0.269D-01 0.278D-01 0.150D+00 0.131D+00-0.377D+00-0.410D+00
 Coeff:      0.316D+00 0.120D+01
 Gap=     0.117 Goal=   None    Shift=    0.000
 Gap=     0.172 Goal=   None    Shift=    0.000
 RMSDP=2.76D-08 MaxDP=3.66D-06 DE=-7.91D-11 OVMax= 1.05D-05

 Cycle  26  Pass 1  IDiag  1:
 RMSU=  6.18D-09    CP:  1.00D+00  2.73D+00  2.01D+00  2.27D+00  1.69D+00
 E= -1478.86947186546     Delta-E=       -0.000000000190 Rises=F Damp=F
 DIIS: error= 4.04D-08 at cycle  26 NSaved=  20.
 NSaved=20 IEnMin=20 EnMin= -1478.86947186546     IErMin=20 ErrMin= 4.04D-08
 ErrMax= 4.04D-08  0.00D+00 EMaxC= 1.00D-01 BMatC= 6.91D-12 BMatP= 1.32D-11
 IDIUse=1 WtCom= 1.00D+00 WtEn= 0.00D+00
 Coeff-Com:  0.131D-04-0.224D-04-0.450D-04 0.495D-04 0.303D-03 0.124D-03
 Coeff-Com: -0.732D-03-0.749D-03 0.150D-02 0.454D-02 0.140D-02-0.157D-01
 Coeff-Com: -0.211D-01 0.191D-01 0.116D+00 0.359D-01-0.299D+00-0.239D+00
 Coeff-Com:  0.333D+00 0.106D+01
 Coeff:      0.131D-04-0.224D-04-0.450D-04 0.495D-04 0.303D-03 0.124D-03
 Coeff:     -0.732D-03-0.749D-03 0.150D-02 0.454D-02 0.140D-02-0.157D-01
 Coeff:     -0.211D-01 0.191D-01 0.116D+00 0.359D-01-0.299D+00-0.239D+00
 Coeff:      0.333D+00 0.106D+01
 Gap=     0.117 Goal=   None    Shift=    0.000
 Gap=     0.172 Goal=   None    Shift=    0.000
 RMSDP=1.45D-08 MaxDP=2.18D-06 DE=-1.90D-10 OVMax= 5.20D-06

 Cycle  27  Pass 1  IDiag  1:
 RMSU=  3.47D-09    CP:  1.00D+00  2.74D+00  2.19D+00  2.56D+00  1.92D+00
                    CP:  1.93D+00
 E= -1478.86947186565     Delta-E=       -0.000000000194 Rises=F Damp=F
 DIIS: error= 1.95D-08 at cycle  27 NSaved=  20.
 NSaved=20 IEnMin=20 EnMin= -1478.86947186565     IErMin=20 ErrMin= 1.95D-08
 ErrMax= 1.95D-08  0.00D+00 EMaxC= 1.00D-01 BMatC= 1.86D-12 BMatP= 6.91D-12
 IDIUse=1 WtCom= 1.00D+00 WtEn= 0.00D+00
 Coeff-Com: -0.126D-04-0.168D-04 0.430D-04 0.153D-03 0.310D-03-0.447D-03
 Coeff-Com: -0.719D-03-0.207D-03 0.219D-02 0.406D-02-0.196D-02-0.155D-01
 Coeff-Com: -0.343D-01 0.259D-01 0.118D+00-0.743D-02-0.219D+00-0.257D+00
 Coeff-Com:  0.465D+00 0.921D+00
 Coeff:     -0.126D-04-0.168D-04 0.430D-04 0.153D-03 0.310D-03-0.447D-03
 Coeff:     -0.719D-03-0.207D-03 0.219D-02 0.406D-02-0.196D-02-0.155D-01
 Coeff:     -0.343D-01 0.259D-01 0.118D+00-0.743D-02-0.219D+00-0.257D+00
 Coeff:      0.465D+00 0.921D+00
 Gap=     0.117 Goal=   None    Shift=    0.000
 Gap=     0.172 Goal=   None    Shift=    0.000
 RMSDP=6.99D-09 MaxDP=9.60D-07 DE=-1.94D-10 OVMax= 2.91D-06

 Error on total polarization charges =  0.01776
 SCF Done:  E(UM062X) =  -1478.86947187     A.U. after   27 cycles
            NFock= 27  Conv=0.70D-08     -V/T= 2.0052
 <Sx>= 0.0000 <Sy>= 0.0000 <Sz>= 0.5000 <S**2>= 0.7699 S= 0.5099
 <L.S>= 0.000000000000E+00
 KE= 1.471278100895D+03 PE=-9.522552351185D+03 EE= 3.552120958715D+03
 Annihilation of the first spin contaminant:
 S**2 before annihilation     0.7699,   after     0.7502
 Leave Link  502 at Sat Oct 25 13:12:11 2025, MaxMem= 30870077440 cpu:           97036.6 elap:            1529.9
 (Enter /public/software/gauss/g16/l601.exe)
 Copying SCF densities to generalized density rwf, IOpCl= 1 IROHF=0.

 **********************************************************************

            Population analysis using the SCF density.

 **********************************************************************

 Orbital symmetries:
 Alpha Orbitals:
       Occupied  (A) (A) (A) (A) (A) (A) (A) (A) (A) (A) (A) (A)
                 (A) (A) (A) (A) (A) (A) (A) (A) (A) (A) (A) (A)
                 (A) (A) (A) (A) (A) (A) (A) (A) (A) (A) (A) (A)
                 (A) (A) (A) (A) (A) (A) (A) (A) (A) (A) (A) (A)
                 (A) (A) (A) (A) (A) (A) (A) (A) (A) (A) (A) (A)
                 (A) (A) (A) (A) (A) (A) (A) (A) (A) (A) (A) (A)
                 (A) (A) (A) (A) (A) (A) (A) (A) (A) (A) (A) (A)
                 (A) (A) (A) (A) (A) (A) (A) (A) (A) (A) (A) (A)
                 (A) (A) (A) (A) (A) (A) (A) (A) (A) (A) (A) (A)
       Virtual   (A) (A) (A) (A) (A) (A) (A) (A) (A) (A) (A) (A)
                 (A) (A) (A) (A) (A) (A) (A) (A) (A) (A) (A) (A)
                 (A) (A) (A) (A) (A) (A) (A) (A) (A) (A) (A) (A)
                 (A) (A) (A) (A) (A) (A) (A) (A) (A) (A) (A) (A)
                 (A) (A) (A) (A) (A) (A) (A) (A) (A) (A) (A) (A)
                 (A) (A) (A) (A) (A) (A) (A) (A) (A) (A) (A) (A)
                 (A) (A) (A) (A) (A) (A) (A) (A) (A) (A) (A) (A)
                 (A) (A) (A) (A) (A) (A) (A) (A) (A) (A) (A) (A)
                 (A) (A) (A) (A) (A) (A) (A) (A) (A) (A) (A) (A)
                 (A) (A) (A) (A) (A) (A) (A) (A) (A) (A) (A) (A)
                 (A) (A) (A) (A) (A) (A) (A) (A) (A) (A) (A) (A)
                 (A) (A) (A) (A) (A) (A) (A) (A) (A) (A) (A) (A)
                 (A) (A) (A) (A) (A) (A) (A) (A) (A) (A) (A) (A)
                 (A) (A) (A) (A) (A) (A) (A) (A) (A) (A) (A) (A)
                 (A) (A) (A) (A) (A) (A) (A) (A) (A) (A) (A) (A)
                 (A) (A) (A) (A) (A) (A) (A) (A) (A) (A) (A) (A)
                 (A) (A) (A) (A) (A) (A) (A) (A) (A) (A) (A) (A)
                 (A) (A) (A) (A) (A) (A) (A) (A) (A) (A) (A) (A)
                 (A) (A) (A) (A) (A) (A) (A) (A) (A) (A) (A) (A)
                 (A) (A) (A) (A) (A) (A) (A) (A) (A) (A) (A) (A)
                 (A) (A) (A) (A) (A) (A) (A) (A) (A) (A) (A) (A)
                 (A) (A) (A) (A) (A) (A) (A) (A) (A) (A) (A) (A)
                 (A) (A) (A) (A) (A) (A) (A) (A) (A) (A) (A) (A)
                 (A) (A) (A) (A) (A) (A) (A) (A) (A) (A) (A) (A)
                 (A) (A) (A) (A) (A) (A) (A) (A) (A) (A) (A) (A)
                 (A) (A) (A) (A) (A) (A) (A) (A) (A) (A) (A) (A)
                 (A) (A) (A) (A) (A) (A) (A) (A) (A) (A) (A) (A)
                 (A) (A) (A) (A) (A) (A) (A) (A) (A) (A) (A) (A)
                 (A) (A) (A) (A) (A) (A) (A) (A) (A) (A) (A) (A)
                 (A) (A) (A) (A) (A) (A) (A) (A) (A) (A) (A) (A)
                 (A) (A) (A) (A) (A) (A) (A) (A) (A) (A) (A) (A)
                 (A) (A) (A) (A) (A) (A) (A) (A) (A) (A) (A) (A)
                 (A) (A) (A) (A) (A) (A) (A) (A) (A) (A) (A) (A)
                 (A) (A) (A) (A) (A) (A) (A) (A) (A) (A) (A) (A)
                 (A) (A) (A) (A) (A) (A) (A) (A) (A) (A) (A) (A)
                 (A) (A) (A) (A) (A) (A) (A) (A) (A) (A) (A) (A)
                 (A) (A) (A) (A) (A) (A) (A) (A) (A) (A) (A) (A)
                 (A) (A) (A) (A) (A) (A) (A) (A) (A) (A) (A) (A)
                 (A) (A) (A) (A) (A) (A) (A) (A) (A) (A) (A) (A)
                 (A) (A) (A) (A) (A) (A) (A) (A) (A) (A) (A) (A)
                 (A) (A) (A) (A) (A) (A) (A) (A) (A) (A) (A) (A)
                 (A) (A) (A) (A) (A) (A) (A) (A) (A) (A) (A) (A)
                 (A) (A) (A) (A) (A) (A) (A) (A) (A) (A) (A) (A)
                 (A) (A) (A) (A) (A) (A) (A) (A) (A) (A) (A) (A)
                 (A) (A) (A) (A) (A) (A) (A) (A) (A) (A) (A) (A)
                 (A) (A) (A) (A) (A) (A) (A) (A) (A) (A) (A) (A)
                 (A) (A) (A) (A) (A) (A) (A) (A) (A) (A) (A) (A)
                 (A) (A) (A) (A) (A) (A) (A) (A) (A) (A) (A) (A)
                 (A) (A) (A) (A) (A) (A) (A) (A) (A) (A) (A) (A)
                 (A) (A) (A) (A) (A) (A) (A) (A) (A) (A) (A) (A)
                 (A) (A) (A) (A) (A) (A) (A) (A) (A) (A) (A) (A)
                 (A) (A) (A) (A) (A) (A) (A) (A) (A) (A) (A) (A)
                 (A) (A) (A) (A) (A) (A) (A) (A) (A) (A) (A) (A)
                 (A) (A) (A) (A) (A) (A) (A) (A) (A) (A) (A) (A)
                 (A) (A) (A) (A) (A) (A) (A) (A) (A) (A) (A) (A)
                 (A) (A) (A) (A) (A) (A) (A) (A) (A) (A) (A) (A)
                 (A) (A) (A) (A) (A) (A) (A) (A) (A) (A) (A) (A)
                 (A) (A) (A) (A) (A) (A) (A) (A) (A) (A) (A) (A)
                 (A) (A) (A) (A) (A) (A) (A) (A) (A) (A) (A) (A)
                 (A) (A) (A) (A) (A) (A) (A) (A) (A) (A) (A) (A)
                 (A) (A) (A) (A) (A) (A) (A) (A) (A) (A) (A) (A)
                 (A) (A) (A) (A) (A) (A) (A) (A) (A) (A) (A) (A)
                 (A) (A) (A) (A) (A) (A) (A) (A) (A) (A) (A) (A)
                 (A) (A) (A) (A) (A) (A) (A) (A) (A) (A) (A) (A)
                 (A) (A) (A) (A) (A) (A) (A) (A) (A) (A) (A) (A)
                 (A) (A) (A) (A) (A) (A) (A) (A) (A) (A) (A) (A)
                 (A) (A) (A) (A) (A) (A) (A) (A) (A) (A) (A) (A)
                 (A) (A) (A) (A) (A) (A) (A) (A) (A) (A) (A) (A)
                 (A) (A) (A) (A) (A) (A) (A) (A) (A) (A) (A) (A)
                 (A) (A) (A) (A) (A) (A) (A) (A) (A) (A) (A) (A)
                 (A) (A) (A) (A) (A) (A) (A) (A) (A) (A) (A) (A)
                 (A) (A) (A) (A) (A) (A) (A) (A) (A) (A) (A) (A)
                 (A) (A) (A) (A) (A) (A) (A) (A) (A) (A) (A) (A)
                 (A) (A) (A) (A) (A) (A) (A) (A) (A) (A) (A) (A)
                 (A) (A) (A) (A) (A) (A) (A) (A) (A) (A) (A) (A)
                 (A) (A) (A) (A) (A) (A) (A) (A) (A) (A) (A) (A)
                 (A) (A) (A) (A) (A) (A) (A) (A) (A) (A) (A) (A)
                 (A) (A) (A) (A) (A) (A) (A) (A) (A) (A) (A) (A)
                 (A) (A) (A) (A) (A) (A) (A) (A) (A) (A) (A) (A)
                 (A) (A) (A) (A) (A) (A) (A) (A) (A) (A) (A) (A)
                 (A) (A) (A) (A) (A) (A) (A) (A) (A) (A) (A) (A)
                 (A) (A) (A) (A) (A) (A) (A) (A) (A) (A) (A) (A)
                 (A) (A) (A) (A) (A) (A) (A) (A) (A) (A) (A) (A)
                 (A) (A) (A) (A) (A) (A) (A) (A) (A) (A) (A) (A)
                 (A) (A) (A) (A) (A) (A) (A) (A) (A) (A) (A) (A)
                 (A) (A) (A) (A) (A) (A) (A) (A) (A) (A) (A) (A)
                 (A) (A) (A) (A) (A) (A) (A) (A) (A) (A) (A) (A)
                 (A) (A) (A) (A) (A) (A) (A) (A) (A) (A) (A) (A)
                 (A) (A) (A) (A)
 Beta  Orbitals:
       Occupied  (A) (A) (A) (A) (A) (A) (A) (A) (A) (A) (A) (A)
                 (A) (A) (A) (A) (A) (A) (A) (A) (A) (A) (A) (A)
                 (A) (A) (A) (A) (A) (A) (A) (A) (A) (A) (A) (A)
                 (A) (A) (A) (A) (A) (A) (A) (A) (A) (A) (A) (A)
                 (A) (A) (A) (A) (A) (A) (A) (A) (A) (A) (A) (A)
                 (A) (A) (A) (A) (A) (A) (A) (A) (A) (A) (A) (A)
                 (A) (A) (A) (A) (A) (A) (A) (A) (A) (A) (A) (A)
                 (A) (A) (A) (A) (A) (A) (A) (A) (A) (A) (A) (A)
                 (A) (A) (A) (A) (A) (A) (A) (A) (A) (A) (A)
       Virtual   (A) (A) (A) (A) (A) (A) (A) (A) (A) (A) (A) (A)
                 (A) (A) (A) (A) (A) (A) (A) (A) (A) (A) (A) (A)
                 (A) (A) (A) (A) (A) (A) (A) (A) (A) (A) (A) (A)
                 (A) (A) (A) (A) (A) (A) (A) (A) (A) (A) (A) (A)
                 (A) (A) (A) (A) (A) (A) (A) (A) (A) (A) (A) (A)
                 (A) (A) (A) (A) (A) (A) (A) (A) (A) (A) (A) (A)
                 (A) (A) (A) (A) (A) (A) (A) (A) (A) (A) (A) (A)
                 (A) (A) (A) (A) (A) (A) (A) (A) (A) (A) (A) (A)
                 (A) (A) (A) (A) (A) (A) (A) (A) (A) (A) (A) (A)
                 (A) (A) (A) (A) (A) (A) (A) (A) (A) (A) (A) (A)
                 (A) (A) (A) (A) (A) (A) (A) (A) (A) (A) (A) (A)
                 (A) (A) (A) (A) (A) (A) (A) (A) (A) (A) (A) (A)
                 (A) (A) (A) (A) (A) (A) (A) (A) (A) (A) (A) (A)
                 (A) (A) (A) (A) (A) (A) (A) (A) (A) (A) (A) (A)
                 (A) (A) (A) (A) (A) (A) (A) (A) (A) (A) (A) (A)
                 (A) (A) (A) (A) (A) (A) (A) (A) (A) (A) (A) (A)
                 (A) (A) (A) (A) (A) (A) (A) (A) (A) (A) (A) (A)
                 (A) (A) (A) (A) (A) (A) (A) (A) (A) (A) (A) (A)
                 (A) (A) (A) (A) (A) (A) (A) (A) (A) (A) (A) (A)
                 (A) (A) (A) (A) (A) (A) (A) (A) (A) (A) (A) (A)
                 (A) (A) (A) (A) (A) (A) (A) (A) (A) (A) (A) (A)
                 (A) (A) (A) (A) (A) (A) (A) (A) (A) (A) (A) (A)
                 (A) (A) (A) (A) (A) (A) (A) (A) (A) (A) (A) (A)
                 (A) (A) (A) (A) (A) (A) (A) (A) (A) (A) (A) (A)
                 (A) (A) (A) (A) (A) (A) (A) (A) (A) (A) (A) (A)
                 (A) (A) (A) (A) (A) (A) (A) (A) (A) (A) (A) (A)
                 (A) (A) (A) (A) (A) (A) (A) (A) (A) (A) (A) (A)
                 (A) (A) (A) (A) (A) (A) (A) (A) (A) (A) (A) (A)
                 (A) (A) (A) (A) (A) (A) (A) (A) (A) (A) (A) (A)
                 (A) (A) (A) (A) (A) (A) (A) (A) (A) (A) (A) (A)
                 (A) (A) (A) (A) (A) (A) (A) (A) (A) (A) (A) (A)
                 (A) (A) (A) (A) (A) (A) (A) (A) (A) (A) (A) (A)
                 (A) (A) (A) (A) (A) (A) (A) (A) (A) (A) (A) (A)
                 (A) (A) (A) (A) (A) (A) (A) (A) (A) (A) (A) (A)
[...]
     9   Atom       -0.109739      0.193158     -0.083419
    10   Atom        0.031236     -0.045865      0.014630
    11   Atom       -0.074319      0.131213     -0.056894
    12   Atom        0.021863     -0.011315     -0.010548
    13   Atom       -0.417075      0.706520     -0.289445
    14   Atom       -0.483292      0.817802     -0.334511
    15   Atom       -0.469953      0.810268     -0.340315
    16   Atom       -0.045531      0.085267     -0.039736
    17   Atom        0.030274     -0.048021      0.017747
    18   Atom       -0.001414      0.001135      0.000279
    19   Atom        0.007136     -0.034023      0.026887
    20   Atom        0.001105     -0.000576     -0.000529
    21   Atom        0.002236      0.001895     -0.004131
    22   Atom        0.000048     -0.000854      0.000806
    23   Atom       -0.000119      0.002053     -0.001934
    24   Atom        0.000189     -0.000184     -0.000005
    25   Atom       -0.000891     -0.001941      0.002833
    26   Atom        0.000505     -0.000272     -0.000233
    27   Atom        0.003055     -0.001220     -0.001835
    28   Atom        0.000934     -0.000372     -0.000562
    29   Atom        0.000508     -0.000215     -0.000293
    30   Atom        0.000575     -0.000264     -0.000311
    31   Atom       -0.000038      0.000876     -0.000837
    32   Atom        0.000141      0.001766     -0.001907
    33   Atom        0.000228      0.001314     -0.001542
    34   Atom        0.000135      0.000305     -0.000441
    35   Atom        0.000380     -0.000157     -0.000223
    36   Atom        0.000255     -0.000011     -0.000245
    37   Atom        0.000398     -0.000177     -0.000220
    38   Atom        0.003610     -0.002950     -0.000661
    39   Atom       -0.002919     -0.003168      0.006087
    40   Atom        0.000436     -0.003540      0.003105
    41   Atom        0.000186      0.001569     -0.001755
    42   Atom       -0.000058      0.000742     -0.000684
    43   Atom       -0.000286      0.001241     -0.000955
    44   Atom        0.000192      0.000210     -0.000402
    45   Atom        0.000409     -0.000189     -0.000219
    46   Atom        0.000368     -0.000166     -0.000202
    47   Atom        0.000289     -0.000063     -0.000227
 --------------------------------------------------------
                        XY            XZ            YZ
 --------------------------------------------------------
     1   Atom        0.001058     -0.000326     -0.000409
     2   Atom        0.001643     -0.001455     -0.000253
     3   Atom        0.000690     -0.000386     -0.000074
     4   Atom        0.000519      0.001002      0.000535
     5   Atom        0.000336      0.000142      0.000066
     6   Atom        0.001188      0.002192      0.001151
     7   Atom        0.006046     -0.002362     -0.003598
     8   Atom        0.000643     -0.001647     -0.006614
     9   Atom       -0.007716     -0.003692      0.101829
    10   Atom       -0.001021     -0.004182     -0.024242
    11   Atom        0.006996      0.002317      0.076759
    12   Atom       -0.000732     -0.002785      0.000092
    13   Atom        0.034025      0.010801      0.404482
    14   Atom        0.050339     -0.006716      0.463615
    15   Atom        0.033719      0.030368      0.463523
    16   Atom        0.008710      0.000359      0.047258
    17   Atom       -0.001942      0.000902     -0.024979
    18   Atom        0.002413     -0.000324      0.001499
    19   Atom       -0.027574     -0.001725     -0.005860
    20   Atom        0.000178     -0.004110     -0.003102
    21   Atom       -0.005485      0.002028     -0.002907
    22   Atom       -0.001711      0.000901      0.000378
    23   Atom       -0.001378      0.000005     -0.000099
    24   Atom       -0.000680      0.000194     -0.000026
    25   Atom       -0.000452     -0.001168      0.000604
    26   Atom       -0.000259     -0.000172      0.000065
    27   Atom       -0.000783     -0.002201      0.000861
    28   Atom        0.000053     -0.000045      0.000002
    29   Atom        0.000183     -0.000172     -0.000020
    30   Atom       -0.000047      0.000144     -0.000013
    31   Atom        0.000772      0.000027      0.000182
    32   Atom        0.001152      0.000026      0.001349
    33   Atom        0.001121     -0.000266     -0.001006
    34   Atom        0.000431     -0.000018      0.000043
    35   Atom        0.000185      0.000111     -0.000004
    36   Atom        0.000312      0.000013     -0.000002
    37   Atom        0.000186     -0.000150     -0.000024
    38   Atom        0.000403     -0.001576     -0.000839
    39   Atom        0.001294     -0.003733     -0.003727
    40   Atom       -0.000670      0.001826     -0.002697
    41   Atom       -0.001319     -0.000377     -0.000395
    42   Atom       -0.000739     -0.000240      0.000486
    43   Atom       -0.000861     -0.000541      0.001967
    44   Atom       -0.000453     -0.000078      0.000117
    45   Atom       -0.000147      0.000093     -0.000005
    46   Atom       -0.000136     -0.000128      0.000004
    47   Atom       -0.000262     -0.000044      0.000010
 --------------------------------------------------------


 ---------------------------------------------------------------------------------
              Anisotropic Spin Dipole Couplings in Principal Axis System
 ---------------------------------------------------------------------------------

       Atom             a.u.   MegaHertz   Gauss  10(-4) cm-1        Axes

              Baa    -0.0021    -0.286    -0.102    -0.095  0.1145  0.0686  0.9910
     1 C(13)  Bbb    -0.0004    -0.053    -0.019    -0.018  0.9078 -0.4124 -0.0764
              Bcc     0.0025     0.339     0.121     0.113  0.4034  0.9084 -0.1095
 
              Baa    -0.0028    -0.375    -0.134    -0.125  0.7145 -0.6758  0.1811
     2 C(13)  Bbb    -0.0000    -0.004    -0.001    -0.001  0.5390  0.6967  0.4734
              Bcc     0.0028     0.379     0.135     0.126 -0.4462 -0.2406  0.8620
 
              Baa    -0.0007    -0.092    -0.033    -0.031  0.6646 -0.5980  0.4479
     3 C(13)  Bbb    -0.0002    -0.029    -0.010    -0.010 -0.0939  0.5279  0.8441
              Bcc     0.0009     0.122     0.043     0.041  0.7412  0.6031 -0.2948
 
              Baa    -0.0030    -0.400    -0.143    -0.134 -0.4324  0.9017 -0.0064
     4 C(13)  Bbb    -0.0019    -0.250    -0.089    -0.083  0.8888  0.4250 -0.1718
              Bcc     0.0048     0.650     0.232     0.217  0.1522  0.0800  0.9851
 
              Baa    -0.0004    -0.053    -0.019    -0.018 -0.3535  0.9333 -0.0641
     5 C(13)  Bbb    -0.0002    -0.032    -0.011    -0.011 -0.1943 -0.0062  0.9809
              Bcc     0.0006     0.084     0.030     0.028  0.9151  0.3592  0.1835
 
              Baa    -0.0035    -0.133    -0.048    -0.044 -0.2464 -0.2943  0.9234
     6 N(14)  Bbb    -0.0010    -0.040    -0.014    -0.013 -0.3481  0.9161  0.1990
              Bcc     0.0045     0.173     0.062     0.058  0.9045  0.2724  0.3281
 
              Baa    -0.0056    -0.751    -0.268    -0.250 -0.0186  0.3806  0.9245
     7 C(13)  Bbb    -0.0040    -0.539    -0.192    -0.180  0.8074 -0.5396  0.2384
              Bcc     0.0096     1.290     0.460     0.430  0.5897  0.7509 -0.2973
 
              Baa    -0.0073    -0.977    -0.349    -0.326  0.1025  0.6370  0.7640
     8 C(13)  Bbb     0.0007     0.088     0.031     0.029  0.9576 -0.2710  0.0975
              Bcc     0.0066     0.890     0.317     0.297  0.2691  0.7216 -0.6378
 
              Baa    -0.1170   -15.705    -5.604    -5.239  0.1533 -0.3048  0.9400
     9 C(13)  Bbb    -0.1098   -14.732    -5.257    -4.914  0.9879  0.0715 -0.1379
              Bcc     0.2268    30.437    10.861    10.153 -0.0252  0.9497  0.3120
 
              Baa    -0.0544    -7.306    -2.607    -2.437  0.0275  0.9427  0.3325
    10 C(13)  Bbb     0.0218     2.923     1.043     0.975  0.3540 -0.3202  0.8787
              Bcc     0.0327     4.383     1.564     1.462  0.9348  0.0936 -0.3425
 
              Baa    -0.0842   -11.305    -4.034    -3.771  0.0170 -0.3360  0.9417
    11 C(13)  Bbb    -0.0745   -10.004    -3.570    -3.337  0.9994 -0.0240 -0.0266
              Bcc     0.1588    21.308     7.603     7.108  0.0316  0.9415  0.3354
 
              Baa    -0.0113    -1.521    -0.543    -0.507  0.0174  0.9984 -0.0545
    12 C(13)  Bbb    -0.0108    -1.447    -0.516    -0.483  0.0861  0.0528  0.9949
              Bcc     0.0221     2.968     1.059     0.990  0.9961 -0.0220 -0.0850
 
              Baa    -0.4331   -16.704    -5.960    -5.572  0.0797 -0.3355  0.9387
    13 N(14)  Bbb    -0.4180   -16.121    -5.752    -5.377  0.9964  0.0003 -0.0845
              Bcc     0.8511    32.825    11.713    10.949  0.0281  0.9420  0.3343
 
              Baa    -0.5153    37.284    13.304    12.437  0.6018 -0.2825  0.7470
    14 O(17)  Bbb    -0.4673    33.814    12.066    11.279  0.7981  0.1766 -0.5761
              Bcc     0.9826   -71.098   -25.369   -23.716  0.0309  0.9429  0.3317
 
              Baa    -0.5114    37.002    13.203    12.342 -0.3974 -0.2947  0.8690
    15 O(17)  Bbb    -0.4636    33.547    11.971    11.190  0.9172 -0.1575  0.3660
              Bcc     0.9750   -70.549   -25.174   -23.533  0.0290  0.9425  0.3328
 
              Baa    -0.0562    -7.538    -2.690    -2.514  0.2319 -0.3211  0.9182
    16 C(13)  Bbb    -0.0454    -6.096    -2.175    -2.033  0.9711  0.0213 -0.2378
              Bcc     0.1016    13.634     4.865     4.548  0.0568  0.9468  0.3167
 
              Baa    -0.0565    -7.576    -2.703    -2.527  0.0179  0.9477  0.3188
    17 C(13)  Bbb     0.0257     3.447     1.230     1.150 -0.3043 -0.2985  0.9046
              Bcc     0.0308     4.129     1.473     1.377  0.9524 -0.1132  0.2830
 
              Baa    -0.0032    -0.124    -0.044    -0.041  0.7836 -0.5410  0.3054
    18 N(14)  Bbb     0.0001     0.005     0.002     0.002 -0.4635 -0.1817  0.8673
              Bcc     0.0031     0.118     0.042     0.039  0.4137  0.8212  0.3931
 
              Baa    -0.0483     3.497     1.248     1.167  0.4457  0.8916  0.0797
    19 O(17)  Bbb     0.0208    -1.504    -0.537    -0.502  0.8884 -0.4297 -0.1616
              Bcc     0.0275    -1.993    -0.711    -0.665  0.1098 -0.1428  0.9836
 
              Baa    -0.0052     0.374     0.133     0.125  0.4708  0.4814  0.7393
    20 O(17)  Bbb    -0.0001     0.011     0.004     0.004 -0.5876  0.7962 -0.1443
              Bcc     0.0053    -0.384    -0.137    -0.128  0.6581  0.3665 -0.6577
 
              Baa    -0.0053    -0.713    -0.254    -0.238  0.0498  0.4059  0.9125
    21 C(13)  Bbb    -0.0032    -0.429    -0.153    -0.143  0.7301  0.6087 -0.3106
              Bcc     0.0085     1.142     0.408     0.381 -0.6816  0.6817 -0.2661
 
              Baa    -0.0024    -0.322    -0.115    -0.108  0.6155  0.7439 -0.2604
    22 C(13)  Bbb     0.0007     0.094     0.034     0.032 -0.3127  0.5338  0.7857
              Bcc     0.0017     0.228     0.081     0.076  0.7235 -0.4021  0.5611
 
              Baa    -0.0019    -0.260    -0.093    -0.087  0.0215  0.0323  0.9992
    23 C(13)  Bbb    -0.0008    -0.106    -0.038    -0.035  0.8995  0.4355 -0.0335
              Bcc     0.0027     0.365     0.130     0.122 -0.4363  0.8996 -0.0197
 
              Baa    -0.0007    -0.096    -0.034    -0.032  0.6138  0.7771 -0.1392
    24 C(13)  Bbb    -0.0000    -0.004    -0.001    -0.001 -0.0921  0.2456  0.9650
              Bcc     0.0007     0.100     0.036     0.033  0.7840 -0.5795  0.2223
 
              Baa    -0.0021    -0.284    -0.101    -0.095  0.3094  0.9499 -0.0429
    25 C(13)  Bbb    -0.0011    -0.154    -0.055    -0.051  0.9082 -0.2819  0.3092
              Bcc     0.0033     0.438     0.156     0.146 -0.2817  0.1347  0.9500
 
              Baa    -0.0004    -0.047    -0.017    -0.016  0.2588  0.9547 -0.1470
    26 C(13)  Bbb    -0.0003    -0.036    -0.013    -0.012  0.2419  0.0833  0.9667
              Bcc     0.0006     0.084     0.030     0.028  0.9351 -0.2857 -0.2094
 
              Baa    -0.0029    -0.110    -0.039    -0.037  0.2898 -0.3322  0.8976
    27 N(14)  Bbb    -0.0012    -0.048    -0.017    -0.016  0.2946  0.9233  0.2466
              Bcc     0.0041     0.158     0.056     0.053  0.9106 -0.1930 -0.3654
 
              Baa    -0.0006    -0.096    -0.034    -0.032  0.0307 -0.0215  0.9993
    28 B(11)  Bbb    -0.0004    -0.064    -0.023    -0.021 -0.0401  0.9989  0.0227
              Bcc     0.0009     0.160     0.057     0.054  0.9987  0.0407 -0.0298
 
              Baa    -0.0003    -0.167    -0.059    -0.056  0.2390 -0.2071  0.9487
    29 F(19)  Bbb    -0.0003    -0.127    -0.045    -0.042 -0.1716  0.9526  0.2512
              Bcc     0.0006     0.294     0.105     0.098  0.9557  0.2228 -0.1922
 
              Baa    -0.0003    -0.168    -0.060    -0.056 -0.1518  0.0804  0.9851
    30 F(19)  Bbb    -0.0003    -0.133    -0.048    -0.045  0.0677  0.9952 -0.0708
              Bcc     0.0006     0.302     0.108     0.101  0.9861 -0.0559  0.1565
 
              Baa    -0.0009    -0.460    -0.164    -0.153  0.1105 -0.1522  0.9822
    31 H(1)   Bbb    -0.0005    -0.249    -0.089    -0.083  0.8640 -0.4738 -0.1706
              Bcc     0.0013     0.709     0.253     0.237  0.4913  0.8674  0.0791
 
              Baa    -0.0024    -1.280    -0.457    -0.427  0.1454 -0.3410  0.9288
    32 H(1)   Bbb    -0.0003    -0.156    -0.055    -0.052  0.9049 -0.3336 -0.2642
              Bcc     0.0027     1.435     0.512     0.479  0.3999  0.8789  0.2601
 
              Baa    -0.0019    -0.995    -0.355    -0.332 -0.0494  0.3171  0.9471
    33 H(1)   Bbb    -0.0004    -0.220    -0.079    -0.073  0.8707 -0.4508  0.1964
              Bcc     0.0023     1.215     0.433     0.405  0.4893  0.8344 -0.2538
 
              Baa    -0.0004    -0.239    -0.085    -0.080  0.1255 -0.1281  0.9838
    34 H(1)   Bbb    -0.0002    -0.113    -0.040    -0.038  0.7630 -0.6213 -0.1782
              Bcc     0.0007     0.352     0.126     0.117  0.6341  0.7730  0.0197
 
              Baa    -0.0003    -0.142    -0.050    -0.047 -0.2874  0.5237  0.8020
    35 H(1)   Bbb    -0.0002    -0.100    -0.036    -0.034 -0.1488  0.8027 -0.5775
              Bcc     0.0005     0.242     0.086     0.081  0.9462  0.2853  0.1528
 
              Baa    -0.0002    -0.132    -0.047    -0.044 -0.1698  0.2330  0.9575
    36 H(1)   Bbb    -0.0002    -0.114    -0.041    -0.038 -0.5247  0.8011 -0.2880
              Bcc     0.0005     0.247     0.088     0.082  0.8342  0.5513  0.0138
 
              Baa    -0.0003    -0.141    -0.050    -0.047  0.3152 -0.4442  0.8387
    37 H(1)   Bbb    -0.0002    -0.118    -0.042    -0.039 -0.1350  0.8538  0.5029
              Bcc     0.0005     0.259     0.092     0.086  0.9394  0.2717 -0.2092
 
              Baa    -0.0032    -1.721    -0.614    -0.574  0.0181  0.9470  0.3209
    38 H(1)   Bbb    -0.0010    -0.513    -0.183    -0.171  0.3341 -0.3082  0.8907
              Bcc     0.0042     2.234     0.797     0.745  0.9423  0.0911 -0.3220
 
              Baa    -0.0045    -2.392    -0.854    -0.798  0.0838  0.9301  0.3575
    39 H(1)   Bbb    -0.0043    -2.271    -0.810    -0.757  0.9434 -0.1896  0.2721
              Bcc     0.0087     4.663     1.664     1.556 -0.3209 -0.3145  0.8934
 
              Baa    -0.0045    -2.400    -0.856    -0.800  0.0047  0.9428  0.3334
    40 H(1)   Bbb    -0.0004    -0.219    -0.078    -0.073  0.9170  0.1289 -0.3775
              Bcc     0.0049     2.619     0.934     0.873  0.3988 -0.3075  0.8639
 
              Baa    -0.0020    -1.049    -0.374    -0.350  0.2944  0.2140  0.9314
    41 H(1)   Bbb    -0.0004    -0.217    -0.078    -0.072  0.8071  0.4663 -0.3622
              Bcc     0.0024     1.266     0.452     0.422 -0.5118  0.8584 -0.0354
 
              Baa    -0.0008    -0.445    -0.159    -0.149  0.0267 -0.2832  0.9587
    42 H(1)   Bbb    -0.0005    -0.263    -0.094    -0.088  0.8719  0.4758  0.1162
              Bcc     0.0013     0.709     0.253     0.236 -0.4890  0.8328  0.2596
 
              Baa    -0.0021    -1.126    -0.402    -0.376  0.0192 -0.5023  0.8645
    43 H(1)   Bbb    -0.0006    -0.335    -0.119    -0.112  0.9477  0.2847  0.1444
              Bcc     0.0027     1.460     0.521     0.487 -0.3186  0.8165  0.4815
 
              Baa    -0.0004    -0.226    -0.081    -0.075 -0.0183 -0.1939  0.9808
    44 H(1)   Bbb    -0.0002    -0.132    -0.047    -0.044  0.7218  0.6763  0.1472
              Bcc     0.0007     0.358     0.128     0.120 -0.6918  0.7107  0.1276
 
              Baa    -0.0002    -0.131    -0.047    -0.044 -0.2412 -0.5735  0.7829
    45 H(1)   Bbb    -0.0002    -0.112    -0.040    -0.038  0.0958  0.7887  0.6072
              Bcc     0.0005     0.243     0.087     0.081  0.9657 -0.2214  0.1353
 
              Baa    -0.0002    -0.129    -0.046    -0.043  0.2782  0.4501  0.8485
    46 H(1)   Bbb    -0.0002    -0.098    -0.035    -0.033  0.0998  0.8651 -0.4916
              Bcc     0.0004     0.227     0.081     0.076  0.9553 -0.2214 -0.1957
 
              Baa    -0.0002    -0.125    -0.045    -0.042  0.2160  0.2741  0.9371
    47 H(1)   Bbb    -0.0002    -0.106    -0.038    -0.035  0.4210  0.8399 -0.3426
              Bcc     0.0004     0.231     0.082     0.077  0.8810 -0.4685 -0.0660
 

 ---------------------------------------------------------------------------------

 No NMR shielding tensors so no spin-rotation constants.
 Leave Link  601 at Sat Oct 25 13:12:13 2025, MaxMem= 30870077440 cpu:             121.6 elap:               2.2
 (Enter /public/software/gauss/g16/l9999.exe)
 1\1\GINC-CU056\SP\UM062X\def2TZVPP\C19H17B1F2N4O4(1-,2)\BAIDING\25-Oct
 -2025\0\\#p M062X/DEF2TZVPP scrf=(solvent=water) em=GD3\\Energy calcul
 ation for DNB_24NO2_reduced\\-1,2\C,0,0.965673,-2.956635,-0.537234\C,0
 ,-0.453054,-2.484213,-0.429389\C,0,-1.564743,-3.322726,-0.495964\C,0,-
 2.725372,-2.538171,-0.389084\C,0,-4.145998,-2.991931,-0.429515\N,0,-2.
 3677,-1.239769,-0.249696\C,0,-0.966763,-1.15772,-0.262392\C,0,-0.32998
 ,0.094184,-0.155906\C,0,1.154026,0.180261,-0.217533\C,0,1.7568,0.59214
 3,-1.421766\C,0,3.1296,0.609992,-1.600972\C,0,3.979819,0.202495,-0.541
 374\N,0,5.366918,0.21469,-0.690291\O,0,6.12098,-0.155426,0.284426\O,0,
 5.871051,0.595757,-1.810291\C,0,3.416,-0.205473,0.677674\C,0,2.038377,
 -0.203343,0.82246\N,0,1.533632,-0.560202,2.140467\O,0,0.431235,-0.1183
 14,2.491174\O,0,2.227013,-1.286838,2.86719\C,0,-1.082523,1.279644,-0.0
 75018\C,0,-0.688938,2.641605,0.123716\C,0,0.681874,3.213969,0.317054\C
 ,0,-1.868835,3.382757,0.158019\C,0,-2.954423,2.503302,0.002679\C,0,-4.
 408909,2.834483,-0.009201\N,0,-2.483006,1.241267,-0.131109\B,0,-3.3442
 87,-0.039485,-0.227016\F,0,-4.203602,-0.13062,0.880566\F,0,-4.117342,-
 0.021383,-1.400678\H,0,0.978616,-3.995652,-0.877259\H,0,1.547491,-2.35
 8505,-1.244156\H,0,1.489949,-2.920781,0.42413\H,0,-1.549272,-4.397319,
 -0.620815\H,0,-4.672519,-2.550909,-1.282273\H,0,-4.191809,-4.079296,-0
 .512056\H,0,-4.682372,-2.68186,0.472877\H,0,1.112335,0.884628,-2.24446
 6\H,0,3.562543,0.924614,-2.540789\H,0,4.053731,-0.487097,1.502864\H,0,
 1.279676,3.186002,-0.59975\H,0,0.602553,4.25747,0.633693\H,0,1.242507,
 2.666353,1.081095\H,0,-1.950099,4.452734,0.296327\H,0,-4.884954,2.4740
 97,-0.926767\H,0,-4.92544,2.355413,0.828928\H,0,-4.549943,3.914483,0.0
 61406\\Version=ES64L-G16RevA.03\State=2-A\HF=-1478.8694719\S2=0.769872
 \S2-1=0.\S2A=0.750222\RMSD=6.989e-09\Dipole=-7.0819491,0.3475774,-0.71
 51257\Quadrupole=-78.2793511,56.3186469,21.9607042,-1.8899501,8.160568
 1,6.3667451\PG=C01 [X(C19H17B1F2N4O4)]\\@


 THE MOST INCOMPREHENSIBLE THING ABOUT THE WORLD
 IS THAT IT IS COMPREHENSIBLE. -- A. EINSTEIN
 Job cpu time:       1 days  3 hours  9 minutes 26.7 seconds.
 Elapsed time:       0 days  0 hours 25 minutes 41.8 seconds.
 File lengths (MBytes):  RWF=   1463 Int=      0 D2E=      0 Chk=     96 Scr=      1
 Normal termination of Gaussian 16 at Sat Oct 25 13:12:14 2025.
