 Entering Gaussian System, Link 0=g16
 Input=M100033539_sp.gjf
 Output=M100033539_sp.log
 Initial command:
 /work/home/accqbws0vm/apprepo/gaussian/16-hy/scripts/../app/g16/l1.exe "/work/home/accqbws0vm/1012_third_energy/tmp_M100033539_sp_25977247/Gau-9632.inp" -scrdir="/work/home/accqbws0vm/1012_third_energy/tmp_M100033539_sp_25977247/"
 Entering Link 1 = /work/home/accqbws0vm/apprepo/gaussian/16-hy/scripts/../app/g16/l1.exe PID=      9633.
  
 Copyright (c) 1988,1990,1992,1993,1995,1998,2003,2009,2016,
            Gaussian, Inc.  All Rights Reserved.
  
 This is part of the Gaussian(R) 16 program.  It is based on
 the Gaussian(R) 09 system (copyright 2009, Gaussian, Inc.),
 the Gaussian(R) 03 system (copyright 2003, Gaussian, Inc.),
 the Gaussian(R) 98 system (copyright 1998, Gaussian, Inc.),
 the Gaussian(R) 94 system (copyright 1995, Gaussian, Inc.),
 the Gaussian 92(TM) system (copyright 1992, Gaussian, Inc.),
 the Gaussian 90(TM) system (copyright 1990, Gaussian, Inc.),
 the Gaussian 88(TM) system (copyright 1988, Gaussian, Inc.),
 the Gaussian 86(TM) system (copyright 1986, Carnegie Mellon
 University), and the Gaussian 82(TM) system (copyright 1983,
 Carnegie Mellon University). Gaussian is a federally registered
 trademark of Gaussian, Inc.
  
 This software contains proprietary and confidential information,
 including trade secrets, belonging to Gaussian, Inc.
  
 This software is provided under written license and may be
 used, copied, transmitted, or stored only in accord with that
 written license.
  
 The following legend is applicable only to US Government
 contracts under FAR:
  
                    RESTRICTED RIGHTS LEGEND
  
 Use, reproduction and disclosure by the US Government is
 subject to restrictions as set forth in subparagraphs (a)
 and (c) of the Commercial Computer Software - Restricted
 Rights clause in FAR 52.227-19.
  
 Gaussian, Inc.
 340 Quinnipiac St., Bldg. 40, Wallingford CT 06492
  
  
 ---------------------------------------------------------------
 Warning -- This program may not be used in any manner that
 competes with the business of Gaussian, Inc. or will provide
 assistance to any competitor of Gaussian, Inc.  The licensee
 of this program is prohibited from giving any competitor of
 Gaussian, Inc. access to this program.  By using this program,
 the user acknowledges that Gaussian, Inc. is engaged in the
 business of creating and licensing software in the field of
 computational chemistry and represents and warrants to the
 licensee that it is not a competitor of Gaussian, Inc. and that
 it will not use this program in any manner prohibited above.
 ---------------------------------------------------------------
  

 Cite this work as:
 Gaussian 16, Revision A.03,
 M. J. Frisch, G. W. Trucks, H. B. Schlegel, G. E. Scuseria, 
 M. A. Robb, J. R. Cheeseman, G. Scalmani, V. Barone, 
 G. A. Petersson, H. Nakatsuji, X. Li, M. Caricato, A. V. Marenich, 
 J. Bloino, B. G. Janesko, R. Gomperts, B. Mennucci, H. P. Hratchian, 
 J. V. Ortiz, A. F. Izmaylov, J. L. Sonnenberg, D. Williams-Young, 
 F. Ding, F. Lipparini, F. Egidi, J. Goings, B. Peng, A. Petrone, 
 T. Henderson, D. Ranasinghe, V. G. Zakrzewski, J. Gao, N. Rega, 
 G. Zheng, W. Liang, M. Hada, M. Ehara, K. Toyota, R. Fukuda, 
 J. Hasegawa, M. Ishida, T. Nakajima, Y. Honda, O. Kitao, H. Nakai, 
 T. Vreven, K. Throssell, J. A. Montgomery, Jr., J. E. Peralta, 
 F. Ogliaro, M. J. Bearpark, J. J. Heyd, E. N. Brothers, K. N. Kudin, 
 V. N. Staroverov, T. A. Keith, R. Kobayashi, J. Normand, 
 K. Raghavachari, A. P. Rendell, J. C. Burant, S. S. Iyengar, 
 J. Tomasi, M. Cossi, J. M. Millam, M. Klene, C. Adamo, R. Cammi, 
 J. W. Ochterski, R. L. Martin, K. Morokuma, O. Farkas, 
 J. B. Foresman, and D. J. Fox, Gaussian, Inc., Wallingford CT, 2016.
 
 ******************************************
 Gaussian 16:  ES64L-G16RevA.03 25-Dec-2016
                12-Oct-2025 
 ******************************************
 %nprocshared=64
 Will use up to   64 processors via shared memory.
 %mem=230GB
 %chk=M100033539_sp.chk
 ----------------------------------------------
 #p M062X/DEF2TZVPP scrf=(solvent=water) em=GD3
 ----------------------------------------------
 1/38=1,172=1/1;
 2/12=2,17=6,18=5,40=1/2;
 3/5=44,7=202,11=2,25=1,30=1,70=2201,72=1,74=-55,124=31/1,2,3;
 4//1;
 5/5=2,38=5,53=1/2;
 6/7=2,8=2,9=2,10=2,28=1/1;
 99/5=1,9=1/99;
 Leave Link    1 at Sun Oct 12 05:12:43 2025, MaxMem= 30870077440 cpu:               6.5 elap:               0.1
 (Enter /work/home/accqbws0vm/apprepo/gaussian/16-hy/scripts/../app/g16/l101.exe)
 ---------------------------------
 Energy calculation for M100033539
 ---------------------------------
 Symbolic Z-matrix:
 Charge =  0 Multiplicity = 1
 C                     10.45414  -0.25842   0.14729 
 C                     9.87069   0.7552   -0.84267 
 N                     8.70647   1.50603  -0.35417 
 C                     8.96653   2.7927    0.30554 
 C                     9.12412   2.72384   1.82812 
 C                     7.45862   0.92872  -0.31682 
 C                     6.33658   1.60916   0.24113 
 C                     5.07289   1.0498    0.22907 
 C                     4.82468  -0.22797  -0.32472 
 C                     3.52558  -0.86232  -0.36509 
 C                     2.34405  -0.31761   0.04157 
 C                     1.05099  -0.94398  -0.00082 
 N                    -0.08319  -0.18337   0.00936 
 C                    -1.20449  -1.01589  -0.00182 
 C                    -2.49931  -0.47658  -0.00464 
 C                    -3.68727  -1.38134   0.01502 
 C                    -4.14173  -1.92334   1.227 
 C                    -5.25602  -2.75528   1.25327 
 C                    -5.90288  -3.04099   0.05076 
 N                    -7.07371  -3.91415   0.0701 
 O                    -7.63627  -4.16631  -0.99997 
 O                    -7.45297  -4.36407   1.15582 
 C                    -5.47198  -2.51932  -1.16925 
 C                    -4.36104  -1.68262  -1.17863 
 C                    -2.70475   0.92037  -0.02631 
 C                    -3.89681   1.70804   0.02704 
 C                    -5.32014   1.25533   0.12905 
 C                    -3.45914   3.03801  -0.02943 
 I                    -4.66861   4.74409   0.00606 
 C                    -2.05063   3.06459  -0.11033 
 C                    -1.12833   4.23334  -0.18233 
 N                    -1.60915   1.78556  -0.1004 
 B                    -0.12086   1.36087  -0.15139 
 F                     0.57669   1.98343   0.89655 
 F                     0.45359   1.73535  -1.37369 
 C                    -0.74931  -2.3806   -0.01362 
 C                    -1.57429  -3.62922  -0.01526 
 C                     0.63911  -2.31702  -0.00934 
 I                     1.88253  -3.99546   0.14691 
 C                     5.94104  -0.90815  -0.8603 
 C                     7.21344  -0.36355  -0.85841 
 H                     9.70917  -1.00035   0.45016 
 H                     11.28963  -0.78994  -0.32124 
 H                     10.82924   0.23658   1.04759 
 H                     10.63509   1.49141  -1.10373 
 H                     9.60162   0.25232  -1.7768 
 H                     9.8809    3.19559  -0.13725 
 H                     8.1682    3.49416   0.04404 
 H                     8.2344    2.30359   2.30668 
 H                     9.98565   2.11227   2.11112 
 H                     9.27782   3.73246   2.22706 
 H                     6.45956   2.58646   0.68957 
 H                     4.25834   1.61738   0.66923 
 H                     3.52392  -1.85956  -0.79384 
 H                     2.33297   0.70402   0.40382 
 H                    -3.62336  -1.68985   2.15069 
 H                    -5.61796  -3.17595   2.18267 
 H                    -5.99679  -2.76195  -2.08439 
 H                    -4.01163  -1.26366  -2.11601 
 H                    -5.96732   2.10695   0.34956 
 H                    -5.67059   0.80463  -0.80558 
 H                    -5.45726   0.51225   0.9183 
 H                    -0.63295   4.39842   0.78106 
 H                    -0.34773   4.06279  -0.92789 
 H                    -1.67792   5.13851  -0.44405 
 H                    -2.0513   -3.79795   0.95585 
 H                    -2.36723  -3.58939  -0.76529 
 H                    -0.94549  -4.49464  -0.23218 
 H                     5.79675  -1.8973   -1.28814 
 H                     8.02343  -0.9449   -1.27914 
 
 ITRead=  0  0  0  0  0  0  0  0  0  0  0  0  0  0  0  0  0  0  0  0
 ITRead=  0  0  0  0  0  0  0  0  0  0  0  0  0  0  0  0  0  0  0  0
 ITRead=  0  0  0  0  0  0  0  0  0  0  0  0  0  0  0  0  0  0  0  0
 ITRead=  0  0  0  0  0  0  0  0  0  0
 MicOpt= -1 -1 -1 -1 -1 -1 -1 -1 -1 -1 -1 -1 -1 -1 -1 -1 -1 -1 -1 -1
 MicOpt= -1 -1 -1 -1 -1 -1 -1 -1 -1 -1 -1 -1 -1 -1 -1 -1 -1 -1 -1 -1
 MicOpt= -1 -1 -1 -1 -1 -1 -1 -1 -1 -1 -1 -1 -1 -1 -1 -1 -1 -1 -1 -1
 MicOpt= -1 -1 -1 -1 -1 -1 -1 -1 -1 -1
 NAtoms=     70 NQM=       70 NQMF=       0 NMMI=      0 NMMIF=      0
                NMic=       0 NMicF=      0.
                    Isotopes and Nuclear Properties:
 (Nuclear quadrupole moments (NQMom) in fm**2, nuclear magnetic moments (NMagM)
  in nuclear magnetons)

  Atom         1           2           3           4           5           6           7           8           9          10
 IAtWgt=          12          12          14          12          12          12          12          12          12          12
 AtmWgt=  12.0000000  12.0000000  14.0030740  12.0000000  12.0000000  12.0000000  12.0000000  12.0000000  12.0000000  12.0000000
 NucSpn=           0           0           2           0           0           0           0           0           0           0
 AtZEff=  -0.0000000  -0.0000000  -0.0000000  -0.0000000  -0.0000000  -0.0000000  -0.0000000  -0.0000000  -0.0000000  -0.0000000
 NQMom=    0.0000000   0.0000000   2.0440000   0.0000000   0.0000000   0.0000000   0.0000000   0.0000000   0.0000000   0.0000000
 NMagM=    0.0000000   0.0000000   0.4037610   0.0000000   0.0000000   0.0000000   0.0000000   0.0000000   0.0000000   0.0000000
 AtZNuc=   6.0000000   6.0000000   7.0000000   6.0000000   6.0000000   6.0000000   6.0000000   6.0000000   6.0000000   6.0000000

  Atom        11          12          13          14          15          16          17          18          19          20
 IAtWgt=          12          12          14          12          12          12          12          12          12          14
 AtmWgt=  12.0000000  12.0000000  14.0030740  12.0000000  12.0000000  12.0000000  12.0000000  12.0000000  12.0000000  14.0030740
 NucSpn=           0           0           2           0           0           0           0           0           0           2
 AtZEff=  -0.0000000  -0.0000000  -0.0000000  -0.0000000  -0.0000000  -0.0000000  -0.0000000  -0.0000000  -0.0000000  -0.0000000
 NQMom=    0.0000000   0.0000000   2.0440000   0.0000000   0.0000000   0.0000000   0.0000000   0.0000000   0.0000000   2.0440000
 NMagM=    0.0000000   0.0000000   0.4037610   0.0000000   0.0000000   0.0000000   0.0000000   0.0000000   0.0000000   0.4037610
 AtZNuc=   6.0000000   6.0000000   7.0000000   6.0000000   6.0000000   6.0000000   6.0000000   6.0000000   6.0000000   7.0000000

  Atom        21          22          23          24          25          26          27          28          29          30
 IAtWgt=          16          16          12          12          12          12          12          12         127          12
 AtmWgt=  15.9949146  15.9949146  12.0000000  12.0000000  12.0000000  12.0000000  12.0000000  12.0000000 126.9004000  12.0000000
 NucSpn=           0           0           0           0           0           0           0           0           5           0
 AtZEff=  -0.0000000  -0.0000000  -0.0000000  -0.0000000  -0.0000000  -0.0000000  -0.0000000  -0.0000000  -0.0000000  -0.0000000
 NQMom=    0.0000000   0.0000000   0.0000000   0.0000000   0.0000000   0.0000000   0.0000000   0.0000000 -71.0000000   0.0000000
 NMagM=    0.0000000   0.0000000   0.0000000   0.0000000   0.0000000   0.0000000   0.0000000   0.0000000   2.8132800   0.0000000
 AtZNuc=   8.0000000   8.0000000   6.0000000   6.0000000   6.0000000   6.0000000   6.0000000   6.0000000  53.0000000   6.0000000

  Atom        31          32          33          34          35          36          37          38          39          40
 IAtWgt=          12          14          11          19          19          12          12          12         127          12
 AtmWgt=  12.0000000  14.0030740  11.0093053  18.9984032  18.9984032  12.0000000  12.0000000  12.0000000 126.9004000  12.0000000
 NucSpn=           0           2           3           1           1           0           0           0           5           0
 AtZEff=  -0.0000000  -0.0000000  -0.0000000  -0.0000000  -0.0000000  -0.0000000  -0.0000000  -0.0000000  -0.0000000  -0.0000000
 NQMom=    0.0000000   2.0440000   4.0590000   0.0000000   0.0000000   0.0000000   0.0000000   0.0000000 -71.0000000   0.0000000
 NMagM=    0.0000000   0.4037610   2.6886370   2.6288670   2.6288670   0.0000000   0.0000000   0.0000000   2.8132800   0.0000000
 AtZNuc=   6.0000000   7.0000000   5.0000000   9.0000000   9.0000000   6.0000000   6.0000000   6.0000000  53.0000000   6.0000000

  Atom        41          42          43          44          45          46          47          48          49          50
 IAtWgt=          12           1           1           1           1           1           1           1           1           1
 AtmWgt=  12.0000000   1.0078250   1.0078250   1.0078250   1.0078250   1.0078250   1.0078250   1.0078250   1.0078250   1.0078250
 NucSpn=           0           1           1           1           1           1           1           1           1           1
 AtZEff=  -0.0000000  -0.0000000  -0.0000000  -0.0000000  -0.0000000  -0.0000000  -0.0000000  -0.0000000  -0.0000000  -0.0000000
 NQMom=    0.0000000   0.0000000   0.0000000   0.0000000   0.0000000   0.0000000   0.0000000   0.0000000   0.0000000   0.0000000
 NMagM=    0.0000000   2.7928460   2.7928460   2.7928460   2.7928460   2.7928460   2.7928460   2.7928460   2.7928460   2.7928460
 AtZNuc=   6.0000000   1.0000000   1.0000000   1.0000000   1.0000000   1.0000000   1.0000000   1.0000000   1.0000000   1.0000000

  Atom        51          52          53          54          55          56          57          58          59          60
 IAtWgt=           1           1           1           1           1           1           1           1           1           1
 AtmWgt=   1.0078250   1.0078250   1.0078250   1.0078250   1.0078250   1.0078250   1.0078250   1.0078250   1.0078250   1.0078250
 NucSpn=           1           1           1           1           1           1           1           1           1           1
 AtZEff=  -0.0000000  -0.0000000  -0.0000000  -0.0000000  -0.0000000  -0.0000000  -0.0000000  -0.0000000  -0.0000000  -0.0000000
 NQMom=    0.0000000   0.0000000   0.0000000   0.0000000   0.0000000   0.0000000   0.0000000   0.0000000   0.0000000   0.0000000
 NMagM=    2.7928460   2.7928460   2.7928460   2.7928460   2.7928460   2.7928460   2.7928460   2.7928460   2.7928460   2.7928460
 AtZNuc=   1.0000000   1.0000000   1.0000000   1.0000000   1.0000000   1.0000000   1.0000000   1.0000000   1.0000000   1.0000000

  Atom        61          62          63          64          65          66          67          68          69          70
 IAtWgt=           1           1           1           1           1           1           1           1           1           1
 AtmWgt=   1.0078250   1.0078250   1.0078250   1.0078250   1.0078250   1.0078250   1.0078250   1.0078250   1.0078250   1.0078250
 NucSpn=           1           1           1           1           1           1           1           1           1           1
 AtZEff=  -0.0000000  -0.0000000  -0.0000000  -0.0000000  -0.0000000  -0.0000000  -0.0000000  -0.0000000  -0.0000000  -0.0000000
 NQMom=    0.0000000   0.0000000   0.0000000   0.0000000   0.0000000   0.0000000   0.0000000   0.0000000   0.0000000   0.0000000
 NMagM=    2.7928460   2.7928460   2.7928460   2.7928460   2.7928460   2.7928460   2.7928460   2.7928460   2.7928460   2.7928460
 AtZNuc=   1.0000000   1.0000000   1.0000000   1.0000000   1.0000000   1.0000000   1.0000000   1.0000000   1.0000000   1.0000000
 Leave Link  101 at Sun Oct 12 05:12:43 2025, MaxMem= 30870077440 cpu:               5.0 elap:               0.1
 (Enter /work/home/accqbws0vm/apprepo/gaussian/16-hy/scripts/../app/g16/l202.exe)
 Stoichiometry    C30H29BF2I2N4O2
 Framework group  C1[X(C30H29BF2I2N4O2)]
 Deg. of freedom   204
 Full point group                 C1      NOp   1
 Largest Abelian subgroup         C1      NOp   1
 Largest concise Abelian subgroup C1      NOp   1
                         Standard orientation:                         
 ---------------------------------------------------------------------
 Center     Atomic      Atomic             Coordinates (Angstroms)
 Number     Number       Type             X           Y           Z
 ---------------------------------------------------------------------
      1          6           0       10.454137   -0.258424    0.147287
      2          6           0        9.870691    0.755195   -0.842672
      3          7           0        8.706471    1.506025   -0.354165
      4          6           0        8.966530    2.792702    0.305538
      5          6           0        9.124122    2.723840    1.828116
      6          6           0        7.458617    0.928718   -0.316822
      7          6           0        6.336576    1.609159    0.241134
      8          6           0        5.072886    1.049801    0.229071
      9          6           0        4.824682   -0.227965   -0.324715
     10          6           0        3.525576   -0.862320   -0.365085
     11          6           0        2.344047   -0.317612    0.041572
     12          6           0        1.050990   -0.943979   -0.000816
     13          7           0       -0.083185   -0.183373    0.009360
     14          6           0       -1.204492   -1.015889   -0.001816
     15          6           0       -2.499307   -0.476577   -0.004644
     16          6           0       -3.687268   -1.381344    0.015024
     17          6           0       -4.141732   -1.923339    1.227003
     18          6           0       -5.256018   -2.755282    1.253271
     19          6           0       -5.902879   -3.040993    0.050757
     20          7           0       -7.073709   -3.914145    0.070097
     21          8           0       -7.636266   -4.166306   -0.999965
     22          8           0       -7.452966   -4.364070    1.155822
     23          6           0       -5.471982   -2.519323   -1.169247
     24          6           0       -4.361043   -1.682619   -1.178631
     25          6           0       -2.704751    0.920365   -0.026313
     26          6           0       -3.896806    1.708044    0.027039
     27          6           0       -5.320135    1.255330    0.129054
     28          6           0       -3.459136    3.038008   -0.029426
     29         53           0       -4.668613    4.744091    0.006061
     30          6           0       -2.050633    3.064594   -0.110331
     31          6           0       -1.128333    4.233340   -0.182330
     32          7           0       -1.609147    1.785562   -0.100398
     33          5           0       -0.120860    1.360870   -0.151387
     34          9           0        0.576688    1.983427    0.896552
     35          9           0        0.453585    1.735349   -1.373688
     36          6           0       -0.749309   -2.380604   -0.013618
     37          6           0       -1.574294   -3.629220   -0.015264
     38          6           0        0.639112   -2.317019   -0.009335
     39         53           0        1.882530   -3.995459    0.146912
     40          6           0        5.941042   -0.908145   -0.860298
     41          6           0        7.213437   -0.363551   -0.858409
     42          1           0        9.709169   -1.000345    0.450158
     43          1           0       11.289628   -0.789936   -0.321235
     44          1           0       10.829241    0.236583    1.047593
     45          1           0       10.635089    1.491413   -1.103725
     46          1           0        9.601618    0.252322   -1.776802
     47          1           0        9.880895    3.195592   -0.137253
     48          1           0        8.168198    3.494162    0.044038
     49          1           0        8.234402    2.303594    2.306679
     50          1           0        9.985649    2.112266    2.111117
     51          1           0        9.277823    3.732460    2.227058
     52          1           0        6.459564    2.586459    0.689571
     53          1           0        4.258342    1.617377    0.669230
     54          1           0        3.523922   -1.859555   -0.793835
     55          1           0        2.332965    0.704021    0.403820
     56          1           0       -3.623363   -1.689850    2.150691
     57          1           0       -5.617958   -3.175954    2.182665
     58          1           0       -5.996787   -2.761950   -2.084392
     59          1           0       -4.011634   -1.263663   -2.116015
     60          1           0       -5.967318    2.106947    0.349558
     61          1           0       -5.670586    0.804626   -0.805584
     62          1           0       -5.457259    0.512249    0.918295
     63          1           0       -0.632953    4.398423    0.781062
     64          1           0       -0.347733    4.062788   -0.927885
     65          1           0       -1.677919    5.138505   -0.444048
     66          1           0       -2.051301   -3.797948    0.955850
     67          1           0       -2.367230   -3.589393   -0.765292
     68          1           0       -0.945485   -4.494639   -0.232177
     69          1           0        5.796749   -1.897302   -1.288140
     70          1           0        8.023427   -0.944904   -1.279138
 ---------------------------------------------------------------------
 Rotational constants (GHZ):           0.0647173           0.0271155           0.0195318
 Leave Link  202 at Sun Oct 12 05:12:43 2025, MaxMem= 30870077440 cpu:               3.2 elap:               0.1
 (Enter /work/home/accqbws0vm/apprepo/gaussian/16-hy/scripts/../app/g16/l301.exe)
 Standard basis: def2TZVPP (5D, 7F)
 Ernie: Thresh=  0.10000D-02 Tol=  0.10000D-05 Strict=F.
 There are  1957 symmetry adapted cartesian basis functions of A   symmetry.
 There are  1715 symmetry adapted basis functions of A   symmetry.
  1715 basis functions,  2700 primitive gaussians,  1957 cartesian basis functions
   163 alpha electrons      163 beta electrons
       nuclear repulsion energy      5196.8228418840 Hartrees.
 IExCor= 4336 DFT=T Ex+Corr=M062X ExCW=0 ScaHFX=  0.540000
 ScaDFX=  1.000000  1.000000  1.000000  1.000000 ScalE2=  1.000000  1.000000
 IRadAn=      5 IRanWt=     -1 IRanGd=            0 ICorTp=0 IEmpDi=131
 NAtoms=   70 NActive=   70 NUniq=   70 SFac= 1.00D+00 NAtFMM=   60 NAOKFM=T Big=T
 Integral buffers will be    131072 words long.
 Raffenetti 2 integral format.
 Two-electron integral symmetry is turned on.
 R6Disp:  Grimme-D3 Dispersion energy=       -0.0059967629 Hartrees.
 Nuclear repulsion after empirical dispersion term =     5196.8168451211 Hartrees.
 ------------------------------------------------------------------------------
 Polarizable Continuum Model (PCM)
 =================================
 Model                : PCM.
 Atomic radii         : UFF (Universal Force Field).
 Polarization charges : Total charges.
 Charge compensation  : None.
 Solution method      : On-the-fly selection.
 Cavity type          : Scaled VdW (van der Waals Surface) (Alpha=1.100).
 Cavity algorithm     : GePol (No added spheres)
                        Default sphere list used, NSphG=   70.
                        Lebedev-Laikov grids with approx.  5.0 points / Ang**2.
                        Smoothing algorithm: York/Karplus (Gamma=1.0000).
                        Polarization charges: spherical gaussians, with
                                              point-specific exponents (IZeta= 3).
                        Self-potential: point-specific (ISelfS= 7).
                        Self-field    : sphere-specific E.n sum rule (ISelfD= 2).
 Solvent              : Water, Eps=  78.355300 Eps(inf)=   1.777849
 ------------------------------------------------------------------------------
 GePol: Number of generator spheres                  =      70
 GePol: Total number of spheres                      =      70
 GePol: Number of exposed spheres                    =      70 (100.00%)
 GePol: Number of points                             =    5154
 GePol: Average weight of points                     =       0.13
 GePol: Minimum weight of points                     =   0.89D-11
 GePol: Maximum weight of points                     =    0.20577
 GePol: Number of points with low weight             =     338
 GePol: Fraction of low-weight points (<1% of avg)   =       6.56%
 GePol: Cavity surface area                          =    669.479 Ang**2
 GePol: Cavity volume                                =    790.912 Ang**3
 Leave Link  301 at Sun Oct 12 05:12:43 2025, MaxMem= 30870077440 cpu:               8.0 elap:               0.1
 (Enter /work/home/accqbws0vm/apprepo/gaussian/16-hy/scripts/../app/g16/l302.exe)
 NPDir=0 NMtPBC=     1 NCelOv=     1 NCel=       1 NClECP=     1 NCelD=      1
         NCelK=      1 NCelE2=     1 NClLst=     1 CellRange=     0.0.
 One-electron integrals computed using PRISM.
 One-electron integral symmetry used in STVInt
   1 Symmetry operations used in ECPInt.
 ECPInt:  NShTT=  201930 NPrTT=  578290 LenC2=  127274 LenP2D=  249426.
 LDataN:  DoStor=T MaxTD1= 7 Len=  274
 Number of processors reduced to  56 by ecpmxn.
 NBasis=  1715 RedAO= T EigKep=  3.70D-06  NBF=  1715
 NBsUse=  1715 1.00D-06 EigRej= -1.00D+00 NBFU=  1715
 Precomputing XC quadrature grid using
 IXCGrd= 4 IRadAn=           5 IRanWt=          -1 IRanGd=           0 AccXCQ= 0.00D+00.
 Defaulting to unpruned grid for atomic number  53.
 Defaulting to unpruned grid for atomic number  53.
 Generated NRdTot=       0 NPtTot=           0 NUsed=           0 NTot=          32
 NSgBfM=  1710  1710  1710  1710  1710 MxSgAt=    70 MxSgA2=    70.
 Leave Link  302 at Sun Oct 12 05:12:53 2025, MaxMem= 30870077440 cpu:             600.2 elap:               9.5
 (Enter /work/home/accqbws0vm/apprepo/gaussian/16-hy/scripts/../app/g16/l303.exe)
 DipDrv:  MaxL=1.
 Leave Link  303 at Sun Oct 12 05:12:53 2025, MaxMem= 30870077440 cpu:              26.8 elap:               0.5
 (Enter /work/home/accqbws0vm/apprepo/gaussian/16-hy/scripts/../app/g16/l401.exe)
 ExpMin= 6.06D-02 ExpMax= 3.55D+04 ExpMxC= 1.21D+03 IAcc=3 IRadAn=         5 AccDes= 0.00D+00
 Harris functional with IExCor= 1009 and IRadAn=       5 diagonalized for initial guess.
 HarFok:  IExCor= 1009 AccDes= 0.00D+00 IRadAn=         5 IDoV= 1 UseB2=F ITyADJ=14
 ICtDFT=  3500011 ScaDFX=  1.000000  1.000000  1.000000  1.000000
 Defaulting to unpruned grid for atomic number  53.
 FoFCou: FMM=F IPFlag=           0 FMFlag=      100000 FMFlg1=        2001
         NFxFlg=           0 DoJE=T BraDBF=F KetDBF=T FulRan=T
         wScrn=  0.000000 ICntrl=       500 IOpCl=  0 I1Cent=   200000004 NGrid=           0
         NMat0=    1 NMatS0=      1 NMatT0=    0 NMatD0=    1 NMtDS0=    0 NMtDT0=    0
 Petite list used in FoFCou.
 Harris En= -2349.74674639584    
 JPrj=0 DoOrth=F DoCkMO=F.
 Leave Link  401 at Sun Oct 12 05:13:03 2025, MaxMem= 30870077440 cpu:             587.5 elap:               9.3
 (Enter /work/home/accqbws0vm/apprepo/gaussian/16-hy/scripts/../app/g16/l502.exe)
 Integral symmetry usage will be decided dynamically.
 Closed shell SCF:
 Using DIIS extrapolation, IDIIS=  1040.
 NGot= 30870077440 LenX= 30862276060 LenY= 30858444254
 Requested convergence on RMS density matrix=1.00D-08 within 128 cycles.
 Requested convergence on MAX density matrix=1.00D-06.
 Requested convergence on             energy=1.00D-06.
 No special actions if energy rises.
 Fock matrices will be formed incrementally for  20 cycles.

 Cycle   1  Pass 1  IDiag  1:
 FoFJK:  IHMeth= 1 ICntrl=       0 DoSepK=F KAlg= 0 I1Cent=           0 FoldK=F
 IRaf= 600000000 NMat=       1 IRICut=       1 DoRegI=T DoRafI=F ISym2E= 0 IDoP0=0 IntGTp=1.
 FoFCou: FMM=T IPFlag=           0 FMFlag=      100000 FMFlg1=        2001
         NFxFlg=           0 DoJE=F BraDBF=F KetDBF=F FulRan=T
         wScrn=  0.000000 ICntrl=         0 IOpCl=  0 I1Cent=           0 NGrid=           0
         NMat0=    1 NMatS0=      1 NMatT0=    0 NMatD0=    1 NMtDS0=    0 NMtDT0=    0
 Symmetry not used in FoFCou.
 FMM levels:  10  Number of levels for PrismC:   9
 Defaulting to unpruned grid for atomic number  53.
 Defaulting to unpruned grid for atomic number  53.
 Defaulting to unpruned grid for atomic number  53.
 Defaulting to unpruned grid for atomic number  53.
 Defaulting to unpruned grid for atomic number  53.
 Defaulting to unpruned grid for atomic number  53.
 Defaulting to unpruned grid for atomic number  53.
 Defaulting to unpruned grid for atomic number  53.
 Defaulting to unpruned grid for atomic number  53.
 Defaulting to unpruned grid for atomic number  53.
 Defaulting to unpruned grid for atomic number  53.
 Defaulting to unpruned grid for atomic number  53.
 Defaulting to unpruned grid for atomic number  53.
 Defaulting to unpruned grid for atomic number  53.
 Defaulting to unpruned grid for atomic number  53.
 Defaulting to unpruned grid for atomic number  53.
 Defaulting to unpruned grid for atomic number  53.
 Defaulting to unpruned grid for atomic number  53.
 Defaulting to unpruned grid for atomic number  53.
 Defaulting to unpruned grid for atomic number  53.
 Defaulting to unpruned grid for atomic number  53.
 Defaulting to unpruned grid for atomic number  53.
 Defaulting to unpruned grid for atomic number  53.
 Defaulting to unpruned grid for atomic number  53.
 Defaulting to unpruned grid for atomic number  53.
 Defaulting to unpruned grid for atomic number  53.
 Defaulting to unpruned grid for atomic number  53.
 Defaulting to unpruned grid for atomic number  53.
 Defaulting to unpruned grid for atomic number  53.
 Defaulting to unpruned grid for atomic number  53.
 Defaulting to unpruned grid for atomic number  53.
 Defaulting to unpruned grid for atomic number  53.
 Defaulting to unpruned grid for atomic number  53.
 Defaulting to unpruned grid for atomic number  53.
 Defaulting to unpruned grid for atomic number  53.
 Defaulting to unpruned grid for atomic number  53.
 Defaulting to unpruned grid for atomic number  53.
 Defaulting to unpruned grid for atomic number  53.
 Defaulting to unpruned grid for atomic number  53.
 Defaulting to unpruned grid for atomic number  53.
 Defaulting to unpruned grid for atomic number  53.
 Defaulting to unpruned grid for atomic number  53.
 Defaulting to unpruned grid for atomic number  53.
 Defaulting to unpruned grid for atomic number  53.
 Defaulting to unpruned grid for atomic number  53.
 Defaulting to unpruned grid for atomic number  53.
 Defaulting to unpruned grid for atomic number  53.
 Defaulting to unpruned grid for atomic number  53.
 Defaulting to unpruned grid for atomic number  53.
 Defaulting to unpruned grid for atomic number  53.
 Defaulting to unpruned grid for atomic number  53.
 Defaulting to unpruned grid for atomic number  53.
 Defaulting to unpruned grid for atomic number  53.
 Defaulting to unpruned grid for atomic number  53.
 Defaulting to unpruned grid for atomic number  53.
 Defaulting to unpruned grid for atomic number  53.
 Defaulting to unpruned grid for atomic number  53.
 Defaulting to unpruned grid for atomic number  53.
 Defaulting to unpruned grid for atomic number  53.
 Defaulting to unpruned grid for atomic number  53.
 Defaulting to unpruned grid for atomic number  53.
 Defaulting to unpruned grid for atomic number  53.
 Defaulting to unpruned grid for atomic number  53.
 Defaulting to unpruned grid for atomic number  53.
 Inv3:  Mode=1 IEnd=    79691148.
 Iteration    1 A*A^-1 deviation from unit magnitude is 3.22D-15 for     99.
 Iteration    1 A*A^-1 deviation from orthogonality  is 2.66D-15 for   4462     57.
 Iteration    1 A^-1*A deviation from unit magnitude is 3.00D-15 for   3941.
 Iteration    1 A^-1*A deviation from orthogonality  is 2.89D-15 for   3723    640.
 E= -2348.91204121139    
 DIIS: error= 3.24D-02 at cycle   1 NSaved=   1.
 NSaved= 1 IEnMin= 1 EnMin= -2348.91204121139     IErMin= 1 ErrMin= 3.24D-02
 ErrMax= 3.24D-02  0.00D+00 EMaxC= 1.00D-01 BMatC= 1.40D+00 BMatP= 1.40D+00
 IDIUse=3 WtCom= 6.76D-01 WtEn= 3.24D-01
 Coeff-Com:  0.100D+01
 Coeff-En:   0.100D+01
 Coeff:      0.100D+01
 Gap=     0.260 Goal=   None    Shift=    0.000
 GapD=    0.260 DampG=1.000 DampE=0.500 DampFc=0.5000 IDamp=-1.
 Damping current iteration by 5.00D-01
 RMSDP=1.60D-03 MaxDP=1.63D-01              OVMax= 2.61D-01

 Cycle   2  Pass 1  IDiag  1:
 RMSU=  8.01D-04    CP:  9.98D-01
 E= -2349.44422434378     Delta-E=       -0.532183132391 Rises=F Damp=T
 DIIS: error= 4.90D-03 at cycle   2 NSaved=   2.
 NSaved= 2 IEnMin= 2 EnMin= -2349.44422434378     IErMin= 2 ErrMin= 4.90D-03
 ErrMax= 4.90D-03  0.00D+00 EMaxC= 1.00D-01 BMatC= 1.25D-01 BMatP= 1.40D+00
 IDIUse=3 WtCom= 9.51D-01 WtEn= 4.90D-02
 Coeff-Com: -0.594D-01 0.106D+01
 Coeff-En:   0.000D+00 0.100D+01
 Coeff:     -0.564D-01 0.106D+01
 Gap=     0.173 Goal=   None    Shift=    0.000
 RMSDP=8.11D-04 MaxDP=8.80D-02 DE=-5.32D-01 OVMax= 2.13D-01

 Cycle   3  Pass 1  IDiag  1:
 RMSU=  6.98D-04    CP:  9.92D-01  1.51D+00
 E= -2349.94760423791     Delta-E=       -0.503379894129 Rises=F Damp=F
 DIIS: error= 1.32D-02 at cycle   3 NSaved=   3.
 NSaved= 3 IEnMin= 3 EnMin= -2349.94760423791     IErMin= 2 ErrMin= 4.90D-03
 ErrMax= 1.32D-02  0.00D+00 EMaxC= 1.00D-01 BMatC= 6.80D-02 BMatP= 1.25D-01
 IDIUse=3 WtCom= 8.68D-01 WtEn= 1.32D-01
 Coeff-Com: -0.985D-01 0.470D+00 0.629D+00
 Coeff-En:   0.000D+00 0.000D+00 0.100D+01
 Coeff:     -0.855D-01 0.408D+00 0.678D+00
 Gap=     0.134 Goal=   None    Shift=    0.000
 RMSDP=2.03D-04 MaxDP=2.58D-02 DE=-5.03D-01 OVMax= 8.44D-02

 Cycle   4  Pass 1  IDiag  1:
 RMSU=  2.00D-04    CP:  9.91D-01  1.52D+00  9.53D-01
 E= -2349.98679606576     Delta-E=       -0.039191827851 Rises=F Damp=F
 DIIS: error= 5.95D-03 at cycle   4 NSaved=   4.
 NSaved= 4 IEnMin= 4 EnMin= -2349.98679606576     IErMin= 2 ErrMin= 4.90D-03
 ErrMax= 5.95D-03  0.00D+00 EMaxC= 1.00D-01 BMatC= 1.71D-02 BMatP= 6.80D-02
 IDIUse=3 WtCom= 9.40D-01 WtEn= 5.95D-02
 Coeff-Com: -0.278D-01 0.711D-01 0.365D+00 0.592D+00
 Coeff-En:   0.000D+00 0.000D+00 0.206D+00 0.794D+00
 Coeff:     -0.262D-01 0.668D-01 0.355D+00 0.604D+00
 Gap=     0.132 Goal=   None    Shift=    0.000
 RMSDP=8.09D-05 MaxDP=1.49D-02 DE=-3.92D-02 OVMax= 2.56D-02

 Cycle   5  Pass 1  IDiag  1:
 RMSU=  6.74D-05    CP:  9.92D-01  1.54D+00  9.82D-01  8.14D-01
 E= -2349.99985499451     Delta-E=       -0.013058928753 Rises=F Damp=F
 DIIS: error= 4.98D-04 at cycle   5 NSaved=   5.
 NSaved= 5 IEnMin= 5 EnMin= -2349.99985499451     IErMin= 5 ErrMin= 4.98D-04
 ErrMax= 4.98D-04  0.00D+00 EMaxC= 1.00D-01 BMatC= 3.04D-04 BMatP= 1.71D-02
 IDIUse=3 WtCom= 9.95D-01 WtEn= 4.98D-03
 Coeff-Com: -0.614D-02 0.843D-02 0.112D+00 0.234D+00 0.651D+00
 Coeff-En:   0.000D+00 0.000D+00 0.000D+00 0.000D+00 0.100D+01
 Coeff:     -0.611D-02 0.839D-02 0.112D+00 0.233D+00 0.653D+00
 Gap=     0.133 Goal=   None    Shift=    0.000
 RMSDP=1.80D-05 MaxDP=2.48D-03 DE=-1.31D-02 OVMax= 3.94D-03

 Cycle   6  Pass 1  IDiag  1:
 RMSU=  1.59D-05    CP:  9.92D-01  1.54D+00  9.87D-01  8.50D-01  1.04D+00
 E= -2350.00010832033     Delta-E=       -0.000253325824 Rises=F Damp=F
 DIIS: error= 8.58D-05 at cycle   6 NSaved=   6.
 NSaved= 6 IEnMin= 6 EnMin= -2350.00010832033     IErMin= 6 ErrMin= 8.58D-05
 ErrMax= 8.58D-05  0.00D+00 EMaxC= 1.00D-01 BMatC= 3.86D-05 BMatP= 3.04D-04
 IDIUse=1 WtCom= 1.00D+00 WtEn= 0.00D+00
 Coeff-Com:  0.581D-03-0.416D-02 0.725D-02 0.295D-01 0.274D+00 0.692D+00
 Coeff:      0.581D-03-0.416D-02 0.725D-02 0.295D-01 0.274D+00 0.692D+00
 Gap=     0.133 Goal=   None    Shift=    0.000
 RMSDP=1.20D-05 MaxDP=4.19D-03 DE=-2.53D-04 OVMax= 2.76D-03

 Cycle   7  Pass 1  IDiag  1:
 RMSU=  8.70D-06    CP:  9.92D-01  1.54D+00  9.93D-01  8.57D-01  1.14D+00
                    CP:  1.03D+00
 E= -2350.00015056103     Delta-E=       -0.000042240694 Rises=F Damp=F
 DIIS: error= 4.11D-05 at cycle   7 NSaved=   7.
 NSaved= 7 IEnMin= 7 EnMin= -2350.00015056103     IErMin= 7 ErrMin= 4.11D-05
 ErrMax= 4.11D-05  0.00D+00 EMaxC= 1.00D-01 BMatC= 5.34D-06 BMatP= 3.86D-05
 IDIUse=1 WtCom= 1.00D+00 WtEn= 0.00D+00
 Coeff-Com:  0.119D-02-0.312D-02-0.129D-01-0.216D-01 0.246D-01 0.291D+00
 Coeff-Com:  0.721D+00
 Coeff:      0.119D-02-0.312D-02-0.129D-01-0.216D-01 0.246D-01 0.291D+00
 Coeff:      0.721D+00
 Gap=     0.133 Goal=   None    Shift=    0.000
 RMSDP=3.99D-06 MaxDP=4.64D-04 DE=-4.22D-05 OVMax= 1.15D-03

 Cycle   8  Pass 1  IDiag  1:
 RMSU=  2.53D-06    CP:  9.92D-01  1.54D+00  9.93D-01  8.66D-01  1.17D+00
                    CP:  1.11D+00  9.86D-01
 E= -2350.00015793756     Delta-E=       -0.000007376530 Rises=F Damp=F
 DIIS: error= 2.05D-05 at cycle   8 NSaved=   8.
 NSaved= 8 IEnMin= 8 EnMin= -2350.00015793756     IErMin= 8 ErrMin= 2.05D-05
 ErrMax= 2.05D-05  0.00D+00 EMaxC= 1.00D-01 BMatC= 1.14D-06 BMatP= 5.34D-06
 IDIUse=1 WtCom= 1.00D+00 WtEn= 0.00D+00
 Coeff-Com:  0.500D-03-0.970D-03-0.732D-02-0.152D-01-0.262D-01 0.407D-01
 Coeff-Com:  0.356D+00 0.653D+00
 Coeff:      0.500D-03-0.970D-03-0.732D-02-0.152D-01-0.262D-01 0.407D-01
 Coeff:      0.356D+00 0.653D+00
 Gap=     0.134 Goal=   None    Shift=    0.000
 RMSDP=2.11D-06 MaxDP=7.43D-04 DE=-7.38D-06 OVMax= 8.45D-04

 Cycle   9  Pass 1  IDiag  1:
 RMSU=  1.11D-06    CP:  9.92D-01  1.54D+00  9.94D-01  8.67D-01  1.18D+00
                    CP:  1.13D+00  1.13D+00  9.85D-01
 E= -2350.00015952433     Delta-E=       -0.000001586771 Rises=F Damp=F
 DIIS: error= 8.33D-06 at cycle   9 NSaved=   9.
 NSaved= 9 IEnMin= 9 EnMin= -2350.00015952433     IErMin= 9 ErrMin= 8.33D-06
 ErrMax= 8.33D-06  0.00D+00 EMaxC= 1.00D-01 BMatC= 1.20D-07 BMatP= 1.14D-06
 IDIUse=1 WtCom= 1.00D+00 WtEn= 0.00D+00
 Coeff-Com:  0.131D-04 0.861D-04-0.806D-03-0.265D-02-0.128D-01-0.277D-01
 Coeff-Com:  0.297D-01 0.246D+00 0.768D+00
 Coeff:      0.131D-04 0.861D-04-0.806D-03-0.265D-02-0.128D-01-0.277D-01
 Coeff:      0.297D-01 0.246D+00 0.768D+00
 Gap=     0.134 Goal=   None    Shift=    0.000
 RMSDP=6.22D-07 MaxDP=1.24D-04 DE=-1.59D-06 OVMax= 3.06D-04

 Cycle  10  Pass 1  IDiag  1:
 RMSU=  4.08D-07    CP:  9.92D-01  1.54D+00  9.94D-01  8.67D-01  1.18D+00
                    CP:  1.14D+00  1.16D+00  1.12D+00  1.08D+00
 E= -2350.00015975120     Delta-E=       -0.000000226869 Rises=F Damp=F
 DIIS: error= 3.45D-06 at cycle  10 NSaved=  10.
 NSaved=10 IEnMin=10 EnMin= -2350.00015975120     IErMin=10 ErrMin= 3.45D-06
 ErrMax= 3.45D-06  0.00D+00 EMaxC= 1.00D-01 BMatC= 3.88D-08 BMatP= 1.20D-07
 IDIUse=1 WtCom= 1.00D+00 WtEn= 0.00D+00
 Coeff-Com: -0.855D-04 0.229D-03 0.985D-03 0.152D-02-0.143D-02-0.228D-01
 Coeff-Com: -0.565D-01-0.474D-02 0.409D+00 0.674D+00
 Coeff:     -0.855D-04 0.229D-03 0.985D-03 0.152D-02-0.143D-02-0.228D-01
 Coeff:     -0.565D-01-0.474D-02 0.409D+00 0.674D+00
 Gap=     0.134 Goal=   None    Shift=    0.000
 RMSDP=3.45D-07 MaxDP=7.71D-05 DE=-2.27D-07 OVMax= 1.72D-04

 Cycle  11  Pass 1  IDiag  1:
 RMSU=  1.80D-07    CP:  9.92D-01  1.54D+00  9.94D-01  8.67D-01  1.19D+00
                    CP:  1.14D+00  1.18D+00  1.16D+00  1.22D+00  1.06D+00
 E= -2350.00015980810     Delta-E=       -0.000000056903 Rises=F Damp=F
 DIIS: error= 1.31D-06 at cycle  11 NSaved=  11.
 NSaved=11 IEnMin=11 EnMin= -2350.00015980810     IErMin=11 ErrMin= 1.31D-06
 ErrMax= 1.31D-06  0.00D+00 EMaxC= 1.00D-01 BMatC= 3.90D-09 BMatP= 3.88D-08
 IDIUse=1 WtCom= 1.00D+00 WtEn= 0.00D+00
 Coeff-Com: -0.357D-04 0.797D-04 0.540D-03 0.105D-02 0.122D-02-0.589D-02
 Coeff-Com: -0.289D-01-0.377D-01 0.680D-01 0.292D+00 0.709D+00
 Coeff:     -0.357D-04 0.797D-04 0.540D-03 0.105D-02 0.122D-02-0.589D-02
 Coeff:     -0.289D-01-0.377D-01 0.680D-01 0.292D+00 0.709D+00
 Gap=     0.134 Goal=   None    Shift=    0.000
 RMSDP=9.79D-08 MaxDP=8.59D-06 DE=-5.69D-08 OVMax= 6.27D-05

 Cycle  12  Pass 1  IDiag  1:
 RMSU=  6.36D-08    CP:  9.92D-01  1.54D+00  9.94D-01  8.67D-01  1.19D+00
                    CP:  1.14D+00  1.18D+00  1.17D+00  1.26D+00  1.16D+00
                    CP:  1.09D+00
 E= -2350.00015981429     Delta-E=       -0.000000006185 Rises=F Damp=F
 DIIS: error= 5.98D-07 at cycle  12 NSaved=  12.
 NSaved=12 IEnMin=12 EnMin= -2350.00015981429     IErMin=12 ErrMin= 5.98D-07
 ErrMax= 5.98D-07  0.00D+00 EMaxC= 1.00D-01 BMatC= 6.63D-10 BMatP= 3.90D-09
 IDIUse=1 WtCom= 1.00D+00 WtEn= 0.00D+00
 Coeff-Com: -0.877D-06-0.311D-05 0.763D-04 0.218D-03 0.763D-03 0.104D-02
 Coeff-Com: -0.398D-02-0.140D-01-0.327D-01 0.219D-01 0.313D+00 0.713D+00
 Coeff:     -0.877D-06-0.311D-05 0.763D-04 0.218D-03 0.763D-03 0.104D-02
 Coeff:     -0.398D-02-0.140D-01-0.327D-01 0.219D-01 0.313D+00 0.713D+00
 Gap=     0.134 Goal=   None    Shift=    0.000
 RMSDP=4.18D-08 MaxDP=7.13D-06 DE=-6.19D-09 OVMax= 1.89D-05

 Cycle  13  Pass 1  IDiag  1:
 RMSU=  2.62D-08    CP:  9.92D-01  1.54D+00  9.94D-01  8.67D-01  1.19D+00
                    CP:  1.14D+00  1.18D+00  1.17D+00  1.27D+00  1.19D+00
                    CP:  1.19D+00  1.22D+00
 E= -2350.00015981526     Delta-E=       -0.000000000976 Rises=F Damp=F
 DIIS: error= 1.46D-07 at cycle  13 NSaved=  13.
 NSaved=13 IEnMin=13 EnMin= -2350.00015981526     IErMin=13 ErrMin= 1.46D-07
 ErrMax= 1.46D-07  0.00D+00 EMaxC= 1.00D-01 BMatC= 8.36D-11 BMatP= 6.63D-10
 IDIUse=1 WtCom= 1.00D+00 WtEn= 0.00D+00
 Coeff-Com:  0.525D-05-0.135D-04-0.570D-04-0.809D-04 0.888D-04 0.132D-02
 Coeff-Com:  0.276D-02 0.115D-02-0.250D-01-0.383D-01 0.106D-01 0.264D+00
 Coeff-Com:  0.784D+00
 Coeff:      0.525D-05-0.135D-04-0.570D-04-0.809D-04 0.888D-04 0.132D-02
 Coeff:      0.276D-02 0.115D-02-0.250D-01-0.383D-01 0.106D-01 0.264D+00
 Coeff:      0.784D+00
 Gap=     0.134 Goal=   None    Shift=    0.000
 RMSDP=1.99D-08 MaxDP=3.35D-06 DE=-9.76D-10 OVMax= 1.19D-05

 Cycle  14  Pass 1  IDiag  1:
 RMSU=  1.22D-08    CP:  9.92D-01  1.54D+00  9.94D-01  8.67D-01  1.19D+00
                    CP:  1.14D+00  1.18D+00  1.17D+00  1.27D+00  1.21D+00
                    CP:  1.25D+00  1.36D+00  1.09D+00
 E= -2350.00015981565     Delta-E=       -0.000000000389 Rises=F Damp=F
 DIIS: error= 6.03D-08 at cycle  14 NSaved=  14.
 NSaved=14 IEnMin=14 EnMin= -2350.00015981565     IErMin=14 ErrMin= 6.03D-08
 ErrMax= 6.03D-08  0.00D+00 EMaxC= 1.00D-01 BMatC= 2.01D-11 BMatP= 8.36D-11
 IDIUse=1 WtCom= 1.00D+00 WtEn= 0.00D+00
 Coeff-Com:  0.199D-05-0.445D-05-0.338D-04-0.637D-04-0.836D-04 0.392D-03
 Coeff-Com:  0.167D-02 0.323D-02-0.491D-02-0.182D-01-0.496D-01-0.341D-01
 Coeff-Com:  0.327D+00 0.775D+00
 Coeff:      0.199D-05-0.445D-05-0.338D-04-0.637D-04-0.836D-04 0.392D-03
 Coeff:      0.167D-02 0.323D-02-0.491D-02-0.182D-01-0.496D-01-0.341D-01
 Coeff:      0.327D+00 0.775D+00
 Gap=     0.134 Goal=   None    Shift=    0.000
 RMSDP=9.98D-09 MaxDP=1.21D-06 DE=-3.89D-10 OVMax= 4.09D-06

 Cycle  15  Pass 1  IDiag  1:
 RMSU=  5.07D-09    CP:  9.92D-01  1.54D+00  9.94D-01  8.67D-01  1.19D+00
                    CP:  1.14D+00  1.18D+00  1.17D+00  1.27D+00  1.21D+00
                    CP:  1.26D+00  1.43D+00  1.30D+00  1.21D+00
 E= -2350.00015981563     Delta-E=        0.000000000024 Rises=F Damp=F
 DIIS: error= 2.81D-08 at cycle  15 NSaved=  15.
 NSaved=15 IEnMin=14 EnMin= -2350.00015981565     IErMin=15 ErrMin= 2.81D-08
 ErrMax= 2.81D-08  0.00D+00 EMaxC= 1.00D-01 BMatC= 2.31D-12 BMatP= 2.01D-11
 IDIUse=1 WtCom= 1.00D+00 WtEn= 0.00D+00
 Coeff-Com: -0.199D-06 0.625D-06-0.269D-05-0.856D-05-0.455D-04-0.669D-04
 Coeff-Com:  0.781D-04 0.108D-02 0.203D-02 0.160D-03-0.178D-01-0.570D-01
 Coeff-Com:  0.141D-02 0.254D+00 0.816D+00
 Coeff:     -0.199D-06 0.625D-06-0.269D-05-0.856D-05-0.455D-04-0.669D-04
 Coeff:      0.781D-04 0.108D-02 0.203D-02 0.160D-03-0.178D-01-0.570D-01
 Coeff:      0.141D-02 0.254D+00 0.816D+00
 Gap=     0.134 Goal=   None    Shift=    0.000
 RMSDP=4.18D-09 MaxDP=6.87D-07 DE= 2.36D-11 OVMax= 2.23D-06

 Error on total polarization charges =  0.02735
 SCF Done:  E(RM062X) =  -2350.00015982     A.U. after   15 cycles
            NFock= 15  Conv=0.42D-08     -V/T= 2.1916
 KE= 1.972168558000D+03 PE=-1.574538000181D+04 EE= 6.226394438875D+03
 Leave Link  502 at Sun Oct 12 05:27:58 2025, MaxMem= 30870077440 cpu:           56212.9 elap:             895.1
 (Enter /work/home/accqbws0vm/apprepo/gaussian/16-hy/scripts/../app/g16/l601.exe)
 Copying SCF densities to generalized density rwf, IOpCl= 0 IROHF=0.

 **********************************************************************

            Population analysis using the SCF density.

 **********************************************************************

 Orbital symmetries:
       Occupied  (A) (A) (A) (A) (A) (A) (A) (A) (A) (A) (A) (A)
                 (A) (A) (A) (A) (A) (A) (A) (A) (A) (A) (A) (A)
                 (A) (A) (A) (A) (A) (A) (A) (A) (A) (A) (A) (A)
                 (A) (A) (A) (A) (A) (A) (A) (A) (A) (A) (A) (A)
                 (A) (A) (A) (A) (A) (A) (A) (A) (A) (A) (A) (A)
                 (A) (A) (A) (A) (A) (A) (A) (A) (A) (A) (A) (A)
                 (A) (A) (A) (A) (A) (A) (A) (A) (A) (A) (A) (A)
                 (A) (A) (A) (A) (A) (A) (A) (A) (A) (A) (A) (A)
                 (A) (A) (A) (A) (A) (A) (A) (A) (A) (A) (A) (A)
                 (A) (A) (A) (A) (A) (A) (A) (A) (A) (A) (A) (A)
                 (A) (A) (A) (A) (A) (A) (A) (A) (A) (A) (A) (A)
                 (A) (A) (A) (A) (A) (A) (A) (A) (A) (A) (A) (A)
                 (A) (A) (A) (A) (A) (A) (A) (A) (A) (A) (A) (A)
                 (A) (A) (A) (A) (A) (A) (A)
       Virtual   (A) (A) (A) (A) (A) (A) (A) (A) (A) (A) (A) (A)
                 (A) (A) (A) (A) (A) (A) (A) (A) (A) (A) (A) (A)
                 (A) (A) (A) (A) (A) (A) (A) (A) (A) (A) (A) (A)
                 (A) (A) (A) (A) (A) (A) (A) (A) (A) (A) (A) (A)
                 (A) (A) (A) (A) (A) (A) (A) (A) (A) (A) (A) (A)
                 (A) (A) (A) (A) (A) (A) (A) (A) (A) (A) (A) (A)
                 (A) (A) (A) (A) (A) (A) (A) (A) (A) (A) (A) (A)
                 (A) (A) (A) (A) (A) (A) (A) (A) (A) (A) (A) (A)
                 (A) (A) (A) (A) (A) (A) (A) (A) (A) (A) (A) (A)
                 (A) (A) (A) (A) (A) (A) (A) (A) (A) (A) (A) (A)
                 (A) (A) (A) (A) (A) (A) (A) (A) (A) (A) (A) (A)
                 (A) (A) (A) (A) (A) (A) (A) (A) (A) (A) (A) (A)
                 (A) (A) (A) (A) (A) (A) (A) (A) (A) (A) (A) (A)
                 (A) (A) (A) (A) (A) (A) (A) (A) (A) (A) (A) (A)
                 (A) (A) (A) (A) (A) (A) (A) (A) (A) (A) (A) (A)
                 (A) (A) (A) (A) (A) (A) (A) (A) (A) (A) (A) (A)
                 (A) (A) (A) (A) (A) (A) (A) (A) (A) (A) (A) (A)
                 (A) (A) (A) (A) (A) (A) (A) (A) (A) (A) (A) (A)
                 (A) (A) (A) (A) (A) (A) (A) (A) (A) (A) (A) (A)
                 (A) (A) (A) (A) (A) (A) (A) (A) (A) (A) (A) (A)
                 (A) (A) (A) (A) (A) (A) (A) (A) (A) (A) (A) (A)
                 (A) (A) (A) (A) (A) (A) (A) (A) (A) (A) (A) (A)
                 (A) (A) (A) (A) (A) (A) (A) (A) (A) (A) (A) (A)
                 (A) (A) (A) (A) (A) (A) (A) (A) (A) (A) (A) (A)
                 (A) (A) (A) (A) (A) (A) (A) (A) (A) (A) (A) (A)
                 (A) (A) (A) (A) (A) (A) (A) (A) (A) (A) (A) (A)
                 (A) (A) (A) (A) (A) (A) (A) (A) (A) (A) (A) (A)
                 (A) (A) (A) (A) (A) (A) (A) (A) (A) (A) (A) (A)
                 (A) (A) (A) (A) (A) (A) (A) (A) (A) (A) (A) (A)
                 (A) (A) (A) (A) (A) (A) (A) (A) (A) (A) (A) (A)
                 (A) (A) (A) (A) (A) (A) (A) (A) (A) (A) (A) (A)
                 (A) (A) (A) (A) (A) (A) (A) (A) (A) (A) (A) (A)
                 (A) (A) (A) (A) (A) (A) (A) (A) (A) (A) (A) (A)
                 (A) (A) (A) (A) (A) (A) (A) (A) (A) (A) (A) (A)
                 (A) (A) (A) (A) (A) (A) (A) (A) (A) (A) (A) (A)
                 (A) (A) (A) (A) (A) (A) (A) (A) (A) (A) (A) (A)
                 (A) (A) (A) (A) (A) (A) (A) (A) (A) (A) (A) (A)
                 (A) (A) (A) (A) (A) (A) (A) (A) (A) (A) (A) (A)
                 (A) (A) (A) (A) (A) (A) (A) (A) (A) (A) (A) (A)
                 (A) (A) (A) (A) (A) (A) (A) (A) (A) (A) (A) (A)
                 (A) (A) (A) (A) (A) (A) (A) (A) (A) (A) (A) (A)
                 (A) (A) (A) (A) (A) (A) (A) (A) (A) (A) (A) (A)
                 (A) (A) (A) (A) (A) (A) (A) (A) (A) (A) (A) (A)
                 (A) (A) (A) (A) (A) (A) (A) (A) (A) (A) (A) (A)
                 (A) (A) (A) (A) (A) (A) (A) (A) (A) (A) (A) (A)
                 (A) (A) (A) (A) (A) (A) (A) (A) (A) (A) (A) (A)
                 (A) (A) (A) (A) (A) (A) (A) (A) (A) (A) (A) (A)
                 (A) (A) (A) (A) (A) (A) (A) (A) (A) (A) (A) (A)
                 (A) (A) (A) (A) (A) (A) (A) (A) (A) (A) (A) (A)
                 (A) (A) (A) (A) (A) (A) (A) (A) (A) (A) (A) (A)
                 (A) (A) (A) (A) (A) (A) (A) (A) (A) (A) (A) (A)
                 (A) (A) (A) (A) (A) (A) (A) (A) (A) (A) (A) (A)
                 (A) (A) (A) (A) (A) (A) (A) (A) (A) (A) (A) (A)
                 (A) (A) (A) (A) (A) (A) (A) (A) (A) (A) (A) (A)
                 (A) (A) (A) (A) (A) (A) (A) (A) (A) (A) (A) (A)
                 (A) (A) (A) (A) (A) (A) (A) (A) (A) (A) (A) (A)
                 (A) (A) (A) (A) (A) (A) (A) (A) (A) (A) (A) (A)
                 (A) (A) (A) (A) (A) (A) (A) (A) (A) (A) (A) (A)
                 (A) (A) (A) (A) (A) (A) (A) (A) (A) (A) (A) (A)
                 (A) (A) (A) (A) (A) (A) (A) (A) (A) (A) (A) (A)
                 (A) (A) (A) (A) (A) (A) (A) (A) (A) (A) (A) (A)
                 (A) (A) (A) (A) (A) (A) (A) (A) (A) (A) (A) (A)
                 (A) (A) (A) (A) (A) (A) (A) (A) (A) (A) (A) (A)
                 (A) (A) (A) (A) (A) (A) (A) (A) (A) (A) (A) (A)
                 (A) (A) (A) (A) (A) (A) (A) (A) (A) (A) (A) (A)
                 (A) (A) (A) (A) (A) (A) (A) (A) (A) (A) (A) (A)
                 (A) (A) (A) (A) (A) (A) (A) (A) (A) (A) (A) (A)
                 (A) (A) (A) (A) (A) (A) (A) (A) (A) (A) (A) (A)
                 (A) (A) (A) (A) (A) (A) (A) (A) (A) (A) (A) (A)
                 (A) (A) (A) (A) (A) (A) (A) (A) (A) (A) (A) (A)
                 (A) (A) (A) (A) (A) (A) (A) (A) (A) (A) (A) (A)
                 (A) (A) (A) (A) (A) (A) (A) (A) (A) (A) (A) (A)
                 (A) (A) (A) (A) (A) (A) (A) (A) (A) (A) (A) (A)
                 (A) (A) (A) (A) (A) (A) (A) (A) (A) (A) (A) (A)
                 (A) (A) (A) (A) (A) (A) (A) (A) (A) (A) (A) (A)
                 (A) (A) (A) (A) (A) (A) (A) (A) (A) (A) (A) (A)
                 (A) (A) (A) (A) (A) (A) (A) (A) (A) (A) (A) (A)
                 (A) (A) (A) (A) (A) (A) (A) (A) (A) (A) (A) (A)
                 (A) (A) (A) (A) (A) (A) (A) (A) (A) (A) (A) (A)
                 (A) (A) (A) (A) (A) (A) (A) (A) (A) (A) (A) (A)
                 (A) (A) (A) (A) (A) (A) (A) (A) (A) (A) (A) (A)
                 (A) (A) (A) (A) (A) (A) (A) (A) (A) (A) (A) (A)
                 (A) (A) (A) (A) (A) (A) (A) (A) (A) (A) (A) (A)
                 (A) (A) (A) (A) (A) (A) (A) (A) (A) (A) (A) (A)
                 (A) (A) (A) (A) (A) (A) (A) (A) (A) (A) (A) (A)
                 (A) (A) (A) (A) (A) (A) (A) (A) (A) (A) (A) (A)
                 (A) (A) (A) (A) (A) (A) (A) (A) (A) (A) (A) (A)
                 (A) (A) (A) (A) (A) (A) (A) (A) (A) (A) (A) (A)
                 (A) (A) (A) (A) (A) (A) (A) (A) (A) (A) (A) (A)
                 (A) (A) (A) (A) (A) (A) (A) (A) (A) (A) (A) (A)
                 (A) (A) (A) (A) (A) (A) (A) (A) (A) (A) (A) (A)
                 (A) (A) (A) (A) (A) (A) (A) (A) (A) (A) (A) (A)
                 (A) (A) (A) (A) (A) (A) (A) (A) (A) (A) (A) (A)
                 (A) (A) (A) (A) (A) (A) (A) (A) (A) (A) (A) (A)
                 (A) (A) (A) (A) (A) (A) (A) (A) (A) (A) (A) (A)
                 (A) (A) (A) (A) (A) (A) (A) (A) (A) (A) (A) (A)
                 (A) (A) (A) (A) (A) (A) (A) (A) (A) (A) (A) (A)
                 (A) (A) (A) (A) (A) (A) (A) (A) (A) (A) (A) (A)
                 (A) (A) (A) (A) (A) (A) (A) (A) (A) (A) (A) (A)
                 (A) (A) (A) (A) (A) (A) (A) (A) (A) (A) (A) (A)
                 (A) (A) (A) (A) (A) (A) (A) (A) (A) (A) (A) (A)
                 (A) (A) (A) (A) (A) (A) (A) (A) (A) (A) (A) (A)
                 (A) (A) (A) (A) (A) (A) (A) (A) (A) (A) (A) (A)
                 (A) (A) (A) (A) (A) (A) (A) (A) (A) (A) (A) (A)
                 (A) (A) (A) (A) (A) (A) (A) (A) (A) (A) (A) (A)
                 (A) (A) (A) (A) (A) (A) (A) (A) (A) (A) (A) (A)
                 (A) (A) (A) (A) (A) (A) (A) (A) (A) (A) (A) (A)
                 (A) (A) (A) (A) (A) (A) (A) (A) (A) (A) (A) (A)
                 (A) (A) (A) (A) (A) (A) (A) (A) (A) (A) (A) (A)
                 (A) (A) (A) (A) (A) (A) (A) (A) (A) (A) (A) (A)
                 (A) (A) (A) (A) (A) (A) (A) (A) (A) (A) (A) (A)
                 (A) (A) (A) (A) (A) (A) (A) (A) (A) (A) (A) (A)
                 (A) (A) (A) (A) (A) (A) (A) (A) (A) (A) (A) (A)
                 (A) (A) (A) (A) (A) (A) (A) (A) (A) (A) (A) (A)
                 (A) (A) (A) (A) (A) (A) (A) (A) (A) (A) (A) (A)
                 (A) (A) (A) (A) (A) (A) (A) (A) (A) (A) (A) (A)
                 (A) (A) (A) (A) (A) (A) (A) (A) (A) (A) (A) (A)
                 (A) (A) (A) (A) (A) (A) (A) (A) (A) (A) (A) (A)
                 (A) (A) (A) (A) (A) (A) (A) (A) (A) (A) (A) (A)
                 (A) (A) (A) (A) (A) (A) (A) (A) (A) (A) (A) (A)
                 (A) (A) (A) (A) (A) (A) (A) (A) (A) (A) (A) (A)
                 (A) (A) (A) (A) (A) (A) (A) (A) (A) (A) (A) (A)
                 (A) (A) (A) (A) (A) (A) (A) (A) (A) (A) (A) (A)
                 (A) (A) (A) (A) (A) (A) (A) (A) (A) (A) (A) (A)
                 (A) (A) (A) (A) (A) (A) (A) (A) (A) (A) (A) (A)
                 (A) (A) (A) (A) (A) (A) (A) (A) (A) (A) (A) (A)
                 (A) (A) (A) (A) (A) (A) (A) (A) (A) (A) (A) (A)
                 (A) (A) (A) (A) (A) (A) (A) (A) (A) (A) (A) (A)
                 (A) (A) (A) (A) (A) (A) (A) (A) (A) (A) (A) (A)
                 (A) (A) (A) (A)
 The electronic state is 1-A.
 Alpha  occ. eigenvalues --  -25.20764 -25.20703 -19.68128 -19.68125 -15.01600
 Alpha  occ. eigenvalues --  -14.79201 -14.79002 -14.77640 -10.62299 -10.62095
 Alpha  occ. eigenvalues --  -10.61265 -10.61127 -10.60113 -10.60091 -10.59639
 Alpha  occ. eigenvalues --  -10.59637 -10.59579 -10.58796 -10.58618 -10.58380
 Alpha  occ. eigenvalues --  -10.58377 -10.58051 -10.57712 -10.57710 -10.57480
 Alpha  occ. eigenvalues --  -10.57469 -10.56808 -10.55438 -10.55424 -10.55383
 Alpha  occ. eigenvalues --  -10.55082 -10.54622 -10.54591 -10.54588 -10.54415
 Alpha  occ. eigenvalues --  -10.54367 -10.52970 -10.52967  -7.13639  -7.11554
 Alpha  occ. eigenvalues --   -7.11299  -5.10929  -5.10658  -5.09853  -5.09829
 Alpha  occ. eigenvalues --   -5.09597  -5.09591  -2.07778  -2.07510  -2.07315
 Alpha  occ. eigenvalues --   -2.07302  -2.07050  -2.07041  -2.06408  -2.06407
 Alpha  occ. eigenvalues --   -2.06164  -2.06163  -1.37146  -1.32666  -1.29429
 Alpha  occ. eigenvalues --   -1.18675  -1.11538  -1.09699  -1.06623  -1.01374
 Alpha  occ. eigenvalues --   -0.96593  -0.95912  -0.92767  -0.92039  -0.91402
 Alpha  occ. eigenvalues --   -0.90195  -0.88077  -0.87359  -0.87305  -0.85658
 Alpha  occ. eigenvalues --   -0.84723  -0.83375  -0.81959  -0.81589  -0.80244
 Alpha  occ. eigenvalues --   -0.79795  -0.78931  -0.77578  -0.74631  -0.72951
 Alpha  occ. eigenvalues --   -0.72899  -0.71959  -0.69626  -0.69329  -0.67900
 Alpha  occ. eigenvalues --   -0.67389  -0.66343  -0.65776  -0.65562  -0.64813
 Alpha  occ. eigenvalues --   -0.63597  -0.62189  -0.62092  -0.60738  -0.60398
 Alpha  occ. eigenvalues --   -0.59313  -0.58782  -0.58409  -0.57326  -0.56183
 Alpha  occ. eigenvalues --   -0.56025  -0.55175  -0.54364  -0.53701  -0.53674
 Alpha  occ. eigenvalues --   -0.53278  -0.52777  -0.52307  -0.52105  -0.51720
 Alpha  occ. eigenvalues --   -0.51029  -0.50863  -0.50675  -0.50042  -0.49582
 Alpha  occ. eigenvalues --   -0.49212  -0.48830  -0.48685  -0.48186  -0.47909
 Alpha  occ. eigenvalues --   -0.47631  -0.47540  -0.47085  -0.46729  -0.46143
 Alpha  occ. eigenvalues --   -0.45959  -0.45838  -0.45204  -0.44983  -0.44792
 Alpha  occ. eigenvalues --   -0.44434  -0.44131  -0.43993  -0.43202  -0.42899
 Alpha  occ. eigenvalues --   -0.42806  -0.41853  -0.41565  -0.41303  -0.41273
 Alpha  occ. eigenvalues --   -0.40465  -0.40065  -0.39907  -0.39738  -0.38868
 Alpha  occ. eigenvalues --   -0.37938  -0.36589  -0.35656  -0.34247  -0.34206
 Alpha  occ. eigenvalues --   -0.33043  -0.32833  -0.32383  -0.31949  -0.30247
 Alpha  occ. eigenvalues --   -0.29817  -0.26747  -0.23104
 Alpha virt. eigenvalues --   -0.09741  -0.07588  -0.02476  -0.01212   0.00032
 Alpha virt. eigenvalues --    0.00737   0.01401   0.01879   0.04702   0.05207
 Alpha virt. eigenvalues --    0.05423   0.06779   0.07190   0.07466   0.08206
 Alpha virt. eigenvalues --    0.08524   0.08813   0.09254   0.09520   0.09724
 Alpha virt. eigenvalues --    0.09978   0.10183   0.10270   0.10809   0.11132
 Alpha virt. eigenvalues --    0.11304   0.11533   0.12262   0.12898   0.13080
 Alpha virt. eigenvalues --    0.13303   0.13393   0.14026   0.14272   0.14531
 Alpha virt. eigenvalues --    0.14661   0.14915   0.15346   0.15454   0.15763
 Alpha virt. eigenvalues --    0.16022   0.16155   0.16336   0.16424   0.16565
 Alpha virt. eigenvalues --    0.16636   0.16965   0.17233   0.17335   0.17514
 Alpha virt. eigenvalues --    0.17725   0.18095   0.18493   0.18731   0.18885
 Alpha virt. eigenvalues --    0.19054   0.19297   0.19397   0.19735   0.19992
 Alpha virt. eigenvalues --    0.20213   0.20299   0.20372   0.20932   0.21085
 Alpha virt. eigenvalues --    0.21523   0.21951   0.22494   0.22632   0.22762
 Alpha virt. eigenvalues --    0.23118   0.23175   0.23304   0.23657   0.23745
 Alpha virt. eigenvalues --    0.24014   0.24134   0.24233   0.24661   0.25041
 Alpha virt. eigenvalues --    0.25361   0.25542   0.25852   0.26268   0.26686
 Alpha virt. eigenvalues --    0.27006   0.27367   0.27633   0.27718   0.28034
 Alpha virt. eigenvalues --    0.28283   0.28442   0.28879   0.29043   0.29567
 Alpha virt. eigenvalues --    0.29616   0.30004   0.30308   0.30369   0.30623
 Alpha virt. eigenvalues --    0.30881   0.30971   0.31273   0.31326   0.31720
 Alpha virt. eigenvalues --    0.31811   0.32024   0.32159   0.32600   0.33094
 Alpha virt. eigenvalues --    0.33209   0.33536   0.33817   0.33962   0.34349
 Alpha virt. eigenvalues --    0.34626   0.34663   0.35057   0.35258   0.35423
 Alpha virt. eigenvalues --    0.35550   0.35685   0.36350   0.36471   0.36825
 Alpha virt. eigenvalues --    0.36989   0.37221   0.37529   0.37769   0.37869
 Alpha virt. eigenvalues --    0.38151   0.38602   0.39270   0.39296   0.39345
 Alpha virt. eigenvalues --    0.39832   0.40054   0.40528   0.40726   0.40938
 Alpha virt. eigenvalues --    0.41017   0.41215   0.41685   0.41891   0.42261
 Alpha virt. eigenvalues --    0.42444   0.42586   0.42869   0.43094   0.43327
 Alpha virt. eigenvalues --    0.43730   0.43807   0.43999   0.44327   0.44645
 Alpha virt. eigenvalues --    0.44898   0.44946   0.45617   0.45707   0.45780
 Alpha virt. eigenvalues --    0.46017   0.46066   0.46360   0.46664   0.46885
 Alpha virt. eigenvalues --    0.47017   0.47099   0.47307   0.47585   0.47858
 Alpha virt. eigenvalues --    0.48010   0.48399   0.48555   0.48946   0.48982
 Alpha virt. eigenvalues --    0.49144   0.49690   0.49758   0.49827   0.49991
 Alpha virt. eigenvalues --    0.50430   0.50560   0.50820   0.50976   0.51117
 Alpha virt. eigenvalues --    0.51326   0.51688   0.52058   0.52164   0.52300
 Alpha virt. eigenvalues --    0.52530   0.52867   0.53014   0.53114   0.53426
 Alpha virt. eigenvalues --    0.53689   0.53993   0.54101   0.54339   0.54561
 Alpha virt. eigenvalues --    0.54938   0.55173   0.55524   0.55770   0.56084
 Alpha virt. eigenvalues --    0.56405   0.56691   0.57124   0.57348   0.57453
 Alpha virt. eigenvalues --    0.57766   0.58283   0.58691   0.58796   0.59154
 Alpha virt. eigenvalues --    0.59343   0.59769   0.59861   0.60495   0.61069
 Alpha virt. eigenvalues --    0.61282   0.61349   0.61567   0.62026   0.62164
 Alpha virt. eigenvalues --    0.62464   0.62704   0.62937   0.63413   0.63591
 Alpha virt. eigenvalues --    0.63923   0.64528   0.64799   0.64996   0.65301
 Alpha virt. eigenvalues --    0.65557   0.65662   0.66076   0.66310   0.66705
 Alpha virt. eigenvalues --    0.67186   0.67411   0.67544   0.67692   0.67851
 Alpha virt. eigenvalues --    0.68138   0.68248   0.69003   0.69185   0.69311
 Alpha virt. eigenvalues --    0.69660   0.69987   0.70264   0.70374   0.70750
 Alpha virt. eigenvalues --    0.71082   0.71707   0.72101   0.72326   0.72564
 Alpha virt. eigenvalues --    0.72886   0.73299   0.73528   0.74013   0.74162
 Alpha virt. eigenvalues --    0.74377   0.74586   0.74883   0.75143   0.75175
 Alpha virt. eigenvalues --    0.75602   0.75837   0.76000   0.76397   0.76697
 Alpha virt. eigenvalues --    0.77006   0.77266   0.77334   0.77948   0.78432
 Alpha virt. eigenvalues --    0.78785   0.79135   0.79422   0.79651   0.79943
 Alpha virt. eigenvalues --    0.80115   0.80602   0.81019   0.81305   0.81761
 Alpha virt. eigenvalues --    0.82168   0.82438   0.82847   0.83178   0.83416
 Alpha virt. eigenvalues --    0.84080   0.84601   0.85041   0.85320   0.85403
 Alpha virt. eigenvalues --    0.85669   0.86366   0.86787   0.87282   0.87589
 Alpha virt. eigenvalues --    0.87751   0.88310   0.88509   0.88539   0.88699
 Alpha virt. eigenvalues --    0.89389   0.89523   0.89763   0.89854   0.90170
 Alpha virt. eigenvalues --    0.90675   0.90902   0.91533   0.91571   0.91776
 Alpha virt. eigenvalues --    0.92035   0.92384   0.92661   0.92716   0.93018
 Alpha virt. eigenvalues --    0.93152   0.93532   0.93772   0.93870   0.94285
 Alpha virt. eigenvalues --    0.94528   0.94991   0.95446   0.95697   0.95745
 Alpha virt. eigenvalues --    0.95938   0.96726   0.97178   0.97427   0.97888
 Alpha virt. eigenvalues --    0.98076   0.98259   0.98475   0.98774   0.99588
 Alpha virt. eigenvalues --    0.99668   0.99754   1.00187   1.00583   1.00965
 Alpha virt. eigenvalues --    1.01003   1.01302   1.01568   1.01775   1.01932
 Alpha virt. eigenvalues --    1.02563   1.02861   1.03297   1.03575   1.03587
 Alpha virt. eigenvalues --    1.03891   1.04359   1.04435   1.04646   1.05092
 Alpha virt. eigenvalues --    1.05401   1.05589   1.06046   1.06074   1.06435
 Alpha virt. eigenvalues --    1.06783   1.07155   1.07325   1.08448   1.08473
 Alpha virt. eigenvalues --    1.08870   1.09207   1.09479   1.09685   1.09960
 Alpha virt. eigenvalues --    1.10468   1.10640   1.10897   1.11272   1.11638
 Alpha virt. eigenvalues --    1.11961   1.12153   1.12435   1.12857   1.13162
 Alpha virt. eigenvalues --    1.13536   1.13918   1.14096   1.14345   1.14634
 Alpha virt. eigenvalues --    1.14947   1.15483   1.15796   1.16110   1.16544
 Alpha virt. eigenvalues --    1.16960   1.17367   1.17618   1.17987   1.18385
 Alpha virt. eigenvalues --    1.18552   1.19114   1.19352   1.19439   1.19586
 Alpha virt. eigenvalues --    1.19693   1.20428   1.20734   1.20925   1.21600
 Alpha virt. eigenvalues --    1.21744   1.22057   1.22259   1.22592   1.22895
 Alpha virt. eigenvalues --    1.23086   1.23372   1.23541   1.24187   1.24315
 Alpha virt. eigenvalues --    1.24997   1.25313   1.25378   1.25895   1.26275
 Alpha virt. eigenvalues --    1.26765   1.27264   1.27573   1.27990   1.28407
 Alpha virt. eigenvalues --    1.28961   1.29128   1.29648   1.29732   1.29958
 Alpha virt. eigenvalues --    1.30435   1.30631   1.31071   1.31226   1.31614
 Alpha virt. eigenvalues --    1.32002   1.32671   1.32692   1.33097   1.33299
 Alpha virt. eigenvalues --    1.33537   1.33821   1.34257   1.34379   1.34941
 Alpha virt. eigenvalues --    1.35288   1.35589   1.35941   1.36714   1.37034
 Alpha virt. eigenvalues --    1.37243   1.37632   1.37816   1.38243   1.38737
 Alpha virt. eigenvalues --    1.39164   1.39314   1.40157   1.40254   1.40765
 Alpha virt. eigenvalues --    1.41056   1.41346   1.41661   1.42177   1.42492
 Alpha virt. eigenvalues --    1.42934   1.43093   1.43328   1.43761   1.43956
 Alpha virt. eigenvalues --    1.44455   1.44600   1.45200   1.45354   1.45783
 Alpha virt. eigenvalues --    1.45830   1.46129   1.46515   1.47175   1.47252
 Alpha virt. eigenvalues --    1.47543   1.47981   1.48219   1.48434   1.48685
 Alpha virt. eigenvalues --    1.49020   1.49639   1.49703   1.50219   1.50352
 Alpha virt. eigenvalues --    1.50625   1.51093   1.51580   1.51906   1.52065
 Alpha virt. eigenvalues --    1.52186   1.52502   1.52673   1.52818   1.53118
 Alpha virt. eigenvalues --    1.53298   1.53556   1.54030   1.54213   1.54442
 Alpha virt. eigenvalues --    1.54677   1.54836   1.55156   1.55239   1.55503
 Alpha virt. eigenvalues --    1.56036   1.56231   1.56755   1.57194   1.57599
 Alpha virt. eigenvalues --    1.57876   1.58018   1.58167   1.58500   1.58802
 Alpha virt. eigenvalues --    1.58840   1.59212   1.59920   1.59931   1.60358
 Alpha virt. eigenvalues --    1.60574   1.60880   1.61101   1.61583   1.62113
 Alpha virt. eigenvalues --    1.62512   1.62649   1.62856   1.63388   1.63657
 Alpha virt. eigenvalues --    1.63858   1.63957   1.64676   1.64847   1.65138
 Alpha virt. eigenvalues --    1.65344   1.65691   1.65875   1.66551   1.66783
 Alpha virt. eigenvalues --    1.66880   1.67186   1.67651   1.67905   1.68092
 Alpha virt. eigenvalues --    1.68160   1.69081   1.69346   1.69715   1.70249
 Alpha virt. eigenvalues --    1.70451   1.70845   1.71071   1.71607   1.72187
 Alpha virt. eigenvalues --    1.72427   1.73113   1.73774   1.73874   1.74092
 Alpha virt. eigenvalues --    1.75608   1.75820   1.75973   1.76215   1.77091
 Alpha virt. eigenvalues --    1.78150   1.78631   1.79284   1.79923   1.80007
 Alpha virt. eigenvalues --    1.80476   1.80734   1.80979   1.81522   1.82110
 Alpha virt. eigenvalues --    1.82521   1.83119   1.83565   1.83680   1.84703
 Alpha virt. eigenvalues --    1.85159   1.85582   1.85904   1.87370   1.87455
 Alpha virt. eigenvalues --    1.87759   1.88220   1.89305   1.89462   1.89972
 Alpha virt. eigenvalues --    1.90529   1.90900   1.91650   1.91901   1.92348
 Alpha virt. eigenvalues --    1.93215   1.94336   1.94533   1.95493   1.96372
 Alpha virt. eigenvalues --    1.96889   1.97422   1.97594   1.97890   1.98687
 Alpha virt. eigenvalues --    1.99265   1.99530   2.00378   2.00607   2.01246
 Alpha virt. eigenvalues --    2.01590   2.01933   2.03436   2.03704   2.04008
 Alpha virt. eigenvalues --    2.04958   2.05417   2.05575   2.06004   2.06605
 Alpha virt. eigenvalues --    2.07001   2.07883   2.08542   2.08762   2.09048
 Alpha virt. eigenvalues --    2.09062   2.10057   2.10732   2.11048   2.11423
 Alpha virt. eigenvalues --    2.12317   2.12623   2.12867   2.13299   2.13767
 Alpha virt. eigenvalues --    2.13948   2.14174   2.16055   2.16457   2.16964
 Alpha virt. eigenvalues --    2.17111   2.17515   2.17755   2.18294   2.19239
 Alpha virt. eigenvalues --    2.19880   2.19961   2.21100   2.22115   2.22673
 Alpha virt. eigenvalues --    2.23244   2.24005   2.24128   2.24312   2.24751
 Alpha virt. eigenvalues --    2.25226   2.25943   2.26361   2.26966   2.27773
 Alpha virt. eigenvalues --    2.28040   2.29372   2.30169   2.30671   2.31177
 Alpha virt. eigenvalues --    2.31698   2.32043   2.32370   2.32758   2.33350
 Alpha virt. eigenvalues --    2.34943   2.35184   2.35423   2.36779   2.37096
 Alpha virt. eigenvalues --    2.37432   2.37691   2.38154   2.38167   2.39247
 Alpha virt. eigenvalues --    2.40193   2.40572   2.41559   2.43037   2.43781
 Alpha virt. eigenvalues --    2.43861   2.44326   2.45022   2.45591   2.45875
 Alpha virt. eigenvalues --    2.46482   2.47442   2.47967   2.48872   2.49328
 Alpha virt. eigenvalues --    2.49788   2.50895   2.51413   2.52145   2.52887
 Alpha virt. eigenvalues --    2.53415   2.53864   2.54276   2.54602   2.55666
 Alpha virt. eigenvalues --    2.55735   2.55827   2.56703   2.57103   2.57713
 Alpha virt. eigenvalues --    2.58132   2.59134   2.59902   2.60144   2.61100
 Alpha virt. eigenvalues --    2.62303   2.62599   2.62989   2.63150   2.63583
 Alpha virt. eigenvalues --    2.63826   2.64206   2.64630   2.65010   2.65983
 Alpha virt. eigenvalues --    2.66192   2.67307   2.67935   2.68142   2.68459
 Alpha virt. eigenvalues --    2.68845   2.69146   2.69447   2.69906   2.70366
 Alpha virt. eigenvalues --    2.71165   2.71280   2.71822   2.72165   2.72338
 Alpha virt. eigenvalues --    2.72795   2.72971   2.73426   2.73680   2.73929
 Alpha virt. eigenvalues --    2.74307   2.74532   2.75225   2.75353   2.75838
 Alpha virt. eigenvalues --    2.76154   2.76838   2.77217   2.77562   2.77765
 Alpha virt. eigenvalues --    2.78176   2.78460   2.79378   2.79588   2.79998
 Alpha virt. eigenvalues --    2.80158   2.80921   2.81102   2.81535   2.81692
 Alpha virt. eigenvalues --    2.82413   2.82706   2.82799   2.83337   2.83566
 Alpha virt. eigenvalues --    2.84274   2.84514   2.85122   2.85204   2.85697
 Alpha virt. eigenvalues --    2.85810   2.86141   2.86464   2.86743   2.86836
 Alpha virt. eigenvalues --    2.87178   2.87376   2.87494   2.87628   2.88376
 Alpha virt. eigenvalues --    2.89047   2.89476   2.89833   2.90203   2.90535
 Alpha virt. eigenvalues --    2.91029   2.91204   2.91657   2.91901   2.92288
 Alpha virt. eigenvalues --    2.92557   2.92869   2.93067   2.93409   2.93478
 Alpha virt. eigenvalues --    2.93831   2.94325   2.94389   2.94517   2.95021
 Alpha virt. eigenvalues --    2.95203   2.95608   2.96109   2.97142   2.97595
 Alpha virt. eigenvalues --    2.97749   2.98115   2.98357   2.98454   2.98960
 Alpha virt. eigenvalues --    2.99341   2.99568   2.99821   3.00211   3.00515
 Alpha virt. eigenvalues --    3.00981   3.01409   3.01508   3.02106   3.02404
 Alpha virt. eigenvalues --    3.02695   3.02972   3.03444   3.03891   3.04054
 Alpha virt. eigenvalues --    3.04492   3.04605   3.05094   3.05337   3.05593
 Alpha virt. eigenvalues --    3.05776   3.05939   3.06102   3.06627   3.06917
 Alpha virt. eigenvalues --    3.07465   3.07977   3.08497   3.08655   3.08730
 Alpha virt. eigenvalues --    3.08945   3.09242   3.09474   3.09622   3.10245
 Alpha virt. eigenvalues --    3.10375   3.10579   3.10823   3.10951   3.11104
 Alpha virt. eigenvalues --    3.11375   3.11878   3.12104   3.12372   3.12697
 Alpha virt. eigenvalues --    3.13106   3.13287   3.13586   3.13921   3.14242
 Alpha virt. eigenvalues --    3.14673   3.15110   3.15454   3.15542   3.15745
 Alpha virt. eigenvalues --    3.16110   3.16278   3.16474   3.16678   3.17002
 Alpha virt. eigenvalues --    3.17464   3.17584   3.17816   3.18383   3.18468
 Alpha virt. eigenvalues --    3.18726   3.18832   3.19134   3.19513   3.19659
 Alpha virt. eigenvalues --    3.20188   3.20553   3.20810   3.21012   3.21237
 Alpha virt. eigenvalues --    3.21447   3.21539   3.21826   3.22093   3.22602
 Alpha virt. eigenvalues --    3.22767   3.23011   3.23045   3.23452   3.23892
 Alpha virt. eigenvalues --    3.23942   3.24693   3.24890   3.25192   3.25565
 Alpha virt. eigenvalues --    3.25734   3.26015   3.26111   3.26284   3.26799
 Alpha virt. eigenvalues --    3.26935   3.27509   3.27625   3.28272   3.28554
 Alpha virt. eigenvalues --    3.28672   3.28992   3.29334   3.29957   3.30066
 Alpha virt. eigenvalues --    3.30403   3.30815   3.31129   3.31589   3.31964
 Alpha virt. eigenvalues --    3.32359   3.32621   3.32634   3.33027   3.33300
 Alpha virt. eigenvalues --    3.33309   3.34003   3.34114   3.34307   3.34836
 Alpha virt. eigenvalues --    3.35117   3.35622   3.35700   3.35759   3.35973
 Alpha virt. eigenvalues --    3.36439   3.37089   3.37427   3.38369   3.38406
 Alpha virt. eigenvalues --    3.38589   3.39046   3.39507   3.39599   3.40126
 Alpha virt. eigenvalues --    3.40365   3.40427   3.40671   3.41371   3.41576
 Alpha virt. eigenvalues --    3.42242   3.42303   3.42721   3.42853   3.43795
 Alpha virt. eigenvalues --    3.44051   3.45098   3.45448   3.45728   3.46085
 Alpha virt. eigenvalues --    3.46485   3.46766   3.47055   3.47453   3.47616
 Alpha virt. eigenvalues --    3.47780   3.48278   3.48401   3.49228   3.49354
 Alpha virt. eigenvalues --    3.49453   3.49898   3.50192   3.50604   3.51015
 Alpha virt. eigenvalues --    3.51219   3.51597   3.51958   3.52197   3.52453
 Alpha virt. eigenvalues --    3.52776   3.52906   3.53375   3.53826   3.53994
 Alpha virt. eigenvalues --    3.54362   3.54639   3.54863   3.55255   3.55427
 Alpha virt. eigenvalues --    3.55580   3.56045   3.56514   3.56672   3.56923
 Alpha virt. eigenvalues --    3.57631   3.58092   3.58340   3.58575   3.59018
 Alpha virt. eigenvalues --    3.59143   3.59334   3.59814   3.60248   3.60471
 Alpha virt. eigenvalues --    3.60937   3.61460   3.61920   3.62816   3.62954
 Alpha virt. eigenvalues --    3.63345   3.63929   3.64330   3.64393   3.64701
 Alpha virt. eigenvalues --    3.65200   3.65331   3.65731   3.66138   3.66469
 Alpha virt. eigenvalues --    3.66706   3.66971   3.67533   3.68506   3.68809
 Alpha virt. eigenvalues --    3.69106   3.69531   3.69978   3.70451   3.71004
 Alpha virt. eigenvalues --    3.71309   3.71468   3.71928   3.72068   3.72423
 Alpha virt. eigenvalues --    3.73247   3.73633   3.73760   3.74150   3.74830
 Alpha virt. eigenvalues --    3.75220   3.76069   3.76437   3.76675   3.77040
 Alpha virt. eigenvalues --    3.77788   3.78127   3.78565   3.78672   3.79494
 Alpha virt. eigenvalues --    3.79772   3.80334   3.80645   3.81013   3.81296
 Alpha virt. eigenvalues --    3.81905   3.82001   3.83066   3.83858   3.83992
 Alpha virt. eigenvalues --    3.85096   3.85522   3.85914   3.86160   3.86356
 Alpha virt. eigenvalues --    3.86539   3.86838   3.87604   3.87740   3.88218
 Alpha virt. eigenvalues --    3.88501   3.88899   3.89306   3.89429   3.89583
 Alpha virt. eigenvalues --    3.90154   3.90202   3.90777   3.90957   3.91363
 Alpha virt. eigenvalues --    3.91593   3.91951   3.92469   3.92794   3.93332
 Alpha virt. eigenvalues --    3.93533   3.94199   3.94547   3.94870   3.95069
 Alpha virt. eigenvalues --    3.95384   3.95891   3.96433   3.96792   3.97010
 Alpha virt. eigenvalues --    3.97705   3.98319   3.99091   3.99371   3.99621
 Alpha virt. eigenvalues --    4.00222   4.00574   4.01062   4.01098   4.01286
 Alpha virt. eigenvalues --    4.01605   4.01725   4.02221   4.02362   4.02683
 Alpha virt. eigenvalues --    4.03167   4.03451   4.03649   4.03853   4.04293
 Alpha virt. eigenvalues --    4.04818   4.05178   4.05392   4.05589   4.05638
 Alpha virt. eigenvalues --    4.05722   4.06134   4.06610   4.06851   4.07393
 Alpha virt. eigenvalues --    4.07835   4.08136   4.08299   4.08444   4.09464
 Alpha virt. eigenvalues --    4.09904   4.10201   4.10738   4.11352   4.11717
 Alpha virt. eigenvalues --    4.12181   4.12509   4.13145   4.13385   4.13579
 Alpha virt. eigenvalues --    4.14029   4.14659   4.15237   4.15387   4.15645
 Alpha virt. eigenvalues --    4.16054   4.16638   4.16924   4.17063   4.17300
 Alpha virt. eigenvalues --    4.17534   4.17943   4.18250   4.18488   4.18867
 Alpha virt. eigenvalues --    4.19465   4.19875   4.20045   4.20546   4.20844
 Alpha virt. eigenvalues --    4.21406   4.21939   4.22187   4.22584   4.23157
 Alpha virt. eigenvalues --    4.23318   4.23711   4.24610   4.24989   4.25151
 Alpha virt. eigenvalues --    4.25483   4.25838   4.26237   4.26306   4.26467
 Alpha virt. eigenvalues --    4.27229   4.27724   4.28225   4.28509   4.28944
 Alpha virt. eigenvalues --    4.29274   4.29391   4.29431   4.30403   4.30897
 Alpha virt. eigenvalues --    4.31125   4.31333   4.31794   4.32472   4.33026
 Alpha virt. eigenvalues --    4.33524   4.33713   4.34835   4.35757   4.35935
 Alpha virt. eigenvalues --    4.36831   4.37261   4.38152   4.38526   4.40162
 Alpha virt. eigenvalues --    4.40682   4.40915   4.41855   4.42105   4.42711
 Alpha virt. eigenvalues --    4.43419   4.43515   4.43915   4.44659   4.45158
 Alpha virt. eigenvalues --    4.46227   4.47329   4.48351   4.48528   4.49116
 Alpha virt. eigenvalues --    4.49317   4.49558   4.50152   4.51230   4.51362
 Alpha virt. eigenvalues --    4.52334   4.52979   4.53084   4.53300   4.54175
 Alpha virt. eigenvalues --    4.54746   4.55368   4.56019   4.56763   4.56878
 Alpha virt. eigenvalues --    4.57419   4.58296   4.58559   4.59230   4.59639
 Alpha virt. eigenvalues --    4.59973   4.60891   4.61520   4.61752   4.62254
 Alpha virt. eigenvalues --    4.62762   4.63160   4.63459   4.63900   4.64493
 Alpha virt. eigenvalues --    4.64820   4.65479   4.65881   4.66740   4.67472
 Alpha virt. eigenvalues --    4.68670   4.68865   4.69705   4.70199   4.70875
 Alpha virt. eigenvalues --    4.71405   4.71454   4.72059   4.72945   4.73727
 Alpha virt. eigenvalues --    4.74034   4.75496   4.76001   4.76211   4.76894
 Alpha virt. eigenvalues --    4.77450   4.78195   4.78369   4.79598   4.79846
 Alpha virt. eigenvalues --    4.79979   4.80295   4.80780   4.81770   4.82079
 Alpha virt. eigenvalues --    4.82565   4.83178   4.84059   4.85018   4.86031
 Alpha virt. eigenvalues --    4.86223   4.87997   4.88232   4.88561   4.89378
 Alpha virt. eigenvalues --    4.89996   4.90399   4.91034   4.91694   4.92111
 Alpha virt. eigenvalues --    4.92562   4.93094   4.93479   4.94188   4.94500
 Alpha virt. eigenvalues --    4.95085   4.95871   4.95966   4.96412   4.96761
 Alpha virt. eigenvalues --    4.97516   4.97731   4.98653   5.00139   5.00952
 Alpha virt. eigenvalues --    5.01335   5.02850   5.03742   5.04463   5.04724
 Alpha virt. eigenvalues --    5.05526   5.05694   5.06647   5.06871   5.07524
 Alpha virt. eigenvalues --    5.07592   5.08182   5.08622   5.10015   5.11009
 Alpha virt. eigenvalues --    5.11315   5.12350   5.12670   5.13159   5.13833
 Alpha virt. eigenvalues --    5.13942   5.14300   5.14572   5.15027   5.16568
 Alpha virt. eigenvalues --    5.17083   5.17953   5.18455   5.19853   5.19986
 Alpha virt. eigenvalues --    5.20850   5.21352   5.22156   5.22466   5.22680
 Alpha virt. eigenvalues --    5.23477   5.24136   5.24281   5.25018   5.25081
 Alpha virt. eigenvalues --    5.25824   5.26442   5.27602   5.27837   5.27971
 Alpha virt. eigenvalues --    5.28729   5.28916   5.29075   5.29532   5.29709
 Alpha virt. eigenvalues --    5.30184   5.30277   5.30952   5.31280   5.31899
 Alpha virt. eigenvalues --    5.32946   5.33528   5.33844   5.34451   5.35130
 Alpha virt. eigenvalues --    5.35368   5.36461   5.36557   5.36674   5.37423
 Alpha virt. eigenvalues --    5.38084   5.38351   5.39250   5.39680   5.39977
 Alpha virt. eigenvalues --    5.41258   5.41610   5.42017   5.42757   5.43151
 Alpha virt. eigenvalues --    5.43715   5.44610   5.45490   5.45936   5.46227
 Alpha virt. eigenvalues --    5.46887   5.48195   5.49680   5.49966   5.50182
 Alpha virt. eigenvalues --    5.50600   5.53032   5.54364   5.55003   5.55571
 Alpha virt. eigenvalues --    5.56331   5.56691   5.56940   5.57660   5.57813
 Alpha virt. eigenvalues --    5.58326   5.59717   5.60100   5.60784   5.61230
 Alpha virt. eigenvalues --    5.61404   5.61737   5.62277   5.63145   5.63282
 Alpha virt. eigenvalues --    5.65293   5.65516   5.66422   5.67362   5.67401
 Alpha virt. eigenvalues --    5.68327   5.69780   5.70760   5.72420   5.73016
 Alpha virt. eigenvalues --    5.74224   5.77583   5.79617   5.81036   5.82077
 Alpha virt. eigenvalues --    5.83487   5.84630   5.89285   5.89591   5.90330
 Alpha virt. eigenvalues --    5.90700   5.91828   5.94593   5.99107   6.00685
 Alpha virt. eigenvalues --    6.05688   6.06819   6.08768   6.14736   6.17830
 Alpha virt. eigenvalues --    6.19164   6.22190   6.25345   6.25832   6.28105
 Alpha virt. eigenvalues --    6.36327   6.38532   6.40756   6.43137   6.64996
 Alpha virt. eigenvalues --    6.75415   6.80755   6.83118   6.87449   6.93806
 Alpha virt. eigenvalues --    6.94339   6.96949   6.98457   6.98788   6.99686
 Alpha virt. eigenvalues --    7.04964   7.08383   7.11322   7.17110   7.20748
 Alpha virt. eigenvalues --    7.22047   7.23861   7.26543   7.33162   7.33655
 Alpha virt. eigenvalues --    7.34469   7.45222   7.50755   8.44847   8.46503
 Alpha virt. eigenvalues --    8.56382   8.58777   8.81933   8.87227   8.90576
 Alpha virt. eigenvalues --    8.91494   8.91668   8.99790  15.86233  22.71740
 Alpha virt. eigenvalues --   22.75487  22.94687  22.98119  23.04364  23.08326
 Alpha virt. eigenvalues --   23.14514  23.17059  23.18445  23.20045  23.27432
 Alpha virt. eigenvalues --   23.29747  23.29868  23.31794  23.34583  23.36116
 Alpha virt. eigenvalues --   23.39270  23.40818  23.46460  23.50073  23.58708
 Alpha virt. eigenvalues --   23.60113  23.66264  23.70217  23.73402  23.76015
 Alpha virt. eigenvalues --   23.78993  23.83169  24.09614  24.15770  32.59587
 Alpha virt. eigenvalues --   33.10570  33.27068  33.30832  34.47711  34.48452
 Alpha virt. eigenvalues --   34.59176  34.61779  34.88932  34.89595  42.91023
 Alpha virt. eigenvalues --   42.92358  44.20545  44.24985  57.34963  57.56134
 Alpha virt. eigenvalues --  117.58947 117.59123
          Condensed to atoms (all electrons):
 Mulliken charges:
               1
     1  C   -0.323115
     2  C   -0.188821
     3  N   -0.137206
     4  C   -0.188510
     5  C   -0.322414
     6  C    0.166593
     7  C   -0.187746
     8  C   -0.172688
     9  C   -0.028922
    10  C   -0.050737
    11  C   -0.176867
    12  C    0.088279
    13  N   -0.083931
    14  C    0.105132
    15  C    0.146502
    16  C   -0.284607
    17  C   -0.161039
    18  C   -0.040651
    19  C   -0.026828
    20  N    0.493846
    21  O   -0.365835
    22  O   -0.365784
    23  C   -0.046534
    24  C   -0.146855
    25  C    0.086576
    26  C    0.039796
    27  C   -0.420409
    28  C   -0.024909
    29  I   -0.067052
    30  C    0.083111
    31  C   -0.411637
    32  N   -0.084238
    33  B    0.358538
    34  F   -0.353927
    35  F   -0.339726
    36  C    0.020128
    37  C   -0.426825
    38  C   -0.040298
    39  I   -0.047681
    40  C   -0.152896
    41  C   -0.189273
    42  H    0.121520
    43  H    0.130933
    44  H    0.119047
    45  H    0.133945
    46  H    0.134428
    47  H    0.134608
    48  H    0.134447
    49  H    0.121337
    50  H    0.118924
    51  H    0.130895
    52  H    0.150611
    53  H    0.146385
    54  H    0.124053
    55  H    0.123784
    56  H    0.183449
    57  H    0.199551
    58  H    0.199212
    59  H    0.180834
    60  H    0.129625
    61  H    0.171574
    62  H    0.160557
    63  H    0.163916
    64  H    0.155391
    65  H    0.136547
    66  H    0.177097
    67  H    0.160943
    68  H    0.134087
    69  H    0.138745
    70  H    0.153015
 Sum of Mulliken charges =  -0.00000
 Mulliken charges with hydrogens summed into heavy atoms:
               1
     1  C    0.048385
     2  C    0.079552
     3  N   -0.137206
     4  C    0.080545
     5  C    0.048742
     6  C    0.166593
     7  C   -0.037135
     8  C   -0.026303
     9  C   -0.028922
    10  C    0.073315
    11  C   -0.053083
    12  C    0.088279
    13  N   -0.083931
    14  C    0.105132
    15  C    0.146502
    16  C   -0.284607
    17  C    0.022410
    18  C    0.158900
    19  C   -0.026828
    20  N    0.493846
    21  O   -0.365835
    22  O   -0.365784
    23  C    0.152678
    24  C    0.033979
    25  C    0.086576
    26  C    0.039796
    27  C    0.041347
    28  C   -0.024909
    29  I   -0.067052
    30  C    0.083111
    31  C    0.044216
    32  N   -0.084238
    33  B    0.358538
    34  F   -0.353927
    35  F   -0.339726
    36  C    0.020128
    37  C    0.045302
    38  C   -0.040298
    39  I   -0.047681
    40  C   -0.014151
    41  C   -0.036258
 Electronic spatial extent (au):  <R**2>=          41395.5673
 Charge=             -0.0000 electrons
 Dipole moment (field-independent basis, Debye):
    X=              8.3469    Y=              0.8189    Z=              0.4233  Tot=              8.3977
 Quadrupole moment (field-independent basis, Debye-Ang):
   XX=           -225.0862   YY=           -285.0764   ZZ=           -283.9199
   XY=            -12.0392   XZ=             -1.2591   YZ=              5.5070
 Traceless Quadrupole moment (field-independent basis, Debye-Ang):
   XX=             39.6079   YY=            -20.3822   ZZ=            -19.2257
   XY=            -12.0392   XZ=             -1.2591   YZ=              5.5070
 Octapole moment (field-independent basis, Debye-Ang**2):
  XXX=           1255.1089  YYY=            165.3795  ZZZ=             11.4369  XYY=            192.0644
  XXY=            453.0003  XXZ=            -38.4965  XZZ=            -79.9894  YZZ=             -4.5122
  YYZ=              5.7328  XYZ=             32.3771
 Hexadecapole moment (field-independent basis, Debye-Ang**3):
 XXXX=         -38227.1664 YYYY=         -13314.3584 ZZZZ=          -1047.0494 XXXY=          -2431.1374
 XXXZ=           -341.6605 YYYX=          -2120.8500 YYYZ=             -6.5572 ZZZX=             21.4625
 ZZZY=            -30.4671 XXYY=         -10469.8966 XXZZ=          -7591.2414 YYZZ=          -2464.0568
 XXYZ=            253.8465 YYXZ=             61.0554 ZZXY=           -396.9878
 N-N= 5.196816845121D+03 E-N=-1.574537999341D+04  KE= 1.972168558000D+03
 No NMR shielding tensors so no spin-rotation constants.
 Leave Link  601 at Sun Oct 12 05:28:00 2025, MaxMem= 30870077440 cpu:             112.3 elap:               2.1
 (Enter /work/home/accqbws0vm/apprepo/gaussian/16-hy/scripts/../app/g16/l9999.exe)
 1\1\GINC-G03R2N33\SP\RM062X\def2TZVPP\C30H29B1F2I2N4O2\ACCQBWS0VM\12-O
 ct-2025\0\\#p M062X/DEF2TZVPP scrf=(solvent=water) em=GD3\\Energy calc
 ulation for M100033539\\0,1\C,0,10.454137,-0.258424,0.147287\C,0,9.870
 691,0.755195,-0.842672\N,0,8.706471,1.506025,-0.354165\C,0,8.96653,2.7
 92702,0.305538\C,0,9.124122,2.72384,1.828116\C,0,7.458617,0.928718,-0.
 316822\C,0,6.336576,1.609159,0.241134\C,0,5.072886,1.049801,0.229071\C
 ,0,4.824682,-0.227965,-0.324715\C,0,3.525576,-0.86232,-0.365085\C,0,2.
 344047,-0.317612,0.041572\C,0,1.05099,-0.943979,-0.000816\N,0,-0.08318
 5,-0.183373,0.00936\C,0,-1.204492,-1.015889,-0.001816\C,0,-2.499307,-0
 .476577,-0.004644\C,0,-3.687268,-1.381344,0.015024\C,0,-4.141732,-1.92
 3339,1.227003\C,0,-5.256018,-2.755282,1.253271\C,0,-5.902879,-3.040993
 ,0.050757\N,0,-7.073709,-3.914145,0.070097\O,0,-7.636266,-4.166306,-0.
 999965\O,0,-7.452966,-4.36407,1.155822\C,0,-5.471982,-2.519323,-1.1692
 47\C,0,-4.361043,-1.682619,-1.178631\C,0,-2.704751,0.920365,-0.026313\
 C,0,-3.896806,1.708044,0.027039\C,0,-5.320135,1.25533,0.129054\C,0,-3.
 459136,3.038008,-0.029426\I,0,-4.668613,4.744091,0.006061\C,0,-2.05063
 3,3.064594,-0.110331\C,0,-1.128333,4.23334,-0.18233\N,0,-1.609147,1.78
 5562,-0.100398\B,0,-0.12086,1.36087,-0.151387\F,0,0.576688,1.983427,0.
 896552\F,0,0.453585,1.735349,-1.373688\C,0,-0.749309,-2.380604,-0.0136
 18\C,0,-1.574294,-3.62922,-0.015264\C,0,0.639112,-2.317019,-0.009335\I
 ,0,1.88253,-3.995459,0.146912\C,0,5.941042,-0.908145,-0.860298\C,0,7.2
 13437,-0.363551,-0.858409\H,0,9.709169,-1.000345,0.450158\H,0,11.28962
 8,-0.789936,-0.321235\H,0,10.829241,0.236583,1.047593\H,0,10.635089,1.
 491413,-1.103725\H,0,9.601618,0.252322,-1.776802\H,0,9.880895,3.195592
 ,-0.137253\H,0,8.168198,3.494162,0.044038\H,0,8.234402,2.303594,2.3066
 79\H,0,9.985649,2.112266,2.111117\H,0,9.277823,3.73246,2.227058\H,0,6.
 459564,2.586459,0.689571\H,0,4.258342,1.617377,0.66923\H,0,3.523922,-1
 .859555,-0.793835\H,0,2.332965,0.704021,0.40382\H,0,-3.623363,-1.68985
 ,2.150691\H,0,-5.617958,-3.175954,2.182665\H,0,-5.996787,-2.76195,-2.0
 84392\H,0,-4.011634,-1.263663,-2.116015\H,0,-5.967318,2.106947,0.34955
 8\H,0,-5.670586,0.804626,-0.805584\H,0,-5.457259,0.512249,0.918295\H,0
 ,-0.632953,4.398423,0.781062\H,0,-0.347733,4.062788,-0.927885\H,0,-1.6
 77919,5.138505,-0.444048\H,0,-2.051301,-3.797948,0.95585\H,0,-2.36723,
 -3.589393,-0.765292\H,0,-0.945485,-4.494639,-0.232177\H,0,5.796749,-1.
 897302,-1.28814\H,0,8.023427,-0.944904,-1.279138\\Version=ES64L-G16Rev
 A.03\State=1-A\HF=-2350.0001598\RMSD=4.179e-09\Dipole=3.2839396,0.3221
 743,0.1665458\Quadrupole=29.4475283,-15.1536869,-14.2938414,-8.9508612
 ,-0.9360877,4.0943087\PG=C01 [X(C30H29B1F2I2N4O2)]\\@


 The theorems and results in mathematical physics are
 not theorems and results about Nature, but about our
 description of it.
                   --Gerard 't Hooft
 Job cpu time:       0 days 15 hours 59 minutes 29.4 seconds.
 Elapsed time:       0 days  0 hours 15 minutes 17.2 seconds.
 File lengths (MBytes):  RWF=   1994 Int=      0 D2E=      0 Chk=    172 Scr=      1
 Normal termination of Gaussian 16 at Sun Oct 12 05:28:00 2025.
