 Entering Gaussian System, Link 0=g16
 Input=M100024781_reduced_sp.gjf
 Output=M100024781_reduced_sp.log
 Initial command:
 /public/software/gauss/g16/l1.exe "/public/home/baiding/1101_v2_sp/tmp_M100024781_reduced_sp_1568608/Gau-4100081.inp" -scrdir="/public/home/baiding/1101_v2_sp/tmp_M100024781_reduced_sp_1568608/"
 Entering Link 1 = /public/software/gauss/g16/l1.exe PID=   4100082.
  
 Copyright (c) 1988,1990,1992,1993,1995,1998,2003,2009,2016,
            Gaussian, Inc.  All Rights Reserved.
  
 This is part of the Gaussian(R) 16 program.  It is based on
 the Gaussian(R) 09 system (copyright 2009, Gaussian, Inc.),
 the Gaussian(R) 03 system (copyright 2003, Gaussian, Inc.),
 the Gaussian(R) 98 system (copyright 1998, Gaussian, Inc.),
 the Gaussian(R) 94 system (copyright 1995, Gaussian, Inc.),
 the Gaussian 92(TM) system (copyright 1992, Gaussian, Inc.),
 the Gaussian 90(TM) system (copyright 1990, Gaussian, Inc.),
 the Gaussian 88(TM) system (copyright 1988, Gaussian, Inc.),
 the Gaussian 86(TM) system (copyright 1986, Carnegie Mellon
 University), and the Gaussian 82(TM) system (copyright 1983,
 Carnegie Mellon University). Gaussian is a federally registered
 trademark of Gaussian, Inc.
  
 This software contains proprietary and confidential information,
 including trade secrets, belonging to Gaussian, Inc.
  
 This software is provided under written license and may be
 used, copied, transmitted, or stored only in accord with that
 written license.
  
 The following legend is applicable only to US Government
 contracts under FAR:
  
                    RESTRICTED RIGHTS LEGEND
  
 Use, reproduction and disclosure by the US Government is
 subject to restrictions as set forth in subparagraphs (a)
 and (c) of the Commercial Computer Software - Restricted
 Rights clause in FAR 52.227-19.
  
 Gaussian, Inc.
 340 Quinnipiac St., Bldg. 40, Wallingford CT 06492
  
  
 ---------------------------------------------------------------
 Warning -- This program may not be used in any manner that
 competes with the business of Gaussian, Inc. or will provide
 assistance to any competitor of Gaussian, Inc.  The licensee
 of this program is prohibited from giving any competitor of
 Gaussian, Inc. access to this program.  By using this program,
 the user acknowledges that Gaussian, Inc. is engaged in the
 business of creating and licensing software in the field of
 computational chemistry and represents and warrants to the
 licensee that it is not a competitor of Gaussian, Inc. and that
 it will not use this program in any manner prohibited above.
 ---------------------------------------------------------------
  

 Cite this work as:
 Gaussian 16, Revision A.03,
 M. J. Frisch, G. W. Trucks, H. B. Schlegel, G. E. Scuseria, 
 M. A. Robb, J. R. Cheeseman, G. Scalmani, V. Barone, 
 G. A. Petersson, H. Nakatsuji, X. Li, M. Caricato, A. V. Marenich, 
 J. Bloino, B. G. Janesko, R. Gomperts, B. Mennucci, H. P. Hratchian, 
 J. V. Ortiz, A. F. Izmaylov, J. L. Sonnenberg, D. Williams-Young, 
 F. Ding, F. Lipparini, F. Egidi, J. Goings, B. Peng, A. Petrone, 
 T. Henderson, D. Ranasinghe, V. G. Zakrzewski, J. Gao, N. Rega, 
 G. Zheng, W. Liang, M. Hada, M. Ehara, K. Toyota, R. Fukuda, 
 J. Hasegawa, M. Ishida, T. Nakajima, Y. Honda, O. Kitao, H. Nakai, 
 T. Vreven, K. Throssell, J. A. Montgomery, Jr., J. E. Peralta, 
 F. Ogliaro, M. J. Bearpark, J. J. Heyd, E. N. Brothers, K. N. Kudin, 
 V. N. Staroverov, T. A. Keith, R. Kobayashi, J. Normand, 
 K. Raghavachari, A. P. Rendell, J. C. Burant, S. S. Iyengar, 
 J. Tomasi, M. Cossi, J. M. Millam, M. Klene, C. Adamo, R. Cammi, 
 J. W. Ochterski, R. L. Martin, K. Morokuma, O. Farkas, 
 J. B. Foresman, and D. J. Fox, Gaussian, Inc., Wallingford CT, 2016.
 
 ******************************************
 Gaussian 16:  ES64L-G16RevA.03 25-Dec-2016
                 5-Nov-2025 
 ******************************************
 %nprocshared=64
 Will use up to   64 processors via shared memory.
 %mem=230GB
 %chk=M100024781_reduced_sp.chk
 ----------------------------------------------
 #p M062X/DEF2TZVPP scrf=(solvent=water) em=GD3
 ----------------------------------------------
 1/38=1,172=1/1;
 2/12=2,17=6,18=5,40=1/2;
 3/5=44,7=202,11=2,25=1,30=1,70=2201,72=1,74=-55,124=31/1,2,3;
 4//1;
 5/5=2,38=5,53=1/2;
 6/7=2,8=2,9=2,10=2,28=1/1;
 99/5=1,9=1/99;
 Leave Link    1 at Wed Nov  5 21:57:03 2025, MaxMem= 30870077440 cpu:              10.4 elap:               0.2
 (Enter /public/software/gauss/g16/l101.exe)
 -----------------------------------------
 Energy calculation for M100024781_reduced
 -----------------------------------------
 Symbolic Z-matrix:
 Charge = -1 Multiplicity = 2
 C                    -3.43844   5.85244  -0.08026 
 C                    -3.31012   4.86523   1.09303 
 C                    -3.34398   3.42168   0.66604 
 C                    -4.48944   2.6223    0.54512 
 C                    -5.86411   3.04646   0.97466 
 C                    -4.05794   1.35642   0.04509 
 C                    -4.79134   0.16482  -0.22237 
 C                    -6.25541   0.19842  -0.26544 
 C                    -7.0369   -0.66372   0.5428 
 C                    -8.41707  -0.62286   0.53433 
 C                    -9.11977   0.2672   -0.32802 
 C                    -10.53532   0.38375  -0.48325 
 C                    -11.667   -0.13549   0.15518 
 C                    -12.91236   0.19253  -0.4576 
 N                    -13.91895   0.47607  -0.98222 
 C                    -11.76052  -0.9134    1.39072 
 O                    -10.84908  -1.19301   2.16558 
 O                    -13.03992  -1.30889   1.64802 
 C                    -8.32557   1.10891  -1.1642 
 C                    -6.94751   1.09319  -1.11766 
 C                    -4.09586  -1.05708  -0.45049 
 C                    -4.55255  -2.30519  -0.97282 
 C                    -5.91823  -2.67261  -1.47721 
 C                    -3.43701  -3.15219  -1.03099 
 C                    -3.44051  -4.59653  -1.45688 
 C                    -3.66227  -5.57672  -0.29165 
 C                    -2.30948  -2.42394  -0.57196 
 C                    -0.99068  -2.99668  -0.49164 
 C                     0.14619  -2.53513   0.0968 
 C                     1.43459  -3.21807   0.11022 
 C                     1.70582  -4.4299   -0.56443 
 C                     2.95335  -5.03379  -0.50096 
 C                     4.00511  -4.44628   0.22849 
 N                     5.28125  -5.06168   0.28554 
 C                     5.8298   -5.68121  -0.87221 
 C                     6.50529  -6.90873  -0.76972 
 C                     7.05118  -7.50753  -1.90422 
 C                     6.91942  -6.90683  -3.15886 
 C                     6.2406   -5.6902   -3.26457 
 C                     5.70649  -5.07468  -2.13331 
 C                     6.02737  -5.04595   1.49797 
 C                     7.40573  -4.77646   1.48284 
 C                     8.1343   -4.77362   2.67165 
 C                     7.50276  -5.02084   3.89316 
 C                     6.12992  -5.28064   3.91147 
 C                     5.39609  -5.30249   2.72628 
 C                     3.75542  -3.23548   0.89665 
 C                     2.49883  -2.64586   0.83996 
 N                    -2.71954  -1.1425   -0.23687 
 B                    -1.80265   0.10175  -0.14099 
 F                    -0.95194   0.10239  -1.26931 
 F                    -1.0145    0.06578   1.03147 
 N                    -2.66981   1.38369  -0.09324 
 C                    -2.22519   2.64682   0.2665 
 C                    -0.88081   3.16291   0.25676 
 C                     0.26017   2.66098  -0.28904 
 C                     1.57656   3.2852   -0.22746 
 C                     1.8798    4.43587   0.53488 
 C                     3.1549    4.98236   0.55033 
 C                     4.19634   4.41025  -0.20587 
 N                     5.49747   4.97295  -0.19004 
 C                     5.6641    6.38638  -0.17807 
 C                     6.63144   6.98228   0.64799 
 C                     6.79762   8.3665    0.64983 
 C                     5.99544   9.18017  -0.1544 
 C                     5.02715   8.59023  -0.9709 
 C                     4.86511   7.20566  -0.99269 
 C                     6.64292   4.12779  -0.1832 
 C                     7.75668   4.4319   -0.98324 
 C                     8.88145   3.60816  -0.96443 
 C                     8.91056   2.46245  -0.16529 
 C                     7.80024   2.15314   0.62464 
 C                     6.6778    2.98005   0.62589 
 C                     3.91242   3.26401  -0.96779 
 C                     2.63594   2.71562  -0.9662 
 H                    -4.37907   5.70094  -0.62041 
 H                    -3.41644   6.88802   0.27633 
 H                    -2.61868   5.72267  -0.79465 
 H                    -2.38517   5.07852   1.63986 
 H                    -4.12388   5.05243   1.8019 
 H                    -5.79429   3.85169   1.71149 
 H                    -6.4782    3.41961   0.14705 
 H                    -6.41745   2.22406   1.43414 
 H                    -6.53143  -1.35367   1.21138 
 H                    -8.97556  -1.27238   1.19278 
 H                    -10.80092   1.02741  -1.31965 
 H                    -13.02469  -1.78593   2.4965 
 H                    -8.82761   1.77756  -1.85819 
 H                    -6.37935   1.75038  -1.76816 
 H                    -6.58918  -3.02612  -0.68592 
 H                    -6.41395  -1.82696  -1.9594 
 H                    -5.84077  -3.47619  -2.2151 
 H                    -4.22737  -4.75198  -2.20276 
 H                    -2.50045  -4.84652  -1.9608 
 H                    -2.87153  -5.47995   0.45971 
 H                    -4.61967  -5.38654   0.20505 
 H                    -3.66616  -6.61263  -0.64794 
 H                    -0.94335  -3.97586  -0.96049 
 H                     0.12372  -1.59108   0.62704 
 H                     0.92716  -4.91714  -1.14304 
 H                     3.12124  -5.97162  -1.01998 
 H                     6.59963  -7.39022   0.19788 
 H                     7.56993  -8.45673  -1.80599 
 H                     7.33998  -7.37951  -4.04095 
 H                     6.13633  -5.20621  -4.23132 
 H                     5.19525  -4.12201  -2.22284 
 H                     7.90137  -4.56895   0.54029 
 H                     9.19937  -4.56286   2.64144 
 H                     8.07217  -5.01144   4.8173 
 H                     5.6257   -5.48242   4.8521 
 H                     4.33349  -5.52036   2.74788 
 H                     4.55071  -2.75595   1.45734 
 H                     2.33271  -1.70749   1.36269 
 H                    -0.8128    4.13349   0.74089 
 H                     0.21931   1.7302   -0.84146 
 H                     1.11329   4.89944   1.14819 
 H                     3.35582   5.85608   1.16128 
 H                     7.2484    6.35922   1.28689 
 H                     7.55      8.81024   1.2954 
 H                     6.12347   10.25808  -0.14531 
 H                     4.40116   9.20834  -1.60792 
 H                     4.12172   6.7547   -1.64156 
 H                     7.73709   5.31167  -1.61782 
 H                     9.73363   3.85851  -1.58961 
 H                     9.78547   1.81988  -0.15839 
 H                     7.81003   1.2702    1.25713 
 H                     5.82634   2.74069   1.25413 
 H                     4.69502   2.80534  -1.56277 
 H                     2.44173   1.83071  -1.56663 
 
 ITRead=  0  0  0  0  0  0  0  0  0  0  0  0  0  0  0  0  0  0  0  0
 ITRead=  0  0  0  0  0  0  0  0  0  0  0  0  0  0  0  0  0  0  0  0
 ITRead=  0  0  0  0  0  0  0  0  0  0  0  0  0  0  0  0  0  0  0  0
 ITRead=  0  0  0  0  0  0  0  0  0  0  0  0  0  0  0  0  0  0  0  0
 ITRead=  0  0  0  0  0  0  0  0  0  0  0  0  0  0  0  0  0  0  0  0
 ITRead=  0  0  0  0  0  0  0  0  0  0  0  0  0  0  0  0  0  0  0  0
 ITRead=  0  0  0  0  0  0  0  0  0
 MicOpt= -1 -1 -1 -1 -1 -1 -1 -1 -1 -1 -1 -1 -1 -1 -1 -1 -1 -1 -1 -1
 MicOpt= -1 -1 -1 -1 -1 -1 -1 -1 -1 -1 -1 -1 -1 -1 -1 -1 -1 -1 -1 -1
 MicOpt= -1 -1 -1 -1 -1 -1 -1 -1 -1 -1 -1 -1 -1 -1 -1 -1 -1 -1 -1 -1
 MicOpt= -1 -1 -1 -1 -1 -1 -1 -1 -1 -1 -1 -1 -1 -1 -1 -1 -1 -1 -1 -1
 MicOpt= -1 -1 -1 -1 -1 -1 -1 -1 -1 -1 -1 -1 -1 -1 -1 -1 -1 -1 -1 -1
 MicOpt= -1 -1 -1 -1 -1 -1 -1 -1 -1 -1 -1 -1 -1 -1 -1 -1 -1 -1 -1 -1
 MicOpt= -1 -1 -1 -1 -1 -1 -1 -1 -1
 NAtoms=    129 NQM=      129 NQMF=       0 NMMI=      0 NMMIF=      0
                NMic=       0 NMicF=      0.
                    Isotopes and Nuclear Properties:
 (Nuclear quadrupole moments (NQMom) in fm**2, nuclear magnetic moments (NMagM)
  in nuclear magnetons)

  Atom         1           2           3           4           5           6           7           8           9          10
 IAtWgt=          12          12          12          12          12          12          12          12          12          12
 AtmWgt=  12.0000000  12.0000000  12.0000000  12.0000000  12.0000000  12.0000000  12.0000000  12.0000000  12.0000000  12.0000000
 NucSpn=           0           0           0           0           0           0           0           0           0           0
 AtZEff=  -0.0000000  -0.0000000  -0.0000000  -0.0000000  -0.0000000  -0.0000000  -0.0000000  -0.0000000  -0.0000000  -0.0000000
 NQMom=    0.0000000   0.0000000   0.0000000   0.0000000   0.0000000   0.0000000   0.0000000   0.0000000   0.0000000   0.0000000
 NMagM=    0.0000000   0.0000000   0.0000000   0.0000000   0.0000000   0.0000000   0.0000000   0.0000000   0.0000000   0.0000000
 AtZNuc=   6.0000000   6.0000000   6.0000000   6.0000000   6.0000000   6.0000000   6.0000000   6.0000000   6.0000000   6.0000000

  Atom        11          12          13          14          15          16          17          18          19          20
 IAtWgt=          12          12          12          12          14          12          16          16          12          12
 AtmWgt=  12.0000000  12.0000000  12.0000000  12.0000000  14.0030740  12.0000000  15.9949146  15.9949146  12.0000000  12.0000000
 NucSpn=           0           0           0           0           2           0           0           0           0           0
 AtZEff=  -0.0000000  -0.0000000  -0.0000000  -0.0000000  -0.0000000  -0.0000000  -0.0000000  -0.0000000  -0.0000000  -0.0000000
 NQMom=    0.0000000   0.0000000   0.0000000   0.0000000   2.0440000   0.0000000   0.0000000   0.0000000   0.0000000   0.0000000
 NMagM=    0.0000000   0.0000000   0.0000000   0.0000000   0.4037610   0.0000000   0.0000000   0.0000000   0.0000000   0.0000000
 AtZNuc=   6.0000000   6.0000000   6.0000000   6.0000000   7.0000000   6.0000000   8.0000000   8.0000000   6.0000000   6.0000000

  Atom        21          22          23          24          25          26          27          28          29          30
 IAtWgt=          12          12          12          12          12          12          12          12          12          12
 AtmWgt=  12.0000000  12.0000000  12.0000000  12.0000000  12.0000000  12.0000000  12.0000000  12.0000000  12.0000000  12.0000000
 NucSpn=           0           0           0           0           0           0           0           0           0           0
 AtZEff=  -0.0000000  -0.0000000  -0.0000000  -0.0000000  -0.0000000  -0.0000000  -0.0000000  -0.0000000  -0.0000000  -0.0000000
 NQMom=    0.0000000   0.0000000   0.0000000   0.0000000   0.0000000   0.0000000   0.0000000   0.0000000   0.0000000   0.0000000
 NMagM=    0.0000000   0.0000000   0.0000000   0.0000000   0.0000000   0.0000000   0.0000000   0.0000000   0.0000000   0.0000000
 AtZNuc=   6.0000000   6.0000000   6.0000000   6.0000000   6.0000000   6.0000000   6.0000000   6.0000000   6.0000000   6.0000000

  Atom        31          32          33          34          35          36          37          38          39          40
 IAtWgt=          12          12          12          14          12          12          12          12          12          12
 AtmWgt=  12.0000000  12.0000000  12.0000000  14.0030740  12.0000000  12.0000000  12.0000000  12.0000000  12.0000000  12.0000000
 NucSpn=           0           0           0           2           0           0           0           0           0           0
 AtZEff=  -0.0000000  -0.0000000  -0.0000000  -0.0000000  -0.0000000  -0.0000000  -0.0000000  -0.0000000  -0.0000000  -0.0000000
 NQMom=    0.0000000   0.0000000   0.0000000   2.0440000   0.0000000   0.0000000   0.0000000   0.0000000   0.0000000   0.0000000
 NMagM=    0.0000000   0.0000000   0.0000000   0.4037610   0.0000000   0.0000000   0.0000000   0.0000000   0.0000000   0.0000000
 AtZNuc=   6.0000000   6.0000000   6.0000000   7.0000000   6.0000000   6.0000000   6.0000000   6.0000000   6.0000000   6.0000000

  Atom        41          42          43          44          45          46          47          48          49          50
 IAtWgt=          12          12          12          12          12          12          12          12          14          11
 AtmWgt=  12.0000000  12.0000000  12.0000000  12.0000000  12.0000000  12.0000000  12.0000000  12.0000000  14.0030740  11.0093053
 NucSpn=           0           0           0           0           0           0           0           0           2           3
 AtZEff=  -0.0000000  -0.0000000  -0.0000000  -0.0000000  -0.0000000  -0.0000000  -0.0000000  -0.0000000  -0.0000000  -0.0000000
 NQMom=    0.0000000   0.0000000   0.0000000   0.0000000   0.0000000   0.0000000   0.0000000   0.0000000   2.0440000   4.0590000
 NMagM=    0.0000000   0.0000000   0.0000000   0.0000000   0.0000000   0.0000000   0.0000000   0.0000000   0.4037610   2.6886370
 AtZNuc=   6.0000000   6.0000000   6.0000000   6.0000000   6.0000000   6.0000000   6.0000000   6.0000000   7.0000000   5.0000000

  Atom        51          52          53          54          55          56          57          58          59          60
 IAtWgt=          19          19          14          12          12          12          12          12          12          12
 AtmWgt=  18.9984033  18.9984033  14.0030740  12.0000000  12.0000000  12.0000000  12.0000000  12.0000000  12.0000000  12.0000000
 NucSpn=           1           1           2           0           0           0           0           0           0           0
 AtZEff=  -0.0000000  -0.0000000  -0.0000000  -0.0000000  -0.0000000  -0.0000000  -0.0000000  -0.0000000  -0.0000000  -0.0000000
 NQMom=    0.0000000   0.0000000   2.0440000   0.0000000   0.0000000   0.0000000   0.0000000   0.0000000   0.0000000   0.0000000
 NMagM=    2.6288670   2.6288670   0.4037610   0.0000000   0.0000000   0.0000000   0.0000000   0.0000000   0.0000000   0.0000000
 AtZNuc=   9.0000000   9.0000000   7.0000000   6.0000000   6.0000000   6.0000000   6.0000000   6.0000000   6.0000000   6.0000000

  Atom        61          62          63          64          65          66          67          68          69          70
 IAtWgt=          14          12          12          12          12          12          12          12          12          12
 AtmWgt=  14.0030740  12.0000000  12.0000000  12.0000000  12.0000000  12.0000000  12.0000000  12.0000000  12.0000000  12.0000000
 NucSpn=           2           0           0           0           0           0           0           0           0           0
 AtZEff=  -0.0000000  -0.0000000  -0.0000000  -0.0000000  -0.0000000  -0.0000000  -0.0000000  -0.0000000  -0.0000000  -0.0000000
 NQMom=    2.0440000   0.0000000   0.0000000   0.0000000   0.0000000   0.0000000   0.0000000   0.0000000   0.0000000   0.0000000
 NMagM=    0.4037610   0.0000000   0.0000000   0.0000000   0.0000000   0.0000000   0.0000000   0.0000000   0.0000000   0.0000000
 AtZNuc=   7.0000000   6.0000000   6.0000000   6.0000000   6.0000000   6.0000000   6.0000000   6.0000000   6.0000000   6.0000000

  Atom        71          72          73          74          75          76          77          78          79          80
 IAtWgt=          12          12          12          12          12           1           1           1           1           1
 AtmWgt=  12.0000000  12.0000000  12.0000000  12.0000000  12.0000000   1.0078250   1.0078250   1.0078250   1.0078250   1.0078250
 NucSpn=           0           0           0           0           0           1           1           1           1           1
 AtZEff=  -0.0000000  -0.0000000  -0.0000000  -0.0000000  -0.0000000  -0.0000000  -0.0000000  -0.0000000  -0.0000000  -0.0000000
 NQMom=    0.0000000   0.0000000   0.0000000   0.0000000   0.0000000   0.0000000   0.0000000   0.0000000   0.0000000   0.0000000
 NMagM=    0.0000000   0.0000000   0.0000000   0.0000000   0.0000000   2.7928460   2.7928460   2.7928460   2.7928460   2.7928460
 AtZNuc=   6.0000000   6.0000000   6.0000000   6.0000000   6.0000000   1.0000000   1.0000000   1.0000000   1.0000000   1.0000000

  Atom        81          82          83          84          85          86          87          88          89          90
 IAtWgt=           1           1           1           1           1           1           1           1           1           1
 AtmWgt=   1.0078250   1.0078250   1.0078250   1.0078250   1.0078250   1.0078250   1.0078250   1.0078250   1.0078250   1.0078250
 NucSpn=           1           1           1           1           1           1           1           1           1           1
 AtZEff=  -0.0000000  -0.0000000  -0.0000000  -0.0000000  -0.0000000  -0.0000000  -0.0000000  -0.0000000  -0.0000000  -0.0000000
 NQMom=    0.0000000   0.0000000   0.0000000   0.0000000   0.0000000   0.0000000   0.0000000   0.0000000   0.0000000   0.0000000
 NMagM=    2.7928460   2.7928460   2.7928460   2.7928460   2.7928460   2.7928460   2.7928460   2.7928460   2.7928460   2.7928460
 AtZNuc=   1.0000000   1.0000000   1.0000000   1.0000000   1.0000000   1.0000000   1.0000000   1.0000000   1.0000000   1.0000000

  Atom        91          92          93          94          95          96          97          98          99         100
 IAtWgt=           1           1           1           1           1           1           1           1           1           1
 AtmWgt=   1.0078250   1.0078250   1.0078250   1.0078250   1.0078250   1.0078250   1.0078250   1.0078250   1.0078250   1.0078250
 NucSpn=           1           1           1           1           1           1           1           1           1           1
 AtZEff=  -0.0000000  -0.0000000  -0.0000000  -0.0000000  -0.0000000  -0.0000000  -0.0000000  -0.0000000  -0.0000000  -0.0000000
 NQMom=    0.0000000   0.0000000   0.0000000   0.0000000   0.0000000   0.0000000   0.0000000   0.0000000   0.0000000   0.0000000
 NMagM=    2.7928460   2.7928460   2.7928460   2.7928460   2.7928460   2.7928460   2.7928460   2.7928460   2.7928460   2.7928460
 AtZNuc=   1.0000000   1.0000000   1.0000000   1.0000000   1.0000000   1.0000000   1.0000000   1.0000000   1.0000000   1.0000000

  Atom       101         102         103         104         105         106         107         108         109         110
 IAtWgt=           1           1           1           1           1           1           1           1           1           1
 AtmWgt=   1.0078250   1.0078250   1.0078250   1.0078250   1.0078250   1.0078250   1.0078250   1.0078250   1.0078250   1.0078250
 NucSpn=           1           1           1           1           1           1           1           1           1           1
 AtZEff=  -0.0000000  -0.0000000  -0.0000000  -0.0000000  -0.0000000  -0.0000000  -0.0000000  -0.0000000  -0.0000000  -0.0000000
 NQMom=    0.0000000   0.0000000   0.0000000   0.0000000   0.0000000   0.0000000   0.0000000   0.0000000   0.0000000   0.0000000
 NMagM=    2.7928460   2.7928460   2.7928460   2.7928460   2.7928460   2.7928460   2.7928460   2.7928460   2.7928460   2.7928460
 AtZNuc=   1.0000000   1.0000000   1.0000000   1.0000000   1.0000000   1.0000000   1.0000000   1.0000000   1.0000000   1.0000000

  Atom       111         112         113         114         115         116         117         118         119         120
 IAtWgt=           1           1           1           1           1           1           1           1           1           1
 AtmWgt=   1.0078250   1.0078250   1.0078250   1.0078250   1.0078250   1.0078250   1.0078250   1.0078250   1.0078250   1.0078250
 NucSpn=           1           1           1           1           1           1           1           1           1           1
 AtZEff=  -0.0000000  -0.0000000  -0.0000000  -0.0000000  -0.0000000  -0.0000000  -0.0000000  -0.0000000  -0.0000000  -0.0000000
 NQMom=    0.0000000   0.0000000   0.0000000   0.0000000   0.0000000   0.0000000   0.0000000   0.0000000   0.0000000   0.0000000
 NMagM=    2.7928460   2.7928460   2.7928460   2.7928460   2.7928460   2.7928460   2.7928460   2.7928460   2.7928460   2.7928460
 AtZNuc=   1.0000000   1.0000000   1.0000000   1.0000000   1.0000000   1.0000000   1.0000000   1.0000000   1.0000000   1.0000000

  Atom       121         122         123         124         125         126         127         128         129
 IAtWgt=           1           1           1           1           1           1           1           1           1
 AtmWgt=   1.0078250   1.0078250   1.0078250   1.0078250   1.0078250   1.0078250   1.0078250   1.0078250   1.0078250
 NucSpn=           1           1           1           1           1           1           1           1           1
 AtZEff=  -0.0000000  -0.0000000  -0.0000000  -0.0000000  -0.0000000  -0.0000000  -0.0000000  -0.0000000  -0.0000000
 NQMom=    0.0000000   0.0000000   0.0000000   0.0000000   0.0000000   0.0000000   0.0000000   0.0000000   0.0000000
 NMagM=    2.7928460   2.7928460   2.7928460   2.7928460   2.7928460   2.7928460   2.7928460   2.7928460   2.7928460
 AtZNuc=   1.0000000   1.0000000   1.0000000   1.0000000   1.0000000   1.0000000   1.0000000   1.0000000   1.0000000
 Leave Link  101 at Wed Nov  5 21:57:03 2025, MaxMem= 30870077440 cpu:               4.6 elap:               0.1
 (Enter /public/software/gauss/g16/l202.exe)
 Stoichiometry    C65H54BF2N5O2(1-,2)
 Framework group  C1[X(C65H54BF2N5O2)]
 Deg. of freedom   381
 Full point group                 C1      NOp   1
 Largest Abelian subgroup         C1      NOp   1
 Largest concise Abelian subgroup C1      NOp   1
                         Standard orientation:                         
 ---------------------------------------------------------------------
 Center     Atomic      Atomic             Coordinates (Angstroms)
 Number     Number       Type             X           Y           Z
 ---------------------------------------------------------------------
      1          6           0       -3.438441    5.852441   -0.080258
      2          6           0       -3.310118    4.865234    1.093027
      3          6           0       -3.343976    3.421678    0.666035
      4          6           0       -4.489435    2.622304    0.545116
      5          6           0       -5.864112    3.046464    0.974658
      6          6           0       -4.057938    1.356415    0.045085
      7          6           0       -4.791340    0.164815   -0.222370
      8          6           0       -6.255414    0.198418   -0.265441
      9          6           0       -7.036897   -0.663717    0.542796
     10          6           0       -8.417072   -0.622857    0.534328
     11          6           0       -9.119771    0.267196   -0.328020
     12          6           0      -10.535319    0.383752   -0.483253
     13          6           0      -11.667005   -0.135493    0.155179
     14          6           0      -12.912361    0.192532   -0.457604
     15          7           0      -13.918949    0.476067   -0.982220
     16          6           0      -11.760521   -0.913404    1.390717
     17          8           0      -10.849078   -1.193010    2.165579
     18          8           0      -13.039921   -1.308889    1.648022
     19          6           0       -8.325569    1.108907   -1.164199
     20          6           0       -6.947512    1.093189   -1.117658
     21          6           0       -4.095864   -1.057077   -0.450491
     22          6           0       -4.552550   -2.305193   -0.972817
     23          6           0       -5.918234   -2.672612   -1.477213
     24          6           0       -3.437008   -3.152195   -1.030989
     25          6           0       -3.440509   -4.596532   -1.456883
     26          6           0       -3.662273   -5.576717   -0.291652
     27          6           0       -2.309478   -2.423939   -0.571960
     28          6           0       -0.990676   -2.996679   -0.491635
     29          6           0        0.146190   -2.535131    0.096796
     30          6           0        1.434594   -3.218066    0.110220
     31          6           0        1.705823   -4.429900   -0.564429
     32          6           0        2.953352   -5.033789   -0.500959
     33          6           0        4.005106   -4.446277    0.228493
     34          7           0        5.281255   -5.061679    0.285540
     35          6           0        5.829801   -5.681210   -0.872207
     36          6           0        6.505289   -6.908727   -0.769721
     37          6           0        7.051176   -7.507531   -1.904216
     38          6           0        6.919416   -6.906832   -3.158863
     39          6           0        6.240601   -5.690199   -3.264571
     40          6           0        5.706488   -5.074682   -2.133309
     41          6           0        6.027372   -5.045946    1.497965
     42          6           0        7.405727   -4.776464    1.482836
     43          6           0        8.134300   -4.773619    2.671647
     44          6           0        7.502759   -5.020841    3.893158
     45          6           0        6.129918   -5.280640    3.911466
     46          6           0        5.396089   -5.302490    2.726282
     47          6           0        3.755422   -3.235481    0.896652
     48          6           0        2.498830   -2.645858    0.839962
     49          7           0       -2.719539   -1.142502   -0.236871
     50          5           0       -1.802647    0.101753   -0.140991
     51          9           0       -0.951944    0.102387   -1.269314
     52          9           0       -1.014501    0.065779    1.031468
     53          7           0       -2.669807    1.383685   -0.093241
     54          6           0       -2.225192    2.646821    0.266503
     55          6           0       -0.880809    3.162913    0.256755
     56          6           0        0.260174    2.660981   -0.289039
     57          6           0        1.576564    3.285200   -0.227457
     58          6           0        1.879804    4.435872    0.534877
     59          6           0        3.154898    4.982362    0.550326
     60          6           0        4.196342    4.410251   -0.205868
     61          7           0        5.497466    4.972952   -0.190037
     62          6           0        5.664099    6.386379   -0.178072
     63          6           0        6.631438    6.982279    0.647989
     64          6           0        6.797615    8.366498    0.649833
     65          6           0        5.995439    9.180173   -0.154397
     66          6           0        5.027146    8.590232   -0.970900
     67          6           0        4.865114    7.205656   -0.992693
     68          6           0        6.642921    4.127785   -0.183199
     69          6           0        7.756679    4.431901   -0.983244
     70          6           0        8.881449    3.608161   -0.964433
     71          6           0        8.910560    2.462450   -0.165293
     72          6           0        7.800237    2.153136    0.624641
     73          6           0        6.677802    2.980050    0.625891
     74          6           0        3.912417    3.264012   -0.967792
     75          6           0        2.635941    2.715617   -0.966195
     76          1           0       -4.379072    5.700937   -0.620414
     77          1           0       -3.416442    6.888018    0.276334
     78          1           0       -2.618682    5.722673   -0.794645
     79          1           0       -2.385174    5.078517    1.639855
     80          1           0       -4.123877    5.052433    1.801899
     81          1           0       -5.794286    3.851687    1.711487
     82          1           0       -6.478205    3.419613    0.147050
     83          1           0       -6.417450    2.224061    1.434138
     84          1           0       -6.531433   -1.353667    1.211375
     85          1           0       -8.975558   -1.272382    1.192782
     86          1           0      -10.800923    1.027415   -1.319649
     87          1           0      -13.024692   -1.785930    2.496498
     88          1           0       -8.827611    1.777559   -1.858189
     89          1           0       -6.379348    1.750380   -1.768163
     90          1           0       -6.589184   -3.026119   -0.685915
     91          1           0       -6.413946   -1.826962   -1.959396
     92          1           0       -5.840774   -3.476187   -2.215102
     93          1           0       -4.227369   -4.751982   -2.202755
     94          1           0       -2.500448   -4.846517   -1.960804
     95          1           0       -2.871527   -5.479948    0.459707
     96          1           0       -4.619674   -5.386540    0.205047
     97          1           0       -3.666163   -6.612625   -0.647941
     98          1           0       -0.943347   -3.975858   -0.960491
     99          1           0        0.123721   -1.591080    0.627040
    100          1           0        0.927160   -4.917141   -1.143036
    101          1           0        3.121240   -5.971617   -1.019977
    102          1           0        6.599629   -7.390221    0.197880
    103          1           0        7.569933   -8.456727   -1.805990
    104          1           0        7.339977   -7.379513   -4.040948
    105          1           0        6.136333   -5.206214   -4.231323
    106          1           0        5.195250   -4.122012   -2.222844
    107          1           0        7.901372   -4.568945    0.540288
    108          1           0        9.199370   -4.562864    2.641437
    109          1           0        8.072174   -5.011437    4.817304
    110          1           0        5.625696   -5.482415    4.852104
    111          1           0        4.333487   -5.520360    2.747880
    112          1           0        4.550708   -2.755945    1.457341
    113          1           0        2.332714   -1.707492    1.362686
    114          1           0       -0.812797    4.133485    0.740894
    115          1           0        0.219310    1.730199   -0.841456
    116          1           0        1.113288    4.899435    1.148190
    117          1           0        3.355818    5.856084    1.161277
    118          1           0        7.248396    6.359217    1.286885
    119          1           0        7.549999    8.810244    1.295396
    120          1           0        6.123468   10.258084   -0.145313
    121          1           0        4.401157    9.208339   -1.607923
    122          1           0        4.121723    6.754697   -1.641561
    123          1           0        7.737088    5.311670   -1.617822
    124          1           0        9.733630    3.858514   -1.589609
    125          1           0        9.785467    1.819884   -0.158391
    126          1           0        7.810027    1.270200    1.257132
    127          1           0        5.826344    2.740692    1.254129
    128          1           0        4.695019    2.805341   -1.562768
    129          1           0        2.441733    1.830708   -1.566628
 ---------------------------------------------------------------------
 Rotational constants (GHZ):           0.0272257           0.0124875           0.0090660
 Leave Link  202 at Wed Nov  5 21:57:03 2025, MaxMem= 30870077440 cpu:               0.2 elap:               0.0
 (Enter /public/software/gauss/g16/l301.exe)
 Standard basis: def2TZVPP (5D, 7F)
 Ernie: Thresh=  0.10000D-02 Tol=  0.10000D-05 Strict=F.
 There are  3510 symmetry adapted cartesian basis functions of A   symmetry.
 There are  3081 symmetry adapted basis functions of A   symmetry.
  3081 basis functions,  4743 primitive gaussians,  3510 cartesian basis functions
   260 alpha electrons      259 beta electrons
       nuclear repulsion energy     10537.3413615860 Hartrees.
 IExCor= 4336 DFT=T Ex+Corr=M062X ExCW=0 ScaHFX=  0.540000
 ScaDFX=  1.000000  1.000000  1.000000  1.000000 ScalE2=  1.000000  1.000000
 IRadAn=      5 IRanWt=     -1 IRanGd=            0 ICorTp=0 IEmpDi=131
 NAtoms=  129 NActive=  129 NUniq=  129 SFac= 1.00D+00 NAtFMM=   60 NAOKFM=T Big=T
 Integral buffers will be    131072 words long.
 Raffenetti 2 integral format.
 Two-electron integral symmetry is turned on.
 R6Disp:  Grimme-D3 Dispersion energy=       -0.0126898708 Hartrees.
 Nuclear repulsion after empirical dispersion term =    10537.3286717151 Hartrees.
 ------------------------------------------------------------------------------
 Polarizable Continuum Model (PCM)
 =================================
 Model                : PCM.
 Atomic radii         : UFF (Universal Force Field).
 Polarization charges : Total charges.
 Charge compensation  : None.
 Solution method      : On-the-fly selection.
 Cavity type          : Scaled VdW (van der Waals Surface) (Alpha=1.100).
 Cavity algorithm     : GePol (No added spheres)
                        Default sphere list used, NSphG=  129.
                        Lebedev-Laikov grids with approx.  5.0 points / Ang**2.
                        Smoothing algorithm: York/Karplus (Gamma=1.0000).
                        Polarization charges: spherical gaussians, with
                                              point-specific exponents (IZeta= 3).
                        Self-potential: point-specific (ISelfS= 7).
                        Self-field    : sphere-specific E.n sum rule (ISelfD= 2).
 Solvent              : Water, Eps=  78.355300 Eps(inf)=   1.777849
 ------------------------------------------------------------------------------
 GePol: Number of generator spheres                  =     129
 GePol: Total number of spheres                      =     129
 GePol: Number of exposed spheres                    =     129 (100.00%)
 GePol: Number of points                             =    8991
 GePol: Average weight of points                     =       0.13
 GePol: Minimum weight of points                     =   0.19D-11
 GePol: Maximum weight of points                     =    0.20577
 GePol: Number of points with low weight             =     611
 GePol: Fraction of low-weight points (<1% of avg)   =       6.80%
 GePol: Cavity surface area                          =   1144.572 Ang**2
 GePol: Cavity volume                                =   1348.450 Ang**3
 Leave Link  301 at Wed Nov  5 21:57:03 2025, MaxMem= 30870077440 cpu:               4.7 elap:               0.1
 (Enter /public/software/gauss/g16/l302.exe)
 NPDir=0 NMtPBC=     1 NCelOv=     1 NCel=       1 NClECP=     1 NCelD=      1
         NCelK=      1 NCelE2=     1 NClLst=     1 CellRange=     0.0.
 One-electron integrals computed using PRISM.
 One-electron integral symmetry used in STVInt
   1 Symmetry operations used in ECPInt.
 ECPInt:  NShTT=  660675 NPrTT= 1869090 LenC2=  320701 LenP2D=  588449.
 LDataN:  DoStor=T MaxTD1= 6 Len=  172
 Number of processors reduced to  53 by ecpmxn.
 NBasis=  3081 RedAO= T EigKep=  3.69D-06  NBF=  3081
 NBsUse=  3081 1.00D-06 EigRej= -1.00D+00 NBFU=  3081
 Precomputing XC quadrature grid using
 IXCGrd= 4 IRadAn=           5 IRanWt=          -1 IRanGd=           0 AccXCQ= 0.00D+00.
 Generated NRdTot=       0 NPtTot=           0 NUsed=           0 NTot=          32
 NSgBfM=  2820  2820  2820  2820  2820 MxSgAt=   129 MxSgA2=   129.
 Leave Link  302 at Wed Nov  5 21:57:40 2025, MaxMem= 30870077440 cpu:            2379.2 elap:              37.3
 (Enter /public/software/gauss/g16/l303.exe)
 DipDrv:  MaxL=1.
 Leave Link  303 at Wed Nov  5 21:57:41 2025, MaxMem= 30870077440 cpu:              67.6 elap:               1.2
 (Enter /public/software/gauss/g16/l401.exe)
 ExpMin= 6.06D-02 ExpMax= 3.55D+04 ExpMxC= 1.21D+03 IAcc=3 IRadAn=         5 AccDes= 0.00D+00
 Harris functional with IExCor= 1009 and IRadAn=       5 diagonalized for initial guess.
 HarFok:  IExCor= 1009 AccDes= 0.00D+00 IRadAn=         5 IDoV= 1 UseB2=F ITyADJ=14
 ICtDFT=  3500011 ScaDFX=  1.000000  1.000000  1.000000  1.000000
 FoFCou: FMM=F IPFlag=           0 FMFlag=      100000 FMFlg1=        2001
         NFxFlg=           0 DoJE=T BraDBF=F KetDBF=T FulRan=T
         wScrn=  0.000000 ICntrl=       500 IOpCl=  0 I1Cent=   200000004 NGrid=           0
         NMat0=    1 NMatS0=      1 NMatT0=    0 NMatD0=    1 NMtDS0=    0 NMtDT0=    0
 Petite list used in FoFCou.
 Harris En= -3156.99451855435    
 JPrj=0 DoOrth=F DoCkMO=F.
 Initial guess <Sx>= 0.0000 <Sy>= 0.0000 <Sz>= 0.5000 <S**2>= 0.7500 S= 0.5000
 Leave Link  401 at Wed Nov  5 21:58:12 2025, MaxMem= 30870077440 cpu:            1931.1 elap:              30.3
 (Enter /public/software/gauss/g16/l502.exe)
 Integral symmetry usage will be decided dynamically.
 UHF open shell SCF:
 Using DIIS extrapolation, IDIIS=  1040.
 NGot= 30870077440 LenX= 30845183139 LenY= 30832859529
 Requested convergence on RMS density matrix=1.00D-08 within 128 cycles.
 Requested convergence on MAX density matrix=1.00D-06.
 Requested convergence on             energy=1.00D-06.
 No special actions if energy rises.
 Fock matrices will be formed incrementally for  20 cycles.

 Cycle   1  Pass 1  IDiag  1:
 FoFJK:  IHMeth= 1 ICntrl=       0 DoSepK=F KAlg= 0 I1Cent=           0 FoldK=F
 IRaf= 430000000 NMat=       1 IRICut=       1 DoRegI=T DoRafI=F ISym2E= 0 IDoP0=0 IntGTp=1.
 FoFCou: FMM=T IPFlag=           0 FMFlag=      100000 FMFlg1=        2001
         NFxFlg=           0 DoJE=F BraDBF=F KetDBF=F FulRan=T
         wScrn=  0.000000 ICntrl=         0 IOpCl=  1 I1Cent=           0 NGrid=           0
         NMat0=    1 NMatS0=      1 NMatT0=    0 NMatD0=    1 NMtDS0=    0 NMtDT0=    0
 Symmetry not used in FoFCou.
 FMM levels:  10  Number of levels for PrismC:   9
 Inv3:  Mode=1 IEnd=   242514243.
 Iteration    1 A*A^-1 deviation from unit magnitude is 2.35D-14 for   1971.
 Iteration    1 A*A^-1 deviation from orthogonality  is 1.01D-14 for   4845    560.
 Iteration    1 A^-1*A deviation from unit magnitude is 2.35D-14 for   1971.
 Iteration    1 A^-1*A deviation from orthogonality  is 3.12D-14 for   8991   8985.
 E= -3156.60749642841    
 DIIS: error= 1.65D-02 at cycle   1 NSaved=   1.
 NSaved= 1 IEnMin= 1 EnMin= -3156.60749642841     IErMin= 1 ErrMin= 1.65D-02
 ErrMax= 1.65D-02  0.00D+00 EMaxC= 1.00D-01 BMatC= 8.85D+00 BMatP= 8.85D+00
 IDIUse=3 WtCom= 8.35D-01 WtEn= 1.65D-01
 Coeff-Com:  0.100D+01
 Coeff-En:   0.100D+01
 Coeff:      0.100D+01
 Gap=     0.076 Goal=   None    Shift=    0.000
 Gap=     0.125 Goal=   None    Shift=    0.000
 GapD=    0.076 DampG=0.500 DampE=0.500 DampFc=0.2500 IDamp=-1.
 Damping current iteration by 2.50D-01
 RMSDP=1.11D-03 MaxDP=2.91D-01              OVMax= 1.96D-01

 Cycle   2  Pass 1  IDiag  1:
 RMSU=  2.77D-04    CP:  9.91D-01
 E= -3157.22800803395     Delta-E=       -0.620511605535 Rises=F Damp=T
 DIIS: error= 1.05D-02 at cycle   2 NSaved=   2.
 NSaved= 2 IEnMin= 2 EnMin= -3157.22800803395     IErMin= 2 ErrMin= 1.05D-02
 ErrMax= 1.05D-02  0.00D+00 EMaxC= 1.00D-01 BMatC= 3.26D+00 BMatP= 8.85D+00
 IDIUse=3 WtCom= 8.95D-01 WtEn= 1.05D-01
 Coeff-Com: -0.125D+01 0.225D+01
 Coeff-En:   0.000D+00 0.100D+01
 Coeff:     -0.112D+01 0.212D+01
 Gap=     0.083 Goal=   None    Shift=    0.000
 Gap=     0.120 Goal=   None    Shift=    0.000
 RMSDP=7.05D-04 MaxDP=1.84D-01 DE=-6.21D-01 OVMax= 1.41D-01

 Cycle   3  Pass 1  IDiag  1:
 RMSU=  5.27D-04    CP:  9.73D-01  2.68D+00
 E= -3158.35383985767     Delta-E=       -1.125831823720 Rises=F Damp=F
 DIIS: error= 3.63D-03 at cycle   3 NSaved=   3.
 NSaved= 3 IEnMin= 3 EnMin= -3158.35383985767     IErMin= 3 ErrMin= 3.63D-03
 ErrMax= 3.63D-03  0.00D+00 EMaxC= 1.00D-01 BMatC= 3.74D-01 BMatP= 3.26D+00
 IDIUse=3 WtCom= 9.64D-01 WtEn= 3.63D-02
 Coeff-Com: -0.573D+00 0.951D+00 0.622D+00
 Coeff-En:   0.000D+00 0.000D+00 0.100D+01
 Coeff:     -0.552D+00 0.916D+00 0.636D+00
 Gap=     0.084 Goal=   None    Shift=    0.000
 Gap=     0.121 Goal=   None    Shift=    0.000
 RMSDP=1.52D-04 MaxDP=2.42D-02 DE=-1.13D+00 OVMax= 6.73D-02

 Cycle   4  Pass 1  IDiag  1:
 RMSU=  1.42D-04    CP:  9.73D-01  2.71D+00  8.98D-01
 E= -3158.42269468199     Delta-E=       -0.068854824316 Rises=F Damp=F
 DIIS: error= 1.88D-03 at cycle   4 NSaved=   4.
 NSaved= 4 IEnMin= 4 EnMin= -3158.42269468199     IErMin= 4 ErrMin= 1.88D-03
 ErrMax= 1.88D-03  0.00D+00 EMaxC= 1.00D-01 BMatC= 8.12D-02 BMatP= 3.74D-01
 IDIUse=3 WtCom= 9.81D-01 WtEn= 1.88D-02
 Coeff-Com: -0.117D+00 0.180D+00 0.339D+00 0.598D+00
 Coeff-En:   0.000D+00 0.000D+00 0.174D+00 0.826D+00
 Coeff:     -0.115D+00 0.176D+00 0.336D+00 0.602D+00
 Gap=     0.086 Goal=   None    Shift=    0.000
 Gap=     0.119 Goal=   None    Shift=    0.000
 RMSDP=6.50D-05 MaxDP=1.52D-02 DE=-6.89D-02 OVMax= 1.88D-02

 Cycle   5  Pass 1  IDiag  1:
 RMSU=  5.54D-05    CP:  9.71D-01  2.67D+00  9.02D-01  7.75D-01
 E= -3158.44071595179     Delta-E=       -0.018021269803 Rises=F Damp=F
 DIIS: error= 6.35D-04 at cycle   5 NSaved=   5.
 NSaved= 5 IEnMin= 5 EnMin= -3158.44071595179     IErMin= 5 ErrMin= 6.35D-04
 ErrMax= 6.35D-04  0.00D+00 EMaxC= 1.00D-01 BMatC= 3.74D-03 BMatP= 8.12D-02
 IDIUse=3 WtCom= 9.94D-01 WtEn= 6.35D-03
 Coeff-Com: -0.241D-01 0.342D-01 0.128D+00 0.280D+00 0.582D+00
 Coeff-En:   0.000D+00 0.000D+00 0.000D+00 0.000D+00 0.100D+01
 Coeff:     -0.240D-01 0.340D-01 0.127D+00 0.278D+00 0.584D+00
 Gap=     0.087 Goal=   None    Shift=    0.000
 Gap=     0.120 Goal=   None    Shift=    0.000
 RMSDP=1.93D-05 MaxDP=1.22D-02 DE=-1.80D-02 OVMax= 6.20D-03

 Cycle   6  Pass 1  IDiag  1:
 RMSU=  1.80D-05    CP:  9.71D-01  2.68D+00  9.04D-01  7.70D-01  1.12D+00
 E= -3158.44148354450     Delta-E=       -0.000767592714 Rises=F Damp=F
 DIIS: error= 2.71D-04 at cycle   6 NSaved=   6.
 NSaved= 6 IEnMin= 6 EnMin= -3158.44148354450     IErMin= 6 ErrMin= 2.71D-04
 ErrMax= 2.71D-04  0.00D+00 EMaxC= 1.00D-01 BMatC= 5.56D-04 BMatP= 3.74D-03
 IDIUse=3 WtCom= 9.97D-01 WtEn= 2.71D-03
 Coeff-Com:  0.971D-03-0.247D-02 0.258D-01 0.654D-01 0.295D+00 0.615D+00
 Coeff-En:   0.000D+00 0.000D+00 0.000D+00 0.000D+00 0.000D+00 0.100D+01
 Coeff:      0.969D-03-0.246D-02 0.257D-01 0.653D-01 0.294D+00 0.617D+00
 Gap=     0.088 Goal=   None    Shift=    0.000
 Gap=     0.121 Goal=   None    Shift=    0.000
 RMSDP=1.03D-05 MaxDP=7.47D-03 DE=-7.68D-04 OVMax= 6.19D-03

 Cycle   7  Pass 1  IDiag  1:
 RMSU=  7.71D-06    CP:  9.71D-01  2.68D+00  9.05D-01  7.83D-01  1.22D+00
                    CP:  1.17D+00
 E= -3158.44164726066     Delta-E=       -0.000163716153 Rises=F Damp=F
 DIIS: error= 6.37D-05 at cycle   7 NSaved=   7.
 NSaved= 7 IEnMin= 7 EnMin= -3158.44164726066     IErMin= 7 ErrMin= 6.37D-05
 ErrMax= 6.37D-05  0.00D+00 EMaxC= 1.00D-01 BMatC= 8.75D-05 BMatP= 5.56D-04
 IDIUse=1 WtCom= 1.00D+00 WtEn= 0.00D+00
 Coeff-Com:  0.446D-02-0.670D-02-0.112D-01-0.248D-01 0.178D-01 0.271D+00
 Coeff-Com:  0.749D+00
 Coeff:      0.446D-02-0.670D-02-0.112D-01-0.248D-01 0.178D-01 0.271D+00
 Coeff:      0.749D+00
 Gap=     0.089 Goal=   None    Shift=    0.000
 Gap=     0.122 Goal=   None    Shift=    0.000
 RMSDP=8.72D-06 MaxDP=6.35D-03 DE=-1.64D-04 OVMax= 4.34D-03

 Cycle   8  Pass 1  IDiag  1:
 RMSU=  3.66D-06    CP:  9.71D-01  2.68D+00  9.09D-01  7.91D-01  1.30D+00
                    CP:  1.40D+00  1.59D+00
 E= -3158.44170040377     Delta-E=       -0.000053143112 Rises=F Damp=F
 DIIS: error= 2.61D-05 at cycle   8 NSaved=   8.
 NSaved= 8 IEnMin= 8 EnMin= -3158.44170040377     IErMin= 8 ErrMin= 2.61D-05
 ErrMax= 2.61D-05  0.00D+00 EMaxC= 1.00D-01 BMatC= 2.29D-05 BMatP= 8.75D-05
 IDIUse=1 WtCom= 1.00D+00 WtEn= 0.00D+00
 Coeff-Com:  0.212D-02-0.294D-02-0.121D-01-0.301D-01-0.713D-01-0.315D-01
 Coeff-Com:  0.337D+00 0.808D+00
 Coeff:      0.212D-02-0.294D-02-0.121D-01-0.301D-01-0.713D-01-0.315D-01
 Coeff:      0.337D+00 0.808D+00
 Gap=     0.089 Goal=   None    Shift=    0.000
 Gap=     0.122 Goal=   None    Shift=    0.000
 RMSDP=7.24D-06 MaxDP=5.86D-03 DE=-5.31D-05 OVMax= 4.48D-03

 Cycle   9  Pass 1  IDiag  1:
 RMSU=  2.13D-06    CP:  9.71D-01  2.69D+00  9.11D-01  7.98D-01  1.36D+00
                    CP:  1.59D+00  2.16D+00  1.59D+00
 E= -3158.44172468190     Delta-E=       -0.000024278128 Rises=F Damp=F
 DIIS: error= 1.72D-05 at cycle   9 NSaved=   9.
 NSaved= 9 IEnMin= 9 EnMin= -3158.44172468190     IErMin= 9 ErrMin= 1.72D-05
 ErrMax= 1.72D-05  0.00D+00 EMaxC= 1.00D-01 BMatC= 5.73D-06 BMatP= 2.29D-05
 IDIUse=1 WtCom= 1.00D+00 WtEn= 0.00D+00
 Coeff-Com: -0.710D-03 0.111D-02 0.445D-03-0.346D-03-0.223D-01-0.736D-01
 Coeff-Com: -0.118D+00 0.172D+00 0.104D+01
 Coeff:     -0.710D-03 0.111D-02 0.445D-03-0.346D-03-0.223D-01-0.736D-01
 Coeff:     -0.118D+00 0.172D+00 0.104D+01
 Gap=     0.090 Goal=   None    Shift=    0.000
 Gap=     0.123 Goal=   None    Shift=    0.000
 RMSDP=5.35D-06 MaxDP=3.68D-03 DE=-2.43D-05 OVMax= 4.85D-03

 Cycle  10  Pass 1  IDiag  1:
 RMSU=  1.40D-06    CP:  9.71D-01  2.69D+00  9.12D-01  8.01D-01  1.39D+00
                    CP:  1.71D+00  2.57D+00  2.21D+00  1.77D+00
 E= -3158.44173658514     Delta-E=       -0.000011903239 Rises=F Damp=F
 DIIS: error= 1.17D-05 at cycle  10 NSaved=  10.
 NSaved=10 IEnMin=10 EnMin= -3158.44173658514     IErMin=10 ErrMin= 1.17D-05
 ErrMax= 1.17D-05  0.00D+00 EMaxC= 1.00D-01 BMatC= 2.71D-06 BMatP= 5.73D-06
 IDIUse=1 WtCom= 1.00D+00 WtEn= 0.00D+00
 Coeff-Com: -0.104D-02 0.151D-02 0.412D-02 0.985D-02 0.129D-01-0.200D-01
 Coeff-Com: -0.164D+00-0.202D+00 0.474D+00 0.884D+00
 Coeff:     -0.104D-02 0.151D-02 0.412D-02 0.985D-02 0.129D-01-0.200D-01
 Coeff:     -0.164D+00-0.202D+00 0.474D+00 0.884D+00
 Gap=     0.090 Goal=   None    Shift=    0.000
 Gap=     0.123 Goal=   None    Shift=    0.000
 RMSDP=3.79D-06 MaxDP=2.68D-03 DE=-1.19D-05 OVMax= 4.72D-03

 Cycle  11  Pass 1  IDiag  1:
 RMSU=  8.09D-07    CP:  9.71D-01  2.69D+00  9.13D-01  8.03D-01  1.41D+00
                    CP:  1.79D+00  2.86D+00  2.62D+00  2.50D+00  1.79D+00
 E= -3158.44174300810     Delta-E=       -0.000006422961 Rises=F Damp=F
 DIIS: error= 9.82D-06 at cycle  11 NSaved=  11.
 NSaved=11 IEnMin=11 EnMin= -3158.44174300810     IErMin=11 ErrMin= 9.82D-06
 ErrMax= 9.82D-06  0.00D+00 EMaxC= 1.00D-01 BMatC= 1.27D-06 BMatP= 2.71D-06
 IDIUse=1 WtCom= 1.00D+00 WtEn= 0.00D+00
 Coeff-Com: -0.184D-03 0.240D-03 0.155D-02 0.437D-02 0.120D-01 0.163D-01
 Coeff-Com: -0.366D-01-0.151D+00-0.122D+00 0.414D+00 0.862D+00
 Coeff:     -0.184D-03 0.240D-03 0.155D-02 0.437D-02 0.120D-01 0.163D-01
 Coeff:     -0.366D-01-0.151D+00-0.122D+00 0.414D+00 0.862D+00
 Gap=     0.090 Goal=   None    Shift=    0.000
 Gap=     0.123 Goal=   None    Shift=    0.000
 RMSDP=2.46D-06 MaxDP=1.03D-03 DE=-6.42D-06 OVMax= 4.02D-03

 Cycle  12  Pass 1  IDiag  1:
 RMSU=  5.12D-07    CP:  9.71D-01  2.69D+00  9.13D-01  8.03D-01  1.42D+00
                    CP:  1.82D+00  2.99D+00  2.87D+00  2.98D+00  2.76D+00
                    CP:  1.68D+00
 E= -3158.44174680744     Delta-E=       -0.000003799341 Rises=F Damp=F
 DIIS: error= 9.15D-06 at cycle  12 NSaved=  12.
 NSaved=12 IEnMin=12 EnMin= -3158.44174680744     IErMin=12 ErrMin= 9.15D-06
 ErrMax= 9.15D-06  0.00D+00 EMaxC= 1.00D-01 BMatC= 5.90D-07 BMatP= 1.27D-06
 IDIUse=1 WtCom= 1.00D+00 WtEn= 0.00D+00
 Coeff-Com:  0.526D-03-0.772D-03-0.161D-02-0.362D-02-0.148D-02 0.234D-01
 Coeff-Com:  0.740D-01 0.331D-01-0.339D+00-0.279D+00 0.274D+00 0.122D+01
 Coeff:      0.526D-03-0.772D-03-0.161D-02-0.362D-02-0.148D-02 0.234D-01
 Coeff:      0.740D-01 0.331D-01-0.339D+00-0.279D+00 0.274D+00 0.122D+01
 Gap=     0.090 Goal=   None    Shift=    0.000
 Gap=     0.123 Goal=   None    Shift=    0.000
 RMSDP=3.07D-06 MaxDP=1.38D-03 DE=-3.80D-06 OVMax= 5.64D-03

 Cycle  13  Pass 1  IDiag  1:
 RMSU=  2.29D-06    CP:  9.71D-01  2.69D+00  9.13D-01  8.03D-01  1.43D+00
                    CP:  1.85D+00  3.00D+00  3.00D+00  3.00D+00  3.00D+00
                    CP:  3.00D+00  2.13D+00
 E= -3158.44175044180     Delta-E=       -0.000003634364 Rises=F Damp=F
 DIIS: error= 7.36D-06 at cycle  13 NSaved=  13.
 NSaved=13 IEnMin=13 EnMin= -3158.44175044180     IErMin=13 ErrMin= 7.36D-06
 ErrMax= 7.36D-06  0.00D+00 EMaxC= 1.00D-01 BMatC= 3.18D-07 BMatP= 5.90D-07
 IDIUse=1 WtCom= 1.00D+00 WtEn= 0.00D+00
 Coeff-Com:  0.241D-03-0.341D-03-0.112D-02-0.321D-02-0.572D-02 0.352D-02
 Coeff-Com:  0.352D-01 0.704D-01-0.520D-01-0.241D+00-0.436D+00 0.504D+00
 Coeff-Com:  0.113D+01
 Coeff:      0.241D-03-0.341D-03-0.112D-02-0.321D-02-0.572D-02 0.352D-02
 Coeff:      0.352D-01 0.704D-01-0.520D-01-0.241D+00-0.436D+00 0.504D+00
 Coeff:      0.113D+01
 Gap=     0.090 Goal=   None    Shift=    0.000
 Gap=     0.123 Goal=   None    Shift=    0.000
 RMSDP=2.52D-06 MaxDP=7.91D-04 DE=-3.63D-06 OVMax= 4.98D-03

 Cycle  14  Pass 1  IDiag  1:
 RMSU=  1.09D-06    CP:  9.71D-01  2.69D+00  9.13D-01  8.02D-01  1.44D+00
                    CP:  1.86D+00  3.00D+00  3.00D+00  3.00D+00  3.00D+00
                    CP:  3.00D+00  3.00D+00  1.92D+00
 E= -3158.44175251589     Delta-E=       -0.000002074092 Rises=F Damp=F
 DIIS: error= 4.82D-06 at cycle  14 NSaved=  14.
 NSaved=14 IEnMin=14 EnMin= -3158.44175251589     IErMin=14 ErrMin= 4.82D-06
 ErrMax= 4.82D-06  0.00D+00 EMaxC= 1.00D-01 BMatC= 1.47D-07 BMatP= 3.18D-07
 IDIUse=1 WtCom= 1.00D+00 WtEn= 0.00D+00
 Coeff-Com: -0.167D-03 0.246D-03 0.449D-03 0.567D-03-0.137D-02-0.816D-02
 Coeff-Com: -0.284D-01 0.469D-02 0.151D+00 0.736D-01-0.422D+00-0.350D+00
 Coeff-Com:  0.534D+00 0.104D+01
 Coeff:     -0.167D-03 0.246D-03 0.449D-03 0.567D-03-0.137D-02-0.816D-02
 Coeff:     -0.284D-01 0.469D-02 0.151D+00 0.736D-01-0.422D+00-0.350D+00
 Coeff:      0.534D+00 0.104D+01
 Gap=     0.090 Goal=   None    Shift=    0.000
 Gap=     0.122 Goal=   None    Shift=    0.000
 RMSDP=1.98D-06 MaxDP=6.49D-04 DE=-2.07D-06 OVMax= 4.03D-03

 Cycle  15  Pass 1  IDiag  1:
 RMSU=  4.13D-07    CP:  9.71D-01  2.69D+00  9.13D-01  8.02D-01  1.44D+00
                    CP:  1.87D+00  3.00D+00  3.00D+00  3.00D+00  3.00D+00
                    CP:  3.00D+00  3.00D+00  2.65D+00  1.85D+00
 E= -3158.44175351508     Delta-E=       -0.000000999182 Rises=F Damp=F
 DIIS: error= 2.80D-06 at cycle  15 NSaved=  15.
 NSaved=15 IEnMin=15 EnMin= -3158.44175351508     IErMin=15 ErrMin= 2.80D-06
 ErrMax= 2.80D-06  0.00D+00 EMaxC= 1.00D-01 BMatC= 6.18D-08 BMatP= 1.47D-07
 IDIUse=1 WtCom= 1.00D+00 WtEn= 0.00D+00
 Coeff-Com: -0.166D-03 0.241D-03 0.670D-03 0.147D-02 0.133D-02-0.490D-02
 Coeff-Com: -0.290D-01-0.252D-01 0.103D+00 0.141D+00-0.102D+00-0.367D+00
 Coeff-Com: -0.142D+00 0.519D+00 0.903D+00
 Coeff:     -0.166D-03 0.241D-03 0.670D-03 0.147D-02 0.133D-02-0.490D-02
 Coeff:     -0.290D-01-0.252D-01 0.103D+00 0.141D+00-0.102D+00-0.367D+00
 Coeff:     -0.142D+00 0.519D+00 0.903D+00
 Gap=     0.090 Goal=   None    Shift=    0.000
 Gap=     0.122 Goal=   None    Shift=    0.000
 RMSDP=1.22D-06 MaxDP=4.02D-04 DE=-9.99D-07 OVMax= 2.52D-03

 Cycle  16  Pass 1  IDiag  1:
 RMSU=  2.21D-07    CP:  9.71D-01  2.69D+00  9.13D-01  8.02D-01  1.45D+00
                    CP:  1.88D+00  3.00D+00  3.00D+00  3.00D+00  3.00D+00
                    CP:  3.00D+00  3.00D+00  3.00D+00  2.41D+00  1.67D+00
 E= -3158.44175385793     Delta-E=       -0.000000342856 Rises=F Damp=F
 DIIS: error= 1.70D-06 at cycle  16 NSaved=  16.
 NSaved=16 IEnMin=16 EnMin= -3158.44175385793     IErMin=16 ErrMin= 1.70D-06
 ErrMax= 1.70D-06  0.00D+00 EMaxC= 1.00D-01 BMatC= 2.09D-08 BMatP= 6.18D-08
 IDIUse=1 WtCom= 1.00D+00 WtEn= 0.00D+00
 Coeff-Com:  0.194D-04-0.278D-04 0.471D-04 0.269D-03 0.956D-03 0.211D-02
 Coeff-Com:  0.133D-02-0.145D-01-0.285D-01 0.311D-01 0.136D+00 0.361D-01
 Coeff-Com: -0.280D+00-0.282D+00 0.367D+00 0.103D+01
 Coeff:      0.194D-04-0.278D-04 0.471D-04 0.269D-03 0.956D-03 0.211D-02
 Coeff:      0.133D-02-0.145D-01-0.285D-01 0.311D-01 0.136D+00 0.361D-01
 Coeff:     -0.280D+00-0.282D+00 0.367D+00 0.103D+01
 Gap=     0.090 Goal=   None    Shift=    0.000
 Gap=     0.122 Goal=   None    Shift=    0.000
 RMSDP=5.73D-07 MaxDP=2.04D-04 DE=-3.43D-07 OVMax= 1.22D-03

 Cycle  17  Pass 1  IDiag  1:
 RMSU=  2.19D-07    CP:  9.71D-01  2.69D+00  9.13D-01  8.01D-01  1.45D+00
                    CP:  1.88D+00  3.00D+00  3.00D+00  3.00D+00  3.00D+00
                    CP:  3.00D+00  3.00D+00  3.00D+00  2.66D+00  2.05D+00
                    CP:  2.85D+00
 E= -3158.44175395441     Delta-E=       -0.000000096474 Rises=F Damp=F
 DIIS: error= 7.92D-07 at cycle  17 NSaved=  17.
 NSaved=17 IEnMin=17 EnMin= -3158.44175395441     IErMin=17 ErrMin= 7.92D-07
 ErrMax= 7.92D-07  0.00D+00 EMaxC= 1.00D-01 BMatC= 8.07D-09 BMatP= 2.09D-08
 IDIUse=1 WtCom= 1.00D+00 WtEn= 0.00D+00
 Coeff-Com:  0.619D-04-0.898D-04-0.211D-03-0.405D-03-0.937D-04 0.272D-02
 Coeff-Com:  0.108D-01 0.372D-02-0.449D-01-0.396D-01 0.644D-01 0.145D+00
 Coeff-Com: -0.125D-01-0.292D+00-0.254D+00 0.370D+00 0.105D+01
 Coeff:      0.619D-04-0.898D-04-0.211D-03-0.405D-03-0.937D-04 0.272D-02
 Coeff:      0.108D-01 0.372D-02-0.449D-01-0.396D-01 0.644D-01 0.145D+00
 Coeff:     -0.125D-01-0.292D+00-0.254D+00 0.370D+00 0.105D+01
 Gap=     0.090 Goal=   None    Shift=    0.000
 Gap=     0.122 Goal=   None    Shift=    0.000
 RMSDP=3.64D-07 MaxDP=1.38D-04 DE=-9.65D-08 OVMax= 7.44D-04

 Cycle  18  Pass 1  IDiag  1:
 RMSU=  2.41D-07    CP:  9.71D-01  2.69D+00  9.13D-01  8.01D-01  1.45D+00
                    CP:  1.88D+00  3.00D+00  3.00D+00  3.00D+00  3.00D+00
                    CP:  3.00D+00  3.00D+00  3.00D+00  2.82D+00  2.30D+00
                    CP:  3.00D+00  1.53D+00
 E= -3158.44175398570     Delta-E=       -0.000000031299 Rises=F Damp=F
 DIIS: error= 3.64D-07 at cycle  18 NSaved=  18.
 NSaved=18 IEnMin=18 EnMin= -3158.44175398570     IErMin=18 ErrMin= 3.64D-07
 ErrMax= 3.64D-07  0.00D+00 EMaxC= 1.00D-01 BMatC= 2.29D-09 BMatP= 8.07D-09
 IDIUse=1 WtCom= 1.00D+00 WtEn= 0.00D+00
 Coeff-Com:  0.117D-04-0.179D-04-0.981D-04-0.243D-03-0.400D-03 0.223D-03
 Coeff-Com:  0.340D-02 0.627D-02-0.474D-02-0.256D-01-0.302D-01 0.389D-01
 Coeff-Com:  0.111D+00-0.394D-02-0.244D+00-0.236D+00 0.373D+00 0.101D+01
 Coeff:      0.117D-04-0.179D-04-0.981D-04-0.243D-03-0.400D-03 0.223D-03
 Coeff:      0.340D-02 0.627D-02-0.474D-02-0.256D-01-0.302D-01 0.389D-01
 Coeff:      0.111D+00-0.394D-02-0.244D+00-0.236D+00 0.373D+00 0.101D+01
 Gap=     0.090 Goal=   None    Shift=    0.000
 Gap=     0.122 Goal=   None    Shift=    0.000
 RMSDP=1.56D-07 MaxDP=6.31D-05 DE=-3.13D-08 OVMax= 3.03D-04

 Cycle  19  Pass 1  IDiag  1:
 RMSU=  2.89D-08    CP:  9.71D-01  2.69D+00  9.13D-01  8.01D-01  1.45D+00
                    CP:  1.88D+00  3.00D+00  3.00D+00  3.00D+00  3.00D+00
                    CP:  3.00D+00  3.00D+00  3.00D+00  2.89D+00  2.41D+00
                    CP:  3.00D+00  1.79D+00  1.47D+00
 E= -3158.44175399169     Delta-E=       -0.000000005981 Rises=F Damp=F
 DIIS: error= 1.54D-07 at cycle  19 NSaved=  19.
 NSaved=19 IEnMin=19 EnMin= -3158.44175399169     IErMin=19 ErrMin= 1.54D-07
 ErrMax= 1.54D-07  0.00D+00 EMaxC= 1.00D-01 BMatC= 5.06D-10 BMatP= 2.29D-09
 IDIUse=1 WtCom= 1.00D+00 WtEn= 0.00D+00
 Coeff-Com: -0.138D-04 0.194D-04 0.232D-04 0.304D-04-0.962D-04-0.625D-03
 Coeff-Com: -0.164D-02 0.100D-02 0.106D-01 0.144D-02-0.259D-01-0.263D-01
 Coeff-Com:  0.397D-01 0.766D-01-0.729D-02-0.162D+00-0.172D+00 0.306D+00
 Coeff-Com:  0.960D+00
 Coeff:     -0.138D-04 0.194D-04 0.232D-04 0.304D-04-0.962D-04-0.625D-03
 Coeff:     -0.164D-02 0.100D-02 0.106D-01 0.144D-02-0.259D-01-0.263D-01
 Coeff:      0.397D-01 0.766D-01-0.729D-02-0.162D+00-0.172D+00 0.306D+00
 Coeff:      0.960D+00
 Gap=     0.090 Goal=   None    Shift=    0.000
 Gap=     0.122 Goal=   None    Shift=    0.000
 RMSDP=3.72D-08 MaxDP=1.52D-05 DE=-5.98D-09 OVMax= 5.58D-05

 Cycle  20  Pass 1  IDiag  1:
 RMSU=  1.20D-08    CP:  9.71D-01  2.69D+00  9.13D-01  8.01D-01  1.45D+00
                    CP:  1.88D+00  3.00D+00  3.00D+00  3.00D+00  3.00D+00
                    CP:  3.00D+00  3.00D+00  3.00D+00  2.90D+00  2.44D+00
                    CP:  3.00D+00  1.83D+00  1.57D+00  1.50D+00
 E= -3158.44175399410     Delta-E=       -0.000000002410 Rises=F Damp=F
 DIIS: error= 8.17D-08 at cycle  20 NSaved=  20.
 NSaved=20 IEnMin=20 EnMin= -3158.44175399410     IErMin=20 ErrMin= 8.17D-08
 ErrMax= 8.17D-08  0.00D+00 EMaxC= 1.00D-01 BMatC= 1.73D-10 BMatP= 5.06D-10
 IDIUse=1 WtCom= 1.00D+00 WtEn= 0.00D+00
 Coeff-Com: -0.865D-05 0.125D-04 0.309D-04 0.613D-04 0.254D-04-0.372D-03
 Coeff-Com: -0.157D-02-0.714D-03 0.631D-02 0.591D-02-0.633D-02-0.215D-01
 Coeff-Com: -0.387D-02 0.398D-01 0.475D-01-0.313D-01-0.164D+00-0.657D-01
 Coeff-Com:  0.488D+00 0.708D+00
 Coeff:     -0.865D-05 0.125D-04 0.309D-04 0.613D-04 0.254D-04-0.372D-03
 Coeff:     -0.157D-02-0.714D-03 0.631D-02 0.591D-02-0.633D-02-0.215D-01
 Coeff:     -0.387D-02 0.398D-01 0.475D-01-0.313D-01-0.164D+00-0.657D-01
 Coeff:      0.488D+00 0.708D+00
 Gap=     0.090 Goal=   None    Shift=    0.000
 Gap=     0.122 Goal=   None    Shift=    0.000
 RMSDP=1.21D-08 MaxDP=5.31D-06 DE=-2.41D-09 OVMax= 1.59D-05

 Cycle  21  Pass 1  IDiag  1:
 Restarting incremental Fock formation.
 E= -3158.44175399330     Delta-E=        0.000000000800 Rises=F Damp=F
 DIIS: error= 3.64D-08 at cycle  21 NSaved=  20.
 NSaved=20 IEnMin=19 EnMin= -3158.44175399410     IErMin=20 ErrMin= 3.64D-08
 ErrMax= 3.64D-08  0.00D+00 EMaxC= 1.00D-01 BMatC= 2.09D-11 BMatP= 1.73D-10
 IDIUse=1 WtCom= 1.00D+00 WtEn= 0.00D+00
 Coeff-Com:  0.321D-06 0.580D-05 0.103D-04 0.245D-04 0.258D-04-0.155D-03
 Coeff-Com: -0.328D-03-0.414D-03 0.127D-02 0.315D-02-0.280D-03-0.851D-02
 Coeff-Com: -0.527D-02 0.107D-01 0.255D-01 0.365D-02-0.798D-01-0.982D-01
 Coeff-Com:  0.121D+00 0.103D+01
 Coeff:      0.321D-06 0.580D-05 0.103D-04 0.245D-04 0.258D-04-0.155D-03
 Coeff:     -0.328D-03-0.414D-03 0.127D-02 0.315D-02-0.280D-03-0.851D-02
 Coeff:     -0.527D-02 0.107D-01 0.255D-01 0.365D-02-0.798D-01-0.982D-01
 Coeff:      0.121D+00 0.103D+01
 Gap=     0.090 Goal=   None    Shift=    0.000
 Gap=     0.122 Goal=   None    Shift=    0.000
 RMSDP=1.09D-08 MaxDP=3.96D-06 DE= 8.00D-10 OVMax= 9.85D-06

 Cycle  22  Pass 1  IDiag  1:
 RMSU=  1.09D-08    CP:  1.00D+00
 E= -3158.44175399300     Delta-E=        0.000000000298 Rises=F Damp=F
 DIIS: error= 1.68D-08 at cycle  22 NSaved=  20.
 NSaved=20 IEnMin=18 EnMin= -3158.44175399410     IErMin=20 ErrMin= 1.68D-08
 ErrMax= 1.68D-08  0.00D+00 EMaxC= 1.00D-01 BMatC= 5.00D-12 BMatP= 2.09D-11
 IDIUse=1 WtCom= 1.00D+00 WtEn= 0.00D+00
 Coeff-Com:  0.162D-05 0.264D-05 0.135D-04 0.409D-04 0.372D-04-0.101D-03
 Coeff-Com: -0.557D-03 0.203D-04 0.122D-02 0.179D-02-0.156D-02-0.521D-02
 Coeff-Com: -0.379D-02 0.103D-01 0.241D-01-0.100D-01-0.995D-01-0.845D-01
 Coeff-Com:  0.271D+00 0.896D+00
 Coeff:      0.162D-05 0.264D-05 0.135D-04 0.409D-04 0.372D-04-0.101D-03
 Coeff:     -0.557D-03 0.203D-04 0.122D-02 0.179D-02-0.156D-02-0.521D-02
 Coeff:     -0.379D-02 0.103D-01 0.241D-01-0.100D-01-0.995D-01-0.845D-01
 Coeff:      0.271D+00 0.896D+00
 Gap=     0.090 Goal=   None    Shift=    0.000
 Gap=     0.122 Goal=   None    Shift=    0.000
 RMSDP=2.63D-09 MaxDP=1.39D-06 DE= 2.98D-10 OVMax= 1.64D-06

 Cycle  23  Pass 1  IDiag  1:
 RMSU=  1.49D-09    CP:  1.00D+00  1.20D+00
 E= -3158.44175399278     Delta-E=        0.000000000213 Rises=F Damp=F
 DIIS: error= 9.52D-09 at cycle  23 NSaved=  20.
 NSaved=20 IEnMin=17 EnMin= -3158.44175399410     IErMin=20 ErrMin= 9.52D-09
 ErrMax= 9.52D-09  0.00D+00 EMaxC= 1.00D-01 BMatC= 1.73D-12 BMatP= 5.00D-12
 IDIUse=1 WtCom= 1.00D+00 WtEn= 0.00D+00
 Coeff-Com:  0.647D-06 0.690D-05 0.239D-04 0.487D-04-0.259D-04-0.250D-03
 Coeff-Com: -0.199D-03 0.159D-03 0.902D-03 0.592D-03-0.147D-02-0.377D-02
 Coeff-Com:  0.290D-03 0.943D-02 0.113D-01-0.237D-01-0.644D-01-0.138D+00
 Coeff-Com:  0.387D+00 0.822D+00
 Coeff:      0.647D-06 0.690D-05 0.239D-04 0.487D-04-0.259D-04-0.250D-03
 Coeff:     -0.199D-03 0.159D-03 0.902D-03 0.592D-03-0.147D-02-0.377D-02
 Coeff:      0.290D-03 0.943D-02 0.113D-01-0.237D-01-0.644D-01-0.138D+00
 Coeff:      0.387D+00 0.822D+00
 Gap=     0.090 Goal=   None    Shift=    0.000
 Gap=     0.122 Goal=   None    Shift=    0.000
 RMSDP=2.11D-09 MaxDP=1.23D-06 DE= 2.13D-10 OVMax= 2.57D-06

 Cycle  24  Pass 1  IDiag  1:
 RMSU=  1.72D-09    CP:  1.00D+00  1.27D+00  1.61D+00
 E= -3158.44175399313     Delta-E=       -0.000000000344 Rises=F Damp=F
 DIIS: error= 3.87D-09 at cycle  24 NSaved=  20.
 NSaved=20 IEnMin=16 EnMin= -3158.44175399410     IErMin=20 ErrMin= 3.87D-09
 ErrMax= 3.87D-09  0.00D+00 EMaxC= 1.00D-01 BMatC= 3.29D-13 BMatP= 1.73D-12
 IDIUse=1 WtCom= 1.00D+00 WtEn= 0.00D+00
 Coeff-Com: -0.269D-05-0.102D-04-0.155D-04 0.253D-04 0.164D-03-0.231D-04
 Coeff-Com: -0.479D-03-0.371D-03 0.812D-03 0.143D-02-0.236D-03-0.314D-02
 Coeff-Com: -0.386D-02 0.640D-02 0.192D-01 0.575D-02-0.100D+00-0.110D+00
 Coeff-Com:  0.180D+00 0.100D+01
 Coeff:     -0.269D-05-0.102D-04-0.155D-04 0.253D-04 0.164D-03-0.231D-04
 Coeff:     -0.479D-03-0.371D-03 0.812D-03 0.143D-02-0.236D-03-0.314D-02
 Coeff:     -0.386D-02 0.640D-02 0.192D-01 0.575D-02-0.100D+00-0.110D+00
 Coeff:      0.180D+00 0.100D+01
 Gap=     0.090 Goal=   None    Shift=    0.000
 Gap=     0.122 Goal=   None    Shift=    0.000
 RMSDP=1.01D-09 MaxDP=2.97D-07 DE=-3.44D-10 OVMax= 2.61D-07

 Error on total polarization charges =  0.03298
 SCF Done:  E(UM062X) =  -3158.44175399     A.U. after   24 cycles
            NFock= 24  Conv=0.10D-08     -V/T= 2.0056
 <Sx>= 0.0000 <Sy>= 0.0000 <Sz>= 0.5000 <S**2>= 0.7847 S= 0.5172
 <L.S>= 0.000000000000E+00
 KE= 3.140856510690D+03 PE=-2.846360970348D+04 EE= 1.162698276708D+04
 Annihilation of the first spin contaminant:
 S**2 before annihilation     0.7847,   after     0.7511
 Leave Link  502 at Wed Nov  5 23:40:41 2025, MaxMem= 30870077440 cpu:          388745.1 elap:            6149.5
 (Enter /public/software/gauss/g16/l601.exe)
 Copying SCF densities to generalized density rwf, IOpCl= 1 IROHF=0.
 Hyperfine terms turned off by default for NAtoms > 100.

 **********************************************************************

            Population analysis using the SCF density.

 **********************************************************************

 Orbital symmetries:
 Alpha Orbitals:
       Occupied  (A) (A) (A) (A) (A) (A) (A) (A) (A) (A) (A) (A)
                 (A) (A) (A) (A) (A) (A) (A) (A) (A) (A) (A) (A)
                 (A) (A) (A) (A) (A) (A) (A) (A) (A) (A) (A) (A)
                 (A) (A) (A) (A) (A) (A) (A) (A) (A) (A) (A) (A)
                 (A) (A) (A) (A) (A) (A) (A) (A) (A) (A) (A) (A)
                 (A) (A) (A) (A) (A) (A) (A) (A) (A) (A) (A) (A)
                 (A) (A) (A) (A) (A) (A) (A) (A) (A) (A) (A) (A)
                 (A) (A) (A) (A) (A) (A) (A) (A) (A) (A) (A) (A)
                 (A) (A) (A) (A) (A) (A) (A) (A) (A) (A) (A) (A)
                 (A) (A) (A) (A) (A) (A) (A) (A) (A) (A) (A) (A)
                 (A) (A) (A) (A) (A) (A) (A) (A) (A) (A) (A) (A)
                 (A) (A) (A) (A) (A) (A) (A) (A) (A) (A) (A) (A)
                 (A) (A) (A) (A) (A) (A) (A) (A) (A) (A) (A) (A)
                 (A) (A) (A) (A) (A) (A) (A) (A) (A) (A) (A) (A)
                 (A) (A) (A) (A) (A) (A) (A) (A) (A) (A) (A) (A)
                 (A) (A) (A) (A) (A) (A) (A) (A) (A) (A) (A) (A)
                 (A) (A) (A) (A) (A) (A) (A) (A) (A) (A) (A) (A)
                 (A) (A) (A) (A) (A) (A) (A) (A) (A) (A) (A) (A)
                 (A) (A) (A) (A) (A) (A) (A) (A) (A) (A) (A) (A)
                 (A) (A) (A) (A) (A) (A) (A) (A) (A) (A) (A) (A)
                 (A) (A) (A) (A) (A) (A) (A) (A) (A) (A) (A) (A)
                 (A) (A) (A) (A) (A) (A) (A) (A)
       Virtual   (A) (A) (A) (A) (A) (A) (A) (A) (A) (A) (A) (A)
                 (A) (A) (A) (A) (A) (A) (A) (A) (A) (A) (A) (A)
                 (A) (A) (A) (A) (A) (A) (A) (A) (A) (A) (A) (A)
                 (A) (A) (A) (A) (A) (A) (A) (A) (A) (A) (A) (A)
                 (A) (A) (A) (A) (A) (A) (A) (A) (A) (A) (A) (A)
                 (A) (A) (A) (A) (A) (A) (A) (A) (A) (A) (A) (A)
                 (A) (A) (A) (A) (A) (A) (A) (A) (A) (A) (A) (A)
                 (A) (A) (A) (A) (A) (A) (A) (A) (A) (A) (A) (A)
                 (A) (A) (A) (A) (A) (A) (A) (A) (A) (A) (A) (A)
                 (A) (A) (A) (A) (A) (A) (A) (A) (A) (A) (A) (A)
                 (A) (A) (A) (A) (A) (A) (A) (A) (A) (A) (A) (A)
                 (A) (A) (A) (A) (A) (A) (A) (A) (A) (A) (A) (A)
                 (A) (A) (A) (A) (A) (A) (A) (A) (A) (A) (A) (A)
                 (A) (A) (A) (A) (A) (A) (A) (A) (A) (A) (A) (A)
                 (A) (A) (A) (A) (A) (A) (A) (A) (A) (A) (A) (A)
                 (A) (A) (A) (A) (A) (A) (A) (A) (A) (A) (A) (A)
                 (A) (A) (A) (A) (A) (A) (A) (A) (A) (A) (A) (A)
                 (A) (A) (A) (A) (A) (A) (A) (A) (A) (A) (A) (A)
                 (A) (A) (A) (A) (A) (A) (A) (A) (A) (A) (A) (A)
                 (A) (A) (A) (A) (A) (A) (A) (A) (A) (A) (A) (A)
                 (A) (A) (A) (A) (A) (A) (A) (A) (A) (A) (A) (A)
                 (A) (A) (A) (A) (A) (A) (A) (A) (A) (A) (A) (A)
                 (A) (A) (A) (A) (A) (A) (A) (A) (A) (A) (A) (A)
                 (A) (A) (A) (A) (A) (A) (A) (A) (A) (A) (A) (A)
                 (A) (A) (A) (A) (A) (A) (A) (A) (A) (A) (A) (A)
                 (A) (A) (A) (A) (A) (A) (A) (A) (A) (A) (A) (A)
                 (A) (A) (A) (A) (A) (A) (A) (A) (A) (A) (A) (A)
                 (A) (A) (A) (A) (A) (A) (A) (A) (A) (A) (A) (A)
                 (A) (A) (A) (A) (A) (A) (A) (A) (A) (A) (A) (A)
                 (A) (A) (A) (A) (A) (A) (A) (A) (A) (A) (A) (A)
                 (A) (A) (A) (A) (A) (A) (A) (A) (A) (A) (A) (A)
                 (A) (A) (A) (A) (A) (A) (A) (A) (A) (A) (A) (A)
                 (A) (A) (A) (A) (A) (A) (A) (A) (A) (A) (A) (A)
                 (A) (A) (A) (A) (A) (A) (A) (A) (A) (A) (A) (A)
                 (A) (A) (A) (A) (A) (A) (A) (A) (A) (A) (A) (A)
                 (A) (A) (A) (A) (A) (A) (A) (A) (A) (A) (A) (A)
                 (A) (A) (A) (A) (A) (A) (A) (A) (A) (A) (A) (A)
                 (A) (A) (A) (A) (A) (A) (A) (A) (A) (A) (A) (A)
                 (A) (A) (A) (A) (A) (A) (A) (A) (A) (A) (A) (A)
                 (A) (A) (A) (A) (A) (A) (A) (A) (A) (A) (A) (A)
                 (A) (A) (A) (A) (A) (A) (A) (A) (A) (A) (A) (A)
                 (A) (A) (A) (A) (A) (A) (A) (A) (A) (A) (A) (A)
                 (A) (A) (A) (A) (A) (A) (A) (A) (A) (A) (A) (A)
                 (A) (A) (A) (A) (A) (A) (A) (A) (A) (A) (A) (A)
                 (A) (A) (A) (A) (A) (A) (A) (A) (A) (A) (A) (A)
                 (A) (A) (A) (A) (A) (A) (A) (A) (A) (A) (A) (A)
                 (A) (A) (A) (A) (A) (A) (A) (A) (A) (A) (A) (A)
                 (A) (A) (A) (A) (A) (A) (A) (A) (A) (A) (A) (A)
                 (A) (A) (A) (A) (A) (A) (A) (A) (A) (A) (A) (A)
                 (A) (A) (A) (A) (A) (A) (A) (A) (A) (A) (A) (A)
                 (A) (A) (A) (A) (A) (A) (A) (A) (A) (A) (A) (A)
                 (A) (A) (A) (A) (A) (A) (A) (A) (A) (A) (A) (A)
                 (A) (A) (A) (A) (A) (A) (A) (A) (A) (A) (A) (A)
                 (A) (A) (A) (A) (A) (A) (A) (A) (A) (A) (A) (A)
                 (A) (A) (A) (A) (A) (A) (A) (A) (A) (A) (A) (A)
                 (A) (A) (A) (A) (A) (A) (A) (A) (A) (A) (A) (A)
                 (A) (A) (A) (A) (A) (A) (A) (A) (A) (A) (A) (A)
                 (A) (A) (A) (A) (A) (A) (A) (A) (A) (A) (A) (A)
                 (A) (A) (A) (A) (A) (A) (A) (A) (A) (A) (A) (A)
                 (A) (A) (A) (A) (A) (A) (A) (A) (A) (A) (A) (A)
                 (A) (A) (A) (A) (A) (A) (A) (A) (A) (A) (A) (A)
                 (A) (A) (A) (A) (A) (A) (A) (A) (A) (A) (A) (A)
                 (A) (A) (A) (A) (A) (A) (A) (A) (A) (A) (A) (A)
                 (A) (A) (A) (A) (A) (A) (A) (A) (A) (A) (A) (A)
                 (A) (A) (A) (A) (A) (A) (A) (A) (A) (A) (A) (A)
                 (A) (A) (A) (A) (A) (A) (A) (A) (A) (A) (A) (A)
                 (A) (A) (A) (A) (A) (A) (A) (A) (A) (A) (A) (A)
                 (A) (A) (A) (A) (A) (A) (A) (A) (A) (A) (A) (A)
                 (A) (A) (A) (A) (A) (A) (A) (A) (A) (A) (A) (A)
                 (A) (A) (A) (A) (A) (A) (A) (A) (A) (A) (A) (A)
                 (A) (A) (A) (A) (A) (A) (A) (A) (A) (A) (A) (A)
                 (A) (A) (A) (A) (A) (A) (A) (A) (A) (A) (A) (A)
                 (A) (A) (A) (A) (A) (A) (A) (A) (A) (A) (A) (A)
                 (A) (A) (A) (A) (A) (A) (A) (A) (A) (A) (A) (A)
                 (A) (A) (A) (A) (A) (A) (A) (A) (A) (A) (A) (A)
                 (A) (A) (A) (A) (A) (A) (A) (A) (A) (A) (A) (A)
                 (A) (A) (A) (A) (A) (A) (A) (A) (A) (A) (A) (A)
                 (A) (A) (A) (A) (A) (A) (A) (A) (A) (A) (A) (A)
                 (A) (A) (A) (A) (A) (A) (A) (A) (A) (A) (A) (A)
                 (A) (A) (A) (A) (A) (A) (A) (A) (A) (A) (A) (A)
                 (A) (A) (A) (A) (A) (A) (A) (A) (A) (A) (A) (A)
                 (A) (A) (A) (A) (A) (A) (A) (A) (A) (A) (A) (A)
                 (A) (A) (A) (A) (A) (A) (A) (A) (A) (A) (A) (A)
                 (A) (A) (A) (A) (A) (A) (A) (A) (A) (A) (A) (A)
                 (A) (A) (A) (A) (A) (A) (A) (A) (A) (A) (A) (A)
                 (A) (A) (A) (A) (A) (A) (A) (A) (A) (A) (A) (A)
                 (A) (A) (A) (A) (A) (A) (A) (A) (A) (A) (A) (A)
                 (A) (A) (A) (A) (A) (A) (A) (A) (A) (A) (A) (A)
                 (A) (A) (A) (A) (A) (A) (A) (A) (A) (A) (A) (A)
                 (A) (A) (A) (A) (A) (A) (A) (A) (A) (A) (A) (A)
                 (A) (A) (A) (A) (A) (A) (A) (A) (A) (A) (A) (A)
                 (A) (A) (A) (A) (A) (A) (A) (A) (A) (A) (A) (A)
                 (A) (A) (A) (A) (A) (A) (A) (A) (A) (A) (A) (A)
                 (A) (A) (A) (A) (A) (A) (A) (A) (A) (A) (A) (A)
                 (A) (A) (A) (A) (A) (A) (A) (A) (A) (A) (A) (A)
                 (A) (A) (A) (A) (A) (A) (A) (A) (A) (A) (A) (A)
                 (A) (A) (A) (A) (A) (A) (A) (A) (A) (A) (A) (A)
                 (A) (A) (A) (A) (A) (A) (A) (A) (A) (A) (A) (A)
                 (A) (A) (A) (A) (A) (A) (A) (A) (A) (A) (A) (A)
                 (A) (A) (A) (A) (A) (A) (A) (A) (A) (A) (A) (A)
                 (A) (A) (A) (A) (A) (A) (A) (A) (A) (A) (A) (A)
                 (A) (A) (A) (A) (A) (A) (A) (A) (A) (A) (A) (A)
                 (A) (A) (A) (A) (A) (A) (A) (A) (A) (A) (A) (A)
                 (A) (A) (A) (A) (A) (A) (A) (A) (A) (A) (A) (A)
                 (A) (A) (A) (A) (A) (A) (A) (A) (A) (A) (A) (A)
                 (A) (A) (A) (A) (A) (A) (A) (A) (A) (A) (A) (A)
                 (A) (A) (A) (A) (A) (A) (A) (A) (A) (A) (A) (A)
                 (A) (A) (A) (A) (A) (A) (A) (A) (A) (A) (A) (A)
                 (A) (A) (A) (A) (A) (A) (A) (A) (A) (A) (A) (A)
                 (A) (A) (A) (A) (A) (A) (A) (A) (A) (A) (A) (A)
                 (A) (A) (A) (A) (A) (A) (A) (A) (A) (A) (A) (A)
                 (A) (A) (A) (A) (A) (A) (A) (A) (A) (A) (A) (A)
                 (A) (A) (A) (A) (A) (A) (A) (A) (A) (A) (A) (A)
                 (A) (A) (A) (A) (A) (A) (A) (A) (A) (A) (A) (A)
                 (A) (A) (A) (A) (A) (A) (A) (A) (A) (A) (A) (A)
                 (A) (A) (A) (A) (A) (A) (A) (A) (A) (A) (A) (A)
                 (A) (A) (A) (A) (A) (A) (A) (A) (A) (A) (A) (A)
                 (A) (A) (A) (A) (A) (A) (A) (A) (A) (A) (A) (A)
                 (A) (A) (A) (A) (A) (A) (A) (A) (A) (A) (A) (A)
                 (A) (A) (A) (A) (A) (A) (A) (A) (A) (A) (A) (A)
                 (A) (A) (A) (A) (A) (A) (A) (A) (A) (A) (A) (A)
                 (A) (A) (A) (A) (A) (A) (A) (A) (A) (A) (A) (A)
                 (A) (A) (A) (A) (A) (A) (A) (A) (A) (A) (A) (A)
                 (A) (A) (A) (A) (A) (A) (A) (A) (A) (A) (A) (A)
                 (A) (A) (A) (A) (A) (A) (A) (A) (A) (A) (A) (A)
                 (A) (A) (A) (A) (A) (A) (A) (A) (A) (A) (A) (A)
                 (A) (A) (A) (A) (A) (A) (A) (A) (A) (A) (A) (A)
                 (A) (A) (A) (A) (A) (A) (A) (A) (A) (A) (A) (A)
                 (A) (A) (A) (A) (A) (A) (A) (A) (A) (A) (A) (A)
                 (A) (A) (A) (A) (A) (A) (A) (A) (A) (A) (A) (A)
                 (A) (A) (A) (A) (A) (A) (A) (A) (A) (A) (A) (A)
                 (A) (A) (A) (A) (A) (A) (A) (A) (A) (A) (A) (A)
                 (A) (A) (A) (A) (A) (A) (A) (A) (A) (A) (A) (A)
                 (A) (A) (A) (A) (A) (A) (A) (A) (A) (A) (A) (A)
                 (A) (A) (A) (A) (A) (A) (A) (A) (A) (A) (A) (A)
                 (A) (A) (A) (A) (A) (A) (A) (A) (A) (A) (A) (A)
                 (A) (A) (A) (A) (A) (A) (A) (A) (A) (A) (A) (A)
                 (A) (A) (A) (A) (A) (A) (A) (A) (A) (A) (A) (A)
                 (A) (A) (A) (A) (A) (A) (A) (A) (A) (A) (A) (A)
                 (A) (A) (A) (A) (A) (A) (A) (A) (A) (A) (A) (A)
                 (A) (A) (A) (A) (A) (A) (A) (A) (A) (A) (A) (A)
                 (A) (A) (A) (A) (A) (A) (A) (A) (A) (A) (A) (A)
                 (A) (A) (A) (A) (A) (A) (A) (A) (A) (A) (A) (A)
                 (A) (A) (A) (A) (A) (A) (A) (A) (A) (A) (A) (A)
                 (A) (A) (A) (A) (A) (A) (A) (A) (A) (A) (A) (A)
                 (A) (A) (A) (A) (A) (A) (A) (A) (A) (A) (A) (A)
                 (A) (A) (A) (A) (A) (A) (A) (A) (A) (A) (A) (A)
                 (A) (A) (A) (A) (A) (A) (A) (A) (A) (A) (A) (A)
                 (A) (A) (A) (A) (A) (A) (A) (A) (A) (A) (A) (A)
                 (A) (A) (A) (A) (A) (A) (A) (A) (A) (A) (A) (A)
                 (A) (A) (A) (A) (A) (A) (A) (A) (A) (A) (A) (A)
                 (A) (A) (A) (A) (A) (A) (A) (A) (A) (A) (A) (A)
                 (A) (A) (A) (A) (A) (A) (A) (A) (A) (A) (A) (A)
                 (A) (A) (A) (A) (A) (A) (A) (A) (A) (A) (A) (A)
                 (A) (A) (A) (A) (A) (A) (A) (A) (A) (A) (A) (A)
                 (A) (A) (A) (A) (A) (A) (A) (A) (A) (A) (A) (A)
                 (A) (A) (A) (A) (A) (A) (A) (A) (A) (A) (A) (A)
                 (A) (A) (A) (A) (A) (A) (A) (A) (A) (A) (A) (A)
                 (A) (A) (A) (A) (A) (A) (A) (A) (A) (A) (A) (A)
                 (A) (A) (A) (A) (A) (A) (A) (A) (A) (A) (A) (A)
                 (A) (A) (A) (A) (A) (A) (A) (A) (A) (A) (A) (A)
                 (A) (A) (A) (A) (A) (A) (A) (A) (A) (A) (A) (A)
                 (A) (A) (A) (A) (A) (A) (A) (A) (A) (A) (A) (A)
                 (A) (A) (A) (A) (A) (A) (A) (A) (A) (A) (A) (A)
                 (A) (A) (A) (A) (A) (A) (A) (A) (A) (A) (A) (A)
                 (A) (A) (A) (A) (A) (A) (A) (A) (A) (A) (A) (A)
                 (A) (A) (A) (A) (A) (A) (A) (A) (A) (A) (A) (A)
                 (A) (A) (A) (A) (A) (A) (A) (A) (A) (A) (A) (A)
                 (A) (A) (A) (A) (A) (A) (A) (A) (A) (A) (A) (A)
                 (A) (A) (A) (A) (A) (A) (A) (A) (A) (A) (A) (A)
                 (A) (A) (A) (A) (A) (A) (A) (A) (A) (A) (A) (A)
                 (A) (A) (A) (A) (A) (A) (A) (A) (A) (A) (A) (A)
                 (A) (A) (A) (A) (A) (A) (A) (A) (A) (A) (A) (A)
                 (A) (A) (A) (A) (A) (A) (A) (A) (A) (A) (A) (A)
                 (A) (A) (A) (A) (A) (A) (A) (A) (A) (A) (A) (A)
                 (A) (A) (A) (A) (A) (A) (A) (A) (A) (A) (A) (A)
                 (A) (A) (A) (A) (A) (A) (A) (A) (A) (A) (A) (A)
                 (A) (A) (A) (A) (A) (A) (A) (A) (A) (A) (A) (A)
                 (A) (A) (A) (A) (A) (A) (A) (A) (A) (A) (A) (A)
                 (A) (A) (A) (A) (A) (A) (A) (A) (A) (A) (A) (A)
                 (A) (A) (A) (A) (A) (A) (A) (A) (A) (A) (A) (A)
                 (A) (A) (A) (A) (A) (A) (A) (A) (A) (A) (A) (A)
                 (A) (A) (A) (A) (A) (A) (A) (A) (A) (A) (A) (A)
                 (A) (A) (A) (A) (A) (A) (A) (A) (A) (A) (A) (A)
                 (A) (A) (A) (A) (A) (A) (A) (A) (A) (A) (A) (A)
[...]
  Beta virt. eigenvalues --    4.92815   4.93311   4.93660   4.93788   4.94146
  Beta virt. eigenvalues --    4.94397   4.94887   4.95017   4.95239   4.95360
  Beta virt. eigenvalues --    4.95472   4.95859   4.96018   4.96074   4.96525
  Beta virt. eigenvalues --    4.97056   4.97285   4.97737   4.97791   4.98136
  Beta virt. eigenvalues --    4.98530   4.99022   4.99782   4.99951   5.00640
  Beta virt. eigenvalues --    5.00822   5.01168   5.01206   5.01773   5.02081
  Beta virt. eigenvalues --    5.02754   5.03028   5.03175   5.03420   5.04087
  Beta virt. eigenvalues --    5.04107   5.04462   5.04737   5.04930   5.05506
  Beta virt. eigenvalues --    5.05622   5.06253   5.06919   5.07504   5.08052
  Beta virt. eigenvalues --    5.08460   5.08528   5.09687   5.10404   5.10611
  Beta virt. eigenvalues --    5.11185   5.11757   5.12193   5.12371   5.12519
  Beta virt. eigenvalues --    5.12872   5.13347   5.13695   5.14012   5.14176
  Beta virt. eigenvalues --    5.14267   5.14492   5.14657   5.15308   5.15529
  Beta virt. eigenvalues --    5.16063   5.16349   5.17229   5.17879   5.17932
  Beta virt. eigenvalues --    5.18764   5.18999   5.19087   5.19533   5.20385
  Beta virt. eigenvalues --    5.20637   5.21020   5.21463   5.21701   5.21904
  Beta virt. eigenvalues --    5.22118   5.22667   5.22874   5.22959   5.23611
  Beta virt. eigenvalues --    5.24334   5.25014   5.25603   5.26554   5.26689
  Beta virt. eigenvalues --    5.26755   5.26905   5.26971   5.27153   5.27307
  Beta virt. eigenvalues --    5.27592   5.27648   5.28331   5.28557   5.28888
  Beta virt. eigenvalues --    5.29089   5.29232   5.29299   5.29508   5.29577
  Beta virt. eigenvalues --    5.29820   5.29859   5.29937   5.30013   5.30258
  Beta virt. eigenvalues --    5.30428   5.30960   5.31133   5.31478   5.31564
  Beta virt. eigenvalues --    5.31959   5.32072   5.32917   5.32935   5.33340
  Beta virt. eigenvalues --    5.34075   5.34093   5.34484   5.34559   5.35493
  Beta virt. eigenvalues --    5.36095   5.36298   5.36860   5.37252   5.37701
  Beta virt. eigenvalues --    5.37831   5.38116   5.38392   5.38609   5.39110
  Beta virt. eigenvalues --    5.39163   5.39389   5.39731   5.39916   5.40055
  Beta virt. eigenvalues --    5.40446   5.40971   5.41108   5.41181   5.41387
  Beta virt. eigenvalues --    5.42327   5.42503   5.42667   5.42753   5.42961
  Beta virt. eigenvalues --    5.43081   5.43574   5.43807   5.44004   5.44960
  Beta virt. eigenvalues --    5.45327   5.46535   5.47017   5.47552   5.48987
  Beta virt. eigenvalues --    5.49529   5.50276   5.50528   5.50705   5.50950
  Beta virt. eigenvalues --    5.51688   5.52173   5.52579   5.52807   5.52916
  Beta virt. eigenvalues --    5.53419   5.54268   5.55219   5.55263   5.55991
  Beta virt. eigenvalues --    5.56908   5.57158   5.57745   5.57868   5.58335
  Beta virt. eigenvalues --    5.58552   5.59535   5.59766   5.60014   5.60702
  Beta virt. eigenvalues --    5.60718   5.61233   5.61387   5.61576   5.61792
  Beta virt. eigenvalues --    5.62263   5.62596   5.62837   5.63905   5.64185
  Beta virt. eigenvalues --    5.64303   5.64955   5.65259   5.65798   5.65892
  Beta virt. eigenvalues --    5.66421   5.66867   5.67734   5.67935   5.68061
  Beta virt. eigenvalues --    5.68936   5.69079   5.69453   5.69731   5.69894
  Beta virt. eigenvalues --    5.70168   5.70653   5.72276   5.73038   5.74030
  Beta virt. eigenvalues --    5.74160   5.74994   5.75038   5.75519   5.77462
  Beta virt. eigenvalues --    5.77976   5.78531   5.79477   5.79591   5.79896
  Beta virt. eigenvalues --    5.80584   5.80797   5.82031   5.83874   5.88575
  Beta virt. eigenvalues --    5.88910   5.91063   5.91196   5.91853   5.92251
  Beta virt. eigenvalues --    5.94317   5.94496   5.97796   5.97920   5.99284
  Beta virt. eigenvalues --    5.99353   6.00207   6.00545   6.00942   6.01053
  Beta virt. eigenvalues --    6.01330   6.01728   6.02412   6.04328   6.06088
  Beta virt. eigenvalues --    6.06956   6.07528   6.07566   6.09171   6.10485
  Beta virt. eigenvalues --    6.13111   6.13118   6.13557   6.14574   6.15644
  Beta virt. eigenvalues --    6.15777   6.16828   6.16865   6.18292   6.28478
  Beta virt. eigenvalues --    6.30572   6.33271   6.38556   6.44543   6.45348
  Beta virt. eigenvalues --    6.52205   6.57018   6.59533   6.60848   6.61041
  Beta virt. eigenvalues --    6.61586   6.61606   6.68463   6.69172   6.69237
  Beta virt. eigenvalues --    6.71502   6.83351   6.84901   6.95884   6.97897
  Beta virt. eigenvalues --    6.98237   6.99272   7.01134   7.01551   7.04545
  Beta virt. eigenvalues --    7.05612   7.08137   7.12533   7.18843   7.23552
  Beta virt. eigenvalues --    7.24296   7.25561   7.29382   7.34846   7.35955
  Beta virt. eigenvalues --    7.36635   7.47472   8.49132   8.53633   8.58793
  Beta virt. eigenvalues --    8.65425   8.84537   8.88182   8.94251   8.95920
  Beta virt. eigenvalues --    8.98114   9.01794  15.83646  22.84000  22.84048
  Beta virt. eigenvalues --   22.85697  22.85775  22.87050  22.89788  22.96333
  Beta virt. eigenvalues --   22.96940  22.97720  23.04364  23.10645  23.15455
  Beta virt. eigenvalues --   23.15739  23.16034  23.16064  23.16920  23.16934
  Beta virt. eigenvalues --   23.17829  23.19448  23.19662  23.25762  23.25776
  Beta virt. eigenvalues --   23.26183  23.26223  23.26622  23.26999  23.27051
  Beta virt. eigenvalues --   23.27278  23.27301  23.28854  23.30972  23.32178
  Beta virt. eigenvalues --   23.34074  23.35014  23.35668  23.36122  23.36763
  Beta virt. eigenvalues --   23.36850  23.38331  23.38347  23.39452  23.39930
  Beta virt. eigenvalues --   23.40029  23.43732  23.43935  23.46732  23.48307
  Beta virt. eigenvalues --   23.50543  23.58769  23.59080  23.59363  23.70120
  Beta virt. eigenvalues --   23.70360  23.71191  23.74394  23.76158  23.86921
  Beta virt. eigenvalues --   23.91235  24.06731  24.06744  24.07288  24.07298
  Beta virt. eigenvalues --   24.09797  24.10026  24.18762  32.21830  33.14074
  Beta virt. eigenvalues --   33.25876  33.44668  33.44739  44.04394  44.13052
  Beta virt. eigenvalues --   57.51673  57.59615
          Condensed to atoms (all electrons):
          Atomic-Atomic Spin Densities.
 Mulliken charges and spin densities:
               1          2
     1  C   -0.304733  -0.002270
     2  C   -0.390516   0.005898
     3  C   -0.017456  -0.048223
     4  C    0.028437   0.116355
     5  C   -0.442382  -0.010772
     6  C    0.045375  -0.054136
     7  C    0.148661   0.241642
     8  C   -0.157616  -0.014858
     9  C   -0.213455   0.046025
    10  C   -0.110505  -0.003361
    11  C   -0.031828   0.049942
    12  C    0.010528   0.042105
    13  C   -0.044303   0.079778
    14  C   -0.180412  -0.015836
    15  N   -0.105140   0.029780
    16  C    0.401517   0.002793
    17  O   -0.423649   0.019515
    18  O   -0.339563   0.004346
    19  C   -0.081663  -0.012118
    20  C   -0.206906   0.055632
    21  C    0.045562  -0.053929
    22  C    0.026474   0.116857
    23  C   -0.441482  -0.010600
    24  C   -0.016997  -0.049079
    25  C   -0.390601   0.005714
    26  C   -0.304922  -0.002230
    27  C    0.108703   0.140803
    28  C   -0.166400  -0.082758
    29  C   -0.137753   0.113035
    30  C    0.034266  -0.029087
    31  C   -0.169195   0.033014
    32  C   -0.161008  -0.019112
    33  C   -0.007084   0.036150
    34  N   -0.110392   0.004202
    35  C    0.015942  -0.001583
    36  C   -0.162653   0.001698
    37  C   -0.146009  -0.000939
    38  C   -0.172720   0.001823
    39  C   -0.146711  -0.000990
    40  C   -0.165327   0.002216
    41  C    0.014202  -0.001478
    42  C   -0.161168   0.001642
    43  C   -0.146022  -0.000921
    44  C   -0.171650   0.001760
    45  C   -0.146076  -0.000978
    46  C   -0.165248   0.002117
    47  C   -0.155879  -0.020016
    48  C   -0.135096   0.030167
    49  N   -0.172119   0.019446
    50  B    0.386038   0.002027
    51  F   -0.360777   0.000631
    52  F   -0.360729   0.000622
    53  N   -0.173759   0.019377
    54  C    0.109581   0.140041
    55  C   -0.164005  -0.082168
    56  C   -0.142918   0.112585
    57  C    0.032232  -0.028959
    58  C   -0.174727   0.032449
    59  C   -0.152737  -0.018584
    60  C   -0.002752   0.035536
    61  N   -0.109563   0.004182
    62  C    0.016428  -0.001597
    63  C   -0.161017   0.001664
    64  C   -0.146044  -0.000918
    65  C   -0.172194   0.001782
    66  C   -0.146281  -0.000972
    67  C   -0.167686   0.002159
    68  C    0.015794  -0.001535
    69  C   -0.162657   0.001622
    70  C   -0.145933  -0.000916
    71  C   -0.171910   0.001751
    72  C   -0.145339  -0.000965
    73  C   -0.165366   0.002157
    74  C   -0.155929  -0.019651
    75  C   -0.140126   0.029732
    76  H    0.112990  -0.000118
    77  H    0.122406  -0.000113
    78  H    0.111816   0.000319
    79  H    0.116220  -0.001660
    80  H    0.124338  -0.000588
    81  H    0.131259   0.001445
    82  H    0.144666   0.005840
    83  H    0.150268   0.003152
    84  H    0.182391  -0.001923
    85  H    0.179331  -0.000274
    86  H    0.113135  -0.002776
    87  H    0.270180  -0.000124
    88  H    0.144231   0.000075
    89  H    0.182873  -0.002420
    90  H    0.143925   0.005845
    91  H    0.150944   0.002981
    92  H    0.131482   0.001522
    93  H    0.124303  -0.000628
    94  H    0.116241  -0.001652
    95  H    0.111560   0.000313
    96  H    0.113226  -0.000121
    97  H    0.122387  -0.000104
    98  H    0.105610   0.004182
    99  H    0.135998  -0.007010
   100  H    0.146680  -0.000989
   101  H    0.170262   0.000187
   102  H    0.171635  -0.000065
   103  H    0.156530   0.000010
   104  H    0.156541  -0.000086
   105  H    0.156690   0.000027
   106  H    0.173174  -0.000296
   107  H    0.171604  -0.000061
   108  H    0.156689   0.000010
   109  H    0.156711  -0.000083
   110  H    0.156734   0.000028
   111  H    0.172873  -0.000312
   112  H    0.169623   0.000295
   113  H    0.135508  -0.000855
   114  H    0.105611   0.003885
   115  H    0.136850  -0.007106
   116  H    0.145881  -0.000810
   117  H    0.168563   0.000196
   118  H    0.171582  -0.000066
   119  H    0.156671   0.000009
   120  H    0.156604  -0.000085
   121  H    0.156658   0.000027
   122  H    0.173349  -0.000310
   123  H    0.171790  -0.000059
   124  H    0.156714   0.000010
   125  H    0.156710  -0.000081
   126  H    0.155551   0.000030
   127  H    0.172624  -0.000322
   128  H    0.170528   0.000290
   129  H    0.136634  -0.000811
 Sum of Mulliken charges =  -1.00000   1.00000
 Mulliken charges and spin densities with hydrogens summed into heavy atoms:
               1          2
     1  C    0.042480  -0.002182
     2  C   -0.149958   0.003650
     3  C   -0.017456  -0.048223
     4  C    0.028437   0.116355
     5  C   -0.016189  -0.000335
     6  C    0.045375  -0.054136
     7  C    0.148661   0.241642
     8  C   -0.157616  -0.014858
     9  C   -0.031064   0.044102
    10  C    0.068826  -0.003635
    11  C   -0.031828   0.049942
    12  C    0.123662   0.039329
    13  C   -0.044303   0.079778
    14  C   -0.180412  -0.015836
    15  N   -0.105140   0.029780
    16  C    0.401517   0.002793
    17  O   -0.423649   0.019515
    18  O   -0.069383   0.004222
    19  C    0.062567  -0.012043
    20  C   -0.024033   0.053212
    21  C    0.045562  -0.053929
    22  C    0.026474   0.116857
    23  C   -0.015131  -0.000252
    24  C   -0.016997  -0.049079
    25  C   -0.150058   0.003434
    26  C    0.042251  -0.002143
    27  C    0.108703   0.140803
    28  C   -0.060790  -0.078576
    29  C   -0.001756   0.106025
    30  C    0.034266  -0.029087
    31  C   -0.022515   0.032025
    32  C    0.009253  -0.018925
    33  C   -0.007084   0.036150
    34  N   -0.110392   0.004202
    35  C    0.015942  -0.001583
    36  C    0.008982   0.001633
    37  C    0.010522  -0.000929
    38  C   -0.016179   0.001737
    39  C    0.009979  -0.000963
    40  C    0.007846   0.001920
    41  C    0.014202  -0.001478
    42  C    0.010436   0.001581
    43  C    0.010667  -0.000911
    44  C   -0.014939   0.001678
    45  C    0.010658  -0.000950
    46  C    0.007625   0.001804
    47  C    0.013744  -0.019721
    48  C    0.000412   0.029312
    49  N   -0.172119   0.019446
    50  B    0.386038   0.002027
    51  F   -0.360777   0.000631
    52  F   -0.360729   0.000622
    53  N   -0.173759   0.019377
    54  C    0.109581   0.140041
    55  C   -0.058394  -0.078283
    56  C   -0.006068   0.105478
    57  C    0.032232  -0.028959
    58  C   -0.028846   0.031638
    59  C    0.015825  -0.018388
    60  C   -0.002752   0.035536
    61  N   -0.109563   0.004182
    62  C    0.016428  -0.001597
    63  C    0.010565   0.001598
    64  C    0.010627  -0.000909
    65  C   -0.015590   0.001697
    66  C    0.010376  -0.000946
    67  C    0.005663   0.001849
    68  C    0.015794  -0.001535
    69  C    0.009133   0.001563
    70  C    0.010781  -0.000906
    71  C   -0.015200   0.001669
    72  C    0.010212  -0.000935
    73  C    0.007259   0.001835
    74  C    0.014599  -0.019361
    75  C   -0.003493   0.028921
 Electronic spatial extent (au):  <R**2>=         109783.9354
 Charge=             -1.0000 electrons
 Dipole moment (field-independent basis, Debye):
    X=             23.3713    Y=             -0.3642    Z=              0.5584  Tot=             23.3808
 Quadrupole moment (field-independent basis, Debye-Ang):
   XX=           -689.4715   YY=           -414.1775   ZZ=           -436.2121
   XY=              3.5439   XZ=            -11.5535   YZ=              4.4137
 Traceless Quadrupole moment (field-independent basis, Debye-Ang):
   XX=           -176.1845   YY=             99.1096   ZZ=             77.0749
   XY=              3.5439   XZ=            -11.5535   YZ=              4.4137
 Octapole moment (field-independent basis, Debye-Ang**2):
  XXX=           4067.4957  YYY=            124.2798  ZZZ=             32.5452  XYY=             28.8367
  XXY=           -201.4420  XXZ=            320.5615  XZZ=             56.4195  YZZ=            -63.0089
  YYZ=            -19.2837  XYZ=             31.3084
 Hexadecapole moment (field-independent basis, Debye-Ang**3):
 XXXX=        -155961.6225 YYYY=         -43885.0140 ZZZZ=          -4634.7843 XXXY=           2559.7060
 XXXZ=          -5402.6337 YYYX=            712.0046 YYYZ=            383.7201 ZZZX=           -237.2138
 ZZZY=           -102.8630 XXYY=         -23379.3088 XXZZ=         -17389.7058 YYZZ=          -8284.3298
 XXYZ=           -328.4810 YYXZ=           -244.7297 ZZXY=           -276.7234
 N-N= 1.053732867172D+04 E-N=-2.846360970521D+04  KE= 3.140856510690D+03
 Leave Link  601 at Wed Nov  5 23:40:46 2025, MaxMem= 30870077440 cpu:             246.9 elap:               4.6
 (Enter /public/software/gauss/g16/l9999.exe)
 1\1\GINC-CU015\SP\UM062X\def2TZVPP\C65H54B1F2N5O2(1-,2)\BAIDING\05-Nov
 -2025\0\\#p M062X/DEF2TZVPP scrf=(solvent=water) em=GD3\\Energy calcul
 ation for M100024781_reduced\\-1,2\C,0,-3.438441,5.852441,-0.080258\C,
 0,-3.310118,4.865234,1.093027\C,0,-3.343976,3.421678,0.666035\C,0,-4.4
 89435,2.622304,0.545116\C,0,-5.864112,3.046464,0.974658\C,0,-4.057938,
 1.356415,0.045085\C,0,-4.79134,0.164815,-0.22237\C,0,-6.255414,0.19841
 8,-0.265441\C,0,-7.036897,-0.663717,0.542796\C,0,-8.417072,-0.622857,0
 .534328\C,0,-9.119771,0.267196,-0.32802\C,0,-10.535319,0.383752,-0.483
 253\C,0,-11.667005,-0.135493,0.155179\C,0,-12.912361,0.192532,-0.45760
 4\N,0,-13.918949,0.476067,-0.98222\C,0,-11.760521,-0.913404,1.390717\O
 ,0,-10.849078,-1.19301,2.165579\O,0,-13.039921,-1.308889,1.648022\C,0,
 -8.325569,1.108907,-1.164199\C,0,-6.947512,1.093189,-1.117658\C,0,-4.0
 95864,-1.057077,-0.450491\C,0,-4.55255,-2.305193,-0.972817\C,0,-5.9182
 34,-2.672612,-1.477213\C,0,-3.437008,-3.152195,-1.030989\C,0,-3.440509
 ,-4.596532,-1.456883\C,0,-3.662273,-5.576717,-0.291652\C,0,-2.309478,-
 2.423939,-0.57196\C,0,-0.990676,-2.996679,-0.491635\C,0,0.14619,-2.535
 131,0.096796\C,0,1.434594,-3.218066,0.11022\C,0,1.705823,-4.4299,-0.56
 4429\C,0,2.953352,-5.033789,-0.500959\C,0,4.005106,-4.446277,0.228493\
 N,0,5.281255,-5.061679,0.28554\C,0,5.829801,-5.68121,-0.872207\C,0,6.5
 05289,-6.908727,-0.769721\C,0,7.051176,-7.507531,-1.904216\C,0,6.91941
 6,-6.906832,-3.158863\C,0,6.240601,-5.690199,-3.264571\C,0,5.706488,-5
 .074682,-2.133309\C,0,6.027372,-5.045946,1.497965\C,0,7.405727,-4.7764
 64,1.482836\C,0,8.1343,-4.773619,2.671647\C,0,7.502759,-5.020841,3.893
 158\C,0,6.129918,-5.28064,3.911466\C,0,5.396089,-5.30249,2.726282\C,0,
 3.755422,-3.235481,0.896652\C,0,2.49883,-2.645858,0.839962\N,0,-2.7195
 39,-1.142502,-0.236871\B,0,-1.802647,0.101753,-0.140991\F,0,-0.951944,
 0.102387,-1.269314\F,0,-1.014501,0.065779,1.031468\N,0,-2.669807,1.383
 685,-0.093241\C,0,-2.225192,2.646821,0.266503\C,0,-0.880809,3.162913,0
 .256755\C,0,0.260174,2.660981,-0.289039\C,0,1.576564,3.2852,-0.227457\
 C,0,1.879804,4.435872,0.534877\C,0,3.154898,4.982362,0.550326\C,0,4.19
 6342,4.410251,-0.205868\N,0,5.497466,4.972952,-0.190037\C,0,5.664099,6
 .386379,-0.178072\C,0,6.631438,6.982279,0.647989\C,0,6.797615,8.366498
 ,0.649833\C,0,5.995439,9.180173,-0.154397\C,0,5.027146,8.590232,-0.970
 9\C,0,4.865114,7.205656,-0.992693\C,0,6.642921,4.127785,-0.183199\C,0,
 7.756679,4.431901,-0.983244\C,0,8.881449,3.608161,-0.964433\C,0,8.9105
 6,2.46245,-0.165293\C,0,7.800237,2.153136,0.624641\C,0,6.677802,2.9800
 5,0.625891\C,0,3.912417,3.264012,-0.967792\C,0,2.635941,2.715617,-0.96
 6195\H,0,-4.379072,5.700937,-0.620414\H,0,-3.416442,6.888018,0.276334\
 H,0,-2.618682,5.722673,-0.794645\H,0,-2.385174,5.078517,1.639855\H,0,-
 4.123877,5.052433,1.801899\H,0,-5.794286,3.851687,1.711487\H,0,-6.4782
 05,3.419613,0.14705\H,0,-6.41745,2.224061,1.434138\H,0,-6.531433,-1.35
 3667,1.211375\H,0,-8.975558,-1.272382,1.192782\H,0,-10.800923,1.027415
 ,-1.319649\H,0,-13.024692,-1.78593,2.496498\H,0,-8.827611,1.777559,-1.
 858189\H,0,-6.379348,1.75038,-1.768163\H,0,-6.589184,-3.026119,-0.6859
 15\H,0,-6.413946,-1.826962,-1.959396\H,0,-5.840774,-3.476187,-2.215102
 \H,0,-4.227369,-4.751982,-2.202755\H,0,-2.500448,-4.846517,-1.960804\H
 ,0,-2.871527,-5.479948,0.459707\H,0,-4.619674,-5.38654,0.205047\H,0,-3
 .666163,-6.612625,-0.647941\H,0,-0.943347,-3.975858,-0.960491\H,0,0.12
 3721,-1.59108,0.62704\H,0,0.92716,-4.917141,-1.143036\H,0,3.12124,-5.9
 71617,-1.019977\H,0,6.599629,-7.390221,0.19788\H,0,7.569933,-8.456727,
 -1.80599\H,0,7.339977,-7.379513,-4.040948\H,0,6.136333,-5.206214,-4.23
 1323\H,0,5.19525,-4.122012,-2.222844\H,0,7.901372,-4.568945,0.540288\H
 ,0,9.19937,-4.562864,2.641437\H,0,8.072174,-5.011437,4.817304\H,0,5.62
 5696,-5.482415,4.852104\H,0,4.333487,-5.52036,2.74788\H,0,4.550708,-2.
 755945,1.457341\H,0,2.332714,-1.707492,1.362686\H,0,-0.812797,4.133485
 ,0.740894\H,0,0.21931,1.730199,-0.841456\H,0,1.113288,4.899435,1.14819
 \H,0,3.355818,5.856084,1.161277\H,0,7.248396,6.359217,1.286885\H,0,7.5
 49999,8.810244,1.295396\H,0,6.123468,10.258084,-0.145313\H,0,4.401157,
 9.208339,-1.607923\H,0,4.121723,6.754697,-1.641561\H,0,7.737088,5.3116
 7,-1.617822\H,0,9.73363,3.858514,-1.589609\H,0,9.785467,1.819884,-0.15
 8391\H,0,7.810027,1.2702,1.257132\H,0,5.826344,2.740692,1.254129\H,0,4
 .695019,2.805341,-1.562768\H,0,2.441733,1.830708,-1.566628\\Version=ES
 64L-G16RevA.03\State=2-A\HF=-3158.441754\S2=0.784747\S2-1=0.\S2A=0.751
 056\RMSD=1.010e-09\Dipole=9.1949926,-0.1433037,0.2197057\Quadrupole=-1
 30.9888498,73.6855349,57.3033149,2.634799,-8.5897678,3.2814522\PG=C01 
 [X(C65H54B1F2N5O2)]\\@


 THE MORE ACCURATE THE CALCULATIONS BECOME, THE MORE THE CONCEPTS
 TEND TO VANISH INTO THIN AIR.
     -- R.S. MULLIKEN, J.C.P. 43,S2(1965)
 Job cpu time:       4 days 13 hours 17 minutes 15.1 seconds.
 Elapsed time:       0 days  1 hours 43 minutes 44.1 seconds.
 File lengths (MBytes):  RWF=  10064 Int=      0 D2E=      0 Chk=    657 Scr=      1
 Normal termination of Gaussian 16 at Wed Nov  5 23:40:48 2025.
