 Entering Gaussian System, Link 0=g16
 Input=M100033019_reduced_sp.gjf
 Output=M100033019_reduced_sp.log
 Initial command:
 /public/software/gauss/g16/l1.exe "/public/home/baiding/1101_v2_sp/tmp_M100033019_reduced_sp_1568608/Gau-4129768.inp" -scrdir="/public/home/baiding/1101_v2_sp/tmp_M100033019_reduced_sp_1568608/"
 Entering Link 1 = /public/software/gauss/g16/l1.exe PID=   4129769.
  
 Copyright (c) 1988,1990,1992,1993,1995,1998,2003,2009,2016,
            Gaussian, Inc.  All Rights Reserved.
  
 This is part of the Gaussian(R) 16 program.  It is based on
 the Gaussian(R) 09 system (copyright 2009, Gaussian, Inc.),
 the Gaussian(R) 03 system (copyright 2003, Gaussian, Inc.),
 the Gaussian(R) 98 system (copyright 1998, Gaussian, Inc.),
 the Gaussian(R) 94 system (copyright 1995, Gaussian, Inc.),
 the Gaussian 92(TM) system (copyright 1992, Gaussian, Inc.),
 the Gaussian 90(TM) system (copyright 1990, Gaussian, Inc.),
 the Gaussian 88(TM) system (copyright 1988, Gaussian, Inc.),
 the Gaussian 86(TM) system (copyright 1986, Carnegie Mellon
 University), and the Gaussian 82(TM) system (copyright 1983,
 Carnegie Mellon University). Gaussian is a federally registered
 trademark of Gaussian, Inc.
  
 This software contains proprietary and confidential information,
 including trade secrets, belonging to Gaussian, Inc.
  
 This software is provided under written license and may be
 used, copied, transmitted, or stored only in accord with that
 written license.
  
 The following legend is applicable only to US Government
 contracts under FAR:
  
                    RESTRICTED RIGHTS LEGEND
  
 Use, reproduction and disclosure by the US Government is
 subject to restrictions as set forth in subparagraphs (a)
 and (c) of the Commercial Computer Software - Restricted
 Rights clause in FAR 52.227-19.
  
 Gaussian, Inc.
 340 Quinnipiac St., Bldg. 40, Wallingford CT 06492
  
  
 ---------------------------------------------------------------
 Warning -- This program may not be used in any manner that
 competes with the business of Gaussian, Inc. or will provide
 assistance to any competitor of Gaussian, Inc.  The licensee
 of this program is prohibited from giving any competitor of
 Gaussian, Inc. access to this program.  By using this program,
 the user acknowledges that Gaussian, Inc. is engaged in the
 business of creating and licensing software in the field of
 computational chemistry and represents and warrants to the
 licensee that it is not a competitor of Gaussian, Inc. and that
 it will not use this program in any manner prohibited above.
 ---------------------------------------------------------------
  

 Cite this work as:
 Gaussian 16, Revision A.03,
 M. J. Frisch, G. W. Trucks, H. B. Schlegel, G. E. Scuseria, 
 M. A. Robb, J. R. Cheeseman, G. Scalmani, V. Barone, 
 G. A. Petersson, H. Nakatsuji, X. Li, M. Caricato, A. V. Marenich, 
 J. Bloino, B. G. Janesko, R. Gomperts, B. Mennucci, H. P. Hratchian, 
 J. V. Ortiz, A. F. Izmaylov, J. L. Sonnenberg, D. Williams-Young, 
 F. Ding, F. Lipparini, F. Egidi, J. Goings, B. Peng, A. Petrone, 
 T. Henderson, D. Ranasinghe, V. G. Zakrzewski, J. Gao, N. Rega, 
 G. Zheng, W. Liang, M. Hada, M. Ehara, K. Toyota, R. Fukuda, 
 J. Hasegawa, M. Ishida, T. Nakajima, Y. Honda, O. Kitao, H. Nakai, 
 T. Vreven, K. Throssell, J. A. Montgomery, Jr., J. E. Peralta, 
 F. Ogliaro, M. J. Bearpark, J. J. Heyd, E. N. Brothers, K. N. Kudin, 
 V. N. Staroverov, T. A. Keith, R. Kobayashi, J. Normand, 
 K. Raghavachari, A. P. Rendell, J. C. Burant, S. S. Iyengar, 
 J. Tomasi, M. Cossi, J. M. Millam, M. Klene, C. Adamo, R. Cammi, 
 J. W. Ochterski, R. L. Martin, K. Morokuma, O. Farkas, 
 J. B. Foresman, and D. J. Fox, Gaussian, Inc., Wallingford CT, 2016.
 
 ******************************************
 Gaussian 16:  ES64L-G16RevA.03 25-Dec-2016
                 6-Nov-2025 
 ******************************************
 %nprocshared=64
 Will use up to   64 processors via shared memory.
 %mem=230GB
 %chk=M100033019_reduced_sp.chk
 ----------------------------------------------
 #p M062X/DEF2TZVPP scrf=(solvent=water) em=GD3
 ----------------------------------------------
 1/38=1,172=1/1;
 2/12=2,17=6,18=5,40=1/2;
 3/5=44,7=202,11=2,25=1,30=1,70=2201,72=1,74=-55,124=31/1,2,3;
 4//1;
 5/5=2,38=5,53=1/2;
 6/7=2,8=2,9=2,10=2,28=1/1;
 99/5=1,9=1/99;
 Leave Link    1 at Thu Nov  6 06:45:24 2025, MaxMem= 30870077440 cpu:               8.4 elap:               0.1
 (Enter /public/software/gauss/g16/l101.exe)
 -----------------------------------------
 Energy calculation for M100033019_reduced
 -----------------------------------------
 Symbolic Z-matrix:
 Charge = -1 Multiplicity = 2
 C                    -4.6616   -2.57351   0.02691 
 C                    -3.20943  -2.19146   0.06828 
 C                    -2.14672  -3.09419   0.13843 
 C                    -0.94619  -2.35534   0.17478 
 C                     0.3816   -2.8087    0.17864 
 C                     1.45072  -1.90237   0.09315 
 C                     2.85966  -2.12495  -0.0202 
 C                     3.47858  -3.41075  -0.02072 
 O                     4.69955  -3.64207  -0.14331 
 C                     3.47557  -0.83726  -0.13618 
 C                     4.94694  -0.57175  -0.23547 
 C                     2.45111   0.10447  -0.0931 
 C                     2.61575   1.55285  -0.20603 
 C                     3.37012   2.2067   -1.15704 
 C                     3.47347   3.61345  -0.95188 
 C                     2.80345   4.03302   0.16417 
 S                     2.02494   2.71629   0.98035 
 N                     1.21992  -0.54688   0.05219 
 B                    -0.18165   0.11333   0.19137 
 F                    -0.37633   1.04245  -0.8376 
 F                    -0.2338    0.78073   1.44339 
 N                    -1.25973  -1.00246   0.14468 
 C                    -2.64676  -0.88891   0.0802 
 C                    -3.3533    0.38025   0.06311 
 C                    -3.05117   1.57762   0.68509 
 C                    -3.99244   2.61395   0.43194 
 C                    -5.02005   2.22378  -0.38315 
 S                    -4.84828   0.56568  -0.86385 
 H                    -5.09104  -2.48395  -0.9782 
 H                    -4.78037  -3.61648   0.335 
 H                    -5.27165  -1.95517   0.69314 
 H                    -2.21615  -4.17419   0.1576 
 H                     0.57022  -3.87483   0.19086 
 H                     2.78647  -4.26667   0.09871 
 H                     5.35341  -0.88863  -1.2037 
 H                     5.1666    0.49134  -0.11566 
 H                     5.49729  -1.12905   0.52903 
 H                     3.82663   1.68549  -1.99062 
 H                     4.01187   4.28184  -1.61443 
 H                     2.69215   5.0413    0.54153 
 H                    -2.17959   1.69419   1.31369 
 H                    -3.9136    3.61049   0.85252 
 H                    -5.87301   2.798    -0.7198 
 
 ITRead=  0  0  0  0  0  0  0  0  0  0  0  0  0  0  0  0  0  0  0  0
 ITRead=  0  0  0  0  0  0  0  0  0  0  0  0  0  0  0  0  0  0  0  0
 ITRead=  0  0  0
 MicOpt= -1 -1 -1 -1 -1 -1 -1 -1 -1 -1 -1 -1 -1 -1 -1 -1 -1 -1 -1 -1
 MicOpt= -1 -1 -1 -1 -1 -1 -1 -1 -1 -1 -1 -1 -1 -1 -1 -1 -1 -1 -1 -1
 MicOpt= -1 -1 -1
 NAtoms=     43 NQM=       43 NQMF=       0 NMMI=      0 NMMIF=      0
                NMic=       0 NMicF=      0.
                    Isotopes and Nuclear Properties:
 (Nuclear quadrupole moments (NQMom) in fm**2, nuclear magnetic moments (NMagM)
  in nuclear magnetons)

  Atom         1           2           3           4           5           6           7           8           9          10
 IAtWgt=          12          12          12          12          12          12          12          12          16          12
 AtmWgt=  12.0000000  12.0000000  12.0000000  12.0000000  12.0000000  12.0000000  12.0000000  12.0000000  15.9949146  12.0000000
 NucSpn=           0           0           0           0           0           0           0           0           0           0
 AtZEff=  -0.0000000  -0.0000000  -0.0000000  -0.0000000  -0.0000000  -0.0000000  -0.0000000  -0.0000000  -0.0000000  -0.0000000
 NQMom=    0.0000000   0.0000000   0.0000000   0.0000000   0.0000000   0.0000000   0.0000000   0.0000000   0.0000000   0.0000000
 NMagM=    0.0000000   0.0000000   0.0000000   0.0000000   0.0000000   0.0000000   0.0000000   0.0000000   0.0000000   0.0000000
 AtZNuc=   6.0000000   6.0000000   6.0000000   6.0000000   6.0000000   6.0000000   6.0000000   6.0000000   8.0000000   6.0000000

  Atom        11          12          13          14          15          16          17          18          19          20
 IAtWgt=          12          12          12          12          12          12          32          14          11          19
 AtmWgt=  12.0000000  12.0000000  12.0000000  12.0000000  12.0000000  12.0000000  31.9720718  14.0030740  11.0093053  18.9984033
 NucSpn=           0           0           0           0           0           0           0           2           3           1
 AtZEff=  -0.0000000  -0.0000000  -0.0000000  -0.0000000  -0.0000000  -0.0000000  -0.0000000  -0.0000000  -0.0000000  -0.0000000
 NQMom=    0.0000000   0.0000000   0.0000000   0.0000000   0.0000000   0.0000000   0.0000000   2.0440000   4.0590000   0.0000000
 NMagM=    0.0000000   0.0000000   0.0000000   0.0000000   0.0000000   0.0000000   0.0000000   0.4037610   2.6886370   2.6288670
 AtZNuc=   6.0000000   6.0000000   6.0000000   6.0000000   6.0000000   6.0000000  16.0000000   7.0000000   5.0000000   9.0000000

  Atom        21          22          23          24          25          26          27          28          29          30
 IAtWgt=          19          14          12          12          12          12          12          32           1           1
 AtmWgt=  18.9984033  14.0030740  12.0000000  12.0000000  12.0000000  12.0000000  12.0000000  31.9720718   1.0078250   1.0078250
 NucSpn=           1           2           0           0           0           0           0           0           1           1
 AtZEff=  -0.0000000  -0.0000000  -0.0000000  -0.0000000  -0.0000000  -0.0000000  -0.0000000  -0.0000000  -0.0000000  -0.0000000
 NQMom=    0.0000000   2.0440000   0.0000000   0.0000000   0.0000000   0.0000000   0.0000000   0.0000000   0.0000000   0.0000000
 NMagM=    2.6288670   0.4037610   0.0000000   0.0000000   0.0000000   0.0000000   0.0000000   0.0000000   2.7928460   2.7928460
 AtZNuc=   9.0000000   7.0000000   6.0000000   6.0000000   6.0000000   6.0000000   6.0000000  16.0000000   1.0000000   1.0000000

  Atom        31          32          33          34          35          36          37          38          39          40
 IAtWgt=           1           1           1           1           1           1           1           1           1           1
 AtmWgt=   1.0078250   1.0078250   1.0078250   1.0078250   1.0078250   1.0078250   1.0078250   1.0078250   1.0078250   1.0078250
 NucSpn=           1           1           1           1           1           1           1           1           1           1
 AtZEff=  -0.0000000  -0.0000000  -0.0000000  -0.0000000  -0.0000000  -0.0000000  -0.0000000  -0.0000000  -0.0000000  -0.0000000
 NQMom=    0.0000000   0.0000000   0.0000000   0.0000000   0.0000000   0.0000000   0.0000000   0.0000000   0.0000000   0.0000000
 NMagM=    2.7928460   2.7928460   2.7928460   2.7928460   2.7928460   2.7928460   2.7928460   2.7928460   2.7928460   2.7928460
 AtZNuc=   1.0000000   1.0000000   1.0000000   1.0000000   1.0000000   1.0000000   1.0000000   1.0000000   1.0000000   1.0000000

  Atom        41          42          43
 IAtWgt=           1           1           1
 AtmWgt=   1.0078250   1.0078250   1.0078250
 NucSpn=           1           1           1
 AtZEff=  -0.0000000  -0.0000000  -0.0000000
 NQMom=    0.0000000   0.0000000   0.0000000
 NMagM=    2.7928460   2.7928460   2.7928460
 AtZNuc=   1.0000000   1.0000000   1.0000000
 Leave Link  101 at Thu Nov  6 06:45:25 2025, MaxMem= 30870077440 cpu:               3.6 elap:               0.1
 (Enter /public/software/gauss/g16/l202.exe)
                          Input orientation:                          
 ---------------------------------------------------------------------
 Center     Atomic      Atomic             Coordinates (Angstroms)
 Number     Number       Type             X           Y           Z
 ---------------------------------------------------------------------
      1          6           0       -4.661602   -2.573507    0.026908
      2          6           0       -3.209431   -2.191456    0.068283
      3          6           0       -2.146717   -3.094189    0.138432
      4          6           0       -0.946186   -2.355336    0.174780
      5          6           0        0.381597   -2.808695    0.178640
      6          6           0        1.450717   -1.902367    0.093153
      7          6           0        2.859659   -2.124953   -0.020197
      8          6           0        3.478577   -3.410754   -0.020722
      9          8           0        4.699552   -3.642073   -0.143313
     10          6           0        3.475572   -0.837264   -0.136176
     11          6           0        4.946943   -0.571751   -0.235473
     12          6           0        2.451112    0.104470   -0.093098
     13          6           0        2.615747    1.552850   -0.206030
     14          6           0        3.370123    2.206699   -1.157041
     15          6           0        3.473465    3.613450   -0.951878
     16          6           0        2.803453    4.033019    0.164169
     17         16           0        2.024938    2.716290    0.980349
     18          7           0        1.219918   -0.546879    0.052194
     19          5           0       -0.181654    0.113327    0.191374
     20          9           0       -0.376333    1.042450   -0.837597
     21          9           0       -0.233796    0.780730    1.443385
     22          7           0       -1.259726   -1.002456    0.144684
     23          6           0       -2.646758   -0.888905    0.080203
     24          6           0       -3.353301    0.380248    0.063107
     25          6           0       -3.051172    1.577620    0.685093
     26          6           0       -3.992441    2.613950    0.431944
     27          6           0       -5.020054    2.223782   -0.383151
     28         16           0       -4.848275    0.565681   -0.863847
     29          1           0       -5.091038   -2.483951   -0.978196
     30          1           0       -4.780370   -3.616483    0.335000
     31          1           0       -5.271655   -1.955169    0.693137
     32          1           0       -2.216148   -4.174187    0.157604
     33          1           0        0.570221   -3.874826    0.190858
     34          1           0        2.786474   -4.266674    0.098710
     35          1           0        5.353409   -0.888630   -1.203700
     36          1           0        5.166601    0.491341   -0.115663
     37          1           0        5.497292   -1.129049    0.529029
     38          1           0        3.826633    1.685488   -1.990616
     39          1           0        4.011869    4.281842   -1.614432
     40          1           0        2.692151    5.041299    0.541532
     41          1           0       -2.179592    1.694190    1.313691
     42          1           0       -3.913595    3.610494    0.852523
     43          1           0       -5.873005    2.797996   -0.719801
 ---------------------------------------------------------------------
                    Distance matrix (angstroms):
                    1          2          3          4          5
     1  C    0.000000
     2  C    1.502157   0.000000
     3  C    2.570641   1.396141   0.000000
     4  C    3.724752   2.271668   1.410142   0.000000
     5  C    5.050960   3.645359   2.544699   1.403053   0.000000
     6  C    6.149411   4.669172   3.789990   2.440694   1.404192
     7  C    7.534772   6.070099   5.101802   3.817794   2.578339
     8  C    8.183261   6.798828   5.636442   4.553093   3.161251
     9  O    9.423482   8.043698   6.873933   5.799244   4.409411
    10  C    8.321943   6.823848   6.064590   4.685422   3.682164
    11  C    9.818351   8.321187   7.538071   6.170774   5.100764
    12  C    7.601096   6.110570   5.605806   4.202861   3.583750
    13  C    8.369044   6.930207   6.662934   5.301538   4.915534
    14  C    9.421290   8.008478   7.759716   6.420003   5.989116
    15  C   10.267218   8.910598   8.818596   7.511929   7.216763
    16  C    9.969557   8.654944   8.677669   7.407495   7.257730
    17  S    8.579092   7.233011   7.202305   5.932783   5.819688
    18  N    6.220943   4.724831   4.222613   2.824456   2.415488
    19  B    5.226477   3.807179   3.761972   2.584392   2.975840
    20  F    5.673275   4.393770   4.604202   3.590904   4.054444
    21  F    5.732607   4.424839   4.514107   3.457133   3.855160
    22  N    3.748978   2.284931   2.272034   1.389063   2.440818
    23  C    2.626846   1.418937   2.262014   2.247512   3.586951
    24  C    3.230732   2.575730   3.678754   3.645558   4.912450
    25  C    4.500950   3.822491   4.789851   4.489936   5.592867
    26  C    5.246098   4.882344   6.006305   5.834347   6.971474
    27  C    4.828107   4.793378   6.067036   6.154349   7.404003
    28  S    3.268454   3.340132   4.658071   4.983712   6.310686
    29  H    1.096663   2.172813   3.207534   4.304148   5.602987
    30  H    1.093995   2.137683   2.692129   4.039447   5.227129
    31  H    1.094700   2.167727   3.371988   4.374758   5.740424
    32  H    2.925663   2.219417   1.082397   2.218404   2.934841
    33  H    5.393726   4.139387   2.827348   2.146765   1.082757
    34  H    7.638443   6.344945   5.070766   4.194252   2.813454
    35  H   10.230037   8.754286   7.932068   6.613345   5.506036
    36  H   10.295980   8.797110   8.148939   6.749377   5.820061
    37  H   10.273350   8.783395   7.902228   6.568689   5.395769
    38  H    9.708737   8.293127   7.940974   6.617930   6.063961
    39  H   11.176713   9.842880   9.767628   8.475596   8.165151
    40  H   10.598481   9.346945   9.474349   8.251195   8.191017
    41  H    5.101904   4.208308   4.930607   4.383728   5.303207
    42  H    6.283552   5.896906   6.970262   6.697461   7.752985
    43  H    5.556808   5.710546   7.024217   7.185447   8.447617
                    6          7          8          9         10
     6  C    0.000000
     7  C    1.430912   0.000000
     8  C    2.529904   1.427005   0.000000
     9  O    3.692888   2.387890   1.248726   0.000000
    10  C    2.299364   1.432111   2.576080   3.060250   0.000000
    11  C    3.755280   2.610658   3.203460   3.081651   1.498429
    12  C    2.250083   2.267720   3.663021   4.369736   1.392206
    13  C    3.658597   3.690564   5.041446   5.597625   2.541028
    14  C    4.704416   4.507349   5.732256   6.083022   3.212319
    15  C    5.967230   5.845858   7.085656   7.402681   4.524846
    16  C    6.088000   6.160988   7.476612   7.911812   4.925607
    17  S    4.738021   5.013530   6.376196   6.988917   3.997338
    18  N    1.375607   2.276908   3.648100   4.661148   2.282056
    19  B    2.595632   3.782095   5.085413   6.167756   3.792916
    20  F    3.588364   4.601329   5.946313   6.942002   4.343097
    21  F    3.443794   4.489380   5.787388   6.812982   4.344229
    22  N    2.856396   4.272765   5.317779   6.524072   4.746495
    23  C    4.220968   5.644335   6.624925   7.848450   6.126370
    24  C    5.318818   6.699541   7.813660   9.003895   6.939420
    25  C    5.720813   7.010307   8.247404   9.381107   7.007463
    26  C    7.080951   8.343435   9.608230  10.724714   8.246506
    27  C    7.689138   9.007392  10.203239  11.355022   9.033640
    28  S    6.832599   8.207527   9.266033  10.458746   8.472555
    29  H    6.654366   8.016248   8.672602   9.894136   8.763982
    30  H    6.467080   7.792360   8.269164   9.492016   8.723912
    31  H    6.749300   8.164309   8.899151  10.147426   8.857282
    32  H    4.314072   5.476750   5.748437   6.942665   6.604320
    33  H    2.162271   2.889312   2.952738   4.149364   4.216017
    34  H    2.715552   2.146267   1.107190   2.026961   3.505835
    35  H    4.235622   3.024560   3.357907   3.022151   2.160675
    36  H    4.425069   3.489425   4.252621   4.159809   2.150626
    37  H    4.142798   2.872383   3.095741   2.720978   2.148252
    38  H    4.781190   4.397391   5.474788   5.705911   3.150630
    39  H    6.907951   6.701955   7.874030   8.088605   5.355194
    40  H    7.068005   7.190185   8.507161   8.938659   5.969132
    41  H    5.253958   6.462133   7.736665   8.827298   6.363274
    42  H    7.729432   8.918182  10.232531  11.303881   8.681006
    43  H    8.740207  10.049094  11.246749  12.392973  10.047469
                   11         12         13         14         15
    11  C    0.000000
    12  C    2.589733   0.000000
    13  C    3.154247   1.462075   0.000000
    14  C    3.324971   2.529016   1.378776   0.000000
    15  C    4.494472   3.754417   2.353304   1.425384   0.000000
    16  C    5.094916   3.952699   2.514661   2.324254   1.367668
    17  S    4.563721   2.855786   1.763560   2.576362   2.576165
    18  N    3.738193   1.400430   2.534537   3.697002   4.836835
    19  B    5.191728   2.648105   3.171058   4.337689   5.188235
    20  F    5.595129   3.070591   3.100311   3.936172   4.630772
    21  F    5.611401   3.166518   3.381809   4.667316   5.244556
    22  N    6.233199   3.879709   4.655307   5.781753   6.701652
    23  C    7.606874   5.196644   5.808447   6.878691   7.667693
    24  C    8.359994   5.813060   6.089086   7.073126   7.621583
    25  C    8.332892   5.748990   5.736609   6.709860   7.028169
    26  C    9.513502   6.934878   6.723176   7.543081   7.658571
    27  C   10.352673   7.771354   7.667267   8.425810   8.625224
    28  S    9.881037   7.354442   7.557701   8.385760   8.862731
    29  H   10.245448   8.022926   8.734216   9.676023  10.513311
    30  H   10.208646   8.143899   9.039760  10.127496  11.047795
    31  H   10.353546   8.031277   8.679044   9.768553  10.497272
    32  H    8.027573   6.336645   7.501893   8.581982   9.708241
    33  H    5.499796   4.410576   5.813894   6.829438   8.112271
    34  H    4.293223   4.388184   5.829998   6.619827   7.979477
    35  H    1.096855   3.262363   3.801442   3.676501   4.885318
    36  H    1.092139   2.743002   2.764385   2.693372   3.648771
    37  H    1.094499   3.344820   4.004522   4.300569   5.364723
    38  H    3.070953   2.827057   2.160691   1.083932   2.218274
    39  H    5.131594   4.711778   3.373448   2.219744   1.084253
    40  H    6.098701   4.983286   3.568468   3.373389   2.208954
    41  H    7.636878   5.094083   5.032376   6.096435   6.385406
    42  H    9.858197   7.327749   6.927246   7.685150   7.604244
    43  H   11.342885   8.771474   8.594955   9.272337   9.384846
                   16         17         18         19         20
    16  C    0.000000
    17  S    1.733785   0.000000
    18  N    4.847225   3.486804   0.000000
    19  B    4.927026   3.502420   1.555521   0.000000
    20  F    4.478624   3.445689   2.421923   1.399982   0.000000
    21  F    4.630190   3.010428   2.410652   1.419745   2.300368
    22  N    6.470380   5.031543   2.522843   1.552221   2.434522
    23  C    7.344194   5.969291   3.881874   2.663375   3.118865
    24  C    7.159509   5.934971   4.666264   3.185443   3.179956
    25  C    6.370006   5.210627   4.812096   3.259148   3.124061
    26  C    6.947635   6.043184   6.107678   4.564328   4.142171
    27  C    8.048612   7.192608   6.841297   5.309822   4.813129
    28  S    8.463344   7.434194   6.236977   4.805774   4.497362
    29  H   10.300431   9.028595   6.681476   5.675896   5.889288
    30  H   10.773042   9.318407   6.745806   5.922862   6.517375
    31  H   10.067054   8.668638   6.673426   5.517114   5.940795
    32  H    9.620534   8.132797   4.997502   4.745849   5.620378
    33  H    8.217180   6.795757   3.393607   4.058409   5.112073
    34  H    8.299968   7.079478   4.036476   5.291765   6.250345
    35  H    5.709288   5.370683   4.333568   5.795435   6.057478
    36  H    4.266879   4.002710   4.084407   5.370382   5.616852
    37  H    5.834110   5.200727   4.343066   5.823052   6.409567
    38  H    3.346774   3.624264   3.993933   4.826918   4.405437
    39  H    2.164626   3.623774   5.821441   6.182482   5.509397
    40  H    1.082321   2.458333   5.799539   5.715442   5.225742
    41  H    5.623367   4.339802   4.262679   2.783968   2.881761
    42  H    6.765434   6.006839   6.654114   5.157003   4.686532
    43  H    8.808383   8.079275   7.879957   6.358393   5.771414
                   21         22         23         24         25
    21  F    0.000000
    22  N    2.432881   0.000000
    23  C    3.235480   1.393165   0.000000
    24  C    3.434656   2.510295   1.452668   0.000000
    25  C    3.024508   3.187179   2.571612   1.382696   0.000000
    26  C    4.302455   4.541876   3.768896   2.352438   1.422692
    27  C    5.322302   4.982699   3.941580   2.525040   2.331344
    28  S    5.163621   4.043992   2.802450   1.768778   2.579305
    29  H    6.333640   4.258478   3.104655   3.508230   4.839829
    30  H    6.421474   4.389111   3.472305   4.252565   5.485563
    31  H    5.781699   4.159812   2.898740   3.087263   4.172674
    32  H    5.489459   3.312822   3.314286   4.695202   5.835991
    33  H    4.887685   3.406075   4.390549   5.789300   6.564139
    34  H    6.033777   5.198939   6.397630   7.700129   8.281167
    35  H    6.403958   6.750159   8.102535   8.889412   8.960296
    36  H    5.628380   6.602794   7.936751   8.522501   8.327845
    37  H    6.109720   6.769124   8.159943   8.990443   8.968091
    38  H    5.394259   6.136416   7.267777   7.581087   7.380735
    39  H    6.295530   7.668638   8.599170   8.501900   7.904883
    40  H    5.246613   7.231998   7.992753   7.648645   6.708460
    41  H    2.153451   3.079713   2.900365   2.160555   1.080914
    42  H    4.679487   5.368740   4.737715   3.372180   2.214584
    43  H    6.367842   6.039297   4.964062   3.578737   3.380205
                   26         27         28         29         30
    26  C    0.000000
    27  C    1.368430   0.000000
    28  S    2.570395   1.734899   0.000000
    29  H    5.402222   4.745721   3.061416   0.000000
    30  H    6.280806   5.889133   4.351131   1.761711   0.000000
    31  H    4.751995   4.322653   2.993014   1.762268   1.769064
    32  H    7.022057   7.006305   5.517047   3.523057   2.630159
    33  H    7.936008   8.292990   7.084533   5.945677   5.358763
    34  H    9.664767  10.163665   9.086670   8.148191   7.598402
    35  H   10.113768  10.861360  10.310426  10.567988  10.606708
    36  H    9.417717  10.336384  10.043060  10.715199  10.771237
    37  H   10.201691  11.076467  10.575584  10.780548  10.576167
    38  H    8.238250   9.007640   8.819161   9.896165  10.373037
    39  H    8.428434   9.344908   9.637187  11.359739  11.978618
    40  H    7.112510   8.262660   8.880556  10.932383  11.438462
    41  H    2.215820   3.350816   3.624510   5.584454   5.993758
    42  H    1.084529   2.161969   3.618071   6.471489   7.297145
    43  H    2.212896   1.081934   2.460498   5.345765   6.591813
                   31         32         33         34         35
    31  H    0.000000
    32  H    3.814048   0.000000
    33  H    6.169674   2.802601   0.000000
    34  H    8.404156   5.003823   2.252513   0.000000
    35  H   10.845620   8.363386   5.808704   4.438086   0.000000
    36  H   10.751593   8.737666   6.346974   5.324441   1.767213
    37  H   10.801834   8.301083   5.650635   4.168741   1.755236
    38  H   10.160500   8.687108   6.802951   6.393391   3.094570
    39  H   11.419676  10.650480   9.035223   8.804179   5.357444
    40  H   10.601686  10.448157   9.171851   9.318978   6.729947
    41  H    4.823252   5.981281   6.311590   7.853018   8.351905
    42  H    5.731172   7.997843   8.750567  10.368652  10.504643
    43  H    4.995057   7.921728   9.320462  11.205628  11.826146
                   36         37         38         39         40
    36  H    0.000000
    37  H    1.775006   0.000000
    38  H    2.595564   4.130536   0.000000
    39  H    4.236462   6.006550   2.629996   0.000000
    40  H    5.220817   6.778065   4.354342   2.639434   0.000000
    41  H    7.580003   8.217111   6.855163   7.321478   5.960977
    42  H    9.649687  10.541950   8.467598   8.327638   6.766077
    43  H   11.294182  12.094003   9.845589  10.035582   8.943448
                   41         42         43
    41  H    0.000000
    42  H    2.625198   0.000000
    43  H    4.358300   2.640387   0.000000
 Stoichiometry    C20H15BF2N2OS2(1-,2)
 Framework group  C1[X(C20H15BF2N2OS2)]
 Deg. of freedom   123
 Full point group                 C1      NOp   1
 Largest Abelian subgroup         C1      NOp   1
 Largest concise Abelian subgroup C1      NOp   1
                         Standard orientation:                         
 ---------------------------------------------------------------------
 Center     Atomic      Atomic             Coordinates (Angstroms)
 Number     Number       Type             X           Y           Z
 ---------------------------------------------------------------------
      1          6           0       -4.661602   -2.573507    0.026908
      2          6           0       -3.209431   -2.191456    0.068283
      3          6           0       -2.146717   -3.094189    0.138432
      4          6           0       -0.946186   -2.355336    0.174780
      5          6           0        0.381597   -2.808695    0.178640
      6          6           0        1.450717   -1.902367    0.093153
      7          6           0        2.859659   -2.124953   -0.020197
      8          6           0        3.478577   -3.410754   -0.020722
      9          8           0        4.699552   -3.642073   -0.143313
     10          6           0        3.475572   -0.837264   -0.136176
     11          6           0        4.946943   -0.571751   -0.235473
     12          6           0        2.451112    0.104470   -0.093098
     13          6           0        2.615747    1.552850   -0.206030
     14          6           0        3.370123    2.206699   -1.157041
     15          6           0        3.473465    3.613450   -0.951878
     16          6           0        2.803453    4.033019    0.164169
     17         16           0        2.024938    2.716290    0.980349
     18          7           0        1.219918   -0.546879    0.052194
     19          5           0       -0.181654    0.113327    0.191374
     20          9           0       -0.376333    1.042450   -0.837597
     21          9           0       -0.233796    0.780730    1.443385
     22          7           0       -1.259726   -1.002456    0.144684
     23          6           0       -2.646758   -0.888905    0.080203
     24          6           0       -3.353301    0.380248    0.063107
     25          6           0       -3.051172    1.577620    0.685093
     26          6           0       -3.992441    2.613950    0.431944
     27          6           0       -5.020054    2.223782   -0.383151
     28         16           0       -4.848275    0.565681   -0.863847
     29          1           0       -5.091038   -2.483951   -0.978196
     30          1           0       -4.780370   -3.616483    0.335000
     31          1           0       -5.271655   -1.955169    0.693137
     32          1           0       -2.216148   -4.174187    0.157604
     33          1           0        0.570221   -3.874826    0.190858
     34          1           0        2.786474   -4.266674    0.098710
     35          1           0        5.353409   -0.888630   -1.203700
     36          1           0        5.166601    0.491341   -0.115663
     37          1           0        5.497292   -1.129049    0.529029
     38          1           0        3.826633    1.685488   -1.990616
     39          1           0        4.011869    4.281842   -1.614432
     40          1           0        2.692151    5.041299    0.541532
     41          1           0       -2.179592    1.694190    1.313691
     42          1           0       -3.913595    3.610494    0.852523
     43          1           0       -5.873005    2.797996   -0.719801
 ---------------------------------------------------------------------
 Rotational constants (GHZ):           0.2404363           0.1195286           0.0841288
 Leave Link  202 at Thu Nov  6 06:45:25 2025, MaxMem= 30870077440 cpu:               0.3 elap:               0.0
 (Enter /public/software/gauss/g16/l301.exe)
 Standard basis: def2TZVPP (5D, 7F)
 Ernie: Thresh=  0.10000D-02 Tol=  0.10000D-05 Strict=F.
 There are  1257 symmetry adapted cartesian basis functions of A   symmetry.
 There are  1100 symmetry adapted basis functions of A   symmetry.
  1100 basis functions,  1719 primitive gaussians,  1257 cartesian basis functions
   107 alpha electrons      106 beta electrons
       nuclear repulsion energy      2880.8512243245 Hartrees.
 IExCor= 4336 DFT=T Ex+Corr=M062X ExCW=0 ScaHFX=  0.540000
 ScaDFX=  1.000000  1.000000  1.000000  1.000000 ScalE2=  1.000000  1.000000
 IRadAn=      5 IRanWt=     -1 IRanGd=            0 ICorTp=0 IEmpDi=131
 NAtoms=   43 NActive=   43 NUniq=   43 SFac= 1.00D+00 NAtFMM=   60 NAOKFM=F Big=F
 Integral buffers will be    131072 words long.
 Raffenetti 2 integral format.
 Two-electron integral symmetry is turned on.
 R6Disp:  Grimme-D3 Dispersion energy=       -0.0032123259 Hartrees.
 Nuclear repulsion after empirical dispersion term =     2880.8480119986 Hartrees.
 ------------------------------------------------------------------------------
 Polarizable Continuum Model (PCM)
 =================================
 Model                : PCM.
 Atomic radii         : UFF (Universal Force Field).
 Polarization charges : Total charges.
 Charge compensation  : None.
 Solution method      : On-the-fly selection.
 Cavity type          : Scaled VdW (van der Waals Surface) (Alpha=1.100).
 Cavity algorithm     : GePol (No added spheres)
                        Default sphere list used, NSphG=   43.
                        Lebedev-Laikov grids with approx.  5.0 points / Ang**2.
                        Smoothing algorithm: York/Karplus (Gamma=1.0000).
                        Polarization charges: spherical gaussians, with
                                              point-specific exponents (IZeta= 3).
                        Self-potential: point-specific (ISelfS= 7).
                        Self-field    : sphere-specific E.n sum rule (ISelfD= 2).
 Solvent              : Water, Eps=  78.355300 Eps(inf)=   1.777849
 ------------------------------------------------------------------------------
 GePol: Number of generator spheres                  =      43
 GePol: Total number of spheres                      =      43
 GePol: Number of exposed spheres                    =      43 (100.00%)
 GePol: Number of points                             =    3449
 GePol: Average weight of points                     =       0.13
 GePol: Minimum weight of points                     =   0.96D-11
 GePol: Maximum weight of points                     =    0.20577
 GePol: Number of points with low weight             =     216
 GePol: Fraction of low-weight points (<1% of avg)   =       6.26%
 GePol: Cavity surface area                          =    435.570 Ang**2
 GePol: Cavity volume                                =    500.701 Ang**3
 Leave Link  301 at Thu Nov  6 06:45:25 2025, MaxMem= 30870077440 cpu:               4.2 elap:               0.1
 (Enter /public/software/gauss/g16/l302.exe)
 NPDir=0 NMtPBC=     1 NCelOv=     1 NCel=       1 NClECP=     1 NCelD=      1
         NCelK=      1 NCelE2=     1 NClLst=     1 CellRange=     0.0.
 One-electron integrals computed using PRISM.
 One-electron integral symmetry used in STVInt
   1 Symmetry operations used in ECPInt.
 ECPInt:  NShTT=   81810 NPrTT=  241852 LenC2=   65210 LenP2D=  134274.
 LDataN:  DoStor=T MaxTD1= 6 Len=  172
 NBasis=  1100 RedAO= T EigKep=  6.43D-06  NBF=  1100
 NBsUse=  1100 1.00D-06 EigRej= -1.00D+00 NBFU=  1100
 Precomputing XC quadrature grid using
 IXCGrd= 4 IRadAn=           5 IRanWt=          -1 IRanGd=           0 AccXCQ= 0.00D+00.
 Generated NRdTot=       0 NPtTot=           0 NUsed=           0 NTot=          32
 NSgBfM=  1217  1216  1217  1217  1217 MxSgAt=    43 MxSgA2=    43.
 Leave Link  302 at Thu Nov  6 06:45:28 2025, MaxMem= 30870077440 cpu:             175.5 elap:               2.8
 (Enter /public/software/gauss/g16/l303.exe)
 DipDrv:  MaxL=1.
 Leave Link  303 at Thu Nov  6 06:45:28 2025, MaxMem= 30870077440 cpu:              13.0 elap:               0.2
 (Enter /public/software/gauss/g16/l401.exe)
 ExpMin= 6.06D-02 ExpMax= 6.07D+04 ExpMxC= 2.07D+03 IAcc=3 IRadAn=         5 AccDes= 0.00D+00
 Harris functional with IExCor= 1009 and IRadAn=       5 diagonalized for initial guess.
 HarFok:  IExCor= 1009 AccDes= 0.00D+00 IRadAn=         5 IDoV= 1 UseB2=F ITyADJ=14
 ICtDFT=  3500011 ScaDFX=  1.000000  1.000000  1.000000  1.000000
 FoFCou: FMM=F IPFlag=           0 FMFlag=      100000 FMFlg1=           0
         NFxFlg=           0 DoJE=T BraDBF=F KetDBF=T FulRan=T
         wScrn=  0.000000 ICntrl=       500 IOpCl=  0 I1Cent=   200000004 NGrid=           0
         NMat0=    1 NMatS0=      1 NMatT0=    0 NMatD0=    1 NMtDS0=    0 NMtDT0=    0
 Petite list used in FoFCou.
 Harris En= -1976.22452423174    
 JPrj=0 DoOrth=F DoCkMO=F.
 Initial guess <Sx>= 0.0000 <Sy>= 0.0000 <Sz>= 0.5000 <S**2>= 0.7500 S= 0.5000
 Leave Link  401 at Thu Nov  6 06:45:33 2025, MaxMem= 30870077440 cpu:             309.3 elap:               4.9
 (Enter /public/software/gauss/g16/l502.exe)
 Integral symmetry usage will be decided dynamically.
 UHF open shell SCF:
 Using DIIS extrapolation, IDIIS=  1040.
 NGot= 30870077440 LenX= 30866826343 LenY= 30865245037
 Requested convergence on RMS density matrix=1.00D-08 within 128 cycles.
 Requested convergence on MAX density matrix=1.00D-06.
 Requested convergence on             energy=1.00D-06.
 No special actions if energy rises.
 Fock matrices will be formed incrementally for  20 cycles.

 Cycle   1  Pass 1  IDiag  1:
 FoFJK:  IHMeth= 1 ICntrl=       0 DoSepK=F KAlg= 0 I1Cent=           0 FoldK=F
 IRaf= 720000000 NMat=       1 IRICut=       1 DoRegI=T DoRafI=F ISym2E= 0 IDoP0=0 IntGTp=1.
 FoFCou: FMM=F IPFlag=           0 FMFlag=      100000 FMFlg1=           0
         NFxFlg=           0 DoJE=F BraDBF=F KetDBF=F FulRan=T
         wScrn=  0.000000 ICntrl=         0 IOpCl=  1 I1Cent=           0 NGrid=           0
         NMat0=    1 NMatS0=      1 NMatT0=    0 NMatD0=    1 NMtDS0=    0 NMtDT0=    0
 Symmetry not used in FoFCou.
 Inv3:  Mode=1 IEnd=    35686803.
 Iteration    1 A*A^-1 deviation from unit magnitude is 8.88D-15 for    125.
 Iteration    1 A*A^-1 deviation from orthogonality  is 5.82D-15 for   2418    191.
 Iteration    1 A^-1*A deviation from unit magnitude is 8.44D-15 for    125.
 Iteration    1 A^-1*A deviation from orthogonality  is 3.80D-15 for   2748   1471.
 E= -1976.27782340746    
 DIIS: error= 1.51D-02 at cycle   1 NSaved=   1.
 NSaved= 1 IEnMin= 1 EnMin= -1976.27782340746     IErMin= 1 ErrMin= 1.51D-02
 ErrMax= 1.51D-02  0.00D+00 EMaxC= 1.00D-01 BMatC= 4.20D+00 BMatP= 4.20D+00
 IDIUse=3 WtCom= 8.49D-01 WtEn= 1.51D-01
 Coeff-Com:  0.100D+01
 Coeff-En:   0.100D+01
 Coeff:      0.100D+01
 Gap=     0.166 Goal=   None    Shift=    0.000
 Gap=     0.197 Goal=   None    Shift=    0.000
 GapD=    0.166 DampG=1.000 DampE=0.500 DampFc=0.5000 IDamp=-1.
 Damping current iteration by 5.00D-01
 RMSDP=2.93D-03 MaxDP=7.02D-01              OVMax= 2.95D-01

 Cycle   2  Pass 1  IDiag  1:
 RMSU=  1.46D-03    CP:  9.94D-01
 E= -1976.68510551865     Delta-E=       -0.407282111188 Rises=F Damp=T
 DIIS: error= 4.44D-03 at cycle   2 NSaved=   2.
 NSaved= 2 IEnMin= 2 EnMin= -1976.68510551865     IErMin= 2 ErrMin= 4.44D-03
 ErrMax= 4.44D-03  0.00D+00 EMaxC= 1.00D-01 BMatC= 3.39D-01 BMatP= 4.20D+00
 IDIUse=3 WtCom= 9.56D-01 WtEn= 4.44D-02
 Coeff-Com: -0.412D-01 0.104D+01
 Coeff-En:   0.000D+00 0.100D+01
 Coeff:     -0.393D-01 0.104D+01
 Gap=     0.242 Goal=   None    Shift=    0.000
 Gap=     0.158 Goal=   None    Shift=    0.000
 RMSDP=1.02D-03 MaxDP=2.08D-01 DE=-4.07D-01 OVMax= 1.98D-01

 Cycle   3  Pass 1  IDiag  1:
 RMSU=  9.25D-04    CP:  9.78D-01  7.06D-01
 E= -1977.10122014556     Delta-E=       -0.416114626912 Rises=F Damp=F
 DIIS: error= 3.12D-03 at cycle   3 NSaved=   3.
 NSaved= 3 IEnMin= 3 EnMin= -1977.10122014556     IErMin= 3 ErrMin= 3.12D-03
 ErrMax= 3.12D-03  0.00D+00 EMaxC= 1.00D-01 BMatC= 1.37D-01 BMatP= 3.39D-01
 IDIUse=3 WtCom= 9.69D-01 WtEn= 3.12D-02
 Coeff-Com: -0.844D-01 0.402D+00 0.682D+00
 Coeff-En:   0.000D+00 0.000D+00 0.100D+01
 Coeff:     -0.817D-01 0.390D+00 0.692D+00
 Gap=     0.178 Goal=   None    Shift=    0.000
 Gap=     0.154 Goal=   None    Shift=    0.000
 RMSDP=3.30D-04 MaxDP=4.84D-02 DE=-4.16D-01 OVMax= 5.62D-02

 Cycle   4  Pass 1  IDiag  1:
 RMSU=  2.54D-04    CP:  9.80D-01  8.45D-01  9.39D-01
 E= -1977.12761650515     Delta-E=       -0.026396359591 Rises=F Damp=F
 DIIS: error= 1.29D-03 at cycle   4 NSaved=   4.
 NSaved= 4 IEnMin= 4 EnMin= -1977.12761650515     IErMin= 4 ErrMin= 1.29D-03
 ErrMax= 1.29D-03  0.00D+00 EMaxC= 1.00D-01 BMatC= 3.08D-02 BMatP= 1.37D-01
 IDIUse=3 WtCom= 9.87D-01 WtEn= 1.29D-02
 Coeff-Com: -0.326D-01 0.868D-01 0.364D+00 0.582D+00
 Coeff-En:   0.000D+00 0.000D+00 0.125D+00 0.875D+00
 Coeff:     -0.322D-01 0.857D-01 0.361D+00 0.586D+00
 Gap=     0.174 Goal=   None    Shift=    0.000
 Gap=     0.155 Goal=   None    Shift=    0.000
 RMSDP=1.64D-04 MaxDP=3.49D-02 DE=-2.64D-02 OVMax= 1.98D-02

 Cycle   5  Pass 1  IDiag  1:
 RMSU=  9.43D-05    CP:  9.78D-01  7.74D-01  9.95D-01  7.37D-01
 E= -1977.13428704921     Delta-E=       -0.006670544059 Rises=F Damp=F
 DIIS: error= 3.57D-04 at cycle   5 NSaved=   5.
 NSaved= 5 IEnMin= 5 EnMin= -1977.13428704921     IErMin= 5 ErrMin= 3.57D-04
 ErrMax= 3.57D-04  0.00D+00 EMaxC= 1.00D-01 BMatC= 1.71D-03 BMatP= 3.08D-02
 IDIUse=3 WtCom= 9.96D-01 WtEn= 3.57D-03
 Coeff-Com: -0.831D-02 0.132D-01 0.128D+00 0.271D+00 0.596D+00
 Coeff-En:   0.000D+00 0.000D+00 0.000D+00 0.000D+00 0.100D+01
 Coeff:     -0.828D-02 0.131D-01 0.127D+00 0.270D+00 0.598D+00
 Gap=     0.175 Goal=   None    Shift=    0.000
 Gap=     0.158 Goal=   None    Shift=    0.000
 RMSDP=3.44D-05 MaxDP=5.23D-03 DE=-6.67D-03 OVMax= 7.88D-03

 Cycle   6  Pass 1  IDiag  1:
 RMSU=  3.00D-05    CP:  9.78D-01  7.83D-01  9.97D-01  7.68D-01  9.22D-01
 E= -1977.13477446830     Delta-E=       -0.000487419092 Rises=F Damp=F
 DIIS: error= 1.67D-04 at cycle   6 NSaved=   6.
 NSaved= 6 IEnMin= 6 EnMin= -1977.13477446830     IErMin= 6 ErrMin= 1.67D-04
 ErrMax= 1.67D-04  0.00D+00 EMaxC= 1.00D-01 BMatC= 1.74D-04 BMatP= 1.71D-03
 IDIUse=3 WtCom= 9.98D-01 WtEn= 1.67D-03
 Coeff-Com:  0.322D-02-0.108D-01-0.127D-01-0.549D-02 0.163D+00 0.863D+00
 Coeff-En:   0.000D+00 0.000D+00 0.000D+00 0.000D+00 0.000D+00 0.100D+01
 Coeff:      0.322D-02-0.108D-01-0.127D-01-0.548D-02 0.162D+00 0.863D+00
 Gap=     0.176 Goal=   None    Shift=    0.000
 Gap=     0.159 Goal=   None    Shift=    0.000
 RMSDP=2.81D-05 MaxDP=5.00D-03 DE=-4.87D-04 OVMax= 5.70D-03

 Cycle   7  Pass 1  IDiag  1:
 RMSU=  1.31D-05    CP:  9.78D-01  7.73D-01  1.01D+00  7.81D-01  1.09D+00
                    CP:  1.30D+00
 E= -1977.13490153511     Delta-E=       -0.000127066812 Rises=F Damp=F
 DIIS: error= 7.50D-05 at cycle   7 NSaved=   7.
 NSaved= 7 IEnMin= 7 EnMin= -1977.13490153511     IErMin= 7 ErrMin= 7.50D-05
 ErrMax= 7.50D-05  0.00D+00 EMaxC= 1.00D-01 BMatC= 4.89D-05 BMatP= 1.74D-04
 IDIUse=1 WtCom= 1.00D+00 WtEn= 0.00D+00
 Coeff-Com:  0.297D-02-0.664D-02-0.302D-01-0.617D-01-0.818D-01 0.285D+00
 Coeff-Com:  0.893D+00
 Coeff:      0.297D-02-0.664D-02-0.302D-01-0.617D-01-0.818D-01 0.285D+00
 Coeff:      0.893D+00
 Gap=     0.177 Goal=   None    Shift=    0.000
 Gap=     0.160 Goal=   None    Shift=    0.000
 RMSDP=1.55D-05 MaxDP=2.04D-03 DE=-1.27D-04 OVMax= 4.16D-03

 Cycle   8  Pass 1  IDiag  1:
 RMSU=  6.21D-06    CP:  9.78D-01  7.70D-01  1.01D+00  7.92D-01  1.18D+00
                    CP:  1.56D+00  1.39D+00
 E= -1977.13494774166     Delta-E=       -0.000046206547 Rises=F Damp=F
 DIIS: error= 3.90D-05 at cycle   8 NSaved=   8.
 NSaved= 8 IEnMin= 8 EnMin= -1977.13494774166     IErMin= 8 ErrMin= 3.90D-05
 ErrMax= 3.90D-05  0.00D+00 EMaxC= 1.00D-01 BMatC= 1.34D-05 BMatP= 4.89D-05
 IDIUse=1 WtCom= 1.00D+00 WtEn= 0.00D+00
 Coeff-Com:  0.367D-03 0.750D-05-0.809D-02-0.227D-01-0.623D-01-0.106D+00
 Coeff-Com:  0.337D+00 0.863D+00
 Coeff:      0.367D-03 0.750D-05-0.809D-02-0.227D-01-0.623D-01-0.106D+00
 Coeff:      0.337D+00 0.863D+00
 Gap=     0.177 Goal=   None    Shift=    0.000
 Gap=     0.161 Goal=   None    Shift=    0.000
 RMSDP=7.71D-06 MaxDP=9.91D-04 DE=-4.62D-05 OVMax= 2.55D-03

 Cycle   9  Pass 1  IDiag  1:
 RMSU=  3.17D-06    CP:  9.78D-01  7.68D-01  1.01D+00  7.92D-01  1.22D+00
                    CP:  1.66D+00  1.69D+00  1.35D+00
 E= -1977.13496005320     Delta-E=       -0.000012311540 Rises=F Damp=F
 DIIS: error= 2.14D-05 at cycle   9 NSaved=   9.
 NSaved= 9 IEnMin= 9 EnMin= -1977.13496005320     IErMin= 9 ErrMin= 2.14D-05
 ErrMax= 2.14D-05  0.00D+00 EMaxC= 1.00D-01 BMatC= 3.44D-06 BMatP= 1.34D-05
 IDIUse=1 WtCom= 1.00D+00 WtEn= 0.00D+00
 Coeff-Com: -0.554D-03 0.158D-02 0.380D-02 0.536D-02-0.120D-02-0.112D+00
 Coeff-Com: -0.824D-01 0.337D+00 0.849D+00
 Coeff:     -0.554D-03 0.158D-02 0.380D-02 0.536D-02-0.120D-02-0.112D+00
 Coeff:     -0.824D-01 0.337D+00 0.849D+00
 Gap=     0.177 Goal=   None    Shift=    0.000
 Gap=     0.161 Goal=   None    Shift=    0.000
 RMSDP=3.73D-06 MaxDP=4.40D-04 DE=-1.23D-05 OVMax= 1.24D-03

 Cycle  10  Pass 1  IDiag  1:
 RMSU=  1.49D-06    CP:  9.78D-01  7.67D-01  1.01D+00  7.91D-01  1.23D+00
                    CP:  1.69D+00  1.82D+00  1.68D+00  1.25D+00
 E= -1977.13496295914     Delta-E=       -0.000002905940 Rises=F Damp=F
 DIIS: error= 1.09D-05 at cycle  10 NSaved=  10.
 NSaved=10 IEnMin=10 EnMin= -1977.13496295914     IErMin=10 ErrMin= 1.09D-05
 ErrMax= 1.09D-05  0.00D+00 EMaxC= 1.00D-01 BMatC= 8.80D-07 BMatP= 3.44D-06
 IDIUse=1 WtCom= 1.00D+00 WtEn= 0.00D+00
 Coeff-Com: -0.354D-03 0.761D-03 0.372D-02 0.824D-02 0.153D-01-0.283D-01
 Coeff-Com: -0.120D+00-0.602D-01 0.381D+00 0.800D+00
 Coeff:     -0.354D-03 0.761D-03 0.372D-02 0.824D-02 0.153D-01-0.283D-01
 Coeff:     -0.120D+00-0.602D-01 0.381D+00 0.800D+00
 Gap=     0.178 Goal=   None    Shift=    0.000
 Gap=     0.161 Goal=   None    Shift=    0.000
 RMSDP=1.70D-06 MaxDP=1.65D-04 DE=-2.91D-06 OVMax= 6.37D-04

 Cycle  11  Pass 1  IDiag  1:
 RMSU=  7.43D-07    CP:  9.78D-01  7.67D-01  1.01D+00  7.91D-01  1.23D+00
                    CP:  1.70D+00  1.87D+00  1.80D+00  1.53D+00  1.29D+00
 E= -1977.13496365437     Delta-E=       -0.000000695234 Rises=F Damp=F
 DIIS: error= 3.93D-06 at cycle  11 NSaved=  11.
 NSaved=11 IEnMin=11 EnMin= -1977.13496365437     IErMin=11 ErrMin= 3.93D-06
 ErrMax= 3.93D-06  0.00D+00 EMaxC= 1.00D-01 BMatC= 1.89D-07 BMatP= 8.80D-07
 IDIUse=1 WtCom= 1.00D+00 WtEn= 0.00D+00
 Coeff-Com: -0.323D-04-0.111D-04 0.697D-03 0.231D-02 0.678D-02 0.100D-01
 Coeff-Com: -0.309D-01-0.886D-01-0.193D-01 0.335D+00 0.784D+00
 Coeff:     -0.323D-04-0.111D-04 0.697D-03 0.231D-02 0.678D-02 0.100D-01
 Coeff:     -0.309D-01-0.886D-01-0.193D-01 0.335D+00 0.784D+00
 Gap=     0.178 Goal=   None    Shift=    0.000
 Gap=     0.161 Goal=   None    Shift=    0.000
 RMSDP=7.11D-07 MaxDP=5.38D-05 DE=-6.95D-07 OVMax= 2.52D-04

 Cycle  12  Pass 1  IDiag  1:
 RMSU=  3.24D-07    CP:  9.78D-01  7.67D-01  1.01D+00  7.91D-01  1.23D+00
                    CP:  1.70D+00  1.87D+00  1.85D+00  1.61D+00  1.56D+00
                    CP:  1.28D+00
 E= -1977.13496379693     Delta-E=       -0.000000142559 Rises=F Damp=F
 DIIS: error= 2.54D-06 at cycle  12 NSaved=  12.
 NSaved=12 IEnMin=12 EnMin= -1977.13496379693     IErMin=12 ErrMin= 2.54D-06
 ErrMax= 2.54D-06  0.00D+00 EMaxC= 1.00D-01 BMatC= 3.44D-08 BMatP= 1.89D-07
 IDIUse=1 WtCom= 1.00D+00 WtEn= 0.00D+00
 Coeff-Com:  0.721D-04-0.179D-03-0.699D-03-0.129D-02-0.965D-03 0.101D-01
 Coeff-Com:  0.166D-01-0.148D-01-0.978D-01-0.676D-01 0.246D+00 0.910D+00
 Coeff:      0.721D-04-0.179D-03-0.699D-03-0.129D-02-0.965D-03 0.101D-01
 Coeff:      0.166D-01-0.148D-01-0.978D-01-0.676D-01 0.246D+00 0.910D+00
 Gap=     0.178 Goal=   None    Shift=    0.000
 Gap=     0.161 Goal=   None    Shift=    0.000
 RMSDP=4.03D-07 MaxDP=2.90D-05 DE=-1.43D-07 OVMax= 1.69D-04

 Cycle  13  Pass 1  IDiag  1:
 RMSU=  1.73D-07    CP:  9.78D-01  7.67D-01  1.01D+00  7.91D-01  1.23D+00
                    CP:  1.70D+00  1.87D+00  1.86D+00  1.65D+00  1.71D+00
                    CP:  1.58D+00  1.28D+00
 E= -1977.13496383556     Delta-E=       -0.000000038627 Rises=F Damp=F
 DIIS: error= 1.27D-06 at cycle  13 NSaved=  13.
 NSaved=13 IEnMin=13 EnMin= -1977.13496383556     IErMin=13 ErrMin= 1.27D-06
 ErrMax= 1.27D-06  0.00D+00 EMaxC= 1.00D-01 BMatC= 1.12D-08 BMatP= 3.44D-08
 IDIUse=1 WtCom= 1.00D+00 WtEn= 0.00D+00
 Coeff-Com:  0.345D-04-0.688D-04-0.418D-03-0.100D-02-0.160D-02 0.234D-02
 Coeff-Com:  0.129D-01 0.121D-01-0.416D-01-0.965D-01-0.501D-01 0.409D+00
 Coeff-Com:  0.755D+00
 Coeff:      0.345D-04-0.688D-04-0.418D-03-0.100D-02-0.160D-02 0.234D-02
 Coeff:      0.129D-01 0.121D-01-0.416D-01-0.965D-01-0.501D-01 0.409D+00
 Coeff:      0.755D+00
 Gap=     0.178 Goal=   None    Shift=    0.000
 Gap=     0.161 Goal=   None    Shift=    0.000
 RMSDP=1.86D-07 MaxDP=2.20D-05 DE=-3.86D-08 OVMax= 6.46D-05

 Cycle  14  Pass 1  IDiag  1:
 RMSU=  7.59D-08    CP:  9.78D-01  7.67D-01  1.01D+00  7.90D-01  1.24D+00
                    CP:  1.70D+00  1.87D+00  1.87D+00  1.66D+00  1.77D+00
                    CP:  1.69D+00  1.51D+00  1.25D+00
 E= -1977.13496384536     Delta-E=       -0.000000009806 Rises=F Damp=F
 DIIS: error= 5.66D-07 at cycle  14 NSaved=  14.
 NSaved=14 IEnMin=14 EnMin= -1977.13496384536     IErMin=14 ErrMin= 5.66D-07
 ErrMax= 5.66D-07  0.00D+00 EMaxC= 1.00D-01 BMatC= 3.03D-09 BMatP= 1.12D-08
 IDIUse=1 WtCom= 1.00D+00 WtEn= 0.00D+00
 Coeff-Com: -0.810D-05 0.259D-04 0.527D-04-0.324D-04-0.422D-03-0.211D-02
 Coeff-Com:  0.189D-03 0.102D-01 0.119D-01-0.181D-01-0.955D-01-0.115D+00
 Coeff-Com:  0.311D+00 0.898D+00
 Coeff:     -0.810D-05 0.259D-04 0.527D-04-0.324D-04-0.422D-03-0.211D-02
 Coeff:      0.189D-03 0.102D-01 0.119D-01-0.181D-01-0.955D-01-0.115D+00
 Coeff:      0.311D+00 0.898D+00
 Gap=     0.178 Goal=   None    Shift=    0.000
 Gap=     0.161 Goal=   None    Shift=    0.000
 RMSDP=1.05D-07 MaxDP=8.38D-06 DE=-9.81D-09 OVMax= 4.28D-05

 Cycle  15  Pass 1  IDiag  1:
 RMSU=  4.50D-08    CP:  9.78D-01  7.67D-01  1.01D+00  7.90D-01  1.24D+00
                    CP:  1.70D+00  1.87D+00  1.87D+00  1.66D+00  1.79D+00
                    CP:  1.73D+00  1.64D+00  1.53D+00  1.54D+00
 E= -1977.13496384892     Delta-E=       -0.000000003552 Rises=F Damp=F
 DIIS: error= 2.59D-07 at cycle  15 NSaved=  15.
 NSaved=15 IEnMin=15 EnMin= -1977.13496384892     IErMin=15 ErrMin= 2.59D-07
 ErrMax= 2.59D-07  0.00D+00 EMaxC= 1.00D-01 BMatC= 7.20D-10 BMatP= 3.03D-09
 IDIUse=1 WtCom= 1.00D+00 WtEn= 0.00D+00
 Coeff-Com: -0.117D-04 0.264D-04 0.155D-03 0.306D-03 0.335D-03-0.132D-02
 Coeff-Com: -0.416D-02-0.972D-03 0.160D-01 0.265D-01-0.998D-02-0.171D+00
 Coeff-Com: -0.124D+00 0.286D+00 0.982D+00
 Coeff:     -0.117D-04 0.264D-04 0.155D-03 0.306D-03 0.335D-03-0.132D-02
 Coeff:     -0.416D-02-0.972D-03 0.160D-01 0.265D-01-0.998D-02-0.171D+00
 Coeff:     -0.124D+00 0.286D+00 0.982D+00
 Gap=     0.178 Goal=   None    Shift=    0.000
 Gap=     0.161 Goal=   None    Shift=    0.000
 RMSDP=6.44D-08 MaxDP=6.48D-06 DE=-3.55D-09 OVMax= 2.59D-05

 Cycle  16  Pass 1  IDiag  1:
 RMSU=  2.44D-08    CP:  9.78D-01  7.67D-01  1.01D+00  7.90D-01  1.24D+00
                    CP:  1.70D+00  1.87D+00  1.88D+00  1.66D+00  1.79D+00
                    CP:  1.75D+00  1.69D+00  1.68D+00  2.02D+00  1.49D+00
 E= -1977.13496384984     Delta-E=       -0.000000000922 Rises=F Damp=F
 DIIS: error= 1.36D-07 at cycle  16 NSaved=  16.
 NSaved=16 IEnMin=16 EnMin= -1977.13496384984     IErMin=16 ErrMin= 1.36D-07
 ErrMax= 1.36D-07  0.00D+00 EMaxC= 1.00D-01 BMatC= 1.85D-10 BMatP= 7.20D-10
 IDIUse=1 WtCom= 1.00D+00 WtEn= 0.00D+00
 Coeff-Com: -0.239D-05 0.396D-05 0.510D-04 0.126D-03 0.210D-03-0.103D-03
 Coeff-Com: -0.169D-02-0.242D-02 0.401D-02 0.147D-01 0.164D-01-0.470D-01
 Coeff-Com: -0.118D+00-0.911D-01 0.417D+00 0.808D+00
 Coeff:     -0.239D-05 0.396D-05 0.510D-04 0.126D-03 0.210D-03-0.103D-03
 Coeff:     -0.169D-02-0.242D-02 0.401D-02 0.147D-01 0.164D-01-0.470D-01
 Coeff:     -0.118D+00-0.911D-01 0.417D+00 0.808D+00
 Gap=     0.178 Goal=   None    Shift=    0.000
 Gap=     0.161 Goal=   None    Shift=    0.000
 RMSDP=2.60D-08 MaxDP=1.89D-06 DE=-9.22D-10 OVMax= 8.70D-06

 Cycle  17  Pass 1  IDiag  1:
 RMSU=  1.04D-08    CP:  9.78D-01  7.67D-01  1.01D+00  7.90D-01  1.24D+00
                    CP:  1.70D+00  1.87D+00  1.88D+00  1.66D+00  1.79D+00
                    CP:  1.74D+00  1.70D+00  1.73D+00  2.20D+00  1.79D+00
                    CP:  1.31D+00
 E= -1977.13496384990     Delta-E=       -0.000000000063 Rises=F Damp=F
 DIIS: error= 6.30D-08 at cycle  17 NSaved=  17.
 NSaved=17 IEnMin=17 EnMin= -1977.13496384990     IErMin=17 ErrMin= 6.30D-08
 ErrMax= 6.30D-08  0.00D+00 EMaxC= 1.00D-01 BMatC= 3.47D-11 BMatP= 1.85D-10
 IDIUse=1 WtCom= 1.00D+00 WtEn= 0.00D+00
 Coeff-Com:  0.170D-05-0.418D-05-0.171D-04-0.243D-04 0.270D-05 0.252D-03
 Coeff-Com:  0.356D-03-0.627D-03-0.227D-02-0.980D-03 0.826D-02 0.238D-01
 Coeff-Com: -0.118D-01-0.103D+00-0.817D-01 0.296D+00 0.872D+00
 Coeff:      0.170D-05-0.418D-05-0.171D-04-0.243D-04 0.270D-05 0.252D-03
 Coeff:      0.356D-03-0.627D-03-0.227D-02-0.980D-03 0.826D-02 0.238D-01
 Coeff:     -0.118D-01-0.103D+00-0.817D-01 0.296D+00 0.872D+00
 Gap=     0.178 Goal=   None    Shift=    0.000
 Gap=     0.161 Goal=   None    Shift=    0.000
 RMSDP=1.18D-08 MaxDP=9.66D-07 DE=-6.28D-11 OVMax= 4.32D-06

 Cycle  18  Pass 1  IDiag  1:
 RMSU=  4.82D-09    CP:  9.78D-01  7.67D-01  1.01D+00  7.90D-01  1.24D+00
                    CP:  1.70D+00  1.87D+00  1.88D+00  1.66D+00  1.79D+00
                    CP:  1.74D+00  1.70D+00  1.73D+00  2.26D+00  1.92D+00
                    CP:  1.57D+00  1.38D+00
 E= -1977.13496384991     Delta-E=       -0.000000000011 Rises=F Damp=F
 DIIS: error= 2.69D-08 at cycle  18 NSaved=  18.
 NSaved=18 IEnMin=18 EnMin= -1977.13496384991     IErMin=18 ErrMin= 2.69D-08
 ErrMax= 2.69D-08  0.00D+00 EMaxC= 1.00D-01 BMatC= 7.16D-12 BMatP= 3.47D-11
 IDIUse=1 WtCom= 1.00D+00 WtEn= 0.00D+00
 Coeff-Com:  0.959D-06-0.214D-05-0.147D-04-0.281D-04-0.303D-04 0.113D-03
 Coeff-Com:  0.400D-03 0.102D-03-0.144D-02-0.260D-02 0.514D-03 0.157D-01
 Coeff-Com:  0.143D-01-0.242D-01-0.936D-01-0.163D-01 0.318D+00 0.789D+00
 Coeff:      0.959D-06-0.214D-05-0.147D-04-0.281D-04-0.303D-04 0.113D-03
 Coeff:      0.400D-03 0.102D-03-0.144D-02-0.260D-02 0.514D-03 0.157D-01
 Coeff:      0.143D-01-0.242D-01-0.936D-01-0.163D-01 0.318D+00 0.789D+00
 Gap=     0.178 Goal=   None    Shift=    0.000
 Gap=     0.161 Goal=   None    Shift=    0.000
 RMSDP=5.20D-09 MaxDP=7.33D-07 DE=-1.09D-11 OVMax= 1.88D-06

 Error on total polarization charges =  0.02297
 SCF Done:  E(UM062X) =  -1977.13496385     A.U. after   18 cycles
            NFock= 18  Conv=0.52D-08     -V/T= 2.0037
 <Sx>= 0.0000 <Sy>= 0.0000 <Sz>= 0.5000 <S**2>= 0.7776 S= 0.5137
 <L.S>= 0.000000000000E+00
 KE= 1.969808236842D+03 PE=-1.044001733841D+04 EE= 3.612226125724D+03
 Annihilation of the first spin contaminant:
 S**2 before annihilation     0.7776,   after     0.7506
 Leave Link  502 at Thu Nov  6 06:58:39 2025, MaxMem= 30870077440 cpu:           49773.0 elap:             785.8
 (Enter /public/software/gauss/g16/l601.exe)
 Copying SCF densities to generalized density rwf, IOpCl= 1 IROHF=0.

 **********************************************************************

            Population analysis using the SCF density.

 **********************************************************************

 Orbital symmetries:
 Alpha Orbitals:
       Occupied  (A) (A) (A) (A) (A) (A) (A) (A) (A) (A) (A) (A)
                 (A) (A) (A) (A) (A) (A) (A) (A) (A) (A) (A) (A)
                 (A) (A) (A) (A) (A) (A) (A) (A) (A) (A) (A) (A)
                 (A) (A) (A) (A) (A) (A) (A) (A) (A) (A) (A) (A)
                 (A) (A) (A) (A) (A) (A) (A) (A) (A) (A) (A) (A)
                 (A) (A) (A) (A) (A) (A) (A) (A) (A) (A) (A) (A)
                 (A) (A) (A) (A) (A) (A) (A) (A) (A) (A) (A) (A)
                 (A) (A) (A) (A) (A) (A) (A) (A) (A) (A) (A) (A)
                 (A) (A) (A) (A) (A) (A) (A) (A) (A) (A) (A)
       Virtual   (A) (A) (A) (A) (A) (A) (A) (A) (A) (A) (A) (A)
                 (A) (A) (A) (A) (A) (A) (A) (A) (A) (A) (A) (A)
                 (A) (A) (A) (A) (A) (A) (A) (A) (A) (A) (A) (A)
                 (A) (A) (A) (A) (A) (A) (A) (A) (A) (A) (A) (A)
                 (A) (A) (A) (A) (A) (A) (A) (A) (A) (A) (A) (A)
                 (A) (A) (A) (A) (A) (A) (A) (A) (A) (A) (A) (A)
                 (A) (A) (A) (A) (A) (A) (A) (A) (A) (A) (A) (A)
                 (A) (A) (A) (A) (A) (A) (A) (A) (A) (A) (A) (A)
                 (A) (A) (A) (A) (A) (A) (A) (A) (A) (A) (A) (A)
                 (A) (A) (A) (A) (A) (A) (A) (A) (A) (A) (A) (A)
                 (A) (A) (A) (A) (A) (A) (A) (A) (A) (A) (A) (A)
                 (A) (A) (A) (A) (A) (A) (A) (A) (A) (A) (A) (A)
                 (A) (A) (A) (A) (A) (A) (A) (A) (A) (A) (A) (A)
                 (A) (A) (A) (A) (A) (A) (A) (A) (A) (A) (A) (A)
                 (A) (A) (A) (A) (A) (A) (A) (A) (A) (A) (A) (A)
                 (A) (A) (A) (A) (A) (A) (A) (A) (A) (A) (A) (A)
                 (A) (A) (A) (A) (A) (A) (A) (A) (A) (A) (A) (A)
                 (A) (A) (A) (A) (A) (A) (A) (A) (A) (A) (A) (A)
                 (A) (A) (A) (A) (A) (A) (A) (A) (A) (A) (A) (A)
                 (A) (A) (A) (A) (A) (A) (A) (A) (A) (A) (A) (A)
                 (A) (A) (A) (A) (A) (A) (A) (A) (A) (A) (A) (A)
                 (A) (A) (A) (A) (A) (A) (A) (A) (A) (A) (A) (A)
                 (A) (A) (A) (A) (A) (A) (A) (A) (A) (A) (A) (A)
                 (A) (A) (A) (A) (A) (A) (A) (A) (A) (A) (A) (A)
                 (A) (A) (A) (A) (A) (A) (A) (A) (A) (A) (A) (A)
                 (A) (A) (A) (A) (A) (A) (A) (A) (A) (A) (A) (A)
                 (A) (A) (A) (A) (A) (A) (A) (A) (A) (A) (A) (A)
                 (A) (A) (A) (A) (A) (A) (A) (A) (A) (A) (A) (A)
                 (A) (A) (A) (A) (A) (A) (A) (A) (A) (A) (A) (A)
                 (A) (A) (A) (A) (A) (A) (A) (A) (A) (A) (A) (A)
                 (A) (A) (A) (A) (A) (A) (A) (A) (A) (A) (A) (A)
                 (A) (A) (A) (A) (A) (A) (A) (A) (A) (A) (A) (A)
                 (A) (A) (A) (A) (A) (A) (A) (A) (A) (A) (A) (A)
                 (A) (A) (A) (A) (A) (A) (A) (A) (A) (A) (A) (A)
                 (A) (A) (A) (A) (A) (A) (A) (A) (A) (A) (A) (A)
                 (A) (A) (A) (A) (A) (A) (A) (A) (A) (A) (A) (A)
                 (A) (A) (A) (A) (A) (A) (A) (A) (A) (A) (A) (A)
                 (A) (A) (A) (A) (A) (A) (A) (A) (A) (A) (A) (A)
                 (A) (A) (A) (A) (A) (A) (A) (A) (A) (A) (A) (A)
                 (A) (A) (A) (A) (A) (A) (A) (A) (A) (A) (A) (A)
                 (A) (A) (A) (A) (A) (A) (A) (A) (A) (A) (A) (A)
                 (A) (A) (A) (A) (A) (A) (A) (A) (A) (A) (A) (A)
                 (A) (A) (A) (A) (A) (A) (A) (A) (A) (A) (A) (A)
                 (A) (A) (A) (A) (A) (A) (A) (A) (A) (A) (A) (A)
                 (A) (A) (A) (A) (A) (A) (A) (A) (A) (A) (A) (A)
                 (A) (A) (A) (A) (A) (A) (A) (A) (A) (A) (A) (A)
                 (A) (A) (A) (A) (A) (A) (A) (A) (A) (A) (A) (A)
                 (A) (A) (A) (A) (A) (A) (A) (A) (A) (A) (A) (A)
                 (A) (A) (A) (A) (A) (A) (A) (A) (A) (A) (A) (A)
                 (A) (A) (A) (A) (A) (A) (A) (A) (A) (A) (A) (A)
                 (A) (A) (A) (A) (A) (A) (A) (A) (A) (A) (A) (A)
                 (A) (A) (A) (A) (A) (A) (A) (A) (A) (A) (A) (A)
                 (A) (A) (A) (A) (A) (A) (A) (A) (A) (A) (A) (A)
                 (A) (A) (A) (A) (A) (A) (A) (A) (A) (A) (A) (A)
                 (A) (A) (A) (A) (A) (A) (A) (A) (A) (A) (A) (A)
                 (A) (A) (A) (A) (A) (A) (A) (A) (A) (A) (A) (A)
                 (A) (A) (A) (A) (A) (A) (A) (A) (A) (A) (A) (A)
                 (A) (A) (A) (A) (A) (A) (A) (A) (A) (A) (A) (A)
                 (A) (A) (A) (A) (A) (A) (A) (A) (A) (A) (A) (A)
                 (A) (A) (A) (A) (A) (A) (A) (A) (A) (A) (A) (A)
                 (A) (A) (A) (A) (A) (A) (A) (A) (A) (A) (A) (A)
                 (A) (A) (A) (A) (A) (A) (A) (A) (A) (A) (A) (A)
                 (A) (A) (A) (A) (A) (A) (A) (A) (A) (A) (A) (A)
                 (A) (A) (A) (A) (A) (A) (A) (A) (A) (A) (A) (A)
                 (A) (A) (A) (A) (A) (A) (A) (A) (A) (A) (A) (A)
                 (A) (A) (A) (A) (A) (A) (A) (A) (A) (A) (A) (A)
                 (A) (A) (A) (A) (A) (A) (A) (A) (A) (A) (A) (A)
                 (A) (A) (A) (A) (A) (A) (A) (A) (A) (A) (A) (A)
                 (A) (A) (A) (A) (A) (A) (A) (A) (A) (A) (A) (A)
                 (A) (A) (A) (A) (A) (A) (A) (A) (A) (A) (A) (A)
                 (A) (A) (A) (A) (A) (A) (A) (A) (A) (A) (A) (A)
                 (A) (A) (A) (A) (A) (A) (A) (A) (A) (A) (A) (A)
                 (A) (A) (A) (A) (A) (A) (A) (A) (A) (A) (A) (A)
                 (A) (A) (A) (A) (A) (A) (A) (A) (A) (A) (A) (A)
                 (A) (A) (A) (A) (A) (A) (A) (A) (A) (A) (A) (A)
                 (A) (A) (A) (A) (A) (A) (A) (A) (A) (A) (A) (A)
                 (A) (A) (A) (A) (A) (A) (A) (A) (A) (A) (A) (A)
                 (A) (A) (A) (A) (A) (A) (A) (A) (A) (A) (A) (A)
                 (A) (A) (A) (A) (A) (A) (A) (A) (A) (A) (A) (A)
                 (A) (A) (A) (A) (A) (A) (A) (A) (A) (A) (A) (A)
                 (A) (A) (A) (A) (A) (A) (A) (A) (A) (A) (A) (A)
                 (A) (A) (A) (A) (A) (A) (A) (A) (A) (A) (A) (A)
                 (A) (A) (A) (A) (A) (A) (A) (A) (A)
 Beta  Orbitals:
       Occupied  (A) (A) (A) (A) (A) (A) (A) (A) (A) (A) (A) (A)
                 (A) (A) (A) (A) (A) (A) (A) (A) (A) (A) (A) (A)
                 (A) (A) (A) (A) (A) (A) (A) (A) (A) (A) (A) (A)
                 (A) (A) (A) (A) (A) (A) (A) (A) (A) (A) (A) (A)
                 (A) (A) (A) (A) (A) (A) (A) (A) (A) (A) (A) (A)
                 (A) (A) (A) (A) (A) (A) (A) (A) (A) (A) (A) (A)
                 (A) (A) (A) (A) (A) (A) (A) (A) (A) (A) (A) (A)
                 (A) (A) (A) (A) (A) (A) (A) (A) (A) (A) (A) (A)
                 (A) (A) (A) (A) (A) (A) (A) (A) (A) (A)
       Virtual   (A) (A) (A) (A) (A) (A) (A) (A) (A) (A) (A) (A)
                 (A) (A) (A) (A) (A) (A) (A) (A) (A) (A) (A) (A)
                 (A) (A) (A) (A) (A) (A) (A) (A) (A) (A) (A) (A)
                 (A) (A) (A) (A) (A) (A) (A) (A) (A) (A) (A) (A)
                 (A) (A) (A) (A) (A) (A) (A) (A) (A) (A) (A) (A)
                 (A) (A) (A) (A) (A) (A) (A) (A) (A) (A) (A) (A)
                 (A) (A) (A) (A) (A) (A) (A) (A) (A) (A) (A) (A)
                 (A) (A) (A) (A) (A) (A) (A) (A) (A) (A) (A) (A)
                 (A) (A) (A) (A) (A) (A) (A) (A) (A) (A) (A) (A)
                 (A) (A) (A) (A) (A) (A) (A) (A) (A) (A) (A) (A)
                 (A) (A) (A) (A) (A) (A) (A) (A) (A) (A) (A) (A)
                 (A) (A) (A) (A) (A) (A) (A) (A) (A) (A) (A) (A)
                 (A) (A) (A) (A) (A) (A) (A) (A) (A) (A) (A) (A)
                 (A) (A) (A) (A) (A) (A) (A) (A) (A) (A) (A) (A)
                 (A) (A) (A) (A) (A) (A) (A) (A) (A) (A) (A) (A)
                 (A) (A) (A) (A) (A) (A) (A) (A) (A) (A) (A) (A)
                 (A) (A) (A) (A) (A) (A) (A) (A) (A) (A) (A) (A)
                 (A) (A) (A) (A) (A) (A) (A) (A) (A) (A) (A) (A)
                 (A) (A) (A) (A) (A) (A) (A) (A) (A) (A) (A) (A)
                 (A) (A) (A) (A) (A) (A) (A) (A) (A) (A) (A) (A)
                 (A) (A) (A) (A) (A) (A) (A) (A) (A) (A) (A) (A)
                 (A) (A) (A) (A) (A) (A) (A) (A) (A) (A) (A) (A)
                 (A) (A) (A) (A) (A) (A) (A) (A) (A) (A) (A) (A)
                 (A) (A) (A) (A) (A) (A) (A) (A) (A) (A) (A) (A)
                 (A) (A) (A) (A) (A) (A) (A) (A) (A) (A) (A) (A)
                 (A) (A) (A) (A) (A) (A) (A) (A) (A) (A) (A) (A)
                 (A) (A) (A) (A) (A) (A) (A) (A) (A) (A) (A) (A)
                 (A) (A) (A) (A) (A) (A) (A) (A) (A) (A) (A) (A)
                 (A) (A) (A) (A) (A) (A) (A) (A) (A) (A) (A) (A)
                 (A) (A) (A) (A) (A) (A) (A) (A) (A) (A) (A) (A)
                 (A) (A) (A) (A) (A) (A) (A) (A) (A) (A) (A) (A)
                 (A) (A) (A) (A) (A) (A) (A) (A) (A) (A) (A) (A)
                 (A) (A) (A) (A) (A) (A) (A) (A) (A) (A) (A) (A)
                 (A) (A) (A) (A) (A) (A) (A) (A) (A) (A) (A) (A)
                 (A) (A) (A) (A) (A) (A) (A) (A) (A) (A) (A) (A)
                 (A) (A) (A) (A) (A) (A) (A) (A) (A) (A) (A) (A)
                 (A) (A) (A) (A) (A) (A) (A) (A) (A) (A) (A) (A)
                 (A) (A) (A) (A) (A) (A) (A) (A) (A) (A) (A) (A)
                 (A) (A) (A) (A) (A) (A) (A) (A) (A) (A) (A) (A)
                 (A) (A) (A) (A) (A) (A) (A) (A) (A) (A) (A) (A)
                 (A) (A) (A) (A) (A) (A) (A) (A) (A) (A) (A) (A)
                 (A) (A) (A) (A) (A) (A) (A) (A) (A) (A) (A) (A)
                 (A) (A) (A) (A) (A) (A) (A) (A) (A) (A) (A) (A)
                 (A) (A) (A) (A) (A) (A) (A) (A) (A) (A) (A) (A)
                 (A) (A) (A) (A) (A) (A) (A) (A) (A) (A) (A) (A)
                 (A) (A) (A) (A) (A) (A) (A) (A) (A) (A) (A) (A)
                 (A) (A) (A) (A) (A) (A) (A) (A) (A) (A) (A) (A)
                 (A) (A) (A) (A) (A) (A) (A) (A) (A) (A) (A) (A)
                 (A) (A) (A) (A) (A) (A) (A) (A) (A) (A) (A) (A)
                 (A) (A) (A) (A) (A) (A) (A) (A) (A) (A) (A) (A)
                 (A) (A) (A) (A) (A) (A) (A) (A) (A) (A) (A) (A)
                 (A) (A) (A) (A) (A) (A) (A) (A) (A) (A) (A) (A)
                 (A) (A) (A) (A) (A) (A) (A) (A) (A) (A) (A) (A)
                 (A) (A) (A) (A) (A) (A) (A) (A) (A) (A) (A) (A)
                 (A) (A) (A) (A) (A) (A) (A) (A) (A) (A) (A) (A)
                 (A) (A) (A) (A) (A) (A) (A) (A) (A) (A) (A) (A)
                 (A) (A) (A) (A) (A) (A) (A) (A) (A) (A) (A) (A)
                 (A) (A) (A) (A) (A) (A) (A) (A) (A) (A) (A) (A)
                 (A) (A) (A) (A) (A) (A) (A) (A) (A) (A) (A) (A)
                 (A) (A) (A) (A) (A) (A) (A) (A) (A) (A) (A) (A)
                 (A) (A) (A) (A) (A) (A) (A) (A) (A) (A) (A) (A)
                 (A) (A) (A) (A) (A) (A) (A) (A) (A) (A) (A) (A)
                 (A) (A) (A) (A) (A) (A) (A) (A) (A) (A) (A) (A)
                 (A) (A) (A) (A) (A) (A) (A) (A) (A) (A) (A) (A)
                 (A) (A) (A) (A) (A) (A) (A) (A) (A) (A) (A) (A)
                 (A) (A) (A) (A) (A) (A) (A) (A) (A) (A) (A) (A)
                 (A) (A) (A) (A) (A) (A) (A) (A) (A) (A) (A) (A)
                 (A) (A) (A) (A) (A) (A) (A) (A) (A) (A) (A) (A)
                 (A) (A) (A) (A) (A) (A) (A) (A) (A) (A) (A) (A)
                 (A) (A) (A) (A) (A) (A) (A) (A) (A) (A) (A) (A)
                 (A) (A) (A) (A) (A) (A) (A) (A) (A) (A) (A) (A)
                 (A) (A) (A) (A) (A) (A) (A) (A) (A) (A) (A) (A)
                 (A) (A) (A) (A) (A) (A) (A) (A) (A) (A) (A) (A)
                 (A) (A) (A) (A) (A) (A) (A) (A) (A) (A) (A) (A)
                 (A) (A) (A) (A) (A) (A) (A) (A) (A) (A) (A) (A)
                 (A) (A) (A) (A) (A) (A) (A) (A) (A) (A) (A) (A)
                 (A) (A) (A) (A) (A) (A) (A) (A) (A) (A) (A) (A)
                 (A) (A) (A) (A) (A) (A) (A) (A) (A) (A) (A) (A)
                 (A) (A) (A) (A) (A) (A) (A) (A) (A) (A) (A) (A)
                 (A) (A) (A) (A) (A) (A) (A) (A) (A) (A) (A) (A)
                 (A) (A) (A) (A) (A) (A) (A) (A) (A) (A) (A) (A)
                 (A) (A) (A) (A) (A) (A) (A) (A) (A) (A) (A) (A)
                 (A) (A) (A) (A) (A) (A) (A) (A) (A) (A)
 The electronic state is 2-A.
 Alpha  occ. eigenvalues --  -89.92964 -89.92877 -25.19318 -25.19122 -19.60367
 Alpha  occ. eigenvalues --  -14.76754 -14.76451 -10.61418 -10.58120 -10.58057
 Alpha  occ. eigenvalues --  -10.57972 -10.57931 -10.57874 -10.56938 -10.56767
 Alpha  occ. eigenvalues --  -10.56740 -10.54508 -10.54481 -10.54455 -10.54436
 Alpha  occ. eigenvalues --  -10.54428 -10.54109 -10.53992 -10.53204 -10.53137
 Alpha  occ. eigenvalues --  -10.52786 -10.52748  -8.28690  -8.28589  -7.11848
 Alpha  occ. eigenvalues --   -6.20599  -6.20493  -6.20417  -6.20311  -6.20293
 Alpha  occ. eigenvalues --   -6.20180  -1.31004  -1.27883  -1.13592  -1.08477
 Alpha  occ. eigenvalues --   -1.06509  -0.97738  -0.97570  -0.90646  -0.89188
 Alpha  occ. eigenvalues --   -0.88494  -0.85977  -0.82856  -0.82074  -0.82016
 Alpha  occ. eigenvalues --   -0.80790  -0.79694  -0.76045  -0.74724  -0.71955
 Alpha  occ. eigenvalues --   -0.67205  -0.66364  -0.64927  -0.63697  -0.62460
 Alpha  occ. eigenvalues --   -0.62100  -0.61446  -0.59757  -0.58983  -0.58693
 Alpha  occ. eigenvalues --   -0.57793  -0.57052  -0.55578  -0.54058  -0.52519
 Alpha  occ. eigenvalues --   -0.51462  -0.51224  -0.50885  -0.50286  -0.49452
 Alpha  occ. eigenvalues --   -0.48884  -0.48402  -0.47256  -0.47023  -0.46818
 Alpha  occ. eigenvalues --   -0.46105  -0.45936  -0.45635  -0.45409  -0.45362
 Alpha  occ. eigenvalues --   -0.45100  -0.44795  -0.44719  -0.44432  -0.43835
 Alpha  occ. eigenvalues --   -0.43412  -0.43002  -0.42016  -0.41563  -0.39590
 Alpha  occ. eigenvalues --   -0.39443  -0.39076  -0.35826  -0.32350  -0.31371
 Alpha  occ. eigenvalues --   -0.31042  -0.30699  -0.30528  -0.29905  -0.29116
 Alpha  occ. eigenvalues --   -0.24780  -0.18791
 Alpha virt. eigenvalues --   -0.01041  -0.00011   0.01793   0.05808   0.05941
 Alpha virt. eigenvalues --    0.06480   0.07125   0.07453   0.08265   0.08920
 Alpha virt. eigenvalues --    0.09110   0.09954   0.10395   0.10603   0.10906
 Alpha virt. eigenvalues --    0.11163   0.11334   0.12122   0.12645   0.12837
 Alpha virt. eigenvalues --    0.13302   0.13662   0.13988   0.14621   0.14907
 Alpha virt. eigenvalues --    0.15361   0.15694   0.15867   0.16994   0.17021
 Alpha virt. eigenvalues --    0.18188   0.18323   0.18396   0.18830   0.19512
 Alpha virt. eigenvalues --    0.20396   0.21204   0.21597   0.21662   0.22233
 Alpha virt. eigenvalues --    0.22402   0.23108   0.23418   0.23664   0.23769
 Alpha virt. eigenvalues --    0.24374   0.24496   0.24832   0.25536   0.25860
 Alpha virt. eigenvalues --    0.26544   0.26700   0.27292   0.27513   0.27936
 Alpha virt. eigenvalues --    0.28017   0.28609   0.28686   0.29232   0.29283
 Alpha virt. eigenvalues --    0.29836   0.30437   0.30885   0.31340   0.31892
 Alpha virt. eigenvalues --    0.32265   0.32461   0.32687   0.33217   0.33637
 Alpha virt. eigenvalues --    0.34009   0.34729   0.34827   0.35073   0.35583
 Alpha virt. eigenvalues --    0.35748   0.36174   0.36522   0.36899   0.37425
 Alpha virt. eigenvalues --    0.37956   0.38266   0.38724   0.39085   0.39207
 Alpha virt. eigenvalues --    0.39341   0.39787   0.40123   0.40545   0.40980
 Alpha virt. eigenvalues --    0.41224   0.41574   0.41924   0.42341   0.42512
 Alpha virt. eigenvalues --    0.42994   0.43218   0.43715   0.43940   0.44148
 Alpha virt. eigenvalues --    0.44764   0.44904   0.44948   0.45295   0.45657
 Alpha virt. eigenvalues --    0.46153   0.46530   0.46895   0.46956   0.47514
 Alpha virt. eigenvalues --    0.47845   0.48630   0.48767   0.49489   0.49547
 Alpha virt. eigenvalues --    0.49859   0.49970   0.50506   0.50695   0.51187
 Alpha virt. eigenvalues --    0.51586   0.51989   0.52138   0.52767   0.53371
 Alpha virt. eigenvalues --    0.53555   0.54113   0.54591   0.54627   0.54949
 Alpha virt. eigenvalues --    0.55676   0.56220   0.56504   0.57240   0.57404
 Alpha virt. eigenvalues --    0.57924   0.58914   0.59101   0.59738   0.60054
 Alpha virt. eigenvalues --    0.60645   0.60824   0.61263   0.61635   0.62615
 Alpha virt. eigenvalues --    0.63395   0.63965   0.64524   0.64636   0.65045
 Alpha virt. eigenvalues --    0.65278   0.65986   0.66343   0.66904   0.67066
 Alpha virt. eigenvalues --    0.67447   0.67887   0.68515   0.69055   0.69279
 Alpha virt. eigenvalues --    0.69549   0.69774   0.70127   0.71236   0.71575
 Alpha virt. eigenvalues --    0.71860   0.72211   0.72778   0.73208   0.73407
 Alpha virt. eigenvalues --    0.73701   0.74554   0.74962   0.75284   0.75578
 Alpha virt. eigenvalues --    0.75589   0.76806   0.77491   0.77739   0.78557
 Alpha virt. eigenvalues --    0.79173   0.79450   0.79976   0.80987   0.81348
 Alpha virt. eigenvalues --    0.81857   0.82374   0.82782   0.83074   0.83972
 Alpha virt. eigenvalues --    0.84146   0.85166   0.85533   0.85669   0.86329
 Alpha virt. eigenvalues --    0.86550   0.87803   0.88080   0.88756   0.89401
 Alpha virt. eigenvalues --    0.89858   0.90694   0.91381   0.91657   0.91809
 Alpha virt. eigenvalues --    0.92129   0.92689   0.93354   0.93733   0.93960
 Alpha virt. eigenvalues --    0.94775   0.95045   0.95946   0.96228   0.96331
 Alpha virt. eigenvalues --    0.96514   0.97349   0.97728   0.98316   0.98980
 Alpha virt. eigenvalues --    0.99146   0.99380   0.99781   1.00220   1.00450
 Alpha virt. eigenvalues --    1.00851   1.01441   1.01744   1.02262   1.03836
 Alpha virt. eigenvalues --    1.04130   1.04461   1.04960   1.05006   1.05802
 Alpha virt. eigenvalues --    1.06403   1.06495   1.07275   1.07774   1.08220
 Alpha virt. eigenvalues --    1.08769   1.09307   1.09593   1.10338   1.10809
 Alpha virt. eigenvalues --    1.11245   1.11629   1.11941   1.12411   1.13150
 Alpha virt. eigenvalues --    1.13536   1.14343   1.14817   1.16299   1.16411
 Alpha virt. eigenvalues --    1.17018   1.17402   1.17581   1.18040   1.18660
 Alpha virt. eigenvalues --    1.19005   1.19390   1.19716   1.20067   1.20820
 Alpha virt. eigenvalues --    1.21427   1.21733   1.22510   1.22820   1.23414
 Alpha virt. eigenvalues --    1.24858   1.25410   1.26500   1.26856   1.28227
 Alpha virt. eigenvalues --    1.28706   1.28835   1.29436   1.29614   1.30434
 Alpha virt. eigenvalues --    1.30871   1.31144   1.31688   1.32044   1.32365
 Alpha virt. eigenvalues --    1.33460   1.34244   1.34835   1.35174   1.35355
 Alpha virt. eigenvalues --    1.35624   1.36480   1.36682   1.37181   1.39139
 Alpha virt. eigenvalues --    1.39342   1.40349   1.40792   1.41157   1.42016
 Alpha virt. eigenvalues --    1.42137   1.42666   1.43101   1.43756   1.43969
 Alpha virt. eigenvalues --    1.44797   1.45029   1.45971   1.46275   1.46912
 Alpha virt. eigenvalues --    1.47559   1.48432   1.49098   1.49280   1.49962
 Alpha virt. eigenvalues --    1.50088   1.50456   1.50767   1.51004   1.51316
 Alpha virt. eigenvalues --    1.51819   1.52283   1.52681   1.53105   1.53697
 Alpha virt. eigenvalues --    1.54125   1.54530   1.54793   1.55654   1.56539
 Alpha virt. eigenvalues --    1.56845   1.57103   1.57818   1.57929   1.58556
 Alpha virt. eigenvalues --    1.59283   1.59690   1.59940   1.60525   1.60801
 Alpha virt. eigenvalues --    1.61220   1.61804   1.61995   1.62628   1.62754
 Alpha virt. eigenvalues --    1.63331   1.63669   1.64540   1.65057   1.65294
 Alpha virt. eigenvalues --    1.65644   1.66086   1.67249   1.67447   1.68474
 Alpha virt. eigenvalues --    1.69032   1.70214   1.70654   1.71334   1.71495
 Alpha virt. eigenvalues --    1.72737   1.73581   1.73964   1.75154   1.75433
 Alpha virt. eigenvalues --    1.76405   1.77487   1.77789   1.78356   1.79525
 Alpha virt. eigenvalues --    1.80367   1.80898   1.81754   1.81840   1.82168
 Alpha virt. eigenvalues --    1.83295   1.83939   1.84145   1.85021   1.85467
 Alpha virt. eigenvalues --    1.86315   1.87030   1.87331   1.87819   1.87908
 Alpha virt. eigenvalues --    1.88646   1.89199   1.89577   1.90316   1.90965
 Alpha virt. eigenvalues --    1.91845   1.92114   1.93430   1.93629   1.94118
 Alpha virt. eigenvalues --    1.94919   1.95066   1.95482   1.96622   1.96973
 Alpha virt. eigenvalues --    1.97896   1.99433   1.99928   2.00278   2.01876
 Alpha virt. eigenvalues --    2.02577   2.03243   2.03576   2.04907   2.05279
 Alpha virt. eigenvalues --    2.06361   2.07514   2.08317   2.09159   2.09508
 Alpha virt. eigenvalues --    2.10457   2.10782   2.11910   2.12332   2.12371
 Alpha virt. eigenvalues --    2.12985   2.14347   2.15219   2.15664   2.16112
 Alpha virt. eigenvalues --    2.16486   2.17225   2.17714   2.18480   2.18636
 Alpha virt. eigenvalues --    2.19149   2.19956   2.21138   2.22337   2.22544
 Alpha virt. eigenvalues --    2.23378   2.23971   2.24714   2.26277   2.26595
 Alpha virt. eigenvalues --    2.28274   2.29040   2.31061   2.31580   2.32567
 Alpha virt. eigenvalues --    2.33041   2.34000   2.35218   2.36072   2.36838
 Alpha virt. eigenvalues --    2.37834   2.38006   2.38376   2.39370   2.40109
 Alpha virt. eigenvalues --    2.40536   2.41876   2.42715   2.43714   2.44216
 Alpha virt. eigenvalues --    2.46004   2.47452   2.47800   2.48857   2.49681
 Alpha virt. eigenvalues --    2.50944   2.51439   2.53301   2.54517   2.55046
 Alpha virt. eigenvalues --    2.55967   2.56823   2.56868   2.57571   2.58216
 Alpha virt. eigenvalues --    2.58717   2.59593   2.60857   2.61493   2.62192
 Alpha virt. eigenvalues --    2.63042   2.64084   2.64210   2.64671   2.65161
 Alpha virt. eigenvalues --    2.65781   2.66816   2.67797   2.68425   2.69129
 Alpha virt. eigenvalues --    2.70112   2.70413   2.71153   2.71932   2.72905
 Alpha virt. eigenvalues --    2.73026   2.73389   2.74219   2.74652   2.75378
 Alpha virt. eigenvalues --    2.75922   2.76114   2.76682   2.77894   2.78436
 Alpha virt. eigenvalues --    2.79228   2.79493   2.80423   2.81238   2.81872
 Alpha virt. eigenvalues --    2.82742   2.82778   2.83813   2.84262   2.85061
 Alpha virt. eigenvalues --    2.85395   2.85549   2.86027   2.86686   2.87708
 Alpha virt. eigenvalues --    2.88700   2.89052   2.90028   2.90477   2.90529
 Alpha virt. eigenvalues --    2.91579   2.91894   2.92554   2.92968   2.93285
 Alpha virt. eigenvalues --    2.93426   2.94510   2.95307   2.96310   2.96450
 Alpha virt. eigenvalues --    2.96710   2.97300   2.98003   2.98055   2.98765
 Alpha virt. eigenvalues --    2.99159   2.99570   2.99810   3.00522   3.01041
 Alpha virt. eigenvalues --    3.01416   3.02149   3.02249   3.02467   3.02955
 Alpha virt. eigenvalues --    3.03435   3.04489   3.04704   3.05152   3.05461
 Alpha virt. eigenvalues --    3.05601   3.06148   3.06301   3.06615   3.06968
 Alpha virt. eigenvalues --    3.08073   3.08597   3.08896   3.09226   3.09730
 Alpha virt. eigenvalues --    3.09891   3.10393   3.10635   3.12019   3.12721
 Alpha virt. eigenvalues --    3.13276   3.13338   3.13516   3.14369   3.14588
 Alpha virt. eigenvalues --    3.15065   3.15381   3.16208   3.16339   3.16725
 Alpha virt. eigenvalues --    3.16881   3.17465   3.18074   3.18845   3.19214
 Alpha virt. eigenvalues --    3.19475   3.20085   3.20371   3.20437   3.21344
 Alpha virt. eigenvalues --    3.21490   3.21710   3.22171   3.22587   3.23779
 Alpha virt. eigenvalues --    3.24240   3.24730   3.24967   3.25630   3.26037
 Alpha virt. eigenvalues --    3.26228   3.26735   3.27359   3.27863   3.28148
 Alpha virt. eigenvalues --    3.28347   3.28789   3.29576   3.30595   3.31213
 Alpha virt. eigenvalues --    3.32274   3.32455   3.33129   3.33839   3.34063
 Alpha virt. eigenvalues --    3.34451   3.34984   3.35657   3.36633   3.37476
 Alpha virt. eigenvalues --    3.37601   3.38034   3.38156   3.38797   3.39086
[...]
    34  H(1)              -0.00065      -2.90371      -1.03612      -0.96857
    35  H(1)               0.00036       1.59057       0.56756       0.53056
    36  H(1)              -0.00010      -0.46262      -0.16507      -0.15431
    37  H(1)               0.00029       1.30599       0.46601       0.43563
    38  H(1)              -0.00018      -0.79959      -0.28531      -0.26671
    39  H(1)               0.00003       0.13177       0.04702       0.04395
    40  H(1)               0.00002       0.10074       0.03595       0.03360
    41  H(1)              -0.00104      -4.66422      -1.66431      -1.55582
    42  H(1)               0.00028       1.24537       0.44438       0.41541
    43  H(1)              -0.00060      -2.67022      -0.95280      -0.89069
 --------------------------------------------------------
       Center         ----  Spin Dipole Couplings  ----
                      3XX-RR        3YY-RR        3ZZ-RR
 --------------------------------------------------------
     1   Atom        0.002077      0.000053     -0.002130
     2   Atom        0.022166      0.021906     -0.044072
     3   Atom       -0.096543     -0.096472      0.193014
     4   Atom        0.044208      0.033352     -0.077560
     5   Atom       -0.235260     -0.227801      0.463061
     6   Atom        0.047007      0.049444     -0.096451
     7   Atom       -0.062753     -0.064420      0.127172
     8   Atom       -0.002773     -0.010708      0.013481
     9   Atom       -0.163333     -0.159227      0.322559
    10   Atom       -0.001057     -0.001965      0.003022
    11   Atom        0.001734      0.000039     -0.001773
    12   Atom       -0.046345     -0.047997      0.094342
    13   Atom       -0.003466      0.007370     -0.003904
    14   Atom        0.009116     -0.004870     -0.004246
    15   Atom       -0.002437      0.002437      0.000000
    16   Atom        0.004472     -0.003152     -0.001320
    17   Atom        0.014905      0.008551     -0.023456
    18   Atom       -0.103509     -0.098395      0.201905
    19   Atom        0.001941      0.000482     -0.002424
    20   Atom       -0.006836      0.013927     -0.007091
    21   Atom       -0.015403      0.026832     -0.011429
    22   Atom       -0.047072     -0.035658      0.082729
    23   Atom       -0.122135     -0.119475      0.241610
    24   Atom        0.003999      0.020760     -0.024759
    25   Atom       -0.004177     -0.010089      0.014266
    26   Atom        0.000937      0.006466     -0.007402
    27   Atom       -0.004338     -0.024062      0.028400
    28   Atom        0.074718     -0.057544     -0.017173
    29   Atom        0.001650     -0.000300     -0.001351
    30   Atom        0.002046     -0.000619     -0.001427
    31   Atom        0.002305     -0.000868     -0.001436
    32   Atom       -0.011318      0.014130     -0.002813
    33   Atom       -0.027289      0.031040     -0.003751
    34   Atom        0.001001      0.003028     -0.004029
    35   Atom        0.001243     -0.000091     -0.001152
    36   Atom        0.001870     -0.000487     -0.001383
    37   Atom        0.001525      0.000116     -0.001641
    38   Atom        0.000129      0.000151     -0.000280
    39   Atom       -0.000265      0.000475     -0.000210
    40   Atom       -0.000543      0.001051     -0.000509
    41   Atom        0.002215     -0.002020     -0.000195
    42   Atom        0.000339      0.000199     -0.000538
    43   Atom        0.001835     -0.001325     -0.000510
 --------------------------------------------------------
                        XY            XZ            YZ
 --------------------------------------------------------
     1   Atom        0.001065      0.000254      0.000200
     2   Atom        0.001529      0.002113     -0.001774
     3   Atom        0.001640     -0.021228      0.006899
     4   Atom       -0.004142      0.003779     -0.000164
     5   Atom        0.000817      0.019319      0.020420
     6   Atom        0.008094     -0.009681     -0.003850
     7   Atom       -0.000457      0.021144      0.009041
     8   Atom       -0.004915      0.002878      0.001214
     9   Atom        0.005880      0.056669      0.027154
    10   Atom       -0.002462      0.001116      0.000480
    11   Atom        0.000381     -0.000349     -0.000141
    12   Atom       -0.000044      0.011450      0.005770
    13   Atom        0.001048     -0.005757     -0.000642
    14   Atom        0.003947      0.007334      0.000682
    15   Atom        0.001597     -0.001659      0.001240
    16   Atom       -0.002227      0.005991     -0.001513
    17   Atom       -0.036393     -0.003393      0.004842
    18   Atom        0.000903      0.024768      0.016455
    19   Atom       -0.001197     -0.000080      0.000490
    20   Atom       -0.004618      0.000509     -0.006168
    21   Atom       -0.014558     -0.005811      0.017895
    22   Atom       -0.000770     -0.004018      0.007498
    23   Atom        0.000422     -0.015128     -0.000165
    24   Atom       -0.010740      0.021715      0.013733
    25   Atom        0.025174     -0.038669     -0.033046
    26   Atom       -0.004741      0.011619      0.004865
    27   Atom        0.006436     -0.035739     -0.012012
    28   Atom        0.009894     -0.053013     -0.007046
    29   Atom        0.000839      0.000850      0.000273
    30   Atom        0.001000     -0.000084     -0.000112
    31   Atom        0.000897     -0.000472     -0.000357
    32   Atom        0.004229     -0.000843     -0.000539
    33   Atom       -0.009206      0.000934     -0.000602
    34   Atom       -0.000759     -0.000365     -0.000490
    35   Atom        0.000516     -0.001020     -0.000471
    36   Atom        0.001096     -0.000055     -0.000124
    37   Atom        0.000818      0.000501      0.000344
    38   Atom        0.000243     -0.001410     -0.000691
    39   Atom        0.000377     -0.000226     -0.000152
    40   Atom        0.000182      0.000266      0.000566
    41   Atom        0.001238      0.002634      0.000430
    42   Atom       -0.000732      0.000711      0.000156
    43   Atom       -0.003403      0.000909     -0.002152
 --------------------------------------------------------


 ---------------------------------------------------------------------------------
              Anisotropic Spin Dipole Couplings in Principal Axis System
 ---------------------------------------------------------------------------------

       Atom             a.u.   MegaHertz   Gauss  10(-4) cm-1        Axes

              Baa    -0.0022    -0.289    -0.103    -0.096 -0.0422 -0.0698  0.9967
     1 C(13)  Bbb    -0.0004    -0.054    -0.019    -0.018 -0.3986  0.9159  0.0472
              Bcc     0.0026     0.343     0.122     0.114  0.9161  0.3953  0.0664
 
              Baa    -0.0442    -5.930    -2.116    -1.978 -0.0325  0.0276  0.9991
     2 C(13)  Bbb     0.0206     2.767     0.987     0.923 -0.6722  0.7392 -0.0422
              Bcc     0.0236     3.163     1.129     1.055  0.7397  0.6729  0.0055
 
              Baa    -0.0996   -13.368    -4.770    -4.459  0.8104 -0.5814  0.0725
     3 C(13)  Bbb    -0.0951   -12.762    -4.554    -4.257  0.5814  0.8133  0.0234
              Bcc     0.1947    26.129     9.324     8.716 -0.0725  0.0232  0.9971
 
              Baa    -0.0777   -10.424    -3.719    -3.477 -0.0310  0.0003  0.9995
     4 C(13)  Bbb     0.0320     4.289     1.530     1.431  0.3177  0.9481  0.0095
              Bcc     0.0457     6.135     2.189     2.046  0.9477 -0.3179  0.0295
 
              Baa    -0.2358   -31.643   -11.291   -10.555  0.9991 -0.0340 -0.0266
     5 C(13)  Bbb    -0.2284   -30.648   -10.936   -10.223  0.0332  0.9990 -0.0304
              Bcc     0.4642    62.291    22.227    20.778  0.0276  0.0295  0.9992
 
              Baa    -0.0972   -13.040    -4.653    -4.350  0.0657  0.0226  0.9976
     6 C(13)  Bbb     0.0402     5.395     1.925     1.800  0.7447 -0.6665 -0.0340
              Bcc     0.0570     7.645     2.728     2.550  0.6641  0.7451 -0.0606
 
              Baa    -0.0664    -8.910    -3.179    -2.972  0.7290  0.6755 -0.1112
     7 C(13)  Bbb    -0.0635    -8.522    -3.041    -2.843 -0.6758  0.7360  0.0400
              Bcc     0.1299    17.433     6.220     5.815  0.1089  0.0459  0.9930
 
              Baa    -0.0133    -1.780    -0.635    -0.594  0.4423  0.8925 -0.0881
     8 C(13)  Bbb    -0.0007    -0.096    -0.034    -0.032  0.8816 -0.4507 -0.1402
              Bcc     0.0140     1.876     0.669     0.626  0.1648  0.0157  0.9862
 
              Baa    -0.1706    12.346     4.405     4.118  0.9588 -0.2675 -0.0954
     9 O(17)  Bbb    -0.1600    11.579     4.132     3.862  0.2599  0.9619 -0.0846
              Bcc     0.3306   -23.925    -8.537    -7.981  0.1145  0.0564  0.9918
 
              Baa    -0.0042    -0.561    -0.200    -0.187  0.6447  0.7496 -0.1498
    10 C(13)  Bbb     0.0009     0.116     0.041     0.039  0.7164 -0.6609 -0.2236
              Bcc     0.0033     0.445     0.159     0.148  0.2666 -0.0369  0.9631
 
              Baa    -0.0018    -0.243    -0.087    -0.081  0.0917  0.0570  0.9942
    11 C(13)  Bbb    -0.0000    -0.005    -0.002    -0.002 -0.2167  0.9756 -0.0360
              Bcc     0.0019     0.249     0.089     0.083  0.9719  0.2121 -0.1018
 
              Baa    -0.0484    -6.501    -2.320    -2.169  0.3927  0.9171 -0.0685
    12 C(13)  Bbb    -0.0471    -6.314    -2.253    -2.106  0.9162 -0.3966 -0.0580
              Bcc     0.0955    12.815     4.573     4.275  0.0804  0.0400  0.9960
 
              Baa    -0.0095    -1.268    -0.453    -0.423  0.6947 -0.0158  0.7192
    13 C(13)  Bbb     0.0018     0.244     0.087     0.081  0.7007 -0.2111 -0.6815
              Bcc     0.0076     1.024     0.366     0.342  0.1626  0.9773 -0.1355
 
              Baa    -0.0079    -1.060    -0.378    -0.354 -0.4393  0.3904  0.8091
    14 C(13)  Bbb    -0.0053    -0.711    -0.254    -0.237 -0.0199  0.8962 -0.4432
              Bcc     0.0132     1.771     0.632     0.591  0.8981  0.2108  0.3859
 
              Baa    -0.0039    -0.524    -0.187    -0.175  0.8398 -0.3001  0.4524
    15 C(13)  Bbb     0.0008     0.105     0.038     0.035 -0.5089 -0.1448  0.8486
              Bcc     0.0031     0.418     0.149     0.140  0.1892  0.9429  0.2743
 
              Baa    -0.0051    -0.682    -0.243    -0.228 -0.5179  0.0705  0.8525
    16 C(13)  Bbb    -0.0037    -0.503    -0.180    -0.168  0.2234  0.9732  0.0553
              Bcc     0.0088     1.185     0.423     0.395  0.8257 -0.2190  0.5198
 
              Baa    -0.0257    -1.054    -0.376    -0.352  0.5175  0.6313 -0.5776
    17 S(33)  Bbb    -0.0230    -0.944    -0.337    -0.315  0.4400  0.3827  0.8124
              Bcc     0.0487     1.998     0.713     0.666  0.7339 -0.6745 -0.0797
 
              Baa    -0.1055    -4.070    -1.452    -1.358  0.9942  0.0671 -0.0837
    18 N(14)  Bbb    -0.0993    -3.828    -1.366    -1.277 -0.0714  0.9963 -0.0486
              Bcc     0.2048     7.899     2.818     2.635  0.0801  0.0543  0.9953
 
              Baa    -0.0025    -0.429    -0.153    -0.143 -0.0289 -0.1729  0.9845
    19 B(11)  Bbb    -0.0001    -0.022    -0.008    -0.007  0.4991  0.8509  0.1641
              Bcc     0.0026     0.451     0.161     0.150  0.8660 -0.4961 -0.0617
 
              Baa    -0.0091    -4.584    -1.636    -1.529  0.4460  0.3136  0.8383
    20 F(19)  Bbb    -0.0074    -3.706    -1.322    -1.236  0.8740  0.0495 -0.4835
              Bcc     0.0165     8.290     2.958     2.765 -0.1931  0.9483 -0.2520
 
              Baa    -0.0200   -10.028    -3.578    -3.345  0.9595  0.2456  0.1382
    21 F(19)  Bbb    -0.0185    -9.287    -3.314    -3.098 -0.0368 -0.3772  0.9254
              Bcc     0.0385    19.315     6.892     6.443 -0.2794  0.8930  0.3529
 
              Baa    -0.0472    -1.821    -0.650    -0.608  0.9984  0.0483  0.0281
    22 N(14)  Bbb    -0.0361    -1.393    -0.497    -0.465 -0.0464  0.9968 -0.0645
              Bcc     0.0833     3.214     1.147     1.072 -0.0311  0.0631  0.9975
 
              Baa    -0.1228   -16.481    -5.881    -5.497  0.9915 -0.1233  0.0411
    23 C(13)  Bbb    -0.1194   -16.025    -5.718    -5.346  0.1232  0.9924  0.0056
              Bcc     0.2422    32.506    11.599    10.843 -0.0415 -0.0005  0.9991
 
              Baa    -0.0412    -5.529    -1.973    -1.844 -0.4682 -0.2678  0.8421
    24 C(13)  Bbb     0.0149     2.000     0.714     0.667  0.8116  0.2466  0.5297
              Bcc     0.0263     3.528     1.259     1.177 -0.3495  0.9314  0.1019
 
              Baa    -0.0349    -4.680    -1.670    -1.561  0.6878  0.2227  0.6909
    25 C(13)  Bbb    -0.0323    -4.330    -1.545    -1.444 -0.4817  0.8521  0.2049
              Bcc     0.0671     9.009     3.215     3.005 -0.5431 -0.4737  0.6933
 
              Baa    -0.0175    -2.343    -0.836    -0.782 -0.5629 -0.2704  0.7810
    26 C(13)  Bbb     0.0076     1.023     0.365     0.341  0.3362  0.7884  0.5152
              Bcc     0.0098     1.320     0.471     0.440  0.7550 -0.5526  0.3529
 
              Baa    -0.0280    -3.757    -1.340    -1.253  0.6457  0.5527  0.5269
    27 C(13)  Bbb    -0.0257    -3.451    -1.232    -1.151 -0.5495  0.8154 -0.1819
              Bcc     0.0537     7.208     2.572     2.404 -0.5302 -0.1721  0.8302
 
              Baa    -0.0588    -2.409    -0.859    -0.803 -0.0137  0.9886  0.1501
    28 S(33)  Bbb    -0.0411    -1.684    -0.601    -0.562  0.4219 -0.1304  0.8972
              Bcc     0.0998     4.093     1.460     1.365  0.9065  0.0756 -0.4153
 
              Baa    -0.0016    -0.841    -0.300    -0.281 -0.2429 -0.0473  0.9689
    29 H(1)   Bbb    -0.0006    -0.325    -0.116    -0.108 -0.3353  0.9413 -0.0381
              Bcc     0.0022     1.167     0.416     0.389  0.9103  0.3341  0.2445
 
              Baa    -0.0014    -0.770    -0.275    -0.257 -0.0223  0.1605  0.9868
    30 H(1)   Bbb    -0.0009    -0.501    -0.179    -0.167 -0.3177  0.9347 -0.1592
              Bcc     0.0024     1.272     0.454     0.424  0.9479  0.3170 -0.0302
 
              Baa    -0.0016    -0.859    -0.306    -0.286  0.0129  0.4216  0.9067
    31 H(1)   Bbb    -0.0010    -0.536    -0.191    -0.179 -0.2924  0.8687 -0.3998
              Bcc     0.0026     1.395     0.498     0.465  0.9562  0.2599 -0.1344
 
              Baa    -0.0121    -6.436    -2.296    -2.147  0.9843 -0.1573  0.0805
    32 H(1)   Bbb    -0.0028    -1.482    -0.529    -0.494 -0.0735  0.0501  0.9960
              Bcc     0.0148     7.918     2.825     2.641  0.1607  0.9863 -0.0378
 
              Baa    -0.0287   -15.332    -5.471    -5.114  0.9879  0.1518 -0.0333
    33 H(1)   Bbb    -0.0037    -1.995    -0.712    -0.665  0.0298  0.0252  0.9992
              Bcc     0.0325    17.326     6.182     5.779 -0.1525  0.9881 -0.0204
 
              Baa    -0.0041    -2.186    -0.780    -0.729  0.0827  0.0771  0.9936
    34 H(1)   Bbb     0.0008     0.427     0.152     0.142  0.9483  0.3004 -0.1022
              Bcc     0.0033     1.759     0.628     0.587 -0.3063  0.9507 -0.0483
 
              Baa    -0.0016    -0.842    -0.301    -0.281  0.3027  0.1904  0.9339
    35 H(1)   Bbb    -0.0003    -0.138    -0.049    -0.046 -0.3665  0.9278 -0.0704
              Bcc     0.0018     0.981     0.350     0.327  0.8798  0.3209 -0.3506
 
              Baa    -0.0014    -0.749    -0.267    -0.250 -0.0469  0.1891  0.9808
    36 H(1)   Bbb    -0.0009    -0.479    -0.171    -0.160 -0.3645  0.9110 -0.1930
              Bcc     0.0023     1.229     0.438     0.410  0.9300  0.3665 -0.0262
 
              Baa    -0.0017    -0.932    -0.333    -0.311 -0.1183 -0.1297  0.9845
    37 H(1)   Bbb    -0.0003    -0.135    -0.048    -0.045 -0.4324  0.8992  0.0665
              Bcc     0.0020     1.066     0.381     0.356  0.8939  0.4179  0.1625
 
              Baa    -0.0016    -0.845    -0.301    -0.282  0.6009  0.2219  0.7679
    38 H(1)   Bbb    -0.0000    -0.025    -0.009    -0.008 -0.4510  0.8873  0.0966
              Bcc     0.0016     0.870     0.310     0.290  0.6599  0.4043 -0.6332
 
              Baa    -0.0005    -0.273    -0.097    -0.091  0.8309 -0.2406  0.5017
    39 H(1)   Bbb    -0.0002    -0.097    -0.034    -0.032 -0.3813  0.4105  0.8283
              Bcc     0.0007     0.369     0.132     0.123  0.4052  0.8796 -0.2493
 
              Baa    -0.0008    -0.448    -0.160    -0.149 -0.5952 -0.1775  0.7837
    40 H(1)   Bbb    -0.0004    -0.231    -0.082    -0.077  0.7911 -0.3002  0.5329
              Bcc     0.0013     0.678     0.242     0.226  0.1407  0.9372  0.3191
 
              Baa    -0.0024    -1.304    -0.465    -0.435 -0.4025  0.8626  0.3065
    41 H(1)   Bbb    -0.0017    -0.920    -0.328    -0.307 -0.3871 -0.4638  0.7969
              Bcc     0.0042     2.224     0.794     0.742  0.8296  0.2021  0.5206
 
              Baa    -0.0011    -0.609    -0.217    -0.203 -0.5472 -0.3853  0.7431
    42 H(1)   Bbb     0.0000     0.008     0.003     0.003  0.3130  0.7292  0.6085
              Bcc     0.0011     0.601     0.214     0.201  0.7763 -0.5655  0.2784
 
              Baa    -0.0041    -2.168    -0.774    -0.723  0.4137  0.8218  0.3917
    43 H(1)   Bbb    -0.0007    -0.362    -0.129    -0.121 -0.5082 -0.1486  0.8483
              Bcc     0.0047     2.530     0.903     0.844  0.7554 -0.5500  0.3562
 

 ---------------------------------------------------------------------------------

 No NMR shielding tensors so no spin-rotation constants.
 Leave Link  601 at Thu Nov  6 06:58:41 2025, MaxMem= 30870077440 cpu:             116.0 elap:               2.0
 (Enter /public/software/gauss/g16/l9999.exe)
 1\1\GINC-CU015\SP\UM062X\def2TZVPP\C20H15B1F2N2O1S2(1-,2)\BAIDING\06-N
 ov-2025\0\\#p M062X/DEF2TZVPP scrf=(solvent=water) em=GD3\\Energy calc
 ulation for M100033019_reduced\\-1,2\C,0,-4.661602,-2.573507,0.026908\
 C,0,-3.209431,-2.191456,0.068283\C,0,-2.146717,-3.094189,0.138432\C,0,
 -0.946186,-2.355336,0.17478\C,0,0.381597,-2.808695,0.17864\C,0,1.45071
 7,-1.902367,0.093153\C,0,2.859659,-2.124953,-0.020197\C,0,3.478577,-3.
 410754,-0.020722\O,0,4.699552,-3.642073,-0.143313\C,0,3.475572,-0.8372
 64,-0.136176\C,0,4.946943,-0.571751,-0.235473\C,0,2.451112,0.10447,-0.
 093098\C,0,2.615747,1.55285,-0.20603\C,0,3.370123,2.206699,-1.157041\C
 ,0,3.473465,3.61345,-0.951878\C,0,2.803453,4.033019,0.164169\S,0,2.024
 938,2.71629,0.980349\N,0,1.219918,-0.546879,0.052194\B,0,-0.181654,0.1
 13327,0.191374\F,0,-0.376333,1.04245,-0.837597\F,0,-0.233796,0.78073,1
 .443385\N,0,-1.259726,-1.002456,0.144684\C,0,-2.646758,-0.888905,0.080
 203\C,0,-3.353301,0.380248,0.063107\C,0,-3.051172,1.57762,0.685093\C,0
 ,-3.992441,2.61395,0.431944\C,0,-5.020054,2.223782,-0.383151\S,0,-4.84
 8275,0.565681,-0.863847\H,0,-5.091038,-2.483951,-0.978196\H,0,-4.78037
 ,-3.616483,0.335\H,0,-5.271655,-1.955169,0.693137\H,0,-2.216148,-4.174
 187,0.157604\H,0,0.570221,-3.874826,0.190858\H,0,2.786474,-4.266674,0.
 09871\H,0,5.353409,-0.88863,-1.2037\H,0,5.166601,0.491341,-0.115663\H,
 0,5.497292,-1.129049,0.529029\H,0,3.826633,1.685488,-1.990616\H,0,4.01
 1869,4.281842,-1.614432\H,0,2.692151,5.041299,0.541532\H,0,-2.179592,1
 .69419,1.313691\H,0,-3.913595,3.610494,0.852523\H,0,-5.873005,2.797996
 ,-0.719801\\Version=ES64L-G16RevA.03\State=2-A\HF=-1977.1349638\S2=0.7
 77648\S2-1=0.\S2A=0.750583\RMSD=5.201e-09\Dipole=-2.4305899,1.7196598,
 -0.2621346\Quadrupole=-15.7227066,8.8394214,6.8832853,21.970465,-1.338
 9966,-0.6444989\PG=C01 [X(C20H15B1F2N2O1S2)]\\@


 HE THAT WALD REACHE THE SWEITE ROSE
 SULD NOW AND THEN BE SCRATCHED WT THE SCHARPE BREERES.
 -- PROVERBS AND REASONS OF THE YEAR 1585
           AS REPRINTED IN PAISLEY MAGAZINE 1828.
 Job cpu time:       0 days 14 hours  0 minutes 18.6 seconds.
 Elapsed time:       0 days  0 hours 13 minutes 16.3 seconds.
 File lengths (MBytes):  RWF=   1317 Int=      0 D2E=      0 Chk=     86 Scr=      1
 Normal termination of Gaussian 16 at Thu Nov  6 06:58:41 2025.
