 Entering Gaussian System, Link 0=g16
 Input=M100033511_reduced_sp.gjf
 Output=M100033511_reduced_sp.log
 Initial command:
 /public/software/gauss/g16/l1.exe "/public/home/baiding/1101_v2_sp/tmp_M100033511_reduced_sp_1568608/Gau-4150001.inp" -scrdir="/public/home/baiding/1101_v2_sp/tmp_M100033511_reduced_sp_1568608/"
 Entering Link 1 = /public/software/gauss/g16/l1.exe PID=   4150002.
  
 Copyright (c) 1988,1990,1992,1993,1995,1998,2003,2009,2016,
            Gaussian, Inc.  All Rights Reserved.
  
 This is part of the Gaussian(R) 16 program.  It is based on
 the Gaussian(R) 09 system (copyright 2009, Gaussian, Inc.),
 the Gaussian(R) 03 system (copyright 2003, Gaussian, Inc.),
 the Gaussian(R) 98 system (copyright 1998, Gaussian, Inc.),
 the Gaussian(R) 94 system (copyright 1995, Gaussian, Inc.),
 the Gaussian 92(TM) system (copyright 1992, Gaussian, Inc.),
 the Gaussian 90(TM) system (copyright 1990, Gaussian, Inc.),
 the Gaussian 88(TM) system (copyright 1988, Gaussian, Inc.),
 the Gaussian 86(TM) system (copyright 1986, Carnegie Mellon
 University), and the Gaussian 82(TM) system (copyright 1983,
 Carnegie Mellon University). Gaussian is a federally registered
 trademark of Gaussian, Inc.
  
 This software contains proprietary and confidential information,
 including trade secrets, belonging to Gaussian, Inc.
  
 This software is provided under written license and may be
 used, copied, transmitted, or stored only in accord with that
 written license.
  
 The following legend is applicable only to US Government
 contracts under FAR:
  
                    RESTRICTED RIGHTS LEGEND
  
 Use, reproduction and disclosure by the US Government is
 subject to restrictions as set forth in subparagraphs (a)
 and (c) of the Commercial Computer Software - Restricted
 Rights clause in FAR 52.227-19.
  
 Gaussian, Inc.
 340 Quinnipiac St., Bldg. 40, Wallingford CT 06492
  
  
 ---------------------------------------------------------------
 Warning -- This program may not be used in any manner that
 competes with the business of Gaussian, Inc. or will provide
 assistance to any competitor of Gaussian, Inc.  The licensee
 of this program is prohibited from giving any competitor of
 Gaussian, Inc. access to this program.  By using this program,
 the user acknowledges that Gaussian, Inc. is engaged in the
 business of creating and licensing software in the field of
 computational chemistry and represents and warrants to the
 licensee that it is not a competitor of Gaussian, Inc. and that
 it will not use this program in any manner prohibited above.
 ---------------------------------------------------------------
  

 Cite this work as:
 Gaussian 16, Revision A.03,
 M. J. Frisch, G. W. Trucks, H. B. Schlegel, G. E. Scuseria, 
 M. A. Robb, J. R. Cheeseman, G. Scalmani, V. Barone, 
 G. A. Petersson, H. Nakatsuji, X. Li, M. Caricato, A. V. Marenich, 
 J. Bloino, B. G. Janesko, R. Gomperts, B. Mennucci, H. P. Hratchian, 
 J. V. Ortiz, A. F. Izmaylov, J. L. Sonnenberg, D. Williams-Young, 
 F. Ding, F. Lipparini, F. Egidi, J. Goings, B. Peng, A. Petrone, 
 T. Henderson, D. Ranasinghe, V. G. Zakrzewski, J. Gao, N. Rega, 
 G. Zheng, W. Liang, M. Hada, M. Ehara, K. Toyota, R. Fukuda, 
 J. Hasegawa, M. Ishida, T. Nakajima, Y. Honda, O. Kitao, H. Nakai, 
 T. Vreven, K. Throssell, J. A. Montgomery, Jr., J. E. Peralta, 
 F. Ogliaro, M. J. Bearpark, J. J. Heyd, E. N. Brothers, K. N. Kudin, 
 V. N. Staroverov, T. A. Keith, R. Kobayashi, J. Normand, 
 K. Raghavachari, A. P. Rendell, J. C. Burant, S. S. Iyengar, 
 J. Tomasi, M. Cossi, J. M. Millam, M. Klene, C. Adamo, R. Cammi, 
 J. W. Ochterski, R. L. Martin, K. Morokuma, O. Farkas, 
 J. B. Foresman, and D. J. Fox, Gaussian, Inc., Wallingford CT, 2016.
 
 ******************************************
 Gaussian 16:  ES64L-G16RevA.03 25-Dec-2016
                 6-Nov-2025 
 ******************************************
 %nprocshared=64
 Will use up to   64 processors via shared memory.
 %mem=230GB
 %chk=M100033511_reduced_sp.chk
 ----------------------------------------------
 #p M062X/DEF2TZVPP scrf=(solvent=water) em=GD3
 ----------------------------------------------
 1/38=1,172=1/1;
 2/12=2,17=6,18=5,40=1/2;
 3/5=44,7=202,11=2,25=1,30=1,70=2201,72=1,74=-55,124=31/1,2,3;
 4//1;
 5/5=2,38=5,53=1/2;
 6/7=2,8=2,9=2,10=2,28=1/1;
 99/5=1,9=1/99;
 Leave Link    1 at Thu Nov  6 12:30:41 2025, MaxMem= 30870077440 cpu:              10.5 elap:               0.2
 (Enter /public/software/gauss/g16/l101.exe)
 -----------------------------------------
 Energy calculation for M100033511_reduced
 -----------------------------------------
 Symbolic Z-matrix:
 Charge = -1 Multiplicity = 2
 C                     3.6952   -3.1529    0.2318 
 C                     2.29651  -2.60731   0.1731 
 C                     1.14838  -3.39852   0.14627 
 C                     0.01393  -2.56613   0.10022 
 C                    -1.37667  -2.92193   0.07229 
 C                    -1.85907  -4.19173  -0.04122 
 C                    -3.26058  -4.59398  -0.04693 
 C                    -3.58343  -5.96432  -0.1632 
 C                    -4.8994   -6.41437  -0.17328 
 C                    -5.94691  -5.49371  -0.06723 
 O                    -7.23608  -5.97807  -0.07985 
 C                    -5.66062  -4.12727   0.04618 
 C                    -4.34111  -3.68929   0.05691 
 N                     0.45937  -1.25016   0.10614 
 C                     1.85257  -1.24551   0.14652 
 C                     2.57087  -0.02119   0.16033 
 C                     1.86673   1.21157   0.15392 
 C                     2.32545   2.56676   0.22669 
 C                     3.72843   3.09267   0.33937 
 C                     1.18712   3.37191   0.19927 
 C                     0.04406   2.55419   0.11532 
 C                    -1.34173   2.92764   0.07654 
 C                    -1.80713   4.20498  -0.02192 
 C                    -3.20366   4.62419  -0.03657 
 C                    -3.50924   5.99928  -0.1428 
 C                    -4.81969   6.46503  -0.1609 
 C                    -5.87891   5.55592  -0.07315 
 O                    -7.1623    6.05512  -0.09283 
 C                    -5.60978   4.18524   0.03026 
 C                    -4.29572   3.73153   0.04914 
 N                     0.4746    1.23363   0.09622 
 B                    -0.40209  -0.00383  -0.15733 
 F                    -1.52632   0.00647   0.70985 
 F                    -0.89486  -0.00668  -1.48551 
 C                     4.06427  -0.02921   0.19921 
 C                     4.75765  -0.14129   1.41486 
 C                     6.14968  -0.14936   1.45607 
 C                     6.87967  -0.04529   0.26752 
 C                     6.21154   0.06815  -0.95764 
 C                     4.81803   0.0758   -0.98043 
 N                     8.29781  -0.06314   0.40083 
 N                     8.98838   0.01974  -0.62045 
 N                     9.74218   0.08798  -1.47464 
 H                     4.32459  -2.78398  -0.5848 
 H                     4.20972  -2.89655   1.16459 
 H                     3.66579  -4.24465   0.16116 
 H                     1.13057  -4.48072   0.17617 
 H                    -2.07529  -2.09711   0.1657 
 H                    -1.14989  -5.01279  -0.13726 
 H                    -2.77727  -6.68875  -0.24617 
 H                    -5.12676  -7.47226  -0.26195 
 H                    -7.85082  -5.23321   0.0051 
 H                    -6.47703  -3.41375   0.12601 
 H                    -4.15059  -2.62437   0.14651 
 H                     4.34415   2.84214  -0.53142 
 H                     3.7053    4.18354   0.42421 
 H                     4.25419   2.70271   1.21744 
 H                     1.18068   4.45293   0.2598 
 H                    -2.05175   2.11041   0.14724 
 H                    -1.08705   5.01863  -0.09782 
 H                    -2.6938    6.71478  -0.21143 
 H                    -5.03371   7.52634  -0.2416 
 H                    -7.78587   5.3165   -0.01786 
 H                    -6.43517   3.48068   0.0962 
 H                    -4.11866   2.6637    0.1314 
 H                     4.19899  -0.2216    2.34234 
 H                     6.67761  -0.23509   2.40011 
 H                     6.76886   0.14848  -1.88615 
 H                     4.30623   0.16305  -1.93412 
 
 ITRead=  0  0  0  0  0  0  0  0  0  0  0  0  0  0  0  0  0  0  0  0
 ITRead=  0  0  0  0  0  0  0  0  0  0  0  0  0  0  0  0  0  0  0  0
 ITRead=  0  0  0  0  0  0  0  0  0  0  0  0  0  0  0  0  0  0  0  0
 ITRead=  0  0  0  0  0  0  0  0  0
 MicOpt= -1 -1 -1 -1 -1 -1 -1 -1 -1 -1 -1 -1 -1 -1 -1 -1 -1 -1 -1 -1
 MicOpt= -1 -1 -1 -1 -1 -1 -1 -1 -1 -1 -1 -1 -1 -1 -1 -1 -1 -1 -1 -1
 MicOpt= -1 -1 -1 -1 -1 -1 -1 -1 -1 -1 -1 -1 -1 -1 -1 -1 -1 -1 -1 -1
 MicOpt= -1 -1 -1 -1 -1 -1 -1 -1 -1
 NAtoms=     69 NQM=       69 NQMF=       0 NMMI=      0 NMMIF=      0
                NMic=       0 NMicF=      0.
                    Isotopes and Nuclear Properties:
 (Nuclear quadrupole moments (NQMom) in fm**2, nuclear magnetic moments (NMagM)
  in nuclear magnetons)

  Atom         1           2           3           4           5           6           7           8           9          10
 IAtWgt=          12          12          12          12          12          12          12          12          12          12
 AtmWgt=  12.0000000  12.0000000  12.0000000  12.0000000  12.0000000  12.0000000  12.0000000  12.0000000  12.0000000  12.0000000
 NucSpn=           0           0           0           0           0           0           0           0           0           0
 AtZEff=  -0.0000000  -0.0000000  -0.0000000  -0.0000000  -0.0000000  -0.0000000  -0.0000000  -0.0000000  -0.0000000  -0.0000000
 NQMom=    0.0000000   0.0000000   0.0000000   0.0000000   0.0000000   0.0000000   0.0000000   0.0000000   0.0000000   0.0000000
 NMagM=    0.0000000   0.0000000   0.0000000   0.0000000   0.0000000   0.0000000   0.0000000   0.0000000   0.0000000   0.0000000
 AtZNuc=   6.0000000   6.0000000   6.0000000   6.0000000   6.0000000   6.0000000   6.0000000   6.0000000   6.0000000   6.0000000

  Atom        11          12          13          14          15          16          17          18          19          20
 IAtWgt=          16          12          12          14          12          12          12          12          12          12
 AtmWgt=  15.9949146  12.0000000  12.0000000  14.0030740  12.0000000  12.0000000  12.0000000  12.0000000  12.0000000  12.0000000
 NucSpn=           0           0           0           2           0           0           0           0           0           0
 AtZEff=  -0.0000000  -0.0000000  -0.0000000  -0.0000000  -0.0000000  -0.0000000  -0.0000000  -0.0000000  -0.0000000  -0.0000000
 NQMom=    0.0000000   0.0000000   0.0000000   2.0440000   0.0000000   0.0000000   0.0000000   0.0000000   0.0000000   0.0000000
 NMagM=    0.0000000   0.0000000   0.0000000   0.4037610   0.0000000   0.0000000   0.0000000   0.0000000   0.0000000   0.0000000
 AtZNuc=   8.0000000   6.0000000   6.0000000   7.0000000   6.0000000   6.0000000   6.0000000   6.0000000   6.0000000   6.0000000

  Atom        21          22          23          24          25          26          27          28          29          30
 IAtWgt=          12          12          12          12          12          12          12          16          12          12
 AtmWgt=  12.0000000  12.0000000  12.0000000  12.0000000  12.0000000  12.0000000  12.0000000  15.9949146  12.0000000  12.0000000
 NucSpn=           0           0           0           0           0           0           0           0           0           0
 AtZEff=  -0.0000000  -0.0000000  -0.0000000  -0.0000000  -0.0000000  -0.0000000  -0.0000000  -0.0000000  -0.0000000  -0.0000000
 NQMom=    0.0000000   0.0000000   0.0000000   0.0000000   0.0000000   0.0000000   0.0000000   0.0000000   0.0000000   0.0000000
 NMagM=    0.0000000   0.0000000   0.0000000   0.0000000   0.0000000   0.0000000   0.0000000   0.0000000   0.0000000   0.0000000
 AtZNuc=   6.0000000   6.0000000   6.0000000   6.0000000   6.0000000   6.0000000   6.0000000   8.0000000   6.0000000   6.0000000

  Atom        31          32          33          34          35          36          37          38          39          40
 IAtWgt=          14          11          19          19          12          12          12          12          12          12
 AtmWgt=  14.0030740  11.0093053  18.9984033  18.9984033  12.0000000  12.0000000  12.0000000  12.0000000  12.0000000  12.0000000
 NucSpn=           2           3           1           1           0           0           0           0           0           0
 AtZEff=  -0.0000000  -0.0000000  -0.0000000  -0.0000000  -0.0000000  -0.0000000  -0.0000000  -0.0000000  -0.0000000  -0.0000000
 NQMom=    2.0440000   4.0590000   0.0000000   0.0000000   0.0000000   0.0000000   0.0000000   0.0000000   0.0000000   0.0000000
 NMagM=    0.4037610   2.6886370   2.6288670   2.6288670   0.0000000   0.0000000   0.0000000   0.0000000   0.0000000   0.0000000
 AtZNuc=   7.0000000   5.0000000   9.0000000   9.0000000   6.0000000   6.0000000   6.0000000   6.0000000   6.0000000   6.0000000

  Atom        41          42          43          44          45          46          47          48          49          50
 IAtWgt=          14          14          14           1           1           1           1           1           1           1
 AtmWgt=  14.0030740  14.0030740  14.0030740   1.0078250   1.0078250   1.0078250   1.0078250   1.0078250   1.0078250   1.0078250
 NucSpn=           2           2           2           1           1           1           1           1           1           1
 AtZEff=  -0.0000000  -0.0000000  -0.0000000  -0.0000000  -0.0000000  -0.0000000  -0.0000000  -0.0000000  -0.0000000  -0.0000000
 NQMom=    2.0440000   2.0440000   2.0440000   0.0000000   0.0000000   0.0000000   0.0000000   0.0000000   0.0000000   0.0000000
 NMagM=    0.4037610   0.4037610   0.4037610   2.7928460   2.7928460   2.7928460   2.7928460   2.7928460   2.7928460   2.7928460
 AtZNuc=   7.0000000   7.0000000   7.0000000   1.0000000   1.0000000   1.0000000   1.0000000   1.0000000   1.0000000   1.0000000

  Atom        51          52          53          54          55          56          57          58          59          60
 IAtWgt=           1           1           1           1           1           1           1           1           1           1
 AtmWgt=   1.0078250   1.0078250   1.0078250   1.0078250   1.0078250   1.0078250   1.0078250   1.0078250   1.0078250   1.0078250
 NucSpn=           1           1           1           1           1           1           1           1           1           1
 AtZEff=  -0.0000000  -0.0000000  -0.0000000  -0.0000000  -0.0000000  -0.0000000  -0.0000000  -0.0000000  -0.0000000  -0.0000000
 NQMom=    0.0000000   0.0000000   0.0000000   0.0000000   0.0000000   0.0000000   0.0000000   0.0000000   0.0000000   0.0000000
 NMagM=    2.7928460   2.7928460   2.7928460   2.7928460   2.7928460   2.7928460   2.7928460   2.7928460   2.7928460   2.7928460
 AtZNuc=   1.0000000   1.0000000   1.0000000   1.0000000   1.0000000   1.0000000   1.0000000   1.0000000   1.0000000   1.0000000

  Atom        61          62          63          64          65          66          67          68          69
 IAtWgt=           1           1           1           1           1           1           1           1           1
 AtmWgt=   1.0078250   1.0078250   1.0078250   1.0078250   1.0078250   1.0078250   1.0078250   1.0078250   1.0078250
 NucSpn=           1           1           1           1           1           1           1           1           1
 AtZEff=  -0.0000000  -0.0000000  -0.0000000  -0.0000000  -0.0000000  -0.0000000  -0.0000000  -0.0000000  -0.0000000
 NQMom=    0.0000000   0.0000000   0.0000000   0.0000000   0.0000000   0.0000000   0.0000000   0.0000000   0.0000000
 NMagM=    2.7928460   2.7928460   2.7928460   2.7928460   2.7928460   2.7928460   2.7928460   2.7928460   2.7928460
 AtZNuc=   1.0000000   1.0000000   1.0000000   1.0000000   1.0000000   1.0000000   1.0000000   1.0000000   1.0000000
 Leave Link  101 at Thu Nov  6 12:30:41 2025, MaxMem= 30870077440 cpu:               4.0 elap:               0.1
 (Enter /public/software/gauss/g16/l202.exe)
 Stoichiometry    C33H26BF2N5O2(1-,2)
 Framework group  C1[X(C33H26BF2N5O2)]
 Deg. of freedom   201
 Full point group                 C1      NOp   1
 Largest Abelian subgroup         C1      NOp   1
 Largest concise Abelian subgroup C1      NOp   1
                         Standard orientation:                         
 ---------------------------------------------------------------------
 Center     Atomic      Atomic             Coordinates (Angstroms)
 Number     Number       Type             X           Y           Z
 ---------------------------------------------------------------------
      1          6           0       -3.695199   -3.152897   -0.231798
      2          6           0       -2.296509   -2.607306   -0.173098
      3          6           0       -1.148380   -3.398519   -0.146268
      4          6           0       -0.013934   -2.566134   -0.100215
      5          6           0        1.376670   -2.921930   -0.072289
      6          6           0        1.859065   -4.191734    0.041224
      7          6           0        3.260577   -4.593976    0.046930
      8          6           0        3.583432   -5.964322    0.163199
      9          6           0        4.899395   -6.414368    0.173277
     10          6           0        5.946910   -5.493708    0.067229
     11          8           0        7.236076   -5.978066    0.079851
     12          6           0        5.660623   -4.127270   -0.046182
     13          6           0        4.341109   -3.689292   -0.056913
     14          7           0       -0.459372   -1.250156   -0.106137
     15          6           0       -1.852573   -1.245511   -0.146521
     16          6           0       -2.570866   -0.021185   -0.160333
     17          6           0       -1.866729    1.211566   -0.153919
     18          6           0       -2.325445    2.566762   -0.226692
     19          6           0       -3.728434    3.092669   -0.339371
     20          6           0       -1.187117    3.371905   -0.199272
     21          6           0       -0.044059    2.554192   -0.115316
     22          6           0        1.341726    2.927639   -0.076536
     23          6           0        1.807125    4.204980    0.021924
     24          6           0        3.203663    4.624188    0.036565
     25          6           0        3.509240    5.999280    0.142804
     26          6           0        4.819691    6.465030    0.160901
     27          6           0        5.878908    5.555915    0.073150
     28          8           0        7.162300    6.055119    0.092827
     29          6           0        5.609782    4.185240   -0.030259
     30          6           0        4.295724    3.731528   -0.049136
     31          7           0       -0.474603    1.233631   -0.096216
     32          5           0        0.402085   -0.003830    0.157327
     33          9           0        1.526319    0.006465   -0.709849
     34          9           0        0.894861   -0.006682    1.485511
     35          6           0       -4.064266   -0.029210   -0.199209
     36          6           0       -4.757650   -0.141292   -1.414862
     37          6           0       -6.149676   -0.149363   -1.456069
     38          6           0       -6.879666   -0.045287   -0.267517
     39          6           0       -6.211540    0.068154    0.957636
     40          6           0       -4.818026    0.075798    0.980426
     41          7           0       -8.297815   -0.063140   -0.400825
     42          7           0       -8.988377    0.019736    0.620454
     43          7           0       -9.742182    0.087979    1.474641
     44          1           0       -4.324591   -2.783978    0.584804
     45          1           0       -4.209724   -2.896546   -1.164587
     46          1           0       -3.665790   -4.244649   -0.161161
     47          1           0       -1.130566   -4.480718   -0.176168
     48          1           0        2.075292   -2.097113   -0.165701
     49          1           0        1.149888   -5.012794    0.137263
     50          1           0        2.777265   -6.688748    0.246172
     51          1           0        5.126757   -7.472255    0.261952
     52          1           0        7.850820   -5.233212   -0.005101
     53          1           0        6.477027   -3.413754   -0.126014
     54          1           0        4.150589   -2.624365   -0.146512
     55          1           0       -4.344148    2.842137    0.531421
     56          1           0       -3.705296    4.183539   -0.424207
     57          1           0       -4.254192    2.702711   -1.217437
     58          1           0       -1.180685    4.452934   -0.259796
     59          1           0        2.051746    2.110406   -0.147237
     60          1           0        1.087050    5.018634    0.097815
     61          1           0        2.693801    6.714782    0.211428
     62          1           0        5.033708    7.526337    0.241603
     63          1           0        7.785866    5.316499    0.017858
     64          1           0        6.435166    3.480678   -0.096201
     65          1           0        4.118662    2.663700   -0.131397
     66          1           0       -4.198990   -0.221600   -2.342339
     67          1           0       -6.677610   -0.235094   -2.400111
     68          1           0       -6.768863    0.148479    1.886152
     69          1           0       -4.306229    0.163054    1.934122
 ---------------------------------------------------------------------
 Rotational constants (GHZ):           0.0702509           0.0418540           0.0267643
 Leave Link  202 at Thu Nov  6 12:30:41 2025, MaxMem= 30870077440 cpu:               0.2 elap:               0.0
 (Enter /public/software/gauss/g16/l301.exe)
 Standard basis: def2TZVPP (5D, 7F)
 Ernie: Thresh=  0.10000D-02 Tol=  0.10000D-05 Strict=F.
 There are  1938 symmetry adapted cartesian basis functions of A   symmetry.
 There are  1697 symmetry adapted basis functions of A   symmetry.
  1697 basis functions,  2635 primitive gaussians,  1938 cartesian basis functions
   150 alpha electrons      149 beta electrons
       nuclear repulsion energy      4500.1922805964 Hartrees.
 IExCor= 4336 DFT=T Ex+Corr=M062X ExCW=0 ScaHFX=  0.540000
 ScaDFX=  1.000000  1.000000  1.000000  1.000000 ScalE2=  1.000000  1.000000
 IRadAn=      5 IRanWt=     -1 IRanGd=            0 ICorTp=0 IEmpDi=131
 NAtoms=   69 NActive=   69 NUniq=   69 SFac= 1.00D+00 NAtFMM=   60 NAOKFM=T Big=T
 Integral buffers will be    131072 words long.
 Raffenetti 2 integral format.
 Two-electron integral symmetry is turned on.
 R6Disp:  Grimme-D3 Dispersion energy=       -0.0054833932 Hartrees.
 Nuclear repulsion after empirical dispersion term =     4500.1867972032 Hartrees.
 ------------------------------------------------------------------------------
 Polarizable Continuum Model (PCM)
 =================================
 Model                : PCM.
 Atomic radii         : UFF (Universal Force Field).
 Polarization charges : Total charges.
 Charge compensation  : None.
 Solution method      : On-the-fly selection.
 Cavity type          : Scaled VdW (van der Waals Surface) (Alpha=1.100).
 Cavity algorithm     : GePol (No added spheres)
                        Default sphere list used, NSphG=   69.
                        Lebedev-Laikov grids with approx.  5.0 points / Ang**2.
                        Smoothing algorithm: York/Karplus (Gamma=1.0000).
                        Polarization charges: spherical gaussians, with
                                              point-specific exponents (IZeta= 3).
                        Self-potential: point-specific (ISelfS= 7).
                        Self-field    : sphere-specific E.n sum rule (ISelfD= 2).
 Solvent              : Water, Eps=  78.355300 Eps(inf)=   1.777849
 ------------------------------------------------------------------------------
 GePol: Number of generator spheres                  =      69
 GePol: Total number of spheres                      =      69
 GePol: Number of exposed spheres                    =      69 (100.00%)
 GePol: Number of points                             =    5209
 GePol: Average weight of points                     =       0.13
 GePol: Minimum weight of points                     =   0.39D-10
 GePol: Maximum weight of points                     =    0.20577
 GePol: Number of points with low weight             =     346
 GePol: Fraction of low-weight points (<1% of avg)   =       6.64%
 GePol: Cavity surface area                          =    660.009 Ang**2
 GePol: Cavity volume                                =    757.005 Ang**3
 Leave Link  301 at Thu Nov  6 12:30:42 2025, MaxMem= 30870077440 cpu:               4.8 elap:               0.1
 (Enter /public/software/gauss/g16/l302.exe)
 NPDir=0 NMtPBC=     1 NCelOv=     1 NCel=       1 NClECP=     1 NCelD=      1
         NCelK=      1 NCelE2=     1 NClLst=     1 CellRange=     0.0.
 One-electron integrals computed using PRISM.
 One-electron integral symmetry used in STVInt
   1 Symmetry operations used in ECPInt.
 ECPInt:  NShTT=  198135 NPrTT=  571870 LenC2=  126915 LenP2D=  246809.
 LDataN:  DoStor=T MaxTD1= 6 Len=  172
 NBasis=  1697 RedAO= T EigKep=  3.93D-06  NBF=  1697
 NBsUse=  1697 1.00D-06 EigRej= -1.00D+00 NBFU=  1697
 Precomputing XC quadrature grid using
 IXCGrd= 4 IRadAn=           5 IRanWt=          -1 IRanGd=           0 AccXCQ= 0.00D+00.
 Generated NRdTot=       0 NPtTot=           0 NUsed=           0 NTot=          32
 NSgBfM=  1735  1735  1735  1735  1735 MxSgAt=    69 MxSgA2=    69.
 Leave Link  302 at Thu Nov  6 12:30:49 2025, MaxMem= 30870077440 cpu:             478.6 elap:               7.5
 (Enter /public/software/gauss/g16/l303.exe)
 DipDrv:  MaxL=1.
 Leave Link  303 at Thu Nov  6 12:30:50 2025, MaxMem= 30870077440 cpu:              24.5 elap:               0.4
 (Enter /public/software/gauss/g16/l401.exe)
 ExpMin= 6.06D-02 ExpMax= 3.55D+04 ExpMxC= 1.21D+03 IAcc=3 IRadAn=         5 AccDes= 0.00D+00
 Harris functional with IExCor= 1009 and IRadAn=       5 diagonalized for initial guess.
 HarFok:  IExCor= 1009 AccDes= 0.00D+00 IRadAn=         5 IDoV= 1 UseB2=F ITyADJ=14
 ICtDFT=  3500011 ScaDFX=  1.000000  1.000000  1.000000  1.000000
 FoFCou: FMM=F IPFlag=           0 FMFlag=      100000 FMFlg1=        2001
         NFxFlg=           0 DoJE=T BraDBF=F KetDBF=T FulRan=T
         wScrn=  0.000000 ICntrl=       500 IOpCl=  0 I1Cent=   200000004 NGrid=           0
         NMat0=    1 NMatS0=      1 NMatT0=    0 NMatD0=    1 NMtDS0=    0 NMtDT0=    0
 Petite list used in FoFCou.
 Harris En= -1921.25942085098    
 JPrj=0 DoOrth=F DoCkMO=F.
 Initial guess <Sx>= 0.0000 <Sy>= 0.0000 <Sz>= 0.5000 <S**2>= 0.7500 S= 0.5000
 Leave Link  401 at Thu Nov  6 12:30:59 2025, MaxMem= 30870077440 cpu:             597.7 elap:               9.4
 (Enter /public/software/gauss/g16/l502.exe)
 Integral symmetry usage will be decided dynamically.
 UHF open shell SCF:
 Using DIIS extrapolation, IDIIS=  1040.
 NGot= 30870077440 LenX= 30862425455 LenY= 30858667673
 Requested convergence on RMS density matrix=1.00D-08 within 128 cycles.
 Requested convergence on MAX density matrix=1.00D-06.
 Requested convergence on             energy=1.00D-06.
 No special actions if energy rises.
 Fock matrices will be formed incrementally for  20 cycles.

 Cycle   1  Pass 1  IDiag  1:
 FoFJK:  IHMeth= 1 ICntrl=       0 DoSepK=F KAlg= 0 I1Cent=           0 FoldK=F
 IRaf= 600000000 NMat=       1 IRICut=       1 DoRegI=T DoRafI=F ISym2E= 0 IDoP0=0 IntGTp=1.
 FoFCou: FMM=T IPFlag=           0 FMFlag=      100000 FMFlg1=        2001
         NFxFlg=           0 DoJE=F BraDBF=F KetDBF=F FulRan=T
         wScrn=  0.000000 ICntrl=         0 IOpCl=  1 I1Cent=           0 NGrid=           0
         NMat0=    1 NMatS0=      1 NMatT0=    0 NMatD0=    1 NMtDS0=    0 NMtDT0=    0
 Symmetry not used in FoFCou.
 FMM levels:  10  Number of levels for PrismC:   9
 Inv3:  Mode=1 IEnd=    81401043.
 Iteration    1 A*A^-1 deviation from unit magnitude is 6.66D-15 for   2139.
 Iteration    1 A*A^-1 deviation from orthogonality  is 3.47D-15 for   2140   1477.
 Iteration    1 A^-1*A deviation from unit magnitude is 6.22D-15 for   2139.
 Iteration    1 A^-1*A deviation from orthogonality  is 2.97D-15 for   2876   2327.
 E= -1921.14745619572    
 DIIS: error= 1.88D-02 at cycle   1 NSaved=   1.
 NSaved= 1 IEnMin= 1 EnMin= -1921.14745619572     IErMin= 1 ErrMin= 1.88D-02
 ErrMax= 1.88D-02  0.00D+00 EMaxC= 1.00D-01 BMatC= 5.07D+00 BMatP= 5.07D+00
 IDIUse=3 WtCom= 8.12D-01 WtEn= 1.88D-01
 Coeff-Com:  0.100D+01
 Coeff-En:   0.100D+01
 Coeff:      0.100D+01
 Gap=     0.134 Goal=   None    Shift=    0.000
 Gap=     0.136 Goal=   None    Shift=    0.000
 GapD=    0.134 DampG=1.000 DampE=0.500 DampFc=0.5000 IDamp=-1.
 Damping current iteration by 5.00D-01
 RMSDP=1.56D-03 MaxDP=2.05D-01              OVMax= 2.28D-01

 Cycle   2  Pass 1  IDiag  1:
 RMSU=  7.79D-04    CP:  9.84D-01
 E= -1921.67536625132     Delta-E=       -0.527910055596 Rises=F Damp=T
 DIIS: error= 6.44D-03 at cycle   2 NSaved=   2.
 NSaved= 2 IEnMin= 2 EnMin= -1921.67536625132     IErMin= 2 ErrMin= 6.44D-03
 ErrMax= 6.44D-03  0.00D+00 EMaxC= 1.00D-01 BMatC= 4.71D-01 BMatP= 5.07D+00
 IDIUse=3 WtCom= 9.36D-01 WtEn= 6.44D-02
 Coeff-Com: -0.160D+00 0.116D+01
 Coeff-En:   0.000D+00 0.100D+01
 Coeff:     -0.150D+00 0.115D+01
 Gap=     0.166 Goal=   None    Shift=    0.000
 Gap=     0.215 Goal=   None    Shift=    0.000
 RMSDP=6.79D-04 MaxDP=5.56D-02 DE=-5.28D-01 OVMax= 1.25D-01

 Cycle   3  Pass 1  IDiag  1:
 RMSU=  6.52D-04    CP:  9.69D-01  1.23D+00
 E= -1922.13420595404     Delta-E=       -0.458839702715 Rises=F Damp=F
 DIIS: error= 5.45D-03 at cycle   3 NSaved=   3.
 NSaved= 3 IEnMin= 3 EnMin= -1922.13420595404     IErMin= 3 ErrMin= 5.45D-03
 ErrMax= 5.45D-03  0.00D+00 EMaxC= 1.00D-01 BMatC= 1.91D-01 BMatP= 4.71D-01
 IDIUse=3 WtCom= 9.46D-01 WtEn= 5.45D-02
 Coeff-Com: -0.128D+00 0.486D+00 0.642D+00
 Coeff-En:   0.000D+00 0.000D+00 0.100D+01
 Coeff:     -0.121D+00 0.459D+00 0.661D+00
 Gap=     0.135 Goal=   None    Shift=    0.000
 Gap=     0.142 Goal=   None    Shift=    0.000
 RMSDP=1.88D-04 MaxDP=2.30D-02 DE=-4.59D-01 OVMax= 4.62D-02

 Cycle   4  Pass 1  IDiag  1:
 RMSU=  1.79D-04    CP:  9.68D-01  1.26D+00  9.14D-01
 E= -1922.16178249878     Delta-E=       -0.027576544740 Rises=F Damp=F
 DIIS: error= 3.12D-03 at cycle   4 NSaved=   4.
 NSaved= 4 IEnMin= 4 EnMin= -1922.16178249878     IErMin= 4 ErrMin= 3.12D-03
 ErrMax= 3.12D-03  0.00D+00 EMaxC= 1.00D-01 BMatC= 5.82D-02 BMatP= 1.91D-01
 IDIUse=3 WtCom= 9.69D-01 WtEn= 3.12D-02
 Coeff-Com: -0.489D-01 0.130D+00 0.389D+00 0.530D+00
 Coeff-En:   0.000D+00 0.000D+00 0.233D+00 0.767D+00
 Coeff:     -0.473D-01 0.126D+00 0.384D+00 0.537D+00
 Gap=     0.136 Goal=   None    Shift=    0.000
 Gap=     0.144 Goal=   None    Shift=    0.000
 RMSDP=7.56D-05 MaxDP=1.38D-02 DE=-2.76D-02 OVMax= 2.59D-02

 Cycle   5  Pass 1  IDiag  1:
 RMSU=  5.90D-05    CP:  9.69D-01  1.27D+00  9.26D-01  7.51D-01
 E= -1922.17294791045     Delta-E=       -0.011165411670 Rises=F Damp=F
 DIIS: error= 1.28D-03 at cycle   5 NSaved=   5.
 NSaved= 5 IEnMin= 5 EnMin= -1922.17294791045     IErMin= 5 ErrMin= 1.28D-03
 ErrMax= 1.28D-03  0.00D+00 EMaxC= 1.00D-01 BMatC= 5.05D-03 BMatP= 5.82D-02
 IDIUse=3 WtCom= 9.87D-01 WtEn= 1.28D-02
 Coeff-Com: -0.183D-01 0.387D-01 0.175D+00 0.312D+00 0.493D+00
 Coeff-En:   0.000D+00 0.000D+00 0.000D+00 0.000D+00 0.100D+01
 Coeff:     -0.181D-01 0.382D-01 0.172D+00 0.308D+00 0.499D+00
 Gap=     0.137 Goal=   None    Shift=    0.000
 Gap=     0.145 Goal=   None    Shift=    0.000
 RMSDP=2.38D-05 MaxDP=5.36D-03 DE=-1.12D-02 OVMax= 1.11D-02

 Cycle   6  Pass 1  IDiag  1:
 RMSU=  2.25D-05    CP:  9.68D-01  1.27D+00  9.26D-01  7.64D-01  8.77D-01
 E= -1922.17405017853     Delta-E=       -0.001102268084 Rises=F Damp=F
 DIIS: error= 3.11D-04 at cycle   6 NSaved=   6.
 NSaved= 6 IEnMin= 6 EnMin= -1922.17405017853     IErMin= 6 ErrMin= 3.11D-04
 ErrMax= 3.11D-04  0.00D+00 EMaxC= 1.00D-01 BMatC= 4.45D-04 BMatP= 5.05D-03
 IDIUse=3 WtCom= 9.97D-01 WtEn= 3.11D-03
 Coeff-Com: -0.215D-02 0.136D-02 0.309D-01 0.757D-01 0.246D+00 0.648D+00
 Coeff-En:   0.000D+00 0.000D+00 0.000D+00 0.000D+00 0.000D+00 0.100D+01
 Coeff:     -0.214D-02 0.135D-02 0.308D-01 0.755D-01 0.246D+00 0.649D+00
 Gap=     0.138 Goal=   None    Shift=    0.000
 Gap=     0.147 Goal=   None    Shift=    0.000
 RMSDP=1.46D-05 MaxDP=2.30D-03 DE=-1.10D-03 OVMax= 5.61D-03

 Cycle   7  Pass 1  IDiag  1:
 RMSU=  1.09D-05    CP:  9.69D-01  1.28D+00  9.29D-01  7.60D-01  1.03D+00
                    CP:  1.09D+00
 E= -1922.17422369550     Delta-E=       -0.000173516973 Rises=F Damp=F
 DIIS: error= 1.11D-04 at cycle   7 NSaved=   7.
 NSaved= 7 IEnMin= 7 EnMin= -1922.17422369550     IErMin= 7 ErrMin= 1.11D-04
 ErrMax= 1.11D-04  0.00D+00 EMaxC= 1.00D-01 BMatC= 7.54D-05 BMatP= 4.45D-04
 IDIUse=3 WtCom= 9.99D-01 WtEn= 1.11D-03
 Coeff-Com:  0.362D-02-0.856D-02-0.323D-01-0.505D-01-0.397D-01 0.213D+00
 Coeff-Com:  0.915D+00
 Coeff-En:   0.000D+00 0.000D+00 0.000D+00 0.000D+00 0.000D+00 0.000D+00
 Coeff-En:   0.100D+01
 Coeff:      0.362D-02-0.855D-02-0.322D-01-0.504D-01-0.397D-01 0.213D+00
 Coeff:      0.915D+00
 Gap=     0.140 Goal=   None    Shift=    0.000
 Gap=     0.148 Goal=   None    Shift=    0.000
 RMSDP=1.14D-05 MaxDP=1.44D-03 DE=-1.74D-04 OVMax= 5.57D-03

 Cycle   8  Pass 1  IDiag  1:
 RMSU=  5.91D-06    CP:  9.69D-01  1.28D+00  9.29D-01  7.70D-01  1.13D+00
                    CP:  1.35D+00  1.45D+00
 E= -1922.17429843031     Delta-E=       -0.000074734803 Rises=F Damp=F
 DIIS: error= 6.66D-05 at cycle   8 NSaved=   8.
 NSaved= 8 IEnMin= 8 EnMin= -1922.17429843031     IErMin= 8 ErrMin= 6.66D-05
 ErrMax= 6.66D-05  0.00D+00 EMaxC= 1.00D-01 BMatC= 2.17D-05 BMatP= 7.54D-05
 IDIUse=1 WtCom= 1.00D+00 WtEn= 0.00D+00
 Coeff-Com:  0.185D-02-0.337D-02-0.197D-01-0.390D-01-0.884D-01-0.123D+00
 Coeff-Com:  0.326D+00 0.946D+00
 Coeff:      0.185D-02-0.337D-02-0.197D-01-0.390D-01-0.884D-01-0.123D+00
 Coeff:      0.326D+00 0.946D+00
 Gap=     0.141 Goal=   None    Shift=    0.000
 Gap=     0.149 Goal=   None    Shift=    0.000
 RMSDP=7.50D-06 MaxDP=9.14D-04 DE=-7.47D-05 OVMax= 3.71D-03

 Cycle   9  Pass 1  IDiag  1:
 RMSU=  3.04D-06    CP:  9.69D-01  1.28D+00  9.30D-01  7.76D-01  1.18D+00
                    CP:  1.51D+00  1.82D+00  1.47D+00
 E= -1922.17432380626     Delta-E=       -0.000025375951 Rises=F Damp=F
 DIIS: error= 2.73D-05 at cycle   9 NSaved=   9.
 NSaved= 9 IEnMin= 9 EnMin= -1922.17432380626     IErMin= 9 ErrMin= 2.73D-05
 ErrMax= 2.73D-05  0.00D+00 EMaxC= 1.00D-01 BMatC= 4.56D-06 BMatP= 2.17D-05
 IDIUse=1 WtCom= 1.00D+00 WtEn= 0.00D+00
 Coeff-Com: -0.248D-03 0.891D-03 0.121D-02-0.135D-02-0.203D-01-0.863D-01
 Coeff-Com: -0.116D+00 0.304D+00 0.918D+00
 Coeff:     -0.248D-03 0.891D-03 0.121D-02-0.135D-02-0.203D-01-0.863D-01
 Coeff:     -0.116D+00 0.304D+00 0.918D+00
 Gap=     0.141 Goal=   None    Shift=    0.000
 Gap=     0.150 Goal=   None    Shift=    0.000
 RMSDP=3.54D-06 MaxDP=6.75D-04 DE=-2.54D-05 OVMax= 1.78D-03

 Cycle  10  Pass 1  IDiag  1:
 RMSU=  1.33D-06    CP:  9.69D-01  1.28D+00  9.30D-01  7.75D-01  1.20D+00
                    CP:  1.57D+00  1.98D+00  1.80D+00  1.31D+00
 E= -1922.17432847726     Delta-E=       -0.000004670999 Rises=F Damp=F
 DIIS: error= 1.75D-05 at cycle  10 NSaved=  10.
 NSaved=10 IEnMin=10 EnMin= -1922.17432847726     IErMin=10 ErrMin= 1.75D-05
 ErrMax= 1.75D-05  0.00D+00 EMaxC= 1.00D-01 BMatC= 1.41D-06 BMatP= 4.56D-06
 IDIUse=1 WtCom= 1.00D+00 WtEn= 0.00D+00
 Coeff-Com: -0.534D-03 0.121D-02 0.512D-02 0.814D-02 0.101D-01-0.107D-01
 Coeff-Com: -0.127D+00-0.550D-01 0.441D+00 0.728D+00
 Coeff:     -0.534D-03 0.121D-02 0.512D-02 0.814D-02 0.101D-01-0.107D-01
 Coeff:     -0.127D+00-0.550D-01 0.441D+00 0.728D+00
 Gap=     0.141 Goal=   None    Shift=    0.000
 Gap=     0.150 Goal=   None    Shift=    0.000
 RMSDP=1.20D-06 MaxDP=1.66D-04 DE=-4.67D-06 OVMax= 6.21D-04

 Cycle  11  Pass 1  IDiag  1:
 RMSU=  6.07D-07    CP:  9.69D-01  1.28D+00  9.30D-01  7.77D-01  1.20D+00
                    CP:  1.58D+00  1.99D+00  1.91D+00  1.47D+00  1.32D+00
 E= -1922.17432935863     Delta-E=       -0.000000881371 Rises=F Damp=F
 DIIS: error= 8.86D-06 at cycle  11 NSaved=  11.
 NSaved=11 IEnMin=11 EnMin= -1922.17432935863     IErMin=11 ErrMin= 8.86D-06
 ErrMax= 8.86D-06  0.00D+00 EMaxC= 1.00D-01 BMatC= 2.17D-07 BMatP= 1.41D-06
 IDIUse=1 WtCom= 1.00D+00 WtEn= 0.00D+00
 Coeff-Com: -0.120D-03 0.223D-03 0.142D-02 0.275D-02 0.661D-02 0.113D-01
 Coeff-Com: -0.265D-01-0.652D-01-0.138D-01 0.242D+00 0.841D+00
 Coeff:     -0.120D-03 0.223D-03 0.142D-02 0.275D-02 0.661D-02 0.113D-01
 Coeff:     -0.265D-01-0.652D-01-0.138D-01 0.242D+00 0.841D+00
 Gap=     0.141 Goal=   None    Shift=    0.000
 Gap=     0.150 Goal=   None    Shift=    0.000
 RMSDP=5.70D-07 MaxDP=7.99D-05 DE=-8.81D-07 OVMax= 3.47D-04

 Cycle  12  Pass 1  IDiag  1:
 RMSU=  3.49D-07    CP:  9.69D-01  1.28D+00  9.30D-01  7.77D-01  1.20D+00
                    CP:  1.58D+00  2.00D+00  1.94D+00  1.55D+00  1.49D+00
                    CP:  1.39D+00
 E= -1922.17432962168     Delta-E=       -0.000000263054 Rises=F Damp=F
 DIIS: error= 6.39D-06 at cycle  12 NSaved=  12.
 NSaved=12 IEnMin=12 EnMin= -1922.17432962168     IErMin=12 ErrMin= 6.39D-06
 ErrMax= 6.39D-06  0.00D+00 EMaxC= 1.00D-01 BMatC= 7.48D-08 BMatP= 2.17D-07
 IDIUse=1 WtCom= 1.00D+00 WtEn= 0.00D+00
 Coeff-Com:  0.796D-04-0.194D-03-0.665D-03-0.977D-03-0.163D-03 0.594D-02
 Coeff-Com:  0.158D-01-0.323D-02-0.102D+00-0.782D-01 0.283D+00 0.881D+00
 Coeff:      0.796D-04-0.194D-03-0.665D-03-0.977D-03-0.163D-03 0.594D-02
 Coeff:      0.158D-01-0.323D-02-0.102D+00-0.782D-01 0.283D+00 0.881D+00
 Gap=     0.141 Goal=   None    Shift=    0.000
 Gap=     0.150 Goal=   None    Shift=    0.000
 RMSDP=3.86D-07 MaxDP=3.95D-05 DE=-2.63D-07 OVMax= 3.10D-04

 Cycle  13  Pass 1  IDiag  1:
 RMSU=  1.85D-07    CP:  9.69D-01  1.28D+00  9.30D-01  7.77D-01  1.20D+00
                    CP:  1.58D+00  1.99D+00  1.95D+00  1.57D+00  1.62D+00
                    CP:  1.76D+00  1.40D+00
 E= -1922.17432974398     Delta-E=       -0.000000122298 Rises=F Damp=F
 DIIS: error= 3.58D-06 at cycle  13 NSaved=  13.
 NSaved=13 IEnMin=13 EnMin= -1922.17432974398     IErMin=13 ErrMin= 3.58D-06
 ErrMax= 3.58D-06  0.00D+00 EMaxC= 1.00D-01 BMatC= 3.39D-08 BMatP= 7.48D-08
 IDIUse=1 WtCom= 1.00D+00 WtEn= 0.00D+00
 Coeff-Com:  0.801D-04-0.167D-03-0.854D-03-0.157D-02-0.255D-02-0.159D-02
 Coeff-Com:  0.166D-01 0.263D-01-0.453D-01-0.127D+00-0.213D+00 0.403D+00
 Coeff-Com:  0.946D+00
 Coeff:      0.801D-04-0.167D-03-0.854D-03-0.157D-02-0.255D-02-0.159D-02
 Coeff:      0.166D-01 0.263D-01-0.453D-01-0.127D+00-0.213D+00 0.403D+00
 Coeff:      0.946D+00
 Gap=     0.141 Goal=   None    Shift=    0.000
 Gap=     0.150 Goal=   None    Shift=    0.000
 RMSDP=3.29D-07 MaxDP=4.10D-05 DE=-1.22D-07 OVMax= 2.61D-04

 Cycle  14  Pass 1  IDiag  1:
 RMSU=  1.09D-07    CP:  9.69D-01  1.28D+00  9.30D-01  7.77D-01  1.20D+00
                    CP:  1.58D+00  1.99D+00  1.96D+00  1.57D+00  1.73D+00
                    CP:  2.02D+00  1.94D+00  1.67D+00
 E= -1922.17432981315     Delta-E=       -0.000000069173 Rises=F Damp=F
 DIIS: error= 1.93D-06 at cycle  14 NSaved=  14.
 NSaved=14 IEnMin=14 EnMin= -1922.17432981315     IErMin=14 ErrMin= 1.93D-06
 ErrMax= 1.93D-06  0.00D+00 EMaxC= 1.00D-01 BMatC= 1.02D-08 BMatP= 3.39D-08
 IDIUse=1 WtCom= 1.00D+00 WtEn= 0.00D+00
 Coeff-Com: -0.121D-04 0.359D-04 0.452D-04-0.574D-04-0.707D-03-0.331D-02
 Coeff-Com: -0.239D-02 0.102D-01 0.309D-01-0.195D-02-0.199D+00-0.246D+00
 Coeff-Com:  0.294D+00 0.112D+01
 Coeff:     -0.121D-04 0.359D-04 0.452D-04-0.574D-04-0.707D-03-0.331D-02
 Coeff:     -0.239D-02 0.102D-01 0.309D-01-0.195D-02-0.199D+00-0.246D+00
 Coeff:      0.294D+00 0.112D+01
 Gap=     0.141 Goal=   None    Shift=    0.000
 Gap=     0.150 Goal=   None    Shift=    0.000
 RMSDP=2.56D-07 MaxDP=2.56D-05 DE=-6.92D-08 OVMax= 2.20D-04

 Cycle  15  Pass 1  IDiag  1:
 RMSU=  7.11D-08    CP:  9.69D-01  1.28D+00  9.30D-01  7.77D-01  1.20D+00
                    CP:  1.58D+00  1.99D+00  1.96D+00  1.58D+00  1.77D+00
                    CP:  2.20D+00  2.29D+00  2.52D+00  1.58D+00
 E= -1922.17432983896     Delta-E=       -0.000000025807 Rises=F Damp=F
 DIIS: error= 8.16D-07 at cycle  15 NSaved=  15.
 NSaved=15 IEnMin=15 EnMin= -1922.17432983896     IErMin=15 ErrMin= 8.16D-07
 ErrMax= 8.16D-07  0.00D+00 EMaxC= 1.00D-01 BMatC= 3.33D-09 BMatP= 1.02D-08
 IDIUse=1 WtCom= 1.00D+00 WtEn= 0.00D+00
 Coeff-Com: -0.274D-04 0.624D-04 0.264D-03 0.413D-03 0.336D-03-0.108D-02
 Coeff-Com: -0.581D-02-0.332D-02 0.262D-01 0.367D-01-0.237D-01-0.221D+00
 Coeff-Com: -0.147D+00 0.538D+00 0.800D+00
 Coeff:     -0.274D-04 0.624D-04 0.264D-03 0.413D-03 0.336D-03-0.108D-02
 Coeff:     -0.581D-02-0.332D-02 0.262D-01 0.367D-01-0.237D-01-0.221D+00
 Coeff:     -0.147D+00 0.538D+00 0.800D+00
 Gap=     0.141 Goal=   None    Shift=    0.000
 Gap=     0.150 Goal=   None    Shift=    0.000
 RMSDP=9.80D-08 MaxDP=1.14D-05 DE=-2.58D-08 OVMax= 6.93D-05

 Cycle  16  Pass 1  IDiag  1:
 RMSU=  2.68D-08    CP:  9.69D-01  1.28D+00  9.30D-01  7.77D-01  1.20D+00
                    CP:  1.58D+00  1.99D+00  1.96D+00  1.58D+00  1.79D+00
                    CP:  2.24D+00  2.43D+00  2.81D+00  1.96D+00  1.29D+00
 E= -1922.17432984336     Delta-E=       -0.000000004404 Rises=F Damp=F
 DIIS: error= 4.60D-07 at cycle  16 NSaved=  16.
 NSaved=16 IEnMin=16 EnMin= -1922.17432984336     IErMin=16 ErrMin= 4.60D-07
 ErrMax= 4.60D-07  0.00D+00 EMaxC= 1.00D-01 BMatC= 5.64D-10 BMatP= 3.33D-09
 IDIUse=1 WtCom= 1.00D+00 WtEn= 0.00D+00
 Coeff-Com: -0.537D-05 0.109D-04 0.840D-04 0.159D-03 0.240D-03 0.400D-03
 Coeff-Com: -0.152D-02-0.382D-02 0.247D-02 0.144D-01 0.445D-01-0.221D-01
 Coeff-Com: -0.136D+00-0.862D-01 0.269D+00 0.918D+00
 Coeff:     -0.537D-05 0.109D-04 0.840D-04 0.159D-03 0.240D-03 0.400D-03
 Coeff:     -0.152D-02-0.382D-02 0.247D-02 0.144D-01 0.445D-01-0.221D-01
 Coeff:     -0.136D+00-0.862D-01 0.269D+00 0.918D+00
 Gap=     0.141 Goal=   None    Shift=    0.000
 Gap=     0.150 Goal=   None    Shift=    0.000
 RMSDP=4.30D-08 MaxDP=3.60D-06 DE=-4.40D-09 OVMax= 2.90D-05

 Cycle  17  Pass 1  IDiag  1:
 RMSU=  1.44D-08    CP:  9.69D-01  1.28D+00  9.30D-01  7.77D-01  1.20D+00
                    CP:  1.58D+00  1.99D+00  1.96D+00  1.58D+00  1.80D+00
                    CP:  2.26D+00  2.46D+00  2.95D+00  2.11D+00  1.49D+00
                    CP:  1.32D+00
 E= -1922.17432984402     Delta-E=       -0.000000000658 Rises=F Damp=F
 DIIS: error= 1.15D-07 at cycle  17 NSaved=  17.
 NSaved=17 IEnMin=17 EnMin= -1922.17432984402     IErMin=17 ErrMin= 1.15D-07
 ErrMax= 1.15D-07  0.00D+00 EMaxC= 1.00D-01 BMatC= 1.03D-10 BMatP= 5.64D-10
 IDIUse=1 WtCom= 1.00D+00 WtEn= 0.00D+00
 Coeff-Com:  0.279D-05-0.670D-05-0.143D-04-0.115D-04 0.167D-04 0.321D-03
 Coeff-Com:  0.488D-03-0.755D-03-0.332D-02-0.212D-02 0.174D-01 0.271D-01
 Coeff-Com: -0.151D-01-0.104D+00-0.561D-01 0.303D+00 0.833D+00
 Coeff:      0.279D-05-0.670D-05-0.143D-04-0.115D-04 0.167D-04 0.321D-03
 Coeff:      0.488D-03-0.755D-03-0.332D-02-0.212D-02 0.174D-01 0.271D-01
 Coeff:     -0.151D-01-0.104D+00-0.561D-01 0.303D+00 0.833D+00
 Gap=     0.141 Goal=   None    Shift=    0.000
 Gap=     0.150 Goal=   None    Shift=    0.000
 RMSDP=1.06D-08 MaxDP=1.42D-06 DE=-6.58D-10 OVMax= 4.51D-06

 Cycle  18  Pass 1  IDiag  1:
 RMSU=  5.46D-09    CP:  9.69D-01  1.28D+00  9.30D-01  7.77D-01  1.20D+00
                    CP:  1.58D+00  1.99D+00  1.96D+00  1.58D+00  1.80D+00
                    CP:  2.26D+00  2.47D+00  2.96D+00  2.12D+00  1.55D+00
                    CP:  1.52D+00  1.25D+00
 E= -1922.17432984398     Delta-E=        0.000000000037 Rises=F Damp=F
 DIIS: error= 5.20D-08 at cycle  18 NSaved=  18.
 NSaved=18 IEnMin=17 EnMin= -1922.17432984402     IErMin=18 ErrMin= 5.20D-08
 ErrMax= 5.20D-08  0.00D+00 EMaxC= 1.00D-01 BMatC= 2.18D-11 BMatP= 1.03D-10
 IDIUse=1 WtCom= 1.00D+00 WtEn= 0.00D+00
 Coeff-Com:  0.217D-05-0.482D-05-0.223D-04-0.355D-04-0.429D-04 0.551D-04
 Coeff-Com:  0.492D-03 0.410D-03-0.171D-02-0.372D-02-0.101D-02 0.156D-01
 Coeff-Com:  0.200D-01-0.272D-01-0.808D-01-0.475D-01 0.330D+00 0.795D+00
 Coeff:      0.217D-05-0.482D-05-0.223D-04-0.355D-04-0.429D-04 0.551D-04
 Coeff:      0.492D-03 0.410D-03-0.171D-02-0.372D-02-0.101D-02 0.156D-01
 Coeff:      0.200D-01-0.272D-01-0.808D-01-0.475D-01 0.330D+00 0.795D+00
 Gap=     0.141 Goal=   None    Shift=    0.000
 Gap=     0.150 Goal=   None    Shift=    0.000
 RMSDP=4.59D-09 MaxDP=4.54D-07 DE= 3.73D-11 OVMax= 1.80D-06

 Error on total polarization charges =  0.02546
 SCF Done:  E(UM062X) =  -1922.17432984     A.U. after   18 cycles
            NFock= 18  Conv=0.46D-08     -V/T= 2.0054
 <Sx>= 0.0000 <Sy>= 0.0000 <Sz>= 0.5000 <S**2>= 0.7976 S= 0.5235
 <L.S>= 0.000000000000E+00
 KE= 1.911841873493D+03 PE=-1.351419249799D+04 EE= 5.179989497445D+03
 Annihilation of the first spin contaminant:
 S**2 before annihilation     0.7976,   after     0.7518
 Leave Link  502 at Thu Nov  6 12:54:44 2025, MaxMem= 30870077440 cpu:           90132.3 elap:            1425.1
 (Enter /public/software/gauss/g16/l601.exe)
 Copying SCF densities to generalized density rwf, IOpCl= 1 IROHF=0.

 **********************************************************************

            Population analysis using the SCF density.

 **********************************************************************

 Orbital symmetries:
 Alpha Orbitals:
       Occupied  (A) (A) (A) (A) (A) (A) (A) (A) (A) (A) (A) (A)
                 (A) (A) (A) (A) (A) (A) (A) (A) (A) (A) (A) (A)
                 (A) (A) (A) (A) (A) (A) (A) (A) (A) (A) (A) (A)
                 (A) (A) (A) (A) (A) (A) (A) (A) (A) (A) (A) (A)
                 (A) (A) (A) (A) (A) (A) (A) (A) (A) (A) (A) (A)
                 (A) (A) (A) (A) (A) (A) (A) (A) (A) (A) (A) (A)
                 (A) (A) (A) (A) (A) (A) (A) (A) (A) (A) (A) (A)
                 (A) (A) (A) (A) (A) (A) (A) (A) (A) (A) (A) (A)
                 (A) (A) (A) (A) (A) (A) (A) (A) (A) (A) (A) (A)
                 (A) (A) (A) (A) (A) (A) (A) (A) (A) (A) (A) (A)
                 (A) (A) (A) (A) (A) (A) (A) (A) (A) (A) (A) (A)
                 (A) (A) (A) (A) (A) (A) (A) (A) (A) (A) (A) (A)
                 (A) (A) (A) (A) (A) (A)
       Virtual   (A) (A) (A) (A) (A) (A) (A) (A) (A) (A) (A) (A)
                 (A) (A) (A) (A) (A) (A) (A) (A) (A) (A) (A) (A)
                 (A) (A) (A) (A) (A) (A) (A) (A) (A) (A) (A) (A)
                 (A) (A) (A) (A) (A) (A) (A) (A) (A) (A) (A) (A)
                 (A) (A) (A) (A) (A) (A) (A) (A) (A) (A) (A) (A)
                 (A) (A) (A) (A) (A) (A) (A) (A) (A) (A) (A) (A)
                 (A) (A) (A) (A) (A) (A) (A) (A) (A) (A) (A) (A)
                 (A) (A) (A) (A) (A) (A) (A) (A) (A) (A) (A) (A)
                 (A) (A) (A) (A) (A) (A) (A) (A) (A) (A) (A) (A)
                 (A) (A) (A) (A) (A) (A) (A) (A) (A) (A) (A) (A)
                 (A) (A) (A) (A) (A) (A) (A) (A) (A) (A) (A) (A)
                 (A) (A) (A) (A) (A) (A) (A) (A) (A) (A) (A) (A)
                 (A) (A) (A) (A) (A) (A) (A) (A) (A) (A) (A) (A)
                 (A) (A) (A) (A) (A) (A) (A) (A) (A) (A) (A) (A)
                 (A) (A) (A) (A) (A) (A) (A) (A) (A) (A) (A) (A)
                 (A) (A) (A) (A) (A) (A) (A) (A) (A) (A) (A) (A)
                 (A) (A) (A) (A) (A) (A) (A) (A) (A) (A) (A) (A)
                 (A) (A) (A) (A) (A) (A) (A) (A) (A) (A) (A) (A)
                 (A) (A) (A) (A) (A) (A) (A) (A) (A) (A) (A) (A)
                 (A) (A) (A) (A) (A) (A) (A) (A) (A) (A) (A) (A)
                 (A) (A) (A) (A) (A) (A) (A) (A) (A) (A) (A) (A)
                 (A) (A) (A) (A) (A) (A) (A) (A) (A) (A) (A) (A)
                 (A) (A) (A) (A) (A) (A) (A) (A) (A) (A) (A) (A)
                 (A) (A) (A) (A) (A) (A) (A) (A) (A) (A) (A) (A)
                 (A) (A) (A) (A) (A) (A) (A) (A) (A) (A) (A) (A)
                 (A) (A) (A) (A) (A) (A) (A) (A) (A) (A) (A) (A)
                 (A) (A) (A) (A) (A) (A) (A) (A) (A) (A) (A) (A)
                 (A) (A) (A) (A) (A) (A) (A) (A) (A) (A) (A) (A)
                 (A) (A) (A) (A) (A) (A) (A) (A) (A) (A) (A) (A)
                 (A) (A) (A) (A) (A) (A) (A) (A) (A) (A) (A) (A)
                 (A) (A) (A) (A) (A) (A) (A) (A) (A) (A) (A) (A)
                 (A) (A) (A) (A) (A) (A) (A) (A) (A) (A) (A) (A)
                 (A) (A) (A) (A) (A) (A) (A) (A) (A) (A) (A) (A)
                 (A) (A) (A) (A) (A) (A) (A) (A) (A) (A) (A) (A)
                 (A) (A) (A) (A) (A) (A) (A) (A) (A) (A) (A) (A)
                 (A) (A) (A) (A) (A) (A) (A) (A) (A) (A) (A) (A)
                 (A) (A) (A) (A) (A) (A) (A) (A) (A) (A) (A) (A)
                 (A) (A) (A) (A) (A) (A) (A) (A) (A) (A) (A) (A)
                 (A) (A) (A) (A) (A) (A) (A) (A) (A) (A) (A) (A)
                 (A) (A) (A) (A) (A) (A) (A) (A) (A) (A) (A) (A)
                 (A) (A) (A) (A) (A) (A) (A) (A) (A) (A) (A) (A)
                 (A) (A) (A) (A) (A) (A) (A) (A) (A) (A) (A) (A)
                 (A) (A) (A) (A) (A) (A) (A) (A) (A) (A) (A) (A)
                 (A) (A) (A) (A) (A) (A) (A) (A) (A) (A) (A) (A)
                 (A) (A) (A) (A) (A) (A) (A) (A) (A) (A) (A) (A)
                 (A) (A) (A) (A) (A) (A) (A) (A) (A) (A) (A) (A)
                 (A) (A) (A) (A) (A) (A) (A) (A) (A) (A) (A) (A)
                 (A) (A) (A) (A) (A) (A) (A) (A) (A) (A) (A) (A)
                 (A) (A) (A) (A) (A) (A) (A) (A) (A) (A) (A) (A)
                 (A) (A) (A) (A) (A) (A) (A) (A) (A) (A) (A) (A)
                 (A) (A) (A) (A) (A) (A) (A) (A) (A) (A) (A) (A)
                 (A) (A) (A) (A) (A) (A) (A) (A) (A) (A) (A) (A)
                 (A) (A) (A) (A) (A) (A) (A) (A) (A) (A) (A) (A)
                 (A) (A) (A) (A) (A) (A) (A) (A) (A) (A) (A) (A)
                 (A) (A) (A) (A) (A) (A) (A) (A) (A) (A) (A) (A)
                 (A) (A) (A) (A) (A) (A) (A) (A) (A) (A) (A) (A)
                 (A) (A) (A) (A) (A) (A) (A) (A) (A) (A) (A) (A)
                 (A) (A) (A) (A) (A) (A) (A) (A) (A) (A) (A) (A)
                 (A) (A) (A) (A) (A) (A) (A) (A) (A) (A) (A) (A)
                 (A) (A) (A) (A) (A) (A) (A) (A) (A) (A) (A) (A)
                 (A) (A) (A) (A) (A) (A) (A) (A) (A) (A) (A) (A)
                 (A) (A) (A) (A) (A) (A) (A) (A) (A) (A) (A) (A)
                 (A) (A) (A) (A) (A) (A) (A) (A) (A) (A) (A) (A)
                 (A) (A) (A) (A) (A) (A) (A) (A) (A) (A) (A) (A)
                 (A) (A) (A) (A) (A) (A) (A) (A) (A) (A) (A) (A)
                 (A) (A) (A) (A) (A) (A) (A) (A) (A) (A) (A) (A)
                 (A) (A) (A) (A) (A) (A) (A) (A) (A) (A) (A) (A)
                 (A) (A) (A) (A) (A) (A) (A) (A) (A) (A) (A) (A)
                 (A) (A) (A) (A) (A) (A) (A) (A) (A) (A) (A) (A)
                 (A) (A) (A) (A) (A) (A) (A) (A) (A) (A) (A) (A)
                 (A) (A) (A) (A) (A) (A) (A) (A) (A) (A) (A) (A)
                 (A) (A) (A) (A) (A) (A) (A) (A) (A) (A) (A) (A)
                 (A) (A) (A) (A) (A) (A) (A) (A) (A) (A) (A) (A)
                 (A) (A) (A) (A) (A) (A) (A) (A) (A) (A) (A) (A)
                 (A) (A) (A) (A) (A) (A) (A) (A) (A) (A) (A) (A)
                 (A) (A) (A) (A) (A) (A) (A) (A) (A) (A) (A) (A)
                 (A) (A) (A) (A) (A) (A) (A) (A) (A) (A) (A) (A)
                 (A) (A) (A) (A) (A) (A) (A) (A) (A) (A) (A) (A)
                 (A) (A) (A) (A) (A) (A) (A) (A) (A) (A) (A) (A)
                 (A) (A) (A) (A) (A) (A) (A) (A) (A) (A) (A) (A)
                 (A) (A) (A) (A) (A) (A) (A) (A) (A) (A) (A) (A)
                 (A) (A) (A) (A) (A) (A) (A) (A) (A) (A) (A) (A)
                 (A) (A) (A) (A) (A) (A) (A) (A) (A) (A) (A) (A)
                 (A) (A) (A) (A) (A) (A) (A) (A) (A) (A) (A) (A)
                 (A) (A) (A) (A) (A) (A) (A) (A) (A) (A) (A) (A)
                 (A) (A) (A) (A) (A) (A) (A) (A) (A) (A) (A) (A)
                 (A) (A) (A) (A) (A) (A) (A) (A) (A) (A) (A) (A)
                 (A) (A) (A) (A) (A) (A) (A) (A) (A) (A) (A) (A)
                 (A) (A) (A) (A) (A) (A) (A) (A) (A) (A) (A) (A)
                 (A) (A) (A) (A) (A) (A) (A) (A) (A) (A) (A) (A)
                 (A) (A) (A) (A) (A) (A) (A) (A) (A) (A) (A) (A)
                 (A) (A) (A) (A) (A) (A) (A) (A) (A) (A) (A) (A)
                 (A) (A) (A) (A) (A) (A) (A) (A) (A) (A) (A) (A)
                 (A) (A) (A) (A) (A) (A) (A) (A) (A) (A) (A) (A)
                 (A) (A) (A) (A) (A) (A) (A) (A) (A) (A) (A) (A)
                 (A) (A) (A) (A) (A) (A) (A) (A) (A) (A) (A) (A)
                 (A) (A) (A) (A) (A) (A) (A) (A) (A) (A) (A) (A)
                 (A) (A) (A) (A) (A) (A) (A) (A) (A) (A) (A) (A)
                 (A) (A) (A) (A) (A) (A) (A) (A) (A) (A) (A) (A)
                 (A) (A) (A) (A) (A) (A) (A) (A) (A) (A) (A) (A)
                 (A) (A) (A) (A) (A) (A) (A) (A) (A) (A) (A) (A)
                 (A) (A) (A) (A) (A) (A) (A) (A) (A) (A) (A) (A)
                 (A) (A) (A) (A) (A) (A) (A) (A) (A) (A) (A) (A)
                 (A) (A) (A) (A) (A) (A) (A) (A) (A) (A) (A) (A)
                 (A) (A) (A) (A) (A) (A) (A) (A) (A) (A) (A) (A)
                 (A) (A) (A) (A) (A) (A) (A) (A) (A) (A) (A) (A)
                 (A) (A) (A) (A) (A) (A) (A) (A) (A) (A) (A) (A)
                 (A) (A) (A) (A) (A) (A) (A) (A) (A) (A) (A) (A)
                 (A) (A) (A) (A) (A) (A) (A) (A) (A) (A) (A) (A)
                 (A) (A) (A) (A) (A) (A) (A) (A) (A) (A) (A) (A)
                 (A) (A) (A) (A) (A) (A) (A) (A) (A) (A) (A) (A)
                 (A) (A) (A) (A) (A) (A) (A) (A) (A) (A) (A) (A)
                 (A) (A) (A) (A) (A) (A) (A) (A) (A) (A) (A) (A)
                 (A) (A) (A) (A) (A) (A) (A) (A) (A) (A) (A) (A)
                 (A) (A) (A) (A) (A) (A) (A) (A) (A) (A) (A) (A)
                 (A) (A) (A) (A) (A) (A) (A) (A) (A) (A) (A) (A)
                 (A) (A) (A) (A) (A) (A) (A) (A) (A) (A) (A) (A)
                 (A) (A) (A) (A) (A) (A) (A) (A) (A) (A) (A) (A)
                 (A) (A) (A) (A) (A) (A) (A) (A) (A) (A) (A) (A)
                 (A) (A) (A) (A) (A) (A) (A) (A) (A) (A) (A) (A)
                 (A) (A) (A) (A) (A) (A) (A) (A) (A) (A) (A) (A)
                 (A) (A) (A) (A) (A) (A) (A) (A) (A) (A) (A) (A)
                 (A) (A) (A) (A) (A) (A) (A) (A) (A) (A) (A) (A)
                 (A) (A) (A) (A) (A) (A) (A) (A) (A) (A) (A) (A)
                 (A) (A) (A) (A) (A) (A) (A) (A) (A) (A) (A) (A)
                 (A) (A) (A) (A) (A) (A) (A) (A) (A) (A) (A) (A)
                 (A) (A) (A) (A) (A) (A) (A) (A) (A) (A) (A) (A)
                 (A) (A) (A) (A) (A) (A) (A) (A) (A) (A) (A) (A)
                 (A) (A) (A) (A) (A) (A) (A) (A) (A) (A) (A)
 Beta  Orbitals:
       Occupied  (A) (A) (A) (A) (A) (A) (A) (A) (A) (A) (A) (A)
                 (A) (A) (A) (A) (A) (A) (A) (A) (A) (A) (A) (A)
                 (A) (A) (A) (A) (A) (A) (A) (A) (A) (A) (A) (A)
                 (A) (A) (A) (A) (A) (A) (A) (A) (A) (A) (A) (A)
                 (A) (A) (A) (A) (A) (A) (A) (A) (A) (A) (A) (A)
                 (A) (A) (A) (A) (A) (A) (A) (A) (A) (A) (A) (A)
                 (A) (A) (A) (A) (A) (A) (A) (A) (A) (A) (A) (A)
                 (A) (A) (A) (A) (A) (A) (A) (A) (A) (A) (A) (A)
                 (A) (A) (A) (A) (A) (A) (A) (A) (A) (A) (A) (A)
                 (A) (A) (A) (A) (A) (A) (A) (A) (A) (A) (A) (A)
                 (A) (A) (A) (A) (A) (A) (A) (A) (A) (A) (A) (A)
                 (A) (A) (A) (A) (A) (A) (A) (A) (A) (A) (A) (A)
                 (A) (A) (A) (A) (A)
       Virtual   (A) (A) (A) (A) (A) (A) (A) (A) (A) (A) (A) (A)
                 (A) (A) (A) (A) (A) (A) (A) (A) (A) (A) (A) (A)
                 (A) (A) (A) (A) (A) (A) (A) (A) (A) (A) (A) (A)
                 (A) (A) (A) (A) (A) (A) (A) (A) (A) (A) (A) (A)
                 (A) (A) (A) (A) (A) (A) (A) (A) (A) (A) (A) (A)
                 (A) (A) (A) (A) (A) (A) (A) (A) (A) (A) (A) (A)
                 (A) (A) (A) (A) (A) (A) (A) (A) (A) (A) (A) (A)
                 (A) (A) (A) (A) (A) (A) (A) (A) (A) (A) (A) (A)
                 (A) (A) (A) (A) (A) (A) (A) (A) (A) (A) (A) (A)
                 (A) (A) (A) (A) (A) (A) (A) (A) (A) (A) (A) (A)
                 (A) (A) (A) (A) (A) (A) (A) (A) (A) (A) (A) (A)
                 (A) (A) (A) (A) (A) (A) (A) (A) (A) (A) (A) (A)
                 (A) (A) (A) (A) (A) (A) (A) (A) (A) (A) (A) (A)
                 (A) (A) (A) (A) (A) (A) (A) (A) (A) (A) (A) (A)
                 (A) (A) (A) (A) (A) (A) (A) (A) (A) (A) (A) (A)
                 (A) (A) (A) (A) (A) (A) (A) (A) (A) (A) (A) (A)
                 (A) (A) (A) (A) (A) (A) (A) (A) (A) (A) (A) (A)
                 (A) (A) (A) (A) (A) (A) (A) (A) (A) (A) (A) (A)
                 (A) (A) (A) (A) (A) (A) (A) (A) (A) (A) (A) (A)
                 (A) (A) (A) (A) (A) (A) (A) (A) (A) (A) (A) (A)
                 (A) (A) (A) (A) (A) (A) (A) (A) (A) (A) (A) (A)
                 (A) (A) (A) (A) (A) (A) (A) (A) (A) (A) (A) (A)
                 (A) (A) (A) (A) (A) (A) (A) (A) (A) (A) (A) (A)
                 (A) (A) (A) (A) (A) (A) (A) (A) (A) (A) (A) (A)
                 (A) (A) (A) (A) (A) (A) (A) (A) (A) (A) (A) (A)
                 (A) (A) (A) (A) (A) (A) (A) (A) (A) (A) (A) (A)
                 (A) (A) (A) (A) (A) (A) (A) (A) (A) (A) (A) (A)
                 (A) (A) (A) (A) (A) (A) (A) (A) (A) (A) (A) (A)
                 (A) (A) (A) (A) (A) (A) (A) (A) (A) (A) (A) (A)
                 (A) (A) (A) (A) (A) (A) (A) (A) (A) (A) (A) (A)
                 (A) (A) (A) (A) (A) (A) (A) (A) (A) (A) (A) (A)
                 (A) (A) (A) (A) (A) (A) (A) (A) (A) (A) (A) (A)
                 (A) (A) (A) (A) (A) (A) (A) (A) (A) (A) (A) (A)
                 (A) (A) (A) (A) (A) (A) (A) (A) (A) (A) (A) (A)
                 (A) (A) (A) (A) (A) (A) (A) (A) (A) (A) (A) (A)
                 (A) (A) (A) (A) (A) (A) (A) (A) (A) (A) (A) (A)
                 (A) (A) (A) (A) (A) (A) (A) (A) (A) (A) (A) (A)
                 (A) (A) (A) (A) (A) (A) (A) (A) (A) (A) (A) (A)
                 (A) (A) (A) (A) (A) (A) (A) (A) (A) (A) (A) (A)
                 (A) (A) (A) (A) (A) (A) (A) (A) (A) (A) (A) (A)
                 (A) (A) (A) (A) (A) (A) (A) (A) (A) (A) (A) (A)
                 (A) (A) (A) (A) (A) (A) (A) (A) (A) (A) (A) (A)
                 (A) (A) (A) (A) (A) (A) (A) (A) (A) (A) (A) (A)
                 (A) (A) (A) (A) (A) (A) (A) (A) (A) (A) (A) (A)
                 (A) (A) (A) (A) (A) (A) (A) (A) (A) (A) (A) (A)
                 (A) (A) (A) (A) (A) (A) (A) (A) (A) (A) (A) (A)
                 (A) (A) (A) (A) (A) (A) (A) (A) (A) (A) (A) (A)
                 (A) (A) (A) (A) (A) (A) (A) (A) (A) (A) (A) (A)
                 (A) (A) (A) (A) (A) (A) (A) (A) (A) (A) (A) (A)
                 (A) (A) (A) (A) (A) (A) (A) (A) (A) (A) (A) (A)
                 (A) (A) (A) (A) (A) (A) (A) (A) (A) (A) (A) (A)
                 (A) (A) (A) (A) (A) (A) (A) (A) (A) (A) (A) (A)
                 (A) (A) (A) (A) (A) (A) (A) (A) (A) (A) (A) (A)
                 (A) (A) (A) (A) (A) (A) (A) (A) (A) (A) (A) (A)
                 (A) (A) (A) (A) (A) (A) (A) (A) (A) (A) (A) (A)
                 (A) (A) (A) (A) (A) (A) (A) (A) (A) (A) (A) (A)
                 (A) (A) (A) (A) (A) (A) (A) (A) (A) (A) (A) (A)
                 (A) (A) (A) (A) (A) (A) (A) (A) (A) (A) (A) (A)
                 (A) (A) (A) (A) (A) (A) (A) (A) (A) (A) (A) (A)
                 (A) (A) (A) (A) (A) (A) (A) (A) (A) (A) (A) (A)
                 (A) (A) (A) (A) (A) (A) (A) (A) (A) (A) (A) (A)
                 (A) (A) (A) (A) (A) (A) (A) (A) (A) (A) (A) (A)
                 (A) (A) (A) (A) (A) (A) (A) (A) (A) (A) (A) (A)
                 (A) (A) (A) (A) (A) (A) (A) (A) (A) (A) (A) (A)
                 (A) (A) (A) (A) (A) (A) (A) (A) (A) (A) (A) (A)
                 (A) (A) (A) (A) (A) (A) (A) (A) (A) (A) (A) (A)
                 (A) (A) (A) (A) (A) (A) (A) (A) (A) (A) (A) (A)
                 (A) (A) (A) (A) (A) (A) (A) (A) (A) (A) (A) (A)
                 (A) (A) (A) (A) (A) (A) (A) (A) (A) (A) (A) (A)
                 (A) (A) (A) (A) (A) (A) (A) (A) (A) (A) (A) (A)
                 (A) (A) (A) (A) (A) (A) (A) (A) (A) (A) (A) (A)
                 (A) (A) (A) (A) (A) (A) (A) (A) (A) (A) (A) (A)
                 (A) (A) (A) (A) (A) (A) (A) (A) (A) (A) (A) (A)
                 (A) (A) (A) (A) (A) (A) (A) (A) (A) (A) (A) (A)
                 (A) (A) (A) (A) (A) (A) (A) (A) (A) (A) (A) (A)
                 (A) (A) (A) (A) (A) (A) (A) (A) (A) (A) (A) (A)
                 (A) (A) (A) (A) (A) (A) (A) (A) (A) (A) (A) (A)
                 (A) (A) (A) (A) (A) (A) (A) (A) (A) (A) (A) (A)
                 (A) (A) (A) (A) (A) (A) (A) (A) (A) (A) (A) (A)
                 (A) (A) (A) (A) (A) (A) (A) (A) (A) (A) (A) (A)
                 (A) (A) (A) (A) (A) (A) (A) (A) (A) (A) (A) (A)
                 (A) (A) (A) (A) (A) (A) (A) (A) (A) (A) (A) (A)
                 (A) (A) (A) (A) (A) (A) (A) (A) (A) (A) (A) (A)
                 (A) (A) (A) (A) (A) (A) (A) (A) (A) (A) (A) (A)
                 (A) (A) (A) (A) (A) (A) (A) (A) (A) (A) (A) (A)
                 (A) (A) (A) (A) (A) (A) (A) (A) (A) (A) (A) (A)
                 (A) (A) (A) (A) (A) (A) (A) (A) (A) (A) (A) (A)
                 (A) (A) (A) (A) (A) (A) (A) (A) (A) (A) (A) (A)
                 (A) (A) (A) (A) (A) (A) (A) (A) (A) (A) (A) (A)
                 (A) (A) (A) (A) (A) (A) (A) (A) (A) (A) (A) (A)
                 (A) (A) (A) (A) (A) (A) (A) (A) (A) (A) (A) (A)
                 (A) (A) (A) (A) (A) (A) (A) (A) (A) (A) (A) (A)
                 (A) (A) (A) (A) (A) (A) (A) (A) (A) (A) (A) (A)
                 (A) (A) (A) (A) (A) (A) (A) (A) (A) (A) (A) (A)
                 (A) (A) (A) (A) (A) (A) (A) (A) (A) (A) (A) (A)
                 (A) (A) (A) (A) (A) (A) (A) (A) (A) (A) (A) (A)
                 (A) (A) (A) (A) (A) (A) (A) (A) (A) (A) (A) (A)
                 (A) (A) (A) (A) (A) (A) (A) (A) (A) (A) (A) (A)
                 (A) (A) (A) (A) (A) (A) (A) (A) (A) (A) (A) (A)
                 (A) (A) (A) (A) (A) (A) (A) (A) (A) (A) (A) (A)
                 (A) (A) (A) (A) (A) (A) (A) (A) (A) (A) (A) (A)
                 (A) (A) (A) (A) (A) (A) (A) (A) (A) (A) (A) (A)
                 (A) (A) (A) (A) (A) (A) (A) (A) (A) (A) (A) (A)
                 (A) (A) (A) (A) (A) (A) (A) (A) (A) (A) (A) (A)
                 (A) (A) (A) (A) (A) (A) (A) (A) (A) (A) (A) (A)
                 (A) (A) (A) (A) (A) (A) (A) (A) (A) (A) (A) (A)
                 (A) (A) (A) (A) (A) (A) (A) (A) (A) (A) (A) (A)
                 (A) (A) (A) (A) (A) (A) (A) (A) (A) (A) (A) (A)
                 (A) (A) (A) (A) (A) (A) (A) (A) (A) (A) (A) (A)
                 (A) (A) (A) (A) (A) (A) (A) (A) (A) (A) (A) (A)
                 (A) (A) (A) (A) (A) (A) (A) (A) (A) (A) (A) (A)
                 (A) (A) (A) (A) (A) (A) (A) (A) (A) (A) (A) (A)
                 (A) (A) (A) (A) (A) (A) (A) (A) (A) (A) (A) (A)
                 (A) (A) (A) (A) (A) (A) (A) (A) (A) (A) (A) (A)
                 (A) (A) (A) (A) (A) (A) (A) (A) (A) (A) (A) (A)
                 (A) (A) (A) (A) (A) (A) (A) (A) (A) (A) (A) (A)
                 (A) (A) (A) (A) (A) (A) (A) (A) (A) (A) (A) (A)
                 (A) (A) (A) (A) (A) (A) (A) (A) (A) (A) (A) (A)
                 (A) (A) (A) (A) (A) (A) (A) (A) (A) (A) (A) (A)
                 (A) (A) (A) (A) (A) (A) (A) (A) (A) (A) (A) (A)
                 (A) (A) (A) (A) (A) (A) (A) (A) (A) (A) (A) (A)
                 (A) (A) (A) (A) (A) (A) (A) (A) (A) (A) (A) (A)
                 (A) (A) (A) (A) (A) (A) (A) (A) (A) (A) (A) (A)
                 (A) (A) (A) (A) (A) (A) (A) (A) (A) (A) (A) (A)
                 (A) (A) (A) (A) (A) (A) (A) (A) (A) (A) (A) (A)
                 (A) (A) (A) (A) (A) (A) (A) (A) (A) (A) (A) (A)
                 (A) (A) (A) (A) (A) (A) (A) (A) (A) (A) (A) (A)
                 (A) (A) (A) (A) (A) (A) (A) (A) (A) (A) (A) (A)
                 (A) (A) (A) (A) (A) (A) (A) (A) (A) (A) (A) (A)
 The electronic state is 2-A.
 Alpha  occ. eigenvalues --  -25.18829 -25.18667 -19.65875 -19.65874 -14.94895
 Alpha  occ. eigenvalues --  -14.84932 -14.81620 -14.75278 -14.75256 -10.60883
 Alpha  occ. eigenvalues --  -10.60883 -10.60471 -10.56391 -10.56385 -10.56311
 Alpha  occ. eigenvalues --  -10.56307 -10.55666 -10.55514 -10.55216 -10.55195
 Alpha  occ. eigenvalues --  -10.55156 -10.55156 -10.55076 -10.54896 -10.54895
 Alpha  occ. eigenvalues --  -10.54771 -10.54771 -10.54711 -10.54710 -10.54627
 Alpha  occ. eigenvalues --  -10.54344 -10.54343 -10.54043 -10.54042 -10.53888
 Alpha  occ. eigenvalues --  -10.53888 -10.53550 -10.53542 -10.52673 -10.52666
 Alpha  occ. eigenvalues --  -10.52055 -10.52047  -7.10770  -1.30454  -1.27755
 Alpha  occ. eigenvalues --   -1.27203  -1.18340  -1.18340  -1.10603  -1.07302
 Alpha  occ. eigenvalues --   -1.05306  -0.97410  -0.96367  -0.96358  -0.91356
 Alpha  occ. eigenvalues --   -0.89578  -0.89370  -0.88205  -0.87654  -0.85613
 Alpha  occ. eigenvalues --   -0.85184  -0.84930  -0.84929  -0.84027  -0.82067
 Alpha  occ. eigenvalues --   -0.78999  -0.78853  -0.76671  -0.75406  -0.72509
 Alpha  occ. eigenvalues --   -0.71089  -0.70904  -0.70895  -0.70541  -0.68120
 Alpha  occ. eigenvalues --   -0.67512  -0.65753  -0.64571  -0.64218  -0.62576
 Alpha  occ. eigenvalues --   -0.62519  -0.62207  -0.61767  -0.61111  -0.60858
 Alpha  occ. eigenvalues --   -0.60138  -0.58605  -0.58403  -0.57434  -0.56719
 Alpha  occ. eigenvalues --   -0.56331  -0.56017  -0.55072  -0.54257  -0.53531
 Alpha  occ. eigenvalues --   -0.53191  -0.52531  -0.51695  -0.51537  -0.51224
 Alpha  occ. eigenvalues --   -0.50747  -0.50372  -0.49845  -0.49804  -0.49751
 Alpha  occ. eigenvalues --   -0.49717  -0.49323  -0.49183  -0.49034  -0.49032
 Alpha  occ. eigenvalues --   -0.48182  -0.47825  -0.47129  -0.46717  -0.46482
 Alpha  occ. eigenvalues --   -0.46264  -0.45830  -0.45469  -0.45209  -0.44948
 Alpha  occ. eigenvalues --   -0.44745  -0.44675  -0.44088  -0.43208  -0.42959
 Alpha  occ. eigenvalues --   -0.42861  -0.42391  -0.42179  -0.41887  -0.41155
 Alpha  occ. eigenvalues --   -0.41050  -0.40256  -0.39735  -0.39391  -0.38341
 Alpha  occ. eigenvalues --   -0.38261  -0.37692  -0.36739  -0.35921  -0.32880
 Alpha  occ. eigenvalues --   -0.31961  -0.31705  -0.31701  -0.30143  -0.29151
 Alpha  occ. eigenvalues --   -0.28909  -0.27887  -0.26470  -0.22146  -0.16470
 Alpha virt. eigenvalues --   -0.02334  -0.00977  -0.00691   0.00095   0.00864
 Alpha virt. eigenvalues --    0.01467   0.01514   0.06234   0.06321   0.06387
 Alpha virt. eigenvalues --    0.06814   0.07095   0.07520   0.07609   0.08646
 Alpha virt. eigenvalues --    0.08893   0.09262   0.09368   0.09965   0.10264
 Alpha virt. eigenvalues --    0.10497   0.10936   0.11097   0.11653   0.11945
 Alpha virt. eigenvalues --    0.12418   0.12598   0.13387   0.13713   0.13971
 Alpha virt. eigenvalues --    0.14228   0.14481   0.14582   0.14635   0.15006
 Alpha virt. eigenvalues --    0.15811   0.16018   0.16047   0.16222   0.16485
 Alpha virt. eigenvalues --    0.16631   0.16920   0.17947   0.17973   0.18613
 Alpha virt. eigenvalues --    0.18981   0.18990   0.19236   0.19314   0.19661
 Alpha virt. eigenvalues --    0.19788   0.20257   0.20626   0.20948   0.21599
 Alpha virt. eigenvalues --    0.21886   0.22171   0.22575   0.22734   0.22817
 Alpha virt. eigenvalues --    0.23049   0.23190   0.23357   0.23743   0.24013
 Alpha virt. eigenvalues --    0.24245   0.24307   0.24444   0.25415   0.25453
 Alpha virt. eigenvalues --    0.25635   0.25904   0.26679   0.26761   0.26918
 Alpha virt. eigenvalues --    0.27387   0.27522   0.27639   0.28022   0.28059
 Alpha virt. eigenvalues --    0.28259   0.28478   0.28645   0.29122   0.29376
 Alpha virt. eigenvalues --    0.29478   0.29746   0.29987   0.30182   0.30300
 Alpha virt. eigenvalues --    0.30383   0.30528   0.30580   0.31503   0.31632
 Alpha virt. eigenvalues --    0.31812   0.32308   0.32551   0.33049   0.33187
 Alpha virt. eigenvalues --    0.33260   0.33531   0.33788   0.33832   0.34200
 Alpha virt. eigenvalues --    0.34660   0.34761   0.35223   0.35553   0.35843
 Alpha virt. eigenvalues --    0.35967   0.36328   0.36403   0.36457   0.36708
 Alpha virt. eigenvalues --    0.36852   0.37056   0.37370   0.37531   0.37609
 Alpha virt. eigenvalues --    0.37688   0.37951   0.38408   0.38481   0.38542
 Alpha virt. eigenvalues --    0.38716   0.38995   0.39024   0.39141   0.39617
 Alpha virt. eigenvalues --    0.39844   0.40228   0.40301   0.40798   0.41108
 Alpha virt. eigenvalues --    0.41188   0.41344   0.41401   0.41916   0.41978
 Alpha virt. eigenvalues --    0.42282   0.42588   0.42657   0.43037   0.43105
 Alpha virt. eigenvalues --    0.43363   0.43431   0.43951   0.44019   0.44327
 Alpha virt. eigenvalues --    0.44337   0.44690   0.45200   0.45278   0.45425
 Alpha virt. eigenvalues --    0.45531   0.46050   0.46242   0.46303   0.46536
 Alpha virt. eigenvalues --    0.46738   0.47400   0.47593   0.47936   0.48317
 Alpha virt. eigenvalues --    0.48491   0.48865   0.49049   0.49301   0.49555
 Alpha virt. eigenvalues --    0.49822   0.50077   0.50319   0.50988   0.51189
 Alpha virt. eigenvalues --    0.51378   0.51474   0.51560   0.51828   0.51891
 Alpha virt. eigenvalues --    0.52466   0.52638   0.52783   0.52803   0.53040
 Alpha virt. eigenvalues --    0.53166   0.53328   0.53625   0.53693   0.54055
 Alpha virt. eigenvalues --    0.54177   0.54419   0.54783   0.54981   0.55097
 Alpha virt. eigenvalues --    0.55403   0.56230   0.56793   0.57150   0.57323
 Alpha virt. eigenvalues --    0.57416   0.57801   0.58082   0.58377   0.58820
 Alpha virt. eigenvalues --    0.58916   0.59292   0.59631   0.59812   0.60321
 Alpha virt. eigenvalues --    0.60777   0.61064   0.61207   0.62517   0.62913
 Alpha virt. eigenvalues --    0.63006   0.63260   0.63550   0.63675   0.63942
 Alpha virt. eigenvalues --    0.64018   0.64295   0.64729   0.65015   0.65184
 Alpha virt. eigenvalues --    0.65532   0.65723   0.66296   0.66606   0.66642
 Alpha virt. eigenvalues --    0.67109   0.67286   0.68098   0.68329   0.68599
 Alpha virt. eigenvalues --    0.68687   0.68724   0.68992   0.69257   0.69307
 Alpha virt. eigenvalues --    0.69628   0.70179   0.70205   0.70437   0.70545
 Alpha virt. eigenvalues --    0.70791   0.70870   0.71082   0.71676   0.71772
 Alpha virt. eigenvalues --    0.72103   0.72366   0.72700   0.72813   0.72853
 Alpha virt. eigenvalues --    0.73125   0.73747   0.73812   0.74020   0.74416
 Alpha virt. eigenvalues --    0.74569   0.74703   0.75212   0.75336   0.75436
 Alpha virt. eigenvalues --    0.75744   0.76236   0.76481   0.76659   0.76885
 Alpha virt. eigenvalues --    0.77481   0.77644   0.77918   0.78850   0.79022
 Alpha virt. eigenvalues --    0.79351   0.79508   0.79609   0.79651   0.80106
 Alpha virt. eigenvalues --    0.80304   0.80769   0.81410   0.81508   0.81802
 Alpha virt. eigenvalues --    0.81927   0.82139   0.82984   0.83388   0.83747
 Alpha virt. eigenvalues --    0.83756   0.83956   0.84282   0.84609   0.84845
 Alpha virt. eigenvalues --    0.84998   0.85314   0.86178   0.86312   0.86419
 Alpha virt. eigenvalues --    0.86841   0.87072   0.87340   0.87484   0.87988
 Alpha virt. eigenvalues --    0.88197   0.88635   0.88735   0.88927   0.89148
 Alpha virt. eigenvalues --    0.89413   0.89809   0.90162   0.90655   0.90879
 Alpha virt. eigenvalues --    0.90993   0.91280   0.91622   0.92117   0.92458
 Alpha virt. eigenvalues --    0.93040   0.93458   0.93633   0.94963   0.95146
 Alpha virt. eigenvalues --    0.95679   0.95968   0.96872   0.96933   0.97231
 Alpha virt. eigenvalues --    0.97328   0.97519   0.98087   0.98455   0.98621
 Alpha virt. eigenvalues --    0.98952   0.99122   0.99828   1.00138   1.00302
 Alpha virt. eigenvalues --    1.00561   1.01147   1.01422   1.01565   1.01655
 Alpha virt. eigenvalues --    1.01821   1.02125   1.02310   1.02799   1.02837
 Alpha virt. eigenvalues --    1.03221   1.03484   1.03967   1.04283   1.04557
 Alpha virt. eigenvalues --    1.05034   1.05357   1.05681   1.05817   1.06029
 Alpha virt. eigenvalues --    1.06360   1.06625   1.06853   1.07337   1.07458
 Alpha virt. eigenvalues --    1.08135   1.08842   1.09142   1.09333   1.09456
 Alpha virt. eigenvalues --    1.10070   1.10561   1.10798   1.11144   1.11742
 Alpha virt. eigenvalues --    1.11795   1.12329   1.12913   1.13157   1.13545
 Alpha virt. eigenvalues --    1.13920   1.14239   1.14534   1.14703   1.14968
 Alpha virt. eigenvalues --    1.15597   1.16087   1.16208   1.16421   1.16999
 Alpha virt. eigenvalues --    1.17442   1.17536   1.17808   1.17867   1.18060
 Alpha virt. eigenvalues --    1.18648   1.18861   1.19598   1.19896   1.20275
 Alpha virt. eigenvalues --    1.20373   1.21096   1.21707   1.22418   1.22682
 Alpha virt. eigenvalues --    1.22772   1.23189   1.23529   1.23819   1.24481
 Alpha virt. eigenvalues --    1.24743   1.24799   1.25495   1.25546   1.25783
 Alpha virt. eigenvalues --    1.26170   1.26594   1.26626   1.26873   1.27336
 Alpha virt. eigenvalues --    1.27825   1.28115   1.28386   1.28432   1.29056
 Alpha virt. eigenvalues --    1.29383   1.29688   1.29999   1.30556   1.30850
 Alpha virt. eigenvalues --    1.30963   1.31557   1.31905   1.32261   1.32738
 Alpha virt. eigenvalues --    1.32781   1.33544   1.34142   1.34387   1.34704
 Alpha virt. eigenvalues --    1.34800   1.35075   1.35192   1.35749   1.36039
 Alpha virt. eigenvalues --    1.36581   1.36619   1.36723   1.36946   1.37053
 Alpha virt. eigenvalues --    1.37165   1.37960   1.38303   1.38630   1.38969
 Alpha virt. eigenvalues --    1.39112   1.39489   1.39771   1.40942   1.41145
 Alpha virt. eigenvalues --    1.42201   1.42489   1.42731   1.42782   1.42959
 Alpha virt. eigenvalues --    1.43387   1.43766   1.44415   1.44564   1.45234
 Alpha virt. eigenvalues --    1.45491   1.45499   1.46236   1.46354   1.46423
 Alpha virt. eigenvalues --    1.47282   1.47663   1.47915   1.48125   1.48964
 Alpha virt. eigenvalues --    1.49030   1.49109   1.49345   1.49769   1.50431
 Alpha virt. eigenvalues --    1.51073   1.51585   1.51652   1.51869   1.52080
 Alpha virt. eigenvalues --    1.52327   1.52643   1.52803   1.52844   1.53320
 Alpha virt. eigenvalues --    1.53608   1.54050   1.54262   1.54709   1.55112
 Alpha virt. eigenvalues --    1.55467   1.55513   1.55733   1.55762   1.55937
 Alpha virt. eigenvalues --    1.56577   1.57023   1.57409   1.57572   1.57865
 Alpha virt. eigenvalues --    1.58312   1.58578   1.58724   1.58767   1.59135
 Alpha virt. eigenvalues --    1.59359   1.60396   1.60479   1.60669   1.61209
 Alpha virt. eigenvalues --    1.61788   1.62194   1.62901   1.63229   1.63869
 Alpha virt. eigenvalues --    1.64560   1.64915   1.65163   1.65457   1.66010
 Alpha virt. eigenvalues --    1.66181   1.66676   1.67742   1.68036   1.68594
 Alpha virt. eigenvalues --    1.68614   1.68717   1.69438   1.69885   1.70095
 Alpha virt. eigenvalues --    1.70220   1.70664   1.71010   1.71104   1.71460
 Alpha virt. eigenvalues --    1.71478   1.72036   1.72475   1.73024   1.73199
 Alpha virt. eigenvalues --    1.73672   1.73881   1.74634   1.74916   1.75270
 Alpha virt. eigenvalues --    1.75568   1.76349   1.76720   1.77568   1.77974
 Alpha virt. eigenvalues --    1.78126   1.79057   1.79765   1.80347   1.80488
 Alpha virt. eigenvalues --    1.80790   1.81035   1.81807   1.82016   1.82553
 Alpha virt. eigenvalues --    1.83144   1.83567   1.83881   1.84440   1.85406
 Alpha virt. eigenvalues --    1.86272   1.87166   1.87301   1.87492   1.87873
 Alpha virt. eigenvalues --    1.88552   1.88598   1.89121   1.89715   1.90185
 Alpha virt. eigenvalues --    1.90378   1.91516   1.91832   1.92614   1.92727
 Alpha virt. eigenvalues --    1.92919   1.93331   1.93471   1.93662   1.94046
 Alpha virt. eigenvalues --    1.94448   1.94710   1.95030   1.96008   1.96049
 Alpha virt. eigenvalues --    1.96532   1.97394   1.97430   1.98138   1.98510
 Alpha virt. eigenvalues --    1.98532   1.99606   1.99784   2.00339   2.00518
 Alpha virt. eigenvalues --    2.00966   2.01145   2.01432   2.01623   2.02292
 Alpha virt. eigenvalues --    2.02712   2.04111   2.04371   2.04809   2.05136
 Alpha virt. eigenvalues --    2.06162   2.06328   2.06416   2.06766   2.07053
 Alpha virt. eigenvalues --    2.07435   2.07714   2.09427   2.10082   2.10225
 Alpha virt. eigenvalues --    2.10572   2.11021   2.11792   2.11852   2.12923
 Alpha virt. eigenvalues --    2.12956   2.13360   2.13580   2.14108   2.14200
 Alpha virt. eigenvalues --    2.15152   2.16381   2.16842   2.17010   2.17863
 Alpha virt. eigenvalues --    2.18059   2.18789   2.19668   2.19983   2.20474
 Alpha virt. eigenvalues --    2.20948   2.21089   2.22230   2.22529   2.23244
 Alpha virt. eigenvalues --    2.23857   2.25252   2.26113   2.26517   2.27013
 Alpha virt. eigenvalues --    2.27303   2.27384   2.27985   2.28253   2.28837
 Alpha virt. eigenvalues --    2.29121   2.29558   2.30182   2.32003   2.32255
 Alpha virt. eigenvalues --    2.33211   2.33326   2.33554   2.33846   2.34322
 Alpha virt. eigenvalues --    2.35140   2.36051   2.36426   2.36809   2.37191
 Alpha virt. eigenvalues --    2.37774   2.37887   2.38535   2.38791   2.39193
 Alpha virt. eigenvalues --    2.39471   2.39709   2.40435   2.40691   2.41128
 Alpha virt. eigenvalues --    2.41557   2.41706   2.42454   2.43160   2.43760
 Alpha virt. eigenvalues --    2.45193   2.45561   2.46658   2.47206   2.47752
 Alpha virt. eigenvalues --    2.47999   2.48350   2.48464   2.49628   2.50727
 Alpha virt. eigenvalues --    2.51379   2.51651   2.53331   2.54687   2.55350
 Alpha virt. eigenvalues --    2.56052   2.56978   2.58230   2.58347   2.59134
 Alpha virt. eigenvalues --    2.59457   2.59949   2.60334   2.60837   2.61507
 Alpha virt. eigenvalues --    2.62095   2.62604   2.62651   2.63035   2.64375
 Alpha virt. eigenvalues --    2.64510   2.65070   2.65731   2.66161   2.66801
 Alpha virt. eigenvalues --    2.67091   2.67714   2.68450   2.68709   2.69022
 Alpha virt. eigenvalues --    2.69102   2.69334   2.69779   2.70601   2.70694
 Alpha virt. eigenvalues --    2.71221   2.71889   2.72652   2.73044   2.73373
 Alpha virt. eigenvalues --    2.74329   2.74594   2.75046   2.75311   2.75889
 Alpha virt. eigenvalues --    2.76108   2.76232   2.76565   2.77029   2.77305
 Alpha virt. eigenvalues --    2.77694   2.77805   2.77880   2.78256   2.78522
 Alpha virt. eigenvalues --    2.78888   2.79165   2.79375   2.79864   2.80177
 Alpha virt. eigenvalues --    2.80480   2.80801   2.81071   2.81179   2.81646
 Alpha virt. eigenvalues --    2.81975   2.82754   2.82769   2.83391   2.83597
 Alpha virt. eigenvalues --    2.83745   2.83932   2.84829   2.84916   2.85639
 Alpha virt. eigenvalues --    2.86008   2.86484   2.86804   2.87271   2.87425
 Alpha virt. eigenvalues --    2.87896   2.88043   2.88337   2.88573   2.88737
 Alpha virt. eigenvalues --    2.88915   2.89230   2.89431   2.89932   2.90236
 Alpha virt. eigenvalues --    2.90914   2.91408   2.91584   2.91808   2.92140
 Alpha virt. eigenvalues --    2.92827   2.93118   2.93204   2.93373   2.93804
 Alpha virt. eigenvalues --    2.94013   2.94361   2.94630   2.94692   2.95001
 Alpha virt. eigenvalues --    2.95211   2.95451   2.95617   2.95835   2.96511
 Alpha virt. eigenvalues --    2.96700   2.96863   2.97776   2.97906   2.98252
 Alpha virt. eigenvalues --    2.98528   2.99253   2.99369   2.99596   3.00257
 Alpha virt. eigenvalues --    3.00883   3.01297   3.01421   3.01731   3.02048
 Alpha virt. eigenvalues --    3.02380   3.02531   3.02644   3.02987   3.03311
 Alpha virt. eigenvalues --    3.03696   3.04139   3.04568   3.04800   3.05279
 Alpha virt. eigenvalues --    3.05513   3.05630   3.05723   3.06324   3.06537
[...]
 
              Baa    -0.0992   -13.308    -4.749    -4.439  0.4459  0.8947  0.0275
     4 C(13)  Bbb    -0.0971   -13.031    -4.650    -4.347  0.8946 -0.4464  0.0193
              Bcc     0.1963    26.339     9.398     8.786 -0.0295 -0.0160  0.9994
 
              Baa    -0.0714    -9.574    -3.416    -3.194  0.0055  0.0881  0.9961
     5 C(13)  Bbb     0.0300     4.030     1.438     1.344  0.6175  0.7832 -0.0727
              Bcc     0.0413     5.545     1.979     1.850  0.7866 -0.6155  0.0501
 
              Baa    -0.0823   -11.048    -3.942    -3.685 -0.2110  0.9722 -0.1010
     6 C(13)  Bbb    -0.0783   -10.501    -3.747    -3.503  0.9774  0.2089 -0.0311
              Bcc     0.1606    21.549     7.689     7.188  0.0091  0.1053  0.9944
 
              Baa    -0.0268    -3.601    -1.285    -1.201  0.0173  0.0912  0.9957
     7 C(13)  Bbb     0.0110     1.477     0.527     0.493  0.1718  0.9808 -0.0928
              Bcc     0.0158     2.124     0.758     0.708  0.9850 -0.1727 -0.0013
 
              Baa    -0.0188    -2.527    -0.902    -0.843  0.4776  0.8745 -0.0842
     8 C(13)  Bbb    -0.0174    -2.337    -0.834    -0.780  0.8782 -0.4780  0.0172
              Bcc     0.0362     4.864     1.736     1.622  0.0252  0.0822  0.9963
 
              Baa    -0.0159    -2.129    -0.760    -0.710  0.0230  0.0883  0.9958
     9 C(13)  Bbb     0.0072     0.961     0.343     0.320  0.0676  0.9937 -0.0896
              Bcc     0.0087     1.168     0.417     0.390  0.9974 -0.0694 -0.0169
 
              Baa    -0.0223    -2.990    -1.067    -0.997  0.4220  0.9019 -0.0917
    10 C(13)  Bbb    -0.0209    -2.809    -1.002    -0.937  0.9063 -0.4224  0.0162
              Bcc     0.0432     5.799     2.069     1.934  0.0241  0.0900  0.9957
 
              Baa    -0.0234     1.693     0.604     0.565  0.8545 -0.5187  0.0280
    11 O(17)  Bbb    -0.0188     1.362     0.486     0.454  0.5190  0.8500 -0.0903
              Bcc     0.0422    -3.055    -1.090    -1.019  0.0231  0.0917  0.9955
 
              Baa    -0.0141    -1.897    -0.677    -0.633  0.0206  0.0869  0.9960
    12 C(13)  Bbb     0.0061     0.825     0.294     0.275  0.6575  0.7493 -0.0789
              Bcc     0.0080     1.072     0.383     0.358  0.7532 -0.6565  0.0417
 
              Baa    -0.0192    -2.579    -0.920    -0.860  0.4489  0.8898 -0.0820
    13 C(13)  Bbb    -0.0185    -2.488    -0.888    -0.830  0.8932 -0.4494  0.0126
              Bcc     0.0378     5.067     1.808     1.690  0.0256  0.0789  0.9966
 
              Baa    -0.0516    -1.992    -0.711    -0.664 -0.0624  0.9976  0.0290
    14 N(14)  Bbb    -0.0412    -1.588    -0.567    -0.530  0.9970  0.0609  0.0479
              Bcc     0.0928     3.580     1.277     1.194 -0.0460 -0.0319  0.9984
 
              Baa    -0.1019   -13.669    -4.878    -4.560 -0.0319 -0.0125  0.9994
    15 C(13)  Bbb     0.0439     5.885     2.100     1.963  0.8273  0.5608  0.0334
              Bcc     0.0580     7.784     2.778     2.596 -0.5609  0.8279 -0.0075
 
              Baa    -0.2345   -31.468   -11.228   -10.496 -0.0068  1.0000 -0.0031
    16 C(13)  Bbb    -0.2311   -31.018   -11.068   -10.346  0.9996  0.0069  0.0257
              Bcc     0.4656    62.486    22.296    20.843 -0.0257  0.0029  0.9997
 
              Baa    -0.1015   -13.619    -4.860    -4.543 -0.0474  0.0297  0.9984
    17 C(13)  Bbb     0.0437     5.864     2.093     1.956  0.8320 -0.5519  0.0559
              Bcc     0.0578     7.754     2.767     2.587  0.5527  0.8334  0.0014
 
              Baa    -0.0869   -11.655    -4.159    -3.888  0.9810  0.1880  0.0488
    18 C(13)  Bbb    -0.0852   -11.430    -4.079    -3.813 -0.1847  0.9806 -0.0651
              Bcc     0.1720    23.085     8.237     7.700 -0.0601  0.0548  0.9967
 
              Baa    -0.0017    -0.231    -0.082    -0.077  0.7547  0.6536 -0.0565
    19 C(13)  Bbb    -0.0001    -0.010    -0.004    -0.003 -0.0070  0.0941  0.9955
              Bcc     0.0018     0.241     0.086     0.080 -0.6560  0.7510 -0.0756
 
              Baa    -0.0625    -8.388    -2.993    -2.798 -0.0706  0.0593  0.9957
    20 C(13)  Bbb     0.0303     4.063     1.450     1.355 -0.0210  0.9979 -0.0609
              Bcc     0.0322     4.325     1.543     1.443  0.9973  0.0252  0.0692
 
              Baa    -0.0987   -13.247    -4.727    -4.419 -0.4538  0.8897 -0.0508
    21 C(13)  Bbb    -0.0967   -12.970    -4.628    -4.326  0.8901  0.4552  0.0224
              Bcc     0.1954    26.217     9.355     8.745 -0.0431  0.0351  0.9985
 
              Baa    -0.0710    -9.533    -3.402    -3.180 -0.0066 -0.0709  0.9975
    22 C(13)  Bbb     0.0299     4.012     1.431     1.338 -0.6276  0.7768  0.0511
              Bcc     0.0411     5.521     1.970     1.842  0.7785  0.6257  0.0496
 
              Baa    -0.0820   -11.000    -3.925    -3.669  0.1965  0.9766  0.0879
    23 C(13)  Bbb    -0.0779   -10.454    -3.730    -3.487  0.9805 -0.1958 -0.0162
              Bcc     0.1599    21.454     7.655     7.156 -0.0014 -0.0894  0.9960
 
              Baa    -0.0267    -3.585    -1.279    -1.196  0.0089 -0.0815  0.9966
    24 C(13)  Bbb     0.0110     1.470     0.525     0.490 -0.1848  0.9794  0.0818
              Bcc     0.0158     2.115     0.755     0.705  0.9827  0.1849  0.0063
 
              Baa    -0.0187    -2.515    -0.898    -0.839 -0.4890  0.8693  0.0724
    25 C(13)  Bbb    -0.0173    -2.326    -0.830    -0.776  0.8721  0.4887  0.0232
              Bcc     0.0361     4.842     1.728     1.615  0.0152 -0.0745  0.9971
 
              Baa    -0.0158    -2.119    -0.756    -0.707  0.0148 -0.0787  0.9968
    26 C(13)  Bbb     0.0071     0.956     0.341     0.319 -0.0808  0.9936  0.0796
              Bcc     0.0087     1.162     0.415     0.388  0.9966  0.0817 -0.0084
 
              Baa    -0.0222    -2.975    -1.062    -0.992 -0.4341  0.8973  0.0795
    27 C(13)  Bbb    -0.0208    -2.795    -0.997    -0.932  0.9007  0.4339  0.0204
              Bcc     0.0430     5.771     2.059     1.925  0.0162 -0.0804  0.9966
 
              Baa    -0.0233     1.685     0.601     0.562  0.8485  0.5284  0.0307
    28 O(17)  Bbb    -0.0187     1.356     0.484     0.452 -0.5290  0.8449  0.0794
              Bcc     0.0420    -3.041    -1.085    -1.014  0.0160 -0.0836  0.9964
 
              Baa    -0.0141    -1.888    -0.674    -0.630  0.0121 -0.0776  0.9969
    29 C(13)  Bbb     0.0061     0.821     0.293     0.274 -0.6668  0.7423  0.0659
              Bcc     0.0080     1.067     0.381     0.356  0.7452  0.6655  0.0428
 
              Baa    -0.0191    -2.566    -0.916    -0.856 -0.4614  0.8843  0.0719
    30 C(13)  Bbb    -0.0184    -2.475    -0.883    -0.826  0.8870  0.4616  0.0151
              Bcc     0.0376     5.041     1.799     1.681  0.0198 -0.0707  0.9973
 
              Baa    -0.0517    -1.994    -0.711    -0.665  0.0539  0.9978 -0.0380
    31 N(14)  Bbb    -0.0413    -1.592    -0.568    -0.531  0.9955 -0.0507  0.0802
              Bcc     0.0930     3.586     1.279     1.196 -0.0781  0.0422  0.9961
 
              Baa    -0.0023    -0.400    -0.143    -0.134  0.1765  0.0478  0.9831
    32 B(11)  Bbb     0.0010     0.173     0.062     0.058  0.9052 -0.4003 -0.1430
              Bcc     0.0013     0.227     0.081     0.076  0.3867  0.9151 -0.1139
 
              Baa    -0.0083    -4.144    -1.479    -1.382  0.1476  0.0020  0.9891
    33 F(19)  Bbb    -0.0054    -2.720    -0.970    -0.907 -0.0008  1.0000 -0.0019
              Bcc     0.0137     6.864     2.449     2.290  0.9891  0.0005 -0.1476
 
              Baa    -0.0158    -7.950    -2.837    -2.652 -0.0239  0.9991  0.0350
    34 F(19)  Bbb    -0.0133    -6.666    -2.379    -2.224 -0.5262 -0.0423  0.8493
              Bcc     0.0291    14.616     5.215     4.875  0.8500  0.0018  0.5267
 
              Baa    -0.0061    -0.819    -0.292    -0.273  0.0023  0.9821 -0.1883
    35 C(13)  Bbb     0.0025     0.340     0.121     0.113  0.9994  0.0041  0.0337
              Bcc     0.0036     0.479     0.171     0.160 -0.0339  0.1883  0.9815
 
              Baa    -0.0090    -1.205    -0.430    -0.402 -0.5845 -0.0806  0.8074
    36 C(13)  Bbb    -0.0067    -0.900    -0.321    -0.300 -0.2459  0.9659 -0.0816
              Bcc     0.0157     2.105     0.751     0.702  0.7732  0.2462  0.5844
 
              Baa    -0.0036    -0.476    -0.170    -0.159  0.0270  0.9934 -0.1118
    37 C(13)  Bbb    -0.0014    -0.193    -0.069    -0.065 -0.2159  0.1150  0.9696
              Bcc     0.0050     0.670     0.239     0.223  0.9761 -0.0020  0.2175
 
              Baa    -0.0016    -0.219    -0.078    -0.073 -0.0226  0.1463  0.9890
    38 C(13)  Bbb     0.0007     0.095     0.034     0.032 -0.0010  0.9892 -0.1464
              Bcc     0.0009     0.124     0.044     0.041  0.9997  0.0043  0.0223
 
              Baa    -0.0035    -0.474    -0.169    -0.158 -0.0304  0.9932 -0.1128
    39 C(13)  Bbb    -0.0015    -0.198    -0.071    -0.066  0.1607  0.1162  0.9801
              Bcc     0.0050     0.672     0.240     0.224  0.9865  0.0117 -0.1631
 
              Baa    -0.0090    -1.206    -0.430    -0.402  0.5494 -0.0726  0.8324
    40 C(13)  Bbb    -0.0067    -0.904    -0.322    -0.301  0.2357  0.9692 -0.0710
              Bcc     0.0157     2.109     0.753     0.704  0.8016 -0.2353 -0.5496
 
              Baa    -0.0008    -0.031    -0.011    -0.010 -0.0368  0.9568 -0.2884
    41 N(14)  Bbb    -0.0002    -0.006    -0.002    -0.002 -0.0469  0.2866  0.9569
              Bcc     0.0010     0.037     0.013     0.012  0.9982  0.0487  0.0343
 
              Baa    -0.0005    -0.018    -0.007    -0.006  0.1801  0.0204  0.9834
    42 N(14)  Bbb    -0.0001    -0.004    -0.002    -0.001 -0.2066  0.9783  0.0176
              Bcc     0.0006     0.023     0.008     0.008  0.9617  0.2064 -0.1804
 
              Baa    -0.0008    -0.030    -0.011    -0.010  0.1308  0.1302  0.9828
    43 N(14)  Bbb    -0.0001    -0.005    -0.002    -0.002  0.9907  0.0217 -0.1347
              Bcc     0.0009     0.035     0.012     0.012 -0.0389  0.9913 -0.1261
 
              Baa    -0.0025    -1.355    -0.483    -0.452  0.3190 -0.0014  0.9478
    44 H(1)   Bbb    -0.0008    -0.406    -0.145    -0.135 -0.4514  0.8791  0.1532
              Bcc     0.0033     1.760     0.628     0.587  0.8334  0.4767 -0.2798
 
              Baa    -0.0024    -1.295    -0.462    -0.432 -0.4392  0.0135  0.8983
    45 H(1)   Bbb    -0.0009    -0.485    -0.173    -0.162 -0.4239  0.8785 -0.2204
              Bcc     0.0033     1.780     0.635     0.594  0.7921  0.4776  0.3801
 
              Baa    -0.0017    -0.914    -0.326    -0.305  0.7013 -0.4854  0.5221
    46 H(1)   Bbb    -0.0016    -0.845    -0.301    -0.282 -0.4355  0.2881  0.8528
              Bcc     0.0033     1.759     0.628     0.587  0.5644  0.8255  0.0093
 
              Baa    -0.0028    -1.488    -0.531    -0.496 -0.0546  0.0566  0.9969
    47 H(1)   Bbb    -0.0016    -0.863    -0.308    -0.288 -0.1416  0.9879 -0.0638
              Bcc     0.0044     2.351     0.839     0.784  0.9884  0.1447  0.0459
 
              Baa    -0.0033    -1.738    -0.620    -0.580  0.5123  0.8341  0.2043
    48 H(1)   Bbb    -0.0030    -1.575    -0.562    -0.525 -0.1385 -0.1546  0.9782
              Bcc     0.0062     3.313     1.182     1.105  0.8476 -0.5295  0.0363
 
              Baa    -0.0085    -4.553    -1.625    -1.519  0.7577 -0.6508  0.0478
    49 H(1)   Bbb    -0.0020    -1.083    -0.386    -0.361 -0.0037  0.0690  0.9976
              Bcc     0.0106     5.636     2.011     1.880  0.6525  0.7561 -0.0499
 
              Baa    -0.0012    -0.637    -0.227    -0.213  0.0486  0.0763  0.9959
    50 H(1)   Bbb    -0.0010    -0.516    -0.184    -0.172  0.8164 -0.5775  0.0044
              Bcc     0.0022     1.153     0.411     0.385  0.5755  0.8128 -0.0903
 
              Baa    -0.0008    -0.406    -0.145    -0.135  0.0228  0.0803  0.9965
    51 H(1)   Bbb    -0.0003    -0.146    -0.052    -0.049 -0.0588  0.9951 -0.0789
              Bcc     0.0010     0.552     0.197     0.184  0.9980  0.0568 -0.0274
 
              Baa    -0.0010    -0.508    -0.181    -0.170 -0.5890  0.7973 -0.1316
    52 H(1)   Bbb    -0.0008    -0.451    -0.161    -0.151 -0.0177  0.1500  0.9885
              Bcc     0.0018     0.959     0.342     0.320  0.8079  0.5846 -0.0742
 
              Baa    -0.0008    -0.433    -0.155    -0.144  0.0202  0.0797  0.9966
    53 H(1)   Bbb    -0.0003    -0.155    -0.055    -0.052  0.6961  0.7144 -0.0713
              Bcc     0.0011     0.588     0.210     0.196  0.7176 -0.6952  0.0410
 
              Baa    -0.0016    -0.863    -0.308    -0.288  0.9917  0.1198  0.0459
    54 H(1)   Bbb    -0.0011    -0.598    -0.213    -0.200 -0.0519  0.0469  0.9976
              Bcc     0.0027     1.461     0.521     0.487 -0.1173  0.9917 -0.0527
 
              Baa    -0.0024    -1.302    -0.465    -0.434  0.3334  0.0424  0.9418
    55 H(1)   Bbb    -0.0009    -0.462    -0.165    -0.154  0.4361  0.8788 -0.1940
              Bcc     0.0033     1.764     0.629     0.588  0.8359 -0.4754 -0.2745
 
              Baa    -0.0017    -0.903    -0.322    -0.301  0.7883  0.5208 -0.3277
    56 H(1)   Bbb    -0.0016    -0.848    -0.303    -0.283  0.2278  0.2476  0.9417
              Bcc     0.0033     1.751     0.625     0.584 -0.5715  0.8170 -0.0766
 
              Baa    -0.0025    -1.346    -0.480    -0.449 -0.4290  0.0127  0.9032
    57 H(1)   Bbb    -0.0008    -0.423    -0.151    -0.141  0.4206  0.8877  0.1873
              Bcc     0.0033     1.769     0.631     0.590  0.7994 -0.4602  0.3862
 
              Baa    -0.0028    -1.485    -0.530    -0.495 -0.0738 -0.0360  0.9966
    58 H(1)   Bbb    -0.0016    -0.851    -0.304    -0.284  0.1300  0.9905  0.0455
              Bcc     0.0044     2.336     0.834     0.779  0.9888 -0.1329  0.0685
 
              Baa    -0.0033    -1.735    -0.619    -0.579 -0.5147  0.8183 -0.2559
    59 H(1)   Bbb    -0.0029    -1.567    -0.559    -0.523 -0.1700  0.1951  0.9659
              Bcc     0.0062     3.302     1.178     1.101  0.8404  0.5406  0.0387
 
              Baa    -0.0085    -4.531    -1.617    -1.511  0.7493  0.6608  0.0436
    60 H(1)   Bbb    -0.0020    -1.081    -0.386    -0.361 -0.0147 -0.0493  0.9987
              Bcc     0.0105     5.612     2.003     1.872 -0.6621  0.7489  0.0272
 
              Baa    -0.0012    -0.635    -0.227    -0.212  0.0495 -0.0556  0.9972
    61 H(1)   Bbb    -0.0010    -0.512    -0.183    -0.171  0.8090  0.5878 -0.0074
              Bcc     0.0021     1.147     0.409     0.383 -0.5857  0.8071  0.0741
 
              Baa    -0.0008    -0.404    -0.144    -0.135  0.0148 -0.0710  0.9974
    62 H(1)   Bbb    -0.0003    -0.145    -0.052    -0.048  0.0457  0.9965  0.0703
              Bcc     0.0010     0.549     0.196     0.183  0.9988 -0.0445 -0.0180
 
              Baa    -0.0009    -0.505    -0.180    -0.168  0.5788  0.8039  0.1369
    63 H(1)   Bbb    -0.0008    -0.450    -0.160    -0.150 -0.0280 -0.1481  0.9886
              Bcc     0.0018     0.954     0.341     0.318  0.8150 -0.5760 -0.0632
 
              Baa    -0.0008    -0.432    -0.154    -0.144  0.0121 -0.0714  0.9974
    64 H(1)   Bbb    -0.0003    -0.155    -0.055    -0.052 -0.7049  0.7068  0.0592
              Bcc     0.0011     0.587     0.209     0.196  0.7092  0.7037  0.0418
 
              Baa    -0.0016    -0.858    -0.306    -0.286  0.9926 -0.1078  0.0556
    65 H(1)   Bbb    -0.0011    -0.597    -0.213    -0.199 -0.0598 -0.0356  0.9976
              Bcc     0.0027     1.455     0.519     0.485  0.1055  0.9935  0.0418
 
              Baa    -0.0031    -1.674    -0.597    -0.558  0.1464  0.9652 -0.2165
    66 H(1)   Bbb    -0.0020    -1.067    -0.381    -0.356  0.8167 -0.2415 -0.5241
              Bcc     0.0051     2.742     0.978     0.914  0.5582  0.1001  0.8237
 
              Baa    -0.0007    -0.391    -0.139    -0.130  0.0355  0.9876 -0.1528
    67 H(1)   Bbb    -0.0007    -0.366    -0.131    -0.122 -0.4540  0.1521  0.8779
              Bcc     0.0014     0.757     0.270     0.252  0.8903  0.0382  0.4537
 
              Baa    -0.0007    -0.399    -0.142    -0.133 -0.0251  0.9916 -0.1267
    68 H(1)   Bbb    -0.0007    -0.367    -0.131    -0.123  0.4114  0.1258  0.9028
              Bcc     0.0014     0.766     0.273     0.256  0.9111 -0.0295 -0.4111
 
              Baa    -0.0032    -1.718    -0.613    -0.573 -0.1240  0.9698 -0.2101
    69 H(1)   Bbb    -0.0020    -1.061    -0.379    -0.354  0.7881  0.2249  0.5730
              Bcc     0.0052     2.779     0.992     0.927 -0.6029  0.0945  0.7922
 

 ---------------------------------------------------------------------------------

 No NMR shielding tensors so no spin-rotation constants.
 Leave Link  601 at Thu Nov  6 12:54:47 2025, MaxMem= 30870077440 cpu:             165.6 elap:               2.9
 (Enter /public/software/gauss/g16/l9999.exe)
 1\1\GINC-CU015\SP\UM062X\def2TZVPP\C33H26B1F2N5O2(1-,2)\BAIDING\06-Nov
 -2025\0\\#p M062X/DEF2TZVPP scrf=(solvent=water) em=GD3\\Energy calcul
 ation for M100033511_reduced\\-1,2\C,0,3.695199,-3.152897,0.231798\C,0
 ,2.296509,-2.607306,0.173098\C,0,1.14838,-3.398519,0.146268\C,0,0.0139
 34,-2.566134,0.100215\C,0,-1.37667,-2.92193,0.072289\C,0,-1.859065,-4.
 191734,-0.041224\C,0,-3.260577,-4.593976,-0.04693\C,0,-3.583432,-5.964
 322,-0.163199\C,0,-4.899395,-6.414368,-0.173277\C,0,-5.94691,-5.493708
 ,-0.067229\O,0,-7.236076,-5.978066,-0.079851\C,0,-5.660623,-4.12727,0.
 046182\C,0,-4.341109,-3.689292,0.056913\N,0,0.459372,-1.250156,0.10613
 7\C,0,1.852573,-1.245511,0.146521\C,0,2.570866,-0.021185,0.160333\C,0,
 1.866729,1.211566,0.153919\C,0,2.325445,2.566762,0.226692\C,0,3.728434
 ,3.092669,0.339371\C,0,1.187117,3.371905,0.199272\C,0,0.044059,2.55419
 2,0.115316\C,0,-1.341726,2.927639,0.076536\C,0,-1.807125,4.20498,-0.02
 1924\C,0,-3.203663,4.624188,-0.036565\C,0,-3.50924,5.99928,-0.142804\C
 ,0,-4.819691,6.46503,-0.160901\C,0,-5.878908,5.555915,-0.07315\O,0,-7.
 1623,6.055119,-0.092827\C,0,-5.609782,4.18524,0.030259\C,0,-4.295724,3
 .731528,0.049136\N,0,0.474603,1.233631,0.096216\B,0,-0.402085,-0.00383
 ,-0.157327\F,0,-1.526319,0.006465,0.709849\F,0,-0.894861,-0.006682,-1.
 485511\C,0,4.064266,-0.02921,0.199209\C,0,4.75765,-0.141292,1.414862\C
 ,0,6.149676,-0.149363,1.456069\C,0,6.879666,-0.045287,0.267517\C,0,6.2
 1154,0.068154,-0.957636\C,0,4.818026,0.075798,-0.980426\N,0,8.297815,-
 0.06314,0.400825\N,0,8.988377,0.019736,-0.620454\N,0,9.742182,0.087979
 ,-1.474641\H,0,4.324591,-2.783978,-0.584804\H,0,4.209724,-2.896546,1.1
 64587\H,0,3.66579,-4.244649,0.161161\H,0,1.130566,-4.480718,0.176168\H
 ,0,-2.075292,-2.097113,0.165701\H,0,-1.149888,-5.012794,-0.137263\H,0,
 -2.777265,-6.688748,-0.246172\H,0,-5.126757,-7.472255,-0.261952\H,0,-7
 .85082,-5.233212,0.005101\H,0,-6.477027,-3.413754,0.126014\H,0,-4.1505
 89,-2.624365,0.146512\H,0,4.344148,2.842137,-0.531421\H,0,3.705296,4.1
 83539,0.424207\H,0,4.254192,2.702711,1.217437\H,0,1.180685,4.452934,0.
 259796\H,0,-2.051746,2.110406,0.147237\H,0,-1.08705,5.018634,-0.097815
 \H,0,-2.693801,6.714782,-0.211428\H,0,-5.033708,7.526337,-0.241603\H,0
 ,-7.785866,5.316499,-0.017858\H,0,-6.435166,3.480678,0.096201\H,0,-4.1
 18662,2.6637,0.131397\H,0,4.19899,-0.2216,2.342339\H,0,6.67761,-0.2350
 94,2.400111\H,0,6.768863,0.148479,-1.886152\H,0,4.306229,0.163054,-1.9
 34122\\Version=ES64L-G16RevA.03\State=2-A\HF=-1922.1743298\S2=0.797635
 \S2-1=0.\S2A=0.751756\RMSD=4.591e-09\Dipole=0.0968029,0.0093815,0.4337
 094\Quadrupole=10.7304494,-14.8674494,4.137,-0.2148476,-2.2183181,-0.3
 067318\PG=C01 [X(C33H26B1F2N5O2)]\\@


 THE ONLY TROUBLE WITH A SURE THING IS THE UNCERTAINTY.
     -- FROM A TEABAG (BELONGING TO W.H.?)
 Job cpu time:       1 days  1 hours 23 minutes 58.6 seconds.
 Elapsed time:       0 days  0 hours 24 minutes  6.1 seconds.
 File lengths (MBytes):  RWF=   3103 Int=      0 D2E=      0 Chk=    201 Scr=      1
 Normal termination of Gaussian 16 at Thu Nov  6 12:54:48 2025.
