 Entering Gaussian System, Link 0=g16
 Input=M100035179_sp.gjf
 Output=M100035179_sp.log
 Initial command:
 /public/software/gauss/g16/l1.exe "/public/home/baiding/1101_v2_sp/tmp_M100035179_sp_1568608/Gau-16818.inp" -scrdir="/public/home/baiding/1101_v2_sp/tmp_M100035179_sp_1568608/"
 Entering Link 1 = /public/software/gauss/g16/l1.exe PID=     16819.
  
 Copyright (c) 1988,1990,1992,1993,1995,1998,2003,2009,2016,
            Gaussian, Inc.  All Rights Reserved.
  
 This is part of the Gaussian(R) 16 program.  It is based on
 the Gaussian(R) 09 system (copyright 2009, Gaussian, Inc.),
 the Gaussian(R) 03 system (copyright 2003, Gaussian, Inc.),
 the Gaussian(R) 98 system (copyright 1998, Gaussian, Inc.),
 the Gaussian(R) 94 system (copyright 1995, Gaussian, Inc.),
 the Gaussian 92(TM) system (copyright 1992, Gaussian, Inc.),
 the Gaussian 90(TM) system (copyright 1990, Gaussian, Inc.),
 the Gaussian 88(TM) system (copyright 1988, Gaussian, Inc.),
 the Gaussian 86(TM) system (copyright 1986, Carnegie Mellon
 University), and the Gaussian 82(TM) system (copyright 1983,
 Carnegie Mellon University). Gaussian is a federally registered
 trademark of Gaussian, Inc.
  
 This software contains proprietary and confidential information,
 including trade secrets, belonging to Gaussian, Inc.
  
 This software is provided under written license and may be
 used, copied, transmitted, or stored only in accord with that
 written license.
  
 The following legend is applicable only to US Government
 contracts under FAR:
  
                    RESTRICTED RIGHTS LEGEND
  
 Use, reproduction and disclosure by the US Government is
 subject to restrictions as set forth in subparagraphs (a)
 and (c) of the Commercial Computer Software - Restricted
 Rights clause in FAR 52.227-19.
  
 Gaussian, Inc.
 340 Quinnipiac St., Bldg. 40, Wallingford CT 06492
  
  
 ---------------------------------------------------------------
 Warning -- This program may not be used in any manner that
 competes with the business of Gaussian, Inc. or will provide
 assistance to any competitor of Gaussian, Inc.  The licensee
 of this program is prohibited from giving any competitor of
 Gaussian, Inc. access to this program.  By using this program,
 the user acknowledges that Gaussian, Inc. is engaged in the
 business of creating and licensing software in the field of
 computational chemistry and represents and warrants to the
 licensee that it is not a competitor of Gaussian, Inc. and that
 it will not use this program in any manner prohibited above.
 ---------------------------------------------------------------
  

 Cite this work as:
 Gaussian 16, Revision A.03,
 M. J. Frisch, G. W. Trucks, H. B. Schlegel, G. E. Scuseria, 
 M. A. Robb, J. R. Cheeseman, G. Scalmani, V. Barone, 
 G. A. Petersson, H. Nakatsuji, X. Li, M. Caricato, A. V. Marenich, 
 J. Bloino, B. G. Janesko, R. Gomperts, B. Mennucci, H. P. Hratchian, 
 J. V. Ortiz, A. F. Izmaylov, J. L. Sonnenberg, D. Williams-Young, 
 F. Ding, F. Lipparini, F. Egidi, J. Goings, B. Peng, A. Petrone, 
 T. Henderson, D. Ranasinghe, V. G. Zakrzewski, J. Gao, N. Rega, 
 G. Zheng, W. Liang, M. Hada, M. Ehara, K. Toyota, R. Fukuda, 
 J. Hasegawa, M. Ishida, T. Nakajima, Y. Honda, O. Kitao, H. Nakai, 
 T. Vreven, K. Throssell, J. A. Montgomery, Jr., J. E. Peralta, 
 F. Ogliaro, M. J. Bearpark, J. J. Heyd, E. N. Brothers, K. N. Kudin, 
 V. N. Staroverov, T. A. Keith, R. Kobayashi, J. Normand, 
 K. Raghavachari, A. P. Rendell, J. C. Burant, S. S. Iyengar, 
 J. Tomasi, M. Cossi, J. M. Millam, M. Klene, C. Adamo, R. Cammi, 
 J. W. Ochterski, R. L. Martin, K. Morokuma, O. Farkas, 
 J. B. Foresman, and D. J. Fox, Gaussian, Inc., Wallingford CT, 2016.
 
 ******************************************
 Gaussian 16:  ES64L-G16RevA.03 25-Dec-2016
                 7-Nov-2025 
 ******************************************
 %nprocshared=64
 Will use up to   64 processors via shared memory.
 %mem=230GB
 %chk=M100035179_sp.chk
 ----------------------------------------------
 #p M062X/DEF2TZVPP scrf=(solvent=water) em=GD3
 ----------------------------------------------
 1/38=1,172=1/1;
 2/12=2,17=6,18=5,40=1/2;
 3/5=44,7=202,11=2,25=1,30=1,70=2201,72=1,74=-55,124=31/1,2,3;
 4//1;
 5/5=2,38=5,53=1/2;
 6/7=2,8=2,9=2,10=2,28=1/1;
 99/5=1,9=1/99;
 Leave Link    1 at Fri Nov  7 07:38:40 2025, MaxMem= 30870077440 cpu:              21.2 elap:               0.3
 (Enter /public/software/gauss/g16/l101.exe)
 ---------------------------------
 Energy calculation for M100035179
 ---------------------------------
 Symbolic Z-matrix:
 Charge =  0 Multiplicity = 1
 C                     1.12745   6.06586   0.22209 
 C                     1.38404   4.5959    0.08008 
 C                     2.63955   4.01864   0.11896 
 C                     2.51479   2.61517  -0.03426 
 C                     3.66276   1.74329  -0.00785 
 C                     3.72355   0.39317   0.13103 
 C                     4.93469  -0.41676   0.15685 
 C                     4.81097  -1.79133   0.42297 
 C                     5.90472  -2.65431   0.48233 
 C                     5.71258  -4.16067   0.78198 
 C                     4.22527  -4.51601   0.98345 
 C                     6.22383  -5.01817  -0.4009 
 C                     6.44969  -4.5537    2.08506 
 C                     7.18392  -2.08474   0.25536 
 O                     8.24677  -2.95072   0.32307 
 C                     7.36716  -0.70296  -0.03101 
 C                     8.765    -0.0835   -0.29412 
 C                     8.67364   1.4289   -0.58495 
 C                     9.42735  -0.72247  -1.54295 
 C                     9.67524  -0.22736   0.95373 
 C                     6.22389   0.09443  -0.0705 
 N                     1.1873    2.31675  -0.19128 
 C                     0.45978   3.51595  -0.12755 
 C                    -0.93438   3.52818  -0.30083 
 C                    -1.68451   4.81479  -0.17379 
 C                    -2.10067   5.26597   1.08698 
 C                    -2.8083    6.45691   1.21268 
 C                    -3.10203   7.21195   0.06481 
 C                    -3.82879   8.43856   0.18649 
 N                    -4.42101   9.43814   0.2856 
 C                    -2.68711   6.76891  -1.20224 
 C                    -1.98445   5.57378  -1.31406 
 C                    -1.63974   2.35114  -0.60019 
 C                    -3.04068   2.09518  -0.79103 
 C                    -4.19869   3.04614  -0.75014 
 C                    -3.15338   0.738    -1.04821 
 C                    -1.86048   0.15871  -1.02451 
 C                    -1.44111  -1.18787  -1.35864 
 C                    -2.13671  -2.3529   -1.30312 
 C                    -3.42961  -2.68919  -0.70304 
 C                    -3.95779  -2.03118   0.41955 
 C                    -5.16921  -2.39864   1.00386 
 C                    -5.70433  -1.65097   2.2496 
 C                    -5.85685  -2.62151   3.44568 
 C                    -7.06039  -0.97486   1.93235 
 C                    -4.74171  -0.53324   2.70073 
 C                    -5.87244  -3.48215   0.41281 
 O                    -7.0691   -3.81263   1.00085 
 C                    -5.37518  -4.19463  -0.7092 
 C                    -6.13743  -5.38217  -1.35386 
 C                    -5.36634  -5.96885  -2.55437 
 C                    -6.31108  -6.54639  -0.34365 
 C                    -7.51116  -4.91931  -1.90644 
 C                    -4.14447  -3.77873  -1.22364 
 N                    -0.95587   1.14659  -0.76117 
 B                     0.55903   0.93586  -0.51305 
 F                     0.71975   0.04771   0.56749 
 F                     1.1669    0.38756  -1.65318 
 H                     0.61126   6.4802   -0.64901 
 H                     0.51186   6.29425   1.09733 
 H                     2.07969   6.59104   0.333 
 H                     3.57904   4.53599   0.26216 
 H                     4.59315   2.30314  -0.06608 
 H                     2.8037   -0.1621    0.27235 
 H                     3.81401  -2.17982   0.59 
 H                     3.62493  -4.30441   0.09269 
 H                     4.1416   -5.58774   1.1898 
 H                     3.78295  -3.98211   1.83079 
 H                     5.67904  -4.77269  -1.31923 
 H                     7.28856  -4.87433  -0.58803 
 H                     6.0569   -6.08005  -0.18755 
 H                     7.52573  -4.38889   2.01957 
 H                     6.06659  -3.97691   2.93415 
 H                     6.28136  -5.61513   2.29958 
 H                     9.07715  -2.48549   0.16526 
 H                     8.07631   1.64141  -1.4769 
 H                     8.24952   1.98506   0.25664 
 H                     9.68156   1.81623  -0.76248 
 H                     8.80453  -0.55679  -2.42785 
 H                     10.40191  -0.25648  -1.72178 
 H                     9.5969   -1.80072  -1.46755 
 H                     10.64424   0.24381   0.75913 
 H                     9.22065   0.27357   1.81438 
 H                     9.87782  -1.25997   1.25389 
 H                     6.32937   1.14743  -0.29207 
 H                    -1.87086   4.68087   1.97114 
 H                    -3.13272   6.80475   2.18717 
 H                    -2.91714   7.357    -2.0838 
 H                    -1.66437   5.22732  -2.29098 
 H                    -4.14174   3.79652  -1.5448 
 H                    -5.13175   2.49103  -0.87714 
 H                    -4.25242   3.58872   0.19834 
 H                    -4.0695    0.20896  -1.26602 
 H                    -0.43635  -1.24858  -1.7647 
 H                    -1.63951  -3.20249  -1.76974 
 H                    -3.38289  -1.22706   0.85579 
 H                    -6.56787  -3.42291   3.24245 
 H                    -4.8925   -3.07584   3.69881 
 H                    -6.20749  -2.07121   4.32614 
 H                    -6.9501   -0.25393   1.11469 
 H                    -7.82842  -1.69531   1.64882 
 H                    -7.41648  -0.42842   2.81305 
 H                    -4.59361   0.22542   1.92532 
 H                    -5.16658  -0.03158   3.57598 
 H                    -3.76058  -0.92401   2.98985 
 H                    -7.45092  -4.58961   0.57528 
 H                    -5.22055  -5.2312   -3.3494 
 H                    -4.38733  -6.36132  -2.26276 
 H                    -5.9433   -6.79829  -2.97468 
 H                    -6.82477  -7.38233  -0.82951 
 H                    -5.33365  -6.90062  -0.00094 
 H                    -6.89052  -6.29396   0.54999 
 H                    -7.3718   -4.14451  -2.66721 
 H                    -8.024    -5.76585  -2.37485 
 H                    -8.189    -4.51014  -1.15142 
 H                    -3.716    -4.30006  -2.07033 
 
 ITRead=  0  0  0  0  0  0  0  0  0  0  0  0  0  0  0  0  0  0  0  0
 ITRead=  0  0  0  0  0  0  0  0  0  0  0  0  0  0  0  0  0  0  0  0
 ITRead=  0  0  0  0  0  0  0  0  0  0  0  0  0  0  0  0  0  0  0  0
 ITRead=  0  0  0  0  0  0  0  0  0  0  0  0  0  0  0  0  0  0  0  0
 ITRead=  0  0  0  0  0  0  0  0  0  0  0  0  0  0  0  0  0  0  0  0
 ITRead=  0  0  0  0  0  0  0  0  0  0  0  0  0  0  0  0
 MicOpt= -1 -1 -1 -1 -1 -1 -1 -1 -1 -1 -1 -1 -1 -1 -1 -1 -1 -1 -1 -1
 MicOpt= -1 -1 -1 -1 -1 -1 -1 -1 -1 -1 -1 -1 -1 -1 -1 -1 -1 -1 -1 -1
 MicOpt= -1 -1 -1 -1 -1 -1 -1 -1 -1 -1 -1 -1 -1 -1 -1 -1 -1 -1 -1 -1
 MicOpt= -1 -1 -1 -1 -1 -1 -1 -1 -1 -1 -1 -1 -1 -1 -1 -1 -1 -1 -1 -1
 MicOpt= -1 -1 -1 -1 -1 -1 -1 -1 -1 -1 -1 -1 -1 -1 -1 -1 -1 -1 -1 -1
 MicOpt= -1 -1 -1 -1 -1 -1 -1 -1 -1 -1 -1 -1 -1 -1 -1 -1
 NAtoms=    116 NQM=      116 NQMF=       0 NMMI=      0 NMMIF=      0
                NMic=       0 NMicF=      0.
                    Isotopes and Nuclear Properties:
 (Nuclear quadrupole moments (NQMom) in fm**2, nuclear magnetic moments (NMagM)
  in nuclear magnetons)

  Atom         1           2           3           4           5           6           7           8           9          10
 IAtWgt=          12          12          12          12          12          12          12          12          12          12
 AtmWgt=  12.0000000  12.0000000  12.0000000  12.0000000  12.0000000  12.0000000  12.0000000  12.0000000  12.0000000  12.0000000
 NucSpn=           0           0           0           0           0           0           0           0           0           0
 AtZEff=  -0.0000000  -0.0000000  -0.0000000  -0.0000000  -0.0000000  -0.0000000  -0.0000000  -0.0000000  -0.0000000  -0.0000000
 NQMom=    0.0000000   0.0000000   0.0000000   0.0000000   0.0000000   0.0000000   0.0000000   0.0000000   0.0000000   0.0000000
 NMagM=    0.0000000   0.0000000   0.0000000   0.0000000   0.0000000   0.0000000   0.0000000   0.0000000   0.0000000   0.0000000
 AtZNuc=   6.0000000   6.0000000   6.0000000   6.0000000   6.0000000   6.0000000   6.0000000   6.0000000   6.0000000   6.0000000

  Atom        11          12          13          14          15          16          17          18          19          20
 IAtWgt=          12          12          12          12          16          12          12          12          12          12
 AtmWgt=  12.0000000  12.0000000  12.0000000  12.0000000  15.9949146  12.0000000  12.0000000  12.0000000  12.0000000  12.0000000
 NucSpn=           0           0           0           0           0           0           0           0           0           0
 AtZEff=  -0.0000000  -0.0000000  -0.0000000  -0.0000000  -0.0000000  -0.0000000  -0.0000000  -0.0000000  -0.0000000  -0.0000000
 NQMom=    0.0000000   0.0000000   0.0000000   0.0000000   0.0000000   0.0000000   0.0000000   0.0000000   0.0000000   0.0000000
 NMagM=    0.0000000   0.0000000   0.0000000   0.0000000   0.0000000   0.0000000   0.0000000   0.0000000   0.0000000   0.0000000
 AtZNuc=   6.0000000   6.0000000   6.0000000   6.0000000   8.0000000   6.0000000   6.0000000   6.0000000   6.0000000   6.0000000

  Atom        21          22          23          24          25          26          27          28          29          30
 IAtWgt=          12          14          12          12          12          12          12          12          12          14
 AtmWgt=  12.0000000  14.0030740  12.0000000  12.0000000  12.0000000  12.0000000  12.0000000  12.0000000  12.0000000  14.0030740
 NucSpn=           0           2           0           0           0           0           0           0           0           2
 AtZEff=  -0.0000000  -0.0000000  -0.0000000  -0.0000000  -0.0000000  -0.0000000  -0.0000000  -0.0000000  -0.0000000  -0.0000000
 NQMom=    0.0000000   2.0440000   0.0000000   0.0000000   0.0000000   0.0000000   0.0000000   0.0000000   0.0000000   2.0440000
 NMagM=    0.0000000   0.4037610   0.0000000   0.0000000   0.0000000   0.0000000   0.0000000   0.0000000   0.0000000   0.4037610
 AtZNuc=   6.0000000   7.0000000   6.0000000   6.0000000   6.0000000   6.0000000   6.0000000   6.0000000   6.0000000   7.0000000

  Atom        31          32          33          34          35          36          37          38          39          40
 IAtWgt=          12          12          12          12          12          12          12          12          12          12
 AtmWgt=  12.0000000  12.0000000  12.0000000  12.0000000  12.0000000  12.0000000  12.0000000  12.0000000  12.0000000  12.0000000
 NucSpn=           0           0           0           0           0           0           0           0           0           0
 AtZEff=  -0.0000000  -0.0000000  -0.0000000  -0.0000000  -0.0000000  -0.0000000  -0.0000000  -0.0000000  -0.0000000  -0.0000000
 NQMom=    0.0000000   0.0000000   0.0000000   0.0000000   0.0000000   0.0000000   0.0000000   0.0000000   0.0000000   0.0000000
 NMagM=    0.0000000   0.0000000   0.0000000   0.0000000   0.0000000   0.0000000   0.0000000   0.0000000   0.0000000   0.0000000
 AtZNuc=   6.0000000   6.0000000   6.0000000   6.0000000   6.0000000   6.0000000   6.0000000   6.0000000   6.0000000   6.0000000

  Atom        41          42          43          44          45          46          47          48          49          50
 IAtWgt=          12          12          12          12          12          12          12          16          12          12
 AtmWgt=  12.0000000  12.0000000  12.0000000  12.0000000  12.0000000  12.0000000  12.0000000  15.9949146  12.0000000  12.0000000
 NucSpn=           0           0           0           0           0           0           0           0           0           0
 AtZEff=  -0.0000000  -0.0000000  -0.0000000  -0.0000000  -0.0000000  -0.0000000  -0.0000000  -0.0000000  -0.0000000  -0.0000000
 NQMom=    0.0000000   0.0000000   0.0000000   0.0000000   0.0000000   0.0000000   0.0000000   0.0000000   0.0000000   0.0000000
 NMagM=    0.0000000   0.0000000   0.0000000   0.0000000   0.0000000   0.0000000   0.0000000   0.0000000   0.0000000   0.0000000
 AtZNuc=   6.0000000   6.0000000   6.0000000   6.0000000   6.0000000   6.0000000   6.0000000   8.0000000   6.0000000   6.0000000

  Atom        51          52          53          54          55          56          57          58          59          60
 IAtWgt=          12          12          12          12          14          11          19          19           1           1
 AtmWgt=  12.0000000  12.0000000  12.0000000  12.0000000  14.0030740  11.0093053  18.9984033  18.9984033   1.0078250   1.0078250
 NucSpn=           0           0           0           0           2           3           1           1           1           1
 AtZEff=  -0.0000000  -0.0000000  -0.0000000  -0.0000000  -0.0000000  -0.0000000  -0.0000000  -0.0000000  -0.0000000  -0.0000000
 NQMom=    0.0000000   0.0000000   0.0000000   0.0000000   2.0440000   4.0590000   0.0000000   0.0000000   0.0000000   0.0000000
 NMagM=    0.0000000   0.0000000   0.0000000   0.0000000   0.4037610   2.6886370   2.6288670   2.6288670   2.7928460   2.7928460
 AtZNuc=   6.0000000   6.0000000   6.0000000   6.0000000   7.0000000   5.0000000   9.0000000   9.0000000   1.0000000   1.0000000

  Atom        61          62          63          64          65          66          67          68          69          70
 IAtWgt=           1           1           1           1           1           1           1           1           1           1
 AtmWgt=   1.0078250   1.0078250   1.0078250   1.0078250   1.0078250   1.0078250   1.0078250   1.0078250   1.0078250   1.0078250
 NucSpn=           1           1           1           1           1           1           1           1           1           1
 AtZEff=  -0.0000000  -0.0000000  -0.0000000  -0.0000000  -0.0000000  -0.0000000  -0.0000000  -0.0000000  -0.0000000  -0.0000000
 NQMom=    0.0000000   0.0000000   0.0000000   0.0000000   0.0000000   0.0000000   0.0000000   0.0000000   0.0000000   0.0000000
 NMagM=    2.7928460   2.7928460   2.7928460   2.7928460   2.7928460   2.7928460   2.7928460   2.7928460   2.7928460   2.7928460
 AtZNuc=   1.0000000   1.0000000   1.0000000   1.0000000   1.0000000   1.0000000   1.0000000   1.0000000   1.0000000   1.0000000

  Atom        71          72          73          74          75          76          77          78          79          80
 IAtWgt=           1           1           1           1           1           1           1           1           1           1
 AtmWgt=   1.0078250   1.0078250   1.0078250   1.0078250   1.0078250   1.0078250   1.0078250   1.0078250   1.0078250   1.0078250
 NucSpn=           1           1           1           1           1           1           1           1           1           1
 AtZEff=  -0.0000000  -0.0000000  -0.0000000  -0.0000000  -0.0000000  -0.0000000  -0.0000000  -0.0000000  -0.0000000  -0.0000000
 NQMom=    0.0000000   0.0000000   0.0000000   0.0000000   0.0000000   0.0000000   0.0000000   0.0000000   0.0000000   0.0000000
 NMagM=    2.7928460   2.7928460   2.7928460   2.7928460   2.7928460   2.7928460   2.7928460   2.7928460   2.7928460   2.7928460
 AtZNuc=   1.0000000   1.0000000   1.0000000   1.0000000   1.0000000   1.0000000   1.0000000   1.0000000   1.0000000   1.0000000

  Atom        81          82          83          84          85          86          87          88          89          90
 IAtWgt=           1           1           1           1           1           1           1           1           1           1
 AtmWgt=   1.0078250   1.0078250   1.0078250   1.0078250   1.0078250   1.0078250   1.0078250   1.0078250   1.0078250   1.0078250
 NucSpn=           1           1           1           1           1           1           1           1           1           1
 AtZEff=  -0.0000000  -0.0000000  -0.0000000  -0.0000000  -0.0000000  -0.0000000  -0.0000000  -0.0000000  -0.0000000  -0.0000000
 NQMom=    0.0000000   0.0000000   0.0000000   0.0000000   0.0000000   0.0000000   0.0000000   0.0000000   0.0000000   0.0000000
 NMagM=    2.7928460   2.7928460   2.7928460   2.7928460   2.7928460   2.7928460   2.7928460   2.7928460   2.7928460   2.7928460
 AtZNuc=   1.0000000   1.0000000   1.0000000   1.0000000   1.0000000   1.0000000   1.0000000   1.0000000   1.0000000   1.0000000

  Atom        91          92          93          94          95          96          97          98          99         100
 IAtWgt=           1           1           1           1           1           1           1           1           1           1
 AtmWgt=   1.0078250   1.0078250   1.0078250   1.0078250   1.0078250   1.0078250   1.0078250   1.0078250   1.0078250   1.0078250
 NucSpn=           1           1           1           1           1           1           1           1           1           1
 AtZEff=  -0.0000000  -0.0000000  -0.0000000  -0.0000000  -0.0000000  -0.0000000  -0.0000000  -0.0000000  -0.0000000  -0.0000000
 NQMom=    0.0000000   0.0000000   0.0000000   0.0000000   0.0000000   0.0000000   0.0000000   0.0000000   0.0000000   0.0000000
 NMagM=    2.7928460   2.7928460   2.7928460   2.7928460   2.7928460   2.7928460   2.7928460   2.7928460   2.7928460   2.7928460
 AtZNuc=   1.0000000   1.0000000   1.0000000   1.0000000   1.0000000   1.0000000   1.0000000   1.0000000   1.0000000   1.0000000

  Atom       101         102         103         104         105         106         107         108         109         110
 IAtWgt=           1           1           1           1           1           1           1           1           1           1
 AtmWgt=   1.0078250   1.0078250   1.0078250   1.0078250   1.0078250   1.0078250   1.0078250   1.0078250   1.0078250   1.0078250
 NucSpn=           1           1           1           1           1           1           1           1           1           1
 AtZEff=  -0.0000000  -0.0000000  -0.0000000  -0.0000000  -0.0000000  -0.0000000  -0.0000000  -0.0000000  -0.0000000  -0.0000000
 NQMom=    0.0000000   0.0000000   0.0000000   0.0000000   0.0000000   0.0000000   0.0000000   0.0000000   0.0000000   0.0000000
 NMagM=    2.7928460   2.7928460   2.7928460   2.7928460   2.7928460   2.7928460   2.7928460   2.7928460   2.7928460   2.7928460
 AtZNuc=   1.0000000   1.0000000   1.0000000   1.0000000   1.0000000   1.0000000   1.0000000   1.0000000   1.0000000   1.0000000

  Atom       111         112         113         114         115         116
 IAtWgt=           1           1           1           1           1           1
 AtmWgt=   1.0078250   1.0078250   1.0078250   1.0078250   1.0078250   1.0078250
 NucSpn=           1           1           1           1           1           1
 AtZEff=  -0.0000000  -0.0000000  -0.0000000  -0.0000000  -0.0000000  -0.0000000
 NQMom=    0.0000000   0.0000000   0.0000000   0.0000000   0.0000000   0.0000000
 NMagM=    2.7928460   2.7928460   2.7928460   2.7928460   2.7928460   2.7928460
 AtZNuc=   1.0000000   1.0000000   1.0000000   1.0000000   1.0000000   1.0000000
 Leave Link  101 at Fri Nov  7 07:38:40 2025, MaxMem= 30870077440 cpu:               4.6 elap:               0.1
 (Enter /public/software/gauss/g16/l202.exe)
 Stoichiometry    C50H58BF2N3O2
 Framework group  C1[X(C50H58BF2N3O2)]
 Deg. of freedom   342
 Full point group                 C1      NOp   1
 Largest Abelian subgroup         C1      NOp   1
 Largest concise Abelian subgroup C1      NOp   1
                         Standard orientation:                         
 ---------------------------------------------------------------------
 Center     Atomic      Atomic             Coordinates (Angstroms)
 Number     Number       Type             X           Y           Z
 ---------------------------------------------------------------------
      1          6           0        1.127451    6.065864    0.222092
      2          6           0        1.384041    4.595898    0.080080
      3          6           0        2.639547    4.018637    0.118958
      4          6           0        2.514793    2.615166   -0.034262
      5          6           0        3.662760    1.743291   -0.007854
      6          6           0        3.723546    0.393174    0.131029
      7          6           0        4.934688   -0.416755    0.156846
      8          6           0        4.810968   -1.791333    0.422973
      9          6           0        5.904718   -2.654307    0.482325
     10          6           0        5.712582   -4.160666    0.781978
     11          6           0        4.225268   -4.516009    0.983445
     12          6           0        6.223834   -5.018172   -0.400895
     13          6           0        6.449686   -4.553701    2.085055
     14          6           0        7.183918   -2.084745    0.255360
     15          8           0        8.246766   -2.950716    0.323069
     16          6           0        7.367159   -0.702964   -0.031006
     17          6           0        8.765004   -0.083500   -0.294119
     18          6           0        8.673641    1.428898   -0.584952
     19          6           0        9.427349   -0.722471   -1.542951
     20          6           0        9.675236   -0.227363    0.953734
     21          6           0        6.223886    0.094428   -0.070498
     22          7           0        1.187297    2.316747   -0.191280
     23          6           0        0.459782    3.515953   -0.127549
     24          6           0       -0.934377    3.528181   -0.300826
     25          6           0       -1.684513    4.814787   -0.173793
     26          6           0       -2.100675    5.265965    1.086975
     27          6           0       -2.808295    6.456907    1.212678
     28          6           0       -3.102035    7.211955    0.064810
     29          6           0       -3.828785    8.438555    0.186490
     30          7           0       -4.421010    9.438144    0.285604
     31          6           0       -2.687112    6.768910   -1.202238
     32          6           0       -1.984447    5.573783   -1.314057
     33          6           0       -1.639737    2.351138   -0.600194
     34          6           0       -3.040683    2.095185   -0.791033
     35          6           0       -4.198695    3.046138   -0.750137
     36          6           0       -3.153383    0.737999   -1.048208
     37          6           0       -1.860475    0.158714   -1.024508
     38          6           0       -1.441109   -1.187868   -1.358637
     39          6           0       -2.136712   -2.352896   -1.303117
     40          6           0       -3.429609   -2.689192   -0.703037
     41          6           0       -3.957785   -2.031178    0.419546
     42          6           0       -5.169211   -2.398635    1.003858
     43          6           0       -5.704325   -1.650973    2.249601
     44          6           0       -5.856847   -2.621513    3.445679
     45          6           0       -7.060386   -0.974862    1.932352
     46          6           0       -4.741712   -0.533237    2.700732
     47          6           0       -5.872442   -3.482145    0.412811
     48          8           0       -7.069104   -3.812628    1.000851
     49          6           0       -5.375181   -4.194632   -0.709203
     50          6           0       -6.137427   -5.382173   -1.353862
     51          6           0       -5.366343   -5.968848   -2.554366
     52          6           0       -6.311076   -6.546386   -0.343651
     53          6           0       -7.511163   -4.919310   -1.906437
     54          6           0       -4.144471   -3.778734   -1.223639
     55          7           0       -0.955870    1.146587   -0.761171
     56          5           0        0.559030    0.935858   -0.513045
     57          9           0        0.719751    0.047714    0.567490
     58          9           0        1.166903    0.387560   -1.653175
     59          1           0        0.611255    6.480197   -0.649014
     60          1           0        0.511856    6.294250    1.097328
     61          1           0        2.079691    6.591042    0.333004
     62          1           0        3.579042    4.535991    0.262160
     63          1           0        4.593150    2.303142   -0.066075
     64          1           0        2.803701   -0.162098    0.272351
     65          1           0        3.814012   -2.179819    0.589996
     66          1           0        3.624932   -4.304410    0.092688
     67          1           0        4.141604   -5.587739    1.189796
     68          1           0        3.782949   -3.982107    1.830786
     69          1           0        5.679035   -4.772693   -1.319234
     70          1           0        7.288561   -4.874328   -0.588025
     71          1           0        6.056899   -6.080050   -0.187553
     72          1           0        7.525731   -4.388894    2.019566
     73          1           0        6.066594   -3.976907    2.934148
     74          1           0        6.281355   -5.615127    2.299578
     75          1           0        9.077152   -2.485485    0.165255
     76          1           0        8.076306    1.641409   -1.476903
     77          1           0        8.249523    1.985057    0.256639
     78          1           0        9.681561    1.816234   -0.762479
     79          1           0        8.804531   -0.556790   -2.427845
     80          1           0       10.401911   -0.256483   -1.721782
     81          1           0        9.596896   -1.800717   -1.467554
     82          1           0       10.644242    0.243812    0.759126
     83          1           0        9.220647    0.273572    1.814377
     84          1           0        9.877824   -1.259965    1.253894
     85          1           0        6.329372    1.147435   -0.292069
     86          1           0       -1.870863    4.680867    1.971142
     87          1           0       -3.132721    6.804748    2.187171
     88          1           0       -2.917138    7.357000   -2.083804
     89          1           0       -1.664372    5.227324   -2.290978
     90          1           0       -4.141743    3.796516   -1.544802
     91          1           0       -5.131754    2.491025   -0.877141
     92          1           0       -4.252422    3.588715    0.198344
     93          1           0       -4.069496    0.208959   -1.266018
     94          1           0       -0.436352   -1.248576   -1.764700
     95          1           0       -1.639514   -3.202489   -1.769736
     96          1           0       -3.382890   -1.227059    0.855789
     97          1           0       -6.567865   -3.422912    3.242447
     98          1           0       -4.892500   -3.075838    3.698809
     99          1           0       -6.207486   -2.071206    4.326140
    100          1           0       -6.950100   -0.253933    1.114693
    101          1           0       -7.828418   -1.695308    1.648819
    102          1           0       -7.416476   -0.428418    2.813053
    103          1           0       -4.593605    0.225422    1.925317
    104          1           0       -5.166581   -0.031579    3.575977
    105          1           0       -3.760577   -0.924009    2.989850
    106          1           0       -7.450918   -4.589608    0.575278
    107          1           0       -5.220549   -5.231199   -3.349404
    108          1           0       -4.387330   -6.361321   -2.262757
    109          1           0       -5.943295   -6.798290   -2.974676
    110          1           0       -6.824765   -7.382331   -0.829505
    111          1           0       -5.333646   -6.900620   -0.000941
    112          1           0       -6.890519   -6.293956    0.549989
    113          1           0       -7.371796   -4.144506   -2.667213
    114          1           0       -8.024002   -5.765848   -2.374849
    115          1           0       -8.189000   -4.510136   -1.151419
    116          1           0       -3.715997   -4.300056   -2.070329
 ---------------------------------------------------------------------
 Rotational constants (GHZ):           0.0400635           0.0242563           0.0161747
 Leave Link  202 at Fri Nov  7 07:38:40 2025, MaxMem= 30870077440 cpu:               0.2 elap:               0.0
 (Enter /public/software/gauss/g16/l301.exe)
 Standard basis: def2TZVPP (5D, 7F)
 Ernie: Thresh=  0.10000D-02 Tol=  0.10000D-05 Strict=F.
 There are  2958 symmetry adapted cartesian basis functions of A   symmetry.
 There are  2610 symmetry adapted basis functions of A   symmetry.
  2610 basis functions,  3944 primitive gaussians,  2958 cartesian basis functions
   209 alpha electrons      209 beta electrons
       nuclear repulsion energy      7778.8836817991 Hartrees.
 IExCor= 4336 DFT=T Ex+Corr=M062X ExCW=0 ScaHFX=  0.540000
 ScaDFX=  1.000000  1.000000  1.000000  1.000000 ScalE2=  1.000000  1.000000
 IRadAn=      5 IRanWt=     -1 IRanGd=            0 ICorTp=0 IEmpDi=131
 NAtoms=  116 NActive=  116 NUniq=  116 SFac= 1.00D+00 NAtFMM=   60 NAOKFM=T Big=T
 Integral buffers will be    131072 words long.
 Raffenetti 2 integral format.
 Two-electron integral symmetry is turned on.
 R6Disp:  Grimme-D3 Dispersion energy=       -0.0113022902 Hartrees.
 Nuclear repulsion after empirical dispersion term =     7778.8723795089 Hartrees.
 ------------------------------------------------------------------------------
 Polarizable Continuum Model (PCM)
 =================================
 Model                : PCM.
 Atomic radii         : UFF (Universal Force Field).
 Polarization charges : Total charges.
 Charge compensation  : None.
 Solution method      : On-the-fly selection.
 Cavity type          : Scaled VdW (van der Waals Surface) (Alpha=1.100).
 Cavity algorithm     : GePol (No added spheres)
                        Default sphere list used, NSphG=  116.
                        Lebedev-Laikov grids with approx.  5.0 points / Ang**2.
                        Smoothing algorithm: York/Karplus (Gamma=1.0000).
                        Polarization charges: spherical gaussians, with
                                              point-specific exponents (IZeta= 3).
                        Self-potential: point-specific (ISelfS= 7).
                        Self-field    : sphere-specific E.n sum rule (ISelfD= 2).
 Solvent              : Water, Eps=  78.355300 Eps(inf)=   1.777849
 ------------------------------------------------------------------------------
 GePol: Number of generator spheres                  =     116
 GePol: Total number of spheres                      =     116
 GePol: Number of exposed spheres                    =     116 (100.00%)
 GePol: Number of points                             =    7223
 GePol: Average weight of points                     =       0.13
 GePol: Minimum weight of points                     =   0.24D-10
 GePol: Maximum weight of points                     =    0.20577
 GePol: Number of points with low weight             =     504
 GePol: Fraction of low-weight points (<1% of avg)   =       6.98%
 GePol: Cavity surface area                          =    933.668 Ang**2
 GePol: Cavity volume                                =   1116.288 Ang**3
 Leave Link  301 at Fri Nov  7 07:38:40 2025, MaxMem= 30870077440 cpu:               5.3 elap:               0.1
 (Enter /public/software/gauss/g16/l302.exe)
 NPDir=0 NMtPBC=     1 NCelOv=     1 NCel=       1 NClECP=     1 NCelD=      1
         NCelK=      1 NCelE2=     1 NClLst=     1 CellRange=     0.0.
 One-electron integrals computed using PRISM.
 One-electron integral symmetry used in STVInt
   1 Symmetry operations used in ECPInt.
 ECPInt:  NShTT=  486591 NPrTT= 1320950 LenC2=  269005 LenP2D=  491243.
 LDataN:  DoStor=T MaxTD1= 6 Len=  172
 Number of processors reduced to  60 by ecpmxn.
 NBasis=  2610 RedAO= T EigKep=  3.54D-06  NBF=  2610
 NBsUse=  2610 1.00D-06 EigRej= -1.00D+00 NBFU=  2610
 Precomputing XC quadrature grid using
 IXCGrd= 4 IRadAn=           5 IRanWt=          -1 IRanGd=           0 AccXCQ= 0.00D+00.
 Generated NRdTot=       0 NPtTot=           0 NUsed=           0 NTot=          32
 NSgBfM=  2535  2535  2535  2535  2535 MxSgAt=   116 MxSgA2=   116.
 Leave Link  302 at Fri Nov  7 07:39:04 2025, MaxMem= 30870077440 cpu:            1484.2 elap:              23.4
 (Enter /public/software/gauss/g16/l303.exe)
 DipDrv:  MaxL=1.
 Leave Link  303 at Fri Nov  7 07:39:05 2025, MaxMem= 30870077440 cpu:              50.6 elap:               0.9
 (Enter /public/software/gauss/g16/l401.exe)
 ExpMin= 6.06D-02 ExpMax= 3.55D+04 ExpMxC= 1.21D+03 IAcc=3 IRadAn=         5 AccDes= 0.00D+00
 Harris functional with IExCor= 1009 and IRadAn=       5 diagonalized for initial guess.
 HarFok:  IExCor= 1009 AccDes= 0.00D+00 IRadAn=         5 IDoV= 1 UseB2=F ITyADJ=14
 ICtDFT=  3500011 ScaDFX=  1.000000  1.000000  1.000000  1.000000
 FoFCou: FMM=F IPFlag=           0 FMFlag=      100000 FMFlg1=        2001
         NFxFlg=           0 DoJE=T BraDBF=F KetDBF=T FulRan=T
         wScrn=  0.000000 ICntrl=       500 IOpCl=  0 I1Cent=   200000004 NGrid=           0
         NMat0=    1 NMatS0=      1 NMatT0=    0 NMatD0=    1 NMtDS0=    0 NMtDT0=    0
 Petite list used in FoFCou.
 Harris En= -2478.55173659694    
 JPrj=0 DoOrth=F DoCkMO=F.
 Leave Link  401 at Fri Nov  7 07:39:26 2025, MaxMem= 30870077440 cpu:            1341.8 elap:              21.1
 (Enter /public/software/gauss/g16/l502.exe)
 Integral symmetry usage will be decided dynamically.
 Closed shell SCF:
 Using DIIS extrapolation, IDIIS=  1040.
 NGot= 30870077440 LenX= 30852363488 LenY= 30843610766
 Requested convergence on RMS density matrix=1.00D-08 within 128 cycles.
 Requested convergence on MAX density matrix=1.00D-06.
 Requested convergence on             energy=1.00D-06.
 No special actions if energy rises.
 Fock matrices will be formed incrementally for  20 cycles.

 Cycle   1  Pass 1  IDiag  1:
 FoFJK:  IHMeth= 1 ICntrl=       0 DoSepK=F KAlg= 0 I1Cent=           0 FoldK=F
 IRaf= 500000000 NMat=       1 IRICut=       1 DoRegI=T DoRafI=F ISym2E= 0 IDoP0=0 IntGTp=1.
 FoFCou: FMM=T IPFlag=           0 FMFlag=      100000 FMFlg1=        2001
         NFxFlg=           0 DoJE=F BraDBF=F KetDBF=F FulRan=T
         wScrn=  0.000000 ICntrl=         0 IOpCl=  0 I1Cent=           0 NGrid=           0
         NMat0=    1 NMatS0=      1 NMatT0=    0 NMatD0=    1 NMtDS0=    0 NMtDT0=    0
 Symmetry not used in FoFCou.
 FMM levels:  10  Number of levels for PrismC:   9
 Inv3:  Mode=1 IEnd=   156515187.
 Iteration    1 A*A^-1 deviation from unit magnitude is 1.82D-14 for   1911.
 Iteration    1 A*A^-1 deviation from orthogonality  is 5.65D-15 for   5180   2142.
 Iteration    1 A^-1*A deviation from unit magnitude is 1.87D-14 for   1911.
 Iteration    1 A^-1*A deviation from orthogonality  is 4.79D-15 for   5629    445.
 E= -2478.02662016726    
 DIIS: error= 2.81D-02 at cycle   1 NSaved=   1.
 NSaved= 1 IEnMin= 1 EnMin= -2478.02662016726     IErMin= 1 ErrMin= 2.81D-02
 ErrMax= 2.81D-02  0.00D+00 EMaxC= 1.00D-01 BMatC= 1.92D+00 BMatP= 1.92D+00
 IDIUse=3 WtCom= 7.19D-01 WtEn= 2.81D-01
 Coeff-Com:  0.100D+01
 Coeff-En:   0.100D+01
 Coeff:      0.100D+01
 Gap=     0.126 Goal=   None    Shift=    0.000
 GapD=    0.126 DampG=1.000 DampE=0.500 DampFc=0.5000 IDamp=-1.
 Damping current iteration by 5.00D-01
 RMSDP=1.19D-03 MaxDP=1.44D-01              OVMax= 1.63D-01

 Cycle   2  Pass 1  IDiag  1:
 RMSU=  5.91D-04    CP:  9.72D-01
 E= -2478.85612130388     Delta-E=       -0.829501136617 Rises=F Damp=T
 DIIS: error= 4.60D-03 at cycle   2 NSaved=   2.
 NSaved= 2 IEnMin= 2 EnMin= -2478.85612130388     IErMin= 2 ErrMin= 4.60D-03
 ErrMax= 4.60D-03  0.00D+00 EMaxC= 1.00D-01 BMatC= 1.53D-01 BMatP= 1.92D+00
 IDIUse=3 WtCom= 9.54D-01 WtEn= 4.60D-02
 Coeff-Com: -0.149D+00 0.115D+01
 Coeff-En:   0.000D+00 0.100D+01
 Coeff:     -0.142D+00 0.114D+01
 Gap=     0.141 Goal=   None    Shift=    0.000
 RMSDP=5.75D-04 MaxDP=9.59D-02 DE=-8.30D-01 OVMax= 1.15D-01

 Cycle   3  Pass 1  IDiag  1:
 RMSU=  5.31D-04    CP:  9.58D-01  1.37D+00
 E= -2479.57880924064     Delta-E=       -0.722687936764 Rises=F Damp=F
 DIIS: error= 4.15D-03 at cycle   3 NSaved=   3.
 NSaved= 3 IEnMin= 3 EnMin= -2479.57880924064     IErMin= 3 ErrMin= 4.15D-03
 ErrMax= 4.15D-03  0.00D+00 EMaxC= 1.00D-01 BMatC= 4.77D-02 BMatP= 1.53D-01
 IDIUse=3 WtCom= 9.58D-01 WtEn= 4.15D-02
 Coeff-Com: -0.105D+00 0.427D+00 0.678D+00
 Coeff-En:   0.000D+00 0.000D+00 0.100D+01
 Coeff:     -0.101D+00 0.409D+00 0.692D+00
 Gap=     0.133 Goal=   None    Shift=    0.000
 RMSDP=1.39D-04 MaxDP=3.33D-02 DE=-7.23D-01 OVMax= 5.22D-02

 Cycle   4  Pass 1  IDiag  1:
 RMSU=  1.32D-04    CP:  9.58D-01  1.41D+00  9.31D-01
 E= -2479.60715472179     Delta-E=       -0.028345481151 Rises=F Damp=F
 DIIS: error= 2.89D-03 at cycle   4 NSaved=   4.
 NSaved= 4 IEnMin= 4 EnMin= -2479.60715472179     IErMin= 4 ErrMin= 2.89D-03
 ErrMax= 2.89D-03  0.00D+00 EMaxC= 1.00D-01 BMatC= 1.68D-02 BMatP= 4.77D-02
 IDIUse=3 WtCom= 9.71D-01 WtEn= 2.89D-02
 Coeff-Com: -0.386D-01 0.104D+00 0.403D+00 0.531D+00
 Coeff-En:   0.000D+00 0.000D+00 0.261D+00 0.739D+00
 Coeff:     -0.375D-01 0.101D+00 0.399D+00 0.537D+00
 Gap=     0.135 Goal=   None    Shift=    0.000
 RMSDP=5.53D-05 MaxDP=1.38D-02 DE=-2.83D-02 OVMax= 2.54D-02

 Cycle   5  Pass 1  IDiag  1:
 RMSU=  4.01D-05    CP:  9.57D-01  1.40D+00  9.56D-01  7.33D-01
 E= -2479.62146900726     Delta-E=       -0.014314285467 Rises=F Damp=F
 DIIS: error= 7.63D-04 at cycle   5 NSaved=   5.
 NSaved= 5 IEnMin= 5 EnMin= -2479.62146900726     IErMin= 5 ErrMin= 7.63D-04
 ErrMax= 7.63D-04  0.00D+00 EMaxC= 1.00D-01 BMatC= 6.58D-04 BMatP= 1.68D-02
 IDIUse=3 WtCom= 9.92D-01 WtEn= 7.63D-03
 Coeff-Com: -0.118D-01 0.253D-01 0.156D+00 0.260D+00 0.571D+00
 Coeff-En:   0.000D+00 0.000D+00 0.000D+00 0.000D+00 0.100D+01
 Coeff:     -0.118D-01 0.251D-01 0.155D+00 0.258D+00 0.574D+00
 Gap=     0.135 Goal=   None    Shift=    0.000
 RMSDP=1.51D-05 MaxDP=3.81D-03 DE=-1.43D-02 OVMax= 6.64D-03

 Cycle   6  Pass 1  IDiag  1:
 RMSU=  1.33D-05    CP:  9.57D-01  1.41D+00  9.54D-01  7.50D-01  8.52D-01
 E= -2479.62201426112     Delta-E=       -0.000545253864 Rises=F Damp=F
 DIIS: error= 2.02D-04 at cycle   6 NSaved=   6.
 NSaved= 6 IEnMin= 6 EnMin= -2479.62201426112     IErMin= 6 ErrMin= 2.02D-04
 ErrMax= 2.02D-04  0.00D+00 EMaxC= 1.00D-01 BMatC= 5.98D-05 BMatP= 6.58D-04
 IDIUse=3 WtCom= 9.98D-01 WtEn= 2.02D-03
 Coeff-Com: -0.160D-02 0.163D-02 0.336D-01 0.676D-01 0.273D+00 0.626D+00
 Coeff-En:   0.000D+00 0.000D+00 0.000D+00 0.000D+00 0.000D+00 0.100D+01
 Coeff:     -0.160D-02 0.163D-02 0.336D-01 0.675D-01 0.273D+00 0.626D+00
 Gap=     0.136 Goal=   None    Shift=    0.000
 RMSDP=5.56D-06 MaxDP=1.62D-03 DE=-5.45D-04 OVMax= 1.80D-03

 Cycle   7  Pass 1  IDiag  1:
 RMSU=  4.68D-06    CP:  9.57D-01  1.41D+00  9.54D-01  7.58D-01  9.21D-01
                    CP:  1.00D+00
 E= -2479.62206656549     Delta-E=       -0.000052304365 Rises=F Damp=F
 DIIS: error= 6.28D-05 at cycle   7 NSaved=   7.
 NSaved= 7 IEnMin= 7 EnMin= -2479.62206656549     IErMin= 7 ErrMin= 6.28D-05
 ErrMax= 6.28D-05  0.00D+00 EMaxC= 1.00D-01 BMatC= 8.31D-06 BMatP= 5.98D-05
 IDIUse=1 WtCom= 1.00D+00 WtEn= 0.00D+00
 Coeff-Com:  0.960D-03-0.286D-02-0.690D-02-0.662D-02 0.490D-01 0.302D+00
 Coeff-Com:  0.665D+00
 Coeff:      0.960D-03-0.286D-02-0.690D-02-0.662D-02 0.490D-01 0.302D+00
 Coeff:      0.665D+00
 Gap=     0.136 Goal=   None    Shift=    0.000
 RMSDP=2.37D-06 MaxDP=6.80D-04 DE=-5.23D-05 OVMax= 1.52D-03

 Cycle   8  Pass 1  IDiag  1:
 RMSU=  1.75D-06    CP:  9.57D-01  1.41D+00  9.55D-01  7.63D-01  9.43D-01
                    CP:  1.06D+00  1.14D+00
 E= -2479.62207593806     Delta-E=       -0.000009372568 Rises=F Damp=F
 DIIS: error= 1.67D-05 at cycle   8 NSaved=   8.
 NSaved= 8 IEnMin= 8 EnMin= -2479.62207593806     IErMin= 8 ErrMin= 1.67D-05
 ErrMax= 1.67D-05  0.00D+00 EMaxC= 1.00D-01 BMatC= 1.24D-06 BMatP= 8.31D-06
 IDIUse=1 WtCom= 1.00D+00 WtEn= 0.00D+00
 Coeff-Com:  0.692D-03-0.157D-02-0.879D-02-0.146D-01-0.213D-01 0.387D-01
 Coeff-Com:  0.311D+00 0.696D+00
 Coeff:      0.692D-03-0.157D-02-0.879D-02-0.146D-01-0.213D-01 0.387D-01
 Coeff:      0.311D+00 0.696D+00
 Gap=     0.136 Goal=   None    Shift=    0.000
 RMSDP=1.29D-06 MaxDP=5.10D-04 DE=-9.37D-06 OVMax= 5.53D-04

 Cycle   9  Pass 1  IDiag  1:
 RMSU=  8.35D-07    CP:  9.57D-01  1.41D+00  9.55D-01  7.66D-01  9.54D-01
                    CP:  1.10D+00  1.28D+00  1.01D+00
 E= -2479.62207772839     Delta-E=       -0.000001790339 Rises=F Damp=F
 DIIS: error= 5.81D-06 at cycle   9 NSaved=   9.
 NSaved= 9 IEnMin= 9 EnMin= -2479.62207772839     IErMin= 9 ErrMin= 5.81D-06
 ErrMax= 5.81D-06  0.00D+00 EMaxC= 1.00D-01 BMatC= 1.31D-07 BMatP= 1.24D-06
 IDIUse=1 WtCom= 1.00D+00 WtEn= 0.00D+00
 Coeff-Com:  0.128D-03-0.231D-03-0.248D-02-0.491D-02-0.141D-01-0.225D-01
 Coeff-Com:  0.295D-01 0.259D+00 0.756D+00
 Coeff:      0.128D-03-0.231D-03-0.248D-02-0.491D-02-0.141D-01-0.225D-01
 Coeff:      0.295D-01 0.259D+00 0.756D+00
 Gap=     0.136 Goal=   None    Shift=    0.000
 RMSDP=4.46D-07 MaxDP=1.18D-04 DE=-1.79D-06 OVMax= 4.24D-04

 Cycle  10  Pass 1  IDiag  1:
 RMSU=  3.13D-07    CP:  9.57D-01  1.41D+00  9.55D-01  7.66D-01  9.57D-01
                    CP:  1.10D+00  1.31D+00  1.13D+00  1.11D+00
 E= -2479.62207799200     Delta-E=       -0.000000263602 Rises=F Damp=F
 DIIS: error= 3.15D-06 at cycle  10 NSaved=  10.
 NSaved=10 IEnMin=10 EnMin= -2479.62207799200     IErMin=10 ErrMin= 3.15D-06
 ErrMax= 3.15D-06  0.00D+00 EMaxC= 1.00D-01 BMatC= 3.36D-08 BMatP= 1.31D-07
 IDIUse=1 WtCom= 1.00D+00 WtEn= 0.00D+00
 Coeff-Com: -0.506D-04 0.140D-03 0.201D-03-0.459D-04-0.306D-02-0.151D-01
 Coeff-Com: -0.335D-01 0.209D-02 0.359D+00 0.690D+00
 Coeff:     -0.506D-04 0.140D-03 0.201D-03-0.459D-04-0.306D-02-0.151D-01
 Coeff:     -0.335D-01 0.209D-02 0.359D+00 0.690D+00
 Gap=     0.136 Goal=   None    Shift=    0.000
 RMSDP=2.33D-07 MaxDP=1.06D-04 DE=-2.64D-07 OVMax= 1.43D-04

 Cycle  11  Pass 1  IDiag  1:
 RMSU=  1.35D-07    CP:  9.57D-01  1.41D+00  9.55D-01  7.67D-01  9.57D-01
                    CP:  1.11D+00  1.34D+00  1.16D+00  1.25D+00  1.06D+00
 E= -2479.62207804741     Delta-E=       -0.000000055417 Rises=F Damp=F
 DIIS: error= 1.37D-06 at cycle  11 NSaved=  11.
 NSaved=11 IEnMin=11 EnMin= -2479.62207804741     IErMin=11 ErrMin= 1.37D-06
 ErrMax= 1.37D-06  0.00D+00 EMaxC= 1.00D-01 BMatC= 6.00D-09 BMatP= 3.36D-08
 IDIUse=1 WtCom= 1.00D+00 WtEn= 0.00D+00
 Coeff-Com: -0.574D-04 0.132D-03 0.676D-03 0.112D-02 0.151D-02-0.280D-02
 Coeff-Com: -0.242D-01-0.596D-01 0.347D-01 0.339D+00 0.709D+00
 Coeff:     -0.574D-04 0.132D-03 0.676D-03 0.112D-02 0.151D-02-0.280D-02
 Coeff:     -0.242D-01-0.596D-01 0.347D-01 0.339D+00 0.709D+00
 Gap=     0.136 Goal=   None    Shift=    0.000
 RMSDP=7.99D-08 MaxDP=1.14D-05 DE=-5.54D-08 OVMax= 7.70D-05

 Cycle  12  Pass 1  IDiag  1:
 RMSU=  5.15D-08    CP:  9.57D-01  1.41D+00  9.55D-01  7.67D-01  9.58D-01
                    CP:  1.11D+00  1.34D+00  1.17D+00  1.29D+00  1.19D+00
                    CP:  1.00D+00
 E= -2479.62207805733     Delta-E=       -0.000000009912 Rises=F Damp=F
 DIIS: error= 3.88D-07 at cycle  12 NSaved=  12.
 NSaved=12 IEnMin=12 EnMin= -2479.62207805733     IErMin=12 ErrMin= 3.88D-07
 ErrMax= 3.88D-07  0.00D+00 EMaxC= 1.00D-01 BMatC= 6.11D-10 BMatP= 6.00D-09
 IDIUse=1 WtCom= 1.00D+00 WtEn= 0.00D+00
 Coeff-Com: -0.135D-04 0.286D-04 0.217D-03 0.424D-03 0.830D-03 0.667D-03
 Coeff-Com: -0.468D-02-0.236D-01-0.262D-01 0.337D-01 0.270D+00 0.748D+00
 Coeff:     -0.135D-04 0.286D-04 0.217D-03 0.424D-03 0.830D-03 0.667D-03
 Coeff:     -0.468D-02-0.236D-01-0.262D-01 0.337D-01 0.270D+00 0.748D+00
 Gap=     0.136 Goal=   None    Shift=    0.000
 RMSDP=3.40D-08 MaxDP=7.64D-06 DE=-9.91D-09 OVMax= 2.20D-05

 Cycle  13  Pass 1  IDiag  1:
 RMSU=  1.74D-08    CP:  9.57D-01  1.41D+00  9.55D-01  7.67D-01  9.58D-01
                    CP:  1.11D+00  1.34D+00  1.17D+00  1.31D+00  1.20D+00
                    CP:  1.10D+00  1.22D+00
 E= -2479.62207805877     Delta-E=       -0.000000001442 Rises=F Damp=F
 DIIS: error= 1.07D-07 at cycle  13 NSaved=  13.
 NSaved=13 IEnMin=13 EnMin= -2479.62207805877     IErMin=13 ErrMin= 1.07D-07
 ErrMax= 1.07D-07  0.00D+00 EMaxC= 1.00D-01 BMatC= 8.08D-11 BMatP= 6.11D-10
 IDIUse=1 WtCom= 1.00D+00 WtEn= 0.00D+00
 Coeff-Com:  0.349D-05-0.853D-05-0.139D-04 0.869D-05 0.869D-04 0.624D-03
 Coeff-Com:  0.187D-02-0.854D-03-0.133D-01-0.369D-01 0.646D-02 0.274D+00
 Coeff-Com:  0.768D+00
 Coeff:      0.349D-05-0.853D-05-0.139D-04 0.869D-05 0.869D-04 0.624D-03
 Coeff:      0.187D-02-0.854D-03-0.133D-01-0.369D-01 0.646D-02 0.274D+00
 Coeff:      0.768D+00
 Gap=     0.136 Goal=   None    Shift=    0.000
 RMSDP=1.22D-08 MaxDP=2.97D-06 DE=-1.44D-09 OVMax= 7.48D-06

 Cycle  14  Pass 1  IDiag  1:
 RMSU=  7.67D-09    CP:  9.57D-01  1.41D+00  9.55D-01  7.67D-01  9.58D-01
                    CP:  1.11D+00  1.34D+00  1.17D+00  1.31D+00  1.21D+00
                    CP:  1.13D+00  1.34D+00  1.17D+00
 E= -2479.62207805911     Delta-E=       -0.000000000338 Rises=F Damp=F
 DIIS: error= 4.84D-08 at cycle  14 NSaved=  14.
 NSaved=14 IEnMin=14 EnMin= -2479.62207805911     IErMin=14 ErrMin= 4.84D-08
 ErrMax= 4.84D-08  0.00D+00 EMaxC= 1.00D-01 BMatC= 1.47D-11 BMatP= 8.08D-11
 IDIUse=1 WtCom= 1.00D+00 WtEn= 0.00D+00
 Coeff-Com:  0.286D-05-0.650D-05-0.306D-04-0.434D-04-0.630D-04 0.158D-03
 Coeff-Com:  0.138D-02 0.225D-02-0.195D-02-0.199D-01-0.308D-01 0.879D-02
 Coeff-Com:  0.314D+00 0.726D+00
 Coeff:      0.286D-05-0.650D-05-0.306D-04-0.434D-04-0.630D-04 0.158D-03
 Coeff:      0.138D-02 0.225D-02-0.195D-02-0.199D-01-0.308D-01 0.879D-02
 Coeff:      0.314D+00 0.726D+00
 Gap=     0.136 Goal=   None    Shift=    0.000
 RMSDP=5.03D-09 MaxDP=9.80D-07 DE=-3.38D-10 OVMax= 4.89D-06

 Error on total polarization charges =  0.02937
 SCF Done:  E(RM062X) =  -2479.62207806     A.U. after   14 cycles
            NFock= 14  Conv=0.50D-08     -V/T= 2.0057
 KE= 2.465568152837D+03 PE=-2.132676460509D+04 EE= 8.602701994687D+03
 Leave Link  502 at Fri Nov  7 08:10:40 2025, MaxMem= 30870077440 cpu:          118002.1 elap:            1874.4
 (Enter /public/software/gauss/g16/l601.exe)
 Copying SCF densities to generalized density rwf, IOpCl= 0 IROHF=0.
 Hyperfine terms turned off by default for NAtoms > 100.

 **********************************************************************

            Population analysis using the SCF density.

 **********************************************************************

 Orbital symmetries:
       Occupied  (A) (A) (A) (A) (A) (A) (A) (A) (A) (A) (A) (A)
                 (A) (A) (A) (A) (A) (A) (A) (A) (A) (A) (A) (A)
                 (A) (A) (A) (A) (A) (A) (A) (A) (A) (A) (A) (A)
                 (A) (A) (A) (A) (A) (A) (A) (A) (A) (A) (A) (A)
                 (A) (A) (A) (A) (A) (A) (A) (A) (A) (A) (A) (A)
                 (A) (A) (A) (A) (A) (A) (A) (A) (A) (A) (A) (A)
                 (A) (A) (A) (A) (A) (A) (A) (A) (A) (A) (A) (A)
                 (A) (A) (A) (A) (A) (A) (A) (A) (A) (A) (A) (A)
                 (A) (A) (A) (A) (A) (A) (A) (A) (A) (A) (A) (A)
                 (A) (A) (A) (A) (A) (A) (A) (A) (A) (A) (A) (A)
                 (A) (A) (A) (A) (A) (A) (A) (A) (A) (A) (A) (A)
                 (A) (A) (A) (A) (A) (A) (A) (A) (A) (A) (A) (A)
                 (A) (A) (A) (A) (A) (A) (A) (A) (A) (A) (A) (A)
                 (A) (A) (A) (A) (A) (A) (A) (A) (A) (A) (A) (A)
                 (A) (A) (A) (A) (A) (A) (A) (A) (A) (A) (A) (A)
                 (A) (A) (A) (A) (A) (A) (A) (A) (A) (A) (A) (A)
                 (A) (A) (A) (A) (A) (A) (A) (A) (A) (A) (A) (A)
                 (A) (A) (A) (A) (A)
       Virtual   (A) (A) (A) (A) (A) (A) (A) (A) (A) (A) (A) (A)
                 (A) (A) (A) (A) (A) (A) (A) (A) (A) (A) (A) (A)
                 (A) (A) (A) (A) (A) (A) (A) (A) (A) (A) (A) (A)
                 (A) (A) (A) (A) (A) (A) (A) (A) (A) (A) (A) (A)
                 (A) (A) (A) (A) (A) (A) (A) (A) (A) (A) (A) (A)
                 (A) (A) (A) (A) (A) (A) (A) (A) (A) (A) (A) (A)
                 (A) (A) (A) (A) (A) (A) (A) (A) (A) (A) (A) (A)
                 (A) (A) (A) (A) (A) (A) (A) (A) (A) (A) (A) (A)
                 (A) (A) (A) (A) (A) (A) (A) (A) (A) (A) (A) (A)
                 (A) (A) (A) (A) (A) (A) (A) (A) (A) (A) (A) (A)
                 (A) (A) (A) (A) (A) (A) (A) (A) (A) (A) (A) (A)
                 (A) (A) (A) (A) (A) (A) (A) (A) (A) (A) (A) (A)
                 (A) (A) (A) (A) (A) (A) (A) (A) (A) (A) (A) (A)
                 (A) (A) (A) (A) (A) (A) (A) (A) (A) (A) (A) (A)
                 (A) (A) (A) (A) (A) (A) (A) (A) (A) (A) (A) (A)
                 (A) (A) (A) (A) (A) (A) (A) (A) (A) (A) (A) (A)
                 (A) (A) (A) (A) (A) (A) (A) (A) (A) (A) (A) (A)
                 (A) (A) (A) (A) (A) (A) (A) (A) (A) (A) (A) (A)
                 (A) (A) (A) (A) (A) (A) (A) (A) (A) (A) (A) (A)
                 (A) (A) (A) (A) (A) (A) (A) (A) (A) (A) (A) (A)
                 (A) (A) (A) (A) (A) (A) (A) (A) (A) (A) (A) (A)
                 (A) (A) (A) (A) (A) (A) (A) (A) (A) (A) (A) (A)
                 (A) (A) (A) (A) (A) (A) (A) (A) (A) (A) (A) (A)
                 (A) (A) (A) (A) (A) (A) (A) (A) (A) (A) (A) (A)
                 (A) (A) (A) (A) (A) (A) (A) (A) (A) (A) (A) (A)
                 (A) (A) (A) (A) (A) (A) (A) (A) (A) (A) (A) (A)
                 (A) (A) (A) (A) (A) (A) (A) (A) (A) (A) (A) (A)
                 (A) (A) (A) (A) (A) (A) (A) (A) (A) (A) (A) (A)
                 (A) (A) (A) (A) (A) (A) (A) (A) (A) (A) (A) (A)
                 (A) (A) (A) (A) (A) (A) (A) (A) (A) (A) (A) (A)
                 (A) (A) (A) (A) (A) (A) (A) (A) (A) (A) (A) (A)
                 (A) (A) (A) (A) (A) (A) (A) (A) (A) (A) (A) (A)
                 (A) (A) (A) (A) (A) (A) (A) (A) (A) (A) (A) (A)
                 (A) (A) (A) (A) (A) (A) (A) (A) (A) (A) (A) (A)
                 (A) (A) (A) (A) (A) (A) (A) (A) (A) (A) (A) (A)
                 (A) (A) (A) (A) (A) (A) (A) (A) (A) (A) (A) (A)
                 (A) (A) (A) (A) (A) (A) (A) (A) (A) (A) (A) (A)
                 (A) (A) (A) (A) (A) (A) (A) (A) (A) (A) (A) (A)
                 (A) (A) (A) (A) (A) (A) (A) (A) (A) (A) (A) (A)
                 (A) (A) (A) (A) (A) (A) (A) (A) (A) (A) (A) (A)
                 (A) (A) (A) (A) (A) (A) (A) (A) (A) (A) (A) (A)
                 (A) (A) (A) (A) (A) (A) (A) (A) (A) (A) (A) (A)
                 (A) (A) (A) (A) (A) (A) (A) (A) (A) (A) (A) (A)
                 (A) (A) (A) (A) (A) (A) (A) (A) (A) (A) (A) (A)
                 (A) (A) (A) (A) (A) (A) (A) (A) (A) (A) (A) (A)
                 (A) (A) (A) (A) (A) (A) (A) (A) (A) (A) (A) (A)
                 (A) (A) (A) (A) (A) (A) (A) (A) (A) (A) (A) (A)
                 (A) (A) (A) (A) (A) (A) (A) (A) (A) (A) (A) (A)
                 (A) (A) (A) (A) (A) (A) (A) (A) (A) (A) (A) (A)
                 (A) (A) (A) (A) (A) (A) (A) (A) (A) (A) (A) (A)
                 (A) (A) (A) (A) (A) (A) (A) (A) (A) (A) (A) (A)
                 (A) (A) (A) (A) (A) (A) (A) (A) (A) (A) (A) (A)
                 (A) (A) (A) (A) (A) (A) (A) (A) (A) (A) (A) (A)
                 (A) (A) (A) (A) (A) (A) (A) (A) (A) (A) (A) (A)
                 (A) (A) (A) (A) (A) (A) (A) (A) (A) (A) (A) (A)
                 (A) (A) (A) (A) (A) (A) (A) (A) (A) (A) (A) (A)
                 (A) (A) (A) (A) (A) (A) (A) (A) (A) (A) (A) (A)
                 (A) (A) (A) (A) (A) (A) (A) (A) (A) (A) (A) (A)
                 (A) (A) (A) (A) (A) (A) (A) (A) (A) (A) (A) (A)
                 (A) (A) (A) (A) (A) (A) (A) (A) (A) (A) (A) (A)
                 (A) (A) (A) (A) (A) (A) (A) (A) (A) (A) (A) (A)
                 (A) (A) (A) (A) (A) (A) (A) (A) (A) (A) (A) (A)
                 (A) (A) (A) (A) (A) (A) (A) (A) (A) (A) (A) (A)
                 (A) (A) (A) (A) (A) (A) (A) (A) (A) (A) (A) (A)
                 (A) (A) (A) (A) (A) (A) (A) (A) (A) (A) (A) (A)
                 (A) (A) (A) (A) (A) (A) (A) (A) (A) (A) (A) (A)
                 (A) (A) (A) (A) (A) (A) (A) (A) (A) (A) (A) (A)
                 (A) (A) (A) (A) (A) (A) (A) (A) (A) (A) (A) (A)
                 (A) (A) (A) (A) (A) (A) (A) (A) (A) (A) (A) (A)
                 (A) (A) (A) (A) (A) (A) (A) (A) (A) (A) (A) (A)
                 (A) (A) (A) (A) (A) (A) (A) (A) (A) (A) (A) (A)
                 (A) (A) (A) (A) (A) (A) (A) (A) (A) (A) (A) (A)
                 (A) (A) (A) (A) (A) (A) (A) (A) (A) (A) (A) (A)
                 (A) (A) (A) (A) (A) (A) (A) (A) (A) (A) (A) (A)
                 (A) (A) (A) (A) (A) (A) (A) (A) (A) (A) (A) (A)
                 (A) (A) (A) (A) (A) (A) (A) (A) (A) (A) (A) (A)
                 (A) (A) (A) (A) (A) (A) (A) (A) (A) (A) (A) (A)
                 (A) (A) (A) (A) (A) (A) (A) (A) (A) (A) (A) (A)
                 (A) (A) (A) (A) (A) (A) (A) (A) (A) (A) (A) (A)
                 (A) (A) (A) (A) (A) (A) (A) (A) (A) (A) (A) (A)
                 (A) (A) (A) (A) (A) (A) (A) (A) (A) (A) (A) (A)
                 (A) (A) (A) (A) (A) (A) (A) (A) (A) (A) (A) (A)
                 (A) (A) (A) (A) (A) (A) (A) (A) (A) (A) (A) (A)
                 (A) (A) (A) (A) (A) (A) (A) (A) (A) (A) (A) (A)
                 (A) (A) (A) (A) (A) (A) (A) (A) (A) (A) (A) (A)
                 (A) (A) (A) (A) (A) (A) (A) (A) (A) (A) (A) (A)
                 (A) (A) (A) (A) (A) (A) (A) (A) (A) (A) (A) (A)
                 (A) (A) (A) (A) (A) (A) (A) (A) (A) (A) (A) (A)
                 (A) (A) (A) (A) (A) (A) (A) (A) (A) (A) (A) (A)
                 (A) (A) (A) (A) (A) (A) (A) (A) (A) (A) (A) (A)
                 (A) (A) (A) (A) (A) (A) (A) (A) (A) (A) (A) (A)
                 (A) (A) (A) (A) (A) (A) (A) (A) (A) (A) (A) (A)
                 (A) (A) (A) (A) (A) (A) (A) (A) (A) (A) (A) (A)
                 (A) (A) (A) (A) (A) (A) (A) (A) (A) (A) (A) (A)
                 (A) (A) (A) (A) (A) (A) (A) (A) (A) (A) (A) (A)
                 (A) (A) (A) (A) (A) (A) (A) (A) (A) (A) (A) (A)
                 (A) (A) (A) (A) (A) (A) (A) (A) (A) (A) (A) (A)
                 (A) (A) (A) (A) (A) (A) (A) (A) (A) (A) (A) (A)
                 (A) (A) (A) (A) (A) (A) (A) (A) (A) (A) (A) (A)
                 (A) (A) (A) (A) (A) (A) (A) (A) (A) (A) (A) (A)
                 (A) (A) (A) (A) (A) (A) (A) (A) (A) (A) (A) (A)
                 (A) (A) (A) (A) (A) (A) (A) (A) (A) (A) (A) (A)
                 (A) (A) (A) (A) (A) (A) (A) (A) (A) (A) (A) (A)
                 (A) (A) (A) (A) (A) (A) (A) (A) (A) (A) (A) (A)
                 (A) (A) (A) (A) (A) (A) (A) (A) (A) (A) (A) (A)
                 (A) (A) (A) (A) (A) (A) (A) (A) (A) (A) (A) (A)
                 (A) (A) (A) (A) (A) (A) (A) (A) (A) (A) (A) (A)
                 (A) (A) (A) (A) (A) (A) (A) (A) (A) (A) (A) (A)
                 (A) (A) (A) (A) (A) (A) (A) (A) (A) (A) (A) (A)
                 (A) (A) (A) (A) (A) (A) (A) (A) (A) (A) (A) (A)
                 (A) (A) (A) (A) (A) (A) (A) (A) (A) (A) (A) (A)
                 (A) (A) (A) (A) (A) (A) (A) (A) (A) (A) (A) (A)
                 (A) (A) (A) (A) (A) (A) (A) (A) (A) (A) (A) (A)
                 (A) (A) (A) (A) (A) (A) (A) (A) (A) (A) (A) (A)
                 (A) (A) (A) (A) (A) (A) (A) (A) (A) (A) (A) (A)
                 (A) (A) (A) (A) (A) (A) (A) (A) (A) (A) (A) (A)
                 (A) (A) (A) (A) (A) (A) (A) (A) (A) (A) (A) (A)
                 (A) (A) (A) (A) (A) (A) (A) (A) (A) (A) (A) (A)
                 (A) (A) (A) (A) (A) (A) (A) (A) (A) (A) (A) (A)
                 (A) (A) (A) (A) (A) (A) (A) (A) (A) (A) (A) (A)
                 (A) (A) (A) (A) (A) (A) (A) (A) (A) (A) (A) (A)
                 (A) (A) (A) (A) (A) (A) (A) (A) (A) (A) (A) (A)
                 (A) (A) (A) (A) (A) (A) (A) (A) (A) (A) (A) (A)
                 (A) (A) (A) (A) (A) (A) (A) (A) (A) (A) (A) (A)
                 (A) (A) (A) (A) (A) (A) (A) (A) (A) (A) (A) (A)
                 (A) (A) (A) (A) (A) (A) (A) (A) (A) (A) (A) (A)
                 (A) (A) (A) (A) (A) (A) (A) (A) (A) (A) (A) (A)
                 (A) (A) (A) (A) (A) (A) (A) (A) (A) (A) (A) (A)
                 (A) (A) (A) (A) (A) (A) (A) (A) (A) (A) (A) (A)
                 (A) (A) (A) (A) (A) (A) (A) (A) (A) (A) (A) (A)
                 (A) (A) (A) (A) (A) (A) (A) (A) (A) (A) (A) (A)
                 (A) (A) (A) (A) (A) (A) (A) (A) (A) (A) (A) (A)
                 (A) (A) (A) (A) (A) (A) (A) (A) (A) (A) (A) (A)
                 (A) (A) (A) (A) (A) (A) (A) (A) (A) (A) (A) (A)
                 (A) (A) (A) (A) (A) (A) (A) (A) (A) (A) (A) (A)
                 (A) (A) (A) (A) (A) (A) (A) (A) (A) (A) (A) (A)
                 (A) (A) (A) (A) (A) (A) (A) (A) (A) (A) (A) (A)
                 (A) (A) (A) (A) (A) (A) (A) (A) (A) (A) (A) (A)
                 (A) (A) (A) (A) (A) (A) (A) (A) (A) (A) (A) (A)
                 (A) (A) (A) (A) (A) (A) (A) (A) (A) (A) (A) (A)
                 (A) (A) (A) (A) (A) (A) (A) (A) (A) (A) (A) (A)
                 (A) (A) (A) (A) (A) (A) (A) (A) (A) (A) (A) (A)
                 (A) (A) (A) (A) (A) (A) (A) (A) (A) (A) (A) (A)
                 (A) (A) (A) (A) (A) (A) (A) (A) (A) (A) (A) (A)
                 (A) (A) (A) (A) (A) (A) (A) (A) (A) (A) (A) (A)
                 (A) (A) (A) (A) (A) (A) (A) (A) (A) (A) (A) (A)
                 (A) (A) (A) (A) (A) (A) (A) (A) (A) (A) (A) (A)
                 (A) (A) (A) (A) (A) (A) (A) (A) (A) (A) (A) (A)
                 (A) (A) (A) (A) (A) (A) (A) (A) (A) (A) (A) (A)
                 (A) (A) (A) (A) (A) (A) (A) (A) (A) (A) (A) (A)
                 (A) (A) (A) (A) (A) (A) (A) (A) (A) (A) (A) (A)
                 (A) (A) (A) (A) (A) (A) (A) (A) (A) (A) (A) (A)
                 (A) (A) (A) (A) (A) (A) (A) (A) (A) (A) (A) (A)
                 (A) (A) (A) (A) (A) (A) (A) (A) (A) (A) (A) (A)
                 (A) (A) (A) (A) (A) (A) (A) (A) (A) (A) (A) (A)
                 (A) (A) (A) (A) (A) (A) (A) (A) (A) (A) (A) (A)
                 (A) (A) (A) (A) (A) (A) (A) (A) (A) (A) (A) (A)
                 (A) (A) (A) (A) (A) (A) (A) (A) (A) (A) (A) (A)
                 (A) (A) (A) (A) (A) (A) (A) (A) (A) (A) (A) (A)
                 (A) (A) (A) (A) (A) (A) (A) (A) (A) (A) (A) (A)
                 (A) (A) (A) (A) (A) (A) (A) (A) (A) (A) (A) (A)
                 (A) (A) (A) (A) (A) (A) (A) (A) (A) (A) (A) (A)
                 (A) (A) (A) (A) (A) (A) (A) (A) (A) (A) (A) (A)
                 (A) (A) (A) (A) (A) (A) (A) (A) (A) (A) (A) (A)
                 (A) (A) (A) (A) (A) (A) (A) (A) (A) (A) (A) (A)
                 (A) (A) (A) (A) (A) (A) (A) (A) (A) (A) (A) (A)
                 (A) (A) (A) (A) (A) (A) (A) (A) (A) (A) (A) (A)
                 (A) (A) (A) (A) (A) (A) (A) (A) (A) (A) (A) (A)
                 (A) (A) (A) (A) (A) (A) (A) (A) (A) (A) (A) (A)
                 (A) (A) (A) (A) (A) (A) (A) (A) (A) (A) (A) (A)
                 (A) (A) (A) (A) (A) (A) (A) (A) (A) (A) (A) (A)
                 (A) (A) (A) (A) (A) (A) (A) (A) (A) (A) (A) (A)
                 (A) (A) (A) (A) (A) (A) (A) (A) (A) (A) (A) (A)
                 (A) (A) (A) (A) (A) (A) (A) (A) (A) (A) (A) (A)
                 (A) (A) (A) (A) (A) (A) (A) (A) (A) (A) (A) (A)
                 (A) (A) (A) (A) (A) (A) (A) (A) (A) (A) (A) (A)
                 (A) (A) (A) (A) (A) (A) (A) (A) (A) (A) (A) (A)
                 (A) (A) (A) (A) (A) (A) (A) (A) (A) (A) (A) (A)
                 (A) (A) (A) (A) (A) (A) (A) (A) (A) (A) (A) (A)
                 (A) (A) (A) (A) (A) (A) (A) (A) (A) (A) (A) (A)
                 (A) (A) (A) (A) (A) (A) (A) (A) (A) (A) (A) (A)
                 (A) (A) (A) (A) (A) (A) (A) (A) (A) (A) (A) (A)
                 (A) (A) (A) (A) (A) (A) (A) (A) (A) (A) (A) (A)
                 (A) (A) (A) (A) (A) (A) (A) (A) (A) (A) (A) (A)
                 (A) (A) (A) (A) (A) (A) (A) (A) (A) (A) (A) (A)
                 (A) (A) (A) (A) (A) (A) (A) (A) (A) (A) (A) (A)
                 (A) (A) (A) (A) (A) (A) (A) (A) (A) (A) (A) (A)
                 (A) (A) (A) (A) (A) (A) (A) (A) (A) (A) (A) (A)
                 (A) (A) (A) (A) (A) (A) (A) (A) (A) (A) (A) (A)
                 (A) (A) (A) (A) (A) (A) (A) (A) (A) (A) (A) (A)
                 (A) (A) (A) (A) (A) (A) (A) (A) (A) (A) (A) (A)
                 (A) (A) (A) (A) (A) (A) (A) (A) (A) (A) (A) (A)
                 (A) (A) (A) (A) (A) (A) (A) (A) (A) (A) (A) (A)
                 (A) (A) (A) (A) (A) (A) (A) (A) (A) (A) (A) (A)
                 (A) (A) (A) (A) (A) (A) (A) (A) (A) (A) (A) (A)
                 (A) (A) (A) (A) (A) (A) (A) (A) (A) (A) (A) (A)
                 (A) (A) (A) (A) (A) (A) (A) (A) (A) (A) (A) (A)
                 (A) (A) (A) (A) (A) (A) (A) (A) (A) (A) (A) (A)
                 (A) (A) (A) (A) (A) (A) (A) (A) (A) (A) (A) (A)
                 (A) (A) (A) (A) (A) (A) (A) (A) (A) (A) (A) (A)
                 (A)
 The electronic state is 1-A.
 Alpha  occ. eigenvalues --  -25.20436 -25.20435 -19.66097 -19.65997 -14.78581
 Alpha  occ. eigenvalues --  -14.78456 -14.77235 -10.61761 -10.61635 -10.60519
 Alpha  occ. eigenvalues --  -10.60405 -10.60383 -10.60250 -10.60033 -10.59283
 Alpha  occ. eigenvalues --  -10.59063 -10.58898 -10.57951 -10.57945 -10.57151
 Alpha  occ. eigenvalues --  -10.57149 -10.57083 -10.57057 -10.57034 -10.56997
 Alpha  occ. eigenvalues --  -10.56367 -10.56043 -10.56022 -10.55948 -10.55945
 Alpha  occ. eigenvalues --  -10.55866 -10.55528 -10.55522 -10.55497 -10.55480
 Alpha  occ. eigenvalues --  -10.55332 -10.55297 -10.54871 -10.54812 -10.54714
 Alpha  occ. eigenvalues --  -10.54620 -10.54285 -10.54212 -10.54142 -10.54117
 Alpha  occ. eigenvalues --  -10.53468 -10.53444 -10.53400 -10.53327 -10.52920
 Alpha  occ. eigenvalues --  -10.52881 -10.52397 -10.52381 -10.52054 -10.52022
 Alpha  occ. eigenvalues --  -10.52018 -10.52004  -7.13242  -1.32349  -1.29136
 Alpha  occ. eigenvalues --   -1.19121  -1.19016  -1.10554  -1.08621  -1.03272
 Alpha  occ. eigenvalues --   -0.99811  -0.97516  -0.97452  -0.94483  -0.93418
 Alpha  occ. eigenvalues --   -0.93374  -0.92207  -0.92059  -0.91220  -0.90551
 Alpha  occ. eigenvalues --   -0.89408  -0.89264  -0.87430  -0.87080  -0.84928
 Alpha  occ. eigenvalues --   -0.83574  -0.83386  -0.83189  -0.81141  -0.81051
 Alpha  occ. eigenvalues --   -0.78874  -0.78633  -0.78599  -0.78250  -0.78198
 Alpha  occ. eigenvalues --   -0.77693  -0.77350  -0.77287  -0.77280  -0.76593
 Alpha  occ. eigenvalues --   -0.73546  -0.72798  -0.72272  -0.71571  -0.70987
 Alpha  occ. eigenvalues --   -0.70212  -0.69533  -0.68546  -0.66675  -0.65562
 Alpha  occ. eigenvalues --   -0.65318  -0.64826  -0.64570  -0.63397  -0.63375
 Alpha  occ. eigenvalues --   -0.62206  -0.61529  -0.60969  -0.60400  -0.60076
 Alpha  occ. eigenvalues --   -0.59919  -0.58395  -0.58101  -0.57106  -0.56609
 Alpha  occ. eigenvalues --   -0.56407  -0.55960  -0.54873  -0.54152  -0.53542
 Alpha  occ. eigenvalues --   -0.53326  -0.53258  -0.53039  -0.52733  -0.52358
 Alpha  occ. eigenvalues --   -0.52102  -0.51954  -0.51907  -0.51892  -0.51668
 Alpha  occ. eigenvalues --   -0.51410  -0.51187  -0.51172  -0.50818  -0.50748
 Alpha  occ. eigenvalues --   -0.50459  -0.50448  -0.50284  -0.49987  -0.49507
 Alpha  occ. eigenvalues --   -0.49401  -0.49064  -0.48817  -0.48387  -0.48098
 Alpha  occ. eigenvalues --   -0.47950  -0.47789  -0.47462  -0.47010  -0.46691
 Alpha  occ. eigenvalues --   -0.46544  -0.45998  -0.45882  -0.45852  -0.45832
 Alpha  occ. eigenvalues --   -0.45572  -0.45247  -0.45013  -0.44966  -0.44730
 Alpha  occ. eigenvalues --   -0.44563  -0.44466  -0.44406  -0.44291  -0.44271
 Alpha  occ. eigenvalues --   -0.44219  -0.43701  -0.43651  -0.43422  -0.43355
 Alpha  occ. eigenvalues --   -0.43205  -0.42945  -0.42611  -0.42544  -0.42237
 Alpha  occ. eigenvalues --   -0.42122  -0.42073  -0.41780  -0.41275  -0.40651
 Alpha  occ. eigenvalues --   -0.40199  -0.40142  -0.40085  -0.39874  -0.39211
 Alpha  occ. eigenvalues --   -0.39101  -0.38767  -0.38695  -0.38296  -0.37804
 Alpha  occ. eigenvalues --   -0.37695  -0.36724  -0.36709  -0.35949  -0.33825
 Alpha  occ. eigenvalues --   -0.33185  -0.32711  -0.32222  -0.31323  -0.30694
 Alpha  occ. eigenvalues --   -0.30471  -0.28847  -0.26604  -0.23180
 Alpha virt. eigenvalues --   -0.09565  -0.03910  -0.02834  -0.00989  -0.00705
 Alpha virt. eigenvalues --    0.01641   0.01706   0.04626   0.04803   0.05426
 Alpha virt. eigenvalues --    0.05482   0.05667   0.05976   0.06640   0.06761
 Alpha virt. eigenvalues --    0.07247   0.07845   0.07896   0.08267   0.08568
 Alpha virt. eigenvalues --    0.08652   0.09087   0.09343   0.09682   0.09786
 Alpha virt. eigenvalues --    0.10103   0.10244   0.10353   0.10478   0.10812
 Alpha virt. eigenvalues --    0.11011   0.11066   0.11264   0.11449   0.11620
 Alpha virt. eigenvalues --    0.11828   0.11971   0.12312   0.12379   0.12509
 Alpha virt. eigenvalues --    0.12720   0.12953   0.13018   0.13117   0.13376
 Alpha virt. eigenvalues --    0.13398   0.13564   0.13774   0.13880   0.14049
 Alpha virt. eigenvalues --    0.14178   0.14324   0.14430   0.14639   0.15074
 Alpha virt. eigenvalues --    0.15274   0.15373   0.15514   0.15724   0.16055
 Alpha virt. eigenvalues --    0.16172   0.16763   0.16837   0.16945   0.17226
 Alpha virt. eigenvalues --    0.17340   0.17397   0.17519   0.17593   0.17654
 Alpha virt. eigenvalues --    0.18049   0.18066   0.18217   0.18479   0.18629
 Alpha virt. eigenvalues --    0.18979   0.19100   0.19168   0.19250   0.19353
 Alpha virt. eigenvalues --    0.19389   0.19454   0.19505   0.19624   0.19673
 Alpha virt. eigenvalues --    0.19858   0.19932   0.20085   0.20139   0.20356
 Alpha virt. eigenvalues --    0.20523   0.20668   0.21006   0.21087   0.21406
 Alpha virt. eigenvalues --    0.21593   0.21781   0.21966   0.22093   0.22157
 Alpha virt. eigenvalues --    0.22217   0.22366   0.22476   0.22545   0.22733
 Alpha virt. eigenvalues --    0.22880   0.22991   0.23155   0.23443   0.23685
 Alpha virt. eigenvalues --    0.23933   0.24142   0.24182   0.24484   0.24836
 Alpha virt. eigenvalues --    0.25014   0.25157   0.25612   0.25932   0.25970
 Alpha virt. eigenvalues --    0.26347   0.26492   0.26797   0.26928   0.27023
 Alpha virt. eigenvalues --    0.27257   0.27410   0.27535   0.27713   0.27774
 Alpha virt. eigenvalues --    0.28207   0.28383   0.28757   0.28778   0.28914
 Alpha virt. eigenvalues --    0.29088   0.29293   0.29418   0.29801   0.29856
 Alpha virt. eigenvalues --    0.30020   0.30145   0.30345   0.30477   0.30652
 Alpha virt. eigenvalues --    0.30733   0.30893   0.31038   0.31112   0.31365
 Alpha virt. eigenvalues --    0.31587   0.31866   0.32147   0.32316   0.32473
 Alpha virt. eigenvalues --    0.32829   0.32878   0.33064   0.33166   0.33333
 Alpha virt. eigenvalues --    0.33520   0.33654   0.33715   0.33813   0.34033
 Alpha virt. eigenvalues --    0.34114   0.34747   0.34971   0.35226   0.35348
 Alpha virt. eigenvalues --    0.35437   0.35749   0.35804   0.35987   0.36070
 Alpha virt. eigenvalues --    0.36150   0.36408   0.36466   0.36631   0.36798
 Alpha virt. eigenvalues --    0.36934   0.37115   0.37306   0.37426   0.37670
 Alpha virt. eigenvalues --    0.37890   0.38032   0.38162   0.38351   0.38397
 Alpha virt. eigenvalues --    0.38780   0.39040   0.39076   0.39240   0.39369
 Alpha virt. eigenvalues --    0.39714   0.39806   0.39895   0.40111   0.40195
 Alpha virt. eigenvalues --    0.40407   0.40712   0.40781   0.40897   0.41082
 Alpha virt. eigenvalues --    0.41260   0.41481   0.41542   0.41841   0.42144
 Alpha virt. eigenvalues --    0.42269   0.42345   0.42540   0.42714   0.42855
 Alpha virt. eigenvalues --    0.43032   0.43246   0.43334   0.43510   0.43646
 Alpha virt. eigenvalues --    0.43725   0.43936   0.44038   0.44135   0.44270
 Alpha virt. eigenvalues --    0.44436   0.44602   0.44640   0.44916   0.45074
 Alpha virt. eigenvalues --    0.45318   0.45432   0.45433   0.45680   0.45765
 Alpha virt. eigenvalues --    0.46077   0.46303   0.46524   0.46653   0.46847
 Alpha virt. eigenvalues --    0.46921   0.47157   0.47337   0.47413   0.47595
 Alpha virt. eigenvalues --    0.47628   0.47795   0.47873   0.47942   0.48092
 Alpha virt. eigenvalues --    0.48371   0.48412   0.48424   0.48654   0.48753
 Alpha virt. eigenvalues --    0.48855   0.48916   0.49019   0.49175   0.49250
 Alpha virt. eigenvalues --    0.49478   0.49532   0.49601   0.49740   0.49830
 Alpha virt. eigenvalues --    0.49980   0.50014   0.50213   0.50335   0.50493
 Alpha virt. eigenvalues --    0.50544   0.50670   0.50813   0.50977   0.51028
 Alpha virt. eigenvalues --    0.51264   0.51460   0.51588   0.51662   0.51773
 Alpha virt. eigenvalues --    0.51925   0.52241   0.52321   0.52418   0.52590
 Alpha virt. eigenvalues --    0.52680   0.52988   0.53058   0.53158   0.53215
 Alpha virt. eigenvalues --    0.53419   0.53585   0.53880   0.53958   0.54140
 Alpha virt. eigenvalues --    0.54293   0.54550   0.54636   0.54807   0.54944
 Alpha virt. eigenvalues --    0.55141   0.55185   0.55468   0.55716   0.55990
 Alpha virt. eigenvalues --    0.56059   0.56286   0.56468   0.56578   0.56782
 Alpha virt. eigenvalues --    0.56899   0.57105   0.57281   0.57721   0.57924
 Alpha virt. eigenvalues --    0.58427   0.58854   0.59005   0.59231   0.59648
 Alpha virt. eigenvalues --    0.59914   0.60241   0.60681   0.60840   0.61023
 Alpha virt. eigenvalues --    0.61327   0.61398   0.61635   0.61920   0.62126
 Alpha virt. eigenvalues --    0.62266   0.62539   0.62718   0.62848   0.63037
 Alpha virt. eigenvalues --    0.63162   0.63247   0.63299   0.63408   0.63717
 Alpha virt. eigenvalues --    0.63790   0.63913   0.64208   0.64410   0.64675
 Alpha virt. eigenvalues --    0.64951   0.65176   0.65383   0.65587   0.65718
 Alpha virt. eigenvalues --    0.65977   0.66068   0.66288   0.66806   0.66887
 Alpha virt. eigenvalues --    0.67002   0.67416   0.67560   0.67898   0.68223
 Alpha virt. eigenvalues --    0.68397   0.68620   0.68709   0.68909   0.68969
 Alpha virt. eigenvalues --    0.69123   0.69475   0.69491   0.69779   0.69871
 Alpha virt. eigenvalues --    0.70296   0.70502   0.70588   0.70870   0.70929
 Alpha virt. eigenvalues --    0.71254   0.71391   0.71495   0.72126   0.72385
 Alpha virt. eigenvalues --    0.72461   0.72690   0.72875   0.73049   0.73218
 Alpha virt. eigenvalues --    0.73397   0.73598   0.73802   0.73986   0.74226
 Alpha virt. eigenvalues --    0.74596   0.74846   0.75235   0.75457   0.75489
 Alpha virt. eigenvalues --    0.75763   0.76114   0.76175   0.76332   0.76635
 Alpha virt. eigenvalues --    0.76665   0.76938   0.77036   0.77122   0.77413
 Alpha virt. eigenvalues --    0.77488   0.77744   0.78263   0.78299   0.78544
 Alpha virt. eigenvalues --    0.78848   0.79012   0.79128   0.79573   0.79643
 Alpha virt. eigenvalues --    0.80002   0.80251   0.80755   0.81027   0.81118
 Alpha virt. eigenvalues --    0.81267   0.81382   0.81747   0.81948   0.82185
 Alpha virt. eigenvalues --    0.82307   0.82435   0.82642   0.82937   0.83025
 Alpha virt. eigenvalues --    0.83129   0.83279   0.83589   0.83658   0.83920
 Alpha virt. eigenvalues --    0.84275   0.84516   0.84739   0.84962   0.85240
 Alpha virt. eigenvalues --    0.85512   0.85636   0.85916   0.86078   0.86211
 Alpha virt. eigenvalues --    0.86370   0.86548   0.86966   0.86999   0.87393
 Alpha virt. eigenvalues --    0.87555   0.87995   0.88092   0.88293   0.88669
 Alpha virt. eigenvalues --    0.88889   0.89064   0.89372   0.89493   0.89836
 Alpha virt. eigenvalues --    0.89923   0.90407   0.90626   0.90699   0.90777
 Alpha virt. eigenvalues --    0.90891   0.91049   0.91305   0.91468   0.91780
 Alpha virt. eigenvalues --    0.91998   0.92050   0.92272   0.92681   0.92930
 Alpha virt. eigenvalues --    0.93305   0.93432   0.93498   0.93940   0.93981
 Alpha virt. eigenvalues --    0.94127   0.94628   0.95108   0.95237   0.95602
 Alpha virt. eigenvalues --    0.95987   0.96233   0.96412   0.96544   0.96626
 Alpha virt. eigenvalues --    0.96723   0.96892   0.97057   0.97278   0.97330
 Alpha virt. eigenvalues --    0.97545   0.97668   0.97736   0.97985   0.98110
 Alpha virt. eigenvalues --    0.98243   0.98533   0.98881   0.99034   0.99406
 Alpha virt. eigenvalues --    0.99680   0.99724   1.00144   1.00249   1.00450
 Alpha virt. eigenvalues --    1.00651   1.00920   1.01005   1.01054   1.01139
 Alpha virt. eigenvalues --    1.01220   1.01329   1.01755   1.02003   1.02149
 Alpha virt. eigenvalues --    1.02422   1.02720   1.02763   1.03115   1.03147
 Alpha virt. eigenvalues --    1.03364   1.03672   1.03853   1.04165   1.04340
 Alpha virt. eigenvalues --    1.04448   1.04679   1.05179   1.05382   1.05654
 Alpha virt. eigenvalues --    1.05901   1.06145   1.06291   1.06393   1.06852
 Alpha virt. eigenvalues --    1.06894   1.07022   1.07238   1.07293   1.07452
 Alpha virt. eigenvalues --    1.07800   1.08195   1.08324   1.08408   1.08595
 Alpha virt. eigenvalues --    1.08658   1.08902   1.09137   1.09315   1.09606
 Alpha virt. eigenvalues --    1.09798   1.09950   1.10103   1.10316   1.10616
 Alpha virt. eigenvalues --    1.10929   1.11008   1.11216   1.11360   1.11650
 Alpha virt. eigenvalues --    1.11777   1.11912   1.12069   1.12266   1.12676
 Alpha virt. eigenvalues --    1.12870   1.13063   1.13262   1.13357   1.13877
 Alpha virt. eigenvalues --    1.14026   1.14123   1.14238   1.14472   1.14585
 Alpha virt. eigenvalues --    1.14905   1.15012   1.15229   1.15461   1.15561
 Alpha virt. eigenvalues --    1.15781   1.16148   1.16398   1.16473   1.16718
 Alpha virt. eigenvalues --    1.16896   1.17146   1.17273   1.17750   1.17845
 Alpha virt. eigenvalues --    1.18044   1.18199   1.18577   1.18833   1.19128
 Alpha virt. eigenvalues --    1.19349   1.19370   1.19635   1.19809   1.19964
 Alpha virt. eigenvalues --    1.20272   1.20359   1.20506   1.21088   1.21292
 Alpha virt. eigenvalues --    1.21368   1.21519   1.21888   1.22128   1.22480
 Alpha virt. eigenvalues --    1.22616   1.22906   1.23245   1.23374   1.23406
 Alpha virt. eigenvalues --    1.23880   1.24222   1.24361   1.24556   1.24726
 Alpha virt. eigenvalues --    1.25012   1.25074   1.25201   1.25550   1.25634
 Alpha virt. eigenvalues --    1.25699   1.25867   1.26255   1.26371   1.26622
 Alpha virt. eigenvalues --    1.26746   1.26936   1.27039   1.27204   1.27567
 Alpha virt. eigenvalues --    1.27967   1.28275   1.28347   1.28500   1.28739
 Alpha virt. eigenvalues --    1.28976   1.29022   1.29091   1.29339   1.29988
 Alpha virt. eigenvalues --    1.30152   1.30281   1.30505   1.31125   1.31189
 Alpha virt. eigenvalues --    1.31255   1.31409   1.31510   1.31689   1.32054
 Alpha virt. eigenvalues --    1.32397   1.32634   1.32852   1.32912   1.33498
 Alpha virt. eigenvalues --    1.33554   1.33693   1.33838   1.34034   1.34139
 Alpha virt. eigenvalues --    1.34369   1.34433   1.34707   1.34975   1.35027
 Alpha virt. eigenvalues --    1.35336   1.35528   1.35662   1.35754   1.35945
 Alpha virt. eigenvalues --    1.36162   1.36354   1.36538   1.36936   1.37054
 Alpha virt. eigenvalues --    1.37197   1.37277   1.37648   1.37790   1.37885
 Alpha virt. eigenvalues --    1.38020   1.38092   1.38431   1.38459   1.38898
 Alpha virt. eigenvalues --    1.39350   1.39584   1.39855   1.40069   1.40374
 Alpha virt. eigenvalues --    1.40717   1.41184   1.41240   1.41519   1.41792
 Alpha virt. eigenvalues --    1.42031   1.42214   1.42415   1.43123   1.43444
 Alpha virt. eigenvalues --    1.43555   1.43915   1.44156   1.44296   1.44411
 Alpha virt. eigenvalues --    1.44818   1.44920   1.45248   1.45300   1.45584
[...]
 Alpha virt. eigenvalues --    4.14596   4.14841   4.15017   4.15152   4.15302
 Alpha virt. eigenvalues --    4.15394   4.15603   4.15646   4.15810   4.16206
 Alpha virt. eigenvalues --    4.16413   4.16487   4.16717   4.16864   4.17073
 Alpha virt. eigenvalues --    4.17225   4.17421   4.17541   4.17730   4.17990
 Alpha virt. eigenvalues --    4.18080   4.18331   4.18400   4.18846   4.18887
 Alpha virt. eigenvalues --    4.19134   4.19240   4.19656   4.19777   4.20075
 Alpha virt. eigenvalues --    4.20142   4.20225   4.20386   4.20954   4.21258
 Alpha virt. eigenvalues --    4.21454   4.21493   4.21958   4.22006   4.22353
 Alpha virt. eigenvalues --    4.22595   4.22640   4.22731   4.22916   4.23267
 Alpha virt. eigenvalues --    4.23308   4.23543   4.23789   4.23903   4.24153
 Alpha virt. eigenvalues --    4.24516   4.24720   4.24991   4.25081   4.25280
 Alpha virt. eigenvalues --    4.25456   4.25777   4.26082   4.26399   4.26811
 Alpha virt. eigenvalues --    4.27071   4.27137   4.27326   4.27900   4.28083
 Alpha virt. eigenvalues --    4.28348   4.28860   4.29039   4.29478   4.29642
 Alpha virt. eigenvalues --    4.30064   4.30347   4.30680   4.30936   4.31258
 Alpha virt. eigenvalues --    4.31524   4.31799   4.32151   4.32208   4.32626
 Alpha virt. eigenvalues --    4.32874   4.33497   4.33702   4.33865   4.34272
 Alpha virt. eigenvalues --    4.34412   4.34680   4.34860   4.34999   4.35237
 Alpha virt. eigenvalues --    4.35547   4.36088   4.36267   4.36561   4.37001
 Alpha virt. eigenvalues --    4.37233   4.37350   4.37803   4.37892   4.38537
 Alpha virt. eigenvalues --    4.38762   4.38983   4.39251   4.39477   4.40237
 Alpha virt. eigenvalues --    4.40548   4.40814   4.41107   4.41518   4.41691
 Alpha virt. eigenvalues --    4.41901   4.42556   4.42892   4.43522   4.43629
 Alpha virt. eigenvalues --    4.44033   4.44324   4.44643   4.45081   4.45407
 Alpha virt. eigenvalues --    4.45886   4.46272   4.46495   4.46582   4.46911
 Alpha virt. eigenvalues --    4.47093   4.47950   4.48014   4.48705   4.49584
 Alpha virt. eigenvalues --    4.49780   4.50065   4.50422   4.50692   4.51210
 Alpha virt. eigenvalues --    4.51313   4.51645   4.51940   4.52236   4.52615
 Alpha virt. eigenvalues --    4.52859   4.53606   4.53732   4.54310   4.54805
 Alpha virt. eigenvalues --    4.55168   4.55310   4.55615   4.55649   4.55776
 Alpha virt. eigenvalues --    4.55872   4.56113   4.56251   4.56365   4.56832
 Alpha virt. eigenvalues --    4.57567   4.57727   4.57795   4.57952   4.58386
 Alpha virt. eigenvalues --    4.58765   4.58963   4.59266   4.59352   4.59742
 Alpha virt. eigenvalues --    4.59857   4.60213   4.60604   4.60673   4.60819
 Alpha virt. eigenvalues --    4.60916   4.61220   4.61861   4.62082   4.62210
 Alpha virt. eigenvalues --    4.62481   4.62753   4.62951   4.63224   4.63327
 Alpha virt. eigenvalues --    4.63744   4.63887   4.64222   4.64432   4.64913
 Alpha virt. eigenvalues --    4.65101   4.65189   4.65509   4.65553   4.65687
 Alpha virt. eigenvalues --    4.66178   4.66621   4.66701   4.67502   4.68299
 Alpha virt. eigenvalues --    4.68641   4.69182   4.69508   4.69527   4.69629
 Alpha virt. eigenvalues --    4.69819   4.70376   4.70621   4.71138   4.71423
 Alpha virt. eigenvalues --    4.71458   4.72058   4.72312   4.72550   4.72810
 Alpha virt. eigenvalues --    4.73393   4.73460   4.73689   4.73861   4.74097
 Alpha virt. eigenvalues --    4.74503   4.74591   4.74816   4.75055   4.75091
 Alpha virt. eigenvalues --    4.75484   4.75530   4.75602   4.75655   4.75905
 Alpha virt. eigenvalues --    4.76566   4.76998   4.77526   4.77938   4.78098
 Alpha virt. eigenvalues --    4.78341   4.78855   4.78956   4.79302   4.79480
 Alpha virt. eigenvalues --    4.80210   4.80615   4.80937   4.81046   4.81554
 Alpha virt. eigenvalues --    4.81628   4.82735   4.82931   4.83284   4.83881
 Alpha virt. eigenvalues --    4.84155   4.84239   4.84723   4.84925   4.85855
 Alpha virt. eigenvalues --    4.86029   4.86476   4.86807   4.87848   4.88452
 Alpha virt. eigenvalues --    4.88796   4.88974   4.90539   4.91242   4.91307
 Alpha virt. eigenvalues --    4.91907   4.92466   4.93260   4.93946   4.94328
 Alpha virt. eigenvalues --    4.94960   4.95255   4.95632   4.95745   4.96148
 Alpha virt. eigenvalues --    4.97005   4.97725   4.98105   4.98185   4.99056
 Alpha virt. eigenvalues --    4.99543   5.00271   5.00589   5.00805   5.01059
 Alpha virt. eigenvalues --    5.01519   5.02219   5.02776   5.03330   5.03947
 Alpha virt. eigenvalues --    5.04336   5.04498   5.04634   5.04890   5.05291
 Alpha virt. eigenvalues --    5.05786   5.06372   5.06586   5.06891   5.07071
 Alpha virt. eigenvalues --    5.07221   5.07309   5.07967   5.08085   5.08350
 Alpha virt. eigenvalues --    5.08637   5.09371   5.09688   5.09747   5.09791
 Alpha virt. eigenvalues --    5.09911   5.10531   5.11112   5.11894   5.12821
 Alpha virt. eigenvalues --    5.12915   5.13339   5.13381   5.13751   5.13969
 Alpha virt. eigenvalues --    5.14349   5.14960   5.15379   5.15666   5.15722
 Alpha virt. eigenvalues --    5.15911   5.16862   5.16943   5.17147   5.17556
 Alpha virt. eigenvalues --    5.17589   5.17849   5.17998   5.18156   5.18304
 Alpha virt. eigenvalues --    5.18636   5.19223   5.19834   5.20305   5.20563
 Alpha virt. eigenvalues --    5.20803   5.20857   5.21142   5.21606   5.21634
 Alpha virt. eigenvalues --    5.22057   5.22501   5.22660   5.23082   5.23599
 Alpha virt. eigenvalues --    5.23928   5.24176   5.24382   5.25239   5.25370
 Alpha virt. eigenvalues --    5.25792   5.26304   5.26572   5.28120   5.28963
 Alpha virt. eigenvalues --    5.29127   5.29135   5.29809   5.29863   5.30018
 Alpha virt. eigenvalues --    5.30572   5.30617   5.31044   5.31290   5.31749
 Alpha virt. eigenvalues --    5.31827   5.31945   5.32030   5.32484   5.32685
 Alpha virt. eigenvalues --    5.32767   5.32923   5.33058   5.33214   5.33380
 Alpha virt. eigenvalues --    5.33654   5.33795   5.34084   5.34330   5.34929
 Alpha virt. eigenvalues --    5.35192   5.35451   5.35852   5.35932   5.36151
 Alpha virt. eigenvalues --    5.36494   5.36660   5.37052   5.37508   5.37816
 Alpha virt. eigenvalues --    5.37953   5.38032   5.38144   5.38456   5.38871
 Alpha virt. eigenvalues --    5.39193   5.40062   5.40157   5.40557   5.40715
 Alpha virt. eigenvalues --    5.41119   5.41824   5.42248   5.42553   5.42745
 Alpha virt. eigenvalues --    5.43806   5.44203   5.44953   5.45166   5.45747
 Alpha virt. eigenvalues --    5.45921   5.46060   5.46346   5.47142   5.47410
 Alpha virt. eigenvalues --    5.47505   5.48170   5.48343   5.48430   5.48680
 Alpha virt. eigenvalues --    5.49019   5.49191   5.49501   5.50175   5.50420
 Alpha virt. eigenvalues --    5.50798   5.50924   5.51705   5.51947   5.52852
 Alpha virt. eigenvalues --    5.53592   5.53846   5.54211   5.54813   5.56477
 Alpha virt. eigenvalues --    5.57377   5.58548   5.58814   5.60442   5.60745
 Alpha virt. eigenvalues --    5.60823   5.61209   5.61806   5.62282   5.62437
 Alpha virt. eigenvalues --    5.62868   5.62947   5.63063   5.63108   5.63252
 Alpha virt. eigenvalues --    5.63281   5.63679   5.63699   5.64578   5.65047
 Alpha virt. eigenvalues --    5.65866   5.66388   5.66991   5.67235   5.67898
 Alpha virt. eigenvalues --    5.68142   5.68208   5.68411   5.68770   5.68810
 Alpha virt. eigenvalues --    5.68912   5.68973   5.69158   5.69329   5.70034
 Alpha virt. eigenvalues --    5.70475   5.70585   5.70700   5.71184   5.71736
 Alpha virt. eigenvalues --    5.71821   5.72081   5.72169   5.73133   5.73296
 Alpha virt. eigenvalues --    5.73345   5.73975   5.74492   5.75784   5.77246
 Alpha virt. eigenvalues --    5.79183   5.80531   5.81007   5.82737   5.83174
 Alpha virt. eigenvalues --    5.83319   5.84015   5.84475   5.84926   5.89977
 Alpha virt. eigenvalues --    5.92759   5.93910   5.94216   5.95433   5.96673
 Alpha virt. eigenvalues --    5.99392   6.00606   6.03942   6.08843   6.08856
 Alpha virt. eigenvalues --    6.19462   6.20499   6.21728   6.25042   6.28767
 Alpha virt. eigenvalues --    6.35883   6.43311   6.46319   6.51388   6.51872
 Alpha virt. eigenvalues --    6.64992   6.65337   6.80891   6.81364   6.82533
 Alpha virt. eigenvalues --    6.82631   6.89622   6.89689   6.94256   6.95529
 Alpha virt. eigenvalues --    6.97404   6.98992   6.99767   7.00746   7.05204
 Alpha virt. eigenvalues --    7.11587   7.17586   7.18860   7.18946   7.22201
 Alpha virt. eigenvalues --    7.24454   7.27231   7.33588   7.34546   7.48298
 Alpha virt. eigenvalues --    7.48695   7.57034   7.57644   8.46365   8.49022
 Alpha virt. eigenvalues --    8.56784   8.61090   8.82335   8.87797   8.91204
 Alpha virt. eigenvalues --    8.92580   8.93516   9.01159  15.86651  22.76270
 Alpha virt. eigenvalues --   22.79647  22.91409  22.92250  22.99532  23.00314
 Alpha virt. eigenvalues --   23.00634  23.06846  23.10511  23.12073  23.14589
 Alpha virt. eigenvalues --   23.17971  23.18317  23.21206  23.23039  23.23565
 Alpha virt. eigenvalues --   23.24057  23.27640  23.30252  23.31368  23.32247
 Alpha virt. eigenvalues --   23.34860  23.35212  23.37572  23.43351  23.44737
 Alpha virt. eigenvalues --   23.49068  23.55398  23.56124  23.58309  23.64606
 Alpha virt. eigenvalues --   23.67362  23.67502  23.69807  23.70165  23.71907
 Alpha virt. eigenvalues --   23.77366  23.77447  23.77682  23.79990  23.81305
 Alpha virt. eigenvalues --   23.85455  23.87807  23.88708  23.90937  23.91619
 Alpha virt. eigenvalues --   23.92460  24.09025  24.09889  24.25957  32.20011
 Alpha virt. eigenvalues --   33.15081  33.28246  44.46005  44.46059  57.39438
 Alpha virt. eigenvalues --   57.58922
          Condensed to atoms (all electrons):
 Mulliken charges:
               1
     1  C   -0.430829
     2  C   -0.006144
     3  C   -0.082203
     4  C   -0.025448
     5  C   -0.066410
     6  C   -0.136437
     7  C   -0.042213
     8  C    0.016452
     9  C   -0.137637
    10  C    0.023535
    11  C   -0.463254
    12  C   -0.390222
    13  C   -0.390312
    14  C    0.254919
    15  O   -0.384677
    16  C   -0.115191
    17  C   -0.090919
    18  C   -0.472139
    19  C   -0.348596
    20  C   -0.347664
    21  C   -0.058615
    22  N   -0.105191
    23  C    0.085138
    24  C    0.138098
    25  C   -0.251394
    26  C   -0.150795
    27  C   -0.076064
    28  C    0.108955
    29  C   -0.196977
    30  N   -0.072686
    31  C   -0.070441
    32  C   -0.170317
    33  C    0.086511
    34  C    0.054421
    35  C   -0.445992
    36  C   -0.181561
    37  C    0.050681
    38  C   -0.181884
    39  C   -0.122504
    40  C   -0.034868
    41  C   -0.165131
    42  C   -0.065645
    43  C    0.019485
    44  C   -0.393489
    45  C   -0.386733
    46  C   -0.445889
    47  C    0.233322
    48  O   -0.386321
    49  C   -0.113252
    50  C   -0.082972
    51  C   -0.468693
    52  C   -0.348077
    53  C   -0.348616
    54  C   -0.020290
    55  N   -0.096790
    56  B    0.357454
    57  F   -0.351613
    58  F   -0.345328
    59  H    0.159563
    60  H    0.163095
    61  H    0.132322
    62  H    0.161534
    63  H    0.096898
    64  H    0.130915
    65  H    0.148302
    66  H    0.142139
    67  H    0.136470
    68  H    0.142242
    69  H    0.136387
    70  H    0.148363
    71  H    0.127604
    72  H    0.148294
    73  H    0.136338
    74  H    0.127711
    75  H    0.257304
    76  H    0.147257
    77  H    0.147484
    78  H    0.144942
    79  H    0.147922
    80  H    0.137028
    81  H    0.119561
    82  H    0.137060
    83  H    0.147944
    84  H    0.118810
    85  H    0.168140
    86  H    0.175536
    87  H    0.173699
    88  H    0.173875
    89  H    0.179967
    90  H    0.171323
    91  H    0.131631
    92  H    0.158408
    93  H    0.194605
    94  H    0.148522
    95  H    0.134454
    96  H    0.208195
    97  H    0.148899
    98  H    0.136933
    99  H    0.127748
   100  H    0.131260
   101  H    0.148529
   102  H    0.127917
   103  H    0.124430
   104  H    0.138837
   105  H    0.145750
   106  H    0.256507
   107  H    0.147554
   108  H    0.146916
   109  H    0.141794
   110  H    0.137310
   111  H    0.147867
   112  H    0.117243
   113  H    0.146969
   114  H    0.136742
   115  H    0.121106
   116  H    0.147295
 Sum of Mulliken charges =  -0.00000
 Mulliken charges with hydrogens summed into heavy atoms:
               1
     1  C    0.024152
     2  C   -0.006144
     3  C    0.079331
     4  C   -0.025448
     5  C    0.030488
     6  C   -0.005522
     7  C   -0.042213
     8  C    0.164754
     9  C   -0.137637
    10  C    0.023535
    11  C   -0.042403
    12  C    0.022132
    13  C    0.022031
    14  C    0.254919
    15  O   -0.127373
    16  C   -0.115191
    17  C   -0.090919
    18  C   -0.032456
    19  C    0.055916
    20  C    0.056150
    21  C    0.109524
    22  N   -0.105191
    23  C    0.085138
    24  C    0.138098
    25  C   -0.251394
    26  C    0.024741
    27  C    0.097635
    28  C    0.108955
    29  C   -0.196977
    30  N   -0.072686
    31  C    0.103433
    32  C    0.009650
    33  C    0.086511
    34  C    0.054421
    35  C    0.015371
    36  C    0.013044
    37  C    0.050681
    38  C   -0.033362
    39  C    0.011950
    40  C   -0.034868
    41  C    0.043064
    42  C   -0.065645
    43  C    0.019485
    44  C    0.020092
    45  C    0.020973
    46  C   -0.036871
    47  C    0.233322
    48  O   -0.129814
    49  C   -0.113252
    50  C   -0.082972
    51  C   -0.032430
    52  C    0.054343
    53  C    0.056201
    54  C    0.127006
    55  N   -0.096790
    56  B    0.357454
    57  F   -0.351613
    58  F   -0.345328
 Electronic spatial extent (au):  <R**2>=          64473.8745
 Charge=             -0.0000 electrons
 Dipole moment (field-independent basis, Debye):
    X=              1.4823    Y=             -2.4555    Z=             -1.4488  Tot=              3.2134
 Quadrupole moment (field-independent basis, Debye-Ang):
   XX=           -274.8360   YY=           -358.3466   ZZ=           -347.0623
   XY=             64.3773   XZ=              8.7286   YZ=              6.0273
 Traceless Quadrupole moment (field-independent basis, Debye-Ang):
   XX=             51.9123   YY=            -31.5983   ZZ=            -20.3140
   XY=             64.3773   XZ=              8.7286   YZ=              6.0273
 Octapole moment (field-independent basis, Debye-Ang**2):
  XXX=            580.6771  YYY=           -902.7561  ZZZ=              2.4827  XYY=            231.1287
  XXY=           -323.8041  XXZ=            -99.8596  XZZ=            -47.7587  YZZ=             23.3242
  YYZ=           -105.2091  XYZ=            -32.7780
 Hexadecapole moment (field-independent basis, Debye-Ang**3):
 XXXX=         -46715.5360 YYYY=         -39366.7174 ZZZZ=          -3546.9502 XXXY=           2889.1370
 XXXZ=             53.0072 YYYX=           5936.6132 YYYZ=           -259.5178 ZZZX=            -47.0070
 ZZZY=             38.8699 XXYY=         -15199.3313 XXZZ=          -9701.5523 YYZZ=          -5564.2526
 XXYZ=            263.6174 YYXZ=            543.8194 ZZXY=            -53.9311
 N-N= 7.778872379509D+03 E-N=-2.132676463071D+04  KE= 2.465568152837D+03
 Leave Link  601 at Fri Nov  7 08:10:43 2025, MaxMem= 30870077440 cpu:             121.4 elap:               2.4
 (Enter /public/software/gauss/g16/l9999.exe)
 1\1\GINC-CU015\SP\RM062X\def2TZVPP\C50H58B1F2N3O2\BAIDING\07-Nov-2025\
 0\\#p M062X/DEF2TZVPP scrf=(solvent=water) em=GD3\\Energy calculation 
 for M100035179\\0,1\C,0,1.127451,6.065864,0.222092\C,0,1.384041,4.5958
 98,0.08008\C,0,2.639547,4.018637,0.118958\C,0,2.514793,2.615166,-0.034
 262\C,0,3.66276,1.743291,-0.007854\C,0,3.723546,0.393174,0.131029\C,0,
 4.934688,-0.416755,0.156846\C,0,4.810968,-1.791333,0.422973\C,0,5.9047
 18,-2.654307,0.482325\C,0,5.712582,-4.160666,0.781978\C,0,4.225268,-4.
 516009,0.983445\C,0,6.223834,-5.018172,-0.400895\C,0,6.449686,-4.55370
 1,2.085055\C,0,7.183918,-2.084745,0.25536\O,0,8.246766,-2.950716,0.323
 069\C,0,7.367159,-0.702964,-0.031006\C,0,8.765004,-0.0835,-0.294119\C,
 0,8.673641,1.428898,-0.584952\C,0,9.427349,-0.722471,-1.542951\C,0,9.6
 75236,-0.227363,0.953734\C,0,6.223886,0.094428,-0.070498\N,0,1.187297,
 2.316747,-0.19128\C,0,0.459782,3.515953,-0.127549\C,0,-0.934377,3.5281
 81,-0.300826\C,0,-1.684513,4.814787,-0.173793\C,0,-2.100675,5.265965,1
 .086975\C,0,-2.808295,6.456907,1.212678\C,0,-3.102035,7.211955,0.06481
 \C,0,-3.828785,8.438555,0.18649\N,0,-4.42101,9.438144,0.285604\C,0,-2.
 687112,6.76891,-1.202238\C,0,-1.984447,5.573783,-1.314057\C,0,-1.63973
 7,2.351138,-0.600194\C,0,-3.040683,2.095185,-0.791033\C,0,-4.198695,3.
 046138,-0.750137\C,0,-3.153383,0.737999,-1.048208\C,0,-1.860475,0.1587
 14,-1.024508\C,0,-1.441109,-1.187868,-1.358637\C,0,-2.136712,-2.352896
 ,-1.303117\C,0,-3.429609,-2.689192,-0.703037\C,0,-3.957785,-2.031178,0
 .419546\C,0,-5.169211,-2.398635,1.003858\C,0,-5.704325,-1.650973,2.249
 601\C,0,-5.856847,-2.621513,3.445679\C,0,-7.060386,-0.974862,1.932352\
 C,0,-4.741712,-0.533237,2.700732\C,0,-5.872442,-3.482145,0.412811\O,0,
 -7.069104,-3.812628,1.000851\C,0,-5.375181,-4.194632,-0.709203\C,0,-6.
 137427,-5.382173,-1.353862\C,0,-5.366343,-5.968848,-2.554366\C,0,-6.31
 1076,-6.546386,-0.343651\C,0,-7.511163,-4.91931,-1.906437\C,0,-4.14447
 1,-3.778734,-1.223639\N,0,-0.95587,1.146587,-0.761171\B,0,0.55903,0.93
 5858,-0.513045\F,0,0.719751,0.047714,0.56749\F,0,1.166903,0.38756,-1.6
 53175\H,0,0.611255,6.480197,-0.649014\H,0,0.511856,6.29425,1.097328\H,
 0,2.079691,6.591042,0.333004\H,0,3.579042,4.535991,0.26216\H,0,4.59315
 ,2.303142,-0.066075\H,0,2.803701,-0.162098,0.272351\H,0,3.814012,-2.17
 9819,0.589996\H,0,3.624932,-4.30441,0.092688\H,0,4.141604,-5.587739,1.
 189796\H,0,3.782949,-3.982107,1.830786\H,0,5.679035,-4.772693,-1.31923
 4\H,0,7.288561,-4.874328,-0.588025\H,0,6.056899,-6.08005,-0.187553\H,0
 ,7.525731,-4.388894,2.019566\H,0,6.066594,-3.976907,2.934148\H,0,6.281
 355,-5.615127,2.299578\H,0,9.077152,-2.485485,0.165255\H,0,8.076306,1.
 641409,-1.476903\H,0,8.249523,1.985057,0.256639\H,0,9.681561,1.816234,
 -0.762479\H,0,8.804531,-0.55679,-2.427845\H,0,10.401911,-0.256483,-1.7
 21782\H,0,9.596896,-1.800717,-1.467554\H,0,10.644242,0.243812,0.759126
 \H,0,9.220647,0.273572,1.814377\H,0,9.877824,-1.259965,1.253894\H,0,6.
 329372,1.147435,-0.292069\H,0,-1.870863,4.680867,1.971142\H,0,-3.13272
 1,6.804748,2.187171\H,0,-2.917138,7.357,-2.083804\H,0,-1.664372,5.2273
 24,-2.290978\H,0,-4.141743,3.796516,-1.544802\H,0,-5.131754,2.491025,-
 0.877141\H,0,-4.252422,3.588715,0.198344\H,0,-4.069496,0.208959,-1.266
 018\H,0,-0.436352,-1.248576,-1.7647\H,0,-1.639514,-3.202489,-1.769736\
 H,0,-3.38289,-1.227059,0.855789\H,0,-6.567865,-3.422912,3.242447\H,0,-
 4.8925,-3.075838,3.698809\H,0,-6.207486,-2.071206,4.32614\H,0,-6.9501,
 -0.253933,1.114693\H,0,-7.828418,-1.695308,1.648819\H,0,-7.416476,-0.4
 28418,2.813053\H,0,-4.593605,0.225422,1.925317\H,0,-5.166581,-0.031579
 ,3.575977\H,0,-3.760577,-0.924009,2.98985\H,0,-7.450918,-4.589608,0.57
 5278\H,0,-5.220549,-5.231199,-3.349404\H,0,-4.38733,-6.361321,-2.26275
 7\H,0,-5.943295,-6.79829,-2.974676\H,0,-6.824765,-7.382331,-0.829505\H
 ,0,-5.333646,-6.90062,-0.000941\H,0,-6.890519,-6.293956,0.549989\H,0,-
 7.371796,-4.144506,-2.667213\H,0,-8.024002,-5.765848,-2.374849\H,0,-8.
 189,-4.510136,-1.151419\H,0,-3.715997,-4.300056,-2.070329\\Version=ES6
 4L-G16RevA.03\State=1-A\HF=-2479.6220781\RMSD=5.027e-09\Dipole=0.58317
 75,-0.9660876,-0.5699874\Quadrupole=38.5955204,-23.4925634,-15.102957,
 47.8629407,6.4895365,4.4811696\PG=C01 [X(C50H58B1F2N3O2)]\\@


 Cherishing children is the mark of a civilized society.
 -- Joan Ganz Cooney
 Job cpu time:       1 days  9 hours 37 minutes 40.7 seconds.
 Elapsed time:       0 days  0 hours 32 minutes  3.3 seconds.
 File lengths (MBytes):  RWF=   4371 Int=      0 D2E=      0 Chk=    394 Scr=      1
 Normal termination of Gaussian 16 at Fri Nov  7 08:10:44 2025.
