 Entering Gaussian System, Link 0=g16
 Input=M100034835_reduced_sp.gjf
 Output=M100034835_reduced_sp.log
 Initial command:
 /public/software/gauss/g16/l1.exe "/public/home/baiding/1101_v2_sp/tmp_M100034835_reduced_sp_1568608/Gau-4189123.inp" -scrdir="/public/home/baiding/1101_v2_sp/tmp_M100034835_reduced_sp_1568608/"
 Entering Link 1 = /public/software/gauss/g16/l1.exe PID=   4189124.
  
 Copyright (c) 1988,1990,1992,1993,1995,1998,2003,2009,2016,
            Gaussian, Inc.  All Rights Reserved.
  
 This is part of the Gaussian(R) 16 program.  It is based on
 the Gaussian(R) 09 system (copyright 2009, Gaussian, Inc.),
 the Gaussian(R) 03 system (copyright 2003, Gaussian, Inc.),
 the Gaussian(R) 98 system (copyright 1998, Gaussian, Inc.),
 the Gaussian(R) 94 system (copyright 1995, Gaussian, Inc.),
 the Gaussian 92(TM) system (copyright 1992, Gaussian, Inc.),
 the Gaussian 90(TM) system (copyright 1990, Gaussian, Inc.),
 the Gaussian 88(TM) system (copyright 1988, Gaussian, Inc.),
 the Gaussian 86(TM) system (copyright 1986, Carnegie Mellon
 University), and the Gaussian 82(TM) system (copyright 1983,
 Carnegie Mellon University). Gaussian is a federally registered
 trademark of Gaussian, Inc.
  
 This software contains proprietary and confidential information,
 including trade secrets, belonging to Gaussian, Inc.
  
 This software is provided under written license and may be
 used, copied, transmitted, or stored only in accord with that
 written license.
  
 The following legend is applicable only to US Government
 contracts under FAR:
  
                    RESTRICTED RIGHTS LEGEND
  
 Use, reproduction and disclosure by the US Government is
 subject to restrictions as set forth in subparagraphs (a)
 and (c) of the Commercial Computer Software - Restricted
 Rights clause in FAR 52.227-19.
  
 Gaussian, Inc.
 340 Quinnipiac St., Bldg. 40, Wallingford CT 06492
  
  
 ---------------------------------------------------------------
 Warning -- This program may not be used in any manner that
 competes with the business of Gaussian, Inc. or will provide
 assistance to any competitor of Gaussian, Inc.  The licensee
 of this program is prohibited from giving any competitor of
 Gaussian, Inc. access to this program.  By using this program,
 the user acknowledges that Gaussian, Inc. is engaged in the
 business of creating and licensing software in the field of
 computational chemistry and represents and warrants to the
 licensee that it is not a competitor of Gaussian, Inc. and that
 it will not use this program in any manner prohibited above.
 ---------------------------------------------------------------
  

 Cite this work as:
 Gaussian 16, Revision A.03,
 M. J. Frisch, G. W. Trucks, H. B. Schlegel, G. E. Scuseria, 
 M. A. Robb, J. R. Cheeseman, G. Scalmani, V. Barone, 
 G. A. Petersson, H. Nakatsuji, X. Li, M. Caricato, A. V. Marenich, 
 J. Bloino, B. G. Janesko, R. Gomperts, B. Mennucci, H. P. Hratchian, 
 J. V. Ortiz, A. F. Izmaylov, J. L. Sonnenberg, D. Williams-Young, 
 F. Ding, F. Lipparini, F. Egidi, J. Goings, B. Peng, A. Petrone, 
 T. Henderson, D. Ranasinghe, V. G. Zakrzewski, J. Gao, N. Rega, 
 G. Zheng, W. Liang, M. Hada, M. Ehara, K. Toyota, R. Fukuda, 
 J. Hasegawa, M. Ishida, T. Nakajima, Y. Honda, O. Kitao, H. Nakai, 
 T. Vreven, K. Throssell, J. A. Montgomery, Jr., J. E. Peralta, 
 F. Ogliaro, M. J. Bearpark, J. J. Heyd, E. N. Brothers, K. N. Kudin, 
 V. N. Staroverov, T. A. Keith, R. Kobayashi, J. Normand, 
 K. Raghavachari, A. P. Rendell, J. C. Burant, S. S. Iyengar, 
 J. Tomasi, M. Cossi, J. M. Millam, M. Klene, C. Adamo, R. Cammi, 
 J. W. Ochterski, R. L. Martin, K. Morokuma, O. Farkas, 
 J. B. Foresman, and D. J. Fox, Gaussian, Inc., Wallingford CT, 2016.
 
 ******************************************
 Gaussian 16:  ES64L-G16RevA.03 25-Dec-2016
                 7-Nov-2025 
 ******************************************
 %nprocshared=64
 Will use up to   64 processors via shared memory.
 %mem=230GB
 %chk=M100034835_reduced_sp.chk
 ----------------------------------------------
 #p M062X/DEF2TZVPP scrf=(solvent=water) em=GD3
 ----------------------------------------------
 1/38=1,172=1/1;
 2/12=2,17=6,18=5,40=1/2;
 3/5=44,7=202,11=2,25=1,30=1,70=2201,72=1,74=-55,124=31/1,2,3;
 4//1;
 5/5=2,38=5,53=1/2;
 6/7=2,8=2,9=2,10=2,28=1/1;
 99/5=1,9=1/99;
 Leave Link    1 at Fri Nov  7 00:43:14 2025, MaxMem= 30870077440 cpu:              17.1 elap:               0.3
 (Enter /public/software/gauss/g16/l101.exe)
 -----------------------------------------
 Energy calculation for M100034835_reduced
 -----------------------------------------
 Symbolic Z-matrix:
 Charge = -1 Multiplicity = 2
 O                    -1.03189   8.60946   1.24272 
 N                     0.09455   8.04908   1.18383 
 O                     1.15449   8.6781    1.44283 
 C                     0.171     6.68362   0.81773 
 C                     1.41974   6.03387   0.79031 
 C                     1.48977   4.70604   0.42155 
 C                     0.32599   3.96207   0.08244 
 C                     0.39732   2.56001  -0.29367 
 C                    -0.58411   1.63814   0.17011 
 C                    -1.61142   1.78378   1.12985 
 C                    -2.21296   0.53564   1.30648 
 C                    -1.54448  -0.35562   0.45929 
 S                    -1.78982  -2.10836   0.27814 
 C                    -3.49811  -2.26499   0.68591 
 C                    -4.02585  -2.83798   1.81783 
 C                    -5.44276  -2.92653   1.79925 
 C                    -6.01417  -2.41199   0.65317 
 C                    -7.42917  -2.30998   0.3457 
 C                    -8.48146  -2.29959   1.23665 
 C                    -9.75549  -2.209     0.60757 
 C                    -9.67563  -2.144    -0.75676 
 S                    -8.02943  -2.20911  -1.30323 
 S                    -4.7734   -1.81908  -0.43745 
 N                    -0.56511   0.30139  -0.22984 
 B                     0.45101  -0.33419  -1.21113 
 F                    -0.17421  -0.68188  -2.41628 
 F                     0.99031  -1.49006  -0.61574 
 N                     1.55048   0.72664  -1.46802 
 C                     2.63427   0.57807  -2.30323 
 S                     3.1021   -0.96596  -3.04325 
 C                     4.39765  -1.54616  -1.98165 
 C                     5.72984  -1.64869  -2.30279 
 C                     6.51951  -2.22332  -1.27171 
 C                     5.79327  -2.56818  -0.15024 
 C                     6.29845  -3.16384   1.07418 
 C                     7.46162  -3.88539   1.24024 
 C                     7.67507  -4.31727   2.58059 
 C                     6.67656  -3.93309   3.43299 
 S                     5.45359  -3.01591   2.60893 
 S                     4.09216  -2.20341  -0.38037 
 C                     3.24323   1.81717  -2.50317 
 C                     2.50803   2.75904  -1.77548 
 C                     1.46195   2.07159  -1.12479 
 C                    -0.91928   4.64753   0.13292 
 C                    -1.00145   5.97987   0.48241 
 H                     2.31181   6.57531   1.07826 
 H                     2.45139   4.20832   0.4459 
 H                    -1.85565   2.6906    1.66233 
 H                    -3.02342   0.28302   1.97454 
 H                    -3.41057  -3.19322   2.63639 
 H                    -6.02865  -3.3625    2.5998 
 H                    -8.33792  -2.33637   2.31029 
 H                    -10.69369  -2.18242   1.14978 
 H                    -10.47753  -2.0609   -1.47807 
 H                     6.13139  -1.30444  -3.24892 
 H                     7.59382  -2.35096  -1.3373 
 H                     8.13037  -4.11245   0.41805 
 H                     8.53365  -4.89952   2.89523 
 H                     6.57833  -4.12885   4.49234 
 H                     4.11803   1.99472  -3.11304 
 H                     2.69097   3.82182  -1.73589 
 H                    -1.82312   4.1265   -0.15927 
 H                    -1.95406   6.49384   0.48101 
 
 ITRead=  0  0  0  0  0  0  0  0  0  0  0  0  0  0  0  0  0  0  0  0
 ITRead=  0  0  0  0  0  0  0  0  0  0  0  0  0  0  0  0  0  0  0  0
 ITRead=  0  0  0  0  0  0  0  0  0  0  0  0  0  0  0  0  0  0  0  0
 ITRead=  0  0  0
 MicOpt= -1 -1 -1 -1 -1 -1 -1 -1 -1 -1 -1 -1 -1 -1 -1 -1 -1 -1 -1 -1
 MicOpt= -1 -1 -1 -1 -1 -1 -1 -1 -1 -1 -1 -1 -1 -1 -1 -1 -1 -1 -1 -1
 MicOpt= -1 -1 -1 -1 -1 -1 -1 -1 -1 -1 -1 -1 -1 -1 -1 -1 -1 -1 -1 -1
 MicOpt= -1 -1 -1
 NAtoms=     63 NQM=       63 NQMF=       0 NMMI=      0 NMMIF=      0
                NMic=       0 NMicF=      0.
                    Isotopes and Nuclear Properties:
 (Nuclear quadrupole moments (NQMom) in fm**2, nuclear magnetic moments (NMagM)
  in nuclear magnetons)

  Atom         1           2           3           4           5           6           7           8           9          10
 IAtWgt=          16          14          16          12          12          12          12          12          12          12
 AtmWgt=  15.9949146  14.0030740  15.9949146  12.0000000  12.0000000  12.0000000  12.0000000  12.0000000  12.0000000  12.0000000
 NucSpn=           0           2           0           0           0           0           0           0           0           0
 AtZEff=  -0.0000000  -0.0000000  -0.0000000  -0.0000000  -0.0000000  -0.0000000  -0.0000000  -0.0000000  -0.0000000  -0.0000000
 NQMom=    0.0000000   2.0440000   0.0000000   0.0000000   0.0000000   0.0000000   0.0000000   0.0000000   0.0000000   0.0000000
 NMagM=    0.0000000   0.4037610   0.0000000   0.0000000   0.0000000   0.0000000   0.0000000   0.0000000   0.0000000   0.0000000
 AtZNuc=   8.0000000   7.0000000   8.0000000   6.0000000   6.0000000   6.0000000   6.0000000   6.0000000   6.0000000   6.0000000

  Atom        11          12          13          14          15          16          17          18          19          20
 IAtWgt=          12          12          32          12          12          12          12          12          12          12
 AtmWgt=  12.0000000  12.0000000  31.9720718  12.0000000  12.0000000  12.0000000  12.0000000  12.0000000  12.0000000  12.0000000
 NucSpn=           0           0           0           0           0           0           0           0           0           0
 AtZEff=  -0.0000000  -0.0000000  -0.0000000  -0.0000000  -0.0000000  -0.0000000  -0.0000000  -0.0000000  -0.0000000  -0.0000000
 NQMom=    0.0000000   0.0000000   0.0000000   0.0000000   0.0000000   0.0000000   0.0000000   0.0000000   0.0000000   0.0000000
 NMagM=    0.0000000   0.0000000   0.0000000   0.0000000   0.0000000   0.0000000   0.0000000   0.0000000   0.0000000   0.0000000
 AtZNuc=   6.0000000   6.0000000  16.0000000   6.0000000   6.0000000   6.0000000   6.0000000   6.0000000   6.0000000   6.0000000

  Atom        21          22          23          24          25          26          27          28          29          30
 IAtWgt=          12          32          32          14          11          19          19          14          12          32
 AtmWgt=  12.0000000  31.9720718  31.9720718  14.0030740  11.0093053  18.9984033  18.9984033  14.0030740  12.0000000  31.9720718
 NucSpn=           0           0           0           2           3           1           1           2           0           0
 AtZEff=  -0.0000000  -0.0000000  -0.0000000  -0.0000000  -0.0000000  -0.0000000  -0.0000000  -0.0000000  -0.0000000  -0.0000000
 NQMom=    0.0000000   0.0000000   0.0000000   2.0440000   4.0590000   0.0000000   0.0000000   2.0440000   0.0000000   0.0000000
 NMagM=    0.0000000   0.0000000   0.0000000   0.4037610   2.6886370   2.6288670   2.6288670   0.4037610   0.0000000   0.0000000
 AtZNuc=   6.0000000  16.0000000  16.0000000   7.0000000   5.0000000   9.0000000   9.0000000   7.0000000   6.0000000  16.0000000

  Atom        31          32          33          34          35          36          37          38          39          40
 IAtWgt=          12          12          12          12          12          12          12          12          32          32
 AtmWgt=  12.0000000  12.0000000  12.0000000  12.0000000  12.0000000  12.0000000  12.0000000  12.0000000  31.9720718  31.9720718
 NucSpn=           0           0           0           0           0           0           0           0           0           0
 AtZEff=  -0.0000000  -0.0000000  -0.0000000  -0.0000000  -0.0000000  -0.0000000  -0.0000000  -0.0000000  -0.0000000  -0.0000000
 NQMom=    0.0000000   0.0000000   0.0000000   0.0000000   0.0000000   0.0000000   0.0000000   0.0000000   0.0000000   0.0000000
 NMagM=    0.0000000   0.0000000   0.0000000   0.0000000   0.0000000   0.0000000   0.0000000   0.0000000   0.0000000   0.0000000
 AtZNuc=   6.0000000   6.0000000   6.0000000   6.0000000   6.0000000   6.0000000   6.0000000   6.0000000  16.0000000  16.0000000

  Atom        41          42          43          44          45          46          47          48          49          50
 IAtWgt=          12          12          12          12          12           1           1           1           1           1
 AtmWgt=  12.0000000  12.0000000  12.0000000  12.0000000  12.0000000   1.0078250   1.0078250   1.0078250   1.0078250   1.0078250
 NucSpn=           0           0           0           0           0           1           1           1           1           1
 AtZEff=  -0.0000000  -0.0000000  -0.0000000  -0.0000000  -0.0000000  -0.0000000  -0.0000000  -0.0000000  -0.0000000  -0.0000000
 NQMom=    0.0000000   0.0000000   0.0000000   0.0000000   0.0000000   0.0000000   0.0000000   0.0000000   0.0000000   0.0000000
 NMagM=    0.0000000   0.0000000   0.0000000   0.0000000   0.0000000   2.7928460   2.7928460   2.7928460   2.7928460   2.7928460
 AtZNuc=   6.0000000   6.0000000   6.0000000   6.0000000   6.0000000   1.0000000   1.0000000   1.0000000   1.0000000   1.0000000

  Atom        51          52          53          54          55          56          57          58          59          60
 IAtWgt=           1           1           1           1           1           1           1           1           1           1
 AtmWgt=   1.0078250   1.0078250   1.0078250   1.0078250   1.0078250   1.0078250   1.0078250   1.0078250   1.0078250   1.0078250
 NucSpn=           1           1           1           1           1           1           1           1           1           1
 AtZEff=  -0.0000000  -0.0000000  -0.0000000  -0.0000000  -0.0000000  -0.0000000  -0.0000000  -0.0000000  -0.0000000  -0.0000000
 NQMom=    0.0000000   0.0000000   0.0000000   0.0000000   0.0000000   0.0000000   0.0000000   0.0000000   0.0000000   0.0000000
 NMagM=    2.7928460   2.7928460   2.7928460   2.7928460   2.7928460   2.7928460   2.7928460   2.7928460   2.7928460   2.7928460
 AtZNuc=   1.0000000   1.0000000   1.0000000   1.0000000   1.0000000   1.0000000   1.0000000   1.0000000   1.0000000   1.0000000

  Atom        61          62          63
 IAtWgt=           1           1           1
 AtmWgt=   1.0078250   1.0078250   1.0078250
 NucSpn=           1           1           1
 AtZEff=  -0.0000000  -0.0000000  -0.0000000
 NQMom=    0.0000000   0.0000000   0.0000000
 NMagM=    2.7928460   2.7928460   2.7928460
 AtZNuc=   1.0000000   1.0000000   1.0000000
 Leave Link  101 at Fri Nov  7 00:43:14 2025, MaxMem= 30870077440 cpu:               7.0 elap:               0.1
 (Enter /public/software/gauss/g16/l202.exe)
 Stoichiometry    C31H18BF2N3O2S6(1-,2)
 Framework group  C1[X(C31H18BF2N3O2S6)]
 Deg. of freedom   183
 Full point group                 C1      NOp   1
 Largest Abelian subgroup         C1      NOp   1
 Largest concise Abelian subgroup C1      NOp   1
                         Standard orientation:                         
 ---------------------------------------------------------------------
 Center     Atomic      Atomic             Coordinates (Angstroms)
 Number     Number       Type             X           Y           Z
 ---------------------------------------------------------------------
      1          8           0        1.031894    8.609457   -1.242722
      2          7           0       -0.094553    8.049075   -1.183830
      3          8           0       -1.154494    8.678102   -1.442831
      4          6           0       -0.171004    6.683616   -0.817733
      5          6           0       -1.419742    6.033872   -0.790305
      6          6           0       -1.489772    4.706042   -0.421551
      7          6           0       -0.325985    3.962065   -0.082439
      8          6           0       -0.397324    2.560010    0.293674
      9          6           0        0.584113    1.638142   -0.170105
     10          6           0        1.611420    1.783782   -1.129847
     11          6           0        2.212957    0.535643   -1.306477
     12          6           0        1.544483   -0.355624   -0.459289
     13         16           0        1.789823   -2.108359   -0.278143
     14          6           0        3.498112   -2.264992   -0.685906
     15          6           0        4.025851   -2.837982   -1.817830
     16          6           0        5.442764   -2.926525   -1.799250
     17          6           0        6.014169   -2.411990   -0.653172
     18          6           0        7.429171   -2.309976   -0.345701
     19          6           0        8.481459   -2.299591   -1.236646
     20          6           0        9.755495   -2.209003   -0.607573
     21          6           0        9.675631   -2.143998    0.756764
     22         16           0        8.029428   -2.209109    1.303232
     23         16           0        4.773402   -1.819083    0.437447
     24          7           0        0.565111    0.301392    0.229837
     25          5           0       -0.451007   -0.334186    1.211126
     26          9           0        0.174214   -0.681878    2.416283
     27          9           0       -0.990307   -1.490056    0.615737
     28          7           0       -1.550481    0.726638    1.468017
     29          6           0       -2.634269    0.578068    2.303235
     30         16           0       -3.102100   -0.965961    3.043255
     31          6           0       -4.397650   -1.546158    1.981650
     32          6           0       -5.729843   -1.648694    2.302787
     33          6           0       -6.519510   -2.223325    1.271713
     34          6           0       -5.793267   -2.568181    0.150243
     35          6           0       -6.298451   -3.163841   -1.074184
     36          6           0       -7.461617   -3.885386   -1.240243
     37          6           0       -7.675068   -4.317266   -2.580593
     38          6           0       -6.676555   -3.933086   -3.432987
     39         16           0       -5.453591   -3.015909   -2.608929
     40         16           0       -4.092162   -2.203410    0.380371
     41          6           0       -3.243232    1.817169    2.503167
     42          6           0       -2.508030    2.759041    1.775483
     43          6           0       -1.461954    2.071590    1.124795
     44          6           0        0.919280    4.647534   -0.132915
     45          6           0        1.001446    5.979865   -0.482409
     46          1           0       -2.311813    6.575309   -1.078258
     47          1           0       -2.451391    4.208323   -0.445896
     48          1           0        1.855654    2.690599   -1.662334
     49          1           0        3.023424    0.283019   -1.974538
     50          1           0        3.410572   -3.193223   -2.636388
     51          1           0        6.028654   -3.362495   -2.599801
     52          1           0        8.337920   -2.336372   -2.310293
     53          1           0       10.693694   -2.182423   -1.149784
     54          1           0       10.477527   -2.060901    1.478068
     55          1           0       -6.131390   -1.304443    3.248918
     56          1           0       -7.593824   -2.350955    1.337302
     57          1           0       -8.130369   -4.112455   -0.418049
     58          1           0       -8.533652   -4.899524   -2.895231
     59          1           0       -6.578329   -4.128849   -4.492342
     60          1           0       -4.118032    1.994722    3.113042
     61          1           0       -2.690967    3.821824    1.735893
     62          1           0        1.823123    4.126498    0.159270
     63          1           0        1.954060    6.493836   -0.481008
 ---------------------------------------------------------------------
 Rotational constants (GHZ):           0.0500818           0.0306555           0.0217403
 Leave Link  202 at Fri Nov  7 00:43:14 2025, MaxMem= 30870077440 cpu:               1.2 elap:               0.0
 (Enter /public/software/gauss/g16/l301.exe)
 Standard basis: def2TZVPP (5D, 7F)
 Ernie: Thresh=  0.10000D-02 Tol=  0.10000D-05 Strict=F.
 There are  1962 symmetry adapted cartesian basis functions of A   symmetry.
 There are  1713 symmetry adapted basis functions of A   symmetry.
  1713 basis functions,  2709 primitive gaussians,  1962 cartesian basis functions
   181 alpha electrons      180 beta electrons
       nuclear repulsion energy      6147.1209149533 Hartrees.
 IExCor= 4336 DFT=T Ex+Corr=M062X ExCW=0 ScaHFX=  0.540000
 ScaDFX=  1.000000  1.000000  1.000000  1.000000 ScalE2=  1.000000  1.000000
 IRadAn=      5 IRanWt=     -1 IRanGd=            0 ICorTp=0 IEmpDi=131
 NAtoms=   63 NActive=   63 NUniq=   63 SFac= 1.00D+00 NAtFMM=   60 NAOKFM=T Big=T
 Integral buffers will be    131072 words long.
 Raffenetti 2 integral format.
 Two-electron integral symmetry is turned on.
 R6Disp:  Grimme-D3 Dispersion energy=       -0.0049420571 Hartrees.
 Nuclear repulsion after empirical dispersion term =     6147.1159728962 Hartrees.
 ------------------------------------------------------------------------------
 Polarizable Continuum Model (PCM)
 =================================
 Model                : PCM.
 Atomic radii         : UFF (Universal Force Field).
 Polarization charges : Total charges.
 Charge compensation  : None.
 Solution method      : On-the-fly selection.
 Cavity type          : Scaled VdW (van der Waals Surface) (Alpha=1.100).
 Cavity algorithm     : GePol (No added spheres)
                        Default sphere list used, NSphG=   63.
                        Lebedev-Laikov grids with approx.  5.0 points / Ang**2.
                        Smoothing algorithm: York/Karplus (Gamma=1.0000).
                        Polarization charges: spherical gaussians, with
                                              point-specific exponents (IZeta= 3).
                        Self-potential: point-specific (ISelfS= 7).
                        Self-field    : sphere-specific E.n sum rule (ISelfD= 2).
 Solvent              : Water, Eps=  78.355300 Eps(inf)=   1.777849
 ------------------------------------------------------------------------------
 GePol: Number of generator spheres                  =      63
 GePol: Total number of spheres                      =      63
 GePol: Number of exposed spheres                    =      63 (100.00%)
 GePol: Number of points                             =    5486
 GePol: Average weight of points                     =       0.13
 GePol: Minimum weight of points                     =   0.24D-11
 GePol: Maximum weight of points                     =    0.20577
 GePol: Number of points with low weight             =     270
 GePol: Fraction of low-weight points (<1% of avg)   =       4.92%
 GePol: Cavity surface area                          =    703.967 Ang**2
 GePol: Cavity volume                                =    811.126 Ang**3
 Leave Link  301 at Fri Nov  7 00:43:14 2025, MaxMem= 30870077440 cpu:               3.9 elap:               0.1
 (Enter /public/software/gauss/g16/l302.exe)
 NPDir=0 NMtPBC=     1 NCelOv=     1 NCel=       1 NClECP=     1 NCelD=      1
         NCelK=      1 NCelE2=     1 NClLst=     1 CellRange=     0.0.
 One-electron integrals computed using PRISM.
 One-electron integral symmetry used in STVInt
   1 Symmetry operations used in ECPInt.
 ECPInt:  NShTT=  193131 NPrTT=  591363 LenC2=  114434 LenP2D=  228739.
 LDataN:  DoStor=T MaxTD1= 6 Len=  172
 NBasis=  1713 RedAO= T EigKep=  7.64D-06  NBF=  1713
 NBsUse=  1713 1.00D-06 EigRej= -1.00D+00 NBFU=  1713
 Precomputing XC quadrature grid using
 IXCGrd= 4 IRadAn=           5 IRanWt=          -1 IRanGd=           0 AccXCQ= 0.00D+00.
 Generated NRdTot=       0 NPtTot=           0 NUsed=           0 NTot=          32
 NSgBfM=  1663  1661  1661  1661  1663 MxSgAt=    63 MxSgA2=    63.
 Leave Link  302 at Fri Nov  7 00:43:22 2025, MaxMem= 30870077440 cpu:             485.7 elap:               7.6
 (Enter /public/software/gauss/g16/l303.exe)
 DipDrv:  MaxL=1.
 Leave Link  303 at Fri Nov  7 00:43:22 2025, MaxMem= 30870077440 cpu:              23.8 elap:               0.4
 (Enter /public/software/gauss/g16/l401.exe)
 ExpMin= 6.06D-02 ExpMax= 6.07D+04 ExpMxC= 2.07D+03 IAcc=3 IRadAn=         5 AccDes= 0.00D+00
 Harris functional with IExCor= 1009 and IRadAn=       5 diagonalized for initial guess.
 HarFok:  IExCor= 1009 AccDes= 0.00D+00 IRadAn=         5 IDoV= 1 UseB2=F ITyADJ=14
 ICtDFT=  3500011 ScaDFX=  1.000000  1.000000  1.000000  1.000000
 FoFCou: FMM=F IPFlag=           0 FMFlag=      100000 FMFlg1=        2001
         NFxFlg=           0 DoJE=T BraDBF=F KetDBF=T FulRan=T
         wScrn=  0.000000 ICntrl=       500 IOpCl=  0 I1Cent=   200000004 NGrid=           0
         NMat0=    1 NMatS0=      1 NMatT0=    0 NMatD0=    1 NMtDS0=    0 NMtDT0=    0
 Petite list used in FoFCou.
 Harris En= -4118.80945237415    
 JPrj=0 DoOrth=F DoCkMO=F.
 Initial guess <Sx>= 0.0000 <Sy>= 0.0000 <Sz>= 0.5000 <S**2>= 0.7500 S= 0.5000
 Leave Link  401 at Fri Nov  7 00:43:31 2025, MaxMem= 30870077440 cpu:             556.9 elap:               8.8
 (Enter /public/software/gauss/g16/l502.exe)
 Integral symmetry usage will be decided dynamically.
 UHF open shell SCF:
 Using DIIS extrapolation, IDIIS=  1040.
 NGot= 30870077440 LenX= 30862236753 LenY= 30858385347
 Requested convergence on RMS density matrix=1.00D-08 within 128 cycles.
 Requested convergence on MAX density matrix=1.00D-06.
 Requested convergence on             energy=1.00D-06.
 No special actions if energy rises.
 Fock matrices will be formed incrementally for  20 cycles.

 Cycle   1  Pass 1  IDiag  1:
 FoFJK:  IHMeth= 1 ICntrl=       0 DoSepK=F KAlg= 0 I1Cent=           0 FoldK=F
 IRaf= 550000000 NMat=       1 IRICut=       1 DoRegI=T DoRafI=F ISym2E= 0 IDoP0=0 IntGTp=1.
 FoFCou: FMM=T IPFlag=           0 FMFlag=      100000 FMFlg1=        2001
         NFxFlg=           0 DoJE=F BraDBF=F KetDBF=F FulRan=T
         wScrn=  0.000000 ICntrl=         0 IOpCl=  1 I1Cent=           0 NGrid=           0
         NMat0=    1 NMatS0=      1 NMatT0=    0 NMatD0=    1 NMtDS0=    0 NMtDT0=    0
 Symmetry not used in FoFCou.
 FMM levels:  10  Number of levels for PrismC:   9
 Inv3:  Mode=1 IEnd=    90288588.
 Iteration    1 A*A^-1 deviation from unit magnitude is 1.04D-14 for   1686.
 Iteration    1 A*A^-1 deviation from orthogonality  is 3.78D-15 for   1702   1686.
 Iteration    1 A^-1*A deviation from unit magnitude is 8.55D-15 for   1653.
 Iteration    1 A^-1*A deviation from orthogonality  is 4.39D-15 for   4972   4884.
 E= -4119.23902244655    
 DIIS: error= 2.48D-02 at cycle   1 NSaved=   1.
 NSaved= 1 IEnMin= 1 EnMin= -4119.23902244655     IErMin= 1 ErrMin= 2.48D-02
 ErrMax= 2.48D-02  0.00D+00 EMaxC= 1.00D-01 BMatC= 7.41D+00 BMatP= 7.41D+00
 IDIUse=3 WtCom= 7.52D-01 WtEn= 2.48D-01
 Coeff-Com:  0.100D+01
 Coeff-En:   0.100D+01
 Coeff:      0.100D+01
 Gap=     0.104 Goal=   None    Shift=    0.000
 Gap=     0.238 Goal=   None    Shift=    0.000
 GapD=    0.104 DampG=1.000 DampE=0.500 DampFc=0.5000 IDamp=-1.
 Damping current iteration by 5.00D-01
 RMSDP=1.62D-03 MaxDP=1.34D-01              OVMax= 5.37D-01

 Cycle   2  Pass 1  IDiag  1:
 RMSU=  8.11D-04    CP:  9.91D-01
 E= -4119.88210689768     Delta-E=       -0.643084451138 Rises=F Damp=T
 DIIS: error= 5.30D-03 at cycle   2 NSaved=   2.
 NSaved= 2 IEnMin= 2 EnMin= -4119.88210689768     IErMin= 2 ErrMin= 5.30D-03
 ErrMax= 5.30D-03  0.00D+00 EMaxC= 1.00D-01 BMatC= 6.24D-01 BMatP= 7.41D+00
 IDIUse=3 WtCom= 9.47D-01 WtEn= 5.30D-02
 Coeff-Com:  0.228D-01 0.977D+00
 Coeff-En:   0.124D+00 0.876D+00
 Coeff:      0.282D-01 0.972D+00
 Gap=     0.084 Goal=   None    Shift=    0.000
 Gap=     0.231 Goal=   None    Shift=    0.000
 RMSDP=6.63D-04 MaxDP=6.07D-02 DE=-6.43D-01 OVMax= 4.67D-01

 Cycle   3  Pass 1  IDiag  1:
 RMSU=  6.59D-04    CP:  9.86D-01  9.14D-01
 E= -4120.67138231725     Delta-E=       -0.789275419565 Rises=F Damp=F
 DIIS: error= 1.02D-02 at cycle   3 NSaved=   3.
 NSaved= 3 IEnMin= 3 EnMin= -4120.67138231725     IErMin= 2 ErrMin= 5.30D-03
 ErrMax= 1.02D-02  0.00D+00 EMaxC= 1.00D-01 BMatC= 2.38D-01 BMatP= 6.24D-01
 IDIUse=3 WtCom= 8.98D-01 WtEn= 1.02D-01
 Coeff-Com: -0.638D-01 0.364D+00 0.700D+00
 Coeff-En:   0.000D+00 0.000D+00 0.100D+01
 Coeff:     -0.573D-01 0.327D+00 0.731D+00
 Gap=     0.094 Goal=   None    Shift=    0.000
 Gap=     0.153 Goal=   None    Shift=    0.000
 RMSDP=2.25D-04 MaxDP=3.79D-02 DE=-7.89D-01 OVMax= 1.28D-01

 Cycle   4  Pass 1  IDiag  1:
 RMSU=  2.16D-04    CP:  9.84D-01  9.57D-01  9.28D-01
 E= -4120.70994786240     Delta-E=       -0.038565545152 Rises=F Damp=F
 DIIS: error= 5.89D-03 at cycle   4 NSaved=   4.
 NSaved= 4 IEnMin= 4 EnMin= -4120.70994786240     IErMin= 2 ErrMin= 5.30D-03
 ErrMax= 5.89D-03  0.00D+00 EMaxC= 1.00D-01 BMatC= 8.08D-02 BMatP= 2.38D-01
 IDIUse=3 WtCom= 9.41D-01 WtEn= 5.89D-02
 Coeff-Com: -0.293D-01 0.885D-01 0.410D+00 0.531D+00
 Coeff-En:   0.000D+00 0.000D+00 0.224D+00 0.776D+00
 Coeff:     -0.276D-01 0.833D-01 0.399D+00 0.545D+00
 Gap=     0.105 Goal=   None    Shift=    0.000
 Gap=     0.154 Goal=   None    Shift=    0.000
 RMSDP=9.95D-05 MaxDP=1.60D-02 DE=-3.86D-02 OVMax= 7.09D-02

 Cycle   5  Pass 1  IDiag  1:
 RMSU=  7.86D-05    CP:  9.84D-01  9.54D-01  9.82D-01  7.72D-01
 E= -4120.72728474509     Delta-E=       -0.017336882689 Rises=F Damp=F
 DIIS: error= 7.77D-04 at cycle   5 NSaved=   5.
 NSaved= 5 IEnMin= 5 EnMin= -4120.72728474509     IErMin= 5 ErrMin= 7.77D-04
 ErrMax= 7.77D-04  0.00D+00 EMaxC= 1.00D-01 BMatC= 4.68D-03 BMatP= 8.08D-02
 IDIUse=3 WtCom= 9.92D-01 WtEn= 7.77D-03
 Coeff-Com: -0.533D-02 0.620D-02 0.123D+00 0.261D+00 0.615D+00
 Coeff-En:   0.000D+00 0.000D+00 0.000D+00 0.000D+00 0.100D+01
 Coeff:     -0.529D-02 0.615D-02 0.122D+00 0.259D+00 0.618D+00
 Gap=     0.108 Goal=   None    Shift=    0.000
 Gap=     0.155 Goal=   None    Shift=    0.000
 RMSDP=3.34D-05 MaxDP=4.49D-03 DE=-1.73D-02 OVMax= 1.22D-02

 Cycle   6  Pass 1  IDiag  1:
 RMSU=  3.17D-05    CP:  9.84D-01  9.55D-01  9.87D-01  8.14D-01  9.57D-01
 E= -4120.72863204661     Delta-E=       -0.001347301519 Rises=F Damp=F
 DIIS: error= 2.33D-04 at cycle   6 NSaved=   6.
 NSaved= 6 IEnMin= 6 EnMin= -4120.72863204661     IErMin= 6 ErrMin= 2.33D-04
 ErrMax= 2.33D-04  0.00D+00 EMaxC= 1.00D-01 BMatC= 4.00D-04 BMatP= 4.68D-03
 IDIUse=3 WtCom= 9.98D-01 WtEn= 2.33D-03
 Coeff-Com:  0.252D-02-0.101D-01-0.617D-02 0.308D-01 0.216D+00 0.767D+00
 Coeff-En:   0.000D+00 0.000D+00 0.000D+00 0.000D+00 0.000D+00 0.100D+01
 Coeff:      0.251D-02-0.101D-01-0.615D-02 0.308D-01 0.215D+00 0.768D+00
 Gap=     0.110 Goal=   None    Shift=    0.000
 Gap=     0.156 Goal=   None    Shift=    0.000
 RMSDP=2.11D-05 MaxDP=2.02D-03 DE=-1.35D-03 OVMax= 1.31D-02

 Cycle   7  Pass 1  IDiag  1:
 RMSU=  1.20D-05    CP:  9.84D-01  9.52D-01  9.96D-01  8.30D-01  1.13D+00
                    CP:  1.23D+00
 E= -4120.72887464655     Delta-E=       -0.000242599945 Rises=F Damp=F
 DIIS: error= 1.10D-04 at cycle   7 NSaved=   7.
 NSaved= 7 IEnMin= 7 EnMin= -4120.72887464655     IErMin= 7 ErrMin= 1.10D-04
 ErrMax= 1.10D-04  0.00D+00 EMaxC= 1.00D-01 BMatC= 1.15D-04 BMatP= 4.00D-04
 IDIUse=3 WtCom= 9.99D-01 WtEn= 1.10D-03
 Coeff-Com:  0.230D-02-0.612D-02-0.270D-01-0.343D-01-0.274D-01 0.328D+00
 Coeff-Com:  0.765D+00
 Coeff-En:   0.000D+00 0.000D+00 0.000D+00 0.000D+00 0.000D+00 0.000D+00
 Coeff-En:   0.100D+01
 Coeff:      0.229D-02-0.611D-02-0.269D-01-0.342D-01-0.273D-01 0.327D+00
 Coeff:      0.765D+00
 Gap=     0.111 Goal=   None    Shift=    0.000
 Gap=     0.157 Goal=   None    Shift=    0.000
 RMSDP=1.26D-05 MaxDP=1.14D-03 DE=-2.43D-04 OVMax= 9.62D-03

 Cycle   8  Pass 1  IDiag  1:
 RMSU=  6.51D-06    CP:  9.84D-01  9.51D-01  9.98D-01  8.49D-01  1.21D+00
                    CP:  1.43D+00  1.39D+00
 E= -4120.72897783038     Delta-E=       -0.000103183824 Rises=F Damp=F
 DIIS: error= 1.12D-04 at cycle   8 NSaved=   8.
 NSaved= 8 IEnMin= 8 EnMin= -4120.72897783038     IErMin= 7 ErrMin= 1.10D-04
 ErrMax= 1.12D-04  0.00D+00 EMaxC= 1.00D-01 BMatC= 3.42D-05 BMatP= 1.15D-04
 IDIUse=3 WtCom= 9.99D-01 WtEn= 1.10D-03
 Coeff-Com:  0.692D-04 0.756D-03-0.849D-02-0.170D-01-0.581D-01-0.893D-01
 Coeff-Com:  0.277D+00 0.895D+00
 Coeff-En:   0.000D+00 0.000D+00 0.000D+00 0.000D+00 0.000D+00 0.000D+00
 Coeff-En:   0.000D+00 0.100D+01
 Coeff:      0.691D-04 0.755D-03-0.848D-02-0.170D-01-0.581D-01-0.892D-01
 Coeff:      0.277D+00 0.895D+00
 Gap=     0.111 Goal=   None    Shift=    0.000
 Gap=     0.157 Goal=   None    Shift=    0.000
 RMSDP=9.75D-06 MaxDP=8.70D-04 DE=-1.03D-04 OVMax= 1.04D-02

 Cycle   9  Pass 1  IDiag  1:
 RMSU=  3.74D-06    CP:  9.84D-01  9.50D-01  9.98D-01  8.52D-01  1.26D+00
                    CP:  1.54D+00  1.84D+00  1.75D+00
 E= -4120.72902809597     Delta-E=       -0.000050265595 Rises=F Damp=F
 DIIS: error= 7.73D-05 at cycle   9 NSaved=   9.
 NSaved= 9 IEnMin= 9 EnMin= -4120.72902809597     IErMin= 9 ErrMin= 7.73D-05
 ErrMax= 7.73D-05  0.00D+00 EMaxC= 1.00D-01 BMatC= 1.42D-05 BMatP= 3.42D-05
 IDIUse=1 WtCom= 1.00D+00 WtEn= 0.00D+00
 Coeff-Com: -0.601D-03 0.183D-02 0.347D-02 0.637D-02-0.394D-02-0.124D+00
 Coeff-Com: -0.133D+00 0.343D+00 0.907D+00
 Coeff:     -0.601D-03 0.183D-02 0.347D-02 0.637D-02-0.394D-02-0.124D+00
 Coeff:     -0.133D+00 0.343D+00 0.907D+00
 Gap=     0.112 Goal=   None    Shift=    0.000
 Gap=     0.157 Goal=   None    Shift=    0.000
 RMSDP=7.70D-06 MaxDP=9.15D-04 DE=-5.03D-05 OVMax= 8.59D-03

 Cycle  10  Pass 1  IDiag  1:
 RMSU=  2.06D-06    CP:  9.84D-01  9.49D-01  9.97D-01  8.56D-01  1.28D+00
                    CP:  1.59D+00  2.15D+00  2.56D+00  1.73D+00
 E= -4120.72905412351     Delta-E=       -0.000026027534 Rises=F Damp=F
 DIIS: error= 6.37D-05 at cycle  10 NSaved=  10.
 NSaved=10 IEnMin=10 EnMin= -4120.72905412351     IErMin=10 ErrMin= 6.37D-05
 ErrMax= 6.37D-05  0.00D+00 EMaxC= 1.00D-01 BMatC= 6.13D-06 BMatP= 1.42D-05
 IDIUse=1 WtCom= 1.00D+00 WtEn= 0.00D+00
 Coeff-Com: -0.370D-03 0.714D-03 0.495D-02 0.123D-01 0.264D-01-0.266D-01
 Coeff-Com: -0.207D+00-0.210D+00 0.372D+00 0.103D+01
 Coeff:     -0.370D-03 0.714D-03 0.495D-02 0.123D-01 0.264D-01-0.266D-01
 Coeff:     -0.207D+00-0.210D+00 0.372D+00 0.103D+01
 Gap=     0.112 Goal=   None    Shift=    0.000
 Gap=     0.157 Goal=   None    Shift=    0.000
 RMSDP=8.05D-06 MaxDP=1.12D-03 DE=-2.60D-05 OVMax= 9.20D-03

 Cycle  11  Pass 1  IDiag  1:
 RMSU=  2.82D-06    CP:  9.84D-01  9.47D-01  9.96D-01  8.59D-01  1.29D+00
                    CP:  1.62D+00  2.46D+00  3.00D+00  2.66D+00  2.06D+00
 E= -4120.72907140235     Delta-E=       -0.000017278848 Rises=F Damp=F
 DIIS: error= 4.12D-05 at cycle  11 NSaved=  11.
 NSaved=11 IEnMin=11 EnMin= -4120.72907140235     IErMin=11 ErrMin= 4.12D-05
 ErrMax= 4.12D-05  0.00D+00 EMaxC= 1.00D-01 BMatC= 2.26D-06 BMatP= 6.13D-06
 IDIUse=1 WtCom= 1.00D+00 WtEn= 0.00D+00
 Coeff-Com:  0.817D-04-0.404D-03-0.288D-03 0.237D-02 0.101D-01 0.379D-01
 Coeff-Com: -0.171D-01-0.147D+00-0.305D+00 0.342D+00 0.108D+01
 Coeff:      0.817D-04-0.404D-03-0.288D-03 0.237D-02 0.101D-01 0.379D-01
 Coeff:     -0.171D-01-0.147D+00-0.305D+00 0.342D+00 0.108D+01
 Gap=     0.113 Goal=   None    Shift=    0.000
 Gap=     0.157 Goal=   None    Shift=    0.000
 RMSDP=5.96D-06 MaxDP=9.50D-04 DE=-1.73D-05 OVMax= 7.29D-03

 Cycle  12  Pass 1  IDiag  1:
 RMSU=  2.10D-06    CP:  9.84D-01  9.47D-01  9.95D-01  8.60D-01  1.30D+00
                    CP:  1.63D+00  2.64D+00  3.00D+00  3.00D+00  3.00D+00
                    CP:  2.35D+00
 E= -4120.72907903077     Delta-E=       -0.000007628421 Rises=F Damp=F
 DIIS: error= 2.59D-05 at cycle  12 NSaved=  12.
 NSaved=12 IEnMin=12 EnMin= -4120.72907903077     IErMin=12 ErrMin= 2.59D-05
 ErrMax= 2.59D-05  0.00D+00 EMaxC= 1.00D-01 BMatC= 1.06D-06 BMatP= 2.26D-06
 IDIUse=1 WtCom= 1.00D+00 WtEn= 0.00D+00
 Coeff-Com:  0.151D-03-0.414D-03-0.214D-02-0.272D-02-0.378D-02 0.288D-01
 Coeff-Com:  0.566D-01 0.235D-01-0.303D+00-0.203D+00 0.544D+00 0.862D+00
 Coeff:      0.151D-03-0.414D-03-0.214D-02-0.272D-02-0.378D-02 0.288D-01
 Coeff:      0.566D-01 0.235D-01-0.303D+00-0.203D+00 0.544D+00 0.862D+00
 Gap=     0.113 Goal=   None    Shift=    0.000
 Gap=     0.157 Goal=   None    Shift=    0.000
 RMSDP=3.66D-06 MaxDP=5.91D-04 DE=-7.63D-06 OVMax= 4.40D-03

 Cycle  13  Pass 1  IDiag  1:
 RMSU=  1.71D-06    CP:  9.84D-01  9.46D-01  9.95D-01  8.61D-01  1.30D+00
                    CP:  1.64D+00  2.73D+00  3.00D+00  3.00D+00  3.00D+00
                    CP:  3.00D+00  1.84D+00
 E= -4120.72908179607     Delta-E=       -0.000002765293 Rises=F Damp=F
 DIIS: error= 1.83D-05 at cycle  13 NSaved=  13.
 NSaved=13 IEnMin=13 EnMin= -4120.72908179607     IErMin=13 ErrMin= 1.83D-05
 ErrMax= 1.83D-05  0.00D+00 EMaxC= 1.00D-01 BMatC= 3.35D-07 BMatP= 1.06D-06
 IDIUse=1 WtCom= 1.00D+00 WtEn= 0.00D+00
 Coeff-Com:  0.370D-04-0.310D-04-0.120D-02-0.223D-02-0.624D-02 0.117D-02
 Coeff-Com:  0.334D-01 0.778D-01-0.640D-01-0.242D+00-0.854D-01 0.382D+00
 Coeff-Com:  0.906D+00
 Coeff:      0.370D-04-0.310D-04-0.120D-02-0.223D-02-0.624D-02 0.117D-02
 Coeff:      0.334D-01 0.778D-01-0.640D-01-0.242D+00-0.854D-01 0.382D+00
 Coeff:      0.906D+00
 Gap=     0.113 Goal=   None    Shift=    0.000
 Gap=     0.157 Goal=   None    Shift=    0.000
 RMSDP=2.46D-06 MaxDP=3.91D-04 DE=-2.77D-06 OVMax= 3.07D-03

 Cycle  14  Pass 1  IDiag  1:
 RMSU=  1.22D-06    CP:  9.84D-01  9.45D-01  9.94D-01  8.62D-01  1.30D+00
                    CP:  1.64D+00  2.80D+00  3.00D+00  3.00D+00  3.00D+00
                    CP:  3.00D+00  2.41D+00  1.88D+00
 E= -4120.72908290333     Delta-E=       -0.000001107261 Rises=F Damp=F
 DIIS: error= 9.69D-06 at cycle  14 NSaved=  14.
 NSaved=14 IEnMin=14 EnMin= -4120.72908290333     IErMin=14 ErrMin= 9.69D-06
 ErrMax= 9.69D-06  0.00D+00 EMaxC= 1.00D-01 BMatC= 1.11D-07 BMatP= 3.35D-07
 IDIUse=1 WtCom= 1.00D+00 WtEn= 0.00D+00
 Coeff-Com: -0.486D-04 0.144D-03 0.406D-03 0.661D-03-0.383D-03-0.109D-01
 Coeff-Com: -0.127D-01 0.187D-01 0.866D-01 0.177D-01-0.191D+00-0.300D+00
 Coeff-Com:  0.223D+00 0.117D+01
 Coeff:     -0.486D-04 0.144D-03 0.406D-03 0.661D-03-0.383D-03-0.109D-01
 Coeff:     -0.127D-01 0.187D-01 0.866D-01 0.177D-01-0.191D+00-0.300D+00
 Coeff:      0.223D+00 0.117D+01
 Gap=     0.113 Goal=   None    Shift=    0.000
 Gap=     0.157 Goal=   None    Shift=    0.000
 RMSDP=1.55D-06 MaxDP=2.46D-04 DE=-1.11D-06 OVMax= 1.98D-03

 Cycle  15  Pass 1  IDiag  1:
 RMSU=  3.23D-07    CP:  9.84D-01  9.45D-01  9.94D-01  8.62D-01  1.30D+00
                    CP:  1.64D+00  2.84D+00  3.00D+00  3.00D+00  3.00D+00
                    CP:  3.00D+00  2.76D+00  2.45D+00  1.61D+00
 E= -4120.72908330770     Delta-E=       -0.000000404370 Rises=F Damp=F
 DIIS: error= 4.66D-06 at cycle  15 NSaved=  15.
 NSaved=15 IEnMin=15 EnMin= -4120.72908330770     IErMin=15 ErrMin= 4.66D-06
 ErrMax= 4.66D-06  0.00D+00 EMaxC= 1.00D-01 BMatC= 3.97D-08 BMatP= 1.11D-07
 IDIUse=1 WtCom= 1.00D+00 WtEn= 0.00D+00
 Coeff-Com: -0.336D-04 0.714D-04 0.615D-03 0.125D-02 0.222D-02-0.559D-02
 Coeff-Com: -0.190D-01-0.213D-01 0.587D-01 0.986D-01-0.455D-01-0.294D+00
 Coeff-Com: -0.224D+00 0.540D+00 0.908D+00
 Coeff:     -0.336D-04 0.714D-04 0.615D-03 0.125D-02 0.222D-02-0.559D-02
 Coeff:     -0.190D-01-0.213D-01 0.587D-01 0.986D-01-0.455D-01-0.294D+00
 Coeff:     -0.224D+00 0.540D+00 0.908D+00
 Gap=     0.113 Goal=   None    Shift=    0.000
 Gap=     0.157 Goal=   None    Shift=    0.000
 RMSDP=8.66D-07 MaxDP=1.34D-04 DE=-4.04D-07 OVMax= 1.09D-03

 Cycle  16  Pass 1  IDiag  1:
 RMSU=  1.16D-07    CP:  9.84D-01  9.45D-01  9.94D-01  8.63D-01  1.30D+00
                    CP:  1.64D+00  2.86D+00  3.00D+00  3.00D+00  3.00D+00
                    CP:  3.00D+00  2.95D+00  2.76D+00  1.94D+00  1.62D+00
 E= -4120.72908340898     Delta-E=       -0.000000101281 Rises=F Damp=F
 DIIS: error= 1.20D-06 at cycle  16 NSaved=  16.
 NSaved=16 IEnMin=16 EnMin= -4120.72908340898     IErMin=16 ErrMin= 1.20D-06
 ErrMax= 1.20D-06  0.00D+00 EMaxC= 1.00D-01 BMatC= 8.19D-09 BMatP= 3.97D-08
 IDIUse=1 WtCom= 1.00D+00 WtEn= 0.00D+00
 Coeff-Com:  0.352D-05-0.162D-04 0.629D-04 0.220D-03 0.823D-03 0.132D-02
 Coeff-Com: -0.223D-02-0.121D-01-0.613D-02 0.295D-01 0.411D-01-0.182D-01
 Coeff-Com: -0.139D+00-0.135D+00 0.326D+00 0.914D+00
 Coeff:      0.352D-05-0.162D-04 0.629D-04 0.220D-03 0.823D-03 0.132D-02
 Coeff:     -0.223D-02-0.121D-01-0.613D-02 0.295D-01 0.411D-01-0.182D-01
 Coeff:     -0.139D+00-0.135D+00 0.326D+00 0.914D+00
 Gap=     0.113 Goal=   None    Shift=    0.000
 Gap=     0.157 Goal=   None    Shift=    0.000
 RMSDP=2.59D-07 MaxDP=3.45D-05 DE=-1.01D-07 OVMax= 3.07D-04

 Cycle  17  Pass 1  IDiag  1:
 RMSU=  5.91D-08    CP:  9.84D-01  9.45D-01  9.94D-01  8.63D-01  1.30D+00
                    CP:  1.64D+00  2.86D+00  3.00D+00  3.00D+00  3.00D+00
                    CP:  3.00D+00  3.00D+00  2.84D+00  2.04D+00  1.96D+00
                    CP:  1.46D+00
 E= -4120.72908342376     Delta-E=       -0.000000014781 Rises=F Damp=F
 DIIS: error= 6.64D-07 at cycle  17 NSaved=  17.
 NSaved=17 IEnMin=17 EnMin= -4120.72908342376     IErMin=17 ErrMin= 6.64D-07
 ErrMax= 6.64D-07  0.00D+00 EMaxC= 1.00D-01 BMatC= 2.17D-09 BMatP= 8.19D-09
 IDIUse=1 WtCom= 1.00D+00 WtEn= 0.00D+00
 Coeff-Com:  0.802D-05-0.202D-04-0.135D-03-0.235D-03-0.236D-03 0.182D-02
 Coeff-Com:  0.375D-02 0.127D-02-0.168D-01-0.135D-01 0.250D-01 0.706D-01
 Coeff-Com:  0.976D-02-0.184D+00-0.124D+00 0.318D+00 0.909D+00
 Coeff:      0.802D-05-0.202D-04-0.135D-03-0.235D-03-0.236D-03 0.182D-02
 Coeff:      0.375D-02 0.127D-02-0.168D-01-0.135D-01 0.250D-01 0.706D-01
 Coeff:      0.976D-02-0.184D+00-0.124D+00 0.318D+00 0.909D+00
 Gap=     0.113 Goal=   None    Shift=    0.000
 Gap=     0.157 Goal=   None    Shift=    0.000
 RMSDP=8.20D-08 MaxDP=7.29D-06 DE=-1.48D-08 OVMax= 6.53D-05

 Cycle  18  Pass 1  IDiag  1:
 RMSU=  3.20D-08    CP:  9.84D-01  9.45D-01  9.94D-01  8.63D-01  1.30D+00
                    CP:  1.64D+00  2.86D+00  3.00D+00  3.00D+00  3.00D+00
                    CP:  3.00D+00  3.00D+00  2.86D+00  2.05D+00  2.10D+00
                    CP:  1.78D+00  1.51D+00
 E= -4120.72908342638     Delta-E=       -0.000000002614 Rises=F Damp=F
 DIIS: error= 2.73D-07 at cycle  18 NSaved=  18.
 NSaved=18 IEnMin=18 EnMin= -4120.72908342638     IErMin=18 ErrMin= 2.73D-07
 ErrMax= 2.73D-07  0.00D+00 EMaxC= 1.00D-01 BMatC= 6.56D-10 BMatP= 2.17D-09
 IDIUse=1 WtCom= 1.00D+00 WtEn= 0.00D+00
 Coeff-Com:  0.175D-05-0.345D-05-0.699D-04-0.147D-03-0.278D-03 0.425D-03
 Coeff-Com:  0.207D-02 0.367D-02-0.572D-02-0.129D-01 0.289D-03 0.338D-01
 Coeff-Com:  0.391D-01-0.423D-01-0.136D+00-0.107D+00 0.389D+00 0.836D+00
 Coeff:      0.175D-05-0.345D-05-0.699D-04-0.147D-03-0.278D-03 0.425D-03
 Coeff:      0.207D-02 0.367D-02-0.572D-02-0.129D-01 0.289D-03 0.338D-01
 Coeff:      0.391D-01-0.423D-01-0.136D+00-0.107D+00 0.389D+00 0.836D+00
 Gap=     0.113 Goal=   None    Shift=    0.000
 Gap=     0.157 Goal=   None    Shift=    0.000
 RMSDP=4.11D-08 MaxDP=4.40D-06 DE=-2.61D-09 OVMax= 2.96D-05

 Cycle  19  Pass 1  IDiag  1:
 RMSU=  1.60D-08    CP:  9.84D-01  9.45D-01  9.94D-01  8.63D-01  1.30D+00
                    CP:  1.64D+00  2.86D+00  3.00D+00  3.00D+00  3.00D+00
                    CP:  3.00D+00  3.00D+00  2.87D+00  2.06D+00  2.15D+00
                    CP:  1.91D+00  1.84D+00  1.46D+00
 E= -4120.72908342689     Delta-E=       -0.000000000513 Rises=F Damp=F
 DIIS: error= 1.90D-07 at cycle  19 NSaved=  19.
 NSaved=19 IEnMin=19 EnMin= -4120.72908342689     IErMin=19 ErrMin= 1.90D-07
 ErrMax= 1.90D-07  0.00D+00 EMaxC= 1.00D-01 BMatC= 1.81D-10 BMatP= 6.56D-10
 IDIUse=1 WtCom= 1.00D+00 WtEn= 0.00D+00
 Coeff-Com: -0.166D-05 0.463D-05 0.704D-05-0.436D-06-0.631D-04-0.341D-03
 Coeff-Com: -0.147D-03 0.140D-02 0.211D-02-0.202D-02-0.675D-02-0.614D-02
 Coeff-Com:  0.153D-01 0.366D-01-0.249D-01-0.148D+00-0.893D-01 0.400D+00
 Coeff-Com:  0.822D+00
 Coeff:     -0.166D-05 0.463D-05 0.704D-05-0.436D-06-0.631D-04-0.341D-03
 Coeff:     -0.147D-03 0.140D-02 0.211D-02-0.202D-02-0.675D-02-0.614D-02
 Coeff:      0.153D-01 0.366D-01-0.249D-01-0.148D+00-0.893D-01 0.400D+00
 Coeff:      0.822D+00
 Gap=     0.113 Goal=   None    Shift=    0.000
 Gap=     0.157 Goal=   None    Shift=    0.000
 RMSDP=2.10D-08 MaxDP=2.27D-06 DE=-5.13D-10 OVMax= 1.20D-05

 Cycle  20  Pass 1  IDiag  1:
 RMSU=  9.73D-09    CP:  9.84D-01  9.45D-01  9.94D-01  8.63D-01  1.30D+00
                    CP:  1.64D+00  2.86D+00  3.00D+00  3.00D+00  3.00D+00
                    CP:  3.00D+00  3.00D+00  2.87D+00  2.06D+00  2.17D+00
                    CP:  1.96D+00  2.00D+00  1.78D+00  1.19D+00
 E= -4120.72908342726     Delta-E=       -0.000000000377 Rises=F Damp=F
 DIIS: error= 1.32D-07 at cycle  20 NSaved=  20.
 NSaved=20 IEnMin=20 EnMin= -4120.72908342726     IErMin=20 ErrMin= 1.32D-07
 ErrMax= 1.32D-07  0.00D+00 EMaxC= 1.00D-01 BMatC= 5.28D-11 BMatP= 1.81D-10
 IDIUse=1 WtCom= 1.00D+00 WtEn= 0.00D+00
 Coeff-Com: -0.115D-05 0.299D-05 0.161D-04 0.255D-04 0.139D-04-0.265D-03
 Coeff-Com: -0.489D-03 0.128D-03 0.221D-02 0.122D-02-0.370D-02-0.991D-02
 Coeff-Com:  0.150D-02 0.285D-01 0.108D-01-0.650D-01-0.120D+00 0.756D-01
 Coeff-Com:  0.460D+00 0.620D+00
 Coeff:     -0.115D-05 0.299D-05 0.161D-04 0.255D-04 0.139D-04-0.265D-03
 Coeff:     -0.489D-03 0.128D-03 0.221D-02 0.122D-02-0.370D-02-0.991D-02
 Coeff:      0.150D-02 0.285D-01 0.108D-01-0.650D-01-0.120D+00 0.756D-01
 Coeff:      0.460D+00 0.620D+00
 Gap=     0.113 Goal=   None    Shift=    0.000
 Gap=     0.157 Goal=   None    Shift=    0.000
 RMSDP=8.16D-09 MaxDP=9.81D-07 DE=-3.77D-10 OVMax= 5.70D-06

 Error on total polarization charges =  0.02958
 SCF Done:  E(UM062X) =  -4120.72908343     A.U. after   20 cycles
            NFock= 20  Conv=0.82D-08     -V/T= 2.0030
 <Sx>= 0.0000 <Sy>= 0.0000 <Sz>= 0.5000 <S**2>= 0.7739 S= 0.5119
 <L.S>= 0.000000000000E+00
 KE= 4.108331719568D+03 PE=-2.204999481326D+04 EE= 7.673818037364D+03
 Annihilation of the first spin contaminant:
 S**2 before annihilation     0.7739,   after     0.7505
 Leave Link  502 at Fri Nov  7 01:07:04 2025, MaxMem= 30870077440 cpu:           89189.6 elap:            1412.8
 (Enter /public/software/gauss/g16/l601.exe)
 Copying SCF densities to generalized density rwf, IOpCl= 1 IROHF=0.

 **********************************************************************

            Population analysis using the SCF density.

 **********************************************************************

 Orbital symmetries:
 Alpha Orbitals:
       Occupied  (A) (A) (A) (A) (A) (A) (A) (A) (A) (A) (A) (A)
                 (A) (A) (A) (A) (A) (A) (A) (A) (A) (A) (A) (A)
                 (A) (A) (A) (A) (A) (A) (A) (A) (A) (A) (A) (A)
                 (A) (A) (A) (A) (A) (A) (A) (A) (A) (A) (A) (A)
                 (A) (A) (A) (A) (A) (A) (A) (A) (A) (A) (A) (A)
                 (A) (A) (A) (A) (A) (A) (A) (A) (A) (A) (A) (A)
                 (A) (A) (A) (A) (A) (A) (A) (A) (A) (A) (A) (A)
                 (A) (A) (A) (A) (A) (A) (A) (A) (A) (A) (A) (A)
                 (A) (A) (A) (A) (A) (A) (A) (A) (A) (A) (A) (A)
                 (A) (A) (A) (A) (A) (A) (A) (A) (A) (A) (A) (A)
                 (A) (A) (A) (A) (A) (A) (A) (A) (A) (A) (A) (A)
                 (A) (A) (A) (A) (A) (A) (A) (A) (A) (A) (A) (A)
                 (A) (A) (A) (A) (A) (A) (A) (A) (A) (A) (A) (A)
                 (A) (A) (A) (A) (A) (A) (A) (A) (A) (A) (A) (A)
                 (A) (A) (A) (A) (A) (A) (A) (A) (A) (A) (A) (A)
                 (A)
       Virtual   (A) (A) (A) (A) (A) (A) (A) (A) (A) (A) (A) (A)
                 (A) (A) (A) (A) (A) (A) (A) (A) (A) (A) (A) (A)
                 (A) (A) (A) (A) (A) (A) (A) (A) (A) (A) (A) (A)
                 (A) (A) (A) (A) (A) (A) (A) (A) (A) (A) (A) (A)
                 (A) (A) (A) (A) (A) (A) (A) (A) (A) (A) (A) (A)
                 (A) (A) (A) (A) (A) (A) (A) (A) (A) (A) (A) (A)
                 (A) (A) (A) (A) (A) (A) (A) (A) (A) (A) (A) (A)
                 (A) (A) (A) (A) (A) (A) (A) (A) (A) (A) (A) (A)
                 (A) (A) (A) (A) (A) (A) (A) (A) (A) (A) (A) (A)
                 (A) (A) (A) (A) (A) (A) (A) (A) (A) (A) (A) (A)
                 (A) (A) (A) (A) (A) (A) (A) (A) (A) (A) (A) (A)
                 (A) (A) (A) (A) (A) (A) (A) (A) (A) (A) (A) (A)
                 (A) (A) (A) (A) (A) (A) (A) (A) (A) (A) (A) (A)
                 (A) (A) (A) (A) (A) (A) (A) (A) (A) (A) (A) (A)
                 (A) (A) (A) (A) (A) (A) (A) (A) (A) (A) (A) (A)
                 (A) (A) (A) (A) (A) (A) (A) (A) (A) (A) (A) (A)
                 (A) (A) (A) (A) (A) (A) (A) (A) (A) (A) (A) (A)
                 (A) (A) (A) (A) (A) (A) (A) (A) (A) (A) (A) (A)
                 (A) (A) (A) (A) (A) (A) (A) (A) (A) (A) (A) (A)
                 (A) (A) (A) (A) (A) (A) (A) (A) (A) (A) (A) (A)
                 (A) (A) (A) (A) (A) (A) (A) (A) (A) (A) (A) (A)
                 (A) (A) (A) (A) (A) (A) (A) (A) (A) (A) (A) (A)
                 (A) (A) (A) (A) (A) (A) (A) (A) (A) (A) (A) (A)
                 (A) (A) (A) (A) (A) (A) (A) (A) (A) (A) (A) (A)
                 (A) (A) (A) (A) (A) (A) (A) (A) (A) (A) (A) (A)
                 (A) (A) (A) (A) (A) (A) (A) (A) (A) (A) (A) (A)
                 (A) (A) (A) (A) (A) (A) (A) (A) (A) (A) (A) (A)
                 (A) (A) (A) (A) (A) (A) (A) (A) (A) (A) (A) (A)
                 (A) (A) (A) (A) (A) (A) (A) (A) (A) (A) (A) (A)
                 (A) (A) (A) (A) (A) (A) (A) (A) (A) (A) (A) (A)
                 (A) (A) (A) (A) (A) (A) (A) (A) (A) (A) (A) (A)
                 (A) (A) (A) (A) (A) (A) (A) (A) (A) (A) (A) (A)
                 (A) (A) (A) (A) (A) (A) (A) (A) (A) (A) (A) (A)
                 (A) (A) (A) (A) (A) (A) (A) (A) (A) (A) (A) (A)
                 (A) (A) (A) (A) (A) (A) (A) (A) (A) (A) (A) (A)
                 (A) (A) (A) (A) (A) (A) (A) (A) (A) (A) (A) (A)
                 (A) (A) (A) (A) (A) (A) (A) (A) (A) (A) (A) (A)
                 (A) (A) (A) (A) (A) (A) (A) (A) (A) (A) (A) (A)
                 (A) (A) (A) (A) (A) (A) (A) (A) (A) (A) (A) (A)
                 (A) (A) (A) (A) (A) (A) (A) (A) (A) (A) (A) (A)
                 (A) (A) (A) (A) (A) (A) (A) (A) (A) (A) (A) (A)
                 (A) (A) (A) (A) (A) (A) (A) (A) (A) (A) (A) (A)
                 (A) (A) (A) (A) (A) (A) (A) (A) (A) (A) (A) (A)
                 (A) (A) (A) (A) (A) (A) (A) (A) (A) (A) (A) (A)
                 (A) (A) (A) (A) (A) (A) (A) (A) (A) (A) (A) (A)
                 (A) (A) (A) (A) (A) (A) (A) (A) (A) (A) (A) (A)
                 (A) (A) (A) (A) (A) (A) (A) (A) (A) (A) (A) (A)
                 (A) (A) (A) (A) (A) (A) (A) (A) (A) (A) (A) (A)
                 (A) (A) (A) (A) (A) (A) (A) (A) (A) (A) (A) (A)
                 (A) (A) (A) (A) (A) (A) (A) (A) (A) (A) (A) (A)
                 (A) (A) (A) (A) (A) (A) (A) (A) (A) (A) (A) (A)
                 (A) (A) (A) (A) (A) (A) (A) (A) (A) (A) (A) (A)
                 (A) (A) (A) (A) (A) (A) (A) (A) (A) (A) (A) (A)
                 (A) (A) (A) (A) (A) (A) (A) (A) (A) (A) (A) (A)
                 (A) (A) (A) (A) (A) (A) (A) (A) (A) (A) (A) (A)
                 (A) (A) (A) (A) (A) (A) (A) (A) (A) (A) (A) (A)
                 (A) (A) (A) (A) (A) (A) (A) (A) (A) (A) (A) (A)
                 (A) (A) (A) (A) (A) (A) (A) (A) (A) (A) (A) (A)
                 (A) (A) (A) (A) (A) (A) (A) (A) (A) (A) (A) (A)
                 (A) (A) (A) (A) (A) (A) (A) (A) (A) (A) (A) (A)
                 (A) (A) (A) (A) (A) (A) (A) (A) (A) (A) (A) (A)
                 (A) (A) (A) (A) (A) (A) (A) (A) (A) (A) (A) (A)
                 (A) (A) (A) (A) (A) (A) (A) (A) (A) (A) (A) (A)
                 (A) (A) (A) (A) (A) (A) (A) (A) (A) (A) (A) (A)
                 (A) (A) (A) (A) (A) (A) (A) (A) (A) (A) (A) (A)
                 (A) (A) (A) (A) (A) (A) (A) (A) (A) (A) (A) (A)
                 (A) (A) (A) (A) (A) (A) (A) (A) (A) (A) (A) (A)
                 (A) (A) (A) (A) (A) (A) (A) (A) (A) (A) (A) (A)
                 (A) (A) (A) (A) (A) (A) (A) (A) (A) (A) (A) (A)
                 (A) (A) (A) (A) (A) (A) (A) (A) (A) (A) (A) (A)
                 (A) (A) (A) (A) (A) (A) (A) (A) (A) (A) (A) (A)
                 (A) (A) (A) (A) (A) (A) (A) (A) (A) (A) (A) (A)
                 (A) (A) (A) (A) (A) (A) (A) (A) (A) (A) (A) (A)
                 (A) (A) (A) (A) (A) (A) (A) (A) (A) (A) (A) (A)
                 (A) (A) (A) (A) (A) (A) (A) (A) (A) (A) (A) (A)
                 (A) (A) (A) (A) (A) (A) (A) (A) (A) (A) (A) (A)
                 (A) (A) (A) (A) (A) (A) (A) (A) (A) (A) (A) (A)
                 (A) (A) (A) (A) (A) (A) (A) (A) (A) (A) (A) (A)
                 (A) (A) (A) (A) (A) (A) (A) (A) (A) (A) (A) (A)
                 (A) (A) (A) (A) (A) (A) (A) (A) (A) (A) (A) (A)
                 (A) (A) (A) (A) (A) (A) (A) (A) (A) (A) (A) (A)
                 (A) (A) (A) (A) (A) (A) (A) (A) (A) (A) (A) (A)
                 (A) (A) (A) (A) (A) (A) (A) (A) (A) (A) (A) (A)
                 (A) (A) (A) (A) (A) (A) (A) (A) (A) (A) (A) (A)
                 (A) (A) (A) (A) (A) (A) (A) (A) (A) (A) (A) (A)
                 (A) (A) (A) (A) (A) (A) (A) (A) (A) (A) (A) (A)
                 (A) (A) (A) (A) (A) (A) (A) (A) (A) (A) (A) (A)
                 (A) (A) (A) (A) (A) (A) (A) (A) (A) (A) (A) (A)
                 (A) (A) (A) (A) (A) (A) (A) (A) (A) (A) (A) (A)
                 (A) (A) (A) (A) (A) (A) (A) (A) (A) (A) (A) (A)
                 (A) (A) (A) (A) (A) (A) (A) (A) (A) (A) (A) (A)
                 (A) (A) (A) (A) (A) (A) (A) (A) (A) (A) (A) (A)
                 (A) (A) (A) (A) (A) (A) (A) (A) (A) (A) (A) (A)
                 (A) (A) (A) (A) (A) (A) (A) (A) (A) (A) (A) (A)
                 (A) (A) (A) (A) (A) (A) (A) (A) (A) (A) (A) (A)
                 (A) (A) (A) (A) (A) (A) (A) (A) (A) (A) (A) (A)
                 (A) (A) (A) (A) (A) (A) (A) (A) (A) (A) (A) (A)
                 (A) (A) (A) (A) (A) (A) (A) (A) (A) (A) (A) (A)
                 (A) (A) (A) (A) (A) (A) (A) (A) (A) (A) (A) (A)
                 (A) (A) (A) (A) (A) (A) (A) (A) (A) (A) (A) (A)
                 (A) (A) (A) (A) (A) (A) (A) (A) (A) (A) (A) (A)
                 (A) (A) (A) (A) (A) (A) (A) (A) (A) (A) (A) (A)
                 (A) (A) (A) (A) (A) (A) (A) (A) (A) (A) (A) (A)
                 (A) (A) (A) (A) (A) (A) (A) (A) (A) (A) (A) (A)
                 (A) (A) (A) (A) (A) (A) (A) (A) (A) (A) (A) (A)
                 (A) (A) (A) (A) (A) (A) (A) (A) (A) (A) (A) (A)
                 (A) (A) (A) (A) (A) (A) (A) (A) (A) (A) (A) (A)
                 (A) (A) (A) (A) (A) (A) (A) (A) (A) (A) (A) (A)
                 (A) (A) (A) (A) (A) (A) (A) (A) (A) (A) (A) (A)
                 (A) (A) (A) (A) (A) (A) (A) (A) (A) (A) (A) (A)
                 (A) (A) (A) (A) (A) (A) (A) (A) (A) (A) (A) (A)
                 (A) (A) (A) (A) (A) (A) (A) (A) (A) (A) (A) (A)
                 (A) (A) (A) (A) (A) (A) (A) (A) (A) (A) (A) (A)
                 (A) (A) (A) (A) (A) (A) (A) (A) (A) (A) (A) (A)
                 (A) (A) (A) (A) (A) (A) (A) (A) (A) (A) (A) (A)
                 (A) (A) (A) (A) (A) (A) (A) (A) (A) (A) (A) (A)
                 (A) (A) (A) (A) (A) (A) (A) (A) (A) (A) (A) (A)
                 (A) (A) (A) (A) (A) (A) (A) (A) (A) (A) (A) (A)
                 (A) (A) (A) (A) (A) (A) (A) (A) (A) (A) (A) (A)
                 (A) (A) (A) (A) (A) (A) (A) (A) (A) (A) (A) (A)
                 (A) (A) (A) (A) (A) (A) (A) (A) (A) (A) (A) (A)
                 (A) (A) (A) (A) (A) (A) (A) (A) (A) (A) (A) (A)
                 (A) (A) (A) (A) (A) (A) (A) (A) (A) (A) (A) (A)
                 (A) (A) (A) (A) (A) (A) (A) (A) (A) (A) (A) (A)
                 (A) (A) (A) (A) (A) (A) (A) (A) (A) (A) (A) (A)
                 (A) (A) (A) (A) (A) (A) (A) (A) (A) (A) (A) (A)
                 (A) (A) (A) (A) (A) (A) (A) (A) (A) (A) (A) (A)
                 (A) (A) (A) (A) (A) (A) (A) (A)
 Beta  Orbitals:
       Occupied  (A) (A) (A) (A) (A) (A) (A) (A) (A) (A) (A) (A)
                 (A) (A) (A) (A) (A) (A) (A) (A) (A) (A) (A) (A)
                 (A) (A) (A) (A) (A) (A) (A) (A) (A) (A) (A) (A)
                 (A) (A) (A) (A) (A) (A) (A) (A) (A) (A) (A) (A)
                 (A) (A) (A) (A) (A) (A) (A) (A) (A) (A) (A) (A)
                 (A) (A) (A) (A) (A) (A) (A) (A) (A) (A) (A) (A)
                 (A) (A) (A) (A) (A) (A) (A) (A) (A) (A) (A) (A)
                 (A) (A) (A) (A) (A) (A) (A) (A) (A) (A) (A) (A)
                 (A) (A) (A) (A) (A) (A) (A) (A) (A) (A) (A) (A)
                 (A) (A) (A) (A) (A) (A) (A) (A) (A) (A) (A) (A)
                 (A) (A) (A) (A) (A) (A) (A) (A) (A) (A) (A) (A)
                 (A) (A) (A) (A) (A) (A) (A) (A) (A) (A) (A) (A)
                 (A) (A) (A) (A) (A) (A) (A) (A) (A) (A) (A) (A)
                 (A) (A) (A) (A) (A) (A) (A) (A) (A) (A) (A) (A)
                 (A) (A) (A) (A) (A) (A) (A) (A) (A) (A) (A) (A)
       Virtual   (A) (A) (A) (A) (A) (A) (A) (A) (A) (A) (A) (A)
                 (A) (A) (A) (A) (A) (A) (A) (A) (A) (A) (A) (A)
                 (A) (A) (A) (A) (A) (A) (A) (A) (A) (A) (A) (A)
                 (A) (A) (A) (A) (A) (A) (A) (A) (A) (A) (A) (A)
                 (A) (A) (A) (A) (A) (A) (A) (A) (A) (A) (A) (A)
                 (A) (A) (A) (A) (A) (A) (A) (A) (A) (A) (A) (A)
                 (A) (A) (A) (A) (A) (A) (A) (A) (A) (A) (A) (A)
                 (A) (A) (A) (A) (A) (A) (A) (A) (A) (A) (A) (A)
                 (A) (A) (A) (A) (A) (A) (A) (A) (A) (A) (A) (A)
                 (A) (A) (A) (A) (A) (A) (A) (A) (A) (A) (A) (A)
                 (A) (A) (A) (A) (A) (A) (A) (A) (A) (A) (A) (A)
                 (A) (A) (A) (A) (A) (A) (A) (A) (A) (A) (A) (A)
                 (A) (A) (A) (A) (A) (A) (A) (A) (A) (A) (A) (A)
                 (A) (A) (A) (A) (A) (A) (A) (A) (A) (A) (A) (A)
                 (A) (A) (A) (A) (A) (A) (A) (A) (A) (A) (A) (A)
                 (A) (A) (A) (A) (A) (A) (A) (A) (A) (A) (A) (A)
                 (A) (A) (A) (A) (A) (A) (A) (A) (A) (A) (A) (A)
                 (A) (A) (A) (A) (A) (A) (A) (A) (A) (A) (A) (A)
                 (A) (A) (A) (A) (A) (A) (A) (A) (A) (A) (A) (A)
                 (A) (A) (A) (A) (A) (A) (A) (A) (A) (A) (A) (A)
                 (A) (A) (A) (A) (A) (A) (A) (A) (A) (A) (A) (A)
                 (A) (A) (A) (A) (A) (A) (A) (A) (A) (A) (A) (A)
                 (A) (A) (A) (A) (A) (A) (A) (A) (A) (A) (A) (A)
                 (A) (A) (A) (A) (A) (A) (A) (A) (A) (A) (A) (A)
                 (A) (A) (A) (A) (A) (A) (A) (A) (A) (A) (A) (A)
                 (A) (A) (A) (A) (A) (A) (A) (A) (A) (A) (A) (A)
                 (A) (A) (A) (A) (A) (A) (A) (A) (A) (A) (A) (A)
                 (A) (A) (A) (A) (A) (A) (A) (A) (A) (A) (A) (A)
                 (A) (A) (A) (A) (A) (A) (A) (A) (A) (A) (A) (A)
                 (A) (A) (A) (A) (A) (A) (A) (A) (A) (A) (A) (A)
                 (A) (A) (A) (A) (A) (A) (A) (A) (A) (A) (A) (A)
                 (A) (A) (A) (A) (A) (A) (A) (A) (A) (A) (A) (A)
                 (A) (A) (A) (A) (A) (A) (A) (A) (A) (A) (A) (A)
                 (A) (A) (A) (A) (A) (A) (A) (A) (A) (A) (A) (A)
                 (A) (A) (A) (A) (A) (A) (A) (A) (A) (A) (A) (A)
                 (A) (A) (A) (A) (A) (A) (A) (A) (A) (A) (A) (A)
                 (A) (A) (A) (A) (A) (A) (A) (A) (A) (A) (A) (A)
                 (A) (A) (A) (A) (A) (A) (A) (A) (A) (A) (A) (A)
                 (A) (A) (A) (A) (A) (A) (A) (A) (A) (A) (A) (A)
                 (A) (A) (A) (A) (A) (A) (A) (A) (A) (A) (A) (A)
                 (A) (A) (A) (A) (A) (A) (A) (A) (A) (A) (A) (A)
                 (A) (A) (A) (A) (A) (A) (A) (A) (A) (A) (A) (A)
                 (A) (A) (A) (A) (A) (A) (A) (A) (A) (A) (A) (A)
                 (A) (A) (A) (A) (A) (A) (A) (A) (A) (A) (A) (A)
                 (A) (A) (A) (A) (A) (A) (A) (A) (A) (A) (A) (A)
                 (A) (A) (A) (A) (A) (A) (A) (A) (A) (A) (A) (A)
                 (A) (A) (A) (A) (A) (A) (A) (A) (A) (A) (A) (A)
                 (A) (A) (A) (A) (A) (A) (A) (A) (A) (A) (A) (A)
                 (A) (A) (A) (A) (A) (A) (A) (A) (A) (A) (A) (A)
                 (A) (A) (A) (A) (A) (A) (A) (A) (A) (A) (A) (A)
                 (A) (A) (A) (A) (A) (A) (A) (A) (A) (A) (A) (A)
                 (A) (A) (A) (A) (A) (A) (A) (A) (A) (A) (A) (A)
                 (A) (A) (A) (A) (A) (A) (A) (A) (A) (A) (A) (A)
                 (A) (A) (A) (A) (A) (A) (A) (A) (A) (A) (A) (A)
                 (A) (A) (A) (A) (A) (A) (A) (A) (A) (A) (A) (A)
                 (A) (A) (A) (A) (A) (A) (A) (A) (A) (A) (A) (A)
                 (A) (A) (A) (A) (A) (A) (A) (A) (A) (A) (A) (A)
                 (A) (A) (A) (A) (A) (A) (A) (A) (A) (A) (A) (A)
                 (A) (A) (A) (A) (A) (A) (A) (A) (A) (A) (A) (A)
                 (A) (A) (A) (A) (A) (A) (A) (A) (A) (A) (A) (A)
                 (A) (A) (A) (A) (A) (A) (A) (A) (A) (A) (A) (A)
                 (A) (A) (A) (A) (A) (A) (A) (A) (A) (A) (A) (A)
                 (A) (A) (A) (A) (A) (A) (A) (A) (A) (A) (A) (A)
                 (A) (A) (A) (A) (A) (A) (A) (A) (A) (A) (A) (A)
                 (A) (A) (A) (A) (A) (A) (A) (A) (A) (A) (A) (A)
                 (A) (A) (A) (A) (A) (A) (A) (A) (A) (A) (A) (A)
                 (A) (A) (A) (A) (A) (A) (A) (A) (A) (A) (A) (A)
                 (A) (A) (A) (A) (A) (A) (A) (A) (A) (A) (A) (A)
                 (A) (A) (A) (A) (A) (A) (A) (A) (A) (A) (A) (A)
                 (A) (A) (A) (A) (A) (A) (A) (A) (A) (A) (A) (A)
                 (A) (A) (A) (A) (A) (A) (A) (A) (A) (A) (A) (A)
                 (A) (A) (A) (A) (A) (A) (A) (A) (A) (A) (A) (A)
                 (A) (A) (A) (A) (A) (A) (A) (A) (A) (A) (A) (A)
                 (A) (A) (A) (A) (A) (A) (A) (A) (A) (A) (A) (A)
                 (A) (A) (A) (A) (A) (A) (A) (A) (A) (A) (A) (A)
                 (A) (A) (A) (A) (A) (A) (A) (A) (A) (A) (A) (A)
                 (A) (A) (A) (A) (A) (A) (A) (A) (A) (A) (A) (A)
                 (A) (A) (A) (A) (A) (A) (A) (A) (A) (A) (A) (A)
                 (A) (A) (A) (A) (A) (A) (A) (A) (A) (A) (A) (A)
                 (A) (A) (A) (A) (A) (A) (A) (A) (A) (A) (A) (A)
                 (A) (A) (A) (A) (A) (A) (A) (A) (A) (A) (A) (A)
                 (A) (A) (A) (A) (A) (A) (A) (A) (A) (A) (A) (A)
                 (A) (A) (A) (A) (A) (A) (A) (A) (A) (A) (A) (A)
                 (A) (A) (A) (A) (A) (A) (A) (A) (A) (A) (A) (A)
                 (A) (A) (A) (A) (A) (A) (A) (A) (A) (A) (A) (A)
                 (A) (A) (A) (A) (A) (A) (A) (A) (A) (A) (A) (A)
                 (A) (A) (A) (A) (A) (A) (A) (A) (A) (A) (A) (A)
                 (A) (A) (A) (A) (A) (A) (A) (A) (A) (A) (A) (A)
                 (A) (A) (A) (A) (A) (A) (A) (A) (A) (A) (A) (A)
                 (A) (A) (A) (A) (A) (A) (A) (A) (A) (A) (A) (A)
                 (A) (A) (A) (A) (A) (A) (A) (A) (A) (A) (A) (A)
                 (A) (A) (A) (A) (A) (A) (A) (A) (A) (A) (A) (A)
                 (A) (A) (A) (A) (A) (A) (A) (A) (A) (A) (A) (A)
                 (A) (A) (A) (A) (A) (A) (A) (A) (A) (A) (A) (A)
                 (A) (A) (A) (A) (A) (A) (A) (A) (A) (A) (A) (A)
                 (A) (A) (A) (A) (A) (A) (A) (A) (A) (A) (A) (A)
                 (A) (A) (A) (A) (A) (A) (A) (A) (A) (A) (A) (A)
                 (A) (A) (A) (A) (A) (A) (A) (A) (A) (A) (A) (A)
                 (A) (A) (A) (A) (A) (A) (A) (A) (A) (A) (A) (A)
                 (A) (A) (A) (A) (A) (A) (A) (A) (A) (A) (A) (A)
                 (A) (A) (A) (A) (A) (A) (A) (A) (A) (A) (A) (A)
                 (A) (A) (A) (A) (A) (A) (A) (A) (A) (A) (A) (A)
                 (A) (A) (A) (A) (A) (A) (A) (A) (A) (A) (A) (A)
                 (A) (A) (A) (A) (A) (A) (A) (A) (A) (A) (A) (A)
                 (A) (A) (A) (A) (A) (A) (A) (A) (A) (A) (A) (A)
                 (A) (A) (A) (A) (A) (A) (A) (A) (A) (A) (A) (A)
                 (A) (A) (A) (A) (A) (A) (A) (A) (A) (A) (A) (A)
                 (A) (A) (A) (A) (A) (A) (A) (A) (A) (A) (A) (A)
                 (A) (A) (A) (A) (A) (A) (A) (A) (A) (A) (A) (A)
                 (A) (A) (A) (A) (A) (A) (A) (A) (A) (A) (A) (A)
                 (A) (A) (A) (A) (A) (A) (A) (A) (A) (A) (A) (A)
                 (A) (A) (A) (A) (A) (A) (A) (A) (A) (A) (A) (A)
                 (A) (A) (A) (A) (A) (A) (A) (A) (A) (A) (A) (A)
                 (A) (A) (A) (A) (A) (A) (A) (A) (A) (A) (A) (A)
                 (A) (A) (A) (A) (A) (A) (A) (A) (A) (A) (A) (A)
                 (A) (A) (A) (A) (A) (A) (A) (A) (A) (A) (A) (A)
                 (A) (A) (A) (A) (A) (A) (A) (A) (A) (A) (A) (A)
                 (A) (A) (A) (A) (A) (A) (A) (A) (A) (A) (A) (A)
                 (A) (A) (A) (A) (A) (A) (A) (A) (A) (A) (A) (A)
                 (A) (A) (A) (A) (A) (A) (A) (A) (A) (A) (A) (A)
                 (A) (A) (A) (A) (A) (A) (A) (A) (A) (A) (A) (A)
                 (A) (A) (A) (A) (A) (A) (A) (A) (A) (A) (A) (A)
                 (A) (A) (A) (A) (A) (A) (A) (A) (A) (A) (A) (A)
                 (A) (A) (A) (A) (A) (A) (A) (A) (A) (A) (A) (A)
                 (A) (A) (A) (A) (A) (A) (A) (A) (A) (A) (A) (A)
                 (A) (A) (A) (A) (A) (A) (A) (A) (A) (A) (A) (A)
                 (A) (A) (A) (A) (A) (A) (A) (A) (A) (A) (A) (A)
                 (A) (A) (A) (A) (A) (A) (A) (A) (A)
 The electronic state is 2-A.
 Alpha  occ. eigenvalues --  -89.94345 -89.93989 -89.93970 -89.93847 -89.92952
 Alpha  occ. eigenvalues --  -89.92019 -25.19850 -25.19660 -19.65724 -19.65722
 Alpha  occ. eigenvalues --  -14.99092 -14.77497 -14.77427 -10.60430 -10.60382
 Alpha  occ. eigenvalues --  -10.60169 -10.60055 -10.59807 -10.59346 -10.59340
 Alpha  occ. eigenvalues --  -10.59196 -10.59070 -10.57971 -10.57955 -10.57872
 Alpha  occ. eigenvalues --  -10.57679 -10.57525 -10.57322 -10.56793 -10.56776
 Alpha  occ. eigenvalues --  -10.56127 -10.55940 -10.55937 -10.55692 -10.55645
 Alpha  occ. eigenvalues --  -10.55493 -10.55389 -10.55313 -10.55269 -10.55169
 Alpha  occ. eigenvalues --  -10.54014 -10.53646 -10.53636 -10.53560  -8.30056
 Alpha  occ. eigenvalues --   -8.29717  -8.29671  -8.29575  -8.28622  -8.27696
 Alpha  occ. eigenvalues --   -7.12296  -6.21963  -6.21783  -6.21624  -6.21622
 Alpha  occ. eigenvalues --   -6.21574  -6.21481  -6.21444  -6.21393  -6.21303
 Alpha  occ. eigenvalues --   -6.21302  -6.21235  -6.21161  -6.20600  -6.20389
 Alpha  occ. eigenvalues --   -6.20123  -6.19687  -6.19477  -6.19167  -1.33376
 Alpha  occ. eigenvalues --   -1.31579  -1.28412  -1.15080  -1.09501  -1.07580
 Alpha  occ. eigenvalues --   -1.00413  -1.00094  -0.99569  -0.98008  -0.97722
 Alpha  occ. eigenvalues --   -0.94085  -0.90700  -0.89768  -0.88225  -0.87843
 Alpha  occ. eigenvalues --   -0.87078  -0.86386  -0.85509  -0.84814  -0.83750
 Alpha  occ. eigenvalues --   -0.83481  -0.82499  -0.82239  -0.80203  -0.79950
 Alpha  occ. eigenvalues --   -0.77476  -0.76261  -0.72304  -0.71025  -0.68893
 Alpha  occ. eigenvalues --   -0.68368  -0.68147  -0.67850  -0.65980  -0.65541
 Alpha  occ. eigenvalues --   -0.64980  -0.64564  -0.64183  -0.63190  -0.61839
 Alpha  occ. eigenvalues --   -0.61613  -0.61205  -0.60903  -0.60463  -0.60298
 Alpha  occ. eigenvalues --   -0.59838  -0.59682  -0.59477  -0.57879  -0.57597
 Alpha  occ. eigenvalues --   -0.56547  -0.54016  -0.53916  -0.53475  -0.53207
 Alpha  occ. eigenvalues --   -0.52836  -0.52389  -0.51351  -0.51096  -0.50695
 Alpha  occ. eigenvalues --   -0.50321  -0.49091  -0.48353  -0.48136  -0.47989
 Alpha  occ. eigenvalues --   -0.47898  -0.47858  -0.47433  -0.47290  -0.47110
 Alpha  occ. eigenvalues --   -0.46827  -0.46622  -0.46495  -0.46331  -0.46131
 Alpha  occ. eigenvalues --   -0.45836  -0.45129  -0.44965  -0.44828  -0.44323
 Alpha  occ. eigenvalues --   -0.44065  -0.43538  -0.42930  -0.42484  -0.41763
 Alpha  occ. eigenvalues --   -0.41525  -0.41401  -0.40878  -0.40180  -0.39912
 Alpha  occ. eigenvalues --   -0.39846  -0.39644  -0.38605  -0.37965  -0.37578
 Alpha  occ. eigenvalues --   -0.34701  -0.33876  -0.33389  -0.33310  -0.32419
 Alpha  occ. eigenvalues --   -0.32022  -0.31871  -0.31427  -0.31259  -0.31048
 Alpha  occ. eigenvalues --   -0.30973  -0.30358  -0.27057  -0.26288  -0.25567
 Alpha  occ. eigenvalues --   -0.18888
 Alpha virt. eigenvalues --   -0.07607  -0.03756  -0.03381   0.00723   0.01717
 Alpha virt. eigenvalues --    0.02180   0.02820   0.03078   0.03380   0.03821
 Alpha virt. eigenvalues --    0.04986   0.05623   0.05762   0.07008   0.07516
 Alpha virt. eigenvalues --    0.08024   0.08158   0.08191   0.08555   0.08662
 Alpha virt. eigenvalues --    0.09083   0.09722   0.09781   0.10047   0.10088
 Alpha virt. eigenvalues --    0.10410   0.10626   0.10712   0.11031   0.11224
 Alpha virt. eigenvalues --    0.11515   0.11776   0.11848   0.12452   0.12662
 Alpha virt. eigenvalues --    0.12797   0.12825   0.13005   0.13214   0.13762
 Alpha virt. eigenvalues --    0.13957   0.14298   0.14555   0.14684   0.15054
 Alpha virt. eigenvalues --    0.15264   0.15641   0.15898   0.16369   0.16657
 Alpha virt. eigenvalues --    0.16915   0.17326   0.17651   0.17854   0.18332
 Alpha virt. eigenvalues --    0.18774   0.19054   0.19309   0.19756   0.20724
 Alpha virt. eigenvalues --    0.20985   0.21082   0.21499   0.21792   0.22041
 Alpha virt. eigenvalues --    0.22389   0.22541   0.22842   0.23255   0.23687
 Alpha virt. eigenvalues --    0.23904   0.23982   0.24031   0.24125   0.24291
 Alpha virt. eigenvalues --    0.24352   0.24574   0.24712   0.24963   0.25166
 Alpha virt. eigenvalues --    0.25332   0.25579   0.25688   0.26051   0.26370
 Alpha virt. eigenvalues --    0.26496   0.26567   0.26639   0.26773   0.26983
 Alpha virt. eigenvalues --    0.27111   0.27468   0.27906   0.27997   0.28168
 Alpha virt. eigenvalues --    0.28504   0.28721   0.28839   0.29206   0.29554
 Alpha virt. eigenvalues --    0.29681   0.29785   0.30382   0.30539   0.30845
 Alpha virt. eigenvalues --    0.31073   0.31388   0.31770   0.31855   0.32074
 Alpha virt. eigenvalues --    0.32318   0.32675   0.33144   0.33247   0.33459
 Alpha virt. eigenvalues --    0.33684   0.34262   0.34622   0.34711   0.34879
 Alpha virt. eigenvalues --    0.35065   0.35140   0.35400   0.35606   0.35687
 Alpha virt. eigenvalues --    0.35901   0.36155   0.36349   0.36590   0.36844
 Alpha virt. eigenvalues --    0.37028   0.37315   0.37439   0.37647   0.37913
 Alpha virt. eigenvalues --    0.38119   0.38346   0.38516   0.38846   0.38973
 Alpha virt. eigenvalues --    0.39235   0.39506   0.39612   0.39831   0.40336
 Alpha virt. eigenvalues --    0.40427   0.40550   0.41037   0.41162   0.41305
 Alpha virt. eigenvalues --    0.41544   0.42031   0.42223   0.42282   0.42353
 Alpha virt. eigenvalues --    0.42587   0.42669   0.42824   0.42918   0.43212
 Alpha virt. eigenvalues --    0.43415   0.43523   0.43847   0.43975   0.44160
 Alpha virt. eigenvalues --    0.44190   0.44452   0.44629   0.44746   0.44869
 Alpha virt. eigenvalues --    0.45348   0.45558   0.45836   0.46133   0.46325
 Alpha virt. eigenvalues --    0.46457   0.46751   0.46790   0.47091   0.47400
 Alpha virt. eigenvalues --    0.47671   0.48173   0.48482   0.48587   0.48774
 Alpha virt. eigenvalues --    0.49123   0.49482   0.49544   0.49938   0.50253
 Alpha virt. eigenvalues --    0.50428   0.50681   0.50783   0.51112   0.51354
 Alpha virt. eigenvalues --    0.51775   0.51952   0.52129   0.52296   0.52571
 Alpha virt. eigenvalues --    0.52788   0.53127   0.53535   0.53919   0.54130
 Alpha virt. eigenvalues --    0.54455   0.54956   0.55245   0.55597   0.55830
 Alpha virt. eigenvalues --    0.55890   0.56153   0.56449   0.56570   0.56664
 Alpha virt. eigenvalues --    0.56978   0.57278   0.57744   0.57886   0.58119
 Alpha virt. eigenvalues --    0.58428   0.58545   0.58750   0.58925   0.59164
 Alpha virt. eigenvalues --    0.59411   0.59723   0.60155   0.60581   0.60766
 Alpha virt. eigenvalues --    0.61273   0.61664   0.61993   0.62410   0.62658
 Alpha virt. eigenvalues --    0.62792   0.62945   0.63289   0.63449   0.63750
 Alpha virt. eigenvalues --    0.63997   0.64397   0.64598   0.64874   0.65294
 Alpha virt. eigenvalues --    0.65494   0.66155   0.66234   0.66527   0.66852
 Alpha virt. eigenvalues --    0.67176   0.67294   0.67377   0.67886   0.68165
 Alpha virt. eigenvalues --    0.68360   0.68637   0.68803   0.68928   0.69377
 Alpha virt. eigenvalues --    0.69531   0.69887   0.70046   0.70349   0.70667
 Alpha virt. eigenvalues --    0.70830   0.70937   0.71068   0.71349   0.71570
 Alpha virt. eigenvalues --    0.71904   0.72025   0.72230   0.72450   0.72654
 Alpha virt. eigenvalues --    0.72896   0.73138   0.73344   0.73593   0.74082
 Alpha virt. eigenvalues --    0.74388   0.74608   0.75002   0.75088   0.75470
 Alpha virt. eigenvalues --    0.75749   0.75897   0.76153   0.76788   0.77270
 Alpha virt. eigenvalues --    0.77777   0.77991   0.78107   0.78344   0.78814
 Alpha virt. eigenvalues --    0.79153   0.79411   0.79872   0.80239   0.80846
 Alpha virt. eigenvalues --    0.81233   0.81601   0.81913   0.82567   0.82690
 Alpha virt. eigenvalues --    0.83009   0.83395   0.83669   0.84113   0.84308
 Alpha virt. eigenvalues --    0.84591   0.84878   0.85130   0.85538   0.86025
 Alpha virt. eigenvalues --    0.86325   0.86547   0.86785   0.87539   0.87931
 Alpha virt. eigenvalues --    0.88181   0.88724   0.88822   0.89110   0.89584
 Alpha virt. eigenvalues --    0.89710   0.90061   0.90595   0.90884   0.91324
 Alpha virt. eigenvalues --    0.91574   0.91974   0.92141   0.92618   0.92801
 Alpha virt. eigenvalues --    0.93402   0.93525   0.94106   0.94407   0.94621
 Alpha virt. eigenvalues --    0.95024   0.95089   0.95110   0.95764   0.96264
 Alpha virt. eigenvalues --    0.96766   0.96964   0.97252   0.97777   0.98181
 Alpha virt. eigenvalues --    0.98372   0.98503   0.98953   0.99121   0.99339
 Alpha virt. eigenvalues --    0.99409   0.99468   0.99786   1.00087   1.00287
 Alpha virt. eigenvalues --    1.00719   1.00795   1.00981   1.01561   1.01630
 Alpha virt. eigenvalues --    1.01855   1.02002   1.02589   1.03016   1.03247
 Alpha virt. eigenvalues --    1.03618   1.03873   1.04124   1.04368   1.04825
 Alpha virt. eigenvalues --    1.04963   1.05473   1.05866   1.06300   1.06646
 Alpha virt. eigenvalues --    1.06909   1.07308   1.07368   1.07542   1.07938
 Alpha virt. eigenvalues --    1.08266   1.08425   1.08569   1.09559   1.09926
 Alpha virt. eigenvalues --    1.10152   1.10505   1.10901   1.11134   1.11626
 Alpha virt. eigenvalues --    1.12346   1.12510   1.12579   1.13256   1.13575
 Alpha virt. eigenvalues --    1.14088   1.14344   1.14629   1.14847   1.15686
 Alpha virt. eigenvalues --    1.16047   1.16210   1.16441   1.16765   1.17382
 Alpha virt. eigenvalues --    1.17933   1.18250   1.18484   1.19333   1.19687
 Alpha virt. eigenvalues --    1.19840   1.20020   1.20295   1.20736   1.21255
 Alpha virt. eigenvalues --    1.21456   1.21904   1.22080   1.22266   1.23167
 Alpha virt. eigenvalues --    1.23721   1.23859   1.24104   1.24182   1.24422
 Alpha virt. eigenvalues --    1.24695   1.24885   1.25189   1.25493   1.25943
 Alpha virt. eigenvalues --    1.26202   1.26811   1.27122   1.27222   1.27893
 Alpha virt. eigenvalues --    1.28365   1.28861   1.28994   1.29430   1.29919
 Alpha virt. eigenvalues --    1.30099   1.30290   1.30814   1.31218   1.31537
 Alpha virt. eigenvalues --    1.31924   1.32243   1.33033   1.33097   1.33313
 Alpha virt. eigenvalues --    1.33361   1.33989   1.34346   1.34701   1.34883
 Alpha virt. eigenvalues --    1.35181   1.35472   1.35909   1.36204   1.36576
 Alpha virt. eigenvalues --    1.37155   1.37664   1.38324   1.39109   1.39394
 Alpha virt. eigenvalues --    1.39950   1.40604   1.40876   1.41278   1.41473
 Alpha virt. eigenvalues --    1.41818   1.41958   1.42255   1.42604   1.43013
 Alpha virt. eigenvalues --    1.43317   1.43852   1.44127   1.44413   1.44767
 Alpha virt. eigenvalues --    1.45328   1.45920   1.46295   1.46557   1.46859
 Alpha virt. eigenvalues --    1.46969   1.47238   1.47553   1.47957   1.48049
 Alpha virt. eigenvalues --    1.48573   1.48882   1.49433   1.49608   1.50117
 Alpha virt. eigenvalues --    1.50242   1.50600   1.50914   1.51104   1.51388
 Alpha virt. eigenvalues --    1.52046   1.52207   1.52318   1.52450   1.52870
 Alpha virt. eigenvalues --    1.52948   1.53113   1.53423   1.53629   1.53873
 Alpha virt. eigenvalues --    1.54091   1.54305   1.54490   1.54760   1.54953
 Alpha virt. eigenvalues --    1.55232   1.55451   1.55811   1.56247   1.56338
 Alpha virt. eigenvalues --    1.56470   1.56924   1.57230   1.57758   1.57915
 Alpha virt. eigenvalues --    1.58025   1.58261   1.58901   1.59061   1.59194
 Alpha virt. eigenvalues --    1.59683   1.60158   1.60222   1.60574   1.60840
 Alpha virt. eigenvalues --    1.61152   1.61420   1.61603   1.61790   1.61953
 Alpha virt. eigenvalues --    1.62169   1.62402   1.62560   1.62644   1.63376
 Alpha virt. eigenvalues --    1.64257   1.64491   1.64736   1.65009   1.65443
 Alpha virt. eigenvalues --    1.66000   1.66331   1.66773   1.67225   1.67545
 Alpha virt. eigenvalues --    1.68017   1.68378   1.68626   1.69384   1.69792
 Alpha virt. eigenvalues --    1.69842   1.70736   1.71232   1.71445   1.71505
 Alpha virt. eigenvalues --    1.71890   1.71970   1.72327   1.72487   1.73083
 Alpha virt. eigenvalues --    1.73671   1.73887   1.74200   1.74478   1.75357
 Alpha virt. eigenvalues --    1.75492   1.76153   1.76511   1.76757   1.77138
 Alpha virt. eigenvalues --    1.77477   1.77748   1.78705   1.78800   1.78947
 Alpha virt. eigenvalues --    1.79300   1.79478   1.80147   1.80338   1.80431
 Alpha virt. eigenvalues --    1.80687   1.80929   1.81253   1.81297   1.81750
 Alpha virt. eigenvalues --    1.82043   1.82336   1.82547   1.82876   1.83132
 Alpha virt. eigenvalues --    1.83277   1.83724   1.83866   1.84230   1.84810
 Alpha virt. eigenvalues --    1.84942   1.85173   1.85323   1.85843   1.86140
 Alpha virt. eigenvalues --    1.86646   1.86929   1.87270   1.87774   1.87974
 Alpha virt. eigenvalues --    1.88380   1.89059   1.89531   1.89832   1.90016
 Alpha virt. eigenvalues --    1.90455   1.90796   1.91438   1.91648   1.92028
 Alpha virt. eigenvalues --    1.92233   1.92820   1.93190   1.93521   1.93734
 Alpha virt. eigenvalues --    1.94352   1.94832   1.95055   1.95493   1.95770
 Alpha virt. eigenvalues --    1.96413   1.96866   1.97080   1.98101   1.98127
 Alpha virt. eigenvalues --    1.98384   1.99657   2.00197   2.01003   2.01140
 Alpha virt. eigenvalues --    2.01708   2.01816   2.01986   2.02271   2.03193
 Alpha virt. eigenvalues --    2.03449   2.03698   2.03982   2.04065   2.04665
 Alpha virt. eigenvalues --    2.05028   2.05841   2.06182   2.06385   2.06836
 Alpha virt. eigenvalues --    2.06948   2.07544   2.08128   2.08448   2.08987
 Alpha virt. eigenvalues --    2.09297   2.09519   2.10379   2.10417   2.10865
 Alpha virt. eigenvalues --    2.11129   2.11797   2.11987   2.12439   2.12764
 Alpha virt. eigenvalues --    2.13121   2.13525   2.13880   2.14405   2.15111
 Alpha virt. eigenvalues --    2.15502   2.15740   2.15967   2.16329   2.16461
 Alpha virt. eigenvalues --    2.16655   2.17312   2.17430   2.18180   2.18472
 Alpha virt. eigenvalues --    2.18632   2.19544   2.19824   2.20318   2.20849
 Alpha virt. eigenvalues --    2.21184   2.21473   2.21975   2.22055   2.22220
 Alpha virt. eigenvalues --    2.22943   2.23119   2.23832   2.24926   2.25589
 Alpha virt. eigenvalues --    2.25733   2.26454   2.27763   2.28100   2.28648
 Alpha virt. eigenvalues --    2.28887   2.29516   2.30284   2.30348   2.31163
[...]
    53   Atom       -0.000082     -0.000024      0.000007
    54   Atom       -0.000082      0.000040     -0.000015
    55   Atom        0.000455     -0.000487     -0.000167
    56   Atom        0.000309     -0.000006      0.000001
    57   Atom        0.000194      0.000025      0.000026
    58   Atom        0.000117      0.000058      0.000055
    59   Atom        0.000115      0.000102      0.000108
    60   Atom       -0.000791     -0.001120     -0.000145
    61   Atom       -0.003092      0.001910      0.001019
    62   Atom       -0.001699      0.000924     -0.000929
    63   Atom       -0.000055     -0.000175     -0.001277
 --------------------------------------------------------


 ---------------------------------------------------------------------------------
              Anisotropic Spin Dipole Couplings in Principal Axis System
 ---------------------------------------------------------------------------------

       Atom             a.u.   MegaHertz   Gauss  10(-4) cm-1        Axes

              Baa    -0.1218     8.816     3.146     2.941  0.8573  0.5110 -0.0621
     1 O(17)  Bbb    -0.1162     8.405     2.999     2.804 -0.5038  0.8080 -0.3055
              Bcc     0.2380   -17.221    -6.145    -5.744 -0.1059  0.2932  0.9502
 
              Baa    -0.0342    -1.319    -0.471    -0.440  0.9953 -0.0233  0.0939
     2 N(14)  Bbb    -0.0296    -1.142    -0.408    -0.381  0.0475  0.9633 -0.2641
              Bcc     0.0638     2.461     0.878     0.821 -0.0843  0.2674  0.9599
 
              Baa    -0.1234     8.928     3.186     2.978  0.7958 -0.5616  0.2264
     3 O(17)  Bbb    -0.1176     8.512     3.037     2.839  0.5956  0.7934 -0.1256
              Bcc     0.2410   -17.440    -6.223    -5.817 -0.1091  0.2348  0.9659
 
              Baa    -0.0535    -7.181    -2.562    -2.395  0.9961 -0.0253  0.0840
     4 C(13)  Bbb    -0.0424    -5.696    -2.032    -1.900  0.0463  0.9649 -0.2585
              Bcc     0.0960    12.877     4.595     4.295 -0.0746  0.2614  0.9624
 
              Baa    -0.0152    -2.038    -0.727    -0.680 -0.2426  0.4737  0.8466
     5 C(13)  Bbb     0.0028     0.377     0.135     0.126  0.9636  0.0166  0.2668
              Bcc     0.0124     1.661     0.593     0.554  0.1123  0.8805 -0.4605
 
              Baa    -0.0331    -4.444    -1.586    -1.482  0.9173  0.2824  0.2808
     6 C(13)  Bbb    -0.0261    -3.506    -1.251    -1.169 -0.1261  0.8747 -0.4679
              Bcc     0.0592     7.949     2.837     2.652 -0.3778  0.3938  0.8380
 
              Baa    -0.0282    -3.780    -1.349    -1.261  0.4937  0.2086  0.8443
     7 C(13)  Bbb     0.0123     1.657     0.591     0.553  0.0227  0.9674 -0.2523
              Bcc     0.0158     2.123     0.757     0.708  0.8694 -0.1437 -0.4728
 
              Baa    -0.1964   -26.354    -9.404    -8.791  0.8149 -0.2789 -0.5081
     8 C(13)  Bbb    -0.1905   -25.569    -9.124    -8.529  0.1303  0.9423 -0.3083
              Bcc     0.3869    51.923    18.527    17.320  0.5648  0.1850  0.8042
 
              Baa    -0.0457    -6.134    -2.189    -2.046  0.6128  0.2727  0.7417
     9 C(13)  Bbb     0.0184     2.467     0.880     0.823  0.3869  0.7148 -0.5826
              Bcc     0.0273     3.667     1.309     1.223  0.6890 -0.6440 -0.3325
 
              Baa    -0.0845   -11.335    -4.045    -3.781 -0.4745  0.8664  0.1558
    10 C(13)  Bbb    -0.0814   -10.924    -3.898    -3.644 -0.5460 -0.4285  0.7199
              Bcc     0.1659    22.259     7.942     7.425  0.6904  0.2565  0.6764
 
              Baa    -0.0141    -1.888    -0.674    -0.630  0.5529  0.0357  0.8325
    11 C(13)  Bbb     0.0051     0.682     0.243     0.228 -0.5568  0.7591  0.3372
              Bcc     0.0090     1.206     0.430     0.402  0.6199  0.6500 -0.4396
 
              Baa    -0.0893   -11.986    -4.277    -3.998  0.7716 -0.1861 -0.6083
    12 C(13)  Bbb    -0.0823   -11.041    -3.940    -3.683  0.0376  0.9679 -0.2484
              Bcc     0.1716    23.027     8.217     7.681  0.6350  0.1688  0.7538
 
              Baa    -0.0914    -3.748    -1.337    -1.250 -0.0966  0.9626 -0.2530
    13 S(33)  Bbb    -0.0505    -2.071    -0.739    -0.691  0.9747  0.0400 -0.2200
              Bcc     0.1419     5.819     2.077     1.941  0.2016  0.2679  0.9421
 
              Baa    -0.0028    -0.375    -0.134    -0.125  0.3516 -0.1447  0.9249
    14 C(13)  Bbb    -0.0012    -0.157    -0.056    -0.052  0.5384  0.8395 -0.0733
              Bcc     0.0040     0.532     0.190     0.177  0.7658 -0.5237 -0.3731
 
              Baa    -0.0012    -0.156    -0.056    -0.052 -0.5761 -0.5078  0.6405
    15 C(13)  Bbb    -0.0009    -0.127    -0.045    -0.042  0.5642  0.3200  0.7611
              Bcc     0.0021     0.283     0.101     0.095 -0.5914  0.7999  0.1021
 
              Baa    -0.0008    -0.112    -0.040    -0.037  0.6794  0.6342  0.3689
    16 C(13)  Bbb    -0.0000    -0.006    -0.002    -0.002 -0.4236 -0.0715  0.9030
              Bcc     0.0009     0.118     0.042     0.039 -0.5991  0.7698 -0.2201
 
              Baa    -0.0005    -0.062    -0.022    -0.021  0.2576  0.2737  0.9267
    17 C(13)  Bbb    -0.0001    -0.010    -0.004    -0.003  0.0332  0.9560 -0.2916
              Bcc     0.0005     0.072     0.026     0.024  0.9657 -0.1059 -0.2372
 
              Baa    -0.0003    -0.045    -0.016    -0.015 -0.0640 -0.1365  0.9886
    18 C(13)  Bbb    -0.0003    -0.035    -0.013    -0.012  0.4063  0.9012  0.1508
              Bcc     0.0006     0.080     0.029     0.027  0.9115 -0.4113  0.0022
 
              Baa    -0.0003    -0.035    -0.012    -0.012  0.3715  0.9060 -0.2026
    19 C(13)  Bbb    -0.0002    -0.023    -0.008    -0.008  0.2230  0.1247  0.9668
              Bcc     0.0004     0.058     0.021     0.019  0.9012 -0.4044 -0.1557
 
              Baa    -0.0001    -0.018    -0.006    -0.006 -0.0405 -0.2287  0.9727
    20 C(13)  Bbb    -0.0001    -0.012    -0.004    -0.004  0.3103  0.9224  0.2298
              Bcc     0.0002     0.030     0.011     0.010  0.9498 -0.3111 -0.0336
 
              Baa    -0.0001    -0.017    -0.006    -0.006  0.1039  0.6665  0.7382
    21 C(13)  Bbb    -0.0001    -0.013    -0.005    -0.004  0.2748  0.6941 -0.6654
              Bcc     0.0002     0.031     0.011     0.010  0.9559 -0.2720  0.1111
 
              Baa    -0.0004    -0.016    -0.006    -0.005  0.1560  0.9602  0.2318
    22 S(33)  Bbb    -0.0001    -0.003    -0.001    -0.001 -0.2417 -0.1904  0.9515
              Bcc     0.0005     0.020     0.007     0.007  0.9577 -0.2045  0.2023
 
              Baa    -0.0112    -0.461    -0.164    -0.154 -0.0994 -0.0001  0.9950
    23 S(33)  Bbb    -0.0098    -0.401    -0.143    -0.134  0.8236 -0.5612  0.0822
              Bcc     0.0210     0.862     0.308     0.288  0.5584  0.8277  0.0559
 
              Baa    -0.0208    -0.800    -0.286    -0.267  0.8351 -0.4495 -0.3172
    24 N(14)  Bbb    -0.0146    -0.562    -0.200    -0.187  0.1490  0.7399 -0.6561
              Bcc     0.0353     1.362     0.486     0.454  0.5296  0.5006  0.6848
 
              Baa    -0.0027    -0.454    -0.162    -0.152  0.6963  0.1810  0.6946
    25 B(11)  Bbb     0.0008     0.140     0.050     0.047  0.3608  0.7483 -0.5567
              Bcc     0.0018     0.314     0.112     0.105 -0.6205  0.6382  0.4557
 
              Baa    -0.0071    -3.590    -1.281    -1.197  0.9892  0.1457 -0.0125
    26 F(19)  Bbb    -0.0061    -3.079    -1.099    -1.027 -0.0902  0.6750  0.7323
              Bcc     0.0133     6.669     2.380     2.225 -0.1151  0.7233 -0.6809
 
              Baa    -0.0053    -2.654    -0.947    -0.885  0.1293  0.1545  0.9795
    27 F(19)  Bbb    -0.0047    -2.373    -0.847    -0.792  0.9916 -0.0098 -0.1293
              Bcc     0.0100     5.027     1.794     1.677 -0.0104  0.9879 -0.1545
 
              Baa    -0.0375    -1.445    -0.516    -0.482  0.8527 -0.1570 -0.4983
    28 N(14)  Bbb    -0.0313    -1.209    -0.431    -0.403  0.0900  0.9836 -0.1560
              Bcc     0.0688     2.654     0.947     0.885  0.5146  0.0882  0.8529
 
              Baa    -0.0705    -9.464    -3.377    -3.157  0.7860 -0.4017 -0.4700
    29 C(13)  Bbb    -0.0648    -8.700    -3.104    -2.902  0.2380  0.8982 -0.3696
              Bcc     0.1354    18.164     6.481     6.059  0.5706  0.1787  0.8015
 
              Baa    -0.0139    -0.568    -0.203    -0.189  0.3660  0.9049  0.2175
    30 S(33)  Bbb    -0.0027    -0.110    -0.039    -0.037  0.4699 -0.3814  0.7961
              Bcc     0.0165     0.678     0.242     0.226  0.8033 -0.1892 -0.5647
 
              Baa    -0.0070    -0.933    -0.333    -0.311  0.6223 -0.5449 -0.5620
    31 C(13)  Bbb    -0.0055    -0.742    -0.265    -0.248  0.0295 -0.7011  0.7125
              Bcc     0.0125     1.676     0.598     0.559  0.7822  0.4600  0.4202
 
              Baa    -0.0013    -0.179    -0.064    -0.060  0.0326  0.1945  0.9804
    32 C(13)  Bbb     0.0001     0.008     0.003     0.003  0.3287  0.9242 -0.1943
              Bcc     0.0013     0.172     0.061     0.057  0.9439 -0.3286  0.0338
 
              Baa    -0.0006    -0.074    -0.027    -0.025 -0.2696  0.8686 -0.4157
    33 C(13)  Bbb    -0.0003    -0.042    -0.015    -0.014 -0.3677  0.3061  0.8781
              Bcc     0.0009     0.117     0.042     0.039  0.8900  0.3896  0.2369
 
              Baa    -0.0008    -0.107    -0.038    -0.036 -0.4760  0.2413  0.8457
    34 C(13)  Bbb    -0.0001    -0.014    -0.005    -0.005  0.4240  0.9055 -0.0197
              Bcc     0.0009     0.120     0.043     0.040  0.7705 -0.3492  0.5333
 
              Baa    -0.0005    -0.069    -0.024    -0.023 -0.5520  0.8010 -0.2316
    35 C(13)  Bbb    -0.0001    -0.017    -0.006    -0.006 -0.4625 -0.0630  0.8844
              Bcc     0.0006     0.085     0.030     0.028  0.6938  0.5953  0.4052
 
              Baa    -0.0004    -0.048    -0.017    -0.016 -0.2952 -0.0250  0.9551
    36 C(13)  Bbb    -0.0000    -0.004    -0.001    -0.001  0.9554 -0.0014  0.2953
              Bcc     0.0004     0.052     0.019     0.017 -0.0060  0.9997  0.0243
 
              Baa    -0.0002    -0.030    -0.011    -0.010 -0.5588  0.7968 -0.2298
    37 C(13)  Bbb    -0.0001    -0.008    -0.003    -0.003 -0.4176 -0.0310  0.9081
              Bcc     0.0003     0.037     0.013     0.012  0.7164  0.6035  0.3501
 
              Baa    -0.0003    -0.041    -0.015    -0.014 -0.4850 -0.1205  0.8662
    38 C(13)  Bbb     0.0001     0.012     0.004     0.004  0.6604  0.5989  0.4531
              Bcc     0.0002     0.029     0.010     0.010 -0.5733  0.7917 -0.2109
 
              Baa    -0.0004    -0.015    -0.005    -0.005 -0.3066 -0.3296  0.8930
    39 S(33)  Bbb     0.0002     0.006     0.002     0.002  0.8072  0.4072  0.4274
              Bcc     0.0002     0.008     0.003     0.003 -0.5045  0.8518  0.1412
 
              Baa    -0.0040    -0.163    -0.058    -0.054 -0.4529  0.7961  0.4013
    40 S(33)  Bbb    -0.0022    -0.089    -0.032    -0.030  0.8911  0.4180  0.1766
              Bcc     0.0062     0.252     0.090     0.084  0.0271 -0.4377  0.8987
 
              Baa    -0.0304    -4.075    -1.454    -1.359  0.5897  0.1751  0.7884
    41 C(13)  Bbb     0.0148     1.993     0.711     0.665  0.7479  0.2499 -0.6149
              Bcc     0.0155     2.082     0.743     0.695 -0.3047  0.9523  0.0164
 
              Baa    -0.0667    -8.948    -3.193    -2.985  0.4265  0.7966 -0.4284
    42 C(13)  Bbb    -0.0656    -8.807    -3.143    -2.938  0.6772 -0.5953 -0.4325
              Bcc     0.1323    17.755     6.336     5.923  0.5996  0.1056  0.7933
 
              Baa    -0.0609    -8.174    -2.917    -2.726  0.5677  0.1598  0.8076
    43 C(13)  Bbb     0.0252     3.380     1.206     1.127 -0.4436  0.8857  0.1366
              Bcc     0.0357     4.794     1.711     1.599  0.6935  0.4358 -0.5737
 
              Baa    -0.0328    -4.408    -1.573    -1.470  0.8828 -0.1807  0.4337
    44 C(13)  Bbb    -0.0259    -3.476    -1.240    -1.159  0.2221  0.9739 -0.0464
              Bcc     0.0587     7.883     2.813     2.630 -0.4140  0.1373  0.8999
 
              Baa    -0.0125    -1.681    -0.600    -0.561 -0.3168  0.0085  0.9484
    45 C(13)  Bbb     0.0014     0.191     0.068     0.064  0.9485  0.0032  0.3168
              Bcc     0.0111     1.490     0.532     0.497 -0.0004  1.0000 -0.0091
 
              Baa    -0.0024    -1.306    -0.466    -0.436  0.0779  0.2358  0.9687
    46 H(1)   Bbb    -0.0003    -0.163    -0.058    -0.054  0.9832 -0.1792 -0.0354
              Bcc     0.0028     1.468     0.524     0.490  0.1653  0.9551 -0.2458
 
              Baa    -0.0032    -1.700    -0.607    -0.567 -0.0415  0.2556  0.9659
    47 H(1)   Bbb    -0.0004    -0.203    -0.072    -0.068 -0.4150  0.8750 -0.2494
              Bcc     0.0036     1.903     0.679     0.635  0.9089  0.4112 -0.0698
 
              Baa    -0.0097    -5.184    -1.850    -1.729  0.6810 -0.5549 -0.4779
    48 H(1)   Bbb    -0.0031    -1.642    -0.586    -0.548  0.6842  0.2497  0.6852
              Bcc     0.0128     6.826     2.436     2.277  0.2609  0.7936 -0.5497
 
              Baa    -0.0025    -1.334    -0.476    -0.445  0.6518  0.1999  0.7316
    49 H(1)   Bbb    -0.0006    -0.299    -0.107    -0.100 -0.2708  0.9624 -0.0216
              Bcc     0.0031     1.633     0.583     0.545  0.7084  0.1840 -0.6814
 
              Baa    -0.0007    -0.392    -0.140    -0.131  0.5415 -0.2613  0.7991
    50 H(1)   Bbb    -0.0005    -0.268    -0.096    -0.089  0.6816  0.6928 -0.2354
              Bcc     0.0012     0.660     0.236     0.220 -0.4921  0.6721  0.5533
 
              Baa    -0.0003    -0.159    -0.057    -0.053  0.6991  0.6039  0.3830
    51 H(1)   Bbb    -0.0002    -0.128    -0.046    -0.043  0.0190 -0.5511  0.8342
              Bcc     0.0005     0.287     0.102     0.096  0.7148 -0.5759 -0.3967
 
              Baa    -0.0002    -0.090    -0.032    -0.030  0.2908  0.0131  0.9567
    52 H(1)   Bbb    -0.0002    -0.081    -0.029    -0.027  0.3631  0.9236 -0.1230
              Bcc     0.0003     0.170     0.061     0.057  0.8852 -0.3831 -0.2639
 
              Baa    -0.0001    -0.051    -0.018    -0.017  0.1240  0.0785  0.9892
    53 H(1)   Bbb    -0.0001    -0.045    -0.016    -0.015  0.3185  0.9410 -0.1146
              Bcc     0.0002     0.096     0.034     0.032  0.9398 -0.3292 -0.0916
 
              Baa    -0.0001    -0.052    -0.018    -0.017 -0.1275  0.1030  0.9865
    54 H(1)   Bbb    -0.0001    -0.047    -0.017    -0.016  0.3367  0.9400 -0.0546
              Bcc     0.0002     0.098     0.035     0.033  0.9329 -0.3252  0.1545
 
              Baa    -0.0005    -0.287    -0.102    -0.096  0.4834 -0.2952  0.8241
    55 H(1)   Bbb    -0.0004    -0.234    -0.083    -0.078 -0.1911  0.8831  0.4284
              Bcc     0.0010     0.520     0.186     0.174  0.8543  0.3646 -0.3704
 
              Baa    -0.0003    -0.135    -0.048    -0.045 -0.4757  0.8668 -0.1496
    56 H(1)   Bbb    -0.0002    -0.121    -0.043    -0.040 -0.0662  0.1343  0.9887
              Bcc     0.0005     0.257     0.092     0.086  0.8771  0.4802 -0.0065
 
              Baa    -0.0001    -0.076    -0.027    -0.025 -0.6005  0.7781 -0.1842
    57 H(1)   Bbb    -0.0001    -0.063    -0.023    -0.021 -0.1880  0.0866  0.9784
              Bcc     0.0003     0.139     0.050     0.046  0.7772  0.6221  0.0943
 
              Baa    -0.0001    -0.050    -0.018    -0.017 -0.5073  0.7879 -0.3490
    58 H(1)   Bbb    -0.0001    -0.043    -0.015    -0.014 -0.4730  0.0839  0.8770
              Bcc     0.0002     0.093     0.033     0.031  0.7203  0.6100  0.3301
 
              Baa    -0.0001    -0.062    -0.022    -0.021 -0.5826  0.7835 -0.2160
    59 H(1)   Bbb    -0.0001    -0.054    -0.019    -0.018 -0.5688 -0.2032  0.7969
              Bcc     0.0002     0.116     0.041     0.039  0.5805  0.5872  0.5641
 
              Baa    -0.0021    -1.107    -0.395    -0.369  0.5712  0.1580  0.8055
    60 H(1)   Bbb     0.0002     0.119     0.042     0.040  0.7210  0.3723 -0.5844
              Bcc     0.0019     0.988     0.352     0.329 -0.3922  0.9145  0.0987
 
              Baa    -0.0071    -3.793    -1.354    -1.265  0.7816  0.1853 -0.5956
    61 H(1)   Bbb    -0.0028    -1.478    -0.527    -0.493  0.5912  0.0844  0.8021
              Bcc     0.0099     5.271     1.881     1.758 -0.1989  0.9790  0.0436
 
              Baa    -0.0032    -1.686    -0.602    -0.562 -0.1162  0.1768  0.9774
    62 H(1)   Bbb    -0.0003    -0.181    -0.065    -0.060  0.6004  0.7964 -0.0726
              Bcc     0.0035     1.867     0.666     0.623  0.7912 -0.5784  0.1987
 
              Baa    -0.0025    -1.314    -0.469    -0.438  0.0841  0.2538  0.9636
    63 H(1)   Bbb    -0.0003    -0.147    -0.052    -0.049  0.9965 -0.0185 -0.0821
              Bcc     0.0027     1.461     0.521     0.487 -0.0030  0.9671 -0.2544
 

 ---------------------------------------------------------------------------------

 No NMR shielding tensors so no spin-rotation constants.
 Leave Link  601 at Fri Nov  7 01:07:07 2025, MaxMem= 30870077440 cpu:             158.2 elap:               2.8
 (Enter /public/software/gauss/g16/l9999.exe)
 1\1\GINC-CU015\SP\UM062X\def2TZVPP\C31H18B1F2N3O2S6(1-,2)\BAIDING\07-N
 ov-2025\0\\#p M062X/DEF2TZVPP scrf=(solvent=water) em=GD3\\Energy calc
 ulation for M100034835_reduced\\-1,2\O,0,-1.031894,8.609457,1.242722\N
 ,0,0.094553,8.049075,1.18383\O,0,1.154494,8.678102,1.442831\C,0,0.1710
 04,6.683616,0.817733\C,0,1.419742,6.033872,0.790305\C,0,1.489772,4.706
 042,0.421551\C,0,0.325985,3.962065,0.082439\C,0,0.397324,2.56001,-0.29
 3674\C,0,-0.584113,1.638142,0.170105\C,0,-1.61142,1.783782,1.129847\C,
 0,-2.212957,0.535643,1.306477\C,0,-1.544483,-0.355624,0.459289\S,0,-1.
 789823,-2.108359,0.278143\C,0,-3.498112,-2.264992,0.685906\C,0,-4.0258
 51,-2.837982,1.81783\C,0,-5.442764,-2.926525,1.79925\C,0,-6.014169,-2.
 41199,0.653172\C,0,-7.429171,-2.309976,0.345701\C,0,-8.481459,-2.29959
 1,1.236646\C,0,-9.755495,-2.209003,0.607573\C,0,-9.675631,-2.143998,-0
 .756764\S,0,-8.029428,-2.209109,-1.303232\S,0,-4.773402,-1.819083,-0.4
 37447\N,0,-0.565111,0.301392,-0.229837\B,0,0.451007,-0.334186,-1.21112
 6\F,0,-0.174214,-0.681878,-2.416283\F,0,0.990307,-1.490056,-0.615737\N
 ,0,1.550481,0.726638,-1.468017\C,0,2.634269,0.578068,-2.303235\S,0,3.1
 021,-0.965961,-3.043255\C,0,4.39765,-1.546158,-1.98165\C,0,5.729843,-1
 .648694,-2.302787\C,0,6.51951,-2.223325,-1.271713\C,0,5.793267,-2.5681
 81,-0.150243\C,0,6.298451,-3.163841,1.074184\C,0,7.461617,-3.885386,1.
 240243\C,0,7.675068,-4.317266,2.580593\C,0,6.676555,-3.933086,3.432987
 \S,0,5.453591,-3.015909,2.608929\S,0,4.092162,-2.20341,-0.380371\C,0,3
 .243232,1.817169,-2.503167\C,0,2.50803,2.759041,-1.775483\C,0,1.461954
 ,2.07159,-1.124795\C,0,-0.91928,4.647534,0.132915\C,0,-1.001446,5.9798
 65,0.482409\H,0,2.311813,6.575309,1.078258\H,0,2.451391,4.208323,0.445
 896\H,0,-1.855654,2.690599,1.662334\H,0,-3.023424,0.283019,1.974538\H,
 0,-3.410572,-3.193223,2.636388\H,0,-6.028654,-3.362495,2.599801\H,0,-8
 .33792,-2.336372,2.310293\H,0,-10.693694,-2.182423,1.149784\H,0,-10.47
 7527,-2.060901,-1.478068\H,0,6.13139,-1.304443,-3.248918\H,0,7.593824,
 -2.350955,-1.337302\H,0,8.130369,-4.112455,0.418049\H,0,8.533652,-4.89
 9524,2.895231\H,0,6.578329,-4.128849,4.492342\H,0,4.118032,1.994722,-3
 .113042\H,0,2.690967,3.821824,-1.735893\H,0,-1.823123,4.126498,-0.1592
 7\H,0,-1.95406,6.493836,0.481008\\Version=ES64L-G16RevA.03\State=2-A\H
 F=-4120.7290834\S2=0.773859\S2-1=0.\S2A=0.750452\RMSD=8.155e-09\Dipole
 =-1.0472762,-4.643258,2.0531671\Quadrupole=66.0677525,-84.2136815,18.1
 459291,-1.7949769,-4.3262136,-29.0755133\PG=C01 [X(C31H18B1F2N3O2S6)]\
 \@


 NECESSARY EVIL: ONE WE LIKE TOO MUCH TO RELINQUISH.
 Job cpu time:       1 days  1 hours  7 minutes 49.8 seconds.
 Elapsed time:       0 days  0 hours 23 minutes 53.5 seconds.
 File lengths (MBytes):  RWF=   3203 Int=      0 D2E=      0 Chk=    205 Scr=      1
 Normal termination of Gaussian 16 at Fri Nov  7 01:07:08 2025.
