 Entering Gaussian System, Link 0=g16
 Input=M100039987_reduced_sp.gjf
 Output=M100039987_reduced_sp.log
 Initial command:
 /public/software/gauss/g16/l1.exe "/public/home/baiding/1101_v2_sp/tmp_M100039987_reduced_sp_1568608/Gau-54770.inp" -scrdir="/public/home/baiding/1101_v2_sp/tmp_M100039987_reduced_sp_1568608/"
 Entering Link 1 = /public/software/gauss/g16/l1.exe PID=     54771.
  
 Copyright (c) 1988,1990,1992,1993,1995,1998,2003,2009,2016,
            Gaussian, Inc.  All Rights Reserved.
  
 This is part of the Gaussian(R) 16 program.  It is based on
 the Gaussian(R) 09 system (copyright 2009, Gaussian, Inc.),
 the Gaussian(R) 03 system (copyright 2003, Gaussian, Inc.),
 the Gaussian(R) 98 system (copyright 1998, Gaussian, Inc.),
 the Gaussian(R) 94 system (copyright 1995, Gaussian, Inc.),
 the Gaussian 92(TM) system (copyright 1992, Gaussian, Inc.),
 the Gaussian 90(TM) system (copyright 1990, Gaussian, Inc.),
 the Gaussian 88(TM) system (copyright 1988, Gaussian, Inc.),
 the Gaussian 86(TM) system (copyright 1986, Carnegie Mellon
 University), and the Gaussian 82(TM) system (copyright 1983,
 Carnegie Mellon University). Gaussian is a federally registered
 trademark of Gaussian, Inc.
  
 This software contains proprietary and confidential information,
 including trade secrets, belonging to Gaussian, Inc.
  
 This software is provided under written license and may be
 used, copied, transmitted, or stored only in accord with that
 written license.
  
 The following legend is applicable only to US Government
 contracts under FAR:
  
                    RESTRICTED RIGHTS LEGEND
  
 Use, reproduction and disclosure by the US Government is
 subject to restrictions as set forth in subparagraphs (a)
 and (c) of the Commercial Computer Software - Restricted
 Rights clause in FAR 52.227-19.
  
 Gaussian, Inc.
 340 Quinnipiac St., Bldg. 40, Wallingford CT 06492
  
  
 ---------------------------------------------------------------
 Warning -- This program may not be used in any manner that
 competes with the business of Gaussian, Inc. or will provide
 assistance to any competitor of Gaussian, Inc.  The licensee
 of this program is prohibited from giving any competitor of
 Gaussian, Inc. access to this program.  By using this program,
 the user acknowledges that Gaussian, Inc. is engaged in the
 business of creating and licensing software in the field of
 computational chemistry and represents and warrants to the
 licensee that it is not a competitor of Gaussian, Inc. and that
 it will not use this program in any manner prohibited above.
 ---------------------------------------------------------------
  

 Cite this work as:
 Gaussian 16, Revision A.03,
 M. J. Frisch, G. W. Trucks, H. B. Schlegel, G. E. Scuseria, 
 M. A. Robb, J. R. Cheeseman, G. Scalmani, V. Barone, 
 G. A. Petersson, H. Nakatsuji, X. Li, M. Caricato, A. V. Marenich, 
 J. Bloino, B. G. Janesko, R. Gomperts, B. Mennucci, H. P. Hratchian, 
 J. V. Ortiz, A. F. Izmaylov, J. L. Sonnenberg, D. Williams-Young, 
 F. Ding, F. Lipparini, F. Egidi, J. Goings, B. Peng, A. Petrone, 
 T. Henderson, D. Ranasinghe, V. G. Zakrzewski, J. Gao, N. Rega, 
 G. Zheng, W. Liang, M. Hada, M. Ehara, K. Toyota, R. Fukuda, 
 J. Hasegawa, M. Ishida, T. Nakajima, Y. Honda, O. Kitao, H. Nakai, 
 T. Vreven, K. Throssell, J. A. Montgomery, Jr., J. E. Peralta, 
 F. Ogliaro, M. J. Bearpark, J. J. Heyd, E. N. Brothers, K. N. Kudin, 
 V. N. Staroverov, T. A. Keith, R. Kobayashi, J. Normand, 
 K. Raghavachari, A. P. Rendell, J. C. Burant, S. S. Iyengar, 
 J. Tomasi, M. Cossi, J. M. Millam, M. Klene, C. Adamo, R. Cammi, 
 J. W. Ochterski, R. L. Martin, K. Morokuma, O. Farkas, 
 J. B. Foresman, and D. J. Fox, Gaussian, Inc., Wallingford CT, 2016.
 
 ******************************************
 Gaussian 16:  ES64L-G16RevA.03 25-Dec-2016
                 7-Nov-2025 
 ******************************************
 %nprocshared=64
 Will use up to   64 processors via shared memory.
 %mem=230GB
 %chk=M100039987_reduced_sp.chk
 ----------------------------------------------
 #p M062X/DEF2TZVPP scrf=(solvent=water) em=GD3
 ----------------------------------------------
 1/38=1,172=1/1;
 2/12=2,17=6,18=5,40=1/2;
 3/5=44,7=202,11=2,25=1,30=1,70=2201,72=1,74=-55,124=31/1,2,3;
 4//1;
 5/5=2,38=5,53=1/2;
 6/7=2,8=2,9=2,10=2,28=1/1;
 99/5=1,9=1/99;
 Leave Link    1 at Fri Nov  7 19:56:17 2025, MaxMem= 30870077440 cpu:              11.1 elap:               0.2
 (Enter /public/software/gauss/g16/l101.exe)
 -----------------------------------------
 Energy calculation for M100039987_reduced
 -----------------------------------------
 Symbolic Z-matrix:
 Charge = -1 Multiplicity = 2
 F                     0.67159   0.08267  -1.18243 
 B                    -0.08863   0.1175    0.00965 
 F                     0.78993   0.27823   1.09856 
 N                    -0.86274  -1.21519   0.15335 
 C                    -0.28543  -2.47668   0.17291 
 C                     1.14902  -2.61716   0.21605 
 C                     1.87149  -3.68494  -0.21196 
 C                     3.32324  -3.81635  -0.15311 
 C                     4.17379  -2.87121   0.46428 
 C                     5.55075  -3.04395   0.47155 
 C                     6.12443  -4.17041  -0.13406 
 C                     5.30279  -5.12449  -0.74182 
 C                     3.9242   -4.9457   -0.74922 
 C                     7.60609  -4.37473  -0.07277 
 F                     8.06019  -5.16983  -1.06997 
 F                     8.00032  -4.96007   1.09044 
 F                     8.2888   -3.20647  -0.15411 
 C                    -1.33231  -3.43767   0.09166 
 C                    -2.53631  -2.72392  -0.00846 
 C                    -2.23723  -1.34773   0.04628 
 C                    -3.08342  -0.20805  -0.0146 
 C                    -2.49445   1.08598   0.00105 
 C                    -3.11275   2.34572   0.11252 
 C                    -2.10795   3.32024   0.12793 
 C                    -0.8574    2.64156   0.03747 
 C                     0.42229   3.29582   0.08451 
 C                     1.65139   2.84375  -0.28666 
 C                     2.89286   3.60206  -0.1822 
 C                     3.00252   4.85504   0.46407 
 C                     4.21319   5.53117   0.51832 
 C                     5.36039   4.9746   -0.06365 
 C                     5.27997   3.73271  -0.70133 
 C                     4.06477   3.05999  -0.75402 
 C                     6.64731   5.73783  -0.04399 
 F                     6.7244    6.64743  -1.0534 
 F                     7.72921   4.93464  -0.17446 
 F                     6.81025   6.44028   1.10425 
 N                    -1.11449   1.27723  -0.03184 
 C                    -2.35424   4.76728   0.20091 
 C                    -3.39922   5.25426   1.01426 
 C                    -3.6782    6.61281   1.08002 
 C                    -2.92071   7.53077   0.33422 
 C                    -3.23181   8.96049   0.41972 
 O                    -2.6374    9.84735  -0.19109 
 C                    -1.88346   7.05715  -0.48735 
 C                    -1.60894   5.69943  -0.55689 
 C                    -4.55105  -0.36197  -0.07776 
 C                    -5.23474  -1.22662   0.80204 
 C                    -6.61595  -1.37624   0.73799 
 C                    -7.35402  -0.65844  -0.20877 
 C                    -6.69832   0.20666  -1.09016 
 C                    -5.31648   0.35109  -1.0231 
 C                    -8.83416  -0.86439  -0.31534 
 F                    -9.40444  -1.12473   0.88553 
 F                    -9.46913   0.21405  -0.83169 
 F                    -9.15059  -1.91416  -1.11976 
 C                    -1.26889  -4.90603   0.18602 
 C                    -2.10321  -5.6945   -0.63715 
 C                    -2.11657  -7.07663  -0.52656 
 C                    -1.29535  -7.71821   0.41676 
 C                    -1.28985  -9.17689   0.55489 
 O                    -1.96911  -9.95036  -0.11884 
 C                    -0.46706  -6.94281   1.24524 
 C                    -0.45524  -5.55861   1.13377 
 H                     1.6741   -1.75      0.60389 
 H                     1.35647  -4.52744  -0.66428 
 H                     3.75558  -1.99367   0.94566 
 H                     6.18422  -2.30243   0.94728 
 H                     5.73923  -5.99925  -1.21161 
 H                     3.29245  -5.68761  -1.22906 
 H                    -3.52401  -3.15648  -0.0633 
 H                    -4.17647   2.52534   0.15158 
 H                     0.35102   4.31793   0.44586 
 H                     1.74721   1.86125  -0.73231 
 H                     2.13571   5.30086   0.94007 
 H                     4.27328   6.48943   1.02394 
 H                     6.16387   3.29188  -1.14948 
 H                     4.01121   2.09426  -1.24817 
 H                    -3.97915   4.55504   1.6078 
 H                    -4.48159   6.97507   1.7162 
 H                    -4.07133   9.21583   1.09491 
 H                    -1.30976   7.7646   -1.07773 
 H                    -0.83177   5.3463   -1.22519 
 H                    -4.67822  -1.76754   1.55928 
 H                    -7.12019  -2.03801   1.43431 
 H                    -7.26382   0.76094  -1.83144 
 H                    -4.81811   1.01074  -1.72483 
 H                    -2.73282  -5.20612  -1.37412 
 H                    -2.75594  -7.67509  -1.16791 
 H                    -0.60956  -9.56888   1.33559 
 H                     0.15895  -7.43481   1.98516 
 H                     0.17572  -4.97044   1.79065 
 
 ITRead=  0  0  0  0  0  0  0  0  0  0  0  0  0  0  0  0  0  0  0  0
 ITRead=  0  0  0  0  0  0  0  0  0  0  0  0  0  0  0  0  0  0  0  0
 ITRead=  0  0  0  0  0  0  0  0  0  0  0  0  0  0  0  0  0  0  0  0
 ITRead=  0  0  0  0  0  0  0  0  0  0  0  0  0  0  0  0  0  0  0  0
 ITRead=  0  0  0  0  0  0  0  0  0  0  0  0
 MicOpt= -1 -1 -1 -1 -1 -1 -1 -1 -1 -1 -1 -1 -1 -1 -1 -1 -1 -1 -1 -1
 MicOpt= -1 -1 -1 -1 -1 -1 -1 -1 -1 -1 -1 -1 -1 -1 -1 -1 -1 -1 -1 -1
 MicOpt= -1 -1 -1 -1 -1 -1 -1 -1 -1 -1 -1 -1 -1 -1 -1 -1 -1 -1 -1 -1
 MicOpt= -1 -1 -1 -1 -1 -1 -1 -1 -1 -1 -1 -1 -1 -1 -1 -1 -1 -1 -1 -1
 MicOpt= -1 -1 -1 -1 -1 -1 -1 -1 -1 -1 -1 -1
 NAtoms=     92 NQM=       92 NQMF=       0 NMMI=      0 NMMIF=      0
                NMic=       0 NMicF=      0.
                    Isotopes and Nuclear Properties:
 (Nuclear quadrupole moments (NQMom) in fm**2, nuclear magnetic moments (NMagM)
  in nuclear magnetons)

  Atom         1           2           3           4           5           6           7           8           9          10
 IAtWgt=          19          11          19          14          12          12          12          12          12          12
 AtmWgt=  18.9984033  11.0093053  18.9984033  14.0030740  12.0000000  12.0000000  12.0000000  12.0000000  12.0000000  12.0000000
 NucSpn=           1           3           1           2           0           0           0           0           0           0
 AtZEff=  -0.0000000  -0.0000000  -0.0000000  -0.0000000  -0.0000000  -0.0000000  -0.0000000  -0.0000000  -0.0000000  -0.0000000
 NQMom=    0.0000000   4.0590000   0.0000000   2.0440000   0.0000000   0.0000000   0.0000000   0.0000000   0.0000000   0.0000000
 NMagM=    2.6288670   2.6886370   2.6288670   0.4037610   0.0000000   0.0000000   0.0000000   0.0000000   0.0000000   0.0000000
 AtZNuc=   9.0000000   5.0000000   9.0000000   7.0000000   6.0000000   6.0000000   6.0000000   6.0000000   6.0000000   6.0000000

  Atom        11          12          13          14          15          16          17          18          19          20
 IAtWgt=          12          12          12          12          19          19          19          12          12          12
 AtmWgt=  12.0000000  12.0000000  12.0000000  12.0000000  18.9984033  18.9984033  18.9984033  12.0000000  12.0000000  12.0000000
 NucSpn=           0           0           0           0           1           1           1           0           0           0
 AtZEff=  -0.0000000  -0.0000000  -0.0000000  -0.0000000  -0.0000000  -0.0000000  -0.0000000  -0.0000000  -0.0000000  -0.0000000
 NQMom=    0.0000000   0.0000000   0.0000000   0.0000000   0.0000000   0.0000000   0.0000000   0.0000000   0.0000000   0.0000000
 NMagM=    0.0000000   0.0000000   0.0000000   0.0000000   2.6288670   2.6288670   2.6288670   0.0000000   0.0000000   0.0000000
 AtZNuc=   6.0000000   6.0000000   6.0000000   6.0000000   9.0000000   9.0000000   9.0000000   6.0000000   6.0000000   6.0000000

  Atom        21          22          23          24          25          26          27          28          29          30
 IAtWgt=          12          12          12          12          12          12          12          12          12          12
 AtmWgt=  12.0000000  12.0000000  12.0000000  12.0000000  12.0000000  12.0000000  12.0000000  12.0000000  12.0000000  12.0000000
 NucSpn=           0           0           0           0           0           0           0           0           0           0
 AtZEff=  -0.0000000  -0.0000000  -0.0000000  -0.0000000  -0.0000000  -0.0000000  -0.0000000  -0.0000000  -0.0000000  -0.0000000
 NQMom=    0.0000000   0.0000000   0.0000000   0.0000000   0.0000000   0.0000000   0.0000000   0.0000000   0.0000000   0.0000000
 NMagM=    0.0000000   0.0000000   0.0000000   0.0000000   0.0000000   0.0000000   0.0000000   0.0000000   0.0000000   0.0000000
 AtZNuc=   6.0000000   6.0000000   6.0000000   6.0000000   6.0000000   6.0000000   6.0000000   6.0000000   6.0000000   6.0000000

  Atom        31          32          33          34          35          36          37          38          39          40
 IAtWgt=          12          12          12          12          19          19          19          14          12          12
 AtmWgt=  12.0000000  12.0000000  12.0000000  12.0000000  18.9984033  18.9984033  18.9984033  14.0030740  12.0000000  12.0000000
 NucSpn=           0           0           0           0           1           1           1           2           0           0
 AtZEff=  -0.0000000  -0.0000000  -0.0000000  -0.0000000  -0.0000000  -0.0000000  -0.0000000  -0.0000000  -0.0000000  -0.0000000
 NQMom=    0.0000000   0.0000000   0.0000000   0.0000000   0.0000000   0.0000000   0.0000000   2.0440000   0.0000000   0.0000000
 NMagM=    0.0000000   0.0000000   0.0000000   0.0000000   2.6288670   2.6288670   2.6288670   0.4037610   0.0000000   0.0000000
 AtZNuc=   6.0000000   6.0000000   6.0000000   6.0000000   9.0000000   9.0000000   9.0000000   7.0000000   6.0000000   6.0000000

  Atom        41          42          43          44          45          46          47          48          49          50
 IAtWgt=          12          12          12          16          12          12          12          12          12          12
 AtmWgt=  12.0000000  12.0000000  12.0000000  15.9949146  12.0000000  12.0000000  12.0000000  12.0000000  12.0000000  12.0000000
 NucSpn=           0           0           0           0           0           0           0           0           0           0
 AtZEff=  -0.0000000  -0.0000000  -0.0000000  -0.0000000  -0.0000000  -0.0000000  -0.0000000  -0.0000000  -0.0000000  -0.0000000
 NQMom=    0.0000000   0.0000000   0.0000000   0.0000000   0.0000000   0.0000000   0.0000000   0.0000000   0.0000000   0.0000000
 NMagM=    0.0000000   0.0000000   0.0000000   0.0000000   0.0000000   0.0000000   0.0000000   0.0000000   0.0000000   0.0000000
 AtZNuc=   6.0000000   6.0000000   6.0000000   8.0000000   6.0000000   6.0000000   6.0000000   6.0000000   6.0000000   6.0000000

  Atom        51          52          53          54          55          56          57          58          59          60
 IAtWgt=          12          12          12          19          19          19          12          12          12          12
 AtmWgt=  12.0000000  12.0000000  12.0000000  18.9984033  18.9984033  18.9984033  12.0000000  12.0000000  12.0000000  12.0000000
 NucSpn=           0           0           0           1           1           1           0           0           0           0
 AtZEff=  -0.0000000  -0.0000000  -0.0000000  -0.0000000  -0.0000000  -0.0000000  -0.0000000  -0.0000000  -0.0000000  -0.0000000
 NQMom=    0.0000000   0.0000000   0.0000000   0.0000000   0.0000000   0.0000000   0.0000000   0.0000000   0.0000000   0.0000000
 NMagM=    0.0000000   0.0000000   0.0000000   2.6288670   2.6288670   2.6288670   0.0000000   0.0000000   0.0000000   0.0000000
 AtZNuc=   6.0000000   6.0000000   6.0000000   9.0000000   9.0000000   9.0000000   6.0000000   6.0000000   6.0000000   6.0000000

  Atom        61          62          63          64          65          66          67          68          69          70
 IAtWgt=          12          16          12          12           1           1           1           1           1           1
 AtmWgt=  12.0000000  15.9949146  12.0000000  12.0000000   1.0078250   1.0078250   1.0078250   1.0078250   1.0078250   1.0078250
 NucSpn=           0           0           0           0           1           1           1           1           1           1
 AtZEff=  -0.0000000  -0.0000000  -0.0000000  -0.0000000  -0.0000000  -0.0000000  -0.0000000  -0.0000000  -0.0000000  -0.0000000
 NQMom=    0.0000000   0.0000000   0.0000000   0.0000000   0.0000000   0.0000000   0.0000000   0.0000000   0.0000000   0.0000000
 NMagM=    0.0000000   0.0000000   0.0000000   0.0000000   2.7928460   2.7928460   2.7928460   2.7928460   2.7928460   2.7928460
 AtZNuc=   6.0000000   8.0000000   6.0000000   6.0000000   1.0000000   1.0000000   1.0000000   1.0000000   1.0000000   1.0000000

  Atom        71          72          73          74          75          76          77          78          79          80
 IAtWgt=           1           1           1           1           1           1           1           1           1           1
 AtmWgt=   1.0078250   1.0078250   1.0078250   1.0078250   1.0078250   1.0078250   1.0078250   1.0078250   1.0078250   1.0078250
 NucSpn=           1           1           1           1           1           1           1           1           1           1
 AtZEff=  -0.0000000  -0.0000000  -0.0000000  -0.0000000  -0.0000000  -0.0000000  -0.0000000  -0.0000000  -0.0000000  -0.0000000
 NQMom=    0.0000000   0.0000000   0.0000000   0.0000000   0.0000000   0.0000000   0.0000000   0.0000000   0.0000000   0.0000000
 NMagM=    2.7928460   2.7928460   2.7928460   2.7928460   2.7928460   2.7928460   2.7928460   2.7928460   2.7928460   2.7928460
 AtZNuc=   1.0000000   1.0000000   1.0000000   1.0000000   1.0000000   1.0000000   1.0000000   1.0000000   1.0000000   1.0000000

  Atom        81          82          83          84          85          86          87          88          89          90
 IAtWgt=           1           1           1           1           1           1           1           1           1           1
 AtmWgt=   1.0078250   1.0078250   1.0078250   1.0078250   1.0078250   1.0078250   1.0078250   1.0078250   1.0078250   1.0078250
 NucSpn=           1           1           1           1           1           1           1           1           1           1
 AtZEff=  -0.0000000  -0.0000000  -0.0000000  -0.0000000  -0.0000000  -0.0000000  -0.0000000  -0.0000000  -0.0000000  -0.0000000
 NQMom=    0.0000000   0.0000000   0.0000000   0.0000000   0.0000000   0.0000000   0.0000000   0.0000000   0.0000000   0.0000000
 NMagM=    2.7928460   2.7928460   2.7928460   2.7928460   2.7928460   2.7928460   2.7928460   2.7928460   2.7928460   2.7928460
 AtZNuc=   1.0000000   1.0000000   1.0000000   1.0000000   1.0000000   1.0000000   1.0000000   1.0000000   1.0000000   1.0000000

  Atom        91          92
 IAtWgt=           1           1
 AtmWgt=   1.0078250   1.0078250
 NucSpn=           1           1
 AtZEff=  -0.0000000  -0.0000000
 NQMom=    0.0000000   0.0000000
 NMagM=    2.7928460   2.7928460
 AtZNuc=   1.0000000   1.0000000
 Leave Link  101 at Fri Nov  7 19:56:17 2025, MaxMem= 30870077440 cpu:               4.1 elap:               0.1
 (Enter /public/software/gauss/g16/l202.exe)
 Stoichiometry    C48H28BF11N2O2(1-,2)
 Framework group  C1[X(C48H28BF11N2O2)]
 Deg. of freedom   270
 Full point group                 C1      NOp   1
 Largest Abelian subgroup         C1      NOp   1
 Largest concise Abelian subgroup C1      NOp   1
                         Standard orientation:                         
 ---------------------------------------------------------------------
 Center     Atomic      Atomic             Coordinates (Angstroms)
 Number     Number       Type             X           Y           Z
 ---------------------------------------------------------------------
      1          9           0        0.671592    0.082667   -1.182433
      2          5           0       -0.088630    0.117496    0.009654
      3          9           0        0.789933    0.278225    1.098560
      4          7           0       -0.862738   -1.215194    0.153352
      5          6           0       -0.285428   -2.476677    0.172910
      6          6           0        1.149022   -2.617164    0.216047
      7          6           0        1.871491   -3.684936   -0.211956
      8          6           0        3.323245   -3.816352   -0.153108
      9          6           0        4.173786   -2.871204    0.464283
     10          6           0        5.550751   -3.043950    0.471553
     11          6           0        6.124434   -4.170408   -0.134059
     12          6           0        5.302792   -5.124490   -0.741815
     13          6           0        3.924200   -4.945700   -0.749221
     14          6           0        7.606095   -4.374730   -0.072767
     15          9           0        8.060194   -5.169828   -1.069969
     16          9           0        8.000318   -4.960073    1.090435
     17          9           0        8.288796   -3.206472   -0.154110
     18          6           0       -1.332310   -3.437672    0.091656
     19          6           0       -2.536309   -2.723921   -0.008459
     20          6           0       -2.237227   -1.347733    0.046282
     21          6           0       -3.083419   -0.208045   -0.014600
     22          6           0       -2.494451    1.085984    0.001053
     23          6           0       -3.112749    2.345720    0.112521
     24          6           0       -2.107950    3.320237    0.127931
     25          6           0       -0.857395    2.641561    0.037472
     26          6           0        0.422285    3.295821    0.084509
     27          6           0        1.651389    2.843747   -0.286663
     28          6           0        2.892859    3.602057   -0.182198
     29          6           0        3.002518    4.855036    0.464072
     30          6           0        4.213184    5.531174    0.518320
     31          6           0        5.360393    4.974601   -0.063651
     32          6           0        5.279965    3.732714   -0.701325
     33          6           0        4.064772    3.059990   -0.754022
     34          6           0        6.647305    5.737834   -0.043987
     35          9           0        6.724402    6.647428   -1.053402
     36          9           0        7.729212    4.934638   -0.174462
     37          9           0        6.810246    6.440279    1.104245
     38          7           0       -1.114491    1.277228   -0.031841
     39          6           0       -2.354237    4.767278    0.200909
     40          6           0       -3.399223    5.254256    1.014264
     41          6           0       -3.678196    6.612805    1.080021
     42          6           0       -2.920714    7.530771    0.334224
     43          6           0       -3.231806    8.960491    0.419724
     44          8           0       -2.637402    9.847349   -0.191089
     45          6           0       -1.883462    7.057146   -0.487347
     46          6           0       -1.608945    5.699427   -0.556893
     47          6           0       -4.551048   -0.361970   -0.077762
     48          6           0       -5.234737   -1.226624    0.802035
     49          6           0       -6.615947   -1.376240    0.737989
     50          6           0       -7.354017   -0.658437   -0.208772
     51          6           0       -6.698321    0.206656   -1.090161
     52          6           0       -5.316476    0.351092   -1.023102
     53          6           0       -8.834162   -0.864386   -0.315344
     54          9           0       -9.404439   -1.124727    0.885533
     55          9           0       -9.469133    0.214051   -0.831688
     56          9           0       -9.150591   -1.914158   -1.119756
     57          6           0       -1.268887   -4.906033    0.186022
     58          6           0       -2.103211   -5.694502   -0.637152
     59          6           0       -2.116566   -7.076632   -0.526557
     60          6           0       -1.295350   -7.718211    0.416761
     61          6           0       -1.289846   -9.176886    0.554890
     62          8           0       -1.969104   -9.950361   -0.118840
     63          6           0       -0.467062   -6.942810    1.245240
     64          6           0       -0.455240   -5.558613    1.133775
     65          1           0        1.674098   -1.749996    0.603885
     66          1           0        1.356475   -4.527439   -0.664284
     67          1           0        3.755581   -1.993664    0.945660
     68          1           0        6.184215   -2.302432    0.947277
     69          1           0        5.739228   -5.999249   -1.211613
     70          1           0        3.292447   -5.687605   -1.229058
     71          1           0       -3.524012   -3.156480   -0.063299
     72          1           0       -4.176470    2.525342    0.151581
     73          1           0        0.351014    4.317933    0.445857
     74          1           0        1.747212    1.861253   -0.732312
     75          1           0        2.135712    5.300857    0.940073
     76          1           0        4.273282    6.489430    1.023944
     77          1           0        6.163865    3.291877   -1.149481
     78          1           0        4.011207    2.094263   -1.248166
     79          1           0       -3.979155    4.555035    1.607801
     80          1           0       -4.481591    6.975068    1.716203
     81          1           0       -4.071328    9.215832    1.094911
     82          1           0       -1.309757    7.764598   -1.077725
     83          1           0       -0.831774    5.346296   -1.225194
     84          1           0       -4.678216   -1.767539    1.559276
     85          1           0       -7.120193   -2.038011    1.434310
     86          1           0       -7.263822    0.760938   -1.831437
     87          1           0       -4.818110    1.010737   -1.724826
     88          1           0       -2.732823   -5.206115   -1.374120
     89          1           0       -2.755936   -7.675086   -1.167914
     90          1           0       -0.609555   -9.568880    1.335591
     91          1           0        0.158948   -7.434810    1.985162
     92          1           0        0.175721   -4.970444    1.790647
 ---------------------------------------------------------------------
 Rotational constants (GHZ):           0.0255854           0.0230745           0.0123734
 Leave Link  202 at Fri Nov  7 19:56:17 2025, MaxMem= 30870077440 cpu:               0.2 elap:               0.0
 (Enter /public/software/gauss/g16/l301.exe)
 Standard basis: def2TZVPP (5D, 7F)
 Ernie: Thresh=  0.10000D-02 Tol=  0.10000D-05 Strict=F.
 There are  2724 symmetry adapted cartesian basis functions of A   symmetry.
 There are  2376 symmetry adapted basis functions of A   symmetry.
  2376 basis functions,  3740 primitive gaussians,  2724 cartesian basis functions
   226 alpha electrons      225 beta electrons
       nuclear repulsion energy      8562.1770012749 Hartrees.
 IExCor= 4336 DFT=T Ex+Corr=M062X ExCW=0 ScaHFX=  0.540000
 ScaDFX=  1.000000  1.000000  1.000000  1.000000 ScalE2=  1.000000  1.000000
 IRadAn=      5 IRanWt=     -1 IRanGd=            0 ICorTp=0 IEmpDi=131
 NAtoms=   92 NActive=   92 NUniq=   92 SFac= 1.00D+00 NAtFMM=   60 NAOKFM=T Big=T
 Integral buffers will be    131072 words long.
 Raffenetti 2 integral format.
 Two-electron integral symmetry is turned on.
 R6Disp:  Grimme-D3 Dispersion energy=       -0.0086055303 Hartrees.
 Nuclear repulsion after empirical dispersion term =     8562.1683957446 Hartrees.
 ------------------------------------------------------------------------------
 Polarizable Continuum Model (PCM)
 =================================
 Model                : PCM.
 Atomic radii         : UFF (Universal Force Field).
 Polarization charges : Total charges.
 Charge compensation  : None.
 Solution method      : On-the-fly selection.
 Cavity type          : Scaled VdW (van der Waals Surface) (Alpha=1.100).
 Cavity algorithm     : GePol (No added spheres)
                        Default sphere list used, NSphG=   92.
                        Lebedev-Laikov grids with approx.  5.0 points / Ang**2.
                        Smoothing algorithm: York/Karplus (Gamma=1.0000).
                        Polarization charges: spherical gaussians, with
                                              point-specific exponents (IZeta= 3).
                        Self-potential: point-specific (ISelfS= 7).
                        Self-field    : sphere-specific E.n sum rule (ISelfD= 2).
 Solvent              : Water, Eps=  78.355300 Eps(inf)=   1.777849
 ------------------------------------------------------------------------------
 GePol: Number of generator spheres                  =      92
 GePol: Total number of spheres                      =      92
 GePol: Number of exposed spheres                    =      92 (100.00%)
 GePol: Number of points                             =    7160
 GePol: Average weight of points                     =       0.13
 GePol: Minimum weight of points                     =   0.16D-10
 GePol: Maximum weight of points                     =    0.20577
 GePol: Number of points with low weight             =     451
 GePol: Fraction of low-weight points (<1% of avg)   =       6.30%
 GePol: Cavity surface area                          =    900.003 Ang**2
 GePol: Cavity volume                                =   1041.411 Ang**3
 Leave Link  301 at Fri Nov  7 19:56:17 2025, MaxMem= 30870077440 cpu:               5.3 elap:               0.1
 (Enter /public/software/gauss/g16/l302.exe)
 NPDir=0 NMtPBC=     1 NCelOv=     1 NCel=       1 NClECP=     1 NCelD=      1
         NCelK=      1 NCelE2=     1 NClLst=     1 CellRange=     0.0.
 One-electron integrals computed using PRISM.
 One-electron integral symmetry used in STVInt
   1 Symmetry operations used in ECPInt.
 ECPInt:  NShTT=  380628 NPrTT= 1133252 LenC2=  209153 LenP2D=  398470.
 LDataN:  DoStor=T MaxTD1= 6 Len=  172
 NBasis=  2376 RedAO= T EigKep=  5.35D-06  NBF=  2376
 NBsUse=  2376 1.00D-06 EigRej= -1.00D+00 NBFU=  2376
 Precomputing XC quadrature grid using
 IXCGrd= 4 IRadAn=           5 IRanWt=          -1 IRanGd=           0 AccXCQ= 0.00D+00.
 Generated NRdTot=       0 NPtTot=           0 NUsed=           0 NTot=          32
 NSgBfM=  2253  2253  2253  2253  2253 MxSgAt=    92 MxSgA2=    92.
 Leave Link  302 at Fri Nov  7 19:56:34 2025, MaxMem= 30870077440 cpu:            1100.2 elap:              17.3
 (Enter /public/software/gauss/g16/l303.exe)
 DipDrv:  MaxL=1.
 Leave Link  303 at Fri Nov  7 19:56:35 2025, MaxMem= 30870077440 cpu:              42.4 elap:               0.7
 (Enter /public/software/gauss/g16/l401.exe)
 ExpMin= 6.06D-02 ExpMax= 3.55D+04 ExpMxC= 1.21D+03 IAcc=3 IRadAn=         5 AccDes= 0.00D+00
 Harris functional with IExCor= 1009 and IRadAn=       5 diagonalized for initial guess.
 HarFok:  IExCor= 1009 AccDes= 0.00D+00 IRadAn=         5 IDoV= 1 UseB2=F ITyADJ=14
 ICtDFT=  3500011 ScaDFX=  1.000000  1.000000  1.000000  1.000000
 FoFCou: FMM=F IPFlag=           0 FMFlag=      100000 FMFlg1=        2001
         NFxFlg=           0 DoJE=T BraDBF=F KetDBF=T FulRan=T
         wScrn=  0.000000 ICntrl=       500 IOpCl=  0 I1Cent=   200000004 NGrid=           0
         NMat0=    1 NMatS0=      1 NMatT0=    0 NMatD0=    1 NMtDS0=    0 NMtDT0=    0
 Petite list used in FoFCou.
 Harris En= -3227.74520757715    
 JPrj=0 DoOrth=F DoCkMO=F.
 Initial guess <Sx>= 0.0000 <Sy>= 0.0000 <Sz>= 0.5000 <S**2>= 0.7500 S= 0.5000
 Leave Link  401 at Fri Nov  7 19:56:52 2025, MaxMem= 30870077440 cpu:            1079.9 elap:              17.0
 (Enter /public/software/gauss/g16/l502.exe)
 Integral symmetry usage will be decided dynamically.
 UHF open shell SCF:
 Using DIIS extrapolation, IDIIS=  1040.
 NGot= 30870077440 LenX= 30855040136 LenY= 30847617236
 Requested convergence on RMS density matrix=1.00D-08 within 128 cycles.
 Requested convergence on MAX density matrix=1.00D-06.
 Requested convergence on             energy=1.00D-06.
 No special actions if energy rises.
 Fock matrices will be formed incrementally for  20 cycles.

 Cycle   1  Pass 1  IDiag  1:
 FoFJK:  IHMeth= 1 ICntrl=       0 DoSepK=F KAlg= 0 I1Cent=           0 FoldK=F
 IRaf= 500000000 NMat=       1 IRICut=       1 DoRegI=T DoRafI=F ISym2E= 0 IDoP0=0 IntGTp=1.
 FoFCou: FMM=T IPFlag=           0 FMFlag=      100000 FMFlg1=        2001
         NFxFlg=           0 DoJE=F BraDBF=F KetDBF=F FulRan=T
         wScrn=  0.000000 ICntrl=         0 IOpCl=  1 I1Cent=           0 NGrid=           0
         NMat0=    1 NMatS0=      1 NMatT0=    0 NMatD0=    1 NMtDS0=    0 NMtDT0=    0
 Symmetry not used in FoFCou.
 FMM levels:  10  Number of levels for PrismC:   9
 Inv3:  Mode=1 IEnd=   153796800.
 Iteration    1 A*A^-1 deviation from unit magnitude is 1.11D-14 for   1768.
 Iteration    1 A*A^-1 deviation from orthogonality  is 5.92D-15 for   4151    860.
 Iteration    1 A^-1*A deviation from unit magnitude is 9.33D-15 for   1768.
 Iteration    1 A^-1*A deviation from orthogonality  is 3.89D-14 for   6001   5975.
 E= -3228.28861934621    
 DIIS: error= 2.06D-02 at cycle   1 NSaved=   1.
 NSaved= 1 IEnMin= 1 EnMin= -3228.28861934621     IErMin= 1 ErrMin= 2.06D-02
 ErrMax= 2.06D-02  0.00D+00 EMaxC= 1.00D-01 BMatC= 6.85D+00 BMatP= 6.85D+00
 IDIUse=3 WtCom= 7.94D-01 WtEn= 2.06D-01
 Coeff-Com:  0.100D+01
 Coeff-En:   0.100D+01
 Coeff:      0.100D+01
 Gap=     0.123 Goal=   None    Shift=    0.000
 Gap=     0.135 Goal=   None    Shift=    0.000
 GapD=    0.123 DampG=1.000 DampE=0.500 DampFc=0.5000 IDamp=-1.
 Damping current iteration by 5.00D-01
 RMSDP=1.61D-03 MaxDP=5.33D-01              OVMax= 1.90D-01

 Cycle   2  Pass 1  IDiag  1:
 RMSU=  8.07D-04    CP:  9.93D-01
 E= -3228.91493069450     Delta-E=       -0.626311348298 Rises=F Damp=T
 DIIS: error= 3.55D-03 at cycle   2 NSaved=   2.
 NSaved= 2 IEnMin= 2 EnMin= -3228.91493069450     IErMin= 2 ErrMin= 3.55D-03
 ErrMax= 3.55D-03  0.00D+00 EMaxC= 1.00D-01 BMatC= 6.92D-01 BMatP= 6.85D+00
 IDIUse=3 WtCom= 9.65D-01 WtEn= 3.55D-02
 Coeff-Com: -0.141D+00 0.114D+01
 Coeff-En:   0.000D+00 0.100D+01
 Coeff:     -0.136D+00 0.114D+01
 Gap=     0.118 Goal=   None    Shift=    0.000
 Gap=     0.144 Goal=   None    Shift=    0.000
 RMSDP=5.98D-04 MaxDP=1.18D-01 DE=-6.26D-01 OVMax= 9.29D-02

 Cycle   3  Pass 1  IDiag  1:
 RMSU=  5.93D-04    CP:  9.72D-01  9.87D-01
 E= -3229.47605220616     Delta-E=       -0.561121511651 Rises=F Damp=F
 DIIS: error= 4.27D-03 at cycle   3 NSaved=   3.
 NSaved= 3 IEnMin= 3 EnMin= -3229.47605220616     IErMin= 2 ErrMin= 3.55D-03
 ErrMax= 4.27D-03  0.00D+00 EMaxC= 1.00D-01 BMatC= 2.85D-01 BMatP= 6.92D-01
 IDIUse=3 WtCom= 9.57D-01 WtEn= 4.27D-02
 Coeff-Com: -0.142D+00 0.476D+00 0.665D+00
 Coeff-En:   0.000D+00 0.000D+00 0.100D+01
 Coeff:     -0.136D+00 0.456D+00 0.680D+00
 Gap=     0.127 Goal=   None    Shift=    0.000
 Gap=     0.141 Goal=   None    Shift=    0.000
 RMSDP=1.68D-04 MaxDP=6.04D-02 DE=-5.61D-01 OVMax= 5.17D-02

 Cycle   4  Pass 1  IDiag  1:
 RMSU=  1.57D-04    CP:  9.73D-01  1.04D+00  9.33D-01
 E= -3229.52033291303     Delta-E=       -0.044280706870 Rises=F Damp=F
 DIIS: error= 1.46D-03 at cycle   4 NSaved=   4.
 NSaved= 4 IEnMin= 4 EnMin= -3229.52033291303     IErMin= 4 ErrMin= 1.46D-03
 ErrMax= 1.46D-03  0.00D+00 EMaxC= 1.00D-01 BMatC= 4.81D-02 BMatP= 2.85D-01
 IDIUse=3 WtCom= 9.85D-01 WtEn= 1.46D-02
 Coeff-Com: -0.536D-01 0.128D+00 0.352D+00 0.573D+00
 Coeff-En:   0.000D+00 0.000D+00 0.102D+00 0.898D+00
 Coeff:     -0.528D-01 0.126D+00 0.348D+00 0.578D+00
 Gap=     0.127 Goal=   None    Shift=    0.000
 Gap=     0.143 Goal=   None    Shift=    0.000
 RMSDP=7.05D-05 MaxDP=3.19D-02 DE=-4.43D-02 OVMax= 1.48D-02

 Cycle   5  Pass 1  IDiag  1:
 RMSU=  4.80D-05    CP:  9.71D-01  1.02D+00  9.58D-01  7.12D-01
 E= -3229.52974950479     Delta-E=       -0.009416591765 Rises=F Damp=F
 DIIS: error= 3.73D-04 at cycle   5 NSaved=   5.
 NSaved= 5 IEnMin= 5 EnMin= -3229.52974950479     IErMin= 5 ErrMin= 3.73D-04
 ErrMax= 3.73D-04  0.00D+00 EMaxC= 1.00D-01 BMatC= 2.62D-03 BMatP= 4.81D-02
 IDIUse=3 WtCom= 9.96D-01 WtEn= 3.73D-03
 Coeff-Com: -0.160D-01 0.301D-01 0.121D+00 0.270D+00 0.595D+00
 Coeff-En:   0.000D+00 0.000D+00 0.000D+00 0.000D+00 0.100D+01
 Coeff:     -0.159D-01 0.300D-01 0.120D+00 0.269D+00 0.597D+00
 Gap=     0.127 Goal=   None    Shift=    0.000
 Gap=     0.145 Goal=   None    Shift=    0.000
 RMSDP=1.84D-05 MaxDP=4.90D-03 DE=-9.42D-03 OVMax= 5.88D-03

 Cycle   6  Pass 1  IDiag  1:
 RMSU=  1.71D-05    CP:  9.71D-01  1.03D+00  9.52D-01  7.24D-01  1.02D+00
 E= -3229.53036274096     Delta-E=       -0.000613236165 Rises=F Damp=F
 DIIS: error= 1.11D-04 at cycle   6 NSaved=   6.
 NSaved= 6 IEnMin= 6 EnMin= -3229.53036274096     IErMin= 6 ErrMin= 1.11D-04
 ErrMax= 1.11D-04  0.00D+00 EMaxC= 1.00D-01 BMatC= 2.08D-04 BMatP= 2.62D-03
 IDIUse=3 WtCom= 9.99D-01 WtEn= 1.11D-03
 Coeff-Com: -0.558D-03-0.105D-02 0.723D-02 0.304D-01 0.205D+00 0.759D+00
 Coeff-En:   0.000D+00 0.000D+00 0.000D+00 0.000D+00 0.000D+00 0.100D+01
 Coeff:     -0.558D-03-0.105D-02 0.722D-02 0.303D-01 0.205D+00 0.759D+00
 Gap=     0.128 Goal=   None    Shift=    0.000
 Gap=     0.146 Goal=   None    Shift=    0.000
 RMSDP=1.15D-05 MaxDP=3.06D-03 DE=-6.13D-04 OVMax= 6.37D-03

 Cycle   7  Pass 1  IDiag  1:
 RMSU=  7.58D-06    CP:  9.71D-01  1.02D+00  9.55D-01  7.32D-01  1.17D+00
                    CP:  1.22D+00
 E= -3229.53047595303     Delta-E=       -0.000113212072 Rises=F Damp=F
 DIIS: error= 5.85D-05 at cycle   7 NSaved=   7.
 NSaved= 7 IEnMin= 7 EnMin= -3229.53047595303     IErMin= 7 ErrMin= 5.85D-05
 ErrMax= 5.85D-05  0.00D+00 EMaxC= 1.00D-01 BMatC= 4.61D-05 BMatP= 2.08D-04
 IDIUse=1 WtCom= 1.00D+00 WtEn= 0.00D+00
 Coeff-Com:  0.362D-02-0.756D-02-0.265D-01-0.565D-01-0.822D-01 0.188D+00
 Coeff-Com:  0.982D+00
 Coeff:      0.362D-02-0.756D-02-0.265D-01-0.565D-01-0.822D-01 0.188D+00
 Coeff:      0.982D+00
 Gap=     0.130 Goal=   None    Shift=    0.000
 Gap=     0.147 Goal=   None    Shift=    0.000
 RMSDP=9.78D-06 MaxDP=2.66D-03 DE=-1.13D-04 OVMax= 5.04D-03

 Cycle   8  Pass 1  IDiag  1:
 RMSU=  3.50D-06    CP:  9.71D-01  1.02D+00  9.57D-01  7.40D-01  1.29D+00
                    CP:  1.52D+00  1.59D+00
 E= -3229.53052736306     Delta-E=       -0.000051410030 Rises=F Damp=F
 DIIS: error= 3.35D-05 at cycle   8 NSaved=   8.
 NSaved= 8 IEnMin= 8 EnMin= -3229.53052736306     IErMin= 8 ErrMin= 3.35D-05
 ErrMax= 3.35D-05  0.00D+00 EMaxC= 1.00D-01 BMatC= 1.60D-05 BMatP= 4.61D-05
 IDIUse=1 WtCom= 1.00D+00 WtEn= 0.00D+00
 Coeff-Com:  0.162D-02-0.285D-02-0.122D-01-0.305D-01-0.820D-01-0.986D-01
 Coeff-Com:  0.420D+00 0.805D+00
 Coeff:      0.162D-02-0.285D-02-0.122D-01-0.305D-01-0.820D-01-0.986D-01
 Coeff:      0.420D+00 0.805D+00
 Gap=     0.130 Goal=   None    Shift=    0.000
 Gap=     0.148 Goal=   None    Shift=    0.000
 RMSDP=4.46D-06 MaxDP=1.05D-03 DE=-5.14D-05 OVMax= 2.51D-03

 Cycle   9  Pass 1  IDiag  1:
 RMSU=  1.74D-06    CP:  9.71D-01  1.02D+00  9.57D-01  7.44D-01  1.33D+00
                    CP:  1.64D+00  1.90D+00  1.36D+00
 E= -3229.53054171825     Delta-E=       -0.000014355193 Rises=F Damp=F
 DIIS: error= 1.55D-05 at cycle   9 NSaved=   9.
 NSaved= 9 IEnMin= 9 EnMin= -3229.53054171825     IErMin= 9 ErrMin= 1.55D-05
 ErrMax= 1.55D-05  0.00D+00 EMaxC= 1.00D-01 BMatC= 4.08D-06 BMatP= 1.60D-05
 IDIUse=1 WtCom= 1.00D+00 WtEn= 0.00D+00
 Coeff-Com: -0.562D-03 0.142D-02 0.416D-02 0.671D-02-0.726D-02-0.984D-01
 Coeff-Com: -0.159D+00 0.319D+00 0.934D+00
 Coeff:     -0.562D-03 0.142D-02 0.416D-02 0.671D-02-0.726D-02-0.984D-01
 Coeff:     -0.159D+00 0.319D+00 0.934D+00
 Gap=     0.130 Goal=   None    Shift=    0.000
 Gap=     0.148 Goal=   None    Shift=    0.000
 RMSDP=2.93D-06 MaxDP=7.21D-04 DE=-1.44D-05 OVMax= 1.56D-03

 Cycle  10  Pass 1  IDiag  1:
 RMSU=  1.01D-06    CP:  9.71D-01  1.02D+00  9.58D-01  7.47D-01  1.35D+00
                    CP:  1.71D+00  2.11D+00  1.79D+00  1.36D+00
 E= -3229.53054586295     Delta-E=       -0.000004144698 Rises=F Damp=F
 DIIS: error= 6.87D-06 at cycle  10 NSaved=  10.
 NSaved=10 IEnMin=10 EnMin= -3229.53054586295     IErMin=10 ErrMin= 6.87D-06
 ErrMax= 6.87D-06  0.00D+00 EMaxC= 1.00D-01 BMatC= 8.75D-07 BMatP= 4.08D-06
 IDIUse=1 WtCom= 1.00D+00 WtEn= 0.00D+00
 Coeff-Com: -0.497D-03 0.104D-02 0.378D-02 0.835D-02 0.111D-01-0.237D-01
 Coeff-Com: -0.137D+00-0.580D-02 0.395D+00 0.748D+00
 Coeff:     -0.497D-03 0.104D-02 0.378D-02 0.835D-02 0.111D-01-0.237D-01
 Coeff:     -0.137D+00-0.580D-02 0.395D+00 0.748D+00
 Gap=     0.130 Goal=   None    Shift=    0.000
 Gap=     0.148 Goal=   None    Shift=    0.000
 RMSDP=7.99D-07 MaxDP=1.24D-04 DE=-4.14D-06 OVMax= 5.29D-04

 Cycle  11  Pass 1  IDiag  1:
 RMSU=  4.65D-07    CP:  9.71D-01  1.02D+00  9.58D-01  7.48D-01  1.35D+00
                    CP:  1.72D+00  2.14D+00  1.87D+00  1.61D+00  1.16D+00
 E= -3229.53054656990     Delta-E=       -0.000000706954 Rises=F Damp=F
 DIIS: error= 3.61D-06 at cycle  11 NSaved=  11.
 NSaved=11 IEnMin=11 EnMin= -3229.53054656990     IErMin=11 ErrMin= 3.61D-06
 ErrMax= 3.61D-06  0.00D+00 EMaxC= 1.00D-01 BMatC= 2.15D-07 BMatP= 8.75D-07
 IDIUse=1 WtCom= 1.00D+00 WtEn= 0.00D+00
 Coeff-Com: -0.766D-04 0.119D-03 0.572D-03 0.191D-02 0.547D-02 0.848D-02
 Coeff-Com: -0.210D-01-0.641D-01-0.365D-01 0.280D+00 0.825D+00
 Coeff:     -0.766D-04 0.119D-03 0.572D-03 0.191D-02 0.547D-02 0.848D-02
 Coeff:     -0.210D-01-0.641D-01-0.365D-01 0.280D+00 0.825D+00
 Gap=     0.130 Goal=   None    Shift=    0.000
 Gap=     0.148 Goal=   None    Shift=    0.000
 RMSDP=4.70D-07 MaxDP=8.06D-05 DE=-7.07D-07 OVMax= 3.31D-04

 Cycle  12  Pass 1  IDiag  1:
 RMSU=  2.68D-07    CP:  9.71D-01  1.02D+00  9.58D-01  7.48D-01  1.35D+00
                    CP:  1.73D+00  2.15D+00  1.92D+00  1.70D+00  1.39D+00
                    CP:  1.30D+00
 E= -3229.53054683876     Delta-E=       -0.000000268858 Rises=F Damp=F
 DIIS: error= 2.60D-06 at cycle  12 NSaved=  12.
 NSaved=12 IEnMin=12 EnMin= -3229.53054683876     IErMin=12 ErrMin= 2.60D-06
 ErrMax= 2.60D-06  0.00D+00 EMaxC= 1.00D-01 BMatC= 8.18D-08 BMatP= 2.15D-07
 IDIUse=1 WtCom= 1.00D+00 WtEn= 0.00D+00
 Coeff-Com:  0.129D-03-0.281D-03-0.101D-02-0.200D-02-0.152D-02 0.100D-01
 Coeff-Com:  0.367D-01-0.181D-01-0.141D+00-0.156D+00 0.339D+00 0.934D+00
 Coeff:      0.129D-03-0.281D-03-0.101D-02-0.200D-02-0.152D-02 0.100D-01
 Coeff:      0.367D-01-0.181D-01-0.141D+00-0.156D+00 0.339D+00 0.934D+00
 Gap=     0.130 Goal=   None    Shift=    0.000
 Gap=     0.148 Goal=   None    Shift=    0.000
 RMSDP=3.63D-07 MaxDP=5.37D-05 DE=-2.69D-07 OVMax= 3.31D-04

 Cycle  13  Pass 1  IDiag  1:
 RMSU=  1.39D-07    CP:  9.71D-01  1.02D+00  9.58D-01  7.49D-01  1.35D+00
                    CP:  1.73D+00  2.15D+00  1.93D+00  1.77D+00  1.53D+00
                    CP:  1.78D+00  1.53D+00
 E= -3229.53054697984     Delta-E=       -0.000000141079 Rises=F Damp=F
 DIIS: error= 1.62D-06 at cycle  13 NSaved=  13.
 NSaved=13 IEnMin=13 EnMin= -3229.53054697984     IErMin=13 ErrMin= 1.62D-06
 ErrMax= 1.62D-06  0.00D+00 EMaxC= 1.00D-01 BMatC= 2.41D-08 BMatP= 8.18D-08
 IDIUse=1 WtCom= 1.00D+00 WtEn= 0.00D+00
 Coeff-Com:  0.609D-04-0.119D-03-0.465D-03-0.123D-02-0.212D-02-0.275D-03
 Coeff-Com:  0.171D-01 0.180D-01-0.279D-01-0.155D+00-0.184D+00 0.246D+00
 Coeff-Com:  0.109D+01
 Coeff:      0.609D-04-0.119D-03-0.465D-03-0.123D-02-0.212D-02-0.275D-03
 Coeff:      0.171D-01 0.180D-01-0.279D-01-0.155D+00-0.184D+00 0.246D+00
 Coeff:      0.109D+01
 Gap=     0.130 Goal=   None    Shift=    0.000
 Gap=     0.148 Goal=   None    Shift=    0.000
 RMSDP=2.80D-07 MaxDP=2.74D-05 DE=-1.41D-07 OVMax= 2.42D-04

 Cycle  14  Pass 1  IDiag  1:
 RMSU=  8.52D-08    CP:  9.71D-01  1.02D+00  9.58D-01  7.49D-01  1.35D+00
                    CP:  1.73D+00  2.16D+00  1.94D+00  1.81D+00  1.63D+00
                    CP:  2.09D+00  2.11D+00  1.61D+00
 E= -3229.53054703905     Delta-E=       -0.000000059212 Rises=F Damp=F
 DIIS: error= 9.57D-07 at cycle  14 NSaved=  14.
 NSaved=14 IEnMin=14 EnMin= -3229.53054703905     IErMin=14 ErrMin= 9.57D-07
 ErrMax= 9.57D-07  0.00D+00 EMaxC= 1.00D-01 BMatC= 8.80D-09 BMatP= 2.41D-08
 IDIUse=1 WtCom= 1.00D+00 WtEn= 0.00D+00
 Coeff-Com: -0.161D-04 0.403D-04 0.138D-03 0.991D-04-0.469D-03-0.362D-02
 Coeff-Com: -0.492D-02 0.138D-01 0.350D-01-0.139D-01-0.187D+00-0.223D+00
 Coeff-Com:  0.491D+00 0.893D+00
 Coeff:     -0.161D-04 0.403D-04 0.138D-03 0.991D-04-0.469D-03-0.362D-02
 Coeff:     -0.492D-02 0.138D-01 0.350D-01-0.139D-01-0.187D+00-0.223D+00
 Coeff:      0.491D+00 0.893D+00
 Gap=     0.130 Goal=   None    Shift=    0.000
 Gap=     0.148 Goal=   None    Shift=    0.000
 RMSDP=1.54D-07 MaxDP=1.64D-05 DE=-5.92D-08 OVMax= 1.44D-04

 Cycle  15  Pass 1  IDiag  1:
 RMSU=  3.83D-08    CP:  9.71D-01  1.02D+00  9.58D-01  7.49D-01  1.35D+00
                    CP:  1.73D+00  2.16D+00  1.95D+00  1.83D+00  1.67D+00
                    CP:  2.25D+00  2.40D+00  2.16D+00  1.51D+00
 E= -3229.53054705420     Delta-E=       -0.000000015150 Rises=F Damp=F
 DIIS: error= 4.32D-07 at cycle  15 NSaved=  15.
 NSaved=15 IEnMin=15 EnMin= -3229.53054705420     IErMin=15 ErrMin= 4.32D-07
 ErrMax= 4.32D-07  0.00D+00 EMaxC= 1.00D-01 BMatC= 1.93D-09 BMatP= 8.80D-09
 IDIUse=1 WtCom= 1.00D+00 WtEn= 0.00D+00
 Coeff-Com: -0.203D-04 0.430D-04 0.174D-03 0.352D-03 0.396D-03-0.102D-02
 Coeff-Com: -0.635D-02-0.134D-02 0.184D-01 0.435D-01-0.152D-02-0.147D+00
 Coeff-Com: -0.155D+00 0.284D+00 0.965D+00
 Coeff:     -0.203D-04 0.430D-04 0.174D-03 0.352D-03 0.396D-03-0.102D-02
 Coeff:     -0.635D-02-0.134D-02 0.184D-01 0.435D-01-0.152D-02-0.147D+00
 Coeff:     -0.155D+00 0.284D+00 0.965D+00
 Gap=     0.130 Goal=   None    Shift=    0.000
 Gap=     0.148 Goal=   None    Shift=    0.000
 RMSDP=7.43D-08 MaxDP=1.16D-05 DE=-1.52D-08 OVMax= 5.85D-05

 Cycle  16  Pass 1  IDiag  1:
 RMSU=  1.93D-08    CP:  9.71D-01  1.02D+00  9.58D-01  7.49D-01  1.35D+00
                    CP:  1.73D+00  2.16D+00  1.95D+00  1.84D+00  1.68D+00
                    CP:  2.29D+00  2.51D+00  2.40D+00  1.95D+00  1.41D+00
 E= -3229.53054705810     Delta-E=       -0.000000003900 Rises=F Damp=F
 DIIS: error= 2.09D-07 at cycle  16 NSaved=  16.
 NSaved=16 IEnMin=16 EnMin= -3229.53054705810     IErMin=16 ErrMin= 2.09D-07
 ErrMax= 2.09D-07  0.00D+00 EMaxC= 1.00D-01 BMatC= 5.21D-10 BMatP= 1.93D-09
 IDIUse=1 WtCom= 1.00D+00 WtEn= 0.00D+00
 Coeff-Com: -0.447D-05 0.820D-05 0.438D-04 0.124D-03 0.278D-03 0.417D-03
 Coeff-Com: -0.163D-02-0.378D-02 0.851D-04 0.221D-01 0.399D-01-0.160D-01
 Coeff-Com: -0.177D+00-0.706D-01 0.429D+00 0.777D+00
 Coeff:     -0.447D-05 0.820D-05 0.438D-04 0.124D-03 0.278D-03 0.417D-03
 Coeff:     -0.163D-02-0.378D-02 0.851D-04 0.221D-01 0.399D-01-0.160D-01
 Coeff:     -0.177D+00-0.706D-01 0.429D+00 0.777D+00
 Gap=     0.130 Goal=   None    Shift=    0.000
 Gap=     0.148 Goal=   None    Shift=    0.000
 RMSDP=2.66D-08 MaxDP=3.32D-06 DE=-3.90D-09 OVMax= 2.08D-05

 Cycle  17  Pass 1  IDiag  1:
 RMSU=  9.64D-09    CP:  9.71D-01  1.02D+00  9.58D-01  7.49D-01  1.35D+00
                    CP:  1.73D+00  2.16D+00  1.95D+00  1.84D+00  1.68D+00
                    CP:  2.30D+00  2.54D+00  2.48D+00  2.10D+00  1.67D+00
                    CP:  1.34D+00
 E= -3229.53054705869     Delta-E=       -0.000000000588 Rises=F Damp=F
 DIIS: error= 1.14D-07 at cycle  17 NSaved=  17.
 NSaved=17 IEnMin=17 EnMin= -3229.53054705869     IErMin=17 ErrMin= 1.14D-07
 ErrMax= 1.14D-07  0.00D+00 EMaxC= 1.00D-01 BMatC= 9.57D-11 BMatP= 5.21D-10
 IDIUse=1 WtCom= 1.00D+00 WtEn= 0.00D+00
 Coeff-Com:  0.302D-05-0.667D-05-0.243D-04-0.392D-04-0.114D-05 0.303D-03
 Coeff-Com:  0.881D-03-0.674D-03-0.379D-02-0.372D-02 0.106D-01 0.302D-01
 Coeff-Com: -0.994D-02-0.821D-01-0.115D+00 0.208D+00 0.965D+00
 Coeff:      0.302D-05-0.667D-05-0.243D-04-0.392D-04-0.114D-05 0.303D-03
 Coeff:      0.881D-03-0.674D-03-0.379D-02-0.372D-02 0.106D-01 0.302D-01
 Coeff:     -0.994D-02-0.821D-01-0.115D+00 0.208D+00 0.965D+00
 Gap=     0.130 Goal=   None    Shift=    0.000
 Gap=     0.148 Goal=   None    Shift=    0.000
 RMSDP=1.25D-08 MaxDP=3.17D-06 DE=-5.88D-10 OVMax= 8.01D-06

 Cycle  18  Pass 1  IDiag  1:
 RMSU=  4.98D-09    CP:  9.71D-01  1.02D+00  9.58D-01  7.49D-01  1.35D+00
                    CP:  1.73D+00  2.16D+00  1.95D+00  1.84D+00  1.68D+00
                    CP:  2.31D+00  2.54D+00  2.49D+00  2.15D+00  1.81D+00
                    CP:  1.69D+00  1.34D+00
 E= -3229.53054705844     Delta-E=        0.000000000253 Rises=F Damp=F
 DIIS: error= 6.98D-08 at cycle  18 NSaved=  18.
 NSaved=18 IEnMin=17 EnMin= -3229.53054705869     IErMin=18 ErrMin= 6.98D-08
 ErrMax= 6.98D-08  0.00D+00 EMaxC= 1.00D-01 BMatC= 3.00D-11 BMatP= 9.57D-11
 IDIUse=1 WtCom= 1.00D+00 WtEn= 0.00D+00
 Coeff-Com:  0.212D-05-0.435D-05-0.194D-04-0.425D-04-0.591D-04 0.374D-04
 Coeff-Com:  0.730D-03 0.550D-03-0.151D-02-0.622D-02-0.455D-02 0.150D-01
 Coeff-Com:  0.321D-01-0.162D-01-0.132D+00-0.864D-01 0.371D+00 0.828D+00
 Coeff:      0.212D-05-0.435D-05-0.194D-04-0.425D-04-0.591D-04 0.374D-04
 Coeff:      0.730D-03 0.550D-03-0.151D-02-0.622D-02-0.455D-02 0.150D-01
 Coeff:      0.321D-01-0.162D-01-0.132D+00-0.864D-01 0.371D+00 0.828D+00
 Gap=     0.130 Goal=   None    Shift=    0.000
 Gap=     0.148 Goal=   None    Shift=    0.000
 RMSDP=5.59D-09 MaxDP=8.82D-07 DE= 2.53D-10 OVMax= 3.33D-06

 Error on total polarization charges =  0.02292
 SCF Done:  E(UM062X) =  -3229.53054706     A.U. after   18 cycles
            NFock= 18  Conv=0.56D-08     -V/T= 2.0050
 <Sx>= 0.0000 <Sy>= 0.0000 <Sz>= 0.5000 <S**2>= 0.7866 S= 0.5181
 <L.S>= 0.000000000000E+00
 KE= 3.213604805896D+03 PE=-2.472995955363D+04 EE= 9.724655804929D+03
 Annihilation of the first spin contaminant:
 S**2 before annihilation     0.7866,   after     0.7511
 Leave Link  502 at Fri Nov  7 20:41:51 2025, MaxMem= 30870077440 cpu:          170624.9 elap:            2698.8
 (Enter /public/software/gauss/g16/l601.exe)
 Copying SCF densities to generalized density rwf, IOpCl= 1 IROHF=0.

 **********************************************************************

            Population analysis using the SCF density.

 **********************************************************************

 Orbital symmetries:
 Alpha Orbitals:
       Occupied  (A) (A) (A) (A) (A) (A) (A) (A) (A) (A) (A) (A)
                 (A) (A) (A) (A) (A) (A) (A) (A) (A) (A) (A) (A)
                 (A) (A) (A) (A) (A) (A) (A) (A) (A) (A) (A) (A)
                 (A) (A) (A) (A) (A) (A) (A) (A) (A) (A) (A) (A)
                 (A) (A) (A) (A) (A) (A) (A) (A) (A) (A) (A) (A)
                 (A) (A) (A) (A) (A) (A) (A) (A) (A) (A) (A) (A)
                 (A) (A) (A) (A) (A) (A) (A) (A) (A) (A) (A) (A)
                 (A) (A) (A) (A) (A) (A) (A) (A) (A) (A) (A) (A)
                 (A) (A) (A) (A) (A) (A) (A) (A) (A) (A) (A) (A)
                 (A) (A) (A) (A) (A) (A) (A) (A) (A) (A) (A) (A)
                 (A) (A) (A) (A) (A) (A) (A) (A) (A) (A) (A) (A)
                 (A) (A) (A) (A) (A) (A) (A) (A) (A) (A) (A) (A)
                 (A) (A) (A) (A) (A) (A) (A) (A) (A) (A) (A) (A)
                 (A) (A) (A) (A) (A) (A) (A) (A) (A) (A) (A) (A)
                 (A) (A) (A) (A) (A) (A) (A) (A) (A) (A) (A) (A)
                 (A) (A) (A) (A) (A) (A) (A) (A) (A) (A) (A) (A)
                 (A) (A) (A) (A) (A) (A) (A) (A) (A) (A) (A) (A)
                 (A) (A) (A) (A) (A) (A) (A) (A) (A) (A) (A) (A)
                 (A) (A) (A) (A) (A) (A) (A) (A) (A) (A)
       Virtual   (A) (A) (A) (A) (A) (A) (A) (A) (A) (A) (A) (A)
                 (A) (A) (A) (A) (A) (A) (A) (A) (A) (A) (A) (A)
                 (A) (A) (A) (A) (A) (A) (A) (A) (A) (A) (A) (A)
                 (A) (A) (A) (A) (A) (A) (A) (A) (A) (A) (A) (A)
                 (A) (A) (A) (A) (A) (A) (A) (A) (A) (A) (A) (A)
                 (A) (A) (A) (A) (A) (A) (A) (A) (A) (A) (A) (A)
                 (A) (A) (A) (A) (A) (A) (A) (A) (A) (A) (A) (A)
                 (A) (A) (A) (A) (A) (A) (A) (A) (A) (A) (A) (A)
                 (A) (A) (A) (A) (A) (A) (A) (A) (A) (A) (A) (A)
                 (A) (A) (A) (A) (A) (A) (A) (A) (A) (A) (A) (A)
                 (A) (A) (A) (A) (A) (A) (A) (A) (A) (A) (A) (A)
                 (A) (A) (A) (A) (A) (A) (A) (A) (A) (A) (A) (A)
                 (A) (A) (A) (A) (A) (A) (A) (A) (A) (A) (A) (A)
                 (A) (A) (A) (A) (A) (A) (A) (A) (A) (A) (A) (A)
                 (A) (A) (A) (A) (A) (A) (A) (A) (A) (A) (A) (A)
                 (A) (A) (A) (A) (A) (A) (A) (A) (A) (A) (A) (A)
                 (A) (A) (A) (A) (A) (A) (A) (A) (A) (A) (A) (A)
                 (A) (A) (A) (A) (A) (A) (A) (A) (A) (A) (A) (A)
                 (A) (A) (A) (A) (A) (A) (A) (A) (A) (A) (A) (A)
                 (A) (A) (A) (A) (A) (A) (A) (A) (A) (A) (A) (A)
                 (A) (A) (A) (A) (A) (A) (A) (A) (A) (A) (A) (A)
                 (A) (A) (A) (A) (A) (A) (A) (A) (A) (A) (A) (A)
                 (A) (A) (A) (A) (A) (A) (A) (A) (A) (A) (A) (A)
                 (A) (A) (A) (A) (A) (A) (A) (A) (A) (A) (A) (A)
                 (A) (A) (A) (A) (A) (A) (A) (A) (A) (A) (A) (A)
                 (A) (A) (A) (A) (A) (A) (A) (A) (A) (A) (A) (A)
                 (A) (A) (A) (A) (A) (A) (A) (A) (A) (A) (A) (A)
                 (A) (A) (A) (A) (A) (A) (A) (A) (A) (A) (A) (A)
                 (A) (A) (A) (A) (A) (A) (A) (A) (A) (A) (A) (A)
                 (A) (A) (A) (A) (A) (A) (A) (A) (A) (A) (A) (A)
                 (A) (A) (A) (A) (A) (A) (A) (A) (A) (A) (A) (A)
                 (A) (A) (A) (A) (A) (A) (A) (A) (A) (A) (A) (A)
                 (A) (A) (A) (A) (A) (A) (A) (A) (A) (A) (A) (A)
                 (A) (A) (A) (A) (A) (A) (A) (A) (A) (A) (A) (A)
                 (A) (A) (A) (A) (A) (A) (A) (A) (A) (A) (A) (A)
                 (A) (A) (A) (A) (A) (A) (A) (A) (A) (A) (A) (A)
                 (A) (A) (A) (A) (A) (A) (A) (A) (A) (A) (A) (A)
                 (A) (A) (A) (A) (A) (A) (A) (A) (A) (A) (A) (A)
                 (A) (A) (A) (A) (A) (A) (A) (A) (A) (A) (A) (A)
                 (A) (A) (A) (A) (A) (A) (A) (A) (A) (A) (A) (A)
                 (A) (A) (A) (A) (A) (A) (A) (A) (A) (A) (A) (A)
                 (A) (A) (A) (A) (A) (A) (A) (A) (A) (A) (A) (A)
                 (A) (A) (A) (A) (A) (A) (A) (A) (A) (A) (A) (A)
                 (A) (A) (A) (A) (A) (A) (A) (A) (A) (A) (A) (A)
                 (A) (A) (A) (A) (A) (A) (A) (A) (A) (A) (A) (A)
                 (A) (A) (A) (A) (A) (A) (A) (A) (A) (A) (A) (A)
                 (A) (A) (A) (A) (A) (A) (A) (A) (A) (A) (A) (A)
                 (A) (A) (A) (A) (A) (A) (A) (A) (A) (A) (A) (A)
                 (A) (A) (A) (A) (A) (A) (A) (A) (A) (A) (A) (A)
                 (A) (A) (A) (A) (A) (A) (A) (A) (A) (A) (A) (A)
                 (A) (A) (A) (A) (A) (A) (A) (A) (A) (A) (A) (A)
                 (A) (A) (A) (A) (A) (A) (A) (A) (A) (A) (A) (A)
                 (A) (A) (A) (A) (A) (A) (A) (A) (A) (A) (A) (A)
                 (A) (A) (A) (A) (A) (A) (A) (A) (A) (A) (A) (A)
                 (A) (A) (A) (A) (A) (A) (A) (A) (A) (A) (A) (A)
                 (A) (A) (A) (A) (A) (A) (A) (A) (A) (A) (A) (A)
                 (A) (A) (A) (A) (A) (A) (A) (A) (A) (A) (A) (A)
                 (A) (A) (A) (A) (A) (A) (A) (A) (A) (A) (A) (A)
                 (A) (A) (A) (A) (A) (A) (A) (A) (A) (A) (A) (A)
                 (A) (A) (A) (A) (A) (A) (A) (A) (A) (A) (A) (A)
                 (A) (A) (A) (A) (A) (A) (A) (A) (A) (A) (A) (A)
                 (A) (A) (A) (A) (A) (A) (A) (A) (A) (A) (A) (A)
                 (A) (A) (A) (A) (A) (A) (A) (A) (A) (A) (A) (A)
                 (A) (A) (A) (A) (A) (A) (A) (A) (A) (A) (A) (A)
                 (A) (A) (A) (A) (A) (A) (A) (A) (A) (A) (A) (A)
                 (A) (A) (A) (A) (A) (A) (A) (A) (A) (A) (A) (A)
                 (A) (A) (A) (A) (A) (A) (A) (A) (A) (A) (A) (A)
                 (A) (A) (A) (A) (A) (A) (A) (A) (A) (A) (A) (A)
                 (A) (A) (A) (A) (A) (A) (A) (A) (A) (A) (A) (A)
                 (A) (A) (A) (A) (A) (A) (A) (A) (A) (A) (A) (A)
                 (A) (A) (A) (A) (A) (A) (A) (A) (A) (A) (A) (A)
                 (A) (A) (A) (A) (A) (A) (A) (A) (A) (A) (A) (A)
                 (A) (A) (A) (A) (A) (A) (A) (A) (A) (A) (A) (A)
                 (A) (A) (A) (A) (A) (A) (A) (A) (A) (A) (A) (A)
                 (A) (A) (A) (A) (A) (A) (A) (A) (A) (A) (A) (A)
                 (A) (A) (A) (A) (A) (A) (A) (A) (A) (A) (A) (A)
                 (A) (A) (A) (A) (A) (A) (A) (A) (A) (A) (A) (A)
                 (A) (A) (A) (A) (A) (A) (A) (A) (A) (A) (A) (A)
                 (A) (A) (A) (A) (A) (A) (A) (A) (A) (A) (A) (A)
                 (A) (A) (A) (A) (A) (A) (A) (A) (A) (A) (A) (A)
                 (A) (A) (A) (A) (A) (A) (A) (A) (A) (A) (A) (A)
                 (A) (A) (A) (A) (A) (A) (A) (A) (A) (A) (A) (A)
                 (A) (A) (A) (A) (A) (A) (A) (A) (A) (A) (A) (A)
                 (A) (A) (A) (A) (A) (A) (A) (A) (A) (A) (A) (A)
                 (A) (A) (A) (A) (A) (A) (A) (A) (A) (A) (A) (A)
                 (A) (A) (A) (A) (A) (A) (A) (A) (A) (A) (A) (A)
                 (A) (A) (A) (A) (A) (A) (A) (A) (A) (A) (A) (A)
                 (A) (A) (A) (A) (A) (A) (A) (A) (A) (A) (A) (A)
                 (A) (A) (A) (A) (A) (A) (A) (A) (A) (A) (A) (A)
                 (A) (A) (A) (A) (A) (A) (A) (A) (A) (A) (A) (A)
                 (A) (A) (A) (A) (A) (A) (A) (A) (A) (A) (A) (A)
                 (A) (A) (A) (A) (A) (A) (A) (A) (A) (A) (A) (A)
                 (A) (A) (A) (A) (A) (A) (A) (A) (A) (A) (A) (A)
                 (A) (A) (A) (A) (A) (A) (A) (A) (A) (A) (A) (A)
                 (A) (A) (A) (A) (A) (A) (A) (A) (A) (A) (A) (A)
                 (A) (A) (A) (A) (A) (A) (A) (A) (A) (A) (A) (A)
                 (A) (A) (A) (A) (A) (A) (A) (A) (A) (A) (A) (A)
                 (A) (A) (A) (A) (A) (A) (A) (A) (A) (A) (A) (A)
                 (A) (A) (A) (A) (A) (A) (A) (A) (A) (A) (A) (A)
                 (A) (A) (A) (A) (A) (A) (A) (A) (A) (A) (A) (A)
                 (A) (A) (A) (A) (A) (A) (A) (A) (A) (A) (A) (A)
                 (A) (A) (A) (A) (A) (A) (A) (A) (A) (A) (A) (A)
                 (A) (A) (A) (A) (A) (A) (A) (A) (A) (A) (A) (A)
                 (A) (A) (A) (A) (A) (A) (A) (A) (A) (A) (A) (A)
                 (A) (A) (A) (A) (A) (A) (A) (A) (A) (A) (A) (A)
                 (A) (A) (A) (A) (A) (A) (A) (A) (A) (A) (A) (A)
                 (A) (A) (A) (A) (A) (A) (A) (A) (A) (A) (A) (A)
                 (A) (A) (A) (A) (A) (A) (A) (A) (A) (A) (A) (A)
                 (A) (A) (A) (A) (A) (A) (A) (A) (A) (A) (A) (A)
                 (A) (A) (A) (A) (A) (A) (A) (A) (A) (A) (A) (A)
                 (A) (A) (A) (A) (A) (A) (A) (A) (A) (A) (A) (A)
                 (A) (A) (A) (A) (A) (A) (A) (A) (A) (A) (A) (A)
                 (A) (A) (A) (A) (A) (A) (A) (A) (A) (A) (A) (A)
                 (A) (A) (A) (A) (A) (A) (A) (A) (A) (A) (A) (A)
                 (A) (A) (A) (A) (A) (A) (A) (A) (A) (A) (A) (A)
                 (A) (A) (A) (A) (A) (A) (A) (A) (A) (A) (A) (A)
                 (A) (A) (A) (A) (A) (A) (A) (A) (A) (A) (A) (A)
                 (A) (A) (A) (A) (A) (A) (A) (A) (A) (A) (A) (A)
                 (A) (A) (A) (A) (A) (A) (A) (A) (A) (A) (A) (A)
                 (A) (A) (A) (A) (A) (A) (A) (A) (A) (A) (A) (A)
                 (A) (A) (A) (A) (A) (A) (A) (A) (A) (A) (A) (A)
                 (A) (A) (A) (A) (A) (A) (A) (A) (A) (A) (A) (A)
                 (A) (A) (A) (A) (A) (A) (A) (A) (A) (A) (A) (A)
                 (A) (A) (A) (A) (A) (A) (A) (A) (A) (A) (A) (A)
                 (A) (A) (A) (A) (A) (A) (A) (A) (A) (A) (A) (A)
                 (A) (A) (A) (A) (A) (A) (A) (A) (A) (A) (A) (A)
                 (A) (A) (A) (A) (A) (A) (A) (A) (A) (A) (A) (A)
                 (A) (A) (A) (A) (A) (A) (A) (A) (A) (A) (A) (A)
                 (A) (A) (A) (A) (A) (A) (A) (A) (A) (A) (A) (A)
                 (A) (A) (A) (A) (A) (A) (A) (A) (A) (A) (A) (A)
                 (A) (A) (A) (A) (A) (A) (A) (A) (A) (A) (A) (A)
                 (A) (A) (A) (A) (A) (A) (A) (A) (A) (A) (A) (A)
                 (A) (A) (A) (A) (A) (A) (A) (A) (A) (A) (A) (A)
                 (A) (A) (A) (A) (A) (A) (A) (A) (A) (A) (A) (A)
                 (A) (A) (A) (A) (A) (A) (A) (A) (A) (A) (A) (A)
                 (A) (A) (A) (A) (A) (A) (A) (A) (A) (A) (A) (A)
                 (A) (A) (A) (A) (A) (A) (A) (A) (A) (A) (A) (A)
                 (A) (A) (A) (A) (A) (A) (A) (A) (A) (A) (A) (A)
                 (A) (A) (A) (A) (A) (A) (A) (A) (A) (A) (A) (A)
                 (A) (A) (A) (A) (A) (A) (A) (A) (A) (A) (A) (A)
                 (A) (A) (A) (A) (A) (A) (A) (A) (A) (A) (A) (A)
                 (A) (A) (A) (A) (A) (A) (A) (A) (A) (A) (A) (A)
                 (A) (A) (A) (A) (A) (A) (A) (A) (A) (A) (A) (A)
                 (A) (A) (A) (A) (A) (A) (A) (A) (A) (A) (A) (A)
                 (A) (A) (A) (A) (A) (A) (A) (A) (A) (A) (A) (A)
                 (A) (A) (A) (A) (A) (A) (A) (A) (A) (A) (A) (A)
                 (A) (A) (A) (A) (A) (A) (A) (A) (A) (A) (A) (A)
                 (A) (A) (A) (A) (A) (A) (A) (A) (A) (A) (A) (A)
                 (A) (A) (A) (A) (A) (A) (A) (A) (A) (A) (A) (A)
                 (A) (A) (A) (A) (A) (A) (A) (A) (A) (A) (A) (A)
                 (A) (A) (A) (A) (A) (A) (A) (A) (A) (A) (A) (A)
                 (A) (A) (A) (A) (A) (A) (A) (A) (A) (A) (A) (A)
                 (A) (A) (A) (A) (A) (A) (A) (A) (A) (A) (A) (A)
                 (A) (A) (A) (A) (A) (A) (A) (A) (A) (A) (A) (A)
                 (A) (A) (A) (A) (A) (A) (A) (A) (A) (A) (A) (A)
                 (A) (A) (A) (A) (A) (A) (A) (A) (A) (A) (A) (A)
                 (A) (A) (A) (A) (A) (A) (A) (A) (A) (A) (A) (A)
                 (A) (A) (A) (A) (A) (A) (A) (A) (A) (A) (A) (A)
                 (A) (A) (A) (A) (A) (A) (A) (A) (A) (A) (A) (A)
                 (A) (A) (A) (A) (A) (A) (A) (A) (A) (A) (A) (A)
                 (A) (A) (A) (A) (A) (A) (A) (A) (A) (A) (A) (A)
                 (A) (A) (A) (A) (A) (A) (A) (A) (A) (A) (A) (A)
                 (A) (A) (A) (A) (A) (A) (A) (A) (A) (A) (A) (A)
                 (A) (A) (A) (A) (A) (A) (A) (A) (A) (A) (A) (A)
                 (A) (A) (A) (A) (A) (A) (A) (A) (A) (A) (A) (A)
                 (A) (A) (A) (A) (A) (A) (A) (A) (A) (A) (A) (A)
                 (A) (A) (A) (A) (A) (A) (A) (A) (A) (A) (A) (A)
                 (A) (A) (A) (A) (A) (A) (A) (A) (A) (A) (A) (A)
                 (A) (A) (A) (A) (A) (A) (A) (A) (A) (A) (A) (A)
                 (A) (A) (A) (A) (A) (A) (A) (A) (A) (A) (A) (A)
                 (A) (A) (A) (A) (A) (A) (A) (A) (A) (A) (A) (A)
                 (A) (A) (A) (A) (A) (A) (A) (A) (A) (A) (A) (A)
                 (A) (A) (A) (A) (A) (A) (A) (A) (A) (A) (A) (A)
                 (A) (A) (A) (A) (A) (A) (A) (A) (A) (A) (A) (A)
                 (A) (A) (A) (A) (A) (A) (A) (A) (A) (A) (A) (A)
                 (A) (A) (A) (A) (A) (A) (A) (A) (A) (A) (A) (A)
                 (A) (A) (A) (A) (A) (A) (A) (A) (A) (A) (A) (A)
                 (A) (A) (A) (A) (A) (A) (A) (A) (A) (A) (A) (A)
                 (A) (A) (A) (A) (A) (A) (A) (A) (A) (A) (A) (A)
                 (A) (A)
 Beta  Orbitals:
       Occupied  (A) (A) (A) (A) (A) (A) (A) (A) (A) (A) (A) (A)
                 (A) (A) (A) (A) (A) (A) (A) (A) (A) (A) (A) (A)
                 (A) (A) (A) (A) (A) (A) (A) (A) (A) (A) (A) (A)
                 (A) (A) (A) (A) (A) (A) (A) (A) (A) (A) (A) (A)
                 (A) (A) (A) (A) (A) (A) (A) (A) (A) (A) (A) (A)
                 (A) (A) (A) (A) (A) (A) (A) (A) (A) (A) (A) (A)
                 (A) (A) (A) (A) (A) (A) (A) (A) (A) (A) (A) (A)
                 (A) (A) (A) (A) (A) (A) (A) (A) (A) (A) (A) (A)
                 (A) (A) (A) (A) (A) (A) (A) (A) (A) (A) (A) (A)
                 (A) (A) (A) (A) (A) (A) (A) (A) (A) (A) (A) (A)
                 (A) (A) (A) (A) (A) (A) (A) (A) (A) (A) (A) (A)
                 (A) (A) (A) (A) (A) (A) (A) (A) (A) (A) (A) (A)
                 (A) (A) (A) (A) (A) (A) (A) (A) (A) (A) (A) (A)
                 (A) (A) (A) (A) (A) (A) (A) (A) (A) (A) (A) (A)
                 (A) (A) (A) (A) (A) (A) (A) (A) (A) (A) (A) (A)
                 (A) (A) (A) (A) (A) (A) (A) (A) (A) (A) (A) (A)
                 (A) (A) (A) (A) (A) (A) (A) (A) (A) (A) (A) (A)
                 (A) (A) (A) (A) (A) (A) (A) (A) (A) (A) (A) (A)
                 (A) (A) (A) (A) (A) (A) (A) (A) (A)
       Virtual   (A) (A) (A) (A) (A) (A) (A) (A) (A) (A) (A) (A)
                 (A) (A) (A) (A) (A) (A) (A) (A) (A) (A) (A) (A)
                 (A) (A) (A) (A) (A) (A) (A) (A) (A) (A) (A) (A)
                 (A) (A) (A) (A) (A) (A) (A) (A) (A) (A) (A) (A)
                 (A) (A) (A) (A) (A) (A) (A) (A) (A) (A) (A) (A)
                 (A) (A) (A) (A) (A) (A) (A) (A) (A) (A) (A) (A)
                 (A) (A) (A) (A) (A) (A) (A) (A) (A) (A) (A) (A)
                 (A) (A) (A) (A) (A) (A) (A) (A) (A) (A) (A) (A)
                 (A) (A) (A) (A) (A) (A) (A) (A) (A) (A) (A) (A)
                 (A) (A) (A) (A) (A) (A) (A) (A) (A) (A) (A) (A)
                 (A) (A) (A) (A) (A) (A) (A) (A) (A) (A) (A) (A)
                 (A) (A) (A) (A) (A) (A) (A) (A) (A) (A) (A) (A)
                 (A) (A) (A) (A) (A) (A) (A) (A) (A) (A) (A) (A)
                 (A) (A) (A) (A) (A) (A) (A) (A) (A) (A) (A) (A)
                 (A) (A) (A) (A) (A) (A) (A) (A) (A) (A) (A) (A)
                 (A) (A) (A) (A) (A) (A) (A) (A) (A) (A) (A) (A)
                 (A) (A) (A) (A) (A) (A) (A) (A) (A) (A) (A) (A)
                 (A) (A) (A) (A) (A) (A) (A) (A) (A) (A) (A) (A)
                 (A) (A) (A) (A) (A) (A) (A) (A) (A) (A) (A) (A)
                 (A) (A) (A) (A) (A) (A) (A) (A) (A) (A) (A) (A)
                 (A) (A) (A) (A) (A) (A) (A) (A) (A) (A) (A) (A)
                 (A) (A) (A) (A) (A) (A) (A) (A) (A) (A) (A) (A)
                 (A) (A) (A) (A) (A) (A) (A) (A) (A) (A) (A) (A)
                 (A) (A) (A) (A) (A) (A) (A) (A) (A) (A) (A) (A)
                 (A) (A) (A) (A) (A) (A) (A) (A) (A) (A) (A) (A)
                 (A) (A) (A) (A) (A) (A) (A) (A) (A) (A) (A) (A)
                 (A) (A) (A) (A) (A) (A) (A) (A) (A) (A) (A) (A)
                 (A) (A) (A) (A) (A) (A) (A) (A) (A) (A) (A) (A)
                 (A) (A) (A) (A) (A) (A) (A) (A) (A) (A) (A) (A)
                 (A) (A) (A) (A) (A) (A) (A) (A) (A) (A) (A) (A)
                 (A) (A) (A) (A) (A) (A) (A) (A) (A) (A) (A) (A)
                 (A) (A) (A) (A) (A) (A) (A) (A) (A) (A) (A) (A)
                 (A) (A) (A) (A) (A) (A) (A) (A) (A) (A) (A) (A)
                 (A) (A) (A) (A) (A) (A) (A) (A) (A) (A) (A) (A)
                 (A) (A) (A) (A) (A) (A) (A) (A) (A) (A) (A) (A)
                 (A) (A) (A) (A) (A) (A) (A) (A) (A) (A) (A) (A)
                 (A) (A) (A) (A) (A) (A) (A) (A) (A) (A) (A) (A)
                 (A) (A) (A) (A) (A) (A) (A) (A) (A) (A) (A) (A)
                 (A) (A) (A) (A) (A) (A) (A) (A) (A) (A) (A) (A)
                 (A) (A) (A) (A) (A) (A) (A) (A) (A) (A) (A) (A)
                 (A) (A) (A) (A) (A) (A) (A) (A) (A) (A) (A) (A)
                 (A) (A) (A) (A) (A) (A) (A) (A) (A) (A) (A) (A)
                 (A) (A) (A) (A) (A) (A) (A) (A) (A) (A) (A) (A)
                 (A) (A) (A) (A) (A) (A) (A) (A) (A) (A) (A) (A)
                 (A) (A) (A) (A) (A) (A) (A) (A) (A) (A) (A) (A)
                 (A) (A) (A) (A) (A) (A) (A) (A) (A) (A) (A) (A)
                 (A) (A) (A) (A) (A) (A) (A) (A) (A) (A) (A) (A)
                 (A) (A) (A) (A) (A) (A) (A) (A) (A) (A) (A) (A)
                 (A) (A) (A) (A) (A) (A) (A) (A) (A) (A) (A) (A)
                 (A) (A) (A) (A) (A) (A) (A) (A) (A) (A) (A) (A)
                 (A) (A) (A) (A) (A) (A) (A) (A) (A) (A) (A) (A)
                 (A) (A) (A) (A) (A) (A) (A) (A) (A) (A) (A) (A)
                 (A) (A) (A) (A) (A) (A) (A) (A) (A) (A) (A) (A)
                 (A) (A) (A) (A) (A) (A) (A) (A) (A) (A) (A) (A)
                 (A) (A) (A) (A) (A) (A) (A) (A) (A) (A) (A) (A)
                 (A) (A) (A) (A) (A) (A) (A) (A) (A) (A) (A) (A)
                 (A) (A) (A) (A) (A) (A) (A) (A) (A) (A) (A) (A)
                 (A) (A) (A) (A) (A) (A) (A) (A) (A) (A) (A) (A)
                 (A) (A) (A) (A) (A) (A) (A) (A) (A) (A) (A) (A)
                 (A) (A) (A) (A) (A) (A) (A) (A) (A) (A) (A) (A)
                 (A) (A) (A) (A) (A) (A) (A) (A) (A) (A) (A) (A)
                 (A) (A) (A) (A) (A) (A) (A) (A) (A) (A) (A) (A)
                 (A) (A) (A) (A) (A) (A) (A) (A) (A) (A) (A) (A)
                 (A) (A) (A) (A) (A) (A) (A) (A) (A) (A) (A) (A)
                 (A) (A) (A) (A) (A) (A) (A) (A) (A) (A) (A) (A)
                 (A) (A) (A) (A) (A) (A) (A) (A) (A) (A) (A) (A)
                 (A) (A) (A) (A) (A) (A) (A) (A) (A) (A) (A) (A)
                 (A) (A) (A) (A) (A) (A) (A) (A) (A) (A) (A) (A)
                 (A) (A) (A) (A) (A) (A) (A) (A) (A) (A) (A) (A)
                 (A) (A) (A) (A) (A) (A) (A) (A) (A) (A) (A) (A)
                 (A) (A) (A) (A) (A) (A) (A) (A) (A) (A) (A) (A)
                 (A) (A) (A) (A) (A) (A) (A) (A) (A) (A) (A) (A)
                 (A) (A) (A) (A) (A) (A) (A) (A) (A) (A) (A) (A)
                 (A) (A) (A) (A) (A) (A) (A) (A) (A) (A) (A) (A)
                 (A) (A) (A) (A) (A) (A) (A) (A) (A) (A) (A) (A)
                 (A) (A) (A) (A) (A) (A) (A) (A) (A) (A) (A) (A)
                 (A) (A) (A) (A) (A) (A) (A) (A) (A) (A) (A) (A)
                 (A) (A) (A) (A) (A) (A) (A) (A) (A) (A) (A) (A)
                 (A) (A) (A) (A) (A) (A) (A) (A) (A) (A) (A) (A)
                 (A) (A) (A) (A) (A) (A) (A) (A) (A) (A) (A) (A)
                 (A) (A) (A) (A) (A) (A) (A) (A) (A) (A) (A) (A)
                 (A) (A) (A) (A) (A) (A) (A) (A) (A) (A) (A) (A)
                 (A) (A) (A) (A) (A) (A) (A) (A) (A) (A) (A) (A)
                 (A) (A) (A) (A) (A) (A) (A) (A) (A) (A) (A) (A)
                 (A) (A) (A) (A) (A) (A) (A) (A) (A) (A) (A) (A)
                 (A) (A) (A) (A) (A) (A) (A) (A) (A) (A) (A) (A)
                 (A) (A) (A) (A) (A) (A) (A) (A) (A) (A) (A) (A)
                 (A) (A) (A) (A) (A) (A) (A) (A) (A) (A) (A) (A)
                 (A) (A) (A) (A) (A) (A) (A) (A) (A) (A) (A) (A)
                 (A) (A) (A) (A) (A) (A) (A) (A) (A) (A) (A) (A)
                 (A) (A) (A) (A) (A) (A) (A) (A) (A) (A) (A) (A)
                 (A) (A) (A) (A) (A) (A) (A) (A) (A) (A) (A) (A)
                 (A) (A) (A) (A) (A) (A) (A) (A) (A) (A) (A) (A)
                 (A) (A) (A) (A) (A) (A) (A) (A) (A) (A) (A) (A)
                 (A) (A) (A) (A) (A) (A) (A) (A) (A) (A) (A) (A)
                 (A) (A) (A) (A) (A) (A) (A) (A) (A) (A) (A) (A)
                 (A) (A) (A) (A) (A) (A) (A) (A) (A) (A) (A) (A)
                 (A) (A) (A) (A) (A) (A) (A) (A) (A) (A) (A) (A)
                 (A) (A) (A) (A) (A) (A) (A) (A) (A) (A) (A) (A)
                 (A) (A) (A) (A) (A) (A) (A) (A) (A) (A) (A) (A)
                 (A) (A) (A) (A) (A) (A) (A) (A) (A) (A) (A) (A)
                 (A) (A) (A) (A) (A) (A) (A) (A) (A) (A) (A) (A)
                 (A) (A) (A) (A) (A) (A) (A) (A) (A) (A) (A) (A)
                 (A) (A) (A) (A) (A) (A) (A) (A) (A) (A) (A) (A)
                 (A) (A) (A) (A) (A) (A) (A) (A) (A) (A) (A) (A)
                 (A) (A) (A) (A) (A) (A) (A) (A) (A) (A) (A) (A)
                 (A) (A) (A) (A) (A) (A) (A) (A) (A) (A) (A) (A)
                 (A) (A) (A) (A) (A) (A) (A) (A) (A) (A) (A) (A)
                 (A) (A) (A) (A) (A) (A) (A) (A) (A) (A) (A) (A)
                 (A) (A) (A) (A) (A) (A) (A) (A) (A) (A) (A) (A)
                 (A) (A) (A) (A) (A) (A) (A) (A) (A) (A) (A) (A)
                 (A) (A) (A) (A) (A) (A) (A) (A) (A) (A) (A) (A)
                 (A) (A) (A) (A) (A) (A) (A) (A) (A) (A) (A) (A)
                 (A) (A) (A) (A) (A) (A) (A) (A) (A) (A) (A) (A)
                 (A) (A) (A) (A) (A) (A) (A) (A) (A) (A) (A) (A)
                 (A) (A) (A) (A) (A) (A) (A) (A) (A) (A) (A) (A)
                 (A) (A) (A) (A) (A) (A) (A) (A) (A) (A) (A) (A)
                 (A) (A) (A) (A) (A) (A) (A) (A) (A) (A) (A) (A)
                 (A) (A) (A) (A) (A) (A) (A) (A) (A) (A) (A) (A)
                 (A) (A) (A) (A) (A) (A) (A) (A) (A) (A) (A) (A)
                 (A) (A) (A) (A) (A) (A) (A) (A) (A) (A) (A) (A)
                 (A) (A) (A) (A) (A) (A) (A) (A) (A) (A) (A) (A)
                 (A) (A) (A) (A) (A) (A) (A) (A) (A) (A) (A) (A)
                 (A) (A) (A) (A) (A) (A) (A) (A) (A) (A) (A) (A)
                 (A) (A) (A) (A) (A) (A) (A) (A) (A) (A) (A) (A)
                 (A) (A) (A) (A) (A) (A) (A) (A) (A) (A) (A) (A)
                 (A) (A) (A) (A) (A) (A) (A) (A) (A) (A) (A) (A)
                 (A) (A) (A) (A) (A) (A) (A) (A) (A) (A) (A) (A)
                 (A) (A) (A) (A) (A) (A) (A) (A) (A) (A) (A) (A)
                 (A) (A) (A) (A) (A) (A) (A) (A) (A) (A) (A) (A)
                 (A) (A) (A) (A) (A) (A) (A) (A) (A) (A) (A) (A)
                 (A) (A) (A) (A) (A) (A) (A) (A) (A) (A) (A) (A)
                 (A) (A) (A) (A) (A) (A) (A) (A) (A) (A) (A) (A)
                 (A) (A) (A) (A) (A) (A) (A) (A) (A) (A) (A) (A)
                 (A) (A) (A) (A) (A) (A) (A) (A) (A) (A) (A) (A)
                 (A) (A) (A) (A) (A) (A) (A) (A) (A) (A) (A) (A)
                 (A) (A) (A) (A) (A) (A) (A) (A) (A) (A) (A) (A)
                 (A) (A) (A) (A) (A) (A) (A) (A) (A) (A) (A) (A)
                 (A) (A) (A) (A) (A) (A) (A) (A) (A) (A) (A) (A)
                 (A) (A) (A) (A) (A) (A) (A) (A) (A) (A) (A) (A)
                 (A) (A) (A) (A) (A) (A) (A) (A) (A) (A) (A) (A)
                 (A) (A) (A) (A) (A) (A) (A) (A) (A) (A) (A) (A)
                 (A) (A) (A) (A) (A) (A) (A) (A) (A) (A) (A) (A)
                 (A) (A) (A) (A) (A) (A) (A) (A) (A) (A) (A) (A)
                 (A) (A) (A) (A) (A) (A) (A) (A) (A) (A) (A) (A)
                 (A) (A) (A) (A) (A) (A) (A) (A) (A) (A) (A) (A)
                 (A) (A) (A) (A) (A) (A) (A) (A) (A) (A) (A) (A)
                 (A) (A) (A) (A) (A) (A) (A) (A) (A) (A) (A) (A)
                 (A) (A) (A) (A) (A) (A) (A) (A) (A) (A) (A) (A)
                 (A) (A) (A) (A) (A) (A) (A) (A) (A) (A) (A) (A)
                 (A) (A) (A) (A) (A) (A) (A) (A) (A) (A) (A) (A)
                 (A) (A) (A) (A) (A) (A) (A) (A) (A) (A) (A) (A)
                 (A) (A) (A) (A) (A) (A) (A) (A) (A) (A) (A) (A)
                 (A) (A) (A) (A) (A) (A) (A) (A) (A) (A) (A) (A)
                 (A) (A) (A) (A) (A) (A) (A) (A) (A) (A) (A) (A)
                 (A) (A) (A) (A) (A) (A) (A) (A) (A) (A) (A) (A)
                 (A) (A) (A) (A) (A) (A) (A) (A) (A) (A) (A) (A)
                 (A) (A) (A) (A) (A) (A) (A) (A) (A) (A) (A) (A)
                 (A) (A) (A) (A) (A) (A) (A) (A) (A) (A) (A) (A)
                 (A) (A) (A) (A) (A) (A) (A) (A) (A) (A) (A) (A)
                 (A) (A) (A) (A) (A) (A) (A) (A) (A) (A) (A) (A)
                 (A) (A) (A) (A) (A) (A) (A) (A) (A) (A) (A) (A)
                 (A) (A) (A) (A) (A) (A) (A) (A) (A) (A) (A) (A)
                 (A) (A) (A) (A) (A) (A) (A) (A) (A) (A) (A) (A)
                 (A) (A) (A) (A) (A) (A) (A) (A) (A) (A) (A) (A)
                 (A) (A) (A) (A) (A) (A) (A) (A) (A) (A) (A) (A)
                 (A) (A) (A) (A) (A) (A) (A) (A) (A) (A) (A) (A)
                 (A) (A) (A) (A) (A) (A) (A) (A) (A) (A) (A) (A)
                 (A) (A) (A) (A) (A) (A) (A) (A) (A) (A) (A) (A)
                 (A) (A) (A) (A) (A) (A) (A) (A) (A) (A) (A) (A)
                 (A) (A) (A) (A) (A) (A) (A) (A) (A) (A) (A) (A)
                 (A) (A) (A) (A) (A) (A) (A) (A) (A) (A) (A) (A)
                 (A) (A) (A) (A) (A) (A) (A) (A) (A) (A) (A) (A)
                 (A) (A) (A) (A) (A) (A) (A) (A) (A) (A) (A) (A)
                 (A) (A) (A) (A) (A) (A) (A) (A) (A) (A) (A) (A)
                 (A) (A) (A) (A) (A) (A) (A) (A) (A) (A) (A) (A)
                 (A) (A) (A) (A) (A) (A) (A) (A) (A) (A) (A) (A)
                 (A) (A) (A) (A) (A) (A) (A) (A) (A) (A) (A) (A)
                 (A) (A) (A) (A) (A) (A) (A) (A) (A) (A) (A) (A)
                 (A) (A) (A)
 The electronic state is 2-A.
 Alpha  occ. eigenvalues --  -25.28490 -25.28463 -25.28435 -25.28435 -25.28352
 Alpha  occ. eigenvalues --  -25.28307 -25.28091 -25.28034 -25.27979 -25.19579
 Alpha  occ. eigenvalues --  -25.19557 -19.63322 -19.63268 -14.77135 -14.76922
 Alpha  occ. eigenvalues --  -10.80386 -10.80332 -10.80279 -10.63765 -10.63717
 Alpha  occ. eigenvalues --  -10.58434 -10.58315 -10.57994 -10.57809 -10.57609
 Alpha  occ. eigenvalues --  -10.57543 -10.57534 -10.57421 -10.57379 -10.57304
 Alpha  occ. eigenvalues --  -10.57087 -10.56911 -10.56458 -10.56449 -10.56444
 Alpha  occ. eigenvalues --  -10.56412 -10.56359 -10.56342 -10.56315 -10.56267
 Alpha  occ. eigenvalues --  -10.56257 -10.56094 -10.56023 -10.55979 -10.55901
 Alpha  occ. eigenvalues --  -10.55777 -10.55759 -10.55716 -10.55635 -10.55621
 Alpha  occ. eigenvalues --  -10.55592 -10.55538 -10.55530 -10.55486 -10.55474
 Alpha  occ. eigenvalues --  -10.55442 -10.55420 -10.55097 -10.55051 -10.55021
 Alpha  occ. eigenvalues --  -10.54488 -10.53762 -10.53652  -7.12109  -1.46337
 Alpha  occ. eigenvalues --   -1.46265  -1.46215  -1.37606  -1.37545  -1.37507
 Alpha  occ. eigenvalues --   -1.37174  -1.37096  -1.37037  -1.31395  -1.28198
 Alpha  occ. eigenvalues --   -1.16874  -1.16813  -1.08943  -1.07024  -0.98813
 Alpha  occ. eigenvalues --   -0.98629  -0.98497  -0.98029  -0.97925  -0.93367
 Alpha  occ. eigenvalues --   -0.92110  -0.91733  -0.91000  -0.90327  -0.88294
 Alpha  occ. eigenvalues --   -0.87904  -0.86147  -0.86091  -0.86016  -0.85971
 Alpha  occ. eigenvalues --   -0.85887  -0.85691  -0.85428  -0.84836  -0.82465
 Alpha  occ. eigenvalues --   -0.81815  -0.80088  -0.79036  -0.76522  -0.75738
 Alpha  occ. eigenvalues --   -0.74990  -0.73256  -0.72920  -0.71871  -0.71784
 Alpha  occ. eigenvalues --   -0.71570  -0.71229  -0.70958  -0.70162  -0.69204
 Alpha  occ. eigenvalues --   -0.69131  -0.69080  -0.68663  -0.68432  -0.68320
 Alpha  occ. eigenvalues --   -0.68046  -0.67678  -0.67231  -0.66354  -0.66008
 Alpha  occ. eigenvalues --   -0.65678  -0.65507  -0.65380  -0.64737  -0.63788
 Alpha  occ. eigenvalues --   -0.62432  -0.60642  -0.60150  -0.58853  -0.58655
 Alpha  occ. eigenvalues --   -0.58394  -0.58164  -0.57987  -0.57947  -0.57881
 Alpha  occ. eigenvalues --   -0.57796  -0.57591  -0.57429  -0.57347  -0.56898
 Alpha  occ. eigenvalues --   -0.55677  -0.55542  -0.54995  -0.54672  -0.54551
 Alpha  occ. eigenvalues --   -0.54052  -0.53961  -0.53825  -0.53751  -0.53693
 Alpha  occ. eigenvalues --   -0.53582  -0.53566  -0.53392  -0.53185  -0.52959
 Alpha  occ. eigenvalues --   -0.52755  -0.52626  -0.52056  -0.51925  -0.51865
 Alpha  occ. eigenvalues --   -0.51835  -0.51583  -0.51350  -0.51325  -0.50865
 Alpha  occ. eigenvalues --   -0.50362  -0.50326  -0.50071  -0.49978  -0.49911
 Alpha  occ. eigenvalues --   -0.49741  -0.49687  -0.49443  -0.49177  -0.48883
 Alpha  occ. eigenvalues --   -0.48829  -0.48585  -0.48143  -0.47776  -0.47126
 Alpha  occ. eigenvalues --   -0.46960  -0.46472  -0.46364  -0.46228  -0.45910
 Alpha  occ. eigenvalues --   -0.45437  -0.45043  -0.44622  -0.44029  -0.43965
[...]
 
              Baa    -0.0117    -1.566    -0.559    -0.522  0.2086 -0.4634  0.8612
    30 C(13)  Bbb     0.0049     0.661     0.236     0.221 -0.3068  0.8052  0.5075
              Bcc     0.0067     0.905     0.323     0.302  0.9286  0.3701 -0.0258
 
              Baa    -0.0188    -2.521    -0.900    -0.841 -0.4457  0.7382  0.5064
    31 C(13)  Bbb    -0.0170    -2.282    -0.814    -0.761  0.8627  0.5052  0.0228
              Bcc     0.0358     4.804     1.714     1.602  0.2389 -0.4470  0.8620
 
              Baa    -0.0109    -1.462    -0.522    -0.488  0.2238 -0.4526  0.8632
    32 C(13)  Bbb     0.0044     0.590     0.211     0.197 -0.5525  0.6707  0.4949
              Bcc     0.0065     0.872     0.311     0.291  0.8029  0.5877  0.0999
 
              Baa    -0.0157    -2.111    -0.753    -0.704 -0.3921  0.7639  0.5125
    33 C(13)  Bbb    -0.0135    -1.815    -0.648    -0.606  0.8904  0.4552  0.0026
              Bcc     0.0293     3.927     1.401     1.310  0.2313 -0.4574  0.8587
 
              Baa    -0.0009    -0.127    -0.045    -0.042 -0.4466  0.7311  0.5158
    34 C(13)  Bbb     0.0002     0.025     0.009     0.008  0.8283  0.5558 -0.0707
              Bcc     0.0008     0.102     0.037     0.034  0.3383 -0.3957  0.8538
 
              Baa    -0.0056    -2.812    -1.003    -0.938  0.6705 -0.3437  0.6575
    35 F(19)  Bbb    -0.0053    -2.659    -0.949    -0.887 -0.3568  0.6276  0.6919
              Bcc     0.0109     5.471     1.952     1.825  0.6505  0.6985 -0.2982
 
              Baa    -0.0017    -0.851    -0.304    -0.284  0.1705  0.9214  0.3492
    36 F(19)  Bbb    -0.0016    -0.808    -0.288    -0.270  0.6927 -0.3641  0.6226
              Bcc     0.0033     1.659     0.592     0.553  0.7008  0.1357 -0.7003
 
              Baa    -0.0026    -1.299    -0.463    -0.433  0.7821 -0.2147 -0.5850
    37 F(19)  Bbb    -0.0023    -1.174    -0.419    -0.391  0.5260 -0.2761  0.8045
              Bcc     0.0049     2.472     0.882     0.825  0.3342  0.9369  0.1030
 
              Baa    -0.0518    -1.996    -0.712    -0.666 -0.0887  0.9960 -0.0110
    38 N(14)  Bbb    -0.0409    -1.579    -0.563    -0.527  0.9933  0.0876 -0.0748
              Bcc     0.0927     3.575     1.276     1.192  0.0735  0.0176  0.9971
 
              Baa    -0.0042    -0.563    -0.201    -0.188  0.7277  0.2070 -0.6539
    39 C(13)  Bbb    -0.0016    -0.208    -0.074    -0.070 -0.2523  0.9673  0.0254
              Bcc     0.0057     0.771     0.275     0.257  0.6378  0.1465  0.7561
 
              Baa    -0.0076    -1.015    -0.362    -0.339  0.7194 -0.1119  0.6856
    40 C(13)  Bbb     0.0028     0.378     0.135     0.126 -0.6890  0.0100  0.7247
              Bcc     0.0048     0.638     0.227     0.213  0.0879  0.9937  0.0699
 
              Baa    -0.0016    -0.220    -0.078    -0.073  0.6658  0.4530 -0.5929
    41 C(13)  Bbb    -0.0008    -0.112    -0.040    -0.037 -0.3392  0.8915  0.3002
              Bcc     0.0025     0.332     0.118     0.111  0.6646  0.0012  0.7472
 
              Baa    -0.0063    -0.842    -0.300    -0.281  0.5931  0.1348  0.7937
    42 C(13)  Bbb     0.0028     0.374     0.134     0.125  0.7731  0.1798 -0.6083
              Bcc     0.0035     0.467     0.167     0.156 -0.2247  0.9744  0.0024
 
              Baa    -0.0005    -0.064    -0.023    -0.021 -0.5340 -0.4977  0.6835
    43 C(13)  Bbb    -0.0001    -0.007    -0.003    -0.002  0.7604 -0.6362  0.1307
              Bcc     0.0005     0.071     0.025     0.024  0.3698  0.5895  0.7182
 
              Baa    -0.0095     0.685     0.244     0.228  0.6798  0.0330  0.7326
    44 O(17)  Bbb     0.0045    -0.322    -0.115    -0.107  0.7333 -0.0456 -0.6784
              Bcc     0.0050    -0.363    -0.129    -0.121  0.0110  0.9984 -0.0552
 
              Baa    -0.0016    -0.220    -0.078    -0.073  0.7088 -0.0257 -0.7050
    45 C(13)  Bbb    -0.0004    -0.056    -0.020    -0.019 -0.0548  0.9943 -0.0913
              Bcc     0.0021     0.276     0.099     0.092  0.7033  0.1034  0.7033
 
              Baa    -0.0074    -0.988    -0.353    -0.330  0.8476  0.2013  0.4911
    46 C(13)  Bbb     0.0023     0.312     0.111     0.104 -0.4606 -0.1808  0.8690
              Bcc     0.0050     0.676     0.241     0.225 -0.2637  0.9627  0.0605
 
              Baa    -0.0307    -4.125    -1.472    -1.376 -0.0998  0.6430  0.7594
    47 C(13)  Bbb     0.0139     1.872     0.668     0.624 -0.0729  0.7564 -0.6501
              Bcc     0.0168     2.253     0.804     0.752  0.9923  0.1202  0.0286
 
              Baa    -0.0264    -3.545    -1.265    -1.182  0.4887 -0.3498  0.7993
    48 C(13)  Bbb    -0.0197    -2.639    -0.942    -0.880  0.8643  0.0690 -0.4982
              Bcc     0.0461     6.184     2.207     2.063  0.1191  0.9343  0.3360
 
              Baa    -0.0175    -2.348    -0.838    -0.783 -0.0576  0.7674  0.6386
    49 C(13)  Bbb     0.0062     0.827     0.295     0.276  0.0810 -0.6339  0.7691
              Bcc     0.0113     1.521     0.543     0.507  0.9950  0.0960 -0.0256
 
              Baa    -0.0267    -3.583    -1.279    -1.195  0.0342 -0.6951  0.7181
    50 C(13)  Bbb    -0.0230    -3.082    -1.100    -1.028  0.9904  0.1200  0.0690
              Bcc     0.0497     6.665     2.378     2.223 -0.1341  0.7088  0.6925
 
              Baa    -0.0170    -2.286    -0.816    -0.763 -0.1790  0.7559  0.6298
    51 C(13)  Bbb     0.0059     0.794     0.283     0.265 -0.0480 -0.6461  0.7618
              Bcc     0.0111     1.492     0.533     0.498  0.9827  0.1061  0.1519
 
              Baa    -0.0265    -3.550    -1.267    -1.184 -0.4727 -0.4595  0.7520
    52 C(13)  Bbb    -0.0195    -2.620    -0.935    -0.874  0.8104  0.1085  0.5757
              Bcc     0.0460     6.171     2.202     2.058 -0.3462  0.8815  0.3211
 
              Baa    -0.0014    -0.194    -0.069    -0.065  0.0318 -0.6588  0.7516
    53 C(13)  Bbb     0.0004     0.059     0.021     0.020  0.8015  0.4661  0.3747
              Bcc     0.0010     0.135     0.048     0.045  0.5972 -0.5905 -0.5429
 
              Baa    -0.0033    -1.655    -0.590    -0.552  0.3587  0.0173  0.9333
    54 F(19)  Bbb    -0.0029    -1.481    -0.529    -0.494  0.7040 -0.6616 -0.2583
              Bcc     0.0062     3.136     1.119     1.046  0.6130  0.7497 -0.2494
 
              Baa    -0.0027    -1.371    -0.489    -0.457  0.3819  0.7840 -0.4893
    55 F(19)  Bbb    -0.0024    -1.199    -0.428    -0.400 -0.5785  0.6157  0.5350
              Bcc     0.0051     2.569     0.917     0.857  0.7208  0.0787  0.6887
 
              Baa    -0.0079    -3.984    -1.422    -1.329 -0.5397  0.6809  0.4950
    56 F(19)  Bbb    -0.0076    -3.803    -1.357    -1.269  0.0091 -0.5833  0.8122
              Bcc     0.0155     7.787     2.779     2.598  0.8418  0.4429  0.3086
 
              Baa    -0.0036    -0.481    -0.172    -0.160  0.6528 -0.0438  0.7563
    57 C(13)  Bbb    -0.0007    -0.094    -0.033    -0.031  0.1007  0.9945 -0.0293
              Bcc     0.0043     0.575     0.205     0.192  0.7508 -0.0953 -0.6536
 
              Baa    -0.0055    -0.733    -0.262    -0.245  0.7061  0.2076 -0.6770
    58 C(13)  Bbb     0.0020     0.264     0.094     0.088  0.6346  0.2387  0.7351
              Bcc     0.0035     0.470     0.168     0.157 -0.3142  0.9487 -0.0368
 
              Baa    -0.0013    -0.171    -0.061    -0.057  0.6301 -0.2389  0.7389
    59 C(13)  Bbb    -0.0004    -0.059    -0.021    -0.020  0.1207  0.9701  0.2107
              Bcc     0.0017     0.229     0.082     0.077  0.7671  0.0436 -0.6400
 
              Baa    -0.0045    -0.609    -0.217    -0.203  0.7183 -0.1126 -0.6865
    60 C(13)  Bbb     0.0019     0.250     0.089     0.083  0.6943  0.0544  0.7176
              Bcc     0.0027     0.359     0.128     0.120  0.0434  0.9922 -0.1172
 
              Baa    -0.0004    -0.055    -0.020    -0.018  0.6039  0.1805  0.7763
    61 C(13)  Bbb     0.0000     0.000     0.000     0.000  0.4399  0.7367 -0.5135
              Bcc     0.0004     0.055     0.020     0.018  0.6646 -0.6517 -0.3655
 
              Baa    -0.0064     0.462     0.165     0.154  0.7198 -0.0194 -0.6939
    62 O(17)  Bbb     0.0029    -0.211    -0.075    -0.070  0.6819 -0.1674  0.7120
              Bcc     0.0035    -0.251    -0.090    -0.084  0.1300  0.9857  0.1072
 
              Baa    -0.0018    -0.241    -0.086    -0.080  0.6009  0.2671  0.7534
    63 C(13)  Bbb    -0.0006    -0.076    -0.027    -0.025 -0.2232  0.9611 -0.1628
              Bcc     0.0024     0.317     0.113     0.106  0.7675  0.0703 -0.6371
 
              Baa    -0.0055    -0.733    -0.262    -0.245  0.8553 -0.2013 -0.4775
    64 C(13)  Bbb     0.0013     0.180     0.064     0.060  0.5031  0.1015  0.8583
              Bcc     0.0041     0.553     0.197     0.184  0.1243  0.9742 -0.1881
 
              Baa    -0.0027    -1.441    -0.514    -0.481  0.2698  0.8633 -0.4265
    65 H(1)   Bbb    -0.0024    -1.258    -0.449    -0.420  0.1339  0.4050  0.9044
              Bcc     0.0051     2.698     0.963     0.900  0.9536 -0.3011 -0.0063
 
              Baa    -0.0052    -2.757    -0.984    -0.919  0.8801 -0.4331 -0.1944
    66 H(1)   Bbb    -0.0020    -1.059    -0.378    -0.353  0.0307 -0.3567  0.9337
              Bcc     0.0072     3.815     1.361     1.273  0.4738  0.8278  0.3006
 
              Baa    -0.0011    -0.583    -0.208    -0.195  0.6251  0.4683 -0.6245
    67 H(1)   Bbb    -0.0008    -0.413    -0.147    -0.138  0.6652  0.0991  0.7401
              Bcc     0.0019     0.996     0.355     0.332 -0.4085  0.8780  0.2495
 
              Baa    -0.0006    -0.320    -0.114    -0.107 -0.1056 -0.4130  0.9046
    68 H(1)   Bbb    -0.0003    -0.181    -0.065    -0.060  0.3995  0.8154  0.4189
              Bcc     0.0009     0.502     0.179     0.167  0.9106 -0.4056 -0.0788
 
              Baa    -0.0006    -0.309    -0.110    -0.103 -0.0879 -0.4090  0.9083
    69 H(1)   Bbb    -0.0002    -0.095    -0.034    -0.032  0.0203  0.9109  0.4121
              Bcc     0.0008     0.404     0.144     0.135  0.9959 -0.0546  0.0718
 
              Baa    -0.0010    -0.534    -0.190    -0.178 -0.2197 -0.3851  0.8963
    70 H(1)   Bbb    -0.0004    -0.216    -0.077    -0.072  0.8956 -0.4439  0.0288
              Bcc     0.0014     0.750     0.268     0.250  0.3868  0.8091  0.4424
 
              Baa    -0.0095    -5.082    -1.813    -1.695 -0.4703  0.8825 -0.0059
    71 H(1)   Bbb    -0.0026    -1.385    -0.494    -0.462 -0.0905 -0.0415  0.9950
              Bcc     0.0121     6.467     2.308     2.157  0.8779  0.4685  0.0994
 
              Baa    -0.0096    -5.141    -1.834    -1.715  0.2424  0.9657  0.0935
    72 H(1)   Bbb    -0.0026    -1.368    -0.488    -0.456  0.0467 -0.1079  0.9931
              Bcc     0.0122     6.509     2.322     2.171  0.9690 -0.2364 -0.0713
 
              Baa    -0.0032    -1.731    -0.618    -0.577 -0.3726  0.9047 -0.2066
    73 H(1)   Bbb    -0.0020    -1.060    -0.378    -0.353 -0.0683  0.1953  0.9784
              Bcc     0.0052     2.790     0.996     0.931  0.9255  0.3787 -0.0110
 
              Baa    -0.0067    -3.595    -1.283    -1.199  0.9890  0.0841 -0.1213
    74 H(1)   Bbb    -0.0017    -0.884    -0.315    -0.295  0.1440 -0.3692  0.9181
              Bcc     0.0084     4.479     1.598     1.494 -0.0324  0.9255  0.3773
 
              Baa    -0.0010    -0.522    -0.186    -0.174  0.0710 -0.4900  0.8688
    75 H(1)   Bbb    -0.0009    -0.457    -0.163    -0.152  0.6265  0.6997  0.3435
              Bcc     0.0018     0.978     0.349     0.326  0.7762 -0.5199 -0.3567
 
              Baa    -0.0007    -0.347    -0.124    -0.116  0.2145 -0.4096  0.8867
    76 H(1)   Bbb    -0.0003    -0.135    -0.048    -0.045 -0.2447  0.8563  0.4548
              Bcc     0.0009     0.482     0.172     0.161  0.9456  0.3145 -0.0835
 
              Baa    -0.0007    -0.360    -0.128    -0.120  0.2255 -0.4247  0.8768
    77 H(1)   Bbb    -0.0003    -0.172    -0.061    -0.057 -0.5780  0.6661  0.4713
              Bcc     0.0010     0.531     0.190     0.177  0.7842  0.6131  0.0953
 
              Baa    -0.0012    -0.629    -0.224    -0.210  0.3081 -0.3827  0.8710
    78 H(1)   Bbb    -0.0005    -0.242    -0.086    -0.081  0.9509  0.1519 -0.2697
              Bcc     0.0016     0.871     0.311     0.290 -0.0291  0.9113  0.4107
 
              Baa    -0.0016    -0.843    -0.301    -0.281  0.8087  0.4647 -0.3607
    79 H(1)   Bbb    -0.0010    -0.541    -0.193    -0.180  0.4874 -0.1860  0.8531
              Bcc     0.0026     1.384     0.494     0.462 -0.3294  0.8657  0.3769
 
              Baa    -0.0004    -0.207    -0.074    -0.069 -0.3014 -0.5058  0.8083
    80 H(1)   Bbb    -0.0002    -0.117    -0.042    -0.039  0.8491  0.2434  0.4688
              Bcc     0.0006     0.324     0.116     0.108 -0.4339  0.8276  0.3561
 
              Baa    -0.0001    -0.074    -0.026    -0.025 -0.2690 -0.0837  0.9595
    81 H(1)   Bbb    -0.0001    -0.051    -0.018    -0.017  0.9534  0.1184  0.2776
              Bcc     0.0002     0.125     0.044     0.042 -0.1368  0.9894  0.0480
 
              Baa    -0.0004    -0.190    -0.068    -0.063 -0.4025  0.3055  0.8629
    82 H(1)   Bbb    -0.0002    -0.104    -0.037    -0.035  0.9094  0.0254  0.4152
              Bcc     0.0006     0.294     0.105     0.098  0.1049  0.9519 -0.2880
 
              Baa    -0.0015    -0.817    -0.291    -0.272 -0.2799  0.3161  0.9065
    83 H(1)   Bbb    -0.0007    -0.373    -0.133    -0.124  0.9578  0.0279  0.2860
              Bcc     0.0022     1.190     0.425     0.397  0.0651  0.9483 -0.3106
 
              Baa    -0.0031    -1.678    -0.599    -0.560  0.0617  0.6591  0.7495
    84 H(1)   Bbb    -0.0001    -0.079    -0.028    -0.026  0.9909 -0.1302  0.0330
              Bcc     0.0033     1.756     0.627     0.586  0.1193  0.7407 -0.6612
 
              Baa    -0.0013    -0.678    -0.242    -0.226 -0.0944  0.7032  0.7047
    85 H(1)   Bbb    -0.0004    -0.232    -0.083    -0.078  0.0776 -0.7006  0.7094
              Bcc     0.0017     0.910     0.325     0.304  0.9925  0.1216  0.0116
 
              Baa    -0.0013    -0.678    -0.242    -0.226 -0.1100  0.6999  0.7057
    86 H(1)   Bbb    -0.0004    -0.235    -0.084    -0.078  0.0256  0.7117 -0.7020
              Bcc     0.0017     0.913     0.326     0.304  0.9936  0.0591  0.0962
 
              Baa    -0.0031    -1.673    -0.597    -0.558 -0.2481  0.6189  0.7452
    87 H(1)   Bbb    -0.0002    -0.118    -0.042    -0.039  0.9407  0.3377  0.0327
              Bcc     0.0034     1.791     0.639     0.597 -0.2315  0.7091 -0.6660
 
              Baa    -0.0014    -0.721    -0.257    -0.241  0.7590 -0.2852  0.5854
    88 H(1)   Bbb    -0.0010    -0.522    -0.186    -0.174 -0.6433 -0.1889  0.7420
              Bcc     0.0023     1.244     0.444     0.415  0.1010  0.9397  0.3268
 
              Baa    -0.0004    -0.205    -0.073    -0.069  0.1972 -0.3261  0.9245
    89 H(1)   Bbb    -0.0002    -0.115    -0.041    -0.038  0.9519 -0.1618 -0.2601
              Bcc     0.0006     0.320     0.114     0.107  0.2344  0.9314  0.2785
 
              Baa    -0.0002    -0.091    -0.032    -0.030  0.3142  0.1052  0.9435
    90 H(1)   Bbb    -0.0001    -0.063    -0.023    -0.021  0.9483 -0.0824 -0.3066
              Bcc     0.0003     0.154     0.055     0.051  0.0455  0.9910 -0.1256
 
              Baa    -0.0005    -0.253    -0.090    -0.085  0.2964  0.4829  0.8240
    91 H(1)   Bbb    -0.0002    -0.101    -0.036    -0.034  0.9422 -0.0068 -0.3349
              Bcc     0.0007     0.355     0.127     0.118 -0.1561  0.8756 -0.4570
 
              Baa    -0.0019    -1.029    -0.367    -0.343  0.4843  0.5128  0.7089
    92 H(1)   Bbb    -0.0003    -0.143    -0.051    -0.048  0.8621 -0.1414 -0.4866
              Bcc     0.0022     1.172     0.418     0.391 -0.1493  0.8468 -0.5105
 

 ---------------------------------------------------------------------------------

 No NMR shielding tensors so no spin-rotation constants.
 Leave Link  601 at Fri Nov  7 20:41:55 2025, MaxMem= 30870077440 cpu:             262.3 elap:               4.7
 (Enter /public/software/gauss/g16/l9999.exe)
 1\1\GINC-CU015\SP\UM062X\def2TZVPP\C48H28B1F11N2O2(1-,2)\BAIDING\07-No
 v-2025\0\\#p M062X/DEF2TZVPP scrf=(solvent=water) em=GD3\\Energy calcu
 lation for M100039987_reduced\\-1,2\F,0,0.671592,0.082667,-1.182433\B,
 0,-0.08863,0.117496,0.009654\F,0,0.789933,0.278225,1.09856\N,0,-0.8627
 38,-1.215194,0.153352\C,0,-0.285428,-2.476677,0.17291\C,0,1.149022,-2.
 617164,0.216047\C,0,1.87149,-3.684936,-0.211956\C,0,3.323244,-3.816353
 ,-0.153108\C,0,4.173786,-2.871205,0.464283\C,0,5.55075,-3.043951,0.471
 553\C,0,6.124433,-4.170409,-0.134059\C,0,5.302791,-5.124491,-0.741815\
 C,0,3.924199,-4.945701,-0.749221\C,0,7.606094,-4.374731,-0.072767\F,0,
 8.060193,-5.169829,-1.069969\F,0,8.000317,-4.960074,1.090435\F,0,8.288
 795,-3.206473,-0.15411\C,0,-1.332311,-3.437672,0.091656\C,0,-2.536309,
 -2.723921,-0.008459\C,0,-2.237227,-1.347733,0.046282\C,0,-3.083419,-0.
 208045,-0.0146\C,0,-2.494451,1.085984,0.001053\C,0,-3.112749,2.34572,0
 .112521\C,0,-2.10795,3.320237,0.127931\C,0,-0.857395,2.641561,0.037472
 \C,0,0.422285,3.295821,0.084509\C,0,1.651389,2.843747,-0.286663\C,0,2.
 89286,3.602057,-0.182198\C,0,3.002519,4.855036,0.464072\C,0,4.213185,5
 .531173,0.51832\C,0,5.360394,4.9746,-0.063651\C,0,5.279966,3.732713,-0
 .701325\C,0,4.064772,3.059989,-0.754022\C,0,6.647306,5.737833,-0.04398
 7\F,0,6.724403,6.647427,-1.053402\F,0,7.729213,4.934637,-0.174462\F,0,
 6.810247,6.440278,1.104245\N,0,-1.114491,1.277228,-0.031841\C,0,-2.354
 236,4.767278,0.200909\C,0,-3.399222,5.254256,1.014264\C,0,-3.678195,6.
 612806,1.080021\C,0,-2.920713,7.530771,0.334224\C,0,-3.231805,8.960491
 ,0.419724\O,0,-2.637401,9.847349,-0.191089\C,0,-1.883461,7.057146,-0.4
 87347\C,0,-1.608944,5.699427,-0.556893\C,0,-4.551048,-0.361969,-0.0777
 62\C,0,-5.234737,-1.226623,0.802035\C,0,-6.615947,-1.376239,0.737989\C
 ,0,-7.354017,-0.658436,-0.208772\C,0,-6.698321,0.206657,-1.090161\C,0,
 -5.316476,0.351093,-1.023102\C,0,-8.834162,-0.864385,-0.315344\F,0,-9.
 404439,-1.124726,0.885533\F,0,-9.469133,0.214052,-0.831688\F,0,-9.1505
 91,-1.914157,-1.119756\C,0,-1.268888,-4.906033,0.186022\C,0,-2.103212,
 -5.694502,-0.637152\C,0,-2.116567,-7.076632,-0.526557\C,0,-1.295351,-7
 .718211,0.416761\C,0,-1.289847,-9.176886,0.55489\O,0,-1.969106,-9.9503
 61,-0.11884\C,0,-0.467063,-6.94281,1.24524\C,0,-0.455241,-5.558613,1.1
 33775\H,0,1.674098,-1.749996,0.603885\H,0,1.356474,-4.527439,-0.664284
 \H,0,3.755581,-1.993665,0.94566\H,0,6.184215,-2.302433,0.947277\H,0,5.
 739227,-5.99925,-1.211613\H,0,3.292446,-5.687606,-1.229058\H,0,-3.5240
 13,-3.156479,-0.063299\H,0,-4.17647,2.525343,0.151581\H,0,0.351015,4.3
 17933,0.445857\H,0,1.747212,1.861253,-0.732312\H,0,2.135713,5.300857,0
 .940073\H,0,4.273283,6.489429,1.023944\H,0,6.163865,3.291876,-1.149481
 \H,0,4.011207,2.094262,-1.248166\H,0,-3.979154,4.555036,1.607801\H,0,-
 4.48159,6.975069,1.716203\H,0,-4.071327,9.215833,1.094911\H,0,-1.30975
 6,7.764598,-1.077725\H,0,-0.831773,5.346296,-1.225194\H,0,-4.678216,-1
 .767538,1.559276\H,0,-7.120193,-2.03801,1.43431\H,0,-7.263822,0.760939
 ,-1.831437\H,0,-4.81811,1.010738,-1.724826\H,0,-2.732824,-5.206115,-1.
 37412\H,0,-2.755937,-7.675086,-1.167914\H,0,-0.609557,-9.56888,1.33559
 1\H,0,0.158947,-7.43481,1.985162\H,0,0.17572,-4.970444,1.790647\\Versi
 on=ES64L-G16RevA.03\State=2-A\HF=-3229.5305471\S2=0.786566\S2-1=0.\S2A
 =0.7511\RMSD=5.589e-09\Dipole=-1.1926155,-0.5769782,1.2479603\Quadrupo
 le=-21.9684191,-50.7672062,72.7356253,-26.9504013,-7.7521098,2.3696697
 \PG=C01 [X(C48H28B1F11N2O2)]\\@


 SUCCESS IS NEVER CERTAIN,
 FAILURE IS NEVER FINAL.
 Job cpu time:       2 days  0 hours  6 minutes 17.8 seconds.
 Elapsed time:       0 days  0 hours 45 minutes 39.6 seconds.
 File lengths (MBytes):  RWF=   6043 Int=      0 D2E=      0 Chk=    392 Scr=      1
 Normal termination of Gaussian 16 at Fri Nov  7 20:41:57 2025.
