 Entering Gaussian System, Link 0=g16
 Input=M100035265_sp.gjf
 Output=M100035265_sp.log
 Initial command:
 /public/software/gauss/g16/l1.exe "/public/home/baiding/1101_v2_sp/tmp_M100035265_sp_1568608/Gau-20058.inp" -scrdir="/public/home/baiding/1101_v2_sp/tmp_M100035265_sp_1568608/"
 Entering Link 1 = /public/software/gauss/g16/l1.exe PID=     20059.
  
 Copyright (c) 1988,1990,1992,1993,1995,1998,2003,2009,2016,
            Gaussian, Inc.  All Rights Reserved.
  
 This is part of the Gaussian(R) 16 program.  It is based on
 the Gaussian(R) 09 system (copyright 2009, Gaussian, Inc.),
 the Gaussian(R) 03 system (copyright 2003, Gaussian, Inc.),
 the Gaussian(R) 98 system (copyright 1998, Gaussian, Inc.),
 the Gaussian(R) 94 system (copyright 1995, Gaussian, Inc.),
 the Gaussian 92(TM) system (copyright 1992, Gaussian, Inc.),
 the Gaussian 90(TM) system (copyright 1990, Gaussian, Inc.),
 the Gaussian 88(TM) system (copyright 1988, Gaussian, Inc.),
 the Gaussian 86(TM) system (copyright 1986, Carnegie Mellon
 University), and the Gaussian 82(TM) system (copyright 1983,
 Carnegie Mellon University). Gaussian is a federally registered
 trademark of Gaussian, Inc.
  
 This software contains proprietary and confidential information,
 including trade secrets, belonging to Gaussian, Inc.
  
 This software is provided under written license and may be
 used, copied, transmitted, or stored only in accord with that
 written license.
  
 The following legend is applicable only to US Government
 contracts under FAR:
  
                    RESTRICTED RIGHTS LEGEND
  
 Use, reproduction and disclosure by the US Government is
 subject to restrictions as set forth in subparagraphs (a)
 and (c) of the Commercial Computer Software - Restricted
 Rights clause in FAR 52.227-19.
  
 Gaussian, Inc.
 340 Quinnipiac St., Bldg. 40, Wallingford CT 06492
  
  
 ---------------------------------------------------------------
 Warning -- This program may not be used in any manner that
 competes with the business of Gaussian, Inc. or will provide
 assistance to any competitor of Gaussian, Inc.  The licensee
 of this program is prohibited from giving any competitor of
 Gaussian, Inc. access to this program.  By using this program,
 the user acknowledges that Gaussian, Inc. is engaged in the
 business of creating and licensing software in the field of
 computational chemistry and represents and warrants to the
 licensee that it is not a competitor of Gaussian, Inc. and that
 it will not use this program in any manner prohibited above.
 ---------------------------------------------------------------
  

 Cite this work as:
 Gaussian 16, Revision A.03,
 M. J. Frisch, G. W. Trucks, H. B. Schlegel, G. E. Scuseria, 
 M. A. Robb, J. R. Cheeseman, G. Scalmani, V. Barone, 
 G. A. Petersson, H. Nakatsuji, X. Li, M. Caricato, A. V. Marenich, 
 J. Bloino, B. G. Janesko, R. Gomperts, B. Mennucci, H. P. Hratchian, 
 J. V. Ortiz, A. F. Izmaylov, J. L. Sonnenberg, D. Williams-Young, 
 F. Ding, F. Lipparini, F. Egidi, J. Goings, B. Peng, A. Petrone, 
 T. Henderson, D. Ranasinghe, V. G. Zakrzewski, J. Gao, N. Rega, 
 G. Zheng, W. Liang, M. Hada, M. Ehara, K. Toyota, R. Fukuda, 
 J. Hasegawa, M. Ishida, T. Nakajima, Y. Honda, O. Kitao, H. Nakai, 
 T. Vreven, K. Throssell, J. A. Montgomery, Jr., J. E. Peralta, 
 F. Ogliaro, M. J. Bearpark, J. J. Heyd, E. N. Brothers, K. N. Kudin, 
 V. N. Staroverov, T. A. Keith, R. Kobayashi, J. Normand, 
 K. Raghavachari, A. P. Rendell, J. C. Burant, S. S. Iyengar, 
 J. Tomasi, M. Cossi, J. M. Millam, M. Klene, C. Adamo, R. Cammi, 
 J. W. Ochterski, R. L. Martin, K. Morokuma, O. Farkas, 
 J. B. Foresman, and D. J. Fox, Gaussian, Inc., Wallingford CT, 2016.
 
 ******************************************
 Gaussian 16:  ES64L-G16RevA.03 25-Dec-2016
                 7-Nov-2025 
 ******************************************
 %nprocshared=64
 Will use up to   64 processors via shared memory.
 %mem=230GB
 %chk=M100035265_sp.chk
 ----------------------------------------------
 #p M062X/DEF2TZVPP scrf=(solvent=water) em=GD3
 ----------------------------------------------
 1/38=1,172=1/1;
 2/12=2,17=6,18=5,40=1/2;
 3/5=44,7=202,11=2,25=1,30=1,70=2201,72=1,74=-55,124=31/1,2,3;
 4//1;
 5/5=2,38=5,53=1/2;
 6/7=2,8=2,9=2,10=2,28=1/1;
 99/5=1,9=1/99;
 Leave Link    1 at Fri Nov  7 08:39:17 2025, MaxMem= 30870077440 cpu:              19.3 elap:               0.3
 (Enter /public/software/gauss/g16/l101.exe)
 ---------------------------------
 Energy calculation for M100035265
 ---------------------------------
 Symbolic Z-matrix:
 Charge =  0 Multiplicity = 1
 C                    -3.26213   3.10706   0.11378 
 C                    -1.85887   2.58389   0.0776 
 C                    -0.72776   3.38115   0.0996 
 C                     0.41714   2.54655   0.06304 
 C                     1.80908   2.92057   0.07636 
 C                     2.24      4.2039    0.00143 
 C                     3.62916   4.64777   0.02255 
 C                     3.89053   6.03311  -0.03579 
 C                     5.18773   6.52525  -0.01735 
 C                     6.26743   5.62851   0.0591 
 C                     7.60745   6.12227   0.07796 
 N                     8.70248   6.52518   0.09343 
 C                     6.02823   4.24145   0.11585 
 C                     4.72815   3.76319   0.09757 
 N                     0.00447   1.24671   0.02619 
 C                    -1.39105   1.22383   0.02992 
 C                    -2.08636   0.00164   0.01754 
 C                    -3.58028   0.00167   0.01565 
 C                    -4.28769  -0.01563  -1.19344 
 C                    -5.68073  -0.01384  -1.19687 
 C                    -6.40573   0.00081   0.00681 
 C                    -7.88967   0.00031   0.00212 
 C                    -8.62434   0.63245  -1.01344 
 C                    -10.0147   0.60266  -0.97247 
 N                    -10.72822  -0.00072  -0.007 
 C                    -10.02047  -0.60358   0.96304 
 C                    -8.63038  -0.63234   1.01296 
 C                    -5.68818   0.01588   1.21495 
 C                    -4.29531   0.01843   1.22015 
 C                    -1.39166  -1.22098   0.02054 
 C                    -1.86026  -2.58086   0.06591 
 C                    -3.26373  -3.10293   0.10922 
 C                    -0.72966  -3.37897   0.08035 
 C                     0.4157   -2.54502   0.04272 
 C                     1.80734  -2.92045   0.04972 
 C                     2.23662  -4.20348  -0.03836 
 C                     3.62531  -4.64919  -0.02511 
 C                     4.72539  -3.76728   0.06421 
 C                     6.02491  -4.2473    0.07358 
 C                     6.26245  -5.6335   -0.00675 
 C                     7.60188  -6.12913   0.00306 
 N                     8.69643  -6.53358   0.01121 
 C                     5.18164  -6.52757  -0.0975 
 C                     3.88502  -6.03366  -0.10664 
 N                     0.0038   -1.24481   0.01258 
 B                     0.8973    0.00195  -0.21924 
 F                     1.97653  -0.00333   0.67972 
 F                     1.39025   0.00931  -1.5302 
 H                    -3.84496   2.77503  -0.7504 
 H                    -3.79944   2.77561   1.00747 
 H                    -3.24424   4.19992   0.114 
 H                    -0.71568   4.46082   0.15464 
 H                     2.52258   2.10984   0.16454 
 H                     1.50681   5.0027   -0.08341 
 H                     3.05714   6.72649  -0.09502 
 H                     5.3736    7.59278  -0.06165 
 H                     6.86476   3.55353   0.17294 
 H                     4.56527   2.69198   0.13933 
 H                    -3.74621  -0.03628  -2.13396 
 H                    -6.20709  -0.04684  -2.14524 
 H                    -8.12526   1.16111  -1.8183 
 H                    -10.58487   1.09589  -1.75617 
 H                    -10.59531  -1.09725   1.74304 
 H                    -8.13609  -1.16072   1.82096 
 H                    -6.22044   0.0485    2.16002 
 H                    -3.75968   0.03924   2.16401 
 H                    -3.84325  -2.79122  -0.76481 
 H                    -3.24614  -4.1955    0.13429 
 H                    -3.80434  -2.7504    0.99271 
 H                    -0.718    -4.4588    0.13239 
 H                     2.52191  -2.11126   0.14317 
 H                     1.50234  -5.00052  -0.13001 
 H                     4.56385  -2.69676   0.1247 
 H                     6.86227  -3.56144   0.14196 
 H                     5.36622  -7.59442  -0.15993 
 H                     3.05076  -6.72494  -0.17695 
 
 ITRead=  0  0  0  0  0  0  0  0  0  0  0  0  0  0  0  0  0  0  0  0
 ITRead=  0  0  0  0  0  0  0  0  0  0  0  0  0  0  0  0  0  0  0  0
 ITRead=  0  0  0  0  0  0  0  0  0  0  0  0  0  0  0  0  0  0  0  0
 ITRead=  0  0  0  0  0  0  0  0  0  0  0  0  0  0  0  0
 MicOpt= -1 -1 -1 -1 -1 -1 -1 -1 -1 -1 -1 -1 -1 -1 -1 -1 -1 -1 -1 -1
 MicOpt= -1 -1 -1 -1 -1 -1 -1 -1 -1 -1 -1 -1 -1 -1 -1 -1 -1 -1 -1 -1
 MicOpt= -1 -1 -1 -1 -1 -1 -1 -1 -1 -1 -1 -1 -1 -1 -1 -1 -1 -1 -1 -1
 MicOpt= -1 -1 -1 -1 -1 -1 -1 -1 -1 -1 -1 -1 -1 -1 -1 -1
 NAtoms=     76 NQM=       76 NQMF=       0 NMMI=      0 NMMIF=      0
                NMic=       0 NMicF=      0.
                    Isotopes and Nuclear Properties:
 (Nuclear quadrupole moments (NQMom) in fm**2, nuclear magnetic moments (NMagM)
  in nuclear magnetons)

  Atom         1           2           3           4           5           6           7           8           9          10
 IAtWgt=          12          12          12          12          12          12          12          12          12          12
 AtmWgt=  12.0000000  12.0000000  12.0000000  12.0000000  12.0000000  12.0000000  12.0000000  12.0000000  12.0000000  12.0000000
 NucSpn=           0           0           0           0           0           0           0           0           0           0
 AtZEff=  -0.0000000  -0.0000000  -0.0000000  -0.0000000  -0.0000000  -0.0000000  -0.0000000  -0.0000000  -0.0000000  -0.0000000
 NQMom=    0.0000000   0.0000000   0.0000000   0.0000000   0.0000000   0.0000000   0.0000000   0.0000000   0.0000000   0.0000000
 NMagM=    0.0000000   0.0000000   0.0000000   0.0000000   0.0000000   0.0000000   0.0000000   0.0000000   0.0000000   0.0000000
 AtZNuc=   6.0000000   6.0000000   6.0000000   6.0000000   6.0000000   6.0000000   6.0000000   6.0000000   6.0000000   6.0000000

  Atom        11          12          13          14          15          16          17          18          19          20
 IAtWgt=          12          14          12          12          14          12          12          12          12          12
 AtmWgt=  12.0000000  14.0030740  12.0000000  12.0000000  14.0030740  12.0000000  12.0000000  12.0000000  12.0000000  12.0000000
 NucSpn=           0           2           0           0           2           0           0           0           0           0
 AtZEff=  -0.0000000  -0.0000000  -0.0000000  -0.0000000  -0.0000000  -0.0000000  -0.0000000  -0.0000000  -0.0000000  -0.0000000
 NQMom=    0.0000000   2.0440000   0.0000000   0.0000000   2.0440000   0.0000000   0.0000000   0.0000000   0.0000000   0.0000000
 NMagM=    0.0000000   0.4037610   0.0000000   0.0000000   0.4037610   0.0000000   0.0000000   0.0000000   0.0000000   0.0000000
 AtZNuc=   6.0000000   7.0000000   6.0000000   6.0000000   7.0000000   6.0000000   6.0000000   6.0000000   6.0000000   6.0000000

  Atom        21          22          23          24          25          26          27          28          29          30
 IAtWgt=          12          12          12          12          14          12          12          12          12          12
 AtmWgt=  12.0000000  12.0000000  12.0000000  12.0000000  14.0030740  12.0000000  12.0000000  12.0000000  12.0000000  12.0000000
 NucSpn=           0           0           0           0           2           0           0           0           0           0
 AtZEff=  -0.0000000  -0.0000000  -0.0000000  -0.0000000  -0.0000000  -0.0000000  -0.0000000  -0.0000000  -0.0000000  -0.0000000
 NQMom=    0.0000000   0.0000000   0.0000000   0.0000000   2.0440000   0.0000000   0.0000000   0.0000000   0.0000000   0.0000000
 NMagM=    0.0000000   0.0000000   0.0000000   0.0000000   0.4037610   0.0000000   0.0000000   0.0000000   0.0000000   0.0000000
 AtZNuc=   6.0000000   6.0000000   6.0000000   6.0000000   7.0000000   6.0000000   6.0000000   6.0000000   6.0000000   6.0000000

  Atom        31          32          33          34          35          36          37          38          39          40
 IAtWgt=          12          12          12          12          12          12          12          12          12          12
 AtmWgt=  12.0000000  12.0000000  12.0000000  12.0000000  12.0000000  12.0000000  12.0000000  12.0000000  12.0000000  12.0000000
 NucSpn=           0           0           0           0           0           0           0           0           0           0
 AtZEff=  -0.0000000  -0.0000000  -0.0000000  -0.0000000  -0.0000000  -0.0000000  -0.0000000  -0.0000000  -0.0000000  -0.0000000
 NQMom=    0.0000000   0.0000000   0.0000000   0.0000000   0.0000000   0.0000000   0.0000000   0.0000000   0.0000000   0.0000000
 NMagM=    0.0000000   0.0000000   0.0000000   0.0000000   0.0000000   0.0000000   0.0000000   0.0000000   0.0000000   0.0000000
 AtZNuc=   6.0000000   6.0000000   6.0000000   6.0000000   6.0000000   6.0000000   6.0000000   6.0000000   6.0000000   6.0000000

  Atom        41          42          43          44          45          46          47          48          49          50
 IAtWgt=          12          14          12          12          14          11          19          19           1           1
 AtmWgt=  12.0000000  14.0030740  12.0000000  12.0000000  14.0030740  11.0093053  18.9984033  18.9984033   1.0078250   1.0078250
 NucSpn=           0           2           0           0           2           3           1           1           1           1
 AtZEff=  -0.0000000  -0.0000000  -0.0000000  -0.0000000  -0.0000000  -0.0000000  -0.0000000  -0.0000000  -0.0000000  -0.0000000
 NQMom=    0.0000000   2.0440000   0.0000000   0.0000000   2.0440000   4.0590000   0.0000000   0.0000000   0.0000000   0.0000000
 NMagM=    0.0000000   0.4037610   0.0000000   0.0000000   0.4037610   2.6886370   2.6288670   2.6288670   2.7928460   2.7928460
 AtZNuc=   6.0000000   7.0000000   6.0000000   6.0000000   7.0000000   5.0000000   9.0000000   9.0000000   1.0000000   1.0000000

  Atom        51          52          53          54          55          56          57          58          59          60
 IAtWgt=           1           1           1           1           1           1           1           1           1           1
 AtmWgt=   1.0078250   1.0078250   1.0078250   1.0078250   1.0078250   1.0078250   1.0078250   1.0078250   1.0078250   1.0078250
 NucSpn=           1           1           1           1           1           1           1           1           1           1
 AtZEff=  -0.0000000  -0.0000000  -0.0000000  -0.0000000  -0.0000000  -0.0000000  -0.0000000  -0.0000000  -0.0000000  -0.0000000
 NQMom=    0.0000000   0.0000000   0.0000000   0.0000000   0.0000000   0.0000000   0.0000000   0.0000000   0.0000000   0.0000000
 NMagM=    2.7928460   2.7928460   2.7928460   2.7928460   2.7928460   2.7928460   2.7928460   2.7928460   2.7928460   2.7928460
 AtZNuc=   1.0000000   1.0000000   1.0000000   1.0000000   1.0000000   1.0000000   1.0000000   1.0000000   1.0000000   1.0000000

  Atom        61          62          63          64          65          66          67          68          69          70
 IAtWgt=           1           1           1           1           1           1           1           1           1           1
 AtmWgt=   1.0078250   1.0078250   1.0078250   1.0078250   1.0078250   1.0078250   1.0078250   1.0078250   1.0078250   1.0078250
 NucSpn=           1           1           1           1           1           1           1           1           1           1
 AtZEff=  -0.0000000  -0.0000000  -0.0000000  -0.0000000  -0.0000000  -0.0000000  -0.0000000  -0.0000000  -0.0000000  -0.0000000
 NQMom=    0.0000000   0.0000000   0.0000000   0.0000000   0.0000000   0.0000000   0.0000000   0.0000000   0.0000000   0.0000000
 NMagM=    2.7928460   2.7928460   2.7928460   2.7928460   2.7928460   2.7928460   2.7928460   2.7928460   2.7928460   2.7928460
 AtZNuc=   1.0000000   1.0000000   1.0000000   1.0000000   1.0000000   1.0000000   1.0000000   1.0000000   1.0000000   1.0000000

  Atom        71          72          73          74          75          76
 IAtWgt=           1           1           1           1           1           1
 AtmWgt=   1.0078250   1.0078250   1.0078250   1.0078250   1.0078250   1.0078250
 NucSpn=           1           1           1           1           1           1
 AtZEff=  -0.0000000  -0.0000000  -0.0000000  -0.0000000  -0.0000000  -0.0000000
 NQMom=    0.0000000   0.0000000   0.0000000   0.0000000   0.0000000   0.0000000
 NMagM=    2.7928460   2.7928460   2.7928460   2.7928460   2.7928460   2.7928460
 AtZNuc=   1.0000000   1.0000000   1.0000000   1.0000000   1.0000000   1.0000000
 Leave Link  101 at Fri Nov  7 08:39:17 2025, MaxMem= 30870077440 cpu:               6.0 elap:               0.1
 (Enter /public/software/gauss/g16/l202.exe)
 Stoichiometry    C40H28BF2N5
 Framework group  C1[X(C40H28BF2N5)]
 Deg. of freedom   222
 Full point group                 C1      NOp   1
 Largest Abelian subgroup         C1      NOp   1
 Largest concise Abelian subgroup C1      NOp   1
                         Standard orientation:                         
 ---------------------------------------------------------------------
 Center     Atomic      Atomic             Coordinates (Angstroms)
 Number     Number       Type             X           Y           Z
 ---------------------------------------------------------------------
      1          6           0       -3.262127   -3.107061   -0.113780
      2          6           0       -1.858866   -2.583892   -0.077603
      3          6           0       -0.727764   -3.381146   -0.099604
      4          6           0        0.417136   -2.546547   -0.063040
      5          6           0        1.809079   -2.920574   -0.076364
      6          6           0        2.239996   -4.203900   -0.001426
      7          6           0        3.629162   -4.647773   -0.022545
      8          6           0        3.890528   -6.033114    0.035790
      9          6           0        5.187729   -6.525252    0.017350
     10          6           0        6.267434   -5.628512   -0.059100
     11          6           0        7.607448   -6.122268   -0.077958
     12          7           0        8.702484   -6.525181   -0.093429
     13          6           0        6.028231   -4.241445   -0.115850
     14          6           0        4.728152   -3.763187   -0.097572
     15          7           0        0.004468   -1.246710   -0.026187
     16          6           0       -1.391051   -1.223834   -0.029917
     17          6           0       -2.086359   -0.001635   -0.017541
     18          6           0       -3.580278   -0.001669   -0.015645
     19          6           0       -4.287694    0.015625    1.193436
     20          6           0       -5.680728    0.013837    1.196873
     21          6           0       -6.405731   -0.000812   -0.006805
     22          6           0       -7.889666   -0.000313   -0.002118
     23          6           0       -8.624341   -0.632445    1.013440
     24          6           0      -10.014697   -0.602657    0.972469
     25          7           0      -10.728218    0.000723    0.006999
     26          6           0      -10.020470    0.603582   -0.963037
     27          6           0       -8.630383    0.632337   -1.012959
     28          6           0       -5.688183   -0.015880   -1.214951
     29          6           0       -4.295314   -0.018434   -1.220152
     30          6           0       -1.391659    1.220984   -0.020541
     31          6           0       -1.860259    2.580862   -0.065910
     32          6           0       -3.263730    3.102929   -0.109218
     33          6           0       -0.729655    3.378969   -0.080350
     34          6           0        0.415703    2.545016   -0.042723
     35          6           0        1.807340    2.920445   -0.049715
     36          6           0        2.236619    4.203481    0.038363
     37          6           0        3.625312    4.649185    0.025113
     38          6           0        4.725386    3.767279   -0.064214
     39          6           0        6.024910    4.247305   -0.073584
     40          6           0        6.262452    5.633499    0.006752
     41          6           0        7.601883    6.129130   -0.003064
     42          7           0        8.696430    6.533581   -0.011209
     43          6           0        5.181644    6.527572    0.097498
     44          6           0        3.885016    6.033664    0.106640
     45          7           0        0.003802    1.244807   -0.012576
     46          5           0        0.897303   -0.001950    0.219237
     47          9           0        1.976527    0.003331   -0.679720
     48          9           0        1.390246   -0.009310    1.530199
     49          1           0       -3.844961   -2.775029    0.750400
     50          1           0       -3.799438   -2.775611   -1.007466
     51          1           0       -3.244237   -4.199919   -0.113999
     52          1           0       -0.715678   -4.460821   -0.154640
     53          1           0        2.522583   -2.109842   -0.164544
     54          1           0        1.506811   -5.002705    0.083406
     55          1           0        3.057143   -6.726490    0.095024
     56          1           0        5.373603   -7.592778    0.061646
     57          1           0        6.864764   -3.553527   -0.172936
     58          1           0        4.565270   -2.691980   -0.139332
     59          1           0       -3.746209    0.036275    2.133959
     60          1           0       -6.207085    0.046839    2.145236
     61          1           0       -8.125263   -1.161114    1.818299
     62          1           0      -10.584865   -1.095890    1.756167
     63          1           0      -10.595314    1.097249   -1.743037
     64          1           0       -8.136086    1.160718   -1.820957
     65          1           0       -6.220441   -0.048498   -2.160021
     66          1           0       -3.759682   -0.039239   -2.164006
     67          1           0       -3.843248    2.791216    0.764808
     68          1           0       -3.246136    4.195496   -0.134291
     69          1           0       -3.804338    2.750402   -0.992707
     70          1           0       -0.717995    4.458799   -0.132389
     71          1           0        2.521906    2.111256   -0.143165
     72          1           0        1.502337    5.000521    0.130013
     73          1           0        4.563847    2.696758   -0.124699
     74          1           0        6.862273    3.561438   -0.141955
     75          1           0        5.366220    7.594423    0.159931
     76          1           0        3.050757    6.724945    0.176947
 ---------------------------------------------------------------------
 Rotational constants (GHZ):           0.0615078           0.0291216           0.0200901
 Leave Link  202 at Fri Nov  7 08:39:17 2025, MaxMem= 30870077440 cpu:               0.2 elap:               0.0
 (Enter /public/software/gauss/g16/l301.exe)
 Standard basis: def2TZVPP (5D, 7F)
 Ernie: Thresh=  0.10000D-02 Tol=  0.10000D-05 Strict=F.
 There are  2148 symmetry adapted cartesian basis functions of A   symmetry.
 There are  1880 symmetry adapted basis functions of A   symmetry.
  1880 basis functions,  2924 primitive gaussians,  2148 cartesian basis functions
   163 alpha electrons      163 beta electrons
       nuclear repulsion energy      5080.2667114049 Hartrees.
 IExCor= 4336 DFT=T Ex+Corr=M062X ExCW=0 ScaHFX=  0.540000
 ScaDFX=  1.000000  1.000000  1.000000  1.000000 ScalE2=  1.000000  1.000000
 IRadAn=      5 IRanWt=     -1 IRanGd=            0 ICorTp=0 IEmpDi=131
 NAtoms=   76 NActive=   76 NUniq=   76 SFac= 1.00D+00 NAtFMM=   60 NAOKFM=T Big=T
 Integral buffers will be    131072 words long.
 Raffenetti 2 integral format.
 Two-electron integral symmetry is turned on.
 R6Disp:  Grimme-D3 Dispersion energy=       -0.0061428273 Hartrees.
 Nuclear repulsion after empirical dispersion term =     5080.2605685776 Hartrees.
 ------------------------------------------------------------------------------
 Polarizable Continuum Model (PCM)
 =================================
 Model                : PCM.
 Atomic radii         : UFF (Universal Force Field).
 Polarization charges : Total charges.
 Charge compensation  : None.
 Solution method      : On-the-fly selection.
 Cavity type          : Scaled VdW (van der Waals Surface) (Alpha=1.100).
 Cavity algorithm     : GePol (No added spheres)
                        Default sphere list used, NSphG=   76.
                        Lebedev-Laikov grids with approx.  5.0 points / Ang**2.
                        Smoothing algorithm: York/Karplus (Gamma=1.0000).
                        Polarization charges: spherical gaussians, with
                                              point-specific exponents (IZeta= 3).
                        Self-potential: point-specific (ISelfS= 7).
                        Self-field    : sphere-specific E.n sum rule (ISelfD= 2).
 Solvent              : Water, Eps=  78.355300 Eps(inf)=   1.777849
 ------------------------------------------------------------------------------
 GePol: Number of generator spheres                  =      76
 GePol: Total number of spheres                      =      76
 GePol: Number of exposed spheres                    =      76 (100.00%)
 GePol: Number of points                             =    5739
 GePol: Average weight of points                     =       0.13
 GePol: Minimum weight of points                     =   0.19D-11
 GePol: Maximum weight of points                     =    0.20577
 GePol: Number of points with low weight             =     357
 GePol: Fraction of low-weight points (<1% of avg)   =       6.22%
 GePol: Cavity surface area                          =    731.757 Ang**2
 GePol: Cavity volume                                =    841.627 Ang**3
 Leave Link  301 at Fri Nov  7 08:39:17 2025, MaxMem= 30870077440 cpu:               4.7 elap:               0.1
 (Enter /public/software/gauss/g16/l302.exe)
 NPDir=0 NMtPBC=     1 NCelOv=     1 NCel=       1 NClECP=     1 NCelD=      1
         NCelK=      1 NCelE2=     1 NClLst=     1 CellRange=     0.0.
 One-electron integrals computed using PRISM.
 One-electron integral symmetry used in STVInt
   1 Symmetry operations used in ECPInt.
 ECPInt:  NShTT=  242556 NPrTT=  702660 LenC2=  146360 LenP2D=  282453.
 LDataN:  DoStor=T MaxTD1= 6 Len=  172
 NBasis=  1880 RedAO= T EigKep=  3.56D-06  NBF=  1880
 NBsUse=  1880 1.00D-06 EigRej= -1.00D+00 NBFU=  1880
 Precomputing XC quadrature grid using
 IXCGrd= 4 IRadAn=           5 IRanWt=          -1 IRanGd=           0 AccXCQ= 0.00D+00.
 Generated NRdTot=       0 NPtTot=           0 NUsed=           0 NTot=          32
 NSgBfM=  1794  1794  1794  1794  1794 MxSgAt=    76 MxSgA2=    76.
 Leave Link  302 at Fri Nov  7 08:39:26 2025, MaxMem= 30870077440 cpu:             606.1 elap:               9.5
 (Enter /public/software/gauss/g16/l303.exe)
 DipDrv:  MaxL=1.
 Leave Link  303 at Fri Nov  7 08:39:27 2025, MaxMem= 30870077440 cpu:              27.9 elap:               0.5
 (Enter /public/software/gauss/g16/l401.exe)
 ExpMin= 6.06D-02 ExpMax= 3.55D+04 ExpMxC= 1.21D+03 IAcc=3 IRadAn=         5 AccDes= 0.00D+00
 Harris functional with IExCor= 1009 and IRadAn=       5 diagonalized for initial guess.
 HarFok:  IExCor= 1009 AccDes= 0.00D+00 IRadAn=         5 IDoV= 1 UseB2=F ITyADJ=14
 ICtDFT=  3500011 ScaDFX=  1.000000  1.000000  1.000000  1.000000
 FoFCou: FMM=F IPFlag=           0 FMFlag=      100000 FMFlg1=        2001
         NFxFlg=           0 DoJE=T BraDBF=F KetDBF=T FulRan=T
         wScrn=  0.000000 ICntrl=       500 IOpCl=  0 I1Cent=   200000004 NGrid=           0
         NMat0=    1 NMatS0=      1 NMatT0=    0 NMatD0=    1 NMtDS0=    0 NMtDT0=    0
 Petite list used in FoFCou.
 Harris En= -2038.44396537348    
 JPrj=0 DoOrth=F DoCkMO=F.
 Leave Link  401 at Fri Nov  7 08:39:37 2025, MaxMem= 30870077440 cpu:             656.4 elap:              10.3
 (Enter /public/software/gauss/g16/l502.exe)
 Integral symmetry usage will be decided dynamically.
 Closed shell SCF:
 Using DIIS extrapolation, IDIIS=  1040.
 NGot= 30870077440 LenX= 30860694168 LenY= 30856078116
 Requested convergence on RMS density matrix=1.00D-08 within 128 cycles.
 Requested convergence on MAX density matrix=1.00D-06.
 Requested convergence on             energy=1.00D-06.
 No special actions if energy rises.
 Fock matrices will be formed incrementally for  20 cycles.

 Cycle   1  Pass 1  IDiag  1:
 FoFJK:  IHMeth= 1 ICntrl=       0 DoSepK=F KAlg= 0 I1Cent=           0 FoldK=F
 IRaf= 560000000 NMat=       1 IRICut=       1 DoRegI=T DoRafI=F ISym2E= 0 IDoP0=0 IntGTp=1.
 FoFCou: FMM=T IPFlag=           0 FMFlag=      100000 FMFlg1=        2001
         NFxFlg=           0 DoJE=F BraDBF=F KetDBF=F FulRan=T
         wScrn=  0.000000 ICntrl=         0 IOpCl=  0 I1Cent=           0 NGrid=           0
         NMat0=    1 NMatS0=      1 NMatT0=    0 NMatD0=    1 NMtDS0=    0 NMtDT0=    0
 Symmetry not used in FoFCou.
 FMM levels:  10  Number of levels for PrismC:   9
 Inv3:  Mode=1 IEnd=    98808363.
 Iteration    1 A*A^-1 deviation from unit magnitude is 2.92D-14 for   5739.
 Iteration    1 A*A^-1 deviation from orthogonality  is 6.23D-15 for   5700   5404.
 Iteration    1 A^-1*A deviation from unit magnitude is 2.92D-14 for   5739.
 Iteration    1 A^-1*A deviation from orthogonality  is 3.01D-15 for   5728   1881.
 E= -2038.63575089161    
 DIIS: error= 2.14D-02 at cycle   1 NSaved=   1.
 NSaved= 1 IEnMin= 1 EnMin= -2038.63575089161     IErMin= 1 ErrMin= 2.14D-02
 ErrMax= 2.14D-02  0.00D+00 EMaxC= 1.00D-01 BMatC= 1.21D+00 BMatP= 1.21D+00
 IDIUse=3 WtCom= 7.86D-01 WtEn= 2.14D-01
 Coeff-Com:  0.100D+01
 Coeff-En:   0.100D+01
 Coeff:      0.100D+01
 Gap=     0.130 Goal=   None    Shift=    0.000
 GapD=    0.130 DampG=1.000 DampE=0.500 DampFc=0.5000 IDamp=-1.
 Damping current iteration by 5.00D-01
 RMSDP=1.28D-03 MaxDP=9.39D-02              OVMax= 1.58D-01

 Cycle   2  Pass 1  IDiag  1:
 RMSU=  6.32D-04    CP:  9.75D-01
 E= -2039.12041294087     Delta-E=       -0.484662049261 Rises=F Damp=T
 DIIS: error= 6.25D-03 at cycle   2 NSaved=   2.
 NSaved= 2 IEnMin= 2 EnMin= -2039.12041294087     IErMin= 2 ErrMin= 6.25D-03
 ErrMax= 6.25D-03  0.00D+00 EMaxC= 1.00D-01 BMatC= 1.27D-01 BMatP= 1.21D+00
 IDIUse=3 WtCom= 9.38D-01 WtEn= 6.25D-02
 Coeff-Com: -0.198D+00 0.120D+01
 Coeff-En:   0.000D+00 0.100D+01
 Coeff:     -0.185D+00 0.119D+01
 Gap=     0.141 Goal=   None    Shift=    0.000
 RMSDP=5.94D-04 MaxDP=4.49D-02 DE=-4.85D-01 OVMax= 1.23D-01

 Cycle   3  Pass 1  IDiag  1:
 RMSU=  5.44D-04    CP:  9.52D-01  1.35D+00
 E= -2039.51544859756     Delta-E=       -0.395035656696 Rises=F Damp=F
 DIIS: error= 5.60D-03 at cycle   3 NSaved=   3.
 NSaved= 3 IEnMin= 3 EnMin= -2039.51544859756     IErMin= 3 ErrMin= 5.60D-03
 ErrMax= 5.60D-03  0.00D+00 EMaxC= 1.00D-01 BMatC= 6.42D-02 BMatP= 1.27D-01
 IDIUse=3 WtCom= 9.44D-01 WtEn= 5.60D-02
 Coeff-Com: -0.161D+00 0.563D+00 0.598D+00
 Coeff-En:   0.000D+00 0.000D+00 0.100D+01
 Coeff:     -0.152D+00 0.531D+00 0.621D+00
 Gap=     0.134 Goal=   None    Shift=    0.000
 RMSDP=1.68D-04 MaxDP=2.65D-02 DE=-3.95D-01 OVMax= 5.66D-02

 Cycle   4  Pass 1  IDiag  1:
 RMSU=  1.51D-04    CP:  9.54D-01  1.43D+00  8.99D-01
 E= -2039.55906454526     Delta-E=       -0.043615947701 Rises=F Damp=F
 DIIS: error= 2.70D-03 at cycle   4 NSaved=   4.
 NSaved= 4 IEnMin= 4 EnMin= -2039.55906454526     IErMin= 4 ErrMin= 2.70D-03
 ErrMax= 2.70D-03  0.00D+00 EMaxC= 1.00D-01 BMatC= 1.43D-02 BMatP= 6.42D-02
 IDIUse=3 WtCom= 9.73D-01 WtEn= 2.70D-02
 Coeff-Com: -0.567D-01 0.146D+00 0.358D+00 0.552D+00
 Coeff-En:   0.000D+00 0.000D+00 0.189D+00 0.811D+00
 Coeff:     -0.551D-01 0.142D+00 0.354D+00 0.559D+00
 Gap=     0.136 Goal=   None    Shift=    0.000
 RMSDP=6.54D-05 MaxDP=9.59D-03 DE=-4.36D-02 OVMax= 1.87D-02

 Cycle   5  Pass 1  IDiag  1:
 RMSU=  4.96D-05    CP:  9.53D-01  1.41D+00  9.14D-01  7.33D-01
 E= -2039.57126209818     Delta-E=       -0.012197552916 Rises=F Damp=F
 DIIS: error= 5.23D-04 at cycle   5 NSaved=   5.
 NSaved= 5 IEnMin= 5 EnMin= -2039.57126209818     IErMin= 5 ErrMin= 5.23D-04
 ErrMax= 5.23D-04  0.00D+00 EMaxC= 1.00D-01 BMatC= 5.66D-04 BMatP= 1.43D-02
 IDIUse=3 WtCom= 9.95D-01 WtEn= 5.23D-03
 Coeff-Com: -0.173D-01 0.362D-01 0.136D+00 0.269D+00 0.575D+00
 Coeff-En:   0.000D+00 0.000D+00 0.000D+00 0.000D+00 0.100D+01
 Coeff:     -0.172D-01 0.360D-01 0.136D+00 0.268D+00 0.578D+00
 Gap=     0.137 Goal=   None    Shift=    0.000
 RMSDP=1.82D-05 MaxDP=2.36D-03 DE=-1.22D-02 OVMax= 4.57D-03

 Cycle   6  Pass 1  IDiag  1:
 RMSU=  1.55D-05    CP:  9.52D-01  1.42D+00  9.14D-01  7.29D-01  8.23D-01
 E= -2039.57171941114     Delta-E=       -0.000457312962 Rises=F Damp=F
 DIIS: error= 1.31D-04 at cycle   6 NSaved=   6.
 NSaved= 6 IEnMin= 6 EnMin= -2039.57171941114     IErMin= 6 ErrMin= 1.31D-04
 ErrMax= 1.31D-04  0.00D+00 EMaxC= 1.00D-01 BMatC= 5.04D-05 BMatP= 5.66D-04
 IDIUse=3 WtCom= 9.99D-01 WtEn= 1.31D-03
 Coeff-Com: -0.343D-02 0.539D-02 0.347D-01 0.783D-01 0.278D+00 0.607D+00
 Coeff-En:   0.000D+00 0.000D+00 0.000D+00 0.000D+00 0.000D+00 0.100D+01
 Coeff:     -0.342D-02 0.538D-02 0.346D-01 0.782D-01 0.278D+00 0.607D+00
 Gap=     0.137 Goal=   None    Shift=    0.000
 RMSDP=5.69D-06 MaxDP=7.33D-04 DE=-4.57D-04 OVMax= 2.57D-03

 Cycle   7  Pass 1  IDiag  1:
 RMSU=  4.75D-06    CP:  9.53D-01  1.42D+00  9.14D-01  7.35D-01  8.82D-01
                    CP:  9.76D-01
 E= -2039.57176597909     Delta-E=       -0.000046567950 Rises=F Damp=F
 DIIS: error= 4.29D-05 at cycle   7 NSaved=   7.
 NSaved= 7 IEnMin= 7 EnMin= -2039.57176597909     IErMin= 7 ErrMin= 4.29D-05
 ErrMax= 4.29D-05  0.00D+00 EMaxC= 1.00D-01 BMatC= 6.52D-06 BMatP= 5.04D-05
 IDIUse=1 WtCom= 1.00D+00 WtEn= 0.00D+00
 Coeff-Com:  0.116D-02-0.316D-02-0.637D-02-0.900D-02 0.365D-01 0.280D+00
 Coeff-Com:  0.700D+00
 Coeff:      0.116D-02-0.316D-02-0.637D-02-0.900D-02 0.365D-01 0.280D+00
 Coeff:      0.700D+00
 Gap=     0.137 Goal=   None    Shift=    0.000
 RMSDP=2.75D-06 MaxDP=3.70D-04 DE=-4.66D-05 OVMax= 1.42D-03

 Cycle   8  Pass 1  IDiag  1:
 RMSU=  2.00D-06    CP:  9.53D-01  1.42D+00  9.14D-01  7.36D-01  9.07D-01
                    CP:  1.04D+00  1.21D+00
 E= -2039.57177423271     Delta-E=       -0.000008253621 Rises=F Damp=F
 DIIS: error= 1.69D-05 at cycle   8 NSaved=   8.
 NSaved= 8 IEnMin= 8 EnMin= -2039.57177423271     IErMin= 8 ErrMin= 1.69D-05
 ErrMax= 1.69D-05  0.00D+00 EMaxC= 1.00D-01 BMatC= 7.85D-07 BMatP= 6.52D-06
 IDIUse=1 WtCom= 1.00D+00 WtEn= 0.00D+00
 Coeff-Com:  0.105D-02-0.228D-02-0.834D-02-0.168D-01-0.297D-01 0.181D-01
 Coeff-Com:  0.285D+00 0.753D+00
 Coeff:      0.105D-02-0.228D-02-0.834D-02-0.168D-01-0.297D-01 0.181D-01
 Coeff:      0.285D+00 0.753D+00
 Gap=     0.138 Goal=   None    Shift=    0.000
 RMSDP=1.29D-06 MaxDP=1.08D-04 DE=-8.25D-06 OVMax= 7.45D-04

 Cycle   9  Pass 1  IDiag  1:
 RMSU=  9.33D-07    CP:  9.53D-01  1.42D+00  9.14D-01  7.37D-01  9.16D-01
                    CP:  1.06D+00  1.33D+00  1.05D+00
 E= -2039.57177567500     Delta-E=       -0.000001442284 Rises=F Damp=F
 DIIS: error= 8.69D-06 at cycle   9 NSaved=   9.
 NSaved= 9 IEnMin= 9 EnMin= -2039.57177567500     IErMin= 9 ErrMin= 8.69D-06
 ErrMax= 8.69D-06  0.00D+00 EMaxC= 1.00D-01 BMatC= 7.37D-08 BMatP= 7.85D-07
 IDIUse=1 WtCom= 1.00D+00 WtEn= 0.00D+00
 Coeff-Com:  0.168D-03-0.302D-03-0.172D-02-0.406D-02-0.125D-01-0.234D-01
 Coeff-Com:  0.628D-02 0.221D+00 0.815D+00
 Coeff:      0.168D-03-0.302D-03-0.172D-02-0.406D-02-0.125D-01-0.234D-01
 Coeff:      0.628D-02 0.221D+00 0.815D+00
 Gap=     0.138 Goal=   None    Shift=    0.000
 RMSDP=4.58D-07 MaxDP=5.49D-05 DE=-1.44D-06 OVMax= 3.30D-04

 Cycle  10  Pass 1  IDiag  1:
 RMSU=  3.79D-07    CP:  9.53D-01  1.42D+00  9.14D-01  7.37D-01  9.18D-01
                    CP:  1.07D+00  1.35D+00  1.15D+00  1.05D+00
 E= -2039.57177584563     Delta-E=       -0.000000170629 Rises=F Damp=F
 DIIS: error= 4.17D-06 at cycle  10 NSaved=  10.
 NSaved=10 IEnMin=10 EnMin= -2039.57177584563     IErMin=10 ErrMin= 4.17D-06
 ErrMax= 4.17D-06  0.00D+00 EMaxC= 1.00D-01 BMatC= 2.91D-08 BMatP= 7.37D-08
 IDIUse=1 WtCom= 1.00D+00 WtEn= 0.00D+00
 Coeff-Com: -0.937D-04 0.233D-03 0.496D-03 0.714D-03-0.149D-02-0.146D-01
 Coeff-Com: -0.438D-01-0.159D-01 0.430D+00 0.644D+00
 Coeff:     -0.937D-04 0.233D-03 0.496D-03 0.714D-03-0.149D-02-0.146D-01
 Coeff:     -0.438D-01-0.159D-01 0.430D+00 0.644D+00
 Gap=     0.138 Goal=   None    Shift=    0.000
 RMSDP=2.14D-07 MaxDP=3.07D-05 DE=-1.71D-07 OVMax= 1.36D-04

 Cycle  11  Pass 1  IDiag  1:
 RMSU=  1.53D-07    CP:  9.53D-01  1.42D+00  9.14D-01  7.37D-01  9.18D-01
                    CP:  1.07D+00  1.36D+00  1.19D+00  1.15D+00  1.00D+00
 E= -2039.57177588917     Delta-E=       -0.000000043541 Rises=F Damp=F
 DIIS: error= 1.35D-06 at cycle  11 NSaved=  11.
 NSaved=11 IEnMin=11 EnMin= -2039.57177588917     IErMin=11 ErrMin= 1.35D-06
 ErrMax= 1.35D-06  0.00D+00 EMaxC= 1.00D-01 BMatC= 3.62D-09 BMatP= 2.91D-08
 IDIUse=1 WtCom= 1.00D+00 WtEn= 0.00D+00
 Coeff-Com: -0.768D-04 0.172D-03 0.548D-03 0.110D-02 0.139D-02-0.333D-02
 Coeff-Com: -0.234D-01-0.477D-01 0.740D-01 0.303D+00 0.694D+00
 Coeff:     -0.768D-04 0.172D-03 0.548D-03 0.110D-02 0.139D-02-0.333D-02
 Coeff:     -0.234D-01-0.477D-01 0.740D-01 0.303D+00 0.694D+00
 Gap=     0.138 Goal=   None    Shift=    0.000
 RMSDP=7.05D-08 MaxDP=7.48D-06 DE=-4.35D-08 OVMax= 4.72D-05

 Cycle  12  Pass 1  IDiag  1:
 RMSU=  4.68D-08    CP:  9.53D-01  1.42D+00  9.14D-01  7.37D-01  9.18D-01
                    CP:  1.07D+00  1.36D+00  1.20D+00  1.19D+00  1.11D+00
                    CP:  9.72D-01
 E= -2039.57177589495     Delta-E=       -0.000000005783 Rises=F Damp=F
 DIIS: error= 4.62D-07 at cycle  12 NSaved=  12.
 NSaved=12 IEnMin=12 EnMin= -2039.57177589495     IErMin=12 ErrMin= 4.62D-07
 ErrMax= 4.62D-07  0.00D+00 EMaxC= 1.00D-01 BMatC= 4.35D-10 BMatP= 3.62D-09
 IDIUse=1 WtCom= 1.00D+00 WtEn= 0.00D+00
 Coeff-Com: -0.190D-04 0.400D-04 0.159D-03 0.366D-03 0.716D-03 0.375D-03
 Coeff-Com: -0.426D-02-0.178D-01-0.218D-01 0.391D-01 0.300D+00 0.703D+00
 Coeff:     -0.190D-04 0.400D-04 0.159D-03 0.366D-03 0.716D-03 0.375D-03
 Coeff:     -0.426D-02-0.178D-01-0.218D-01 0.391D-01 0.300D+00 0.703D+00
 Gap=     0.138 Goal=   None    Shift=    0.000
 RMSDP=2.56D-08 MaxDP=4.39D-06 DE=-5.78D-09 OVMax= 1.26D-05

 Cycle  13  Pass 1  IDiag  1:
 RMSU=  1.74D-08    CP:  9.53D-01  1.42D+00  9.14D-01  7.37D-01  9.18D-01
                    CP:  1.07D+00  1.36D+00  1.20D+00  1.19D+00  1.12D+00
                    CP:  1.06D+00  1.08D+00
 E= -2039.57177589557     Delta-E=       -0.000000000620 Rises=F Damp=F
 DIIS: error= 1.23D-07 at cycle  13 NSaved=  13.
 NSaved=13 IEnMin=13 EnMin= -2039.57177589557     IErMin=13 ErrMin= 1.23D-07
 ErrMax= 1.23D-07  0.00D+00 EMaxC= 1.00D-01 BMatC= 4.05D-11 BMatP= 4.35D-10
 IDIUse=1 WtCom= 1.00D+00 WtEn= 0.00D+00
 Coeff-Com:  0.191D-05-0.495D-05-0.356D-05 0.139D-04 0.114D-03 0.586D-03
 Coeff-Com:  0.125D-02-0.959D-03-0.167D-01-0.239D-01 0.427D-01 0.274D+00
 Coeff-Com:  0.723D+00
 Coeff:      0.191D-05-0.495D-05-0.356D-05 0.139D-04 0.114D-03 0.586D-03
 Coeff:      0.125D-02-0.959D-03-0.167D-01-0.239D-01 0.427D-01 0.274D+00
 Coeff:      0.723D+00
 Gap=     0.138 Goal=   None    Shift=    0.000
 RMSDP=8.35D-09 MaxDP=9.77D-07 DE=-6.20D-10 OVMax= 3.25D-06

 Error on total polarization charges =  0.02753
 SCF Done:  E(RM062X) =  -2039.57177590     A.U. after   13 cycles
            NFock= 13  Conv=0.84D-08     -V/T= 2.0055
 KE= 2.028406419015D+03 PE=-1.490334398785D+04 EE= 5.755105224365D+03
 Leave Link  502 at Fri Nov  7 08:53:40 2025, MaxMem= 30870077440 cpu:           52887.3 elap:             843.2
 (Enter /public/software/gauss/g16/l601.exe)
 Copying SCF densities to generalized density rwf, IOpCl= 0 IROHF=0.

 **********************************************************************

            Population analysis using the SCF density.

 **********************************************************************

 Orbital symmetries:
       Occupied  (A) (A) (A) (A) (A) (A) (A) (A) (A) (A) (A) (A)
                 (A) (A) (A) (A) (A) (A) (A) (A) (A) (A) (A) (A)
                 (A) (A) (A) (A) (A) (A) (A) (A) (A) (A) (A) (A)
                 (A) (A) (A) (A) (A) (A) (A) (A) (A) (A) (A) (A)
                 (A) (A) (A) (A) (A) (A) (A) (A) (A) (A) (A) (A)
                 (A) (A) (A) (A) (A) (A) (A) (A) (A) (A) (A) (A)
                 (A) (A) (A) (A) (A) (A) (A) (A) (A) (A) (A) (A)
                 (A) (A) (A) (A) (A) (A) (A) (A) (A) (A) (A) (A)
                 (A) (A) (A) (A) (A) (A) (A) (A) (A) (A) (A) (A)
                 (A) (A) (A) (A) (A) (A) (A) (A) (A) (A) (A) (A)
                 (A) (A) (A) (A) (A) (A) (A) (A) (A) (A) (A) (A)
                 (A) (A) (A) (A) (A) (A) (A) (A) (A) (A) (A) (A)
                 (A) (A) (A) (A) (A) (A) (A) (A) (A) (A) (A) (A)
                 (A) (A) (A) (A) (A) (A) (A)
       Virtual   (A) (A) (A) (A) (A) (A) (A) (A) (A) (A) (A) (A)
                 (A) (A) (A) (A) (A) (A) (A) (A) (A) (A) (A) (A)
                 (A) (A) (A) (A) (A) (A) (A) (A) (A) (A) (A) (A)
                 (A) (A) (A) (A) (A) (A) (A) (A) (A) (A) (A) (A)
                 (A) (A) (A) (A) (A) (A) (A) (A) (A) (A) (A) (A)
                 (A) (A) (A) (A) (A) (A) (A) (A) (A) (A) (A) (A)
                 (A) (A) (A) (A) (A) (A) (A) (A) (A) (A) (A) (A)
                 (A) (A) (A) (A) (A) (A) (A) (A) (A) (A) (A) (A)
                 (A) (A) (A) (A) (A) (A) (A) (A) (A) (A) (A) (A)
                 (A) (A) (A) (A) (A) (A) (A) (A) (A) (A) (A) (A)
                 (A) (A) (A) (A) (A) (A) (A) (A) (A) (A) (A) (A)
                 (A) (A) (A) (A) (A) (A) (A) (A) (A) (A) (A) (A)
                 (A) (A) (A) (A) (A) (A) (A) (A) (A) (A) (A) (A)
                 (A) (A) (A) (A) (A) (A) (A) (A) (A) (A) (A) (A)
                 (A) (A) (A) (A) (A) (A) (A) (A) (A) (A) (A) (A)
                 (A) (A) (A) (A) (A) (A) (A) (A) (A) (A) (A) (A)
                 (A) (A) (A) (A) (A) (A) (A) (A) (A) (A) (A) (A)
                 (A) (A) (A) (A) (A) (A) (A) (A) (A) (A) (A) (A)
                 (A) (A) (A) (A) (A) (A) (A) (A) (A) (A) (A) (A)
                 (A) (A) (A) (A) (A) (A) (A) (A) (A) (A) (A) (A)
                 (A) (A) (A) (A) (A) (A) (A) (A) (A) (A) (A) (A)
                 (A) (A) (A) (A) (A) (A) (A) (A) (A) (A) (A) (A)
                 (A) (A) (A) (A) (A) (A) (A) (A) (A) (A) (A) (A)
                 (A) (A) (A) (A) (A) (A) (A) (A) (A) (A) (A) (A)
                 (A) (A) (A) (A) (A) (A) (A) (A) (A) (A) (A) (A)
                 (A) (A) (A) (A) (A) (A) (A) (A) (A) (A) (A) (A)
                 (A) (A) (A) (A) (A) (A) (A) (A) (A) (A) (A) (A)
                 (A) (A) (A) (A) (A) (A) (A) (A) (A) (A) (A) (A)
                 (A) (A) (A) (A) (A) (A) (A) (A) (A) (A) (A) (A)
                 (A) (A) (A) (A) (A) (A) (A) (A) (A) (A) (A) (A)
                 (A) (A) (A) (A) (A) (A) (A) (A) (A) (A) (A) (A)
                 (A) (A) (A) (A) (A) (A) (A) (A) (A) (A) (A) (A)
                 (A) (A) (A) (A) (A) (A) (A) (A) (A) (A) (A) (A)
                 (A) (A) (A) (A) (A) (A) (A) (A) (A) (A) (A) (A)
                 (A) (A) (A) (A) (A) (A) (A) (A) (A) (A) (A) (A)
                 (A) (A) (A) (A) (A) (A) (A) (A) (A) (A) (A) (A)
                 (A) (A) (A) (A) (A) (A) (A) (A) (A) (A) (A) (A)
                 (A) (A) (A) (A) (A) (A) (A) (A) (A) (A) (A) (A)
                 (A) (A) (A) (A) (A) (A) (A) (A) (A) (A) (A) (A)
                 (A) (A) (A) (A) (A) (A) (A) (A) (A) (A) (A) (A)
                 (A) (A) (A) (A) (A) (A) (A) (A) (A) (A) (A) (A)
                 (A) (A) (A) (A) (A) (A) (A) (A) (A) (A) (A) (A)
                 (A) (A) (A) (A) (A) (A) (A) (A) (A) (A) (A) (A)
                 (A) (A) (A) (A) (A) (A) (A) (A) (A) (A) (A) (A)
                 (A) (A) (A) (A) (A) (A) (A) (A) (A) (A) (A) (A)
                 (A) (A) (A) (A) (A) (A) (A) (A) (A) (A) (A) (A)
                 (A) (A) (A) (A) (A) (A) (A) (A) (A) (A) (A) (A)
                 (A) (A) (A) (A) (A) (A) (A) (A) (A) (A) (A) (A)
                 (A) (A) (A) (A) (A) (A) (A) (A) (A) (A) (A) (A)
                 (A) (A) (A) (A) (A) (A) (A) (A) (A) (A) (A) (A)
                 (A) (A) (A) (A) (A) (A) (A) (A) (A) (A) (A) (A)
                 (A) (A) (A) (A) (A) (A) (A) (A) (A) (A) (A) (A)
                 (A) (A) (A) (A) (A) (A) (A) (A) (A) (A) (A) (A)
                 (A) (A) (A) (A) (A) (A) (A) (A) (A) (A) (A) (A)
                 (A) (A) (A) (A) (A) (A) (A) (A) (A) (A) (A) (A)
                 (A) (A) (A) (A) (A) (A) (A) (A) (A) (A) (A) (A)
                 (A) (A) (A) (A) (A) (A) (A) (A) (A) (A) (A) (A)
                 (A) (A) (A) (A) (A) (A) (A) (A) (A) (A) (A) (A)
                 (A) (A) (A) (A) (A) (A) (A) (A) (A) (A) (A) (A)
                 (A) (A) (A) (A) (A) (A) (A) (A) (A) (A) (A) (A)
                 (A) (A) (A) (A) (A) (A) (A) (A) (A) (A) (A) (A)
                 (A) (A) (A) (A) (A) (A) (A) (A) (A) (A) (A) (A)
                 (A) (A) (A) (A) (A) (A) (A) (A) (A) (A) (A) (A)
                 (A) (A) (A) (A) (A) (A) (A) (A) (A) (A) (A) (A)
                 (A) (A) (A) (A) (A) (A) (A) (A) (A) (A) (A) (A)
                 (A) (A) (A) (A) (A) (A) (A) (A) (A) (A) (A) (A)
                 (A) (A) (A) (A) (A) (A) (A) (A) (A) (A) (A) (A)
                 (A) (A) (A) (A) (A) (A) (A) (A) (A) (A) (A) (A)
                 (A) (A) (A) (A) (A) (A) (A) (A) (A) (A) (A) (A)
                 (A) (A) (A) (A) (A) (A) (A) (A) (A) (A) (A) (A)
                 (A) (A) (A) (A) (A) (A) (A) (A) (A) (A) (A) (A)
                 (A) (A) (A) (A) (A) (A) (A) (A) (A) (A) (A) (A)
                 (A) (A) (A) (A) (A) (A) (A) (A) (A) (A) (A) (A)
                 (A) (A) (A) (A) (A) (A) (A) (A) (A) (A) (A) (A)
                 (A) (A) (A) (A) (A) (A) (A) (A) (A) (A) (A) (A)
                 (A) (A) (A) (A) (A) (A) (A) (A) (A) (A) (A) (A)
                 (A) (A) (A) (A) (A) (A) (A) (A) (A) (A) (A) (A)
                 (A) (A) (A) (A) (A) (A) (A) (A) (A) (A) (A) (A)
                 (A) (A) (A) (A) (A) (A) (A) (A) (A) (A) (A) (A)
                 (A) (A) (A) (A) (A) (A) (A) (A) (A) (A) (A) (A)
                 (A) (A) (A) (A) (A) (A) (A) (A) (A) (A) (A) (A)
                 (A) (A) (A) (A) (A) (A) (A) (A) (A) (A) (A) (A)
                 (A) (A) (A) (A) (A) (A) (A) (A) (A) (A) (A) (A)
                 (A) (A) (A) (A) (A) (A) (A) (A) (A) (A) (A) (A)
                 (A) (A) (A) (A) (A) (A) (A) (A) (A) (A) (A) (A)
                 (A) (A) (A) (A) (A) (A) (A) (A) (A) (A) (A) (A)
                 (A) (A) (A) (A) (A) (A) (A) (A) (A) (A) (A) (A)
                 (A) (A) (A) (A) (A) (A) (A) (A) (A) (A) (A) (A)
                 (A) (A) (A) (A) (A) (A) (A) (A) (A) (A) (A) (A)
                 (A) (A) (A) (A) (A) (A) (A) (A) (A) (A) (A) (A)
                 (A) (A) (A) (A) (A) (A) (A) (A) (A) (A) (A) (A)
                 (A) (A) (A) (A) (A) (A) (A) (A) (A) (A) (A) (A)
                 (A) (A) (A) (A) (A) (A) (A) (A) (A) (A) (A) (A)
                 (A) (A) (A) (A) (A) (A) (A) (A) (A) (A) (A) (A)
                 (A) (A) (A) (A) (A) (A) (A) (A) (A) (A) (A) (A)
                 (A) (A) (A) (A) (A) (A) (A) (A) (A) (A) (A) (A)
                 (A) (A) (A) (A) (A) (A) (A) (A) (A) (A) (A) (A)
                 (A) (A) (A) (A) (A) (A) (A) (A) (A) (A) (A) (A)
                 (A) (A) (A) (A) (A) (A) (A) (A) (A) (A) (A) (A)
                 (A) (A) (A) (A) (A) (A) (A) (A) (A) (A) (A) (A)
                 (A) (A) (A) (A) (A) (A) (A) (A) (A) (A) (A) (A)
                 (A) (A) (A) (A) (A) (A) (A) (A) (A) (A) (A) (A)
                 (A) (A) (A) (A) (A) (A) (A) (A) (A) (A) (A) (A)
                 (A) (A) (A) (A) (A) (A) (A) (A) (A) (A) (A) (A)
                 (A) (A) (A) (A) (A) (A) (A) (A) (A) (A) (A) (A)
                 (A) (A) (A) (A) (A) (A) (A) (A) (A) (A) (A) (A)
                 (A) (A) (A) (A) (A) (A) (A) (A) (A) (A) (A) (A)
                 (A) (A) (A) (A) (A) (A) (A) (A) (A) (A) (A) (A)
                 (A) (A) (A) (A) (A) (A) (A) (A) (A) (A) (A) (A)
                 (A) (A) (A) (A) (A) (A) (A) (A) (A) (A) (A) (A)
                 (A) (A) (A) (A) (A) (A) (A) (A) (A) (A) (A) (A)
                 (A) (A) (A) (A) (A) (A) (A) (A) (A) (A) (A) (A)
                 (A) (A) (A) (A) (A) (A) (A) (A) (A) (A) (A) (A)
                 (A) (A) (A) (A) (A) (A) (A) (A) (A) (A) (A) (A)
                 (A) (A) (A) (A) (A) (A) (A) (A) (A) (A) (A) (A)
                 (A) (A) (A) (A) (A) (A) (A) (A) (A) (A) (A) (A)
                 (A) (A) (A) (A) (A) (A) (A) (A) (A) (A) (A) (A)
                 (A) (A) (A) (A) (A) (A) (A) (A) (A) (A) (A) (A)
                 (A) (A) (A) (A) (A) (A) (A) (A) (A) (A) (A) (A)
                 (A) (A) (A) (A) (A) (A) (A) (A) (A) (A) (A) (A)
                 (A) (A) (A) (A) (A) (A) (A) (A) (A) (A) (A) (A)
                 (A) (A) (A) (A) (A) (A) (A) (A) (A) (A) (A) (A)
                 (A) (A) (A) (A) (A) (A) (A) (A) (A) (A) (A) (A)
                 (A) (A) (A) (A) (A) (A) (A) (A) (A) (A) (A) (A)
                 (A) (A) (A) (A) (A) (A) (A) (A) (A) (A) (A) (A)
                 (A) (A) (A) (A) (A) (A) (A) (A) (A) (A) (A) (A)
                 (A) (A) (A) (A) (A) (A) (A) (A) (A) (A) (A) (A)
                 (A) (A) (A) (A) (A) (A) (A) (A) (A) (A) (A) (A)
                 (A) (A) (A) (A) (A) (A) (A) (A) (A) (A) (A) (A)
                 (A) (A) (A) (A) (A) (A) (A) (A) (A) (A) (A) (A)
                 (A) (A) (A) (A) (A) (A) (A) (A) (A) (A) (A) (A)
                 (A) (A) (A) (A) (A) (A) (A) (A) (A) (A) (A) (A)
                 (A) (A) (A) (A) (A) (A) (A) (A) (A) (A) (A) (A)
                 (A) (A) (A) (A) (A) (A) (A) (A) (A) (A) (A) (A)
                 (A) (A) (A) (A) (A) (A) (A) (A) (A) (A) (A) (A)
                 (A) (A) (A) (A) (A) (A) (A) (A) (A) (A) (A) (A)
                 (A) (A) (A) (A) (A) (A) (A) (A) (A) (A) (A) (A)
                 (A) (A) (A) (A) (A) (A) (A) (A) (A) (A) (A) (A)
                 (A) (A) (A) (A) (A) (A) (A) (A) (A) (A) (A) (A)
                 (A) (A) (A) (A) (A) (A) (A) (A) (A) (A) (A) (A)
                 (A) (A) (A) (A) (A) (A) (A) (A) (A) (A) (A) (A)
                 (A) (A) (A) (A) (A) (A) (A) (A) (A) (A) (A) (A)
                 (A) (A) (A) (A) (A) (A) (A) (A) (A) (A) (A) (A)
                 (A)
 The electronic state is 1-A.
 Alpha  occ. eigenvalues --  -25.21059 -25.20783 -14.79039 -14.79034 -14.77024
 Alpha  occ. eigenvalues --  -14.77024 -14.76016 -10.60896 -10.60896 -10.60719
 Alpha  occ. eigenvalues --  -10.59872 -10.59872 -10.59806 -10.59806 -10.59468
 Alpha  occ. eigenvalues --  -10.59465 -10.58427 -10.58425 -10.58255 -10.58255
 Alpha  occ. eigenvalues --  -10.58180 -10.57721 -10.57560 -10.57560 -10.57547
 Alpha  occ. eigenvalues --  -10.57547 -10.57443 -10.57440 -10.57419 -10.57212
 Alpha  occ. eigenvalues --  -10.57211 -10.56833 -10.56833 -10.56754 -10.56754
 Alpha  occ. eigenvalues --  -10.56684 -10.56684 -10.56266 -10.56262 -10.56174
 Alpha  occ. eigenvalues --  -10.56171 -10.55789 -10.55787 -10.54733 -10.54731
 Alpha  occ. eigenvalues --  -10.54152 -10.54150  -7.13694  -1.32881  -1.29626
 Alpha  occ. eigenvalues --   -1.11182  -1.09287  -1.05899  -1.03030  -1.03030
 Alpha  occ. eigenvalues --   -0.99262  -0.99177  -0.99124  -0.95173  -0.93188
 Alpha  occ. eigenvalues --   -0.93122  -0.91547  -0.91140  -0.90806  -0.88119
 Alpha  occ. eigenvalues --   -0.87479  -0.87069  -0.87036  -0.86826  -0.85901
 Alpha  occ. eigenvalues --   -0.84275  -0.82115  -0.81319  -0.79752  -0.78177
 Alpha  occ. eigenvalues --   -0.75474  -0.74433  -0.73075  -0.72134  -0.71966
 Alpha  occ. eigenvalues --   -0.71341  -0.70562  -0.69979  -0.69024  -0.68047
 Alpha  occ. eigenvalues --   -0.66919  -0.65242  -0.64610  -0.64525  -0.64508
 Alpha  occ. eigenvalues --   -0.63233  -0.62106  -0.61503  -0.60592  -0.59257
 Alpha  occ. eigenvalues --   -0.58711  -0.57683  -0.57420  -0.56947  -0.55750
 Alpha  occ. eigenvalues --   -0.55569  -0.55520  -0.54596  -0.53959  -0.53740
 Alpha  occ. eigenvalues --   -0.53315  -0.53116  -0.52926  -0.52210  -0.52204
 Alpha  occ. eigenvalues --   -0.51909  -0.51293  -0.51141  -0.50811  -0.50620
 Alpha  occ. eigenvalues --   -0.50337  -0.49815  -0.49722  -0.49179  -0.48979
 Alpha  occ. eigenvalues --   -0.48972  -0.48789  -0.48358  -0.48325  -0.48197
 Alpha  occ. eigenvalues --   -0.48151  -0.47718  -0.47013  -0.46939  -0.46766
 Alpha  occ. eigenvalues --   -0.46414  -0.46122  -0.44992  -0.44729  -0.44254
 Alpha  occ. eigenvalues --   -0.44159  -0.44134  -0.43974  -0.43784  -0.43596
 Alpha  occ. eigenvalues --   -0.43573  -0.42700  -0.42617  -0.42006  -0.41465
 Alpha  occ. eigenvalues --   -0.40959  -0.40796  -0.40504  -0.39936  -0.38498
 Alpha  occ. eigenvalues --   -0.36939  -0.35547  -0.34125  -0.33551  -0.33549
 Alpha  occ. eigenvalues --   -0.32803  -0.32620  -0.32565  -0.32124  -0.31512
 Alpha  occ. eigenvalues --   -0.30449  -0.29396  -0.24246
 Alpha virt. eigenvalues --   -0.10481  -0.05913  -0.03958  -0.03601  -0.00356
 Alpha virt. eigenvalues --   -0.00244  -0.00237   0.00849   0.02007   0.02414
 Alpha virt. eigenvalues --    0.02892   0.05701   0.05971   0.06101   0.06564
 Alpha virt. eigenvalues --    0.06697   0.07436   0.07644   0.08239   0.08605
 Alpha virt. eigenvalues --    0.08807   0.08983   0.09249   0.09537   0.09743
 Alpha virt. eigenvalues --    0.10358   0.10553   0.11051   0.11241   0.11562
 Alpha virt. eigenvalues --    0.11708   0.11828   0.12058   0.12317   0.12646
 Alpha virt. eigenvalues --    0.13126   0.13253   0.13266   0.13449   0.13529
 Alpha virt. eigenvalues --    0.13650   0.13977   0.14527   0.14551   0.15202
 Alpha virt. eigenvalues --    0.15354   0.15654   0.16078   0.16226   0.16319
 Alpha virt. eigenvalues --    0.16589   0.17373   0.17386   0.17676   0.17759
 Alpha virt. eigenvalues --    0.17996   0.18122   0.18236   0.18571   0.19052
 Alpha virt. eigenvalues --    0.19214   0.19625   0.19696   0.19902   0.20266
 Alpha virt. eigenvalues --    0.20787   0.20961   0.21142   0.21256   0.21498
 Alpha virt. eigenvalues --    0.21676   0.21988   0.22254   0.22413   0.22814
 Alpha virt. eigenvalues --    0.23054   0.23225   0.23468   0.23504   0.23962
 Alpha virt. eigenvalues --    0.24111   0.24420   0.25025   0.25196   0.25349
 Alpha virt. eigenvalues --    0.25410   0.25534   0.26060   0.26317   0.26338
 Alpha virt. eigenvalues --    0.26545   0.26688   0.26826   0.26894   0.27076
 Alpha virt. eigenvalues --    0.27223   0.27454   0.27504   0.27689   0.27953
 Alpha virt. eigenvalues --    0.28017   0.28304   0.28499   0.28631   0.28700
 Alpha virt. eigenvalues --    0.29111   0.29251   0.29497   0.30227   0.30272
 Alpha virt. eigenvalues --    0.30369   0.30647   0.30896   0.31152   0.31277
 Alpha virt. eigenvalues --    0.31404   0.31662   0.31858   0.31996   0.32459
 Alpha virt. eigenvalues --    0.32720   0.33143   0.33254   0.33767   0.33959
 Alpha virt. eigenvalues --    0.34016   0.34370   0.34488   0.34638   0.34799
 Alpha virt. eigenvalues --    0.35104   0.35349   0.35637   0.35829   0.36031
 Alpha virt. eigenvalues --    0.36143   0.36194   0.36273   0.36627   0.36769
 Alpha virt. eigenvalues --    0.37048   0.37198   0.37260   0.37701   0.38021
 Alpha virt. eigenvalues --    0.38253   0.38482   0.38686   0.38749   0.39013
 Alpha virt. eigenvalues --    0.39099   0.39199   0.39362   0.39732   0.39909
 Alpha virt. eigenvalues --    0.40016   0.40192   0.40394   0.40826   0.40980
 Alpha virt. eigenvalues --    0.41138   0.41370   0.41569   0.41764   0.41831
 Alpha virt. eigenvalues --    0.42203   0.42314   0.42745   0.43121   0.43325
 Alpha virt. eigenvalues --    0.43404   0.43613   0.43666   0.43914   0.44315
 Alpha virt. eigenvalues --    0.44419   0.44768   0.44968   0.45082   0.45256
 Alpha virt. eigenvalues --    0.45379   0.45536   0.45622   0.45673   0.46102
 Alpha virt. eigenvalues --    0.46141   0.46248   0.46475   0.47088   0.47181
 Alpha virt. eigenvalues --    0.47680   0.47840   0.48327   0.48559   0.48659
 Alpha virt. eigenvalues --    0.49063   0.49406   0.49745   0.49954   0.50024
 Alpha virt. eigenvalues --    0.50196   0.50265   0.50412   0.50757   0.51074
 Alpha virt. eigenvalues --    0.51241   0.51301   0.51537   0.51943   0.52107
 Alpha virt. eigenvalues --    0.52204   0.52541   0.52559   0.52768   0.53073
 Alpha virt. eigenvalues --    0.53183   0.53423   0.53465   0.53608   0.53845
 Alpha virt. eigenvalues --    0.54264   0.54404   0.54828   0.55177   0.55353
 Alpha virt. eigenvalues --    0.55588   0.55904   0.56220   0.56808   0.57255
 Alpha virt. eigenvalues --    0.57440   0.57804   0.57896   0.58042   0.58336
 Alpha virt. eigenvalues --    0.58953   0.59067   0.59363   0.59469   0.59875
 Alpha virt. eigenvalues --    0.60299   0.60743   0.60921   0.61000   0.61157
 Alpha virt. eigenvalues --    0.61477   0.61802   0.61891   0.62477   0.62518
 Alpha virt. eigenvalues --    0.62784   0.63342   0.63361   0.63546   0.63790
 Alpha virt. eigenvalues --    0.64123   0.64523   0.64567   0.64755   0.64899
 Alpha virt. eigenvalues --    0.65219   0.65475   0.65716   0.65793   0.65950
 Alpha virt. eigenvalues --    0.66131   0.66374   0.66474   0.66908   0.67178
 Alpha virt. eigenvalues --    0.67560   0.67605   0.67935   0.67991   0.68368
 Alpha virt. eigenvalues --    0.68790   0.68899   0.68993   0.69061   0.69266
 Alpha virt. eigenvalues --    0.69463   0.69760   0.69812   0.70042   0.70256
 Alpha virt. eigenvalues --    0.70520   0.70578   0.70949   0.71205   0.71314
 Alpha virt. eigenvalues --    0.71469   0.71661   0.72102   0.72701   0.72755
 Alpha virt. eigenvalues --    0.72993   0.73147   0.73392   0.73612   0.73898
 Alpha virt. eigenvalues --    0.74139   0.74245   0.74623   0.74841   0.75254
 Alpha virt. eigenvalues --    0.75681   0.75877   0.76110   0.76328   0.76600
 Alpha virt. eigenvalues --    0.77254   0.77522   0.77905   0.78075   0.78138
 Alpha virt. eigenvalues --    0.78378   0.78694   0.78882   0.79265   0.79377
 Alpha virt. eigenvalues --    0.79643   0.79988   0.80396   0.80633   0.80887
 Alpha virt. eigenvalues --    0.81170   0.81308   0.81696   0.82097   0.82268
 Alpha virt. eigenvalues --    0.82496   0.82782   0.82907   0.83413   0.83532
 Alpha virt. eigenvalues --    0.83707   0.83815   0.84346   0.84542   0.84726
 Alpha virt. eigenvalues --    0.84954   0.85058   0.85432   0.86271   0.86760
 Alpha virt. eigenvalues --    0.86881   0.87237   0.87589   0.87729   0.87892
 Alpha virt. eigenvalues --    0.88209   0.88544   0.88844   0.88925   0.89630
 Alpha virt. eigenvalues --    0.89952   0.90222   0.90702   0.91044   0.91282
 Alpha virt. eigenvalues --    0.91526   0.91777   0.91893   0.92371   0.92688
 Alpha virt. eigenvalues --    0.93242   0.93468   0.93783   0.94210   0.94309
 Alpha virt. eigenvalues --    0.95164   0.95736   0.95925   0.96056   0.96203
 Alpha virt. eigenvalues --    0.96314   0.96768   0.97356   0.97571   0.97789
 Alpha virt. eigenvalues --    0.98150   0.98598   0.98876   0.99318   0.99584
 Alpha virt. eigenvalues --    0.99725   0.99854   1.00058   1.00305   1.00348
 Alpha virt. eigenvalues --    1.00680   1.01202   1.01508   1.01808   1.02034
 Alpha virt. eigenvalues --    1.02285   1.02582   1.02707   1.02994   1.03147
 Alpha virt. eigenvalues --    1.03509   1.03737   1.04001   1.04267   1.04550
 Alpha virt. eigenvalues --    1.04702   1.04779   1.04866   1.05192   1.05694
 Alpha virt. eigenvalues --    1.05882   1.06127   1.06563   1.06677   1.06830
 Alpha virt. eigenvalues --    1.07472   1.07730   1.08468   1.08660   1.09147
 Alpha virt. eigenvalues --    1.09577   1.09824   1.10278   1.10333   1.10534
 Alpha virt. eigenvalues --    1.11176   1.11362   1.11618   1.11670   1.12184
 Alpha virt. eigenvalues --    1.12444   1.12848   1.13415   1.13537   1.13680
 Alpha virt. eigenvalues --    1.13798   1.14376   1.14446   1.14662   1.14831
 Alpha virt. eigenvalues --    1.15196   1.15701   1.16029   1.16114   1.16620
 Alpha virt. eigenvalues --    1.16753   1.17116   1.17497   1.17765   1.18441
 Alpha virt. eigenvalues --    1.18784   1.19196   1.19958   1.19973   1.20452
 Alpha virt. eigenvalues --    1.21177   1.21241   1.21528   1.21810   1.21993
 Alpha virt. eigenvalues --    1.22428   1.22618   1.22904   1.23068   1.23505
 Alpha virt. eigenvalues --    1.23600   1.23803   1.23931   1.24171   1.24683
 Alpha virt. eigenvalues --    1.24843   1.25054   1.25423   1.25714   1.26001
 Alpha virt. eigenvalues --    1.26030   1.26299   1.26843   1.27056   1.27168
 Alpha virt. eigenvalues --    1.27621   1.27960   1.28101   1.28478   1.28714
 Alpha virt. eigenvalues --    1.28879   1.29139   1.29547   1.29773   1.29988
 Alpha virt. eigenvalues --    1.30429   1.30886   1.31433   1.31779   1.32060
 Alpha virt. eigenvalues --    1.32290   1.32739   1.32919   1.33288   1.33425
 Alpha virt. eigenvalues --    1.33651   1.34245   1.34898   1.35344   1.35429
 Alpha virt. eigenvalues --    1.35922   1.36080   1.36367   1.36772   1.37052
 Alpha virt. eigenvalues --    1.37295   1.37558   1.37926   1.38164   1.38231
 Alpha virt. eigenvalues --    1.38353   1.38636   1.38986   1.39077   1.39258
 Alpha virt. eigenvalues --    1.39485   1.39715   1.40217   1.41077   1.41261
 Alpha virt. eigenvalues --    1.41973   1.42230   1.42931   1.43297   1.43928
 Alpha virt. eigenvalues --    1.44099   1.44435   1.44467   1.44647   1.44855
 Alpha virt. eigenvalues --    1.44910   1.45171   1.45347   1.45628   1.45836
 Alpha virt. eigenvalues --    1.45907   1.46140   1.46603   1.47161   1.47455
 Alpha virt. eigenvalues --    1.47715   1.47797   1.48099   1.48729   1.49257
 Alpha virt. eigenvalues --    1.49424   1.49464   1.49876   1.50039   1.50115
 Alpha virt. eigenvalues --    1.50269   1.50941   1.51034   1.51251   1.51754
 Alpha virt. eigenvalues --    1.51976   1.52322   1.52454   1.53000   1.53034
 Alpha virt. eigenvalues --    1.53712   1.54105   1.54162   1.54565   1.54802
 Alpha virt. eigenvalues --    1.54923   1.55315   1.55786   1.55916   1.56325
 Alpha virt. eigenvalues --    1.56430   1.56539   1.56766   1.56858   1.57051
 Alpha virt. eigenvalues --    1.57416   1.57732   1.58021   1.58148   1.58496
 Alpha virt. eigenvalues --    1.58557   1.58769   1.58782   1.59128   1.59412
 Alpha virt. eigenvalues --    1.59619   1.59825   1.59995   1.60573   1.60881
 Alpha virt. eigenvalues --    1.61151   1.61660   1.61817   1.61870   1.62245
 Alpha virt. eigenvalues --    1.62689   1.63252   1.63411   1.63998   1.64223
 Alpha virt. eigenvalues --    1.64729   1.65215   1.65392   1.66206   1.66837
 Alpha virt. eigenvalues --    1.67031   1.67125   1.67292   1.67513   1.67656
 Alpha virt. eigenvalues --    1.68227   1.68441   1.69029   1.69199   1.69749
 Alpha virt. eigenvalues --    1.70230   1.70516   1.70930   1.71321   1.71595
 Alpha virt. eigenvalues --    1.72122   1.72574   1.72966   1.73314   1.73543
 Alpha virt. eigenvalues --    1.74087   1.75262   1.75471   1.75545   1.75731
 Alpha virt. eigenvalues --    1.75889   1.76691   1.76942   1.77057   1.77221
 Alpha virt. eigenvalues --    1.77786   1.78340   1.79033   1.79668   1.80020
 Alpha virt. eigenvalues --    1.80564   1.80962   1.81146   1.81768   1.82101
 Alpha virt. eigenvalues --    1.82267   1.82523   1.82824   1.83353   1.84105
 Alpha virt. eigenvalues --    1.84672   1.85928   1.86249   1.86753   1.87182
 Alpha virt. eigenvalues --    1.87581   1.87830   1.88049   1.88248   1.88524
 Alpha virt. eigenvalues --    1.88610   1.88864   1.89184   1.89549   1.89628
 Alpha virt. eigenvalues --    1.90853   1.91332   1.91605   1.92086   1.92319
 Alpha virt. eigenvalues --    1.92415   1.93069   1.93286   1.93614   1.93922
 Alpha virt. eigenvalues --    1.94868   1.94989   1.95324   1.95718   1.96106
 Alpha virt. eigenvalues --    1.96410   1.96697   1.97147   1.97321   1.97822
 Alpha virt. eigenvalues --    1.98469   1.98997   1.99230   1.99904   2.00085
 Alpha virt. eigenvalues --    2.00303   2.01119   2.02028   2.02299   2.02931
 Alpha virt. eigenvalues --    2.03165   2.04491   2.04798   2.05233   2.05562
 Alpha virt. eigenvalues --    2.05758   2.06035   2.06473   2.06542   2.07152
 Alpha virt. eigenvalues --    2.07645   2.07996   2.08093   2.08118   2.08502
 Alpha virt. eigenvalues --    2.08761   2.08985   2.09618   2.10008   2.10572
 Alpha virt. eigenvalues --    2.11334   2.11624   2.12118   2.12878   2.13204
 Alpha virt. eigenvalues --    2.14162   2.15649   2.15849   2.15999   2.16756
 Alpha virt. eigenvalues --    2.16878   2.17267   2.18063   2.18975   2.19323
 Alpha virt. eigenvalues --    2.20668   2.20803   2.21584   2.22393   2.22647
 Alpha virt. eigenvalues --    2.23122   2.23889   2.23947   2.24638   2.25339
 Alpha virt. eigenvalues --    2.25786   2.26512   2.27672   2.28037   2.28309
 Alpha virt. eigenvalues --    2.28405   2.28529   2.29474   2.30684   2.31377
 Alpha virt. eigenvalues --    2.31775   2.31818   2.32060   2.33056   2.33505
 Alpha virt. eigenvalues --    2.34055   2.34200   2.34609   2.35594   2.35839
 Alpha virt. eigenvalues --    2.35892   2.36240   2.36478   2.37395   2.37546
 Alpha virt. eigenvalues --    2.38252   2.38402   2.38551   2.38881   2.39070
 Alpha virt. eigenvalues --    2.39350   2.39823   2.39976   2.41245   2.41559
 Alpha virt. eigenvalues --    2.41644   2.42471   2.43176   2.43332   2.43748
 Alpha virt. eigenvalues --    2.43881   2.44273   2.44919   2.46100   2.46206
 Alpha virt. eigenvalues --    2.47690   2.48176   2.48418   2.48793   2.49478
 Alpha virt. eigenvalues --    2.50059   2.50074   2.50865   2.51252   2.52341
 Alpha virt. eigenvalues --    2.52868   2.53882   2.54512   2.54695   2.55298
 Alpha virt. eigenvalues --    2.56475   2.56690   2.57349   2.57721   2.58047
 Alpha virt. eigenvalues --    2.58955   2.59352   2.59826   2.60143   2.60288
 Alpha virt. eigenvalues --    2.61033   2.61489   2.62683   2.62737   2.62803
 Alpha virt. eigenvalues --    2.63024   2.64039   2.64233   2.65012   2.65285
 Alpha virt. eigenvalues --    2.65752   2.65983   2.66181   2.66350   2.66889
 Alpha virt. eigenvalues --    2.67211   2.67703   2.67795   2.68000   2.68083
 Alpha virt. eigenvalues --    2.68616   2.69210   2.69704   2.70151   2.70552
 Alpha virt. eigenvalues --    2.70688   2.71035   2.71774   2.72367   2.73063
 Alpha virt. eigenvalues --    2.73231   2.73529   2.73924   2.73974   2.74100
 Alpha virt. eigenvalues --    2.74471   2.74864   2.74895   2.75326   2.75770
 Alpha virt. eigenvalues --    2.75846   2.75943   2.76434   2.76570   2.76870
 Alpha virt. eigenvalues --    2.77119   2.77244   2.77421   2.77568   2.78070
 Alpha virt. eigenvalues --    2.78273   2.78400   2.79402   2.79591   2.79688
 Alpha virt. eigenvalues --    2.80204   2.80337   2.80833   2.81247   2.81659
 Alpha virt. eigenvalues --    2.81886   2.82290   2.82764   2.83133   2.83431
 Alpha virt. eigenvalues --    2.83722   2.84188   2.84658   2.84785   2.84878
 Alpha virt. eigenvalues --    2.85359   2.85490   2.86031   2.86259   2.86721
 Alpha virt. eigenvalues --    2.86838   2.86904   2.87188   2.87205   2.87602
 Alpha virt. eigenvalues --    2.87773   2.88171   2.88255   2.88687   2.88837
 Alpha virt. eigenvalues --    2.90228   2.90324   2.90646   2.90811   2.91180
 Alpha virt. eigenvalues --    2.91248   2.91649   2.91734   2.91928   2.92067
 Alpha virt. eigenvalues --    2.92175   2.92615   2.92705   2.92812   2.92978
 Alpha virt. eigenvalues --    2.93188   2.93405   2.93555   2.93908   2.93967
 Alpha virt. eigenvalues --    2.94539   2.94935   2.95366   2.95466   2.95724
 Alpha virt. eigenvalues --    2.96176   2.96372   2.97222   2.97403   2.97623
 Alpha virt. eigenvalues --    2.98102   2.98701   2.98797   2.99213   2.99373
 Alpha virt. eigenvalues --    2.99863   3.00029   3.00215   3.00343   3.00485
 Alpha virt. eigenvalues --    3.00927   3.01083   3.01432   3.01600   3.01772
 Alpha virt. eigenvalues --    3.01849   3.02094   3.02193   3.02343   3.02551
 Alpha virt. eigenvalues --    3.02827   3.03071   3.03489   3.03756   3.03837
 Alpha virt. eigenvalues --    3.04128   3.04214   3.04468   3.04682   3.05063
 Alpha virt. eigenvalues --    3.05177   3.05494   3.05991   3.06098   3.06202
 Alpha virt. eigenvalues --    3.06265   3.06712   3.06849   3.07075   3.07188
 Alpha virt. eigenvalues --    3.07386   3.07469   3.07860   3.08019   3.08519
 Alpha virt. eigenvalues --    3.09185   3.09290   3.09439   3.09528   3.09820
 Alpha virt. eigenvalues --    3.10023   3.10408   3.10490   3.10607   3.10940
 Alpha virt. eigenvalues --    3.11594   3.11838   3.12185   3.12399   3.12715
 Alpha virt. eigenvalues --    3.13041   3.13398   3.13634   3.13767   3.13935
 Alpha virt. eigenvalues --    3.14126   3.14436   3.14539   3.14891   3.14948
 Alpha virt. eigenvalues --    3.15218   3.15283   3.15792   3.16021   3.16232
 Alpha virt. eigenvalues --    3.16567   3.16654   3.16933   3.17276   3.17604
 Alpha virt. eigenvalues --    3.17691   3.17907   3.18187   3.18294   3.18591
 Alpha virt. eigenvalues --    3.18940   3.19275   3.19613   3.19882   3.20548
 Alpha virt. eigenvalues --    3.20747   3.20937   3.21252   3.21375   3.21466
 Alpha virt. eigenvalues --    3.21672   3.21996   3.22311   3.22537   3.22806
 Alpha virt. eigenvalues --    3.22995   3.23420   3.23799   3.24145   3.24243
 Alpha virt. eigenvalues --    3.24533   3.24634   3.24733   3.24971   3.25136
 Alpha virt. eigenvalues --    3.25588   3.26141   3.26464   3.26580   3.27111
 Alpha virt. eigenvalues --    3.27375   3.27500   3.28313   3.28506   3.28913
 Alpha virt. eigenvalues --    3.29473   3.29797   3.30117   3.30463   3.30633
 Alpha virt. eigenvalues --    3.30923   3.31502   3.32015   3.32170   3.32397
 Alpha virt. eigenvalues --    3.32559   3.32851   3.33029   3.33357   3.33627
 Alpha virt. eigenvalues --    3.33944   3.34013   3.34147   3.34307   3.34692
 Alpha virt. eigenvalues --    3.34890   3.35082   3.35575   3.35626   3.36025
 Alpha virt. eigenvalues --    3.36097   3.36422   3.36590   3.36957   3.37308
 Alpha virt. eigenvalues --    3.37703   3.37790   3.37937   3.38413   3.38553
 Alpha virt. eigenvalues --    3.39009   3.39392   3.39565   3.39688   3.39885
 Alpha virt. eigenvalues --    3.40499   3.40779   3.41239   3.41569   3.41835
 Alpha virt. eigenvalues --    3.42096   3.42193   3.42601   3.42686   3.42875
 Alpha virt. eigenvalues --    3.43381   3.43925   3.44486   3.44943   3.45609
 Alpha virt. eigenvalues --    3.46026   3.46363   3.46869   3.47109   3.47281
 Alpha virt. eigenvalues --    3.47758   3.48115   3.48507   3.48635   3.49161
 Alpha virt. eigenvalues --    3.49418   3.49685   3.49941   3.49978   3.50097
 Alpha virt. eigenvalues --    3.50257   3.50323   3.50822   3.51437   3.51581
 Alpha virt. eigenvalues --    3.51808   3.52260   3.52309   3.52527   3.52727
 Alpha virt. eigenvalues --    3.52892   3.53022   3.53104   3.53214   3.53795
 Alpha virt. eigenvalues --    3.53895   3.54245   3.54460   3.54588   3.54974
 Alpha virt. eigenvalues --    3.55162   3.55765   3.56495   3.57097   3.57121
 Alpha virt. eigenvalues --    3.57692   3.57932   3.58040   3.58238   3.59098
 Alpha virt. eigenvalues --    3.59422   3.59524   3.60147   3.60572   3.60776
 Alpha virt. eigenvalues --    3.61070   3.61626   3.62045   3.62633   3.63549
 Alpha virt. eigenvalues --    3.63676   3.63823   3.64003   3.64159   3.64529
 Alpha virt. eigenvalues --    3.64817   3.65304   3.65940   3.65991   3.66407
 Alpha virt. eigenvalues --    3.66648   3.66981   3.67052   3.67227   3.68114
 Alpha virt. eigenvalues --    3.68196   3.68756   3.69023   3.69387   3.70251
 Alpha virt. eigenvalues --    3.70417   3.70598   3.70640   3.70824   3.71134
 Alpha virt. eigenvalues --    3.71415   3.72002   3.72242   3.72424   3.72752
 Alpha virt. eigenvalues --    3.72963   3.73398   3.73587   3.73918   3.74292
 Alpha virt. eigenvalues --    3.74393   3.75138   3.75506   3.75579   3.75694
 Alpha virt. eigenvalues --    3.76467   3.76619   3.77321   3.78350   3.78763
 Alpha virt. eigenvalues --    3.79258   3.79441   3.80009   3.80236   3.80306
 Alpha virt. eigenvalues --    3.80591   3.80842   3.81909   3.82459   3.82839
 Alpha virt. eigenvalues --    3.83304   3.83702   3.83773   3.83884   3.84143
 Alpha virt. eigenvalues --    3.84308   3.84548   3.84856   3.85277   3.85470
 Alpha virt. eigenvalues --    3.85595   3.85949   3.86287   3.86560   3.86689
 Alpha virt. eigenvalues --    3.87010   3.87358   3.87501   3.87816   3.87901
 Alpha virt. eigenvalues --    3.88183   3.88635   3.88838   3.89113   3.89449
 Alpha virt. eigenvalues --    3.89589   3.89906   3.90290   3.90393   3.90817
 Alpha virt. eigenvalues --    3.91538   3.92063   3.92338   3.92563   3.93185
 Alpha virt. eigenvalues --    3.93517   3.93761   3.93883   3.94697   3.94924
 Alpha virt. eigenvalues --    3.95084   3.95292   3.95913   3.95950   3.96402
 Alpha virt. eigenvalues --    3.96850   3.97560   3.97904   3.98034   3.98258
 Alpha virt. eigenvalues --    3.98320   3.98933   3.99091   3.99357   3.99450
 Alpha virt. eigenvalues --    3.99827   4.00238   4.00475   4.00531   4.00720
 Alpha virt. eigenvalues --    4.01040   4.01400   4.01465   4.02060   4.02448
 Alpha virt. eigenvalues --    4.02798   4.03240   4.03827   4.04283   4.05182
 Alpha virt. eigenvalues --    4.05313   4.05538   4.05862   4.06425   4.06446
 Alpha virt. eigenvalues --    4.06949   4.07386   4.07784   4.08009   4.08291
 Alpha virt. eigenvalues --    4.08863   4.08981   4.09571   4.09920   4.10104
 Alpha virt. eigenvalues --    4.10339   4.10413   4.10569   4.10952   4.11230
 Alpha virt. eigenvalues --    4.11475   4.11883   4.12321   4.12570   4.12600
 Alpha virt. eigenvalues --    4.12861   4.13275   4.13926   4.14208   4.14378
 Alpha virt. eigenvalues --    4.14627   4.15055   4.15152   4.15328   4.16414
 Alpha virt. eigenvalues --    4.16544   4.16799   4.17108   4.17537   4.17629
 Alpha virt. eigenvalues --    4.17973   4.18175   4.18435   4.18554   4.18848
 Alpha virt. eigenvalues --    4.19719   4.20172   4.20354   4.20604   4.21329
 Alpha virt. eigenvalues --    4.21715   4.21960   4.22535   4.22849   4.23001
 Alpha virt. eigenvalues --    4.23523   4.23877   4.24171   4.24547   4.24957
 Alpha virt. eigenvalues --    4.25341   4.25589   4.25925   4.26205   4.26448
 Alpha virt. eigenvalues --    4.26663   4.27857   4.28022   4.28258   4.28668
 Alpha virt. eigenvalues --    4.28747   4.29303   4.30000   4.30314   4.30602
 Alpha virt. eigenvalues --    4.30846   4.31067   4.31430   4.31728   4.31822
 Alpha virt. eigenvalues --    4.32313   4.32613   4.32642   4.33184   4.33346
 Alpha virt. eigenvalues --    4.33730   4.34386   4.35053   4.35208   4.35604
 Alpha virt. eigenvalues --    4.37475   4.37757   4.37991   4.38338   4.38480
 Alpha virt. eigenvalues --    4.38679   4.40572   4.41313   4.41903   4.41979
 Alpha virt. eigenvalues --    4.42133   4.42423   4.42954   4.43490   4.43550
 Alpha virt. eigenvalues --    4.43984   4.44970   4.45774   4.46019   4.47778
 Alpha virt. eigenvalues --    4.48079   4.48806   4.48860   4.48923   4.49077
 Alpha virt. eigenvalues --    4.50018   4.50453   4.50622   4.51072   4.51285
 Alpha virt. eigenvalues --    4.51475   4.53443   4.53521   4.53622   4.54108
 Alpha virt. eigenvalues --    4.55746   4.56779   4.57192   4.57313   4.58016
 Alpha virt. eigenvalues --    4.58635   4.58949   4.59062   4.59339   4.59559
 Alpha virt. eigenvalues --    4.59698   4.60168   4.60564   4.61946   4.62703
 Alpha virt. eigenvalues --    4.62860   4.63170   4.63778   4.64204   4.64240
 Alpha virt. eigenvalues --    4.65450   4.65566   4.65887   4.67305   4.67523
 Alpha virt. eigenvalues --    4.67661   4.68554   4.68622   4.69294   4.69359
 Alpha virt. eigenvalues --    4.69446   4.69642   4.69999   4.70949   4.71647
 Alpha virt. eigenvalues --    4.72036   4.72177   4.73248   4.73702   4.74117
 Alpha virt. eigenvalues --    4.74601   4.75732   4.76215   4.76348   4.77099
 Alpha virt. eigenvalues --    4.77310   4.78089   4.78116   4.78684   4.79033
 Alpha virt. eigenvalues --    4.80388   4.80738   4.81550   4.83245   4.83267
 Alpha virt. eigenvalues --    4.83888   4.84440   4.85310   4.85692   4.86913
 Alpha virt. eigenvalues --    4.87091   4.87577   4.87769   4.88123   4.89596
 Alpha virt. eigenvalues --    4.90625   4.90875   4.91118   4.91381   4.92310
 Alpha virt. eigenvalues --    4.92383   4.93130   4.93509   4.93935   4.94165
 Alpha virt. eigenvalues --    4.94317   4.94654   4.95431   4.96179   4.96816
 Alpha virt. eigenvalues --    4.96905   4.97231   4.97431   4.97920   4.98593
 Alpha virt. eigenvalues --    5.00065   5.00503   5.00656   5.01128   5.01150
 Alpha virt. eigenvalues --    5.01711   5.02122   5.03829   5.04174   5.04863
 Alpha virt. eigenvalues --    5.04962   5.05457   5.05868   5.06099   5.07755
 Alpha virt. eigenvalues --    5.08187   5.08343   5.08940   5.09505   5.09598
 Alpha virt. eigenvalues --    5.10132   5.10389   5.10769   5.11050   5.11719
 Alpha virt. eigenvalues --    5.11910   5.12245   5.12548   5.12557   5.12668
 Alpha virt. eigenvalues --    5.13841   5.15097   5.15682   5.16586   5.16839
 Alpha virt. eigenvalues --    5.16897   5.17189   5.19925   5.20256   5.20929
 Alpha virt. eigenvalues --    5.21171   5.21728   5.22692   5.23088   5.23117
 Alpha virt. eigenvalues --    5.24059   5.24557   5.24918   5.24967   5.25977
 Alpha virt. eigenvalues --    5.27397   5.27895   5.27946   5.28185   5.28415
 Alpha virt. eigenvalues --    5.28967   5.29125   5.29280   5.29459   5.30438
 Alpha virt. eigenvalues --    5.31553   5.31963   5.32163   5.33125   5.33356
 Alpha virt. eigenvalues --    5.34169   5.34328   5.36198   5.36456   5.37591
 Alpha virt. eigenvalues --    5.38558   5.38740   5.38903   5.39182   5.39948
 Alpha virt. eigenvalues --    5.40106   5.41743   5.42040   5.43759   5.44269
 Alpha virt. eigenvalues --    5.44652   5.47569   5.47613   5.48635   5.48950
 Alpha virt. eigenvalues --    5.49190   5.49835   5.51422   5.52195   5.52568
 Alpha virt. eigenvalues --    5.53116   5.55541   5.56933   5.58171   5.58401
 Alpha virt. eigenvalues --    5.59283   5.59293   5.59606   5.59840   5.60020
 Alpha virt. eigenvalues --    5.61539   5.62312   5.62316   5.62638   5.63590
 Alpha virt. eigenvalues --    5.64403   5.64968   5.65882   5.66157   5.66325
 Alpha virt. eigenvalues --    5.66549   5.66871   5.67179   5.68297   5.70313
 Alpha virt. eigenvalues --    5.74181   5.74571   5.75670   5.76249   5.77312
 Alpha virt. eigenvalues --    5.77739   5.77824   5.79410   5.80899   5.81517
 Alpha virt. eigenvalues --    5.84699   5.85427   5.86126   5.91545   5.92958
 Alpha virt. eigenvalues --    5.95143   5.95774   5.96501   6.02114   6.02202
 Alpha virt. eigenvalues --    6.03469   6.08323   6.09333   6.09597   6.13566
 Alpha virt. eigenvalues --    6.16173   6.17794   6.18889   6.18902   6.35217
 Alpha virt. eigenvalues --    6.37664   6.38069   6.58697   6.58944   6.59591
 Alpha virt. eigenvalues --    6.94063   6.94366   6.97061   6.98633   6.98880
 Alpha virt. eigenvalues --    6.99814   7.04713   7.10468   7.16705   7.23015
 Alpha virt. eigenvalues --    7.23527   7.27371   7.33905   7.34341   8.46042
 Alpha virt. eigenvalues --    8.46837   8.55651   8.57604   8.82579   8.85571
 Alpha virt. eigenvalues --    8.90972   8.91349   8.92178   8.99397  15.85555
 Alpha virt. eigenvalues --   22.82468  22.84383  22.96005  22.96210  22.96724
 Alpha virt. eigenvalues --   23.02729  23.12300  23.13241  23.14939  23.17296
 Alpha virt. eigenvalues --   23.17583  23.19244  23.24163  23.24293  23.27299
 Alpha virt. eigenvalues --   23.28630  23.28721  23.28933  23.32041  23.33249
 Alpha virt. eigenvalues --   23.33412  23.35013  23.35757  23.36865  23.38579
 Alpha virt. eigenvalues --   23.45283  23.46690  23.53727  23.54229  23.59491
 Alpha virt. eigenvalues --   23.64976  23.65841  23.69477  23.73677  23.78838
 Alpha virt. eigenvalues --   23.87494  23.93017  24.18547  24.18850  24.24777
 Alpha virt. eigenvalues --   32.19803  32.19816  32.61458  33.13298  33.29260
 Alpha virt. eigenvalues --   57.35253  57.54070
          Condensed to atoms (all electrons):
 Mulliken charges:
               1
     1  C   -0.433940
     2  C   -0.024295
     3  C   -0.084899
     4  C    0.017515
     5  C   -0.111471
     6  C   -0.060753
     7  C    0.027927
     8  C   -0.122696
     9  C   -0.132881
    10  C    0.107156
    11  C   -0.185888
    12  N   -0.081539
    13  C   -0.130667
    14  C   -0.151051
    15  N   -0.103182
    16  C    0.104744
    17  C    0.155634
    18  C   -0.248862
    19  C   -0.173353
    20  C   -0.076449
    21  C    0.013895
    22  C    0.068875
    23  C   -0.153905
    24  C   -0.035045
    25  N   -0.302697
    26  C   -0.035064
    27  C   -0.153975
    28  C   -0.067176
    29  C   -0.204205
    30  C    0.102114
    31  C   -0.023773
    32  C   -0.434321
    33  C   -0.083640
    34  C    0.016288
    35  C   -0.111760
    36  C   -0.060769
    37  C    0.027834
    38  C   -0.151125
    39  C   -0.130592
    40  C    0.107143
    41  C   -0.185861
    42  N   -0.081534
    43  C   -0.132906
    44  C   -0.122604
    45  N   -0.101927
    46  B    0.341092
    47  F   -0.364575
    48  F   -0.330768
    49  H    0.159451
    50  H    0.164224
    51  H    0.132715
    52  H    0.168386
    53  H    0.144292
    54  H    0.118979
    55  H    0.149903
    56  H    0.170048
    57  H    0.168231
    58  H    0.156031
    59  H    0.168687
    60  H    0.158033
    61  H    0.146791
    62  H    0.140996
    63  H    0.140989
    64  H    0.146777
    65  H    0.158518
    66  H    0.174892
    67  H    0.160749
    68  H    0.132681
    69  H    0.162924
    70  H    0.168236
    71  H    0.144215
    72  H    0.118899
    73  H    0.156108
    74  H    0.168235
    75  H    0.170045
    76  H    0.149899
 Sum of Mulliken charges =  -0.00000
 Mulliken charges with hydrogens summed into heavy atoms:
               1
     1  C    0.022451
     2  C   -0.024295
     3  C    0.083486
     4  C    0.017515
     5  C    0.032821
     6  C    0.058226
     7  C    0.027927
     8  C    0.027207
     9  C    0.037167
    10  C    0.107156
    11  C   -0.185888
    12  N   -0.081539
    13  C    0.037564
    14  C    0.004980
    15  N   -0.103182
    16  C    0.104744
    17  C    0.155634
    18  C   -0.248862
    19  C   -0.004666
    20  C    0.081584
    21  C    0.013895
    22  C    0.068875
    23  C   -0.007114
    24  C    0.105951
    25  N   -0.302697
    26  C    0.105924
    27  C   -0.007199
    28  C    0.091341
    29  C   -0.029312
    30  C    0.102114
    31  C   -0.023773
    32  C    0.022033
    33  C    0.084596
    34  C    0.016288
    35  C    0.032455
    36  C    0.058130
    37  C    0.027834
    38  C    0.004983
    39  C    0.037643
    40  C    0.107143
    41  C   -0.185861
    42  N   -0.081534
    43  C    0.037139
    44  C    0.027295
    45  N   -0.101927
    46  B    0.341092
    47  F   -0.364575
    48  F   -0.330768
 Electronic spatial extent (au):  <R**2>=          48181.2281
 Charge=              0.0000 electrons
 Dipole moment (field-independent basis, Debye):
    X=            -14.8541    Y=             -0.0074    Z=             -1.1146  Tot=             14.8958
 Quadrupole moment (field-independent basis, Debye-Ang):
   XX=           -447.9808   YY=           -276.0593   ZZ=           -277.4718
   XY=             -0.0520   XZ=             -0.0224   YZ=             -4.3010
 Traceless Quadrupole moment (field-independent basis, Debye-Ang):
   XX=           -114.1435   YY=             57.7780   ZZ=             56.3655
   XY=             -0.0520   XZ=             -0.0224   YZ=             -4.3010
 Octapole moment (field-independent basis, Debye-Ang**2):
  XXX=           -861.3884  YYY=             -1.7943  ZZZ=              0.0296  XYY=           -666.5891
  XXY=             -0.0325  XXZ=              3.2269  XZZ=           -116.8263  YZZ=              0.2381
  YYZ=             19.5627  XYZ=             37.1087
 Hexadecapole moment (field-independent basis, Debye-Ang**3):
 XXXX=         -71217.6184 YYYY=         -21777.8603 ZZZZ=           -807.8455 XXXY=              0.6790
 XXXZ=             89.3447 YYYX=            -13.6048 YYYZ=             -4.9999 ZZZX=              1.0225
 ZZZY=            -21.9627 XXYY=         -18844.7156 XXZZ=          -7350.7992 YYZZ=          -3997.9377
 XXYZ=           -448.8738 YYXZ=            116.5689 ZZXY=              1.8326
 N-N= 5.080260568578D+03 E-N=-1.490334397930D+04  KE= 2.028406419015D+03
 No NMR shielding tensors so no spin-rotation constants.
 Leave Link  601 at Fri Nov  7 08:53:43 2025, MaxMem= 30870077440 cpu:             115.5 elap:               2.2
 (Enter /public/software/gauss/g16/l9999.exe)
 1\1\GINC-CU015\SP\RM062X\def2TZVPP\C40H28B1F2N5\BAIDING\07-Nov-2025\0\
 \#p M062X/DEF2TZVPP scrf=(solvent=water) em=GD3\\Energy calculation fo
 r M100035265\\0,1\C,0,-3.262127,3.107061,0.11378\C,0,-1.858866,2.58389
 2,0.077603\C,0,-0.727764,3.381146,0.099604\C,0,0.417136,2.546547,0.063
 04\C,0,1.809079,2.920574,0.076364\C,0,2.239996,4.2039,0.001426\C,0,3.6
 29162,4.647773,0.022545\C,0,3.890528,6.033114,-0.03579\C,0,5.187729,6.
 525252,-0.01735\C,0,6.267434,5.628512,0.0591\C,0,7.607448,6.122268,0.0
 77958\N,0,8.702484,6.525181,0.093429\C,0,6.028231,4.241445,0.11585\C,0
 ,4.728152,3.763187,0.097572\N,0,0.004468,1.24671,0.026187\C,0,-1.39105
 1,1.223834,0.029917\C,0,-2.086359,0.001635,0.017541\C,0,-3.580278,0.00
 1669,0.015645\C,0,-4.287694,-0.015625,-1.193436\C,0,-5.680728,-0.01383
 7,-1.196873\C,0,-6.405731,0.000812,0.006805\C,0,-7.889666,0.000313,0.0
 02118\C,0,-8.624341,0.632445,-1.01344\C,0,-10.014697,0.602657,-0.97246
 9\N,0,-10.728218,-0.000723,-0.006999\C,0,-10.02047,-0.603582,0.963037\
 C,0,-8.630383,-0.632337,1.012959\C,0,-5.688183,0.01588,1.214951\C,0,-4
 .295314,0.018434,1.220152\C,0,-1.391659,-1.220984,0.020541\C,0,-1.8602
 59,-2.580862,0.06591\C,0,-3.26373,-3.102929,0.109218\C,0,-0.729655,-3.
 378969,0.08035\C,0,0.415703,-2.545016,0.042723\C,0,1.80734,-2.920445,0
 .049715\C,0,2.236619,-4.203481,-0.038363\C,0,3.625312,-4.649185,-0.025
 113\C,0,4.725386,-3.767279,0.064214\C,0,6.02491,-4.247305,0.073584\C,0
 ,6.262452,-5.633499,-0.006752\C,0,7.601883,-6.12913,0.003064\N,0,8.696
 43,-6.533581,0.011209\C,0,5.181644,-6.527572,-0.097498\C,0,3.885016,-6
 .033664,-0.10664\N,0,0.003802,-1.244807,0.012576\B,0,0.897303,0.00195,
 -0.219237\F,0,1.976527,-0.003331,0.67972\F,0,1.390246,0.00931,-1.53019
 9\H,0,-3.844961,2.775029,-0.7504\H,0,-3.799438,2.775611,1.007466\H,0,-
 3.244237,4.199919,0.113999\H,0,-0.715678,4.460821,0.15464\H,0,2.522583
 ,2.109842,0.164544\H,0,1.506811,5.002705,-0.083406\H,0,3.057143,6.7264
 9,-0.095024\H,0,5.373603,7.592778,-0.061646\H,0,6.864764,3.553527,0.17
 2936\H,0,4.56527,2.69198,0.139332\H,0,-3.746209,-0.036275,-2.133959\H,
 0,-6.207085,-0.046839,-2.145236\H,0,-8.125263,1.161114,-1.818299\H,0,-
 10.584865,1.09589,-1.756167\H,0,-10.595314,-1.097249,1.743037\H,0,-8.1
 36086,-1.160718,1.820957\H,0,-6.220441,0.048498,2.160021\H,0,-3.759682
 ,0.039239,2.164006\H,0,-3.843248,-2.791216,-0.764808\H,0,-3.246136,-4.
 195496,0.134291\H,0,-3.804338,-2.750402,0.992707\H,0,-0.717995,-4.4587
 99,0.132389\H,0,2.521906,-2.111256,0.143165\H,0,1.502337,-5.000521,-0.
 130013\H,0,4.563847,-2.696758,0.124699\H,0,6.862273,-3.561438,0.141955
 \H,0,5.36622,-7.594423,-0.159931\H,0,3.050757,-6.724945,-0.176947\\Ver
 sion=ES64L-G16RevA.03\State=1-A\HF=-2039.5717759\RMSD=8.351e-09\Dipole
 =-5.8440495,0.0029266,0.4385004\Quadrupole=-84.8628642,42.9565268,41.9
 063374,0.0386573,0.0166339,-3.19768\PG=C01 [X(C40H28B1F2N5)]\\@


 THE SCIENTIFIC THEORIST IS NOT TO BE ENVIED. FOR NATURE, OR MORE
 PRECISELY EXPERIMENT, IS AN INEXORABLE AND NOT VERY FRIENDLY JUDGE OF HIS
 WORK.  IT NEVER SAYS "YES" TO A THEORY. IN THE MOST FAVORABLE CASES
 IT SAYS "MAYBE", AND IN THE GREAT MAJORITY OF CASES SIMPLY "NO"...
 PROBABLY EVERY THEORY WILL SOME DAY EXPERIENCE ITS "NO" - MOST
 THEORIES, SOON AFTER CONCEPTION.  -- A.EINSTEIN, NOV 11, 1922.
 Job cpu time:       0 days 15 hours  5 minutes 58.2 seconds.
 Elapsed time:       0 days  0 hours 14 minutes 26.8 seconds.
 File lengths (MBytes):  RWF=   2371 Int=      0 D2E=      0 Chk=    206 Scr=      1
 Normal termination of Gaussian 16 at Fri Nov  7 08:53:44 2025.
