 Entering Gaussian System, Link 0=g16
 Input=M100023894_reduced_sp.gjf
 Output=M100023894_reduced_sp.log
 Initial command:
 /public/software/gauss/g16/l1.exe "/public/home/baiding/1101_v2_sp/tmp_M100023894_reduced_sp_1568608/Gau-4098185.inp" -scrdir="/public/home/baiding/1101_v2_sp/tmp_M100023894_reduced_sp_1568608/"
 Entering Link 1 = /public/software/gauss/g16/l1.exe PID=   4098186.
  
 Copyright (c) 1988,1990,1992,1993,1995,1998,2003,2009,2016,
            Gaussian, Inc.  All Rights Reserved.
  
 This is part of the Gaussian(R) 16 program.  It is based on
 the Gaussian(R) 09 system (copyright 2009, Gaussian, Inc.),
 the Gaussian(R) 03 system (copyright 2003, Gaussian, Inc.),
 the Gaussian(R) 98 system (copyright 1998, Gaussian, Inc.),
 the Gaussian(R) 94 system (copyright 1995, Gaussian, Inc.),
 the Gaussian 92(TM) system (copyright 1992, Gaussian, Inc.),
 the Gaussian 90(TM) system (copyright 1990, Gaussian, Inc.),
 the Gaussian 88(TM) system (copyright 1988, Gaussian, Inc.),
 the Gaussian 86(TM) system (copyright 1986, Carnegie Mellon
 University), and the Gaussian 82(TM) system (copyright 1983,
 Carnegie Mellon University). Gaussian is a federally registered
 trademark of Gaussian, Inc.
  
 This software contains proprietary and confidential information,
 including trade secrets, belonging to Gaussian, Inc.
  
 This software is provided under written license and may be
 used, copied, transmitted, or stored only in accord with that
 written license.
  
 The following legend is applicable only to US Government
 contracts under FAR:
  
                    RESTRICTED RIGHTS LEGEND
  
 Use, reproduction and disclosure by the US Government is
 subject to restrictions as set forth in subparagraphs (a)
 and (c) of the Commercial Computer Software - Restricted
 Rights clause in FAR 52.227-19.
  
 Gaussian, Inc.
 340 Quinnipiac St., Bldg. 40, Wallingford CT 06492
  
  
 ---------------------------------------------------------------
 Warning -- This program may not be used in any manner that
 competes with the business of Gaussian, Inc. or will provide
 assistance to any competitor of Gaussian, Inc.  The licensee
 of this program is prohibited from giving any competitor of
 Gaussian, Inc. access to this program.  By using this program,
 the user acknowledges that Gaussian, Inc. is engaged in the
 business of creating and licensing software in the field of
 computational chemistry and represents and warrants to the
 licensee that it is not a competitor of Gaussian, Inc. and that
 it will not use this program in any manner prohibited above.
 ---------------------------------------------------------------
  

 Cite this work as:
 Gaussian 16, Revision A.03,
 M. J. Frisch, G. W. Trucks, H. B. Schlegel, G. E. Scuseria, 
 M. A. Robb, J. R. Cheeseman, G. Scalmani, V. Barone, 
 G. A. Petersson, H. Nakatsuji, X. Li, M. Caricato, A. V. Marenich, 
 J. Bloino, B. G. Janesko, R. Gomperts, B. Mennucci, H. P. Hratchian, 
 J. V. Ortiz, A. F. Izmaylov, J. L. Sonnenberg, D. Williams-Young, 
 F. Ding, F. Lipparini, F. Egidi, J. Goings, B. Peng, A. Petrone, 
 T. Henderson, D. Ranasinghe, V. G. Zakrzewski, J. Gao, N. Rega, 
 G. Zheng, W. Liang, M. Hada, M. Ehara, K. Toyota, R. Fukuda, 
 J. Hasegawa, M. Ishida, T. Nakajima, Y. Honda, O. Kitao, H. Nakai, 
 T. Vreven, K. Throssell, J. A. Montgomery, Jr., J. E. Peralta, 
 F. Ogliaro, M. J. Bearpark, J. J. Heyd, E. N. Brothers, K. N. Kudin, 
 V. N. Staroverov, T. A. Keith, R. Kobayashi, J. Normand, 
 K. Raghavachari, A. P. Rendell, J. C. Burant, S. S. Iyengar, 
 J. Tomasi, M. Cossi, J. M. Millam, M. Klene, C. Adamo, R. Cammi, 
 J. W. Ochterski, R. L. Martin, K. Morokuma, O. Farkas, 
 J. B. Foresman, and D. J. Fox, Gaussian, Inc., Wallingford CT, 2016.
 
 ******************************************
 Gaussian 16:  ES64L-G16RevA.03 25-Dec-2016
                 5-Nov-2025 
 ******************************************
 %nprocshared=64
 Will use up to   64 processors via shared memory.
 %mem=230GB
 %chk=M100023894_reduced_sp.chk
 ----------------------------------------------
 #p M062X/DEF2TZVPP scrf=(solvent=water) em=GD3
 ----------------------------------------------
 1/38=1,172=1/1;
 2/12=2,17=6,18=5,40=1/2;
 3/5=44,7=202,11=2,25=1,30=1,70=2201,72=1,74=-55,124=31/1,2,3;
 4//1;
 5/5=2,38=5,53=1/2;
 6/7=2,8=2,9=2,10=2,28=1/1;
 99/5=1,9=1/99;
 Leave Link    1 at Wed Nov  5 21:38:07 2025, MaxMem= 30870077440 cpu:               9.5 elap:               0.2
 (Enter /public/software/gauss/g16/l101.exe)
 -----------------------------------------
 Energy calculation for M100023894_reduced
 -----------------------------------------
 Symbolic Z-matrix:
 Charge = -1 Multiplicity = 2
 F                    -0.93443   2.29995   1.24858 
 B                    -0.40459   1.72579   0.06431 
 F                    -1.18494   2.17311  -1.01867 
 N                     1.05225   2.17917  -0.10173 
 C                     1.45902   3.48735  -0.16405 
 C                     2.84608   3.54033  -0.18176 
 C                     3.31306   2.21011  -0.12019 
 C                     2.18167   1.36914  -0.0766 
 C                     2.04504  -0.04927   0.01394 
 C                     0.73739  -0.60861   0.08493 
 C                     0.33522  -1.96448   0.0268 
 C                    -1.05672  -1.99199   0.0515 
 C                    -1.51498  -0.66518   0.12602 
 C                    -2.8967   -0.26001   0.18472 
 C                    -3.53748   0.91343   0.64577 
 C                    -4.91567   0.72766   0.52059 
 C                    -5.13268  -0.55056  -0.01497 
 N                    -3.8876   -1.1227   -0.20545 
 C                    -6.34624  -1.21768  -0.34695 
 O                    -6.41519  -2.36491  -0.82937 
 N                    -0.41095   0.18089   0.14586 
 C                     3.23686  -0.92334   0.00871 
 C                     3.38624  -1.96149   0.95204 
 C                     4.51237  -2.7837    0.94876 
 C                     5.5253   -2.5918    0.00546 
 C                     5.39651  -1.56696  -0.93564 
 C                     4.26992  -0.74527  -0.93511 
 H                     0.73581   4.29086  -0.18529 
 H                     3.44647   4.43921  -0.23256 
 H                     4.34268   1.88376  -0.10095 
 H                     0.99889  -2.81394  -0.03461 
 H                    -1.68515  -2.87302   0.04527 
 H                    -3.02521   1.77158   1.04827 
 H                    -5.69544   1.42652   0.79313 
 H                    -3.74856  -2.03671  -0.61428 
 H                    -7.26277  -0.6338   -0.14502 
 H                     2.61876  -2.10823   1.70509 
 H                     4.60301  -3.57035   1.6926 
 H                     6.40278  -3.23154   0.00413 
 H                     6.17197  -1.41149  -1.68052 
 H                     4.17427   0.03237  -1.68564 
 
 ITRead=  0  0  0  0  0  0  0  0  0  0  0  0  0  0  0  0  0  0  0  0
 ITRead=  0  0  0  0  0  0  0  0  0  0  0  0  0  0  0  0  0  0  0  0
 ITRead=  0
 MicOpt= -1 -1 -1 -1 -1 -1 -1 -1 -1 -1 -1 -1 -1 -1 -1 -1 -1 -1 -1 -1
 MicOpt= -1 -1 -1 -1 -1 -1 -1 -1 -1 -1 -1 -1 -1 -1 -1 -1 -1 -1 -1 -1
 MicOpt= -1
 NAtoms=     41 NQM=       41 NQMF=       0 NMMI=      0 NMMIF=      0
                NMic=       0 NMicF=      0.
                    Isotopes and Nuclear Properties:
 (Nuclear quadrupole moments (NQMom) in fm**2, nuclear magnetic moments (NMagM)
  in nuclear magnetons)

  Atom         1           2           3           4           5           6           7           8           9          10
 IAtWgt=          19          11          19          14          12          12          12          12          12          12
 AtmWgt=  18.9984033  11.0093053  18.9984033  14.0030740  12.0000000  12.0000000  12.0000000  12.0000000  12.0000000  12.0000000
 NucSpn=           1           3           1           2           0           0           0           0           0           0
 AtZEff=  -0.0000000  -0.0000000  -0.0000000  -0.0000000  -0.0000000  -0.0000000  -0.0000000  -0.0000000  -0.0000000  -0.0000000
 NQMom=    0.0000000   4.0590000   0.0000000   2.0440000   0.0000000   0.0000000   0.0000000   0.0000000   0.0000000   0.0000000
 NMagM=    2.6288670   2.6886370   2.6288670   0.4037610   0.0000000   0.0000000   0.0000000   0.0000000   0.0000000   0.0000000
 AtZNuc=   9.0000000   5.0000000   9.0000000   7.0000000   6.0000000   6.0000000   6.0000000   6.0000000   6.0000000   6.0000000

  Atom        11          12          13          14          15          16          17          18          19          20
 IAtWgt=          12          12          12          12          12          12          12          14          12          16
 AtmWgt=  12.0000000  12.0000000  12.0000000  12.0000000  12.0000000  12.0000000  12.0000000  14.0030740  12.0000000  15.9949146
 NucSpn=           0           0           0           0           0           0           0           2           0           0
 AtZEff=  -0.0000000  -0.0000000  -0.0000000  -0.0000000  -0.0000000  -0.0000000  -0.0000000  -0.0000000  -0.0000000  -0.0000000
 NQMom=    0.0000000   0.0000000   0.0000000   0.0000000   0.0000000   0.0000000   0.0000000   2.0440000   0.0000000   0.0000000
 NMagM=    0.0000000   0.0000000   0.0000000   0.0000000   0.0000000   0.0000000   0.0000000   0.4037610   0.0000000   0.0000000
 AtZNuc=   6.0000000   6.0000000   6.0000000   6.0000000   6.0000000   6.0000000   6.0000000   7.0000000   6.0000000   8.0000000

  Atom        21          22          23          24          25          26          27          28          29          30
 IAtWgt=          14          12          12          12          12          12          12           1           1           1
 AtmWgt=  14.0030740  12.0000000  12.0000000  12.0000000  12.0000000  12.0000000  12.0000000   1.0078250   1.0078250   1.0078250
 NucSpn=           2           0           0           0           0           0           0           1           1           1
 AtZEff=  -0.0000000  -0.0000000  -0.0000000  -0.0000000  -0.0000000  -0.0000000  -0.0000000  -0.0000000  -0.0000000  -0.0000000
 NQMom=    2.0440000   0.0000000   0.0000000   0.0000000   0.0000000   0.0000000   0.0000000   0.0000000   0.0000000   0.0000000
 NMagM=    0.4037610   0.0000000   0.0000000   0.0000000   0.0000000   0.0000000   0.0000000   2.7928460   2.7928460   2.7928460
 AtZNuc=   7.0000000   6.0000000   6.0000000   6.0000000   6.0000000   6.0000000   6.0000000   1.0000000   1.0000000   1.0000000

  Atom        31          32          33          34          35          36          37          38          39          40
 IAtWgt=           1           1           1           1           1           1           1           1           1           1
 AtmWgt=   1.0078250   1.0078250   1.0078250   1.0078250   1.0078250   1.0078250   1.0078250   1.0078250   1.0078250   1.0078250
 NucSpn=           1           1           1           1           1           1           1           1           1           1
 AtZEff=  -0.0000000  -0.0000000  -0.0000000  -0.0000000  -0.0000000  -0.0000000  -0.0000000  -0.0000000  -0.0000000  -0.0000000
 NQMom=    0.0000000   0.0000000   0.0000000   0.0000000   0.0000000   0.0000000   0.0000000   0.0000000   0.0000000   0.0000000
 NMagM=    2.7928460   2.7928460   2.7928460   2.7928460   2.7928460   2.7928460   2.7928460   2.7928460   2.7928460   2.7928460
 AtZNuc=   1.0000000   1.0000000   1.0000000   1.0000000   1.0000000   1.0000000   1.0000000   1.0000000   1.0000000   1.0000000

  Atom        41
 IAtWgt=           1
 AtmWgt=   1.0078250
 NucSpn=           1
 AtZEff=  -0.0000000
 NQMom=    0.0000000
 NMagM=    2.7928460
 AtZNuc=   1.0000000
 Leave Link  101 at Wed Nov  5 21:38:07 2025, MaxMem= 30870077440 cpu:               3.6 elap:               0.1
 (Enter /public/software/gauss/g16/l202.exe)
                          Input orientation:                          
 ---------------------------------------------------------------------
 Center     Atomic      Atomic             Coordinates (Angstroms)
 Number     Number       Type             X           Y           Z
 ---------------------------------------------------------------------
      1          9           0       -0.934432    2.299949    1.248580
      2          5           0       -0.404585    1.725788    0.064306
      3          9           0       -1.184936    2.173109   -1.018668
      4          7           0        1.052251    2.179172   -0.101731
      5          6           0        1.459024    3.487353   -0.164051
      6          6           0        2.846077    3.540332   -0.181758
      7          6           0        3.313058    2.210109   -0.120188
      8          6           0        2.181672    1.369136   -0.076596
      9          6           0        2.045042   -0.049270    0.013937
     10          6           0        0.737393   -0.608614    0.084933
     11          6           0        0.335222   -1.964476    0.026796
     12          6           0       -1.056719   -1.991992    0.051504
     13          6           0       -1.514976   -0.665178    0.126018
     14          6           0       -2.896701   -0.260011    0.184724
     15          6           0       -3.537477    0.913434    0.645770
     16          6           0       -4.915665    0.727657    0.520590
     17          6           0       -5.132676   -0.550559   -0.014970
     18          7           0       -3.887599   -1.122697   -0.205451
     19          6           0       -6.346243   -1.217683   -0.346954
     20          8           0       -6.415193   -2.364910   -0.829371
     21          7           0       -0.410948    0.180887    0.145861
     22          6           0        3.236863   -0.923344    0.008707
     23          6           0        3.386235   -1.961494    0.952042
     24          6           0        4.512368   -2.783696    0.948764
     25          6           0        5.525301   -2.591800    0.005463
     26          6           0        5.396510   -1.566963   -0.935643
     27          6           0        4.269917   -0.745265   -0.935113
     28          1           0        0.735814    4.290861   -0.185290
     29          1           0        3.446466    4.439213   -0.232556
     30          1           0        4.342681    1.883756   -0.100954
     31          1           0        0.998890   -2.813937   -0.034608
     32          1           0       -1.685154   -2.873022    0.045268
     33          1           0       -3.025211    1.771584    1.048273
     34          1           0       -5.695436    1.426521    0.793127
     35          1           0       -3.748558   -2.036709   -0.614278
     36          1           0       -7.262774   -0.633797   -0.145017
     37          1           0        2.618757   -2.108226    1.705090
     38          1           0        4.603014   -3.570348    1.692604
     39          1           0        6.402778   -3.231538    0.004125
     40          1           0        6.171966   -1.411494   -1.680521
     41          1           0        4.174273    0.032366   -1.685642
 ---------------------------------------------------------------------
                    Distance matrix (angstroms):
                    1          2          3          4          5
     1  F    0.000000
     2  B    1.418768   0.000000
     3  F    2.284569   1.407791   0.000000
     4  N    2.405169   1.534763   2.417812   0.000000
     5  C    3.022265   2.574548   3.073781   1.371381   0.000000
     6  C    4.228081   3.730941   4.338062   2.253214   1.388177
     7  C    4.463493   3.753595   4.587002   2.261094   2.251826
     8  C    3.511781   2.614532   3.587189   1.390101   2.239802
     9  C    3.990042   3.025564   4.054380   2.442328   3.589262
    10  C    3.550889   2.598840   3.556862   2.811713   4.166496
    11  C    4.614119   3.763877   4.530285   4.207192   5.569721
    12  C    4.457432   3.774564   4.302299   4.676521   6.033129
    13  C    3.223221   2.636948   3.078166   3.838340   5.115890
    14  C    3.396422   3.188815   3.209107   4.650365   5.756450
    15  C    3.010257   3.288317   3.145089   4.819383   5.678547
    16  C    4.341922   4.642661   4.286839   6.173346   6.980066
    17  C    5.229456   5.248132   4.900044   6.761086   7.731589
    18  N    4.748674   4.507552   4.339130   5.942661   7.059791
    19  C    6.648847   6.643527   6.211905   8.144720   9.115537
    20  O    7.491164   7.325290   6.927123   8.771594   9.833358
    21  N    2.445496   1.547065   2.433954   2.489055   3.811241
    22  C    5.415404   4.503458   5.495073   3.796094   4.758656
    23  C    6.075853   5.362317   6.471031   4.868576   5.886403
    24  C    7.456606   6.730092   7.803844   6.140522   7.063096
    25  C    8.197725   7.335433   8.293400   6.540783   7.315699
    26  C    7.733348   6.744984   7.570367   5.796682   6.453314
    27  C    6.413041   5.381070   6.187028   4.427215   5.139135
    28  H    2.968069   2.818228   2.978032   2.136901   1.081253
    29  H    5.095339   4.720317   5.215658   3.295021   2.204690
    30  H    5.462818   4.752768   5.610746   3.303665   3.300149
    31  H    5.615704   4.752750   5.532459   4.993845   6.319394
    32  H    5.363877   4.773811   5.181276   5.748013   7.098172
    33  H    2.165791   2.799637   2.796441   4.256094   4.951965
    34  H    4.861838   5.349191   4.917785   6.848250   7.506631
    35  H    5.495102   5.079273   4.945529   6.409690   7.605056
    36  H    7.113149   7.255771   6.751452   8.778058   9.646450
    37  H    5.680278   5.150964   6.341669   4.909208   6.012418
    38  H    8.082132   7.468364   8.592942   6.991748   7.946256
    39  H    9.272576   8.421336   9.371751   7.610199   8.343410
    40  H    8.535534   7.492528   8.210447   6.449569   6.964927
    41  H    6.312722   5.186129   5.809368   4.106650   4.650242
                    6          7          8          9         10
     6  C    0.000000
     7  C    1.411154   0.000000
     8  C    2.273012   1.410379   0.000000
     9  C    3.683096   2.594349   1.427844   0.000000
    10  C    4.661698   3.823784   2.454288   1.424027   0.000000
    11  C    6.053990   5.129939   3.812222   2.567424   1.415445
    12  C    6.774425   6.064823   4.669129   3.660123   2.265765
    13  C    6.066286   5.624749   4.224298   3.614641   2.253454
    14  C    6.896116   6.689960   5.339689   4.949182   3.652139
    15  C    6.952349   7.014121   5.782572   5.700047   4.572273
    16  C    8.285474   8.385711   7.151246   7.022233   5.825159
    17  C    8.967927   8.886100   7.562322   7.195260   5.871206
    18  N    8.190653   7.935006   6.562156   6.032960   4.662527
    19  C   10.352041  10.251989   8.915720   8.479923   7.122878
    20  O   11.002836  10.773700   9.402971   8.811863   7.421591
    21  N    4.690567   4.249323   2.860612   2.470276   1.394887
    22  C    4.484796   3.137028   2.525108   1.477995   2.520360
    23  C    5.643347   4.307819   3.688111   2.517030   3.098149
    24  C    6.636862   5.245864   4.871296   3.799827   4.441579
    25  C    6.694500   5.288491   5.184168   4.310073   5.182992
    26  C    5.758256   4.389990   4.437772   3.799662   4.864913
    27  C    4.578341   3.211529   3.093301   2.516977   3.679388
    28  H    2.239758   3.312998   3.261717   4.537676   4.906921
    29  H    1.082143   2.235918   3.324064   4.708633   5.737633
    30  H    2.233964   1.080278   2.221573   3.004819   4.386863
    31  H    6.618949   5.532064   4.347279   2.956379   2.223987
    32  H    7.855871   7.130759   5.741350   4.678560   3.316301
    33  H    6.254076   6.459974   5.342184   5.485693   4.555278
    34  H    8.853024   9.088516   7.925184   7.918339   6.784143
    35  H    8.647524   8.255060   6.859775   6.157140   4.759423
    36  H   10.936799  10.951559   9.654739   9.327506   8.003511
    37  H    5.959704   4.739379   3.931602   2.725518   2.900565
    38  H    7.560544   6.193859   5.778535   4.664669   5.128304
    39  H    7.651333   6.258861   6.244234   5.395997   6.243625
    40  H    6.150480   4.870729   5.121223   4.664584   5.770271
    41  H    4.041237   2.816896   2.889021   2.725593   3.918920
                   11         12         13         14         15
    11  C    0.000000
    12  C    1.392432   0.000000
    13  C    2.263019   1.405698   0.000000
    14  C    3.657249   2.530423   1.441101   0.000000
    15  C    4.864493   3.866369   2.617760   1.414260   0.000000
    16  C    5.921421   4.744259   3.695993   2.272556   1.396276
    17  C    5.647904   4.323838   3.622260   2.263599   2.263739
    18  N    4.312163   2.972471   2.438962   1.370526   2.234500
    19  C    6.733451   5.360726   4.885704   3.619276   3.662830
    20  O    6.816265   5.443184   5.273896   4.223597   4.604870
    21  N    2.274539   2.268772   1.391078   2.524850   3.249880
    22  C    3.082824   4.424781   4.760293   6.171839   7.047786
    23  C    3.188224   4.533403   5.136596   6.554320   7.503119
    24  C    4.355421   5.696192   6.441576   7.864289   8.863441
    25  C    5.227897   6.609454   7.300131   8.740680   9.738101
    26  C    5.167295   6.542115   7.050459   8.469988   9.405815
    27  C    4.230079   5.558848   5.881955   7.269795   8.136699
    28  H    6.271738   6.537850   5.452091   5.834596   5.509872
    29  H    7.124208   7.856193   7.127362   7.905226   7.872613
    30  H    5.557422   6.648172   6.392240   7.555528   7.974711
    31  H    1.079727   2.215522   3.310965   4.663290   5.910570
    32  H    2.215337   1.082212   2.215865   2.883595   4.257811
    33  H    5.127774   4.362684   3.011507   2.211246   1.077426
    34  H    6.960960   5.809813   4.721915   3.323772   2.223007
    35  H    4.134423   2.773313   2.723605   2.126199   3.214906
    36  H    7.715554   6.355976   5.754270   4.394433   4.110609
    37  H    2.837581   4.031995   4.654418   6.012295   6.939150
    38  H    4.854667   6.100573   6.951547   8.335332   9.352420
    39  H    6.198483   7.561932   8.324175   9.764369  10.788937
    40  H    6.106415   7.455922   7.931560   9.329832  10.251351
    41  H    4.653830   5.871880   6.011342   7.320002   8.104496
                   16         17         18         19         20
    16  C    0.000000
    17  C    1.402767   0.000000
    18  N    2.237826   1.383417   0.000000
    19  C    2.565840   1.424083   2.464544   0.000000
    20  O    3.692553   2.366425   2.884632   1.246439   0.000000
    21  N    4.553225   4.780753   3.729592   6.117728   6.594173
    22  C    8.333759   8.377870   7.130467   9.594220   9.795033
    23  C    8.737232   8.688941   7.412964   9.846917   9.970164
    24  C   10.069793   9.946987   8.640056  11.047204  11.079203
    25  C   10.968041  10.851708   9.529189  11.956001  11.971793
    26  C   10.664279  10.618120   9.323370  11.762687  11.839102
    27  C    9.416129   9.449515   8.198776  10.642930  10.807683
    28  H    6.718177   7.609700   7.119197   8.973613   9.790354
    29  H    9.179766   9.927076   9.204569  11.309762  11.996024
    30  H    9.350928   9.783439   8.762830  11.132499  11.589375
    31  H    6.916147   6.536005   5.173708   7.523069   7.470067
    32  H    4.860763   4.157267   2.824405   4.961828   4.836987
    33  H    2.223072   3.311230   3.269923   4.680986   5.668166
    34  H    1.082003   2.208747   3.280845   2.952143   4.186347
    35  H    3.208081   2.117450   1.010886   2.736829   2.695352
    36  H    2.793834   2.135687   3.410936   1.105319   2.045357
    37  H    8.137124   8.091332   6.852306   9.239869   9.386247
    38  H   10.509601  10.335308   9.037927  11.383368  11.367248
    39  H   12.002046  11.842918  10.506331  12.911871  12.874243
    40  H   11.504626  11.459066  10.171238  12.590533  12.651879
    41  H    9.379651   9.473661   8.277615  10.678762  10.891140
                   21         22         23         24         25
    21  N    0.000000
    22  C    3.813747   0.000000
    23  C    4.433771   1.410655   0.000000
    24  C    5.802796   2.443671   1.394347   0.000000
    25  C    6.553362   2.832085   2.422581   1.397381   0.000000
    26  C    6.160454   2.443382   2.785716   2.411045   1.397340
    27  C    4.892521   1.410570   2.412770   2.786212   2.422883
    28  H    4.279791   5.786261   6.885506   8.099247   8.387288
    29  H    5.758141   5.372072   6.509681   7.396085   7.335758
    30  H    5.055459   3.019051   4.099944   4.787046   4.630390
    31  H    3.314994   2.929973   2.720212   3.648625   4.532036
    32  H    3.310601   5.294226   5.231836   6.263670   7.216047
    33  H    3.190460   6.896151   7.419688   8.807700   9.655974
    34  H    5.467757   9.269474   9.694362  11.043071  11.944549
    35  H    4.078625   7.100972   7.305086   8.440615   9.311104
    36  H    6.906217  10.504753  10.787387  12.019667  12.937978
    37  H    4.104917   2.159564   1.085188   2.148034   3.401555
    38  H    6.450116   3.421770   2.148812   1.086433   2.157456
    39  H    7.621784   3.918009   3.407505   2.160221   1.085925
    40  H    7.014706   3.421493   3.872103   3.398580   2.157276
    41  H    4.939708   2.159384   3.399097   3.870996   3.401670
                   26         27         28         29         30
    26  C    0.000000
    27  C    1.394417   0.000000
    28  H    7.523245   6.197958   0.000000
    29  H    6.353830   5.296269   2.715120   0.000000
    30  H    3.703339   2.759142   4.337137   2.711251   0.000000
    31  H    4.658956   3.973655   7.111264   7.657545   5.766599
    32  H    7.267595   6.399326   7.565412   8.937533   7.680046
    33  H    9.274007   7.967888   4.691881   7.116135   7.457824
    34  H   11.618126  10.344647   7.107934   9.680016  10.088223
    35  H    9.162762   8.128143   7.767353   9.687706   9.005648
    36  H   12.718229  11.560261   9.393151  11.850355  11.875462
    37  H    3.870704   3.399215   6.933060   6.878120   4.708464
    38  H    3.398657   3.872589   8.959929   8.318468   5.747336
    39  H    2.160220   3.407758   9.420024   8.224124   5.515548
    40  H    1.086437   2.148787   8.018997   6.614811   4.086562
    41  H    2.148072   1.084966   5.675283   4.696963   2.442794
                   31         32         33         34         35
    31  H    0.000000
    32  H    2.685882   0.000000
    33  H    6.196210   4.937017   0.000000
    34  H    7.967473   5.926865   2.704491   0.000000
    35  H    4.845448   2.322080   4.217867   4.214865   0.000000
    36  H    8.545191   6.013334   5.016646   2.753466   3.812884
    37  H    2.479626   4.675850   6.880313   9.080304   6.776967
    38  H    4.067570   6.537663   9.334946  11.481979   8.799006
    39  H    5.420138   8.095979  10.724199  12.987949  10.240101
    40  H    5.606834   8.176108  10.107738  12.450241   9.997228
    41  H    4.572790   6.765369   7.895045  10.271276   8.258338
                   36         37         38         39         40
    36  H    0.000000
    37  H   10.160782   0.000000
    38  H   12.361113   2.464799   0.000000
    39  H   13.911068   4.298131   2.490964   0.000000
    40  H   13.544550   4.957125   4.301190   2.490756   0.000000
    41  H   11.559556   4.301026   4.957410   4.298211   2.464860
                   41
    41  H    0.000000
 Stoichiometry    C20H14BF2N3O(1-,2)
 Framework group  C1[X(C20H14BF2N3O)]
 Deg. of freedom   117
 Full point group                 C1      NOp   1
 Largest Abelian subgroup         C1      NOp   1
 Largest concise Abelian subgroup C1      NOp   1
                         Standard orientation:                         
 ---------------------------------------------------------------------
 Center     Atomic      Atomic             Coordinates (Angstroms)
 Number     Number       Type             X           Y           Z
 ---------------------------------------------------------------------
      1          9           0       -0.934432    2.299949    1.248580
      2          5           0       -0.404585    1.725788    0.064306
      3          9           0       -1.184936    2.173109   -1.018668
      4          7           0        1.052251    2.179172   -0.101731
      5          6           0        1.459024    3.487353   -0.164051
      6          6           0        2.846077    3.540332   -0.181758
      7          6           0        3.313058    2.210109   -0.120188
      8          6           0        2.181672    1.369136   -0.076596
      9          6           0        2.045042   -0.049270    0.013937
     10          6           0        0.737393   -0.608614    0.084933
     11          6           0        0.335222   -1.964476    0.026796
     12          6           0       -1.056719   -1.991992    0.051504
     13          6           0       -1.514976   -0.665178    0.126018
     14          6           0       -2.896701   -0.260011    0.184724
     15          6           0       -3.537477    0.913434    0.645770
     16          6           0       -4.915665    0.727657    0.520590
     17          6           0       -5.132676   -0.550559   -0.014970
     18          7           0       -3.887599   -1.122697   -0.205451
     19          6           0       -6.346243   -1.217683   -0.346954
     20          8           0       -6.415193   -2.364910   -0.829371
     21          7           0       -0.410948    0.180887    0.145861
     22          6           0        3.236863   -0.923344    0.008707
     23          6           0        3.386235   -1.961494    0.952042
     24          6           0        4.512368   -2.783696    0.948764
     25          6           0        5.525301   -2.591800    0.005463
     26          6           0        5.396510   -1.566963   -0.935643
     27          6           0        4.269917   -0.745265   -0.935113
     28          1           0        0.735814    4.290861   -0.185290
     29          1           0        3.446466    4.439213   -0.232556
     30          1           0        4.342681    1.883756   -0.100954
     31          1           0        0.998890   -2.813937   -0.034608
     32          1           0       -1.685154   -2.873022    0.045268
     33          1           0       -3.025211    1.771584    1.048273
     34          1           0       -5.695436    1.426521    0.793127
     35          1           0       -3.748558   -2.036709   -0.614278
     36          1           0       -7.262774   -0.633797   -0.145017
     37          1           0        2.618757   -2.108226    1.705090
     38          1           0        4.603014   -3.570348    1.692604
     39          1           0        6.402778   -3.231538    0.004125
     40          1           0        6.171966   -1.411494   -1.680521
     41          1           0        4.174273    0.032366   -1.685642
 ---------------------------------------------------------------------
 Rotational constants (GHZ):           0.3585000           0.1116895           0.0890355
 Leave Link  202 at Wed Nov  5 21:38:07 2025, MaxMem= 30870077440 cpu:               0.3 elap:               0.0
 (Enter /public/software/gauss/g16/l301.exe)
 Standard basis: def2TZVPP (5D, 7F)
 Ernie: Thresh=  0.10000D-02 Tol=  0.10000D-05 Strict=F.
 There are  1182 symmetry adapted cartesian basis functions of A   symmetry.
 There are  1033 symmetry adapted basis functions of A   symmetry.
  1033 basis functions,  1615 primitive gaussians,  1182 cartesian basis functions
    94 alpha electrons       93 beta electrons
       nuclear repulsion energy      2295.8508425030 Hartrees.
 IExCor= 4336 DFT=T Ex+Corr=M062X ExCW=0 ScaHFX=  0.540000
 ScaDFX=  1.000000  1.000000  1.000000  1.000000 ScalE2=  1.000000  1.000000
 IRadAn=      5 IRanWt=     -1 IRanGd=            0 ICorTp=0 IEmpDi=131
 NAtoms=   41 NActive=   41 NUniq=   41 SFac= 1.00D+00 NAtFMM=   60 NAOKFM=F Big=F
 Integral buffers will be    131072 words long.
 Raffenetti 2 integral format.
 Two-electron integral symmetry is turned on.
 R6Disp:  Grimme-D3 Dispersion energy=       -0.0027043246 Hartrees.
 Nuclear repulsion after empirical dispersion term =     2295.8481381785 Hartrees.
 ------------------------------------------------------------------------------
 Polarizable Continuum Model (PCM)
 =================================
 Model                : PCM.
 Atomic radii         : UFF (Universal Force Field).
 Polarization charges : Total charges.
 Charge compensation  : None.
 Solution method      : On-the-fly selection.
 Cavity type          : Scaled VdW (van der Waals Surface) (Alpha=1.100).
 Cavity algorithm     : GePol (No added spheres)
                        Default sphere list used, NSphG=   41.
                        Lebedev-Laikov grids with approx.  5.0 points / Ang**2.
                        Smoothing algorithm: York/Karplus (Gamma=1.0000).
                        Polarization charges: spherical gaussians, with
                                              point-specific exponents (IZeta= 3).
                        Self-potential: point-specific (ISelfS= 7).
                        Self-field    : sphere-specific E.n sum rule (ISelfD= 2).
 Solvent              : Water, Eps=  78.355300 Eps(inf)=   1.777849
 ------------------------------------------------------------------------------
 GePol: Number of generator spheres                  =      41
 GePol: Total number of spheres                      =      41
 GePol: Number of exposed spheres                    =      41 (100.00%)
 GePol: Number of points                             =    3204
 GePol: Average weight of points                     =       0.13
 GePol: Minimum weight of points                     =   0.40D-10
 GePol: Maximum weight of points                     =    0.20577
 GePol: Number of points with low weight             =     195
 GePol: Fraction of low-weight points (<1% of avg)   =       6.09%
 GePol: Cavity surface area                          =    404.954 Ang**2
 GePol: Cavity volume                                =    458.355 Ang**3
 Leave Link  301 at Wed Nov  5 21:38:07 2025, MaxMem= 30870077440 cpu:               3.5 elap:               0.1
 (Enter /public/software/gauss/g16/l302.exe)
 NPDir=0 NMtPBC=     1 NCelOv=     1 NCel=       1 NClECP=     1 NCelD=      1
         NCelK=      1 NCelE2=     1 NClLst=     1 CellRange=     0.0.
 One-electron integrals computed using PRISM.
 One-electron integral symmetry used in STVInt
   1 Symmetry operations used in ECPInt.
 ECPInt:  NShTT=   72771 NPrTT=  213514 LenC2=   58096 LenP2D=  120455.
 LDataN:  DoStor=T MaxTD1= 6 Len=  172
 NBasis=  1033 RedAO= T EigKep=  7.54D-06  NBF=  1033
 NBsUse=  1033 1.00D-06 EigRej= -1.00D+00 NBFU=  1033
 Precomputing XC quadrature grid using
 IXCGrd= 4 IRadAn=           5 IRanWt=          -1 IRanGd=           0 AccXCQ= 0.00D+00.
 Generated NRdTot=       0 NPtTot=           0 NUsed=           0 NTot=          32
 NSgBfM=  1132  1132  1132  1132  1132 MxSgAt=    41 MxSgA2=    41.
 Leave Link  302 at Wed Nov  5 21:38:10 2025, MaxMem= 30870077440 cpu:             157.8 elap:               2.5
 (Enter /public/software/gauss/g16/l303.exe)
 DipDrv:  MaxL=1.
 Leave Link  303 at Wed Nov  5 21:38:10 2025, MaxMem= 30870077440 cpu:              11.3 elap:               0.2
 (Enter /public/software/gauss/g16/l401.exe)
 ExpMin= 6.06D-02 ExpMax= 3.55D+04 ExpMxC= 1.21D+03 IAcc=3 IRadAn=         5 AccDes= 0.00D+00
 Harris functional with IExCor= 1009 and IRadAn=       5 diagonalized for initial guess.
 HarFok:  IExCor= 1009 AccDes= 0.00D+00 IRadAn=         5 IDoV= 1 UseB2=F ITyADJ=14
 ICtDFT=  3500011 ScaDFX=  1.000000  1.000000  1.000000  1.000000
 FoFCou: FMM=F IPFlag=           0 FMFlag=      100000 FMFlg1=           0
         NFxFlg=           0 DoJE=T BraDBF=F KetDBF=T FulRan=T
         wScrn=  0.000000 ICntrl=       500 IOpCl=  0 I1Cent=   200000004 NGrid=           0
         NMat0=    1 NMatS0=      1 NMatT0=    0 NMatD0=    1 NMtDS0=    0 NMtDT0=    0
 Petite list used in FoFCou.
 Harris En= -1234.28466895116    
 JPrj=0 DoOrth=F DoCkMO=F.
 Initial guess <Sx>= 0.0000 <Sy>= 0.0000 <Sz>= 0.5000 <S**2>= 0.7500 S= 0.5000
 Leave Link  401 at Wed Nov  5 21:38:14 2025, MaxMem= 30870077440 cpu:             279.7 elap:               4.4
 (Enter /public/software/gauss/g16/l502.exe)
 Integral symmetry usage will be decided dynamically.
 UHF open shell SCF:
 Using DIIS extrapolation, IDIIS=  1040.
 NGot= 30870077440 LenX= 30867197595 LenY= 30865799289
 Requested convergence on RMS density matrix=1.00D-08 within 128 cycles.
 Requested convergence on MAX density matrix=1.00D-06.
 Requested convergence on             energy=1.00D-06.
 No special actions if energy rises.
 Fock matrices will be formed incrementally for  20 cycles.

 Cycle   1  Pass 1  IDiag  1:
 FoFJK:  IHMeth= 1 ICntrl=       0 DoSepK=F KAlg= 0 I1Cent=           0 FoldK=F
 IRaf= 720000000 NMat=       1 IRICut=       1 DoRegI=T DoRafI=F ISym2E= 0 IDoP0=0 IntGTp=1.
 FoFCou: FMM=F IPFlag=           0 FMFlag=      100000 FMFlg1=           0
         NFxFlg=           0 DoJE=F BraDBF=F KetDBF=F FulRan=T
         wScrn=  0.000000 ICntrl=         0 IOpCl=  1 I1Cent=           0 NGrid=           0
         NMat0=    1 NMatS0=      1 NMatT0=    0 NMatD0=    1 NMtDS0=    0 NMtDT0=    0
 Symmetry not used in FoFCou.
 Inv3:  Mode=1 IEnd=    30796848.
 Iteration    1 A*A^-1 deviation from unit magnitude is 9.99D-15 for   1221.
 Iteration    1 A*A^-1 deviation from orthogonality  is 3.73D-15 for   2789    378.
 Iteration    1 A^-1*A deviation from unit magnitude is 9.99D-15 for   1221.
 Iteration    1 A^-1*A deviation from orthogonality  is 4.18D-15 for   2303    516.
 E= -1234.30816355362    
 DIIS: error= 1.89D-02 at cycle   1 NSaved=   1.
 NSaved= 1 IEnMin= 1 EnMin= -1234.30816355362     IErMin= 1 ErrMin= 1.89D-02
 ErrMax= 1.89D-02  0.00D+00 EMaxC= 1.00D-01 BMatC= 3.12D+00 BMatP= 3.12D+00
 IDIUse=3 WtCom= 8.11D-01 WtEn= 1.89D-01
 Coeff-Com:  0.100D+01
 Coeff-En:   0.100D+01
 Coeff:      0.100D+01
 Gap=     0.127 Goal=   None    Shift=    0.000
 Gap=     0.167 Goal=   None    Shift=    0.000
 GapD=    0.127 DampG=1.000 DampE=0.500 DampFc=0.5000 IDamp=-1.
 Damping current iteration by 5.00D-01
 RMSDP=2.59D-03 MaxDP=3.05D-01              OVMax= 1.89D-01

 Cycle   2  Pass 1  IDiag  1:
 RMSU=  1.29D-03    CP:  9.99D-01
 E= -1234.61417940825     Delta-E=       -0.306015854626 Rises=F Damp=T
 DIIS: error= 4.56D-03 at cycle   2 NSaved=   2.
 NSaved= 2 IEnMin= 2 EnMin= -1234.61417940825     IErMin= 2 ErrMin= 4.56D-03
 ErrMax= 4.56D-03  0.00D+00 EMaxC= 1.00D-01 BMatC= 3.04D-01 BMatP= 3.12D+00
 IDIUse=3 WtCom= 9.54D-01 WtEn= 4.56D-02
 Coeff-Com: -0.123D+00 0.112D+01
 Coeff-En:   0.000D+00 0.100D+01
 Coeff:     -0.117D+00 0.112D+01
 Gap=     0.138 Goal=   None    Shift=    0.000
 Gap=     0.166 Goal=   None    Shift=    0.000
 RMSDP=8.92D-04 MaxDP=9.51D-02 DE=-3.06D-01 OVMax= 1.02D-01

 Cycle   3  Pass 1  IDiag  1:
 RMSU=  8.43D-04    CP:  9.73D-01  7.96D-01
 E= -1234.88928011552     Delta-E=       -0.275100707277 Rises=F Damp=F
 DIIS: error= 4.15D-03 at cycle   3 NSaved=   3.
 NSaved= 3 IEnMin= 3 EnMin= -1234.88928011552     IErMin= 3 ErrMin= 4.15D-03
 ErrMax= 4.15D-03  0.00D+00 EMaxC= 1.00D-01 BMatC= 1.37D-01 BMatP= 3.04D-01
 IDIUse=3 WtCom= 9.58D-01 WtEn= 4.15D-02
 Coeff-Com: -0.129D+00 0.481D+00 0.648D+00
 Coeff-En:   0.000D+00 0.000D+00 0.100D+01
 Coeff:     -0.124D+00 0.461D+00 0.662D+00
 Gap=     0.146 Goal=   None    Shift=    0.000
 Gap=     0.164 Goal=   None    Shift=    0.000
 RMSDP=2.80D-04 MaxDP=3.71D-02 DE=-2.75D-01 OVMax= 4.55D-02

 Cycle   4  Pass 1  IDiag  1:
 RMSU=  2.47D-04    CP:  9.78D-01  8.84D-01  9.25D-01
 E= -1234.91194537391     Delta-E=       -0.022665258384 Rises=F Damp=F
 DIIS: error= 1.94D-03 at cycle   4 NSaved=   4.
 NSaved= 4 IEnMin= 4 EnMin= -1234.91194537391     IErMin= 4 ErrMin= 1.94D-03
 ErrMax= 1.94D-03  0.00D+00 EMaxC= 1.00D-01 BMatC= 2.32D-02 BMatP= 1.37D-01
 IDIUse=3 WtCom= 9.81D-01 WtEn= 1.94D-02
 Coeff-Com: -0.455D-01 0.115D+00 0.342D+00 0.588D+00
 Coeff-En:   0.000D+00 0.000D+00 0.106D+00 0.894D+00
 Coeff:     -0.446D-01 0.113D+00 0.337D+00 0.594D+00
 Gap=     0.144 Goal=   None    Shift=    0.000
 Gap=     0.167 Goal=   None    Shift=    0.000
 RMSDP=1.16D-04 MaxDP=1.85D-02 DE=-2.27D-02 OVMax= 1.42D-02

 Cycle   5  Pass 1  IDiag  1:
 RMSU=  7.86D-05    CP:  9.75D-01  8.61D-01  9.54D-01  6.93D-01
 E= -1234.91662335557     Delta-E=       -0.004677981666 Rises=F Damp=F
 DIIS: error= 3.43D-04 at cycle   5 NSaved=   5.
 NSaved= 5 IEnMin= 5 EnMin= -1234.91662335557     IErMin= 5 ErrMin= 3.43D-04
 ErrMax= 3.43D-04  0.00D+00 EMaxC= 1.00D-01 BMatC= 9.63D-04 BMatP= 2.32D-02
 IDIUse=3 WtCom= 9.97D-01 WtEn= 3.43D-03
 Coeff-Com: -0.119D-01 0.222D-01 0.106D+00 0.252D+00 0.632D+00
 Coeff-En:   0.000D+00 0.000D+00 0.000D+00 0.000D+00 0.100D+01
 Coeff:     -0.119D-01 0.222D-01 0.106D+00 0.251D+00 0.633D+00
 Gap=     0.146 Goal=   None    Shift=    0.000
 Gap=     0.168 Goal=   None    Shift=    0.000
 RMSDP=2.81D-05 MaxDP=2.90D-03 DE=-4.68D-03 OVMax= 5.52D-03

 Cycle   6  Pass 1  IDiag  1:
 RMSU=  2.62D-05    CP:  9.75D-01  8.67D-01  9.50D-01  7.20D-01  9.78D-01
 E= -1234.91687030425     Delta-E=       -0.000246948674 Rises=F Damp=F
 DIIS: error= 1.26D-04 at cycle   6 NSaved=   6.
 NSaved= 6 IEnMin= 6 EnMin= -1234.91687030425     IErMin= 6 ErrMin= 1.26D-04
 ErrMax= 1.26D-04  0.00D+00 EMaxC= 1.00D-01 BMatC= 1.28D-04 BMatP= 9.63D-04
 IDIUse=3 WtCom= 9.99D-01 WtEn= 1.26D-03
 Coeff-Com:  0.648D-03-0.391D-02-0.346D-03 0.207D-01 0.233D+00 0.750D+00
 Coeff-En:   0.000D+00 0.000D+00 0.000D+00 0.000D+00 0.000D+00 0.100D+01
 Coeff:      0.647D-03-0.390D-02-0.346D-03 0.207D-01 0.232D+00 0.751D+00
 Gap=     0.147 Goal=   None    Shift=    0.000
 Gap=     0.170 Goal=   None    Shift=    0.000
 RMSDP=1.82D-05 MaxDP=2.54D-03 DE=-2.47D-04 OVMax= 4.64D-03

 Cycle   7  Pass 1  IDiag  1:
 RMSU=  1.18D-05    CP:  9.76D-01  8.65D-01  9.53D-01  7.27D-01  1.14D+00
                    CP:  1.17D+00
 E= -1234.91694236730     Delta-E=       -0.000072063052 Rises=F Damp=F
 DIIS: error= 9.83D-05 at cycle   7 NSaved=   7.
 NSaved= 7 IEnMin= 7 EnMin= -1234.91694236730     IErMin= 7 ErrMin= 9.83D-05
 ErrMax= 9.83D-05  0.00D+00 EMaxC= 1.00D-01 BMatC= 3.26D-05 BMatP= 1.28D-04
 IDIUse=1 WtCom= 1.00D+00 WtEn= 0.00D+00
 Coeff-Com:  0.396D-02-0.851D-02-0.330D-01-0.727D-01-0.123D+00 0.209D+00
 Coeff-Com:  0.102D+01
 Coeff:      0.396D-02-0.851D-02-0.330D-01-0.727D-01-0.123D+00 0.209D+00
 Coeff:      0.102D+01
 Gap=     0.148 Goal=   None    Shift=    0.000
 Gap=     0.171 Goal=   None    Shift=    0.000
 RMSDP=1.50D-05 MaxDP=2.01D-03 DE=-7.21D-05 OVMax= 4.31D-03

 Cycle   8  Pass 1  IDiag  1:
 RMSU=  5.48D-06    CP:  9.76D-01  8.64D-01  9.54D-01  7.35D-01  1.25D+00
                    CP:  1.50D+00  1.51D+00
 E= -1234.91697699247     Delta-E=       -0.000034625168 Rises=F Damp=F
 DIIS: error= 3.83D-05 at cycle   8 NSaved=   8.
 NSaved= 8 IEnMin= 8 EnMin= -1234.91697699247     IErMin= 8 ErrMin= 3.83D-05
 ErrMax= 3.83D-05  0.00D+00 EMaxC= 1.00D-01 BMatC= 1.05D-05 BMatP= 3.26D-05
 IDIUse=1 WtCom= 1.00D+00 WtEn= 0.00D+00
 Coeff-Com:  0.164D-02-0.289D-02-0.146D-01-0.381D-01-0.111D+00-0.892D-01
 Coeff-Com:  0.490D+00 0.764D+00
 Coeff:      0.164D-02-0.289D-02-0.146D-01-0.381D-01-0.111D+00-0.892D-01
 Coeff:      0.490D+00 0.764D+00
 Gap=     0.148 Goal=   None    Shift=    0.000
 Gap=     0.171 Goal=   None    Shift=    0.000
 RMSDP=6.12D-06 MaxDP=5.98D-04 DE=-3.46D-05 OVMax= 2.06D-03

 Cycle   9  Pass 1  IDiag  1:
 RMSU=  2.44D-06    CP:  9.76D-01  8.64D-01  9.55D-01  7.40D-01  1.29D+00
                    CP:  1.61D+00  1.75D+00  1.42D+00
 E= -1234.91698407876     Delta-E=       -0.000007086294 Rises=F Damp=F
 DIIS: error= 1.68D-05 at cycle   9 NSaved=   9.
 NSaved= 9 IEnMin= 9 EnMin= -1234.91698407876     IErMin= 9 ErrMin= 1.68D-05
 ErrMax= 1.68D-05  0.00D+00 EMaxC= 1.00D-01 BMatC= 1.46D-06 BMatP= 1.05D-05
 IDIUse=1 WtCom= 1.00D+00 WtEn= 0.00D+00
 Coeff-Com: -0.406D-03 0.109D-02 0.295D-02 0.450D-02-0.992D-02-0.802D-01
 Coeff-Com: -0.636D-01 0.243D+00 0.903D+00
 Coeff:     -0.406D-03 0.109D-02 0.295D-02 0.450D-02-0.992D-02-0.802D-01
 Coeff:     -0.636D-01 0.243D+00 0.903D+00
 Gap=     0.148 Goal=   None    Shift=    0.000
 Gap=     0.171 Goal=   None    Shift=    0.000
 RMSDP=2.70D-06 MaxDP=1.97D-04 DE=-7.09D-06 OVMax= 8.57D-04

 Cycle  10  Pass 1  IDiag  1:
 RMSU=  1.22D-06    CP:  9.76D-01  8.64D-01  9.55D-01  7.41D-01  1.29D+00
                    CP:  1.64D+00  1.85D+00  1.72D+00  1.29D+00
 E= -1234.91698523666     Delta-E=       -0.000001157897 Rises=F Damp=F
 DIIS: error= 7.74D-06 at cycle  10 NSaved=  10.
 NSaved=10 IEnMin=10 EnMin= -1234.91698523666     IErMin=10 ErrMin= 7.74D-06
 ErrMax= 7.74D-06  0.00D+00 EMaxC= 1.00D-01 BMatC= 3.22D-07 BMatP= 1.46D-06
 IDIUse=1 WtCom= 1.00D+00 WtEn= 0.00D+00
 Coeff-Com: -0.374D-03 0.807D-03 0.302D-02 0.693D-02 0.923D-02-0.214D-01
 Coeff-Com: -0.871D-01-0.467D-02 0.369D+00 0.725D+00
 Coeff:     -0.374D-03 0.807D-03 0.302D-02 0.693D-02 0.923D-02-0.214D-01
 Coeff:     -0.871D-01-0.467D-02 0.369D+00 0.725D+00
 Gap=     0.148 Goal=   None    Shift=    0.000
 Gap=     0.171 Goal=   None    Shift=    0.000
 RMSDP=8.60D-07 MaxDP=7.03D-05 DE=-1.16D-06 OVMax= 2.69D-04

 Cycle  11  Pass 1  IDiag  1:
 RMSU=  5.26D-07    CP:  9.76D-01  8.64D-01  9.55D-01  7.42D-01  1.29D+00
                    CP:  1.65D+00  1.86D+00  1.80D+00  1.46D+00  1.17D+00
 E= -1234.91698545511     Delta-E=       -0.000000218449 Rises=F Damp=F
 DIIS: error= 4.00D-06 at cycle  11 NSaved=  11.
 NSaved=11 IEnMin=11 EnMin= -1234.91698545511     IErMin=11 ErrMin= 4.00D-06
 ErrMax= 4.00D-06  0.00D+00 EMaxC= 1.00D-01 BMatC= 8.07D-08 BMatP= 3.22D-07
 IDIUse=1 WtCom= 1.00D+00 WtEn= 0.00D+00
 Coeff-Com: -0.399D-04 0.482D-04 0.400D-03 0.151D-02 0.458D-02 0.912D-02
 Coeff-Com: -0.160D-01-0.470D-01-0.540D-01 0.256D+00 0.845D+00
 Coeff:     -0.399D-04 0.482D-04 0.400D-03 0.151D-02 0.458D-02 0.912D-02
 Coeff:     -0.160D-01-0.470D-01-0.540D-01 0.256D+00 0.845D+00
 Gap=     0.148 Goal=   None    Shift=    0.000
 Gap=     0.171 Goal=   None    Shift=    0.000
 RMSDP=5.28D-07 MaxDP=4.92D-05 DE=-2.18D-07 OVMax= 2.05D-04

 Cycle  12  Pass 1  IDiag  1:
 RMSU=  2.86D-07    CP:  9.76D-01  8.64D-01  9.55D-01  7.42D-01  1.29D+00
                    CP:  1.65D+00  1.85D+00  1.82D+00  1.53D+00  1.35D+00
                    CP:  1.46D+00
 E= -1234.91698554875     Delta-E=       -0.000000093641 Rises=F Damp=F
 DIIS: error= 2.46D-06 at cycle  12 NSaved=  12.
 NSaved=12 IEnMin=12 EnMin= -1234.91698554875     IErMin=12 ErrMin= 2.46D-06
 ErrMax= 2.46D-06  0.00D+00 EMaxC= 1.00D-01 BMatC= 2.80D-08 BMatP= 8.07D-08
 IDIUse=1 WtCom= 1.00D+00 WtEn= 0.00D+00
 Coeff-Com:  0.134D-03-0.295D-03-0.103D-02-0.225D-02-0.248D-02 0.114D-01
 Coeff-Com:  0.276D-01-0.102D-01-0.164D+00-0.187D+00 0.269D+00 0.106D+01
 Coeff:      0.134D-03-0.295D-03-0.103D-02-0.225D-02-0.248D-02 0.114D-01
 Coeff:      0.276D-01-0.102D-01-0.164D+00-0.187D+00 0.269D+00 0.106D+01
 Gap=     0.148 Goal=   None    Shift=    0.000
 Gap=     0.171 Goal=   None    Shift=    0.000
 RMSDP=4.96D-07 MaxDP=4.61D-05 DE=-9.36D-08 OVMax= 2.03D-04

 Cycle  13  Pass 1  IDiag  1:
 RMSU=  1.72D-07    CP:  9.76D-01  8.64D-01  9.55D-01  7.42D-01  1.29D+00
                    CP:  1.66D+00  1.85D+00  1.84D+00  1.57D+00  1.54D+00
                    CP:  2.02D+00  1.78D+00
 E= -1234.91698560645     Delta-E=       -0.000000057697 Rises=F Damp=F
 DIIS: error= 1.48D-06 at cycle  13 NSaved=  13.
 NSaved=13 IEnMin=13 EnMin= -1234.91698560645     IErMin=13 ErrMin= 1.48D-06
 ErrMax= 1.48D-06  0.00D+00 EMaxC= 1.00D-01 BMatC= 7.90D-09 BMatP= 2.80D-08
 IDIUse=1 WtCom= 1.00D+00 WtEn= 0.00D+00
 Coeff-Com:  0.384D-04-0.739D-04-0.310D-03-0.966D-03-0.200D-02-0.773D-03
 Coeff-Com:  0.898D-02 0.154D-01-0.118D-01-0.127D+00-0.235D+00 0.204D+00
 Coeff-Com:  0.115D+01
 Coeff:      0.384D-04-0.739D-04-0.310D-03-0.966D-03-0.200D-02-0.773D-03
 Coeff:      0.898D-02 0.154D-01-0.118D-01-0.127D+00-0.235D+00 0.204D+00
 Coeff:      0.115D+01
 Gap=     0.148 Goal=   None    Shift=    0.000
 Gap=     0.171 Goal=   None    Shift=    0.000
 RMSDP=3.42D-07 MaxDP=3.36D-05 DE=-5.77D-08 OVMax= 1.47D-04

 Cycle  14  Pass 1  IDiag  1:
 RMSU=  1.01D-07    CP:  9.76D-01  8.64D-01  9.55D-01  7.42D-01  1.29D+00
                    CP:  1.66D+00  1.86D+00  1.85D+00  1.59D+00  1.63D+00
                    CP:  2.35D+00  2.45D+00  1.75D+00
 E= -1234.91698562745     Delta-E=       -0.000000021003 Rises=F Damp=F
 DIIS: error= 6.52D-07 at cycle  14 NSaved=  14.
 NSaved=14 IEnMin=14 EnMin= -1234.91698562745     IErMin=14 ErrMin= 6.52D-07
 ErrMax= 6.52D-07  0.00D+00 EMaxC= 1.00D-01 BMatC= 2.57D-09 BMatP= 7.90D-09
 IDIUse=1 WtCom= 1.00D+00 WtEn= 0.00D+00
 Coeff-Com: -0.221D-04 0.522D-04 0.172D-03 0.243D-03-0.935D-04-0.332D-02
 Coeff-Com: -0.416D-02 0.840D-02 0.406D-01 0.347D-02-0.157D+00-0.231D+00
 Coeff-Com:  0.461D+00 0.882D+00
 Coeff:     -0.221D-04 0.522D-04 0.172D-03 0.243D-03-0.935D-04-0.332D-02
 Coeff:     -0.416D-02 0.840D-02 0.406D-01 0.347D-02-0.157D+00-0.231D+00
 Coeff:      0.461D+00 0.882D+00
 Gap=     0.148 Goal=   None    Shift=    0.000
 Gap=     0.171 Goal=   None    Shift=    0.000
 RMSDP=1.64D-07 MaxDP=1.53D-05 DE=-2.10D-08 OVMax= 6.59D-05

 Cycle  15  Pass 1  IDiag  1:
 RMSU=  5.49D-08    CP:  9.76D-01  8.64D-01  9.55D-01  7.42D-01  1.29D+00
                    CP:  1.66D+00  1.86D+00  1.85D+00  1.60D+00  1.65D+00
                    CP:  2.48D+00  2.78D+00  2.22D+00  1.54D+00
 E= -1234.91698563177     Delta-E=       -0.000000004323 Rises=F Damp=F
 DIIS: error= 3.51D-07 at cycle  15 NSaved=  15.
 NSaved=15 IEnMin=15 EnMin= -1234.91698563177     IErMin=15 ErrMin= 3.51D-07
 ErrMax= 3.51D-07  0.00D+00 EMaxC= 1.00D-01 BMatC= 5.57D-10 BMatP= 2.57D-09
 IDIUse=1 WtCom= 1.00D+00 WtEn= 0.00D+00
 Coeff-Com: -0.124D-04 0.264D-04 0.104D-03 0.258D-03 0.383D-03-0.530D-03
 Coeff-Com: -0.286D-02-0.207D-02 0.106D-01 0.335D-01 0.260D-01-0.115D+00
 Coeff-Com: -0.180D+00 0.208D+00 0.102D+01
 Coeff:     -0.124D-04 0.264D-04 0.104D-03 0.258D-03 0.383D-03-0.530D-03
 Coeff:     -0.286D-02-0.207D-02 0.106D-01 0.335D-01 0.260D-01-0.115D+00
 Coeff:     -0.180D+00 0.208D+00 0.102D+01
 Gap=     0.148 Goal=   None    Shift=    0.000
 Gap=     0.171 Goal=   None    Shift=    0.000
 RMSDP=9.01D-08 MaxDP=8.02D-06 DE=-4.32D-09 OVMax= 3.77D-05

 Cycle  16  Pass 1  IDiag  1:
 RMSU=  2.95D-08    CP:  9.76D-01  8.64D-01  9.55D-01  7.42D-01  1.29D+00
                    CP:  1.66D+00  1.86D+00  1.85D+00  1.60D+00  1.66D+00
                    CP:  2.51D+00  2.92D+00  2.48D+00  1.97D+00  1.40D+00
 E= -1234.91698563314     Delta-E=       -0.000000001366 Rises=F Damp=F
 DIIS: error= 2.22D-07 at cycle  16 NSaved=  16.
 NSaved=16 IEnMin=16 EnMin= -1234.91698563314     IErMin=16 ErrMin= 2.22D-07
 ErrMax= 2.22D-07  0.00D+00 EMaxC= 1.00D-01 BMatC= 1.90D-10 BMatP= 5.57D-10
 IDIUse=1 WtCom= 1.00D+00 WtEn= 0.00D+00
 Coeff-Com:  0.862D-06-0.306D-05 0.141D-05 0.476D-04 0.190D-03 0.569D-03
 Coeff-Com: -0.157D-03-0.281D-02-0.564D-02 0.132D-01 0.497D-01 0.101D-01
 Coeff-Com: -0.177D+00-0.155D+00 0.385D+00 0.881D+00
 Coeff:      0.862D-06-0.306D-05 0.141D-05 0.476D-04 0.190D-03 0.569D-03
 Coeff:     -0.157D-03-0.281D-02-0.564D-02 0.132D-01 0.497D-01 0.101D-01
 Coeff:     -0.177D+00-0.155D+00 0.385D+00 0.881D+00
 Gap=     0.148 Goal=   None    Shift=    0.000
 Gap=     0.171 Goal=   None    Shift=    0.000
 RMSDP=4.37D-08 MaxDP=3.28D-06 DE=-1.37D-09 OVMax= 1.87D-05

 Cycle  17  Pass 1  IDiag  1:
 RMSU=  1.32D-08    CP:  9.76D-01  8.64D-01  9.55D-01  7.42D-01  1.29D+00
                    CP:  1.66D+00  1.86D+00  1.85D+00  1.60D+00  1.67D+00
                    CP:  2.52D+00  2.97D+00  2.57D+00  2.17D+00  1.82D+00
                    CP:  1.50D+00
 E= -1234.91698563329     Delta-E=       -0.000000000157 Rises=F Damp=F
 DIIS: error= 1.14D-07 at cycle  17 NSaved=  17.
 NSaved=17 IEnMin=17 EnMin= -1234.91698563329     IErMin=17 ErrMin= 1.14D-07
 ErrMax= 1.14D-07  0.00D+00 EMaxC= 1.00D-01 BMatC= 5.39D-11 BMatP= 1.90D-10
 IDIUse=1 WtCom= 1.00D+00 WtEn= 0.00D+00
 Coeff-Com:  0.396D-05-0.879D-05-0.307D-04-0.642D-04-0.539D-04 0.287D-03
 Coeff-Com:  0.848D-03-0.148D-03-0.484D-02-0.625D-02 0.611D-02 0.374D-01
 Coeff-Com:  0.544D-02-0.118D+00-0.191D+00 0.264D+00 0.101D+01
 Coeff:      0.396D-05-0.879D-05-0.307D-04-0.642D-04-0.539D-04 0.287D-03
 Coeff:      0.848D-03-0.148D-03-0.484D-02-0.625D-02 0.611D-02 0.374D-01
 Coeff:      0.544D-02-0.118D+00-0.191D+00 0.264D+00 0.101D+01
 Gap=     0.148 Goal=   None    Shift=    0.000
 Gap=     0.171 Goal=   None    Shift=    0.000
 RMSDP=2.79D-08 MaxDP=1.94D-06 DE=-1.57D-10 OVMax= 1.22D-05

 Cycle  18  Pass 1  IDiag  1:
 RMSU=  7.23D-09    CP:  9.76D-01  8.64D-01  9.55D-01  7.42D-01  1.29D+00
                    CP:  1.66D+00  1.86D+00  1.85D+00  1.60D+00  1.67D+00
                    CP:  2.53D+00  2.99D+00  2.62D+00  2.28D+00  2.07D+00
                    CP:  1.99D+00  1.55D+00
 E= -1234.91698563357     Delta-E=       -0.000000000276 Rises=F Damp=F
 DIIS: error= 6.98D-08 at cycle  18 NSaved=  18.
 NSaved=18 IEnMin=18 EnMin= -1234.91698563357     IErMin=18 ErrMin= 6.98D-08
 ErrMax= 6.98D-08  0.00D+00 EMaxC= 1.00D-01 BMatC= 1.81D-11 BMatP= 5.39D-11
 IDIUse=1 WtCom= 1.00D+00 WtEn= 0.00D+00
 Coeff-Com:  0.121D-05-0.239D-05-0.126D-04-0.371D-04-0.736D-04-0.600D-04
 Coeff-Com:  0.409D-03 0.784D-03-0.341D-03-0.625D-02-0.132D-01 0.123D-01
 Coeff-Com:  0.560D-01-0.316D-02-0.193D+00-0.154D+00 0.413D+00 0.888D+00
 Coeff:      0.121D-05-0.239D-05-0.126D-04-0.371D-04-0.736D-04-0.600D-04
 Coeff:      0.409D-03 0.784D-03-0.341D-03-0.625D-02-0.132D-01 0.123D-01
 Coeff:      0.560D-01-0.316D-02-0.193D+00-0.154D+00 0.413D+00 0.888D+00
 Gap=     0.148 Goal=   None    Shift=    0.000
 Gap=     0.171 Goal=   None    Shift=    0.000
 RMSDP=1.47D-08 MaxDP=1.01D-06 DE=-2.76D-10 OVMax= 6.72D-06

 Cycle  19  Pass 1  IDiag  1:
 RMSU=  3.92D-09    CP:  9.76D-01  8.64D-01  9.55D-01  7.42D-01  1.29D+00
                    CP:  1.66D+00  1.86D+00  1.85D+00  1.60D+00  1.67D+00
                    CP:  2.53D+00  3.00D+00  2.63D+00  2.33D+00  2.19D+00
                    CP:  2.22D+00  1.99D+00  1.49D+00
 E= -1234.91698563340     Delta-E=        0.000000000175 Rises=F Damp=F
 DIIS: error= 3.34D-08 at cycle  19 NSaved=  19.
 NSaved=19 IEnMin=18 EnMin= -1234.91698563357     IErMin=19 ErrMin= 3.34D-08
 ErrMax= 3.34D-08  0.00D+00 EMaxC= 1.00D-01 BMatC= 4.92D-12 BMatP= 1.81D-11
 IDIUse=1 WtCom= 1.00D+00 WtEn= 0.00D+00
 Coeff-Com: -0.857D-06 0.194D-05 0.439D-05 0.739D-05-0.137D-04-0.108D-03
 Coeff-Com: -0.121D-03 0.322D-03 0.129D-02-0.294D-04-0.705D-02-0.675D-02
 Coeff-Com:  0.182D-01 0.376D-01-0.625D-02-0.144D+00-0.194D+00 0.329D+00
 Coeff-Com:  0.972D+00
 Coeff:     -0.857D-06 0.194D-05 0.439D-05 0.739D-05-0.137D-04-0.108D-03
 Coeff:     -0.121D-03 0.322D-03 0.129D-02-0.294D-04-0.705D-02-0.675D-02
 Coeff:      0.182D-01 0.376D-01-0.625D-02-0.144D+00-0.194D+00 0.329D+00
 Coeff:      0.972D+00
 Gap=     0.148 Goal=   None    Shift=    0.000
 Gap=     0.171 Goal=   None    Shift=    0.000
 RMSDP=8.56D-09 MaxDP=6.12D-07 DE= 1.75D-10 OVMax= 3.76D-06

 Error on total polarization charges =  0.02166
 SCF Done:  E(UM062X) =  -1234.91698563     A.U. after   19 cycles
            NFock= 19  Conv=0.86D-08     -V/T= 2.0053
 <Sx>= 0.0000 <Sy>= 0.0000 <Sz>= 0.5000 <S**2>= 0.7775 S= 0.5136
 <L.S>= 0.000000000000E+00
 KE= 1.228444087506D+03 PE=-7.499108958827D+03 EE= 2.739899747509D+03
 Annihilation of the first spin contaminant:
 S**2 before annihilation     0.7775,   after     0.7506
 Leave Link  502 at Wed Nov  5 21:50:13 2025, MaxMem= 30870077440 cpu:           45538.9 elap:             718.5
 (Enter /public/software/gauss/g16/l601.exe)
 Copying SCF densities to generalized density rwf, IOpCl= 1 IROHF=0.

 **********************************************************************

            Population analysis using the SCF density.

 **********************************************************************

 Orbital symmetries:
 Alpha Orbitals:
       Occupied  (A) (A) (A) (A) (A) (A) (A) (A) (A) (A) (A) (A)
                 (A) (A) (A) (A) (A) (A) (A) (A) (A) (A) (A) (A)
                 (A) (A) (A) (A) (A) (A) (A) (A) (A) (A) (A) (A)
                 (A) (A) (A) (A) (A) (A) (A) (A) (A) (A) (A) (A)
                 (A) (A) (A) (A) (A) (A) (A) (A) (A) (A) (A) (A)
                 (A) (A) (A) (A) (A) (A) (A) (A) (A) (A) (A) (A)
                 (A) (A) (A) (A) (A) (A) (A) (A) (A) (A) (A) (A)
                 (A) (A) (A) (A) (A) (A) (A) (A) (A) (A)
       Virtual   (A) (A) (A) (A) (A) (A) (A) (A) (A) (A) (A) (A)
                 (A) (A) (A) (A) (A) (A) (A) (A) (A) (A) (A) (A)
                 (A) (A) (A) (A) (A) (A) (A) (A) (A) (A) (A) (A)
                 (A) (A) (A) (A) (A) (A) (A) (A) (A) (A) (A) (A)
                 (A) (A) (A) (A) (A) (A) (A) (A) (A) (A) (A) (A)
                 (A) (A) (A) (A) (A) (A) (A) (A) (A) (A) (A) (A)
                 (A) (A) (A) (A) (A) (A) (A) (A) (A) (A) (A) (A)
                 (A) (A) (A) (A) (A) (A) (A) (A) (A) (A) (A) (A)
                 (A) (A) (A) (A) (A) (A) (A) (A) (A) (A) (A) (A)
                 (A) (A) (A) (A) (A) (A) (A) (A) (A) (A) (A) (A)
                 (A) (A) (A) (A) (A) (A) (A) (A) (A) (A) (A) (A)
                 (A) (A) (A) (A) (A) (A) (A) (A) (A) (A) (A) (A)
                 (A) (A) (A) (A) (A) (A) (A) (A) (A) (A) (A) (A)
                 (A) (A) (A) (A) (A) (A) (A) (A) (A) (A) (A) (A)
                 (A) (A) (A) (A) (A) (A) (A) (A) (A) (A) (A) (A)
                 (A) (A) (A) (A) (A) (A) (A) (A) (A) (A) (A) (A)
                 (A) (A) (A) (A) (A) (A) (A) (A) (A) (A) (A) (A)
                 (A) (A) (A) (A) (A) (A) (A) (A) (A) (A) (A) (A)
                 (A) (A) (A) (A) (A) (A) (A) (A) (A) (A) (A) (A)
                 (A) (A) (A) (A) (A) (A) (A) (A) (A) (A) (A) (A)
                 (A) (A) (A) (A) (A) (A) (A) (A) (A) (A) (A) (A)
                 (A) (A) (A) (A) (A) (A) (A) (A) (A) (A) (A) (A)
                 (A) (A) (A) (A) (A) (A) (A) (A) (A) (A) (A) (A)
                 (A) (A) (A) (A) (A) (A) (A) (A) (A) (A) (A) (A)
                 (A) (A) (A) (A) (A) (A) (A) (A) (A) (A) (A) (A)
                 (A) (A) (A) (A) (A) (A) (A) (A) (A) (A) (A) (A)
                 (A) (A) (A) (A) (A) (A) (A) (A) (A) (A) (A) (A)
                 (A) (A) (A) (A) (A) (A) (A) (A) (A) (A) (A) (A)
                 (A) (A) (A) (A) (A) (A) (A) (A) (A) (A) (A) (A)
                 (A) (A) (A) (A) (A) (A) (A) (A) (A) (A) (A) (A)
                 (A) (A) (A) (A) (A) (A) (A) (A) (A) (A) (A) (A)
                 (A) (A) (A) (A) (A) (A) (A) (A) (A) (A) (A) (A)
                 (A) (A) (A) (A) (A) (A) (A) (A) (A) (A) (A) (A)
                 (A) (A) (A) (A) (A) (A) (A) (A) (A) (A) (A) (A)
                 (A) (A) (A) (A) (A) (A) (A) (A) (A) (A) (A) (A)
                 (A) (A) (A) (A) (A) (A) (A) (A) (A) (A) (A) (A)
                 (A) (A) (A) (A) (A) (A) (A) (A) (A) (A) (A) (A)
                 (A) (A) (A) (A) (A) (A) (A) (A) (A) (A) (A) (A)
                 (A) (A) (A) (A) (A) (A) (A) (A) (A) (A) (A) (A)
                 (A) (A) (A) (A) (A) (A) (A) (A) (A) (A) (A) (A)
                 (A) (A) (A) (A) (A) (A) (A) (A) (A) (A) (A) (A)
                 (A) (A) (A) (A) (A) (A) (A) (A) (A) (A) (A) (A)
                 (A) (A) (A) (A) (A) (A) (A) (A) (A) (A) (A) (A)
                 (A) (A) (A) (A) (A) (A) (A) (A) (A) (A) (A) (A)
                 (A) (A) (A) (A) (A) (A) (A) (A) (A) (A) (A) (A)
                 (A) (A) (A) (A) (A) (A) (A) (A) (A) (A) (A) (A)
                 (A) (A) (A) (A) (A) (A) (A) (A) (A) (A) (A) (A)
                 (A) (A) (A) (A) (A) (A) (A) (A) (A) (A) (A) (A)
                 (A) (A) (A) (A) (A) (A) (A) (A) (A) (A) (A) (A)
                 (A) (A) (A) (A) (A) (A) (A) (A) (A) (A) (A) (A)
                 (A) (A) (A) (A) (A) (A) (A) (A) (A) (A) (A) (A)
                 (A) (A) (A) (A) (A) (A) (A) (A) (A) (A) (A) (A)
                 (A) (A) (A) (A) (A) (A) (A) (A) (A) (A) (A) (A)
                 (A) (A) (A) (A) (A) (A) (A) (A) (A) (A) (A) (A)
                 (A) (A) (A) (A) (A) (A) (A) (A) (A) (A) (A) (A)
                 (A) (A) (A) (A) (A) (A) (A) (A) (A) (A) (A) (A)
                 (A) (A) (A) (A) (A) (A) (A) (A) (A) (A) (A) (A)
                 (A) (A) (A) (A) (A) (A) (A) (A) (A) (A) (A) (A)
                 (A) (A) (A) (A) (A) (A) (A) (A) (A) (A) (A) (A)
                 (A) (A) (A) (A) (A) (A) (A) (A) (A) (A) (A) (A)
                 (A) (A) (A) (A) (A) (A) (A) (A) (A) (A) (A) (A)
                 (A) (A) (A) (A) (A) (A) (A) (A) (A) (A) (A) (A)
                 (A) (A) (A) (A) (A) (A) (A) (A) (A) (A) (A) (A)
                 (A) (A) (A) (A) (A) (A) (A) (A) (A) (A) (A) (A)
                 (A) (A) (A) (A) (A) (A) (A) (A) (A) (A) (A) (A)
                 (A) (A) (A) (A) (A) (A) (A) (A) (A) (A) (A) (A)
                 (A) (A) (A) (A) (A) (A) (A) (A) (A) (A) (A) (A)
                 (A) (A) (A) (A) (A) (A) (A) (A) (A) (A) (A) (A)
                 (A) (A) (A) (A) (A) (A) (A) (A) (A) (A) (A) (A)
                 (A) (A) (A) (A) (A) (A) (A) (A) (A) (A) (A) (A)
                 (A) (A) (A) (A) (A) (A) (A) (A) (A) (A) (A) (A)
                 (A) (A) (A) (A) (A) (A) (A) (A) (A) (A) (A) (A)
                 (A) (A) (A) (A) (A) (A) (A) (A) (A) (A) (A) (A)
                 (A) (A) (A) (A) (A) (A) (A) (A) (A) (A) (A) (A)
                 (A) (A) (A) (A) (A) (A) (A) (A) (A) (A) (A) (A)
                 (A) (A) (A) (A) (A) (A) (A) (A) (A) (A) (A) (A)
                 (A) (A) (A) (A) (A) (A) (A) (A) (A) (A) (A) (A)
                 (A) (A) (A) (A) (A) (A) (A) (A) (A) (A) (A) (A)
                 (A) (A) (A)
 Beta  Orbitals:
       Occupied  (A) (A) (A) (A) (A) (A) (A) (A) (A) (A) (A) (A)
                 (A) (A) (A) (A) (A) (A) (A) (A) (A) (A) (A) (A)
                 (A) (A) (A) (A) (A) (A) (A) (A) (A) (A) (A) (A)
                 (A) (A) (A) (A) (A) (A) (A) (A) (A) (A) (A) (A)
                 (A) (A) (A) (A) (A) (A) (A) (A) (A) (A) (A) (A)
                 (A) (A) (A) (A) (A) (A) (A) (A) (A) (A) (A) (A)
                 (A) (A) (A) (A) (A) (A) (A) (A) (A) (A) (A) (A)
                 (A) (A) (A) (A) (A) (A) (A) (A) (A)
       Virtual   (A) (A) (A) (A) (A) (A) (A) (A) (A) (A) (A) (A)
                 (A) (A) (A) (A) (A) (A) (A) (A) (A) (A) (A) (A)
                 (A) (A) (A) (A) (A) (A) (A) (A) (A) (A) (A) (A)
                 (A) (A) (A) (A) (A) (A) (A) (A) (A) (A) (A) (A)
                 (A) (A) (A) (A) (A) (A) (A) (A) (A) (A) (A) (A)
                 (A) (A) (A) (A) (A) (A) (A) (A) (A) (A) (A) (A)
                 (A) (A) (A) (A) (A) (A) (A) (A) (A) (A) (A) (A)
                 (A) (A) (A) (A) (A) (A) (A) (A) (A) (A) (A) (A)
                 (A) (A) (A) (A) (A) (A) (A) (A) (A) (A) (A) (A)
                 (A) (A) (A) (A) (A) (A) (A) (A) (A) (A) (A) (A)
                 (A) (A) (A) (A) (A) (A) (A) (A) (A) (A) (A) (A)
                 (A) (A) (A) (A) (A) (A) (A) (A) (A) (A) (A) (A)
                 (A) (A) (A) (A) (A) (A) (A) (A) (A) (A) (A) (A)
                 (A) (A) (A) (A) (A) (A) (A) (A) (A) (A) (A) (A)
                 (A) (A) (A) (A) (A) (A) (A) (A) (A) (A) (A) (A)
                 (A) (A) (A) (A) (A) (A) (A) (A) (A) (A) (A) (A)
                 (A) (A) (A) (A) (A) (A) (A) (A) (A) (A) (A) (A)
                 (A) (A) (A) (A) (A) (A) (A) (A) (A) (A) (A) (A)
                 (A) (A) (A) (A) (A) (A) (A) (A) (A) (A) (A) (A)
                 (A) (A) (A) (A) (A) (A) (A) (A) (A) (A) (A) (A)
                 (A) (A) (A) (A) (A) (A) (A) (A) (A) (A) (A) (A)
                 (A) (A) (A) (A) (A) (A) (A) (A) (A) (A) (A) (A)
                 (A) (A) (A) (A) (A) (A) (A) (A) (A) (A) (A) (A)
                 (A) (A) (A) (A) (A) (A) (A) (A) (A) (A) (A) (A)
                 (A) (A) (A) (A) (A) (A) (A) (A) (A) (A) (A) (A)
                 (A) (A) (A) (A) (A) (A) (A) (A) (A) (A) (A) (A)
                 (A) (A) (A) (A) (A) (A) (A) (A) (A) (A) (A) (A)
                 (A) (A) (A) (A) (A) (A) (A) (A) (A) (A) (A) (A)
                 (A) (A) (A) (A) (A) (A) (A) (A) (A) (A) (A) (A)
                 (A) (A) (A) (A) (A) (A) (A) (A) (A) (A) (A) (A)
                 (A) (A) (A) (A) (A) (A) (A) (A) (A) (A) (A) (A)
                 (A) (A) (A) (A) (A) (A) (A) (A) (A) (A) (A) (A)
                 (A) (A) (A) (A) (A) (A) (A) (A) (A) (A) (A) (A)
                 (A) (A) (A) (A) (A) (A) (A) (A) (A) (A) (A) (A)
                 (A) (A) (A) (A) (A) (A) (A) (A) (A) (A) (A) (A)
                 (A) (A) (A) (A) (A) (A) (A) (A) (A) (A) (A) (A)
                 (A) (A) (A) (A) (A) (A) (A) (A) (A) (A) (A) (A)
                 (A) (A) (A) (A) (A) (A) (A) (A) (A) (A) (A) (A)
                 (A) (A) (A) (A) (A) (A) (A) (A) (A) (A) (A) (A)
                 (A) (A) (A) (A) (A) (A) (A) (A) (A) (A) (A) (A)
                 (A) (A) (A) (A) (A) (A) (A) (A) (A) (A) (A) (A)
                 (A) (A) (A) (A) (A) (A) (A) (A) (A) (A) (A) (A)
                 (A) (A) (A) (A) (A) (A) (A) (A) (A) (A) (A) (A)
                 (A) (A) (A) (A) (A) (A) (A) (A) (A) (A) (A) (A)
                 (A) (A) (A) (A) (A) (A) (A) (A) (A) (A) (A) (A)
                 (A) (A) (A) (A) (A) (A) (A) (A) (A) (A) (A) (A)
                 (A) (A) (A) (A) (A) (A) (A) (A) (A) (A) (A) (A)
                 (A) (A) (A) (A) (A) (A) (A) (A) (A) (A) (A) (A)
                 (A) (A) (A) (A) (A) (A) (A) (A) (A) (A) (A) (A)
                 (A) (A) (A) (A) (A) (A) (A) (A) (A) (A) (A) (A)
                 (A) (A) (A) (A) (A) (A) (A) (A) (A) (A) (A) (A)
                 (A) (A) (A) (A) (A) (A) (A) (A) (A) (A) (A) (A)
                 (A) (A) (A) (A) (A) (A) (A) (A) (A) (A) (A) (A)
                 (A) (A) (A) (A) (A) (A) (A) (A) (A) (A) (A) (A)
                 (A) (A) (A) (A) (A) (A) (A) (A) (A) (A) (A) (A)
                 (A) (A) (A) (A) (A) (A) (A) (A) (A) (A) (A) (A)
                 (A) (A) (A) (A) (A) (A) (A) (A) (A) (A) (A) (A)
                 (A) (A) (A) (A) (A) (A) (A) (A) (A) (A) (A) (A)
                 (A) (A) (A) (A) (A) (A) (A) (A) (A) (A) (A) (A)
                 (A) (A) (A) (A) (A) (A) (A) (A) (A) (A) (A) (A)
                 (A) (A) (A) (A) (A) (A) (A) (A) (A) (A) (A) (A)
                 (A) (A) (A) (A) (A) (A) (A) (A) (A) (A) (A) (A)
                 (A) (A) (A) (A) (A) (A) (A) (A) (A) (A) (A) (A)
                 (A) (A) (A) (A) (A) (A) (A) (A) (A) (A) (A) (A)
                 (A) (A) (A) (A) (A) (A) (A) (A) (A) (A) (A) (A)
                 (A) (A) (A) (A) (A) (A) (A) (A) (A) (A) (A) (A)
                 (A) (A) (A) (A) (A) (A) (A) (A) (A) (A) (A) (A)
                 (A) (A) (A) (A) (A) (A) (A) (A) (A) (A) (A) (A)
                 (A) (A) (A) (A) (A) (A) (A) (A) (A) (A) (A) (A)
                 (A) (A) (A) (A) (A) (A) (A) (A) (A) (A) (A) (A)
                 (A) (A) (A) (A) (A) (A) (A) (A) (A) (A) (A) (A)
                 (A) (A) (A) (A) (A) (A) (A) (A) (A) (A) (A) (A)
                 (A) (A) (A) (A) (A) (A) (A) (A) (A) (A) (A) (A)
                 (A) (A) (A) (A) (A) (A) (A) (A) (A) (A) (A) (A)
                 (A) (A) (A) (A) (A) (A) (A) (A) (A) (A) (A) (A)
                 (A) (A) (A) (A) (A) (A) (A) (A) (A) (A) (A) (A)
                 (A) (A) (A) (A) (A) (A) (A) (A) (A) (A) (A) (A)
                 (A) (A) (A) (A) (A) (A) (A) (A) (A) (A) (A) (A)
                 (A) (A) (A) (A)
 The electronic state is 2-A.
 Alpha  occ. eigenvalues --  -25.19025 -25.18927 -19.61551 -14.80193 -14.76524
 Alpha  occ. eigenvalues --  -14.75647 -10.62611 -10.59575 -10.57674 -10.57182
 Alpha  occ. eigenvalues --  -10.57105 -10.56367 -10.55828 -10.55616 -10.55283
 Alpha  occ. eigenvalues --  -10.54895 -10.54502 -10.54487 -10.54412 -10.54394
 Alpha  occ. eigenvalues --  -10.54339 -10.53430 -10.53352 -10.52914 -10.52360
 Alpha  occ. eigenvalues --  -10.52198  -7.11209  -1.30748  -1.27507  -1.14988
 Alpha  occ. eigenvalues --   -1.10047  -1.07825  -1.05837  -0.96542  -0.90557
 Alpha  occ. eigenvalues --   -0.88968  -0.87670  -0.86621  -0.85439  -0.84262
 Alpha  occ. eigenvalues --   -0.82795  -0.80508  -0.75852  -0.71633  -0.68890
 Alpha  occ. eigenvalues --   -0.68507  -0.67936  -0.67653  -0.66543  -0.64828
 Alpha  occ. eigenvalues --   -0.64014  -0.63439  -0.60259  -0.59674  -0.59061
 Alpha  occ. eigenvalues --   -0.56911  -0.56711  -0.54300  -0.53451  -0.52478
 Alpha  occ. eigenvalues --   -0.52392  -0.52098  -0.52046  -0.51144  -0.50161
 Alpha  occ. eigenvalues --   -0.49800  -0.49310  -0.48914  -0.48268  -0.48137
 Alpha  occ. eigenvalues --   -0.47865  -0.46766  -0.46179  -0.45562  -0.45227
 Alpha  occ. eigenvalues --   -0.44706  -0.44559  -0.44507  -0.43463  -0.43409
 Alpha  occ. eigenvalues --   -0.42780  -0.40546  -0.40343  -0.39884  -0.36428
 Alpha  occ. eigenvalues --   -0.33926  -0.32593  -0.31592  -0.31358  -0.31111
 Alpha  occ. eigenvalues --   -0.30011  -0.29177  -0.24844  -0.17874
 Alpha virt. eigenvalues --   -0.03065   0.01574   0.01772   0.04385   0.07202
 Alpha virt. eigenvalues --    0.07777   0.08365   0.09223   0.09834   0.10166
 Alpha virt. eigenvalues --    0.10783   0.10978   0.11282   0.11884   0.12002
 Alpha virt. eigenvalues --    0.12535   0.12878   0.13175   0.13779   0.13850
 Alpha virt. eigenvalues --    0.13989   0.14396   0.14813   0.15343   0.15838
 Alpha virt. eigenvalues --    0.16212   0.16836   0.18363   0.18639   0.19719
 Alpha virt. eigenvalues --    0.19799   0.20516   0.21206   0.21522   0.21579
 Alpha virt. eigenvalues --    0.21913   0.22660   0.22954   0.23195   0.23816
 Alpha virt. eigenvalues --    0.24289   0.24624   0.25122   0.25243   0.26028
 Alpha virt. eigenvalues --    0.26124   0.26614   0.26944   0.27277   0.28181
 Alpha virt. eigenvalues --    0.28284   0.28559   0.28886   0.29502   0.29654
 Alpha virt. eigenvalues --    0.30548   0.30874   0.31527   0.31614   0.32346
 Alpha virt. eigenvalues --    0.32662   0.33175   0.33445   0.33983   0.34231
 Alpha virt. eigenvalues --    0.34622   0.35176   0.35250   0.35887   0.36249
 Alpha virt. eigenvalues --    0.36404   0.36865   0.37567   0.37772   0.38209
 Alpha virt. eigenvalues --    0.38501   0.39095   0.39359   0.40165   0.40381
 Alpha virt. eigenvalues --    0.40522   0.40877   0.41213   0.41506   0.41752
 Alpha virt. eigenvalues --    0.42208   0.42547   0.43280   0.43388   0.43945
 Alpha virt. eigenvalues --    0.44058   0.44219   0.44584   0.44822   0.45398
 Alpha virt. eigenvalues --    0.45602   0.46016   0.46183   0.46543   0.47183
 Alpha virt. eigenvalues --    0.47514   0.47905   0.48410   0.48545   0.48958
 Alpha virt. eigenvalues --    0.49064   0.49788   0.49907   0.50326   0.51153
 Alpha virt. eigenvalues --    0.51880   0.52050   0.52264   0.52414   0.52955
 Alpha virt. eigenvalues --    0.53064   0.53776   0.54024   0.54714   0.55095
 Alpha virt. eigenvalues --    0.55616   0.56367   0.56658   0.57537   0.57617
 Alpha virt. eigenvalues --    0.58917   0.59743   0.59818   0.60191   0.60766
 Alpha virt. eigenvalues --    0.61795   0.62137   0.62897   0.63218   0.63433
 Alpha virt. eigenvalues --    0.63813   0.64681   0.65031   0.65659   0.66224
 Alpha virt. eigenvalues --    0.66928   0.67059   0.67596   0.67966   0.68555
 Alpha virt. eigenvalues --    0.68891   0.69140   0.69455   0.70280   0.70476
 Alpha virt. eigenvalues --    0.71134   0.71497   0.71941   0.72090   0.72535
 Alpha virt. eigenvalues --    0.72651   0.73013   0.73595   0.74134   0.74513
 Alpha virt. eigenvalues --    0.74594   0.74729   0.75730   0.76286   0.76727
 Alpha virt. eigenvalues --    0.77686   0.78112   0.78841   0.79020   0.79513
 Alpha virt. eigenvalues --    0.79651   0.80233   0.80550   0.81709   0.82219
 Alpha virt. eigenvalues --    0.82561   0.83039   0.84226   0.84656   0.85420
 Alpha virt. eigenvalues --    0.85963   0.86082   0.86472   0.86801   0.87776
 Alpha virt. eigenvalues --    0.88184   0.88440   0.88972   0.89289   0.90371
 Alpha virt. eigenvalues --    0.91075   0.92273   0.92358   0.92710   0.92945
 Alpha virt. eigenvalues --    0.94506   0.94798   0.95208   0.95576   0.96340
 Alpha virt. eigenvalues --    0.97319   0.97394   0.97810   0.98314   0.98521
 Alpha virt. eigenvalues --    0.99440   0.99811   1.00275   1.00652   1.01224
 Alpha virt. eigenvalues --    1.01541   1.01829   1.01997   1.02350   1.02984
 Alpha virt. eigenvalues --    1.03373   1.04533   1.04853   1.05623   1.05998
 Alpha virt. eigenvalues --    1.06772   1.06959   1.07806   1.08400   1.08515
 Alpha virt. eigenvalues --    1.09592   1.10294   1.10495   1.10855   1.11051
 Alpha virt. eigenvalues --    1.12110   1.12441   1.13027   1.13917   1.14382
 Alpha virt. eigenvalues --    1.14914   1.15854   1.16852   1.17422   1.18003
 Alpha virt. eigenvalues --    1.18455   1.19297   1.19533   1.20158   1.20620
 Alpha virt. eigenvalues --    1.20937   1.21513   1.22093   1.22781   1.23133
 Alpha virt. eigenvalues --    1.24075   1.24395   1.24748   1.25360   1.25961
 Alpha virt. eigenvalues --    1.26110   1.26308   1.27353   1.27884   1.28533
 Alpha virt. eigenvalues --    1.29188   1.29650   1.30532   1.31783   1.32205
 Alpha virt. eigenvalues --    1.32290   1.33808   1.34099   1.34390   1.34699
 Alpha virt. eigenvalues --    1.34795   1.35149   1.36168   1.36491   1.37224
 Alpha virt. eigenvalues --    1.37977   1.38393   1.39635   1.40727   1.40759
 Alpha virt. eigenvalues --    1.41170   1.42463   1.42790   1.43099   1.43902
 Alpha virt. eigenvalues --    1.44446   1.45049   1.45707   1.46140   1.46811
 Alpha virt. eigenvalues --    1.47458   1.47949   1.48476   1.49074   1.49436
 Alpha virt. eigenvalues --    1.50320   1.50902   1.51144   1.52383   1.53049
 Alpha virt. eigenvalues --    1.53333   1.53720   1.54134   1.54418   1.54888
 Alpha virt. eigenvalues --    1.55514   1.56019   1.56542   1.56644   1.57692
 Alpha virt. eigenvalues --    1.58793   1.59357   1.60261   1.60632   1.61430
 Alpha virt. eigenvalues --    1.61625   1.62740   1.63128   1.63521   1.63615
 Alpha virt. eigenvalues --    1.64324   1.65304   1.65735   1.66042   1.66736
 Alpha virt. eigenvalues --    1.67435   1.68569   1.68767   1.69635   1.70558
 Alpha virt. eigenvalues --    1.70924   1.71232   1.72076   1.72442   1.73613
 Alpha virt. eigenvalues --    1.73782   1.75242   1.75985   1.76550   1.77591
 Alpha virt. eigenvalues --    1.78643   1.79305   1.80852   1.81730   1.81989
 Alpha virt. eigenvalues --    1.82127   1.82833   1.83957   1.84245   1.84531
 Alpha virt. eigenvalues --    1.84902   1.86132   1.87160   1.87793   1.88412
 Alpha virt. eigenvalues --    1.88602   1.88915   1.89922   1.90820   1.91851
 Alpha virt. eigenvalues --    1.91907   1.92900   1.93533   1.94046   1.95578
 Alpha virt. eigenvalues --    1.95959   1.96747   1.97580   1.98346   1.99905
 Alpha virt. eigenvalues --    2.00639   2.01151   2.01565   2.02720   2.03341
 Alpha virt. eigenvalues --    2.04028   2.04359   2.05052   2.05550   2.06541
 Alpha virt. eigenvalues --    2.08240   2.09202   2.10290   2.10640   2.11016
 Alpha virt. eigenvalues --    2.11121   2.12143   2.13949   2.14963   2.16546
 Alpha virt. eigenvalues --    2.17224   2.17877   2.19177   2.19785   2.20160
 Alpha virt. eigenvalues --    2.20958   2.21454   2.23156   2.23650   2.25113
 Alpha virt. eigenvalues --    2.26692   2.27547   2.27820   2.27911   2.28523
 Alpha virt. eigenvalues --    2.30109   2.31237   2.32160   2.32828   2.33416
 Alpha virt. eigenvalues --    2.34534   2.35449   2.36169   2.37211   2.38158
 Alpha virt. eigenvalues --    2.38407   2.39763   2.40680   2.41164   2.41286
 Alpha virt. eigenvalues --    2.42934   2.43390   2.44665   2.44768   2.45390
 Alpha virt. eigenvalues --    2.45685   2.46516   2.47232   2.49556   2.51120
 Alpha virt. eigenvalues --    2.52638   2.54183   2.55536   2.56730   2.58489
 Alpha virt. eigenvalues --    2.58992   2.60340   2.61476   2.61990   2.62380
 Alpha virt. eigenvalues --    2.63175   2.63981   2.64337   2.64827   2.65605
 Alpha virt. eigenvalues --    2.66178   2.66446   2.67605   2.68226   2.68984
 Alpha virt. eigenvalues --    2.69113   2.70593   2.70923   2.71680   2.72040
 Alpha virt. eigenvalues --    2.72309   2.72856   2.73529   2.74205   2.74566
 Alpha virt. eigenvalues --    2.74834   2.76264   2.76580   2.77640   2.78009
 Alpha virt. eigenvalues --    2.78229   2.78760   2.79088   2.80253   2.81045
 Alpha virt. eigenvalues --    2.81651   2.82419   2.83024   2.83389   2.84031
 Alpha virt. eigenvalues --    2.84477   2.85020   2.85801   2.86334   2.86650
 Alpha virt. eigenvalues --    2.87008   2.88115   2.89256   2.89447   2.90360
 Alpha virt. eigenvalues --    2.91880   2.91969   2.93230   2.93354   2.93747
 Alpha virt. eigenvalues --    2.94576   2.95059   2.95644   2.96018   2.96293
 Alpha virt. eigenvalues --    2.97479   2.98082   2.98197   2.99205   2.99770
 Alpha virt. eigenvalues --    3.00240   3.00674   3.00904   3.01257   3.01526
 Alpha virt. eigenvalues --    3.02045   3.02902   3.03093   3.03382   3.03530
 Alpha virt. eigenvalues --    3.04138   3.04645   3.05060   3.05263   3.05806
 Alpha virt. eigenvalues --    3.05908   3.06442   3.06877   3.07184   3.07796
 Alpha virt. eigenvalues --    3.08197   3.08778   3.08937   3.09714   3.10440
 Alpha virt. eigenvalues --    3.11050   3.11188   3.11974   3.12415   3.12849
 Alpha virt. eigenvalues --    3.13413   3.13726   3.14433   3.14574   3.15184
 Alpha virt. eigenvalues --    3.15508   3.16000   3.16399   3.16530   3.17022
 Alpha virt. eigenvalues --    3.17880   3.18226   3.18726   3.19296   3.19427
 Alpha virt. eigenvalues --    3.19475   3.20130   3.20693   3.21417   3.21704
 Alpha virt. eigenvalues --    3.22082   3.22434   3.23285   3.23547   3.23788
 Alpha virt. eigenvalues --    3.24549   3.24728   3.25842   3.26453   3.26936
 Alpha virt. eigenvalues --    3.27424   3.27948   3.28621   3.28844   3.29449
 Alpha virt. eigenvalues --    3.29651   3.30180   3.31060   3.31577   3.32067
 Alpha virt. eigenvalues --    3.32499   3.32602   3.33002   3.34003   3.34348
 Alpha virt. eigenvalues --    3.35597   3.35974   3.36169   3.36894   3.37340
 Alpha virt. eigenvalues --    3.38085   3.38677   3.39091   3.40241   3.40761
 Alpha virt. eigenvalues --    3.41244   3.41862   3.42261   3.42917   3.43372
 Alpha virt. eigenvalues --    3.44225   3.45064   3.45636   3.46006   3.46114
 Alpha virt. eigenvalues --    3.46622   3.47720   3.47883   3.48569   3.49449
 Alpha virt. eigenvalues --    3.50067   3.50522   3.51238   3.51761   3.52264
 Alpha virt. eigenvalues --    3.52663   3.53041   3.53641   3.54225   3.54760
 Alpha virt. eigenvalues --    3.55246   3.55832   3.56891   3.57527   3.58753
 Alpha virt. eigenvalues --    3.59223   3.59623   3.60101   3.60550   3.61497
 Alpha virt. eigenvalues --    3.62320   3.63467   3.63779   3.64294   3.64845
 Alpha virt. eigenvalues --    3.65705   3.66068   3.66430   3.67060   3.67479
 Alpha virt. eigenvalues --    3.68637   3.69072   3.70711   3.71531   3.72444
 Alpha virt. eigenvalues --    3.72858   3.73411   3.73798   3.74028   3.74397
 Alpha virt. eigenvalues --    3.75016   3.75359   3.75649   3.76400   3.76521
 Alpha virt. eigenvalues --    3.77211   3.78487   3.78964   3.79200   3.79635
 Alpha virt. eigenvalues --    3.80406   3.80631   3.80995   3.81332   3.81883
 Alpha virt. eigenvalues --    3.82004   3.82501   3.83301   3.83832   3.84593
 Alpha virt. eigenvalues --    3.84979   3.85974   3.86309   3.87407   3.88231
 Alpha virt. eigenvalues --    3.88519   3.89079   3.90457   3.91281   3.92377
 Alpha virt. eigenvalues --    3.93155   3.93422   3.93911   3.94617   3.95480
 Alpha virt. eigenvalues --    3.95916   3.96933   3.97909   3.98218   3.99419
 Alpha virt. eigenvalues --    4.00082   4.00888   4.01270   4.01855   4.02662
 Alpha virt. eigenvalues --    4.02721   4.03480   4.04697   4.05059   4.06139
 Alpha virt. eigenvalues --    4.07466   4.07606   4.08712   4.10128   4.10549
 Alpha virt. eigenvalues --    4.11151   4.12109   4.12502   4.12617   4.13548
 Alpha virt. eigenvalues --    4.14581   4.14974   4.16023   4.16247   4.17384
 Alpha virt. eigenvalues --    4.17986   4.18884   4.19794   4.19930   4.20396
 Alpha virt. eigenvalues --    4.20834   4.21559   4.22002   4.22387   4.22927
[...]
    22  C(13)             -0.02289     -25.73138      -9.18160      -8.58306
    23  C(13)              0.01598      17.96448       6.41017       5.99231
    24  C(13)             -0.00384      -4.31569      -1.53995      -1.43956
    25  C(13)              0.00601       6.75813       2.41147       2.25427
    26  C(13)             -0.00401      -4.51095      -1.60962      -1.50469
    27  C(13)              0.01522      17.10841       6.10470       5.70675
    28  H(1)              -0.00241     -10.76369      -3.84075      -3.59038
    29  H(1)               0.00015       0.65152       0.23248       0.21732
    30  H(1)              -0.00288     -12.89000      -4.59947      -4.29964
    31  H(1)              -0.00259     -11.59284      -4.13661      -3.86695
    32  H(1)               0.00066       2.96910       1.05945       0.99038
    33  H(1)              -0.00053      -2.38858      -0.85231      -0.79675
    34  H(1)               0.00041       1.81795       0.64869       0.60640
    35  H(1)              -0.00067      -3.00949      -1.07386      -1.00386
    36  H(1)              -0.00038      -1.71083      -0.61047      -0.57067
    37  H(1)              -0.00081      -3.64239      -1.29970      -1.21497
    38  H(1)               0.00041       1.82393       0.65082       0.60840
    39  H(1)              -0.00079      -3.52642      -1.25831      -1.17629
    40  H(1)               0.00043       1.91730       0.68414       0.63954
    41  H(1)              -0.00083      -3.68933      -1.31644      -1.23063
 --------------------------------------------------------
       Center         ----  Spin Dipole Couplings  ----
                      3XX-RR        3YY-RR        3ZZ-RR
 --------------------------------------------------------
     1   Atom        0.002668      0.005741     -0.008409
     2   Atom        0.001004      0.001596     -0.002601
     3   Atom        0.001735      0.004160     -0.005895
     4   Atom       -0.040893     -0.043673      0.084566
     5   Atom       -0.080469     -0.081685      0.162154
     6   Atom        0.012529      0.010991     -0.023520
     7   Atom       -0.095200     -0.096552      0.191752
     8   Atom        0.032263      0.045315     -0.077578
     9   Atom       -0.265955     -0.266068      0.532023
    10   Atom        0.057035      0.043770     -0.100805
    11   Atom       -0.088318     -0.084298      0.172616
    12   Atom        0.030085      0.028989     -0.059073
    13   Atom       -0.089394     -0.091082      0.180475
    14   Atom        0.025734      0.010409     -0.036143
    15   Atom       -0.017185     -0.004402      0.021587
    16   Atom        0.015316      0.007231     -0.022547
    17   Atom       -0.015567     -0.013867      0.029435
    18   Atom       -0.041563     -0.024534      0.066097
    19   Atom       -0.006429     -0.003107      0.009536
    20   Atom       -0.068027     -0.042125      0.110153
    21   Atom       -0.060675     -0.064365      0.125040
    22   Atom        0.008813      0.000288     -0.009101
    23   Atom       -0.015658      0.035458     -0.019799
    24   Atom        0.005052     -0.002176     -0.002876
    25   Atom       -0.009115      0.001948      0.007168
    26   Atom        0.004203     -0.001361     -0.002842
    27   Atom        0.017013      0.003593     -0.020606
    28   Atom        0.000131      0.001236     -0.001367
    29   Atom        0.002031      0.000608     -0.002639
    30   Atom        0.013138     -0.010305     -0.002832
    31   Atom       -0.003027      0.005658     -0.002631
    32   Atom        0.001523      0.001135     -0.002658
    33   Atom       -0.000123      0.001074     -0.000951
    34   Atom        0.000525      0.000163     -0.000688
    35   Atom       -0.001574      0.003761     -0.002187
    36   Atom        0.002200     -0.001297     -0.000903
    37   Atom       -0.000336      0.000415     -0.000079
    38   Atom        0.000732      0.000073     -0.000805
    39   Atom        0.002365      0.000372     -0.002737
    40   Atom        0.000889     -0.000068     -0.000821
    41   Atom       -0.000022      0.000074     -0.000052
 --------------------------------------------------------
                        XY            XZ            YZ
 --------------------------------------------------------
     1   Atom       -0.016043     -0.006809      0.007997
     2   Atom        0.000110      0.000244      0.000875
     3   Atom       -0.012161      0.006201     -0.006486
     4   Atom       -0.003932     -0.001641      0.008549
     5   Atom       -0.001838      0.005745      0.010912
     6   Atom        0.000329     -0.000922     -0.001251
     7   Atom        0.000579     -0.009131      0.014924
     8   Atom        0.002187     -0.002033     -0.007308
     9   Atom        0.001164      0.036227      0.045252
    10   Atom        0.004892     -0.007240      0.004986
    11   Atom       -0.000262      0.004959     -0.025976
    12   Atom       -0.000255     -0.001133      0.000163
    13   Atom       -0.000580      0.006360     -0.009359
    14   Atom       -0.002395      0.003403      0.019716
    15   Atom       -0.001693      0.002389     -0.024209
    16   Atom        0.000060      0.000893      0.015329
    17   Atom        0.002336     -0.004442     -0.017758
    18   Atom        0.010107     -0.018014     -0.051438
    19   Atom        0.001175      0.000592     -0.005659
    20   Atom        0.003424     -0.009191     -0.078612
    21   Atom       -0.005424      0.011668     -0.004661
    22   Atom       -0.013081     -0.014499     -0.019701
    23   Atom        0.021953      0.010883      0.018821
    24   Atom       -0.009823     -0.006675     -0.010476
    25   Atom        0.017938      0.022424      0.030343
    26   Atom       -0.010057     -0.007908     -0.009677
    27   Atom        0.033599      0.013666      0.015628
    28   Atom       -0.012415      0.000566      0.000122
    29   Atom        0.001138     -0.000090     -0.000130
    30   Atom       -0.005553      0.001158     -0.000125
    31   Atom       -0.010277     -0.001251      0.000963
    32   Atom       -0.002194     -0.000006      0.000230
    33   Atom        0.001107      0.000470      0.000858
    34   Atom        0.001377      0.000602      0.000470
    35   Atom        0.000179     -0.000084      0.001856
    36   Atom       -0.000995     -0.000301     -0.000212
    37   Atom        0.000243     -0.001307     -0.003474
    38   Atom       -0.001339     -0.000188     -0.000435
    39   Atom       -0.003164      0.000985      0.001362
    40   Atom       -0.001330     -0.000352     -0.000298
    41   Atom        0.000028     -0.002772     -0.002179
 --------------------------------------------------------


 ---------------------------------------------------------------------------------
              Anisotropic Spin Dipole Couplings in Principal Axis System
 ---------------------------------------------------------------------------------

       Atom             a.u.   MegaHertz   Gauss  10(-4) cm-1        Axes

              Baa    -0.0122    -6.127    -2.186    -2.044  0.4163  0.6539 -0.6317
     1 F(19)  Bbb    -0.0115    -5.800    -2.070    -1.935  0.6486  0.2733  0.7104
              Bcc     0.0237    11.927     4.256     3.978 -0.6372  0.7055  0.3103
 
              Baa    -0.0028    -0.477    -0.170    -0.159 -0.0575 -0.1939  0.9793
     2 B(11)  Bbb     0.0010     0.169     0.060     0.056  0.9793 -0.2014  0.0176
              Bcc     0.0018     0.309     0.110     0.103  0.1938  0.9601  0.2015
 
              Baa    -0.0095    -4.755    -1.697    -1.586  0.7143  0.3487 -0.6067
     3 F(19)  Bbb    -0.0090    -4.521    -1.613    -1.508  0.3004  0.6303  0.7159
              Bcc     0.0185     9.277     3.310     3.094 -0.6320  0.6937 -0.3455
 
              Baa    -0.0467    -1.803    -0.643    -0.601  0.5482  0.8350 -0.0475
     4 N(14)  Bbb    -0.0384    -1.482    -0.529    -0.494  0.8362 -0.5462  0.0491
              Bcc     0.0852     3.284     1.172     1.096 -0.0151  0.0667  0.9977
 
              Baa    -0.0836   -11.221    -4.004    -3.743  0.5692  0.8207 -0.0497
     5 C(13)  Bbb    -0.0792   -10.621    -3.790    -3.543  0.8219 -0.5697  0.0062
              Bcc     0.1628    21.843     7.794     7.286  0.0233  0.0444  0.9987
 
              Baa    -0.0236    -3.165    -1.129    -1.056  0.0252  0.0359  0.9990
     6 C(13)  Bbb     0.0110     1.470     0.525     0.490 -0.2207  0.9749 -0.0295
              Bcc     0.0126     1.695     0.605     0.565  0.9750  0.2198 -0.0325
 
              Baa    -0.0978   -13.124    -4.683    -4.378 -0.4131  0.9087 -0.0599
     7 C(13)  Bbb    -0.0950   -12.750    -4.549    -4.253  0.9102  0.4142  0.0074
              Bcc     0.1928    25.873     9.232     8.630 -0.0315  0.0514  0.9982
 
              Baa    -0.0780   -10.473    -3.737    -3.493  0.0172  0.0588  0.9981
     8 C(13)  Bbb     0.0319     4.282     1.528     1.428  0.9863 -0.1650 -0.0073
              Bcc     0.0461     6.190     2.209     2.065  0.1642  0.9845 -0.0609
 
              Baa    -0.2691   -36.115   -12.887   -12.047  0.4963  0.8652 -0.0713
     9 C(13)  Bbb    -0.2671   -35.841   -12.789   -11.955  0.8670 -0.4983 -0.0111
              Bcc     0.5362    71.955    25.675    24.002  0.0451  0.0563  0.9974
 
              Baa    -0.1013   -13.597    -4.852    -4.535  0.0467 -0.0359  0.9983
    10 C(13)  Bbb     0.0425     5.703     2.035     1.902 -0.2969  0.9537  0.0482
              Bcc     0.0588     7.894     2.817     2.633  0.9538  0.2987 -0.0339
 
              Baa    -0.0884   -11.869    -4.235    -3.959  0.9887 -0.1461 -0.0333
    11 C(13)  Bbb    -0.0869   -11.656    -4.159    -3.888  0.1487  0.9842  0.0957
              Bcc     0.1753    23.525     8.394     7.847  0.0188 -0.0996  0.9949
 
              Baa    -0.0591    -7.929    -2.829    -2.645  0.0127 -0.0018  0.9999
    12 C(13)  Bbb     0.0289     3.882     1.385     1.295  0.2151  0.9766 -0.0010
              Bcc     0.0302     4.047     1.444     1.350  0.9765 -0.2151 -0.0128
 
              Baa    -0.0915   -12.275    -4.380    -4.094  0.1839  0.9825  0.0295
    13 C(13)  Bbb    -0.0895   -12.007    -4.284    -4.005  0.9827 -0.1831 -0.0295
              Bcc     0.1809    24.281     8.664     8.099  0.0236 -0.0344  0.9991
 
              Baa    -0.0436    -5.851    -2.088    -1.952 -0.0579 -0.3446  0.9370
    14 C(13)  Bbb     0.0175     2.348     0.838     0.783  0.1258  0.9285  0.3493
              Bcc     0.0261     3.503     1.250     1.168  0.9904 -0.1381  0.0104
 
              Baa    -0.0189    -2.538    -0.906    -0.847  0.1425  0.8533  0.5016
    15 C(13)  Bbb    -0.0173    -2.323    -0.829    -0.775  0.9883 -0.0948 -0.1197
              Bcc     0.0362     4.861     1.735     1.622  0.0546 -0.5128  0.8568
 
              Baa    -0.0290    -3.897    -1.391    -1.300 -0.0180 -0.3892  0.9210
    16 C(13)  Bbb     0.0136     1.827     0.652     0.610 -0.2291  0.8982  0.3751
              Bcc     0.0154     2.070     0.739     0.690  0.9732  0.2042  0.1053
 
              Baa    -0.0203    -2.728    -0.974    -0.910 -0.1606  0.9341  0.3190
    17 C(13)  Bbb    -0.0159    -2.138    -0.763    -0.713  0.9824  0.1200  0.1432
              Bcc     0.0363     4.866     1.736     1.623 -0.0955 -0.3363  0.9369
 
              Baa    -0.0486    -1.874    -0.669    -0.625 -0.4127  0.8535  0.3180
    18 N(14)  Bbb    -0.0439    -1.693    -0.604    -0.565  0.8981  0.3232  0.2982
              Bcc     0.0925     3.567     1.273     1.190 -0.1517 -0.4087  0.9000
 
              Baa    -0.0073    -0.977    -0.349    -0.326  0.8382 -0.5073 -0.2002
    19 C(13)  Bbb    -0.0044    -0.593    -0.212    -0.198  0.5454  0.7846  0.2950
              Bcc     0.0117     1.570     0.560     0.524  0.0074 -0.3565  0.9343
 
              Baa    -0.0755     5.460     1.948     1.821  0.0617  0.9180  0.3918
    20 O(17)  Bbb    -0.0685     4.953     1.767     1.652  0.9970 -0.0748  0.0184
              Bcc     0.1439   -10.413    -3.716    -3.473 -0.0462 -0.3896  0.9198
 
              Baa    -0.0683    -2.634    -0.940    -0.879  0.5964  0.8025 -0.0166
    21 N(14)  Bbb    -0.0576    -2.222    -0.793    -0.741  0.8002 -0.5960 -0.0663
              Bcc     0.1259     4.856     1.733     1.620  0.0632 -0.0262  0.9977
 
              Baa    -0.0336    -4.511    -1.610    -1.505  0.4176  0.5716  0.7063
    22 C(13)  Bbb     0.0153     2.053     0.733     0.685 -0.3841 -0.5935  0.7073
              Bcc     0.0183     2.457     0.877     0.820  0.8235 -0.5667 -0.0283
 
              Baa    -0.0288    -3.867    -1.380    -1.290 -0.6183 -0.0189  0.7857
    23 C(13)  Bbb    -0.0214    -2.866    -1.023    -0.956  0.7058 -0.4531  0.5446
              Bcc     0.0502     6.733     2.402     2.246  0.3457  0.8912  0.2935
 
              Baa    -0.0187    -2.515    -0.897    -0.839  0.4420  0.6518  0.6163
    24 C(13)  Bbb     0.0068     0.913     0.326     0.304 -0.4173 -0.4588  0.7845
              Bcc     0.0119     1.602     0.572     0.534  0.7941 -0.6039  0.0692
 
              Baa    -0.0268    -3.592    -1.282    -1.198 -0.4001 -0.5358  0.7435
    25 C(13)  Bbb    -0.0224    -3.000    -1.070    -1.001  0.8030 -0.5960  0.0026
              Bcc     0.0491     6.591     2.352     2.199  0.4417  0.5981  0.6687
 
              Baa    -0.0188    -2.522    -0.900    -0.841  0.4837  0.6212  0.6166
    26 C(13)  Bbb     0.0069     0.928     0.331     0.309 -0.3180 -0.5316  0.7850
              Bcc     0.0119     1.594     0.569     0.532  0.8154 -0.5758 -0.0595
 
              Baa    -0.0288    -3.859    -1.377    -1.287  0.1872 -0.5780  0.7943
    27 C(13)  Bbb    -0.0217    -2.914    -1.040    -0.972  0.6520 -0.5317 -0.5406
              Bcc     0.0505     6.774     2.417     2.259  0.7348  0.6190  0.2774
 
              Baa    -0.0118    -6.278    -2.240    -2.094  0.7222  0.6900 -0.0474
    28 H(1)   Bbb    -0.0014    -0.720    -0.257    -0.240  0.0198  0.0479  0.9987
              Bcc     0.0131     6.999     2.497     2.335 -0.6914  0.7222 -0.0209
 
              Baa    -0.0026    -1.411    -0.503    -0.471  0.0105  0.0362  0.9993
    29 H(1)   Bbb    -0.0000    -0.011    -0.004    -0.004 -0.4856  0.8738 -0.0266
              Bcc     0.0027     1.422     0.507     0.474  0.8741  0.4850 -0.0268
 
              Baa    -0.0116    -6.166    -2.200    -2.057  0.2201  0.9754 -0.0153
    30 H(1)   Bbb    -0.0029    -1.551    -0.554    -0.517 -0.0618  0.0296  0.9977
              Bcc     0.0145     7.717     2.754     2.574  0.9735 -0.2186  0.0667
 
              Baa    -0.0099    -5.270    -1.881    -1.758  0.8339  0.5472  0.0713
    31 H(1)   Bbb    -0.0027    -1.462    -0.522    -0.488 -0.0056 -0.1207  0.9927
              Bcc     0.0126     6.733     2.402     2.246 -0.5518  0.8282  0.0976
 
              Baa    -0.0027    -1.429    -0.510    -0.477 -0.0429 -0.0847  0.9955
    32 H(1)   Bbb    -0.0009    -0.458    -0.163    -0.153  0.6749  0.7322  0.0915
              Bcc     0.0035     1.887     0.673     0.629  0.7366 -0.6758 -0.0258
 
              Baa    -0.0013    -0.678    -0.242    -0.226 -0.0988 -0.3005  0.9487
    33 H(1)   Bbb    -0.0008    -0.417    -0.149    -0.139  0.8698 -0.4892 -0.0644
              Bcc     0.0021     1.095     0.391     0.365  0.4834  0.8188  0.3097
 
              Baa    -0.0011    -0.564    -0.201    -0.188  0.6885 -0.6757 -0.2634
    34 H(1)   Bbb    -0.0009    -0.478    -0.171    -0.160 -0.0215 -0.3821  0.9239
              Bcc     0.0020     1.042     0.372     0.348  0.7250  0.6304  0.2776
 
              Baa    -0.0027    -1.458    -0.520    -0.486  0.1121 -0.2759  0.9546
    35 H(1)   Bbb    -0.0016    -0.834    -0.298    -0.278  0.9934  0.0066 -0.1147
              Bcc     0.0043     2.292     0.818     0.765  0.0253  0.9612  0.2748
 
              Baa    -0.0017    -0.889    -0.317    -0.297  0.2589  0.8994  0.3522
    36 H(1)   Bbb    -0.0008    -0.434    -0.155    -0.145 -0.0250 -0.3582  0.9333
              Bcc     0.0025     1.323     0.472     0.441  0.9656 -0.2504 -0.0703
 
              Baa    -0.0035    -1.879    -0.670    -0.627  0.2525  0.6315  0.7331
    37 H(1)   Bbb    -0.0004    -0.215    -0.077    -0.072  0.9353 -0.3534 -0.0177
              Bcc     0.0039     2.094     0.747     0.698  0.2479  0.6902 -0.6799
 
              Baa    -0.0014    -0.725    -0.259    -0.242  0.4541  0.6194  0.6404
    38 H(1)   Bbb    -0.0004    -0.228    -0.082    -0.076 -0.4282 -0.4785  0.7666
              Bcc     0.0018     0.954     0.340     0.318  0.7813 -0.6223  0.0479
 
              Baa    -0.0041    -2.171    -0.775    -0.724 -0.3666 -0.5015  0.7837
    39 H(1)   Bbb    -0.0006    -0.329    -0.117    -0.110  0.4645  0.6312  0.6212
              Bcc     0.0047     2.500     0.892     0.834  0.8062 -0.5917 -0.0016
 
              Baa    -0.0014    -0.730    -0.261    -0.244  0.4635  0.6191  0.6340
    40 H(1)   Bbb    -0.0005    -0.246    -0.088    -0.082 -0.3325 -0.5417  0.7720
              Bcc     0.0018     0.976     0.348     0.326  0.8214 -0.5686 -0.0453
 
              Baa    -0.0035    -1.884    -0.672    -0.629  0.5587  0.4258  0.7117
    41 H(1)   Bbb     0.0000     0.005     0.002     0.002 -0.6181  0.7859  0.0150
              Bcc     0.0035     1.879     0.671     0.627 -0.5530 -0.4483  0.7023
 

 ---------------------------------------------------------------------------------

 No NMR shielding tensors so no spin-rotation constants.
 Leave Link  601 at Wed Nov  5 21:50:15 2025, MaxMem= 30870077440 cpu:             121.8 elap:               2.1
 (Enter /public/software/gauss/g16/l9999.exe)
 1\1\GINC-CU015\SP\UM062X\def2TZVPP\C20H14B1F2N3O1(1-,2)\BAIDING\05-Nov
 -2025\0\\#p M062X/DEF2TZVPP scrf=(solvent=water) em=GD3\\Energy calcul
 ation for M100023894_reduced\\-1,2\F,0,-0.934432,2.299949,1.24858\B,0,
 -0.404585,1.725788,0.064306\F,0,-1.184936,2.173109,-1.018668\N,0,1.052
 251,2.179172,-0.101731\C,0,1.459024,3.487353,-0.164051\C,0,2.846077,3.
 540332,-0.181758\C,0,3.313058,2.210109,-0.120188\C,0,2.181672,1.369136
 ,-0.076596\C,0,2.045042,-0.04927,0.013937\C,0,0.737393,-0.608614,0.084
 933\C,0,0.335222,-1.964476,0.026796\C,0,-1.056719,-1.991992,0.051504\C
 ,0,-1.514976,-0.665178,0.126018\C,0,-2.896701,-0.260011,0.184724\C,0,-
 3.537477,0.913434,0.64577\C,0,-4.915665,0.727657,0.52059\C,0,-5.132676
 ,-0.550559,-0.01497\N,0,-3.887599,-1.122697,-0.205451\C,0,-6.346243,-1
 .217683,-0.346954\O,0,-6.415193,-2.36491,-0.829371\N,0,-0.410948,0.180
 887,0.145861\C,0,3.236863,-0.923344,0.008707\C,0,3.386235,-1.961494,0.
 952042\C,0,4.512368,-2.783696,0.948764\C,0,5.525301,-2.5918,0.005463\C
 ,0,5.39651,-1.566963,-0.935643\C,0,4.269917,-0.745265,-0.935113\H,0,0.
 735814,4.290861,-0.18529\H,0,3.446466,4.439213,-0.232556\H,0,4.342681,
 1.883756,-0.100954\H,0,0.99889,-2.813937,-0.034608\H,0,-1.685154,-2.87
 3022,0.045268\H,0,-3.025211,1.771584,1.048273\H,0,-5.695436,1.426521,0
 .793127\H,0,-3.748558,-2.036709,-0.614278\H,0,-7.262774,-0.633797,-0.1
 45017\H,0,2.618757,-2.108226,1.70509\H,0,4.603014,-3.570348,1.692604\H
 ,0,6.402778,-3.231538,0.004125\H,0,6.171966,-1.411494,-1.680521\H,0,4.
 174273,0.032366,-1.685642\\Version=ES64L-G16RevA.03\State=2-A\HF=-1234
 .9169856\S2=0.777474\S2-1=0.\S2A=0.750602\RMSD=8.560e-09\Dipole=2.1375
 09,-1.4610529,0.367017\Quadrupole=-12.2208435,3.7212306,8.4996128,-18.
 8286549,-8.7271038,-4.08019\PG=C01 [X(C20H14B1F2N3O1)]\\@


 THIS CURIOUS WORLD WHICH WE INHABIT IS MORE WONDERFUL THAN IT IS CONVENIENT;
 MORE BEAUTIFUL THAN IT IS USEFUL;
 IT IS MORE TO BE ADMIRED THAN IT IS TO BE USED.

                                                                 -- THOREAU
 Job cpu time:       0 days 12 hours 49 minutes  8.7 seconds.
 Elapsed time:       0 days  0 hours 12 minutes  8.5 seconds.
 File lengths (MBytes):  RWF=   1158 Int=      0 D2E=      0 Chk=     76 Scr=      1
 Normal termination of Gaussian 16 at Wed Nov  5 21:50:16 2025.
