 Entering Gaussian System, Link 0=g16
 Input=M100479509_reduced_sp.gjf
 Output=M100479509_reduced_sp.log
 Initial command:
 /public/software/gauss/g16/l1.exe "/public/home/baiding/1101_v2_sp/tmp_M100479509_reduced_sp_1575143/Gau-1467586.inp" -scrdir="/public/home/baiding/1101_v2_sp/tmp_M100479509_reduced_sp_1575143/"
 Entering Link 1 = /public/software/gauss/g16/l1.exe PID=   1467587.
  
 Copyright (c) 1988,1990,1992,1993,1995,1998,2003,2009,2016,
            Gaussian, Inc.  All Rights Reserved.
  
 This is part of the Gaussian(R) 16 program.  It is based on
 the Gaussian(R) 09 system (copyright 2009, Gaussian, Inc.),
 the Gaussian(R) 03 system (copyright 2003, Gaussian, Inc.),
 the Gaussian(R) 98 system (copyright 1998, Gaussian, Inc.),
 the Gaussian(R) 94 system (copyright 1995, Gaussian, Inc.),
 the Gaussian 92(TM) system (copyright 1992, Gaussian, Inc.),
 the Gaussian 90(TM) system (copyright 1990, Gaussian, Inc.),
 the Gaussian 88(TM) system (copyright 1988, Gaussian, Inc.),
 the Gaussian 86(TM) system (copyright 1986, Carnegie Mellon
 University), and the Gaussian 82(TM) system (copyright 1983,
 Carnegie Mellon University). Gaussian is a federally registered
 trademark of Gaussian, Inc.
  
 This software contains proprietary and confidential information,
 including trade secrets, belonging to Gaussian, Inc.
  
 This software is provided under written license and may be
 used, copied, transmitted, or stored only in accord with that
 written license.
  
 The following legend is applicable only to US Government
 contracts under FAR:
  
                    RESTRICTED RIGHTS LEGEND
  
 Use, reproduction and disclosure by the US Government is
 subject to restrictions as set forth in subparagraphs (a)
 and (c) of the Commercial Computer Software - Restricted
 Rights clause in FAR 52.227-19.
  
 Gaussian, Inc.
 340 Quinnipiac St., Bldg. 40, Wallingford CT 06492
  
  
 ---------------------------------------------------------------
 Warning -- This program may not be used in any manner that
 competes with the business of Gaussian, Inc. or will provide
 assistance to any competitor of Gaussian, Inc.  The licensee
 of this program is prohibited from giving any competitor of
 Gaussian, Inc. access to this program.  By using this program,
 the user acknowledges that Gaussian, Inc. is engaged in the
 business of creating and licensing software in the field of
 computational chemistry and represents and warrants to the
 licensee that it is not a competitor of Gaussian, Inc. and that
 it will not use this program in any manner prohibited above.
 ---------------------------------------------------------------
  

 Cite this work as:
 Gaussian 16, Revision A.03,
 M. J. Frisch, G. W. Trucks, H. B. Schlegel, G. E. Scuseria, 
 M. A. Robb, J. R. Cheeseman, G. Scalmani, V. Barone, 
 G. A. Petersson, H. Nakatsuji, X. Li, M. Caricato, A. V. Marenich, 
 J. Bloino, B. G. Janesko, R. Gomperts, B. Mennucci, H. P. Hratchian, 
 J. V. Ortiz, A. F. Izmaylov, J. L. Sonnenberg, D. Williams-Young, 
 F. Ding, F. Lipparini, F. Egidi, J. Goings, B. Peng, A. Petrone, 
 T. Henderson, D. Ranasinghe, V. G. Zakrzewski, J. Gao, N. Rega, 
 G. Zheng, W. Liang, M. Hada, M. Ehara, K. Toyota, R. Fukuda, 
 J. Hasegawa, M. Ishida, T. Nakajima, Y. Honda, O. Kitao, H. Nakai, 
 T. Vreven, K. Throssell, J. A. Montgomery, Jr., J. E. Peralta, 
 F. Ogliaro, M. J. Bearpark, J. J. Heyd, E. N. Brothers, K. N. Kudin, 
 V. N. Staroverov, T. A. Keith, R. Kobayashi, J. Normand, 
 K. Raghavachari, A. P. Rendell, J. C. Burant, S. S. Iyengar, 
 J. Tomasi, M. Cossi, J. M. Millam, M. Klene, C. Adamo, R. Cammi, 
 J. W. Ochterski, R. L. Martin, K. Morokuma, O. Farkas, 
 J. B. Foresman, and D. J. Fox, Gaussian, Inc., Wallingford CT, 2016.
 
 ******************************************
 Gaussian 16:  ES64L-G16RevA.03 25-Dec-2016
                 8-Nov-2025 
 ******************************************
 %nprocshared=64
 Will use up to   64 processors via shared memory.
 %mem=230GB
 %chk=M100479509_reduced_sp.chk
 ----------------------------------------------
 #p M062X/DEF2TZVPP scrf=(solvent=water) em=GD3
 ----------------------------------------------
 1/38=1,172=1/1;
 2/12=2,17=6,18=5,40=1/2;
 3/5=44,7=202,11=2,25=1,30=1,70=2201,72=1,74=-55,124=31/1,2,3;
 4//1;
 5/5=2,38=5,53=1/2;
 6/7=2,8=2,9=2,10=2,28=1/1;
 99/5=1,9=1/99;
 Leave Link    1 at Sat Nov  8 06:06:17 2025, MaxMem= 30870077440 cpu:              21.5 elap:               0.3
 (Enter /public/software/gauss/g16/l101.exe)
 -----------------------------------------
 Energy calculation for M100479509_reduced
 -----------------------------------------
 Symbolic Z-matrix:
 Charge = -1 Multiplicity = 2
 C                    -5.63175  -2.17237  -1.92336 
 C                    -6.08056  -1.81243  -0.50568 
 C                    -5.81653  -0.36118  -0.1228 
 C                    -4.59118   0.27844   0.0439 
 C                    -3.31307  -0.26247  -0.09672 
 C                    -2.06486   0.44124   0.08931 
 C                    -0.84825  -0.26394  -0.0928 
 C                     0.372     0.38048   0.07624 
 C                     0.44517   1.74967   0.42902 
 C                    -0.74913   2.4528    0.61486 
 C                    -1.97694   1.81219   0.44853 
 C                     1.90289   2.20511   0.56517 
 C                     2.33334   3.28283  -0.48585 
 C                     1.43544   4.50573  -0.70586 
 C                     2.28184   2.59265   2.03154 
 C                     1.68901   3.8662    2.64105 
 C                     2.64019   0.89947   0.23325 
 C                     4.01026   0.67464   0.19906 
 C                     4.4947   -0.60432  -0.13676 
 N                     5.89571  -0.84968  -0.18462 
 C                     6.4256   -2.04806   0.368 
 C                     5.9346   -2.55045   1.58491 
 C                     6.44974  -3.73125   2.11783 
 C                     7.47128  -4.42232   1.46121 
 C                     7.96719  -3.9206    0.25514 
 C                     7.44645  -2.7501   -0.29486 
 C                     6.76417   0.10733  -0.77758 
 C                     6.39596   0.76611  -1.96286 
 C                     7.24568   1.71121  -2.53592 
 C                     8.48081   2.00473  -1.95224 
 C                     8.85315   1.34514  -0.77815 
 C                     8.0027    0.41141  -0.18765 
 C                     3.58494  -1.6392   -0.42393 
 C                     2.21038  -1.41565  -0.3709 
 C                     1.73561  -0.14213  -0.04655 
 C                    -7.11026   0.25225   0.04283 
 C                    -7.31342   1.59759   0.3966 
 N                    -7.41602   2.72684   0.6934 
 C                    -5.60862  -2.82901   0.53558 
 O                    -7.56314  -1.89819  -0.51492 
 C                    -8.10657  -0.70095  -0.19953 
 C                    -9.52139  -0.63759  -0.17381 
 C                    -10.28166  -1.78973  -0.4673 
 N                    -10.9238  -2.74055  -0.70913 
 C                    -10.22562   0.54347   0.13617 
 N                    -10.8435   1.50734   0.38895 
 H                    -5.97947  -3.17741  -2.18039 
 H                    -6.03909  -1.46068  -2.64649 
 H                    -4.5419   -2.15536  -1.99545 
 H                    -4.66461   1.32981   0.31822 
 H                    -3.21143  -1.30915  -0.3693 
 H                    -0.88083  -1.31634  -0.36443 
 H                    -0.74225   3.50275   0.88523 
 H                    -2.88445   2.38746   0.60019 
 H                     3.34207   3.61592  -0.21034 
 H                     2.43814   2.77542  -1.45198 
 H                     1.26738   5.08847   0.2025 
 H                     1.90601   5.17018  -1.43928 
 H                     0.45901   4.21978  -1.10671 
 H                     2.01523   1.74121   2.66975 
 H                     3.37548   2.67056   2.06908 
 H                     2.00155   3.94335   3.68852 
 H                     2.03668   4.76992   2.13379 
 H                     0.59541   3.86599   2.62872 
 H                     4.71279   1.46935   0.42891 
 H                     5.15195  -2.01314   2.10996 
 H                     6.05799  -4.10355   3.06002 
 H                     7.87461  -5.3377    1.88284 
 H                     8.75586  -4.44959  -0.27209 
 H                     7.82746  -2.37732  -1.23974 
 H                     5.4457    0.53392  -2.432 
 H                     6.9439    2.20967  -3.45261 
 H                     9.14271   2.73628  -2.40512 
 H                     9.80626   1.56725  -0.30685 
 H                     8.29451  -0.08363   0.73253 
 H                     3.96292  -2.62024  -0.6913 
 H                     1.52308  -2.22626  -0.59614 
 H                    -5.99485  -2.57188   1.52556 
 H                    -5.96152  -3.82893   0.266 
 H                    -4.5176   -2.84991   0.58313 
 
 ITRead=  0  0  0  0  0  0  0  0  0  0  0  0  0  0  0  0  0  0  0  0
 ITRead=  0  0  0  0  0  0  0  0  0  0  0  0  0  0  0  0  0  0  0  0
 ITRead=  0  0  0  0  0  0  0  0  0  0  0  0  0  0  0  0  0  0  0  0
 ITRead=  0  0  0  0  0  0  0  0  0  0  0  0  0  0  0  0  0  0  0  0
 MicOpt= -1 -1 -1 -1 -1 -1 -1 -1 -1 -1 -1 -1 -1 -1 -1 -1 -1 -1 -1 -1
 MicOpt= -1 -1 -1 -1 -1 -1 -1 -1 -1 -1 -1 -1 -1 -1 -1 -1 -1 -1 -1 -1
 MicOpt= -1 -1 -1 -1 -1 -1 -1 -1 -1 -1 -1 -1 -1 -1 -1 -1 -1 -1 -1 -1
 MicOpt= -1 -1 -1 -1 -1 -1 -1 -1 -1 -1 -1 -1 -1 -1 -1 -1 -1 -1 -1 -1
 NAtoms=     80 NQM=       80 NQMF=       0 NMMI=      0 NMMIF=      0
                NMic=       0 NMicF=      0.
                    Isotopes and Nuclear Properties:
 (Nuclear quadrupole moments (NQMom) in fm**2, nuclear magnetic moments (NMagM)
  in nuclear magnetons)

  Atom         1           2           3           4           5           6           7           8           9          10
 IAtWgt=          12          12          12          12          12          12          12          12          12          12
 AtmWgt=  12.0000000  12.0000000  12.0000000  12.0000000  12.0000000  12.0000000  12.0000000  12.0000000  12.0000000  12.0000000
 NucSpn=           0           0           0           0           0           0           0           0           0           0
 AtZEff=  -0.0000000  -0.0000000  -0.0000000  -0.0000000  -0.0000000  -0.0000000  -0.0000000  -0.0000000  -0.0000000  -0.0000000
 NQMom=    0.0000000   0.0000000   0.0000000   0.0000000   0.0000000   0.0000000   0.0000000   0.0000000   0.0000000   0.0000000
 NMagM=    0.0000000   0.0000000   0.0000000   0.0000000   0.0000000   0.0000000   0.0000000   0.0000000   0.0000000   0.0000000
 AtZNuc=   6.0000000   6.0000000   6.0000000   6.0000000   6.0000000   6.0000000   6.0000000   6.0000000   6.0000000   6.0000000

  Atom        11          12          13          14          15          16          17          18          19          20
 IAtWgt=          12          12          12          12          12          12          12          12          12          14
 AtmWgt=  12.0000000  12.0000000  12.0000000  12.0000000  12.0000000  12.0000000  12.0000000  12.0000000  12.0000000  14.0030740
 NucSpn=           0           0           0           0           0           0           0           0           0           2
 AtZEff=  -0.0000000  -0.0000000  -0.0000000  -0.0000000  -0.0000000  -0.0000000  -0.0000000  -0.0000000  -0.0000000  -0.0000000
 NQMom=    0.0000000   0.0000000   0.0000000   0.0000000   0.0000000   0.0000000   0.0000000   0.0000000   0.0000000   2.0440000
 NMagM=    0.0000000   0.0000000   0.0000000   0.0000000   0.0000000   0.0000000   0.0000000   0.0000000   0.0000000   0.4037610
 AtZNuc=   6.0000000   6.0000000   6.0000000   6.0000000   6.0000000   6.0000000   6.0000000   6.0000000   6.0000000   7.0000000

  Atom        21          22          23          24          25          26          27          28          29          30
 IAtWgt=          12          12          12          12          12          12          12          12          12          12
 AtmWgt=  12.0000000  12.0000000  12.0000000  12.0000000  12.0000000  12.0000000  12.0000000  12.0000000  12.0000000  12.0000000
 NucSpn=           0           0           0           0           0           0           0           0           0           0
 AtZEff=  -0.0000000  -0.0000000  -0.0000000  -0.0000000  -0.0000000  -0.0000000  -0.0000000  -0.0000000  -0.0000000  -0.0000000
 NQMom=    0.0000000   0.0000000   0.0000000   0.0000000   0.0000000   0.0000000   0.0000000   0.0000000   0.0000000   0.0000000
 NMagM=    0.0000000   0.0000000   0.0000000   0.0000000   0.0000000   0.0000000   0.0000000   0.0000000   0.0000000   0.0000000
 AtZNuc=   6.0000000   6.0000000   6.0000000   6.0000000   6.0000000   6.0000000   6.0000000   6.0000000   6.0000000   6.0000000

  Atom        31          32          33          34          35          36          37          38          39          40
 IAtWgt=          12          12          12          12          12          12          12          14          12          16
 AtmWgt=  12.0000000  12.0000000  12.0000000  12.0000000  12.0000000  12.0000000  12.0000000  14.0030740  12.0000000  15.9949146
 NucSpn=           0           0           0           0           0           0           0           2           0           0
 AtZEff=  -0.0000000  -0.0000000  -0.0000000  -0.0000000  -0.0000000  -0.0000000  -0.0000000  -0.0000000  -0.0000000  -0.0000000
 NQMom=    0.0000000   0.0000000   0.0000000   0.0000000   0.0000000   0.0000000   0.0000000   2.0440000   0.0000000   0.0000000
 NMagM=    0.0000000   0.0000000   0.0000000   0.0000000   0.0000000   0.0000000   0.0000000   0.4037610   0.0000000   0.0000000
 AtZNuc=   6.0000000   6.0000000   6.0000000   6.0000000   6.0000000   6.0000000   6.0000000   7.0000000   6.0000000   8.0000000

  Atom        41          42          43          44          45          46          47          48          49          50
 IAtWgt=          12          12          12          14          12          14           1           1           1           1
 AtmWgt=  12.0000000  12.0000000  12.0000000  14.0030740  12.0000000  14.0030740   1.0078250   1.0078250   1.0078250   1.0078250
 NucSpn=           0           0           0           2           0           2           1           1           1           1
 AtZEff=  -0.0000000  -0.0000000  -0.0000000  -0.0000000  -0.0000000  -0.0000000  -0.0000000  -0.0000000  -0.0000000  -0.0000000
 NQMom=    0.0000000   0.0000000   0.0000000   2.0440000   0.0000000   2.0440000   0.0000000   0.0000000   0.0000000   0.0000000
 NMagM=    0.0000000   0.0000000   0.0000000   0.4037610   0.0000000   0.4037610   2.7928460   2.7928460   2.7928460   2.7928460
 AtZNuc=   6.0000000   6.0000000   6.0000000   7.0000000   6.0000000   7.0000000   1.0000000   1.0000000   1.0000000   1.0000000

  Atom        51          52          53          54          55          56          57          58          59          60
 IAtWgt=           1           1           1           1           1           1           1           1           1           1
 AtmWgt=   1.0078250   1.0078250   1.0078250   1.0078250   1.0078250   1.0078250   1.0078250   1.0078250   1.0078250   1.0078250
 NucSpn=           1           1           1           1           1           1           1           1           1           1
 AtZEff=  -0.0000000  -0.0000000  -0.0000000  -0.0000000  -0.0000000  -0.0000000  -0.0000000  -0.0000000  -0.0000000  -0.0000000
 NQMom=    0.0000000   0.0000000   0.0000000   0.0000000   0.0000000   0.0000000   0.0000000   0.0000000   0.0000000   0.0000000
 NMagM=    2.7928460   2.7928460   2.7928460   2.7928460   2.7928460   2.7928460   2.7928460   2.7928460   2.7928460   2.7928460
 AtZNuc=   1.0000000   1.0000000   1.0000000   1.0000000   1.0000000   1.0000000   1.0000000   1.0000000   1.0000000   1.0000000

  Atom        61          62          63          64          65          66          67          68          69          70
 IAtWgt=           1           1           1           1           1           1           1           1           1           1
 AtmWgt=   1.0078250   1.0078250   1.0078250   1.0078250   1.0078250   1.0078250   1.0078250   1.0078250   1.0078250   1.0078250
 NucSpn=           1           1           1           1           1           1           1           1           1           1
 AtZEff=  -0.0000000  -0.0000000  -0.0000000  -0.0000000  -0.0000000  -0.0000000  -0.0000000  -0.0000000  -0.0000000  -0.0000000
 NQMom=    0.0000000   0.0000000   0.0000000   0.0000000   0.0000000   0.0000000   0.0000000   0.0000000   0.0000000   0.0000000
 NMagM=    2.7928460   2.7928460   2.7928460   2.7928460   2.7928460   2.7928460   2.7928460   2.7928460   2.7928460   2.7928460
 AtZNuc=   1.0000000   1.0000000   1.0000000   1.0000000   1.0000000   1.0000000   1.0000000   1.0000000   1.0000000   1.0000000

  Atom        71          72          73          74          75          76          77          78          79          80
 IAtWgt=           1           1           1           1           1           1           1           1           1           1
 AtmWgt=   1.0078250   1.0078250   1.0078250   1.0078250   1.0078250   1.0078250   1.0078250   1.0078250   1.0078250   1.0078250
 NucSpn=           1           1           1           1           1           1           1           1           1           1
 AtZEff=  -0.0000000  -0.0000000  -0.0000000  -0.0000000  -0.0000000  -0.0000000  -0.0000000  -0.0000000  -0.0000000  -0.0000000
 NQMom=    0.0000000   0.0000000   0.0000000   0.0000000   0.0000000   0.0000000   0.0000000   0.0000000   0.0000000   0.0000000
 NMagM=    2.7928460   2.7928460   2.7928460   2.7928460   2.7928460   2.7928460   2.7928460   2.7928460   2.7928460   2.7928460
 AtZNuc=   1.0000000   1.0000000   1.0000000   1.0000000   1.0000000   1.0000000   1.0000000   1.0000000   1.0000000   1.0000000
 Leave Link  101 at Sat Nov  8 06:06:17 2025, MaxMem= 30870077440 cpu:               4.0 elap:               0.1
 (Enter /public/software/gauss/g16/l202.exe)
 Stoichiometry    C41H34N4O(1-,2)
 Framework group  C1[X(C41H34N4O)]
 Deg. of freedom   234
 Full point group                 C1      NOp   1
 Largest Abelian subgroup         C1      NOp   1
 Largest concise Abelian subgroup C1      NOp   1
                         Standard orientation:                         
 ---------------------------------------------------------------------
 Center     Atomic      Atomic             Coordinates (Angstroms)
 Number     Number       Type             X           Y           Z
 ---------------------------------------------------------------------
      1          6           0        5.631747    2.172371   -1.923356
      2          6           0        6.080565    1.812432   -0.505681
      3          6           0        5.816534    0.361184   -0.122801
      4          6           0        4.591178   -0.278439    0.043902
      5          6           0        3.313066    0.262466   -0.096719
      6          6           0        2.064862   -0.441237    0.089312
      7          6           0        0.848251    0.263944   -0.092799
      8          6           0       -0.372002   -0.380475    0.076238
      9          6           0       -0.445171   -1.749667    0.429023
     10          6           0        0.749129   -2.452803    0.614857
     11          6           0        1.976941   -1.812192    0.448525
     12          6           0       -1.902886   -2.205114    0.565170
     13          6           0       -2.333336   -3.282827   -0.485850
     14          6           0       -1.435435   -4.505729   -0.705856
     15          6           0       -2.281836   -2.592653    2.031536
     16          6           0       -1.689006   -3.866201    2.641047
     17          6           0       -2.640194   -0.899472    0.233248
     18          6           0       -4.010261   -0.674644    0.199064
     19          6           0       -4.494700    0.604324   -0.136756
     20          7           0       -5.895708    0.849676   -0.184622
     21          6           0       -6.425596    2.048055    0.368004
     22          6           0       -5.934604    2.550454    1.584909
     23          6           0       -6.449744    3.731250    2.117826
     24          6           0       -7.471281    4.422323    1.461208
     25          6           0       -7.967187    3.920597    0.255135
     26          6           0       -7.446454    2.750101   -0.294858
     27          6           0       -6.764173   -0.107326   -0.777584
     28          6           0       -6.395957   -0.766107   -1.962857
     29          6           0       -7.245685   -1.711211   -2.535916
     30          6           0       -8.480807   -2.004731   -1.952244
     31          6           0       -8.853150   -1.345140   -0.778153
     32          6           0       -8.002702   -0.411410   -0.187645
     33          6           0       -3.584944    1.639202   -0.423929
     34          6           0       -2.210381    1.415648   -0.370896
     35          6           0       -1.735608    0.142127   -0.046550
     36          6           0        7.110263   -0.252252    0.042826
     37          6           0        7.313423   -1.597585    0.396595
     38          7           0        7.416022   -2.726842    0.693396
     39          6           0        5.608623    2.829012    0.535584
     40          8           0        7.563142    1.898187   -0.514919
     41          6           0        8.106566    0.700950   -0.199531
     42          6           0        9.521385    0.637585   -0.173805
     43          6           0       10.281655    1.789729   -0.467298
     44          7           0       10.923800    2.740548   -0.709132
     45          6           0       10.225624   -0.543471    0.136165
     46          7           0       10.843497   -1.507337    0.388950
     47          1           0        5.979471    3.177410   -2.180392
     48          1           0        6.039089    1.460684   -2.646488
     49          1           0        4.541903    2.155358   -1.995448
     50          1           0        4.664611   -1.329806    0.318219
     51          1           0        3.211428    1.309146   -0.369304
     52          1           0        0.880827    1.316344   -0.364430
     53          1           0        0.742249   -3.502752    0.885229
     54          1           0        2.884454   -2.387460    0.600185
     55          1           0       -3.342072   -3.615923   -0.210340
     56          1           0       -2.438136   -2.775422   -1.451982
     57          1           0       -1.267379   -5.088467    0.202499
     58          1           0       -1.906013   -5.170184   -1.439282
     59          1           0       -0.459005   -4.219781   -1.106709
     60          1           0       -2.015234   -1.741212    2.669751
     61          1           0       -3.375482   -2.670555    2.069077
     62          1           0       -2.001549   -3.943350    3.688517
     63          1           0       -2.036681   -4.769924    2.133790
     64          1           0       -0.595411   -3.865985    2.628718
     65          1           0       -4.712789   -1.469350    0.428909
     66          1           0       -5.151947    2.013136    2.109955
     67          1           0       -6.057990    4.103550    3.060020
     68          1           0       -7.874610    5.337697    1.882844
     69          1           0       -8.755864    4.449593   -0.272090
     70          1           0       -7.827457    2.377319   -1.239744
     71          1           0       -5.445695   -0.533921   -2.432003
     72          1           0       -6.943900   -2.209667   -3.452606
     73          1           0       -9.142707   -2.736281   -2.405123
     74          1           0       -9.806264   -1.567250   -0.306849
     75          1           0       -8.294514    0.083628    0.732526
     76          1           0       -3.962919    2.620236   -0.691304
     77          1           0       -1.523075    2.226255   -0.596144
     78          1           0        5.994847    2.571875    1.525559
     79          1           0        5.961524    3.828930    0.265997
     80          1           0        4.517595    2.849909    0.583126
 ---------------------------------------------------------------------
 Rotational constants (GHZ):           0.1486020           0.0214613           0.0196912
 Leave Link  202 at Sat Nov  8 06:06:17 2025, MaxMem= 30870077440 cpu:               0.2 elap:               0.0
 (Enter /public/software/gauss/g16/l301.exe)
 Standard basis: def2TZVPP (5D, 7F)
 Ernie: Thresh=  0.10000D-02 Tol=  0.10000D-05 Strict=F.
 There are  2166 symmetry adapted cartesian basis functions of A   symmetry.
 There are  1902 symmetry adapted basis functions of A   symmetry.
  1902 basis functions,  2924 primitive gaussians,  2166 cartesian basis functions
   159 alpha electrons      158 beta electrons
       nuclear repulsion energy      4816.3212347485 Hartrees.
 IExCor= 4336 DFT=T Ex+Corr=M062X ExCW=0 ScaHFX=  0.540000
 ScaDFX=  1.000000  1.000000  1.000000  1.000000 ScalE2=  1.000000  1.000000
 IRadAn=      5 IRanWt=     -1 IRanGd=            0 ICorTp=0 IEmpDi=131
 NAtoms=   80 NActive=   80 NUniq=   80 SFac= 1.00D+00 NAtFMM=   60 NAOKFM=T Big=T
 Integral buffers will be    131072 words long.
 Raffenetti 2 integral format.
 Two-electron integral symmetry is turned on.
 R6Disp:  Grimme-D3 Dispersion energy=       -0.0069574561 Hartrees.
 Nuclear repulsion after empirical dispersion term =     4816.3142772924 Hartrees.
 ------------------------------------------------------------------------------
 Polarizable Continuum Model (PCM)
 =================================
 Model                : PCM.
 Atomic radii         : UFF (Universal Force Field).
 Polarization charges : Total charges.
 Charge compensation  : None.
 Solution method      : On-the-fly selection.
 Cavity type          : Scaled VdW (van der Waals Surface) (Alpha=1.100).
 Cavity algorithm     : GePol (No added spheres)
                        Default sphere list used, NSphG=   80.
                        Lebedev-Laikov grids with approx.  5.0 points / Ang**2.
                        Smoothing algorithm: York/Karplus (Gamma=1.0000).
                        Polarization charges: spherical gaussians, with
                                              point-specific exponents (IZeta= 3).
                        Self-potential: point-specific (ISelfS= 7).
                        Self-field    : sphere-specific E.n sum rule (ISelfD= 2).
 Solvent              : Water, Eps=  78.355300 Eps(inf)=   1.777849
 ------------------------------------------------------------------------------
 GePol: Number of generator spheres                  =      80
 GePol: Total number of spheres                      =      80
 GePol: Number of exposed spheres                    =      80 (100.00%)
 GePol: Number of points                             =    5668
 GePol: Average weight of points                     =       0.13
 GePol: Minimum weight of points                     =   0.11D-08
 GePol: Maximum weight of points                     =    0.20577
 GePol: Number of points with low weight             =     362
 GePol: Fraction of low-weight points (<1% of avg)   =       6.39%
 GePol: Cavity surface area                          =    738.856 Ang**2
 GePol: Cavity volume                                =    853.340 Ang**3
 Leave Link  301 at Sat Nov  8 06:06:17 2025, MaxMem= 30870077440 cpu:               3.6 elap:               0.1
 (Enter /public/software/gauss/g16/l302.exe)
 NPDir=0 NMtPBC=     1 NCelOv=     1 NCel=       1 NClECP=     1 NCelD=      1
         NCelK=      1 NCelE2=     1 NClLst=     1 CellRange=     0.0.
 One-electron integrals computed using PRISM.
 One-electron integral symmetry used in STVInt
   1 Symmetry operations used in ECPInt.
 ECPInt:  NShTT=  252405 NPrTT=  712142 LenC2=  153568 LenP2D=  293083.
 LDataN:  DoStor=T MaxTD1= 6 Len=  172
 NBasis=  1902 RedAO= T EigKep=  3.92D-06  NBF=  1902
 NBsUse=  1902 1.00D-06 EigRej= -1.00D+00 NBFU=  1902
 Precomputing XC quadrature grid using
 IXCGrd= 4 IRadAn=           5 IRanWt=          -1 IRanGd=           0 AccXCQ= 0.00D+00.
 Generated NRdTot=       0 NPtTot=           0 NUsed=           0 NTot=          32
 NSgBfM=  1935  1935  1935  1935  1935 MxSgAt=    80 MxSgA2=    80.
 Leave Link  302 at Sat Nov  8 06:06:27 2025, MaxMem= 30870077440 cpu:             628.9 elap:               9.9
 (Enter /public/software/gauss/g16/l303.exe)
 DipDrv:  MaxL=1.
 Leave Link  303 at Sat Nov  8 06:06:28 2025, MaxMem= 30870077440 cpu:              29.1 elap:               0.5
 (Enter /public/software/gauss/g16/l401.exe)
 ExpMin= 9.52D-02 ExpMax= 2.70D+04 ExpMxC= 9.22D+02 IAcc=3 IRadAn=         5 AccDes= 0.00D+00
 Harris functional with IExCor= 1009 and IRadAn=       5 diagonalized for initial guess.
 HarFok:  IExCor= 1009 AccDes= 0.00D+00 IRadAn=         5 IDoV= 1 UseB2=F ITyADJ=14
 ICtDFT=  3500011 ScaDFX=  1.000000  1.000000  1.000000  1.000000
 FoFCou: FMM=F IPFlag=           0 FMFlag=      100000 FMFlg1=        2001
         NFxFlg=           0 DoJE=T BraDBF=F KetDBF=T FulRan=T
         wScrn=  0.000000 ICntrl=       500 IOpCl=  0 I1Cent=   200000004 NGrid=           0
         NMat0=    1 NMatS0=      1 NMatT0=    0 NMatD0=    1 NMtDS0=    0 NMtDT0=    0
 Petite list used in FoFCou.
 Harris En= -1876.29241376105    
 JPrj=0 DoOrth=F DoCkMO=F.
 Initial guess <Sx>= 0.0000 <Sy>= 0.0000 <Sz>= 0.5000 <S**2>= 0.7500 S= 0.5000
 Leave Link  401 at Sat Nov  8 06:06:39 2025, MaxMem= 30870077440 cpu:             736.7 elap:              11.6
 (Enter /public/software/gauss/g16/l502.exe)
 Integral symmetry usage will be decided dynamically.
 UHF open shell SCF:
 Using DIIS extrapolation, IDIIS=  1040.
 NGot= 30870077440 LenX= 30860537444 LenY= 30855843722
 Requested convergence on RMS density matrix=1.00D-08 within 128 cycles.
 Requested convergence on MAX density matrix=1.00D-06.
 Requested convergence on             energy=1.00D-06.
 No special actions if energy rises.
 Fock matrices will be formed incrementally for  20 cycles.

 Cycle   1  Pass 1  IDiag  1:
 FoFJK:  IHMeth= 1 ICntrl=       0 DoSepK=F KAlg= 0 I1Cent=           0 FoldK=F
 IRaf= 580000000 NMat=       1 IRICut=       1 DoRegI=T DoRafI=F ISym2E= 0 IDoP0=0 IntGTp=1.
 FoFCou: FMM=T IPFlag=           0 FMFlag=      100000 FMFlg1=        2001
         NFxFlg=           0 DoJE=F BraDBF=F KetDBF=F FulRan=T
         wScrn=  0.000000 ICntrl=         0 IOpCl=  1 I1Cent=           0 NGrid=           0
         NMat0=    1 NMatS0=      1 NMatT0=    0 NMatD0=    1 NMtDS0=    0 NMtDT0=    0
 Symmetry not used in FoFCou.
 FMM levels:  10  Number of levels for PrismC:   9
 Inv3:  Mode=1 IEnd=    96378672.
 Iteration    1 A*A^-1 deviation from unit magnitude is 1.35D-14 for    674.
 Iteration    1 A*A^-1 deviation from orthogonality  is 6.91D-15 for   5392    882.
 Iteration    1 A^-1*A deviation from unit magnitude is 1.35D-14 for    674.
 Iteration    1 A^-1*A deviation from orthogonality  is 7.40D-15 for   5611   1748.
 E= -1875.94314184371    
 DIIS: error= 2.01D-02 at cycle   1 NSaved=   1.
 NSaved= 1 IEnMin= 1 EnMin= -1875.94314184371     IErMin= 1 ErrMin= 2.01D-02
 ErrMax= 2.01D-02  0.00D+00 EMaxC= 1.00D-01 BMatC= 5.49D+00 BMatP= 5.49D+00
 IDIUse=3 WtCom= 7.99D-01 WtEn= 2.01D-01
 Coeff-Com:  0.100D+01
 Coeff-En:   0.100D+01
 Coeff:      0.100D+01
 Gap=     0.163 Goal=   None    Shift=    0.000
 Gap=     0.197 Goal=   None    Shift=    0.000
 GapD=    0.163 DampG=1.000 DampE=0.500 DampFc=0.5000 IDamp=-1.
 Damping current iteration by 5.00D-01
 RMSDP=1.77D-03 MaxDP=3.73D-01              OVMax= 2.19D-01

 Cycle   2  Pass 1  IDiag  1:
 RMSU=  8.77D-04    CP:  9.63D-01
 E= -1876.53022781665     Delta-E=       -0.587085972938 Rises=F Damp=T
 DIIS: error= 6.10D-03 at cycle   2 NSaved=   2.
 NSaved= 2 IEnMin= 2 EnMin= -1876.53022781665     IErMin= 2 ErrMin= 6.10D-03
 ErrMax= 6.10D-03  0.00D+00 EMaxC= 1.00D-01 BMatC= 5.31D-01 BMatP= 5.49D+00
 IDIUse=3 WtCom= 9.39D-01 WtEn= 6.10D-02
 Coeff-Com: -0.135D+00 0.113D+01
 Coeff-En:   0.000D+00 0.100D+01
 Coeff:     -0.127D+00 0.113D+01
 Gap=     0.195 Goal=   None    Shift=    0.000
 Gap=     0.192 Goal=   None    Shift=    0.000
 RMSDP=7.59D-04 MaxDP=7.43D-02 DE=-5.87D-01 OVMax= 1.51D-01

 Cycle   3  Pass 1  IDiag  1:
 RMSU=  7.41D-04    CP:  9.42D-01  1.16D+00
 E= -1877.01604293178     Delta-E=       -0.485815115128 Rises=F Damp=F
 DIIS: error= 1.26D-02 at cycle   3 NSaved=   3.
 NSaved= 3 IEnMin= 3 EnMin= -1877.01604293178     IErMin= 2 ErrMin= 6.10D-03
 ErrMax= 1.26D-02  0.00D+00 EMaxC= 1.00D-01 BMatC= 3.99D-01 BMatP= 5.31D-01
 IDIUse=3 WtCom= 8.74D-01 WtEn= 1.26D-01
 Coeff-Com: -0.140D+00 0.585D+00 0.555D+00
 Coeff-En:   0.000D+00 0.000D+00 0.100D+01
 Coeff:     -0.122D+00 0.511D+00 0.611D+00
 Gap=     0.163 Goal=   None    Shift=    0.000
 Gap=     0.175 Goal=   None    Shift=    0.000
 RMSDP=2.72D-04 MaxDP=4.58D-02 DE=-4.86D-01 OVMax= 7.57D-02

 Cycle   4  Pass 1  IDiag  1:
 RMSU=  2.13D-04    CP:  9.42D-01  1.30D+00  8.43D-01
 E= -1877.08391083125     Delta-E=       -0.067867899471 Rises=F Damp=F
 DIIS: error= 7.92D-03 at cycle   4 NSaved=   4.
 NSaved= 4 IEnMin= 4 EnMin= -1877.08391083125     IErMin= 2 ErrMin= 6.10D-03
 ErrMax= 7.92D-03  0.00D+00 EMaxC= 1.00D-01 BMatC= 1.16D-01 BMatP= 3.99D-01
 IDIUse=3 WtCom= 9.21D-01 WtEn= 7.92D-02
 Coeff-Com: -0.432D-01 0.127D+00 0.375D+00 0.541D+00
 Coeff-En:   0.000D+00 0.000D+00 0.242D+00 0.758D+00
 Coeff:     -0.397D-01 0.117D+00 0.365D+00 0.558D+00
 Gap=     0.161 Goal=   None    Shift=    0.000
 Gap=     0.168 Goal=   None    Shift=    0.000
 RMSDP=1.24D-04 MaxDP=2.76D-02 DE=-6.79D-02 OVMax= 2.96D-02

 Cycle   5  Pass 1  IDiag  1:
 RMSU=  6.81D-05    CP:  9.40D-01  1.23D+00  8.92D-01  6.65D-01
 E= -1877.10916190187     Delta-E=       -0.025251070616 Rises=F Damp=F
 DIIS: error= 1.54D-03 at cycle   5 NSaved=   5.
 NSaved= 5 IEnMin= 5 EnMin= -1877.10916190187     IErMin= 5 ErrMin= 1.54D-03
 ErrMax= 1.54D-03  0.00D+00 EMaxC= 1.00D-01 BMatC= 4.57D-03 BMatP= 1.16D-01
 IDIUse=3 WtCom= 9.85D-01 WtEn= 1.54D-02
 Coeff-Com: -0.126D-01 0.273D-01 0.157D+00 0.289D+00 0.540D+00
 Coeff-En:   0.000D+00 0.000D+00 0.000D+00 0.000D+00 0.100D+01
 Coeff:     -0.124D-01 0.269D-01 0.154D+00 0.284D+00 0.547D+00
 Gap=     0.163 Goal=   None    Shift=    0.000
 Gap=     0.167 Goal=   None    Shift=    0.000
 RMSDP=3.28D-05 MaxDP=8.61D-03 DE=-2.53D-02 OVMax= 7.52D-03

 Cycle   6  Pass 1  IDiag  1:
 RMSU=  2.75D-05    CP:  9.40D-01  1.25D+00  8.89D-01  6.65D-01  8.43D-01
 E= -1877.11018381223     Delta-E=       -0.001021910366 Rises=F Damp=F
 DIIS: error= 3.65D-04 at cycle   6 NSaved=   6.
 NSaved= 6 IEnMin= 6 EnMin= -1877.11018381223     IErMin= 6 ErrMin= 3.65D-04
 ErrMax= 3.65D-04  0.00D+00 EMaxC= 1.00D-01 BMatC= 4.68D-04 BMatP= 4.57D-03
 IDIUse=3 WtCom= 9.96D-01 WtEn= 3.65D-03
 Coeff-Com: -0.224D-03-0.291D-02 0.255D-01 0.599D-01 0.251D+00 0.667D+00
 Coeff-En:   0.000D+00 0.000D+00 0.000D+00 0.000D+00 0.000D+00 0.100D+01
 Coeff:     -0.223D-03-0.290D-02 0.254D-01 0.597D-01 0.250D+00 0.668D+00
 Gap=     0.164 Goal=   None    Shift=    0.000
 Gap=     0.169 Goal=   None    Shift=    0.000
 RMSDP=1.14D-05 MaxDP=1.32D-03 DE=-1.02D-03 OVMax= 6.81D-03

 Cycle   7  Pass 1  IDiag  1:
 RMSU=  1.05D-05    CP:  9.40D-01  1.25D+00  8.90D-01  6.72D-01  8.90D-01
                    CP:  1.10D+00
 E= -1877.11038192095     Delta-E=       -0.000198108714 Rises=F Damp=F
 DIIS: error= 1.65D-04 at cycle   7 NSaved=   7.
 NSaved= 7 IEnMin= 7 EnMin= -1877.11038192095     IErMin= 7 ErrMin= 1.65D-04
 ErrMax= 1.65D-04  0.00D+00 EMaxC= 1.00D-01 BMatC= 9.72D-05 BMatP= 4.68D-04
 IDIUse=3 WtCom= 9.98D-01 WtEn= 1.65D-03
 Coeff-Com:  0.252D-02-0.618D-02-0.249D-01-0.457D-01-0.555D-01 0.229D+00
 Coeff-Com:  0.901D+00
 Coeff-En:   0.000D+00 0.000D+00 0.000D+00 0.000D+00 0.000D+00 0.000D+00
 Coeff-En:   0.100D+01
 Coeff:      0.252D-02-0.617D-02-0.249D-01-0.456D-01-0.554D-01 0.228D+00
 Coeff:      0.901D+00
 Gap=     0.164 Goal=   None    Shift=    0.000
 Gap=     0.170 Goal=   None    Shift=    0.000
 RMSDP=9.32D-06 MaxDP=1.18D-03 DE=-1.98D-04 OVMax= 7.76D-03

 Cycle   8  Pass 1  IDiag  1:
 RMSU=  5.88D-06    CP:  9.40D-01  1.25D+00  8.92D-01  6.74D-01  9.28D-01
                    CP:  1.30D+00  1.36D+00
 E= -1877.11047170856     Delta-E=       -0.000089787612 Rises=F Damp=F
 DIIS: error= 8.06D-05 at cycle   8 NSaved=   8.
 NSaved= 8 IEnMin= 8 EnMin= -1877.11047170856     IErMin= 8 ErrMin= 8.06D-05
 ErrMax= 8.06D-05  0.00D+00 EMaxC= 1.00D-01 BMatC= 3.36D-05 BMatP= 9.72D-05
 IDIUse=1 WtCom= 1.00D+00 WtEn= 0.00D+00
 Coeff-Com:  0.120D-02-0.197D-02-0.185D-01-0.391D-01-0.106D+00-0.104D+00
 Coeff-Com:  0.412D+00 0.857D+00
 Coeff:      0.120D-02-0.197D-02-0.185D-01-0.391D-01-0.106D+00-0.104D+00
 Coeff:      0.412D+00 0.857D+00
 Gap=     0.165 Goal=   None    Shift=    0.000
 Gap=     0.171 Goal=   None    Shift=    0.000
 RMSDP=6.81D-06 MaxDP=1.14D-03 DE=-8.98D-05 OVMax= 5.72D-03

 Cycle   9  Pass 1  IDiag  1:
 RMSU=  3.16D-06    CP:  9.40D-01  1.25D+00  8.92D-01  6.76D-01  9.41D-01
                    CP:  1.43D+00  1.73D+00  1.36D+00
 E= -1877.11050690415     Delta-E=       -0.000035195595 Rises=F Damp=F
 DIIS: error= 3.92D-05 at cycle   9 NSaved=   9.
 NSaved= 9 IEnMin= 9 EnMin= -1877.11050690415     IErMin= 9 ErrMin= 3.92D-05
 ErrMax= 3.92D-05  0.00D+00 EMaxC= 1.00D-01 BMatC= 8.41D-06 BMatP= 3.36D-05
 IDIUse=1 WtCom= 1.00D+00 WtEn= 0.00D+00
 Coeff-Com: -0.385D-03 0.133D-02 0.103D-02-0.372D-03-0.261D-01-0.123D+00
 Coeff-Com: -0.115D+00 0.353D+00 0.909D+00
 Coeff:     -0.385D-03 0.133D-02 0.103D-02-0.372D-03-0.261D-01-0.123D+00
 Coeff:     -0.115D+00 0.353D+00 0.909D+00
 Gap=     0.165 Goal=   None    Shift=    0.000
 Gap=     0.171 Goal=   None    Shift=    0.000
 RMSDP=4.11D-06 MaxDP=5.01D-04 DE=-3.52D-05 OVMax= 3.60D-03

 Cycle  10  Pass 1  IDiag  1:
 RMSU=  1.62D-06    CP:  9.40D-01  1.25D+00  8.92D-01  6.78D-01  9.39D-01
                    CP:  1.48D+00  1.93D+00  1.74D+00  1.35D+00
 E= -1877.11051613210     Delta-E=       -0.000009227948 Rises=F Damp=F
 DIIS: error= 1.72D-05 at cycle  10 NSaved=  10.
 NSaved=10 IEnMin=10 EnMin= -1877.11051613210     IErMin=10 ErrMin= 1.72D-05
 ErrMax= 1.72D-05  0.00D+00 EMaxC= 1.00D-01 BMatC= 2.43D-06 BMatP= 8.41D-06
 IDIUse=1 WtCom= 1.00D+00 WtEn= 0.00D+00
 Coeff-Com: -0.495D-03 0.120D-02 0.495D-02 0.938D-02 0.109D-01-0.414D-01
 Coeff-Com: -0.146D+00-0.170D-01 0.458D+00 0.720D+00
 Coeff:     -0.495D-03 0.120D-02 0.495D-02 0.938D-02 0.109D-01-0.414D-01
 Coeff:     -0.146D+00-0.170D-01 0.458D+00 0.720D+00
 Gap=     0.165 Goal=   None    Shift=    0.000
 Gap=     0.171 Goal=   None    Shift=    0.000
 RMSDP=1.74D-06 MaxDP=4.33D-04 DE=-9.23D-06 OVMax= 1.37D-03

 Cycle  11  Pass 1  IDiag  1:
 RMSU=  7.69D-07    CP:  9.40D-01  1.25D+00  8.92D-01  6.79D-01  9.35D-01
                    CP:  1.50D+00  1.99D+00  1.84D+00  1.60D+00  1.17D+00
 E= -1877.11051767516     Delta-E=       -0.000001543062 Rises=F Damp=F
 DIIS: error= 1.12D-05 at cycle  11 NSaved=  11.
 NSaved=11 IEnMin=11 EnMin= -1877.11051767516     IErMin=11 ErrMin= 1.12D-05
 ErrMax= 1.12D-05  0.00D+00 EMaxC= 1.00D-01 BMatC= 4.66D-07 BMatP= 2.43D-06
 IDIUse=1 WtCom= 1.00D+00 WtEn= 0.00D+00
 Coeff-Com: -0.155D-03 0.319D-03 0.209D-02 0.457D-02 0.958D-02 0.231D-02
 Coeff-Com: -0.428D-01-0.729D-01 0.415D-01 0.329D+00 0.727D+00
 Coeff:     -0.155D-03 0.319D-03 0.209D-02 0.457D-02 0.958D-02 0.231D-02
 Coeff:     -0.428D-01-0.729D-01 0.415D-01 0.329D+00 0.727D+00
 Gap=     0.165 Goal=   None    Shift=    0.000
 Gap=     0.171 Goal=   None    Shift=    0.000
 RMSDP=5.99D-07 MaxDP=7.15D-05 DE=-1.54D-06 OVMax= 4.90D-04

 Cycle  12  Pass 1  IDiag  1:
 RMSU=  3.90D-07    CP:  9.40D-01  1.25D+00  8.92D-01  6.80D-01  9.35D-01
                    CP:  1.50D+00  2.00D+00  1.88D+00  1.65D+00  1.37D+00
                    CP:  1.06D+00
 E= -1877.11051798225     Delta-E=       -0.000000307085 Rises=F Damp=F
 DIIS: error= 5.37D-06 at cycle  12 NSaved=  12.
 NSaved=12 IEnMin=12 EnMin= -1877.11051798225     IErMin=12 ErrMin= 5.37D-06
 ErrMax= 5.37D-06  0.00D+00 EMaxC= 1.00D-01 BMatC= 1.19D-07 BMatP= 4.66D-07
 IDIUse=1 WtCom= 1.00D+00 WtEn= 0.00D+00
 Coeff-Com:  0.527D-04-0.149D-03-0.255D-03-0.187D-03 0.143D-02 0.995D-02
 Coeff-Com:  0.168D-01-0.283D-01-0.872D-01-0.217D-01 0.331D+00 0.779D+00
 Coeff:      0.527D-04-0.149D-03-0.255D-03-0.187D-03 0.143D-02 0.995D-02
 Coeff:      0.168D-01-0.283D-01-0.872D-01-0.217D-01 0.331D+00 0.779D+00
 Gap=     0.165 Goal=   None    Shift=    0.000
 Gap=     0.171 Goal=   None    Shift=    0.000
 RMSDP=3.60D-07 MaxDP=7.76D-05 DE=-3.07D-07 OVMax= 2.60D-04

 Cycle  13  Pass 1  IDiag  1:
 RMSU=  2.00D-07    CP:  9.40D-01  1.25D+00  8.92D-01  6.80D-01  9.34D-01
                    CP:  1.50D+00  2.00D+00  1.89D+00  1.68D+00  1.45D+00
                    CP:  1.28D+00  1.28D+00
 E= -1877.11051809231     Delta-E=       -0.000000110055 Rises=F Damp=F
 DIIS: error= 2.98D-06 at cycle  13 NSaved=  13.
 NSaved=13 IEnMin=13 EnMin= -1877.11051809231     IErMin=13 ErrMin= 2.98D-06
 ErrMax= 2.98D-06  0.00D+00 EMaxC= 1.00D-01 BMatC= 3.84D-08 BMatP= 1.19D-07
 IDIUse=1 WtCom= 1.00D+00 WtEn= 0.00D+00
 Coeff-Com:  0.675D-04-0.158D-03-0.693D-03-0.139D-02-0.215D-02 0.327D-02
 Coeff-Com:  0.194D-01 0.877D-02-0.477D-01-0.109D+00-0.849D-01 0.339D+00
 Coeff-Com:  0.875D+00
 Coeff:      0.675D-04-0.158D-03-0.693D-03-0.139D-02-0.215D-02 0.327D-02
 Coeff:      0.194D-01 0.877D-02-0.477D-01-0.109D+00-0.849D-01 0.339D+00
 Coeff:      0.875D+00
 Gap=     0.165 Goal=   None    Shift=    0.000
 Gap=     0.171 Goal=   None    Shift=    0.000
 RMSDP=2.52D-07 MaxDP=3.23D-05 DE=-1.10D-07 OVMax= 1.80D-04

 Cycle  14  Pass 1  IDiag  1:
 RMSU=  1.10D-07    CP:  9.40D-01  1.25D+00  8.92D-01  6.80D-01  9.34D-01
                    CP:  1.50D+00  2.01D+00  1.89D+00  1.69D+00  1.50D+00
                    CP:  1.39D+00  1.68D+00  1.37D+00
 E= -1877.11051814048     Delta-E=       -0.000000048175 Rises=F Damp=F
 DIIS: error= 1.46D-06 at cycle  14 NSaved=  14.
 NSaved=14 IEnMin=14 EnMin= -1877.11051814048     IErMin=14 ErrMin= 1.46D-06
 ErrMax= 1.46D-06  0.00D+00 EMaxC= 1.00D-01 BMatC= 1.28D-08 BMatP= 3.84D-08
 IDIUse=1 WtCom= 1.00D+00 WtEn= 0.00D+00
 Coeff-Com:  0.903D-05-0.122D-04-0.209D-03-0.559D-03-0.144D-02-0.192D-02
 Coeff-Com:  0.224D-02 0.135D-01 0.966D-02-0.413D-01-0.157D+00-0.124D+00
 Coeff-Com:  0.400D+00 0.901D+00
 Coeff:      0.903D-05-0.122D-04-0.209D-03-0.559D-03-0.144D-02-0.192D-02
 Coeff:      0.224D-02 0.135D-01 0.966D-02-0.413D-01-0.157D+00-0.124D+00
 Coeff:      0.400D+00 0.901D+00
 Gap=     0.165 Goal=   None    Shift=    0.000
 Gap=     0.171 Goal=   None    Shift=    0.000
 RMSDP=1.77D-07 MaxDP=2.42D-05 DE=-4.82D-08 OVMax= 1.10D-04

 Cycle  15  Pass 1  IDiag  1:
 RMSU=  6.25D-08    CP:  9.40D-01  1.25D+00  8.92D-01  6.80D-01  9.34D-01
                    CP:  1.50D+00  2.01D+00  1.90D+00  1.69D+00  1.53D+00
                    CP:  1.46D+00  1.93D+00  1.81D+00  1.52D+00
 E= -1877.11051815831     Delta-E=       -0.000000017829 Rises=F Damp=F
 DIIS: error= 5.72D-07 at cycle  15 NSaved=  15.
 NSaved=15 IEnMin=15 EnMin= -1877.11051815831     IErMin=15 ErrMin= 5.72D-07
 ErrMax= 5.72D-07  0.00D+00 EMaxC= 1.00D-01 BMatC= 3.53D-09 BMatP= 1.28D-08
 IDIUse=1 WtCom= 1.00D+00 WtEn= 0.00D+00
 Coeff-Com: -0.202D-04 0.503D-04 0.159D-03 0.258D-03 0.136D-03-0.199D-02
 Coeff-Com: -0.637D-02 0.323D-02 0.217D-01 0.213D-01-0.370D-01-0.178D+00
 Coeff-Com: -0.120D+00 0.392D+00 0.905D+00
 Coeff:     -0.202D-04 0.503D-04 0.159D-03 0.258D-03 0.136D-03-0.199D-02
 Coeff:     -0.637D-02 0.323D-02 0.217D-01 0.213D-01-0.370D-01-0.178D+00
 Coeff:     -0.120D+00 0.392D+00 0.905D+00
 Gap=     0.165 Goal=   None    Shift=    0.000
 Gap=     0.171 Goal=   None    Shift=    0.000
 RMSDP=1.02D-07 MaxDP=1.73D-05 DE=-1.78D-08 OVMax= 6.27D-05

 Cycle  16  Pass 1  IDiag  1:
 RMSU=  3.47D-08    CP:  9.40D-01  1.25D+00  8.92D-01  6.80D-01  9.34D-01
                    CP:  1.50D+00  2.01D+00  1.90D+00  1.70D+00  1.54D+00
                    CP:  1.48D+00  2.06D+00  2.03D+00  1.98D+00  1.43D+00
 E= -1877.11051816301     Delta-E=       -0.000000004698 Rises=F Damp=F
 DIIS: error= 2.75D-07 at cycle  16 NSaved=  16.
 NSaved=16 IEnMin=16 EnMin= -1877.11051816301     IErMin=16 ErrMin= 2.75D-07
 ErrMax= 2.75D-07  0.00D+00 EMaxC= 1.00D-01 BMatC= 6.37D-10 BMatP= 3.53D-09
 IDIUse=1 WtCom= 1.00D+00 WtEn= 0.00D+00
 Coeff-Com: -0.744D-05 0.169D-04 0.872D-04 0.186D-03 0.323D-03-0.228D-03
 Coeff-Com: -0.246D-02-0.148D-02 0.425D-02 0.151D-01 0.227D-01-0.332D-01
 Coeff-Com: -0.116D+00-0.711D-01 0.278D+00 0.903D+00
 Coeff:     -0.744D-05 0.169D-04 0.872D-04 0.186D-03 0.323D-03-0.228D-03
 Coeff:     -0.246D-02-0.148D-02 0.425D-02 0.151D-01 0.227D-01-0.332D-01
 Coeff:     -0.116D+00-0.711D-01 0.278D+00 0.903D+00
 Gap=     0.165 Goal=   None    Shift=    0.000
 Gap=     0.171 Goal=   None    Shift=    0.000
 RMSDP=4.00D-08 MaxDP=4.97D-06 DE=-4.70D-09 OVMax= 2.68D-05

 Cycle  17  Pass 1  IDiag  1:
 RMSU=  1.49D-08    CP:  9.40D-01  1.25D+00  8.92D-01  6.80D-01  9.34D-01
                    CP:  1.50D+00  2.01D+00  1.90D+00  1.70D+00  1.54D+00
                    CP:  1.49D+00  2.09D+00  2.11D+00  2.15D+00  1.74D+00
                    CP:  1.36D+00
 E= -1877.11051816386     Delta-E=       -0.000000000851 Rises=F Damp=F
 DIIS: error= 1.41D-07 at cycle  17 NSaved=  17.
 NSaved=17 IEnMin=17 EnMin= -1877.11051816386     IErMin=17 ErrMin= 1.41D-07
 ErrMax= 1.41D-07  0.00D+00 EMaxC= 1.00D-01 BMatC= 1.86D-10 BMatP= 6.37D-10
 IDIUse=1 WtCom= 1.00D+00 WtEn= 0.00D+00
 Coeff-Com:  0.193D-05-0.512D-05-0.429D-05 0.969D-05 0.925D-04 0.352D-03
 Coeff-Com:  0.488D-03-0.118D-02-0.348D-02 0.859D-03 0.176D-01 0.258D-01
 Coeff-Com: -0.145D-01-0.116D+00-0.108D+00 0.381D+00 0.817D+00
 Coeff:      0.193D-05-0.512D-05-0.429D-05 0.969D-05 0.925D-04 0.352D-03
 Coeff:      0.488D-03-0.118D-02-0.348D-02 0.859D-03 0.176D-01 0.258D-01
 Coeff:     -0.145D-01-0.116D+00-0.108D+00 0.381D+00 0.817D+00
 Gap=     0.165 Goal=   None    Shift=    0.000
 Gap=     0.171 Goal=   None    Shift=    0.000
 RMSDP=1.78D-08 MaxDP=2.33D-06 DE=-8.51D-10 OVMax= 1.27D-05

 Cycle  18  Pass 1  IDiag  1:
 RMSU=  7.36D-09    CP:  9.40D-01  1.25D+00  8.92D-01  6.80D-01  9.34D-01
                    CP:  1.50D+00  2.01D+00  1.90D+00  1.70D+00  1.54D+00
                    CP:  1.49D+00  2.10D+00  2.14D+00  2.20D+00  1.86D+00
                    CP:  1.62D+00  1.38D+00
 E= -1877.11051816390     Delta-E=       -0.000000000043 Rises=F Damp=F
 DIIS: error= 1.06D-07 at cycle  18 NSaved=  18.
 NSaved=18 IEnMin=18 EnMin= -1877.11051816390     IErMin=18 ErrMin= 1.06D-07
 ErrMax= 1.06D-07  0.00D+00 EMaxC= 1.00D-01 BMatC= 3.47D-11 BMatP= 1.86D-10
 IDIUse=1 WtCom= 1.00D+00 WtEn= 0.00D+00
 Coeff-Com:  0.173D-05-0.417D-05-0.164D-04-0.285D-04-0.222D-04 0.139D-03
 Coeff-Com:  0.584D-03-0.436D-04-0.170D-02-0.251D-02 0.104D-02 0.134D-01
 Coeff-Com:  0.200D-01-0.174D-01-0.993D-01-0.729D-01 0.258D+00 0.901D+00
 Coeff:      0.173D-05-0.417D-05-0.164D-04-0.285D-04-0.222D-04 0.139D-03
 Coeff:      0.584D-03-0.436D-04-0.170D-02-0.251D-02 0.104D-02 0.134D-01
 Coeff:      0.200D-01-0.174D-01-0.993D-01-0.729D-01 0.258D+00 0.901D+00
 Gap=     0.165 Goal=   None    Shift=    0.000
 Gap=     0.171 Goal=   None    Shift=    0.000
 RMSDP=8.68D-09 MaxDP=1.13D-06 DE=-4.27D-11 OVMax= 6.28D-06

 Cycle  19  Pass 1  IDiag  1:
 RMSU=  3.42D-09    CP:  9.40D-01  1.25D+00  8.92D-01  6.80D-01  9.34D-01
                    CP:  1.50D+00  2.01D+00  1.90D+00  1.70D+00  1.54D+00
                    CP:  1.49D+00  2.10D+00  2.15D+00  2.22D+00  1.92D+00
                    CP:  1.73D+00  1.63D+00  1.32D+00
 E= -1877.11051816384     Delta-E=        0.000000000064 Rises=F Damp=F
 DIIS: error= 4.66D-08 at cycle  19 NSaved=  19.
 NSaved=19 IEnMin=18 EnMin= -1877.11051816390     IErMin=19 ErrMin= 4.66D-08
 ErrMax= 4.66D-08  0.00D+00 EMaxC= 1.00D-01 BMatC= 8.65D-12 BMatP= 3.47D-11
 IDIUse=1 WtCom= 1.00D+00 WtEn= 0.00D+00
 Coeff-Com:  0.134D-06-0.324D-06-0.479D-05-0.103D-04-0.200D-04-0.306D-04
 Coeff-Com:  0.893D-04 0.226D-03 0.176D-03-0.961D-03-0.326D-02-0.991D-03
 Coeff-Com:  0.976D-02 0.191D-01-0.133D-01-0.982D-01-0.802D-01 0.281D+00
 Coeff-Com:  0.887D+00
 Coeff:      0.134D-06-0.324D-06-0.479D-05-0.103D-04-0.200D-04-0.306D-04
 Coeff:      0.893D-04 0.226D-03 0.176D-03-0.961D-03-0.326D-02-0.991D-03
 Coeff:      0.976D-02 0.191D-01-0.133D-01-0.982D-01-0.802D-01 0.281D+00
 Coeff:      0.887D+00
 Gap=     0.165 Goal=   None    Shift=    0.000
 Gap=     0.171 Goal=   None    Shift=    0.000
 RMSDP=4.15D-09 MaxDP=4.20D-07 DE= 6.37D-11 OVMax= 2.87D-06

 Error on total polarization charges =  0.02873
 SCF Done:  E(UM062X) =  -1877.11051816     A.U. after   19 cycles
            NFock= 19  Conv=0.41D-08     -V/T= 2.0058
 <Sx>= 0.0000 <Sy>= 0.0000 <Sz>= 0.5000 <S**2>= 0.7783 S= 0.5141
 <L.S>= 0.000000000000E+00
 KE= 1.866337473528D+03 PE=-1.401394393616D+04 EE= 5.454181667176D+03
 Annihilation of the first spin contaminant:
 S**2 before annihilation     0.7783,   after     0.7505
 Leave Link  502 at Sat Nov  8 06:39:47 2025, MaxMem= 30870077440 cpu:          125605.5 elap:            1987.1
 (Enter /public/software/gauss/g16/l601.exe)
 Copying SCF densities to generalized density rwf, IOpCl= 1 IROHF=0.

 **********************************************************************

            Population analysis using the SCF density.

 **********************************************************************

 Orbital symmetries:
 Alpha Orbitals:
       Occupied  (A) (A) (A) (A) (A) (A) (A) (A) (A) (A) (A) (A)
                 (A) (A) (A) (A) (A) (A) (A) (A) (A) (A) (A) (A)
                 (A) (A) (A) (A) (A) (A) (A) (A) (A) (A) (A) (A)
                 (A) (A) (A) (A) (A) (A) (A) (A) (A) (A) (A) (A)
                 (A) (A) (A) (A) (A) (A) (A) (A) (A) (A) (A) (A)
                 (A) (A) (A) (A) (A) (A) (A) (A) (A) (A) (A) (A)
                 (A) (A) (A) (A) (A) (A) (A) (A) (A) (A) (A) (A)
                 (A) (A) (A) (A) (A) (A) (A) (A) (A) (A) (A) (A)
                 (A) (A) (A) (A) (A) (A) (A) (A) (A) (A) (A) (A)
                 (A) (A) (A) (A) (A) (A) (A) (A) (A) (A) (A) (A)
                 (A) (A) (A) (A) (A) (A) (A) (A) (A) (A) (A) (A)
                 (A) (A) (A) (A) (A) (A) (A) (A) (A) (A) (A) (A)
                 (A) (A) (A) (A) (A) (A) (A) (A) (A) (A) (A) (A)
                 (A) (A) (A)
       Virtual   (A) (A) (A) (A) (A) (A) (A) (A) (A) (A) (A) (A)
                 (A) (A) (A) (A) (A) (A) (A) (A) (A) (A) (A) (A)
                 (A) (A) (A) (A) (A) (A) (A) (A) (A) (A) (A) (A)
                 (A) (A) (A) (A) (A) (A) (A) (A) (A) (A) (A) (A)
                 (A) (A) (A) (A) (A) (A) (A) (A) (A) (A) (A) (A)
                 (A) (A) (A) (A) (A) (A) (A) (A) (A) (A) (A) (A)
                 (A) (A) (A) (A) (A) (A) (A) (A) (A) (A) (A) (A)
                 (A) (A) (A) (A) (A) (A) (A) (A) (A) (A) (A) (A)
                 (A) (A) (A) (A) (A) (A) (A) (A) (A) (A) (A) (A)
                 (A) (A) (A) (A) (A) (A) (A) (A) (A) (A) (A) (A)
                 (A) (A) (A) (A) (A) (A) (A) (A) (A) (A) (A) (A)
                 (A) (A) (A) (A) (A) (A) (A) (A) (A) (A) (A) (A)
                 (A) (A) (A) (A) (A) (A) (A) (A) (A) (A) (A) (A)
                 (A) (A) (A) (A) (A) (A) (A) (A) (A) (A) (A) (A)
                 (A) (A) (A) (A) (A) (A) (A) (A) (A) (A) (A) (A)
                 (A) (A) (A) (A) (A) (A) (A) (A) (A) (A) (A) (A)
                 (A) (A) (A) (A) (A) (A) (A) (A) (A) (A) (A) (A)
                 (A) (A) (A) (A) (A) (A) (A) (A) (A) (A) (A) (A)
                 (A) (A) (A) (A) (A) (A) (A) (A) (A) (A) (A) (A)
                 (A) (A) (A) (A) (A) (A) (A) (A) (A) (A) (A) (A)
                 (A) (A) (A) (A) (A) (A) (A) (A) (A) (A) (A) (A)
                 (A) (A) (A) (A) (A) (A) (A) (A) (A) (A) (A) (A)
                 (A) (A) (A) (A) (A) (A) (A) (A) (A) (A) (A) (A)
                 (A) (A) (A) (A) (A) (A) (A) (A) (A) (A) (A) (A)
                 (A) (A) (A) (A) (A) (A) (A) (A) (A) (A) (A) (A)
                 (A) (A) (A) (A) (A) (A) (A) (A) (A) (A) (A) (A)
                 (A) (A) (A) (A) (A) (A) (A) (A) (A) (A) (A) (A)
                 (A) (A) (A) (A) (A) (A) (A) (A) (A) (A) (A) (A)
                 (A) (A) (A) (A) (A) (A) (A) (A) (A) (A) (A) (A)
                 (A) (A) (A) (A) (A) (A) (A) (A) (A) (A) (A) (A)
                 (A) (A) (A) (A) (A) (A) (A) (A) (A) (A) (A) (A)
                 (A) (A) (A) (A) (A) (A) (A) (A) (A) (A) (A) (A)
                 (A) (A) (A) (A) (A) (A) (A) (A) (A) (A) (A) (A)
                 (A) (A) (A) (A) (A) (A) (A) (A) (A) (A) (A) (A)
                 (A) (A) (A) (A) (A) (A) (A) (A) (A) (A) (A) (A)
                 (A) (A) (A) (A) (A) (A) (A) (A) (A) (A) (A) (A)
                 (A) (A) (A) (A) (A) (A) (A) (A) (A) (A) (A) (A)
                 (A) (A) (A) (A) (A) (A) (A) (A) (A) (A) (A) (A)
                 (A) (A) (A) (A) (A) (A) (A) (A) (A) (A) (A) (A)
                 (A) (A) (A) (A) (A) (A) (A) (A) (A) (A) (A) (A)
                 (A) (A) (A) (A) (A) (A) (A) (A) (A) (A) (A) (A)
                 (A) (A) (A) (A) (A) (A) (A) (A) (A) (A) (A) (A)
                 (A) (A) (A) (A) (A) (A) (A) (A) (A) (A) (A) (A)
                 (A) (A) (A) (A) (A) (A) (A) (A) (A) (A) (A) (A)
                 (A) (A) (A) (A) (A) (A) (A) (A) (A) (A) (A) (A)
                 (A) (A) (A) (A) (A) (A) (A) (A) (A) (A) (A) (A)
                 (A) (A) (A) (A) (A) (A) (A) (A) (A) (A) (A) (A)
                 (A) (A) (A) (A) (A) (A) (A) (A) (A) (A) (A) (A)
                 (A) (A) (A) (A) (A) (A) (A) (A) (A) (A) (A) (A)
                 (A) (A) (A) (A) (A) (A) (A) (A) (A) (A) (A) (A)
                 (A) (A) (A) (A) (A) (A) (A) (A) (A) (A) (A) (A)
                 (A) (A) (A) (A) (A) (A) (A) (A) (A) (A) (A) (A)
                 (A) (A) (A) (A) (A) (A) (A) (A) (A) (A) (A) (A)
                 (A) (A) (A) (A) (A) (A) (A) (A) (A) (A) (A) (A)
                 (A) (A) (A) (A) (A) (A) (A) (A) (A) (A) (A) (A)
                 (A) (A) (A) (A) (A) (A) (A) (A) (A) (A) (A) (A)
                 (A) (A) (A) (A) (A) (A) (A) (A) (A) (A) (A) (A)
                 (A) (A) (A) (A) (A) (A) (A) (A) (A) (A) (A) (A)
                 (A) (A) (A) (A) (A) (A) (A) (A) (A) (A) (A) (A)
                 (A) (A) (A) (A) (A) (A) (A) (A) (A) (A) (A) (A)
                 (A) (A) (A) (A) (A) (A) (A) (A) (A) (A) (A) (A)
                 (A) (A) (A) (A) (A) (A) (A) (A) (A) (A) (A) (A)
                 (A) (A) (A) (A) (A) (A) (A) (A) (A) (A) (A) (A)
                 (A) (A) (A) (A) (A) (A) (A) (A) (A) (A) (A) (A)
                 (A) (A) (A) (A) (A) (A) (A) (A) (A) (A) (A) (A)
                 (A) (A) (A) (A) (A) (A) (A) (A) (A) (A) (A) (A)
                 (A) (A) (A) (A) (A) (A) (A) (A) (A) (A) (A) (A)
                 (A) (A) (A) (A) (A) (A) (A) (A) (A) (A) (A) (A)
                 (A) (A) (A) (A) (A) (A) (A) (A) (A) (A) (A) (A)
                 (A) (A) (A) (A) (A) (A) (A) (A) (A) (A) (A) (A)
                 (A) (A) (A) (A) (A) (A) (A) (A) (A) (A) (A) (A)
                 (A) (A) (A) (A) (A) (A) (A) (A) (A) (A) (A) (A)
                 (A) (A) (A) (A) (A) (A) (A) (A) (A) (A) (A) (A)
                 (A) (A) (A) (A) (A) (A) (A) (A) (A) (A) (A) (A)
                 (A) (A) (A) (A) (A) (A) (A) (A) (A) (A) (A) (A)
                 (A) (A) (A) (A) (A) (A) (A) (A) (A) (A) (A) (A)
                 (A) (A) (A) (A) (A) (A) (A) (A) (A) (A) (A) (A)
                 (A) (A) (A) (A) (A) (A) (A) (A) (A) (A) (A) (A)
                 (A) (A) (A) (A) (A) (A) (A) (A) (A) (A) (A) (A)
                 (A) (A) (A) (A) (A) (A) (A) (A) (A) (A) (A) (A)
                 (A) (A) (A) (A) (A) (A) (A) (A) (A) (A) (A) (A)
                 (A) (A) (A) (A) (A) (A) (A) (A) (A) (A) (A) (A)
                 (A) (A) (A) (A) (A) (A) (A) (A) (A) (A) (A) (A)
                 (A) (A) (A) (A) (A) (A) (A) (A) (A) (A) (A) (A)
                 (A) (A) (A) (A) (A) (A) (A) (A) (A) (A) (A) (A)
                 (A) (A) (A) (A) (A) (A) (A) (A) (A) (A) (A) (A)
                 (A) (A) (A) (A) (A) (A) (A) (A) (A) (A) (A) (A)
                 (A) (A) (A) (A) (A) (A) (A) (A) (A) (A) (A) (A)
                 (A) (A) (A) (A) (A) (A) (A) (A) (A) (A) (A) (A)
                 (A) (A) (A) (A) (A) (A) (A) (A) (A) (A) (A) (A)
                 (A) (A) (A) (A) (A) (A) (A) (A) (A) (A) (A) (A)
                 (A) (A) (A) (A) (A) (A) (A) (A) (A) (A) (A) (A)
                 (A) (A) (A) (A) (A) (A) (A) (A) (A) (A) (A) (A)
                 (A) (A) (A) (A) (A) (A) (A) (A) (A) (A) (A) (A)
                 (A) (A) (A) (A) (A) (A) (A) (A) (A) (A) (A) (A)
                 (A) (A) (A) (A) (A) (A) (A) (A) (A) (A) (A) (A)
                 (A) (A) (A) (A) (A) (A) (A) (A) (A) (A) (A) (A)
                 (A) (A) (A) (A) (A) (A) (A) (A) (A) (A) (A) (A)
                 (A) (A) (A) (A) (A) (A) (A) (A) (A) (A) (A) (A)
                 (A) (A) (A) (A) (A) (A) (A) (A) (A) (A) (A) (A)
                 (A) (A) (A) (A) (A) (A) (A) (A) (A) (A) (A) (A)
                 (A) (A) (A) (A) (A) (A) (A) (A) (A) (A) (A) (A)
                 (A) (A) (A) (A) (A) (A) (A) (A) (A) (A) (A) (A)
                 (A) (A) (A) (A) (A) (A) (A) (A) (A) (A) (A) (A)
                 (A) (A) (A) (A) (A) (A) (A) (A) (A) (A) (A) (A)
                 (A) (A) (A) (A) (A) (A) (A) (A) (A) (A) (A) (A)
                 (A) (A) (A) (A) (A) (A) (A) (A) (A) (A) (A) (A)
                 (A) (A) (A) (A) (A) (A) (A) (A) (A) (A) (A) (A)
                 (A) (A) (A) (A) (A) (A) (A) (A) (A) (A) (A) (A)
                 (A) (A) (A) (A) (A) (A) (A) (A) (A) (A) (A) (A)
                 (A) (A) (A) (A) (A) (A) (A) (A) (A) (A) (A) (A)
                 (A) (A) (A) (A) (A) (A) (A) (A) (A) (A) (A) (A)
                 (A) (A) (A) (A) (A) (A) (A) (A) (A) (A) (A) (A)
                 (A) (A) (A) (A) (A) (A) (A) (A) (A) (A) (A) (A)
                 (A) (A) (A) (A) (A) (A) (A) (A) (A) (A) (A) (A)
                 (A) (A) (A) (A) (A) (A) (A) (A) (A) (A) (A) (A)
                 (A) (A) (A) (A) (A) (A) (A) (A) (A) (A) (A) (A)
                 (A) (A) (A) (A) (A) (A) (A) (A) (A) (A) (A) (A)
                 (A) (A) (A) (A) (A) (A) (A) (A) (A) (A) (A) (A)
                 (A) (A) (A) (A) (A) (A) (A) (A) (A) (A) (A) (A)
                 (A) (A) (A) (A) (A) (A) (A) (A) (A) (A) (A) (A)
                 (A) (A) (A) (A) (A) (A) (A) (A) (A) (A) (A) (A)
                 (A) (A) (A) (A) (A) (A) (A) (A) (A) (A) (A) (A)
                 (A) (A) (A) (A) (A) (A) (A) (A) (A) (A) (A) (A)
                 (A) (A) (A) (A) (A) (A) (A) (A) (A) (A) (A) (A)
                 (A) (A) (A) (A) (A) (A) (A) (A) (A) (A) (A) (A)
                 (A) (A) (A) (A) (A) (A) (A) (A) (A) (A) (A) (A)
                 (A) (A) (A) (A) (A) (A) (A) (A) (A) (A) (A) (A)
                 (A) (A) (A) (A) (A) (A) (A) (A) (A) (A) (A) (A)
                 (A) (A) (A) (A) (A) (A) (A) (A) (A) (A) (A) (A)
                 (A) (A) (A) (A) (A) (A) (A) (A) (A) (A) (A) (A)
                 (A) (A) (A) (A) (A) (A) (A) (A) (A) (A) (A) (A)
                 (A) (A) (A) (A) (A) (A) (A) (A) (A) (A) (A) (A)
                 (A) (A) (A) (A) (A) (A) (A) (A) (A) (A) (A) (A)
                 (A) (A) (A) (A) (A) (A) (A) (A) (A) (A) (A) (A)
                 (A) (A) (A) (A) (A) (A) (A) (A) (A) (A) (A) (A)
                 (A) (A) (A) (A) (A) (A) (A) (A) (A) (A) (A) (A)
                 (A) (A) (A) (A) (A) (A) (A) (A) (A) (A) (A) (A)
                 (A) (A) (A) (A) (A) (A) (A) (A) (A) (A) (A) (A)
                 (A) (A) (A) (A) (A) (A) (A) (A) (A) (A) (A) (A)
                 (A) (A) (A) (A) (A) (A) (A) (A) (A) (A) (A) (A)
                 (A) (A) (A) (A) (A) (A) (A) (A) (A) (A) (A) (A)
                 (A) (A) (A) (A) (A) (A) (A) (A) (A) (A) (A) (A)
                 (A) (A) (A) (A) (A) (A) (A) (A) (A) (A) (A) (A)
                 (A) (A) (A) (A) (A) (A) (A) (A) (A) (A) (A) (A)
                 (A) (A) (A)
 Beta  Orbitals:
       Occupied  (A) (A) (A) (A) (A) (A) (A) (A) (A) (A) (A) (A)
                 (A) (A) (A) (A) (A) (A) (A) (A) (A) (A) (A) (A)
                 (A) (A) (A) (A) (A) (A) (A) (A) (A) (A) (A) (A)
                 (A) (A) (A) (A) (A) (A) (A) (A) (A) (A) (A) (A)
                 (A) (A) (A) (A) (A) (A) (A) (A) (A) (A) (A) (A)
                 (A) (A) (A) (A) (A) (A) (A) (A) (A) (A) (A) (A)
                 (A) (A) (A) (A) (A) (A) (A) (A) (A) (A) (A) (A)
                 (A) (A) (A) (A) (A) (A) (A) (A) (A) (A) (A) (A)
                 (A) (A) (A) (A) (A) (A) (A) (A) (A) (A) (A) (A)
                 (A) (A) (A) (A) (A) (A) (A) (A) (A) (A) (A) (A)
                 (A) (A) (A) (A) (A) (A) (A) (A) (A) (A) (A) (A)
                 (A) (A) (A) (A) (A) (A) (A) (A) (A) (A) (A) (A)
                 (A) (A) (A) (A) (A) (A) (A) (A) (A) (A) (A) (A)
                 (A) (A)
       Virtual   (A) (A) (A) (A) (A) (A) (A) (A) (A) (A) (A) (A)
                 (A) (A) (A) (A) (A) (A) (A) (A) (A) (A) (A) (A)
                 (A) (A) (A) (A) (A) (A) (A) (A) (A) (A) (A) (A)
                 (A) (A) (A) (A) (A) (A) (A) (A) (A) (A) (A) (A)
                 (A) (A) (A) (A) (A) (A) (A) (A) (A) (A) (A) (A)
                 (A) (A) (A) (A) (A) (A) (A) (A) (A) (A) (A) (A)
                 (A) (A) (A) (A) (A) (A) (A) (A) (A) (A) (A) (A)
                 (A) (A) (A) (A) (A) (A) (A) (A) (A) (A) (A) (A)
                 (A) (A) (A) (A) (A) (A) (A) (A) (A) (A) (A) (A)
                 (A) (A) (A) (A) (A) (A) (A) (A) (A) (A) (A) (A)
                 (A) (A) (A) (A) (A) (A) (A) (A) (A) (A) (A) (A)
                 (A) (A) (A) (A) (A) (A) (A) (A) (A) (A) (A) (A)
                 (A) (A) (A) (A) (A) (A) (A) (A) (A) (A) (A) (A)
                 (A) (A) (A) (A) (A) (A) (A) (A) (A) (A) (A) (A)
                 (A) (A) (A) (A) (A) (A) (A) (A) (A) (A) (A) (A)
                 (A) (A) (A) (A) (A) (A) (A) (A) (A) (A) (A) (A)
                 (A) (A) (A) (A) (A) (A) (A) (A) (A) (A) (A) (A)
                 (A) (A) (A) (A) (A) (A) (A) (A) (A) (A) (A) (A)
                 (A) (A) (A) (A) (A) (A) (A) (A) (A) (A) (A) (A)
                 (A) (A) (A) (A) (A) (A) (A) (A) (A) (A) (A) (A)
                 (A) (A) (A) (A) (A) (A) (A) (A) (A) (A) (A) (A)
                 (A) (A) (A) (A) (A) (A) (A) (A) (A) (A) (A) (A)
                 (A) (A) (A) (A) (A) (A) (A) (A) (A) (A) (A) (A)
                 (A) (A) (A) (A) (A) (A) (A) (A) (A) (A) (A) (A)
                 (A) (A) (A) (A) (A) (A) (A) (A) (A) (A) (A) (A)
                 (A) (A) (A) (A) (A) (A) (A) (A) (A) (A) (A) (A)
                 (A) (A) (A) (A) (A) (A) (A) (A) (A) (A) (A) (A)
                 (A) (A) (A) (A) (A) (A) (A) (A) (A) (A) (A) (A)
                 (A) (A) (A) (A) (A) (A) (A) (A) (A) (A) (A) (A)
                 (A) (A) (A) (A) (A) (A) (A) (A) (A) (A) (A) (A)
                 (A) (A) (A) (A) (A) (A) (A) (A) (A) (A) (A) (A)
                 (A) (A) (A) (A) (A) (A) (A) (A) (A) (A) (A) (A)
                 (A) (A) (A) (A) (A) (A) (A) (A) (A) (A) (A) (A)
                 (A) (A) (A) (A) (A) (A) (A) (A) (A) (A) (A) (A)
                 (A) (A) (A) (A) (A) (A) (A) (A) (A) (A) (A) (A)
                 (A) (A) (A) (A) (A) (A) (A) (A) (A) (A) (A) (A)
                 (A) (A) (A) (A) (A) (A) (A) (A) (A) (A) (A) (A)
                 (A) (A) (A) (A) (A) (A) (A) (A) (A) (A) (A) (A)
                 (A) (A) (A) (A) (A) (A) (A) (A) (A) (A) (A) (A)
                 (A) (A) (A) (A) (A) (A) (A) (A) (A) (A) (A) (A)
                 (A) (A) (A) (A) (A) (A) (A) (A) (A) (A) (A) (A)
                 (A) (A) (A) (A) (A) (A) (A) (A) (A) (A) (A) (A)
                 (A) (A) (A) (A) (A) (A) (A) (A) (A) (A) (A) (A)
                 (A) (A) (A) (A) (A) (A) (A) (A) (A) (A) (A) (A)
                 (A) (A) (A) (A) (A) (A) (A) (A) (A) (A) (A) (A)
                 (A) (A) (A) (A) (A) (A) (A) (A) (A) (A) (A) (A)
                 (A) (A) (A) (A) (A) (A) (A) (A) (A) (A) (A) (A)
                 (A) (A) (A) (A) (A) (A) (A) (A) (A) (A) (A) (A)
                 (A) (A) (A) (A) (A) (A) (A) (A) (A) (A) (A) (A)
                 (A) (A) (A) (A) (A) (A) (A) (A) (A) (A) (A) (A)
                 (A) (A) (A) (A) (A) (A) (A) (A) (A) (A) (A) (A)
                 (A) (A) (A) (A) (A) (A) (A) (A) (A) (A) (A) (A)
                 (A) (A) (A) (A) (A) (A) (A) (A) (A) (A) (A) (A)
                 (A) (A) (A) (A) (A) (A) (A) (A) (A) (A) (A) (A)
                 (A) (A) (A) (A) (A) (A) (A) (A) (A) (A) (A) (A)
                 (A) (A) (A) (A) (A) (A) (A) (A) (A) (A) (A) (A)
                 (A) (A) (A) (A) (A) (A) (A) (A) (A) (A) (A) (A)
                 (A) (A) (A) (A) (A) (A) (A) (A) (A) (A) (A) (A)
                 (A) (A) (A) (A) (A) (A) (A) (A) (A) (A) (A) (A)
                 (A) (A) (A) (A) (A) (A) (A) (A) (A) (A) (A) (A)
                 (A) (A) (A) (A) (A) (A) (A) (A) (A) (A) (A) (A)
                 (A) (A) (A) (A) (A) (A) (A) (A) (A) (A) (A) (A)
                 (A) (A) (A) (A) (A) (A) (A) (A) (A) (A) (A) (A)
                 (A) (A) (A) (A) (A) (A) (A) (A) (A) (A) (A) (A)
                 (A) (A) (A) (A) (A) (A) (A) (A) (A) (A) (A) (A)
                 (A) (A) (A) (A) (A) (A) (A) (A) (A) (A) (A) (A)
                 (A) (A) (A) (A) (A) (A) (A) (A) (A) (A) (A) (A)
                 (A) (A) (A) (A) (A) (A) (A) (A) (A) (A) (A) (A)
                 (A) (A) (A) (A) (A) (A) (A) (A) (A) (A) (A) (A)
                 (A) (A) (A) (A) (A) (A) (A) (A) (A) (A) (A) (A)
                 (A) (A) (A) (A) (A) (A) (A) (A) (A) (A) (A) (A)
                 (A) (A) (A) (A) (A) (A) (A) (A) (A) (A) (A) (A)
                 (A) (A) (A) (A) (A) (A) (A) (A) (A) (A) (A) (A)
                 (A) (A) (A) (A) (A) (A) (A) (A) (A) (A) (A) (A)
                 (A) (A) (A) (A) (A) (A) (A) (A) (A) (A) (A) (A)
                 (A) (A) (A) (A) (A) (A) (A) (A) (A) (A) (A) (A)
                 (A) (A) (A) (A) (A) (A) (A) (A) (A) (A) (A) (A)
                 (A) (A) (A) (A) (A) (A) (A) (A) (A) (A) (A) (A)
                 (A) (A) (A) (A) (A) (A) (A) (A) (A) (A) (A) (A)
                 (A) (A) (A) (A) (A) (A) (A) (A) (A) (A) (A) (A)
                 (A) (A) (A) (A) (A) (A) (A) (A) (A) (A) (A) (A)
                 (A) (A) (A) (A) (A) (A) (A) (A) (A) (A) (A) (A)
                 (A) (A) (A) (A) (A) (A) (A) (A) (A) (A) (A) (A)
                 (A) (A) (A) (A) (A) (A) (A) (A) (A) (A) (A) (A)
                 (A) (A) (A) (A) (A) (A) (A) (A) (A) (A) (A) (A)
                 (A) (A) (A) (A) (A) (A) (A) (A) (A) (A) (A) (A)
                 (A) (A) (A) (A) (A) (A) (A) (A) (A) (A) (A) (A)
                 (A) (A) (A) (A) (A) (A) (A) (A) (A) (A) (A) (A)
                 (A) (A) (A) (A) (A) (A) (A) (A) (A) (A) (A) (A)
                 (A) (A) (A) (A) (A) (A) (A) (A) (A) (A) (A) (A)
                 (A) (A) (A) (A) (A) (A) (A) (A) (A) (A) (A) (A)
                 (A) (A) (A) (A) (A) (A) (A) (A) (A) (A) (A) (A)
                 (A) (A) (A) (A) (A) (A) (A) (A) (A) (A) (A) (A)
                 (A) (A) (A) (A) (A) (A) (A) (A) (A) (A) (A) (A)
                 (A) (A) (A) (A) (A) (A) (A) (A) (A) (A) (A) (A)
                 (A) (A) (A) (A) (A) (A) (A) (A) (A) (A) (A) (A)
                 (A) (A) (A) (A) (A) (A) (A) (A) (A) (A) (A) (A)
                 (A) (A) (A) (A) (A) (A) (A) (A) (A) (A) (A) (A)
                 (A) (A) (A) (A) (A) (A) (A) (A) (A) (A) (A) (A)
                 (A) (A) (A) (A) (A) (A) (A) (A) (A) (A) (A) (A)
                 (A) (A) (A) (A) (A) (A) (A) (A) (A) (A) (A) (A)
                 (A) (A) (A) (A) (A) (A) (A) (A) (A) (A) (A) (A)
                 (A) (A) (A) (A) (A) (A) (A) (A) (A) (A) (A) (A)
                 (A) (A) (A) (A) (A) (A) (A) (A) (A) (A) (A) (A)
                 (A) (A) (A) (A) (A) (A) (A) (A) (A) (A) (A) (A)
                 (A) (A) (A) (A) (A) (A) (A) (A) (A) (A) (A) (A)
                 (A) (A) (A) (A) (A) (A) (A) (A) (A) (A) (A) (A)
                 (A) (A) (A) (A) (A) (A) (A) (A) (A) (A) (A) (A)
                 (A) (A) (A) (A) (A) (A) (A) (A) (A) (A) (A) (A)
                 (A) (A) (A) (A) (A) (A) (A) (A) (A) (A) (A) (A)
                 (A) (A) (A) (A) (A) (A) (A) (A) (A) (A) (A) (A)
                 (A) (A) (A) (A) (A) (A) (A) (A) (A) (A) (A) (A)
                 (A) (A) (A) (A) (A) (A) (A) (A) (A) (A) (A) (A)
                 (A) (A) (A) (A) (A) (A) (A) (A) (A) (A) (A) (A)
                 (A) (A) (A) (A) (A) (A) (A) (A) (A) (A) (A) (A)
                 (A) (A) (A) (A) (A) (A) (A) (A) (A) (A) (A) (A)
                 (A) (A) (A) (A) (A) (A) (A) (A) (A) (A) (A) (A)
                 (A) (A) (A) (A) (A) (A) (A) (A) (A) (A) (A) (A)
                 (A) (A) (A) (A) (A) (A) (A) (A) (A) (A) (A) (A)
                 (A) (A) (A) (A) (A) (A) (A) (A) (A) (A) (A) (A)
                 (A) (A) (A) (A) (A) (A) (A) (A) (A) (A) (A) (A)
                 (A) (A) (A) (A) (A) (A) (A) (A) (A) (A) (A) (A)
                 (A) (A) (A) (A) (A) (A) (A) (A) (A) (A) (A) (A)
                 (A) (A) (A) (A) (A) (A) (A) (A) (A) (A) (A) (A)
                 (A) (A) (A) (A) (A) (A) (A) (A) (A) (A) (A) (A)
                 (A) (A) (A) (A) (A) (A) (A) (A) (A) (A) (A) (A)
                 (A) (A) (A) (A) (A) (A) (A) (A) (A) (A) (A) (A)
                 (A) (A) (A) (A) (A) (A) (A) (A) (A) (A) (A) (A)
                 (A) (A) (A) (A) (A) (A) (A) (A) (A) (A) (A) (A)
                 (A) (A) (A) (A) (A) (A) (A) (A) (A) (A) (A) (A)
                 (A) (A) (A) (A) (A) (A) (A) (A) (A) (A) (A) (A)
                 (A) (A) (A) (A) (A) (A) (A) (A) (A) (A) (A) (A)
                 (A) (A) (A) (A) (A) (A) (A) (A) (A) (A) (A) (A)
                 (A) (A) (A) (A) (A) (A) (A) (A) (A) (A) (A) (A)
                 (A) (A) (A) (A) (A) (A) (A) (A) (A) (A) (A) (A)
                 (A) (A) (A) (A) (A) (A) (A) (A) (A) (A) (A) (A)
                 (A) (A) (A) (A) (A) (A) (A) (A) (A) (A) (A) (A)
                 (A) (A) (A) (A) (A) (A) (A) (A) (A) (A) (A) (A)
                 (A) (A) (A) (A) (A) (A) (A) (A) (A) (A) (A) (A)
                 (A) (A) (A) (A) (A) (A) (A) (A) (A) (A) (A) (A)
                 (A) (A) (A) (A) (A) (A) (A) (A) (A) (A) (A) (A)
                 (A) (A) (A) (A) (A) (A) (A) (A) (A) (A) (A) (A)
                 (A) (A) (A) (A) (A) (A) (A) (A) (A) (A) (A) (A)
                 (A) (A) (A) (A) (A) (A) (A) (A) (A) (A) (A) (A)
                 (A) (A) (A) (A) (A) (A) (A) (A) (A) (A) (A) (A)
                 (A) (A) (A) (A)
 The electronic state is 2-A.
 Alpha  occ. eigenvalues --  -19.67718 -14.78362 -14.75467 -14.75069 -14.74890
 Alpha  occ. eigenvalues --  -10.64830 -10.62446 -10.59327 -10.59318 -10.59309
 Alpha  occ. eigenvalues --  -10.58886 -10.58820 -10.58778 -10.58092 -10.56892
 Alpha  occ. eigenvalues --  -10.56749 -10.56344 -10.55584 -10.55149 -10.55082
 Alpha  occ. eigenvalues --  -10.55011 -10.54918 -10.54914 -10.54908 -10.54901
 Alpha  occ. eigenvalues --  -10.54840 -10.54728 -10.54706 -10.54705 -10.54703
 Alpha  occ. eigenvalues --  -10.54699 -10.54694 -10.54691 -10.54523 -10.54499
 Alpha  occ. eigenvalues --  -10.54422 -10.54379 -10.54375 -10.54364 -10.54271
 Alpha  occ. eigenvalues --  -10.53909 -10.53899 -10.53675 -10.53674 -10.52437
 Alpha  occ. eigenvalues --  -10.52325  -1.21742  -1.08150  -1.01887  -1.01314
 Alpha  occ. eigenvalues --   -1.00349  -0.99834  -0.96565  -0.96027  -0.94944
 Alpha  occ. eigenvalues --   -0.94050  -0.93114  -0.92108  -0.88791  -0.87277
 Alpha  occ. eigenvalues --   -0.86948  -0.85941  -0.85002  -0.84645  -0.84507
 Alpha  occ. eigenvalues --   -0.84465  -0.83608  -0.82657  -0.79504  -0.79461
 Alpha  occ. eigenvalues --   -0.78305  -0.75974  -0.73034  -0.72397  -0.71754
 Alpha  occ. eigenvalues --   -0.71269  -0.70131  -0.70021  -0.69064  -0.68660
 Alpha  occ. eigenvalues --   -0.67395  -0.66686  -0.65530  -0.64270  -0.63142
 Alpha  occ. eigenvalues --   -0.62852  -0.61424  -0.60761  -0.59907  -0.58236
 Alpha  occ. eigenvalues --   -0.57078  -0.56279  -0.55789  -0.55511  -0.55295
 Alpha  occ. eigenvalues --   -0.54181  -0.53517  -0.52871  -0.52385  -0.52200
 Alpha  occ. eigenvalues --   -0.52049  -0.51650  -0.51496  -0.50714  -0.50378
 Alpha  occ. eigenvalues --   -0.49838  -0.49378  -0.49336  -0.49104  -0.49021
 Alpha  occ. eigenvalues --   -0.48408  -0.47723  -0.47485  -0.47143  -0.46629
 Alpha  occ. eigenvalues --   -0.46567  -0.46245  -0.45667  -0.45486  -0.45185
 Alpha  occ. eigenvalues --   -0.45142  -0.44936  -0.44874  -0.44693  -0.44518
 Alpha  occ. eigenvalues --   -0.44229  -0.43915  -0.43769  -0.43214  -0.42922
 Alpha  occ. eigenvalues --   -0.42782  -0.42158  -0.41962  -0.41581  -0.41536
 Alpha  occ. eigenvalues --   -0.41250  -0.41108  -0.40942  -0.40473  -0.40205
 Alpha  occ. eigenvalues --   -0.40035  -0.39278  -0.39205  -0.38355  -0.38071
 Alpha  occ. eigenvalues --   -0.37390  -0.37007  -0.36437  -0.34982  -0.33646
 Alpha  occ. eigenvalues --   -0.32239  -0.32061  -0.31213  -0.30728  -0.30334
 Alpha  occ. eigenvalues --   -0.28872  -0.26319  -0.23677  -0.18612
 Alpha virt. eigenvalues --   -0.02090  -0.00542   0.00043   0.00254   0.01660
 Alpha virt. eigenvalues --    0.02368   0.02665   0.03096   0.03420   0.05615
 Alpha virt. eigenvalues --    0.05888   0.06258   0.06598   0.07429   0.07623
 Alpha virt. eigenvalues --    0.07884   0.08401   0.08685   0.08780   0.08998
 Alpha virt. eigenvalues --    0.09290   0.09520   0.09715   0.09857   0.10497
 Alpha virt. eigenvalues --    0.10835   0.11204   0.11414   0.11835   0.12191
 Alpha virt. eigenvalues --    0.12362   0.12507   0.12987   0.13208   0.13607
 Alpha virt. eigenvalues --    0.13781   0.13906   0.14207   0.14348   0.14586
 Alpha virt. eigenvalues --    0.14711   0.14916   0.15384   0.15630   0.15983
 Alpha virt. eigenvalues --    0.16092   0.16469   0.16739   0.16988   0.17128
 Alpha virt. eigenvalues --    0.17246   0.17586   0.17826   0.17919   0.18416
 Alpha virt. eigenvalues --    0.18623   0.18831   0.19015   0.19403   0.19863
 Alpha virt. eigenvalues --    0.20137   0.20301   0.20606   0.20719   0.20922
 Alpha virt. eigenvalues --    0.21243   0.21537   0.21714   0.22091   0.22172
 Alpha virt. eigenvalues --    0.22312   0.22535   0.22756   0.22927   0.23034
 Alpha virt. eigenvalues --    0.23199   0.23488   0.23755   0.23828   0.24297
 Alpha virt. eigenvalues --    0.24372   0.24426   0.24583   0.24924   0.25133
 Alpha virt. eigenvalues --    0.25230   0.25507   0.25635   0.25915   0.26106
 Alpha virt. eigenvalues --    0.26338   0.26392   0.26543   0.26808   0.27050
 Alpha virt. eigenvalues --    0.27219   0.27516   0.27656   0.27923   0.28185
 Alpha virt. eigenvalues --    0.28433   0.28781   0.29118   0.29337   0.29479
 Alpha virt. eigenvalues --    0.29742   0.29977   0.30198   0.30312   0.30564
 Alpha virt. eigenvalues --    0.30727   0.30977   0.31154   0.31610   0.31808
 Alpha virt. eigenvalues --    0.32043   0.32122   0.32550   0.32884   0.33037
 Alpha virt. eigenvalues --    0.33059   0.33349   0.33594   0.33832   0.34071
 Alpha virt. eigenvalues --    0.34105   0.34250   0.34863   0.35123   0.35422
 Alpha virt. eigenvalues --    0.35640   0.36047   0.36236   0.36423   0.36563
 Alpha virt. eigenvalues --    0.36681   0.37106   0.37187   0.37582   0.37853
 Alpha virt. eigenvalues --    0.38049   0.38362   0.38435   0.38751   0.39262
 Alpha virt. eigenvalues --    0.39346   0.39433   0.39527   0.39755   0.39901
 Alpha virt. eigenvalues --    0.40315   0.40575   0.40678   0.40884   0.41170
 Alpha virt. eigenvalues --    0.41209   0.41306   0.41447   0.41649   0.41812
 Alpha virt. eigenvalues --    0.41904   0.42261   0.42382   0.42536   0.42948
 Alpha virt. eigenvalues --    0.43293   0.43463   0.43480   0.43702   0.43833
 Alpha virt. eigenvalues --    0.44155   0.44237   0.44343   0.44557   0.44623
 Alpha virt. eigenvalues --    0.44895   0.45046   0.45348   0.45502   0.45703
 Alpha virt. eigenvalues --    0.45965   0.46148   0.46301   0.46531   0.46960
 Alpha virt. eigenvalues --    0.47105   0.47237   0.47580   0.47788   0.47925
 Alpha virt. eigenvalues --    0.48248   0.48450   0.48513   0.48700   0.48983
 Alpha virt. eigenvalues --    0.49142   0.49354   0.49768   0.50128   0.50239
 Alpha virt. eigenvalues --    0.50316   0.50646   0.50947   0.51116   0.51426
 Alpha virt. eigenvalues --    0.51528   0.51728   0.51789   0.52011   0.52163
 Alpha virt. eigenvalues --    0.52360   0.52506   0.52960   0.52984   0.53074
 Alpha virt. eigenvalues --    0.53273   0.53548   0.53642   0.53892   0.54170
 Alpha virt. eigenvalues --    0.54442   0.54682   0.54798   0.55055   0.55261
 Alpha virt. eigenvalues --    0.55396   0.55607   0.55775   0.56019   0.56365
 Alpha virt. eigenvalues --    0.56404   0.56817   0.56995   0.57261   0.57669
 Alpha virt. eigenvalues --    0.57786   0.58032   0.58609   0.58923   0.59087
 Alpha virt. eigenvalues --    0.59300   0.59513   0.59833   0.60124   0.60410
 Alpha virt. eigenvalues --    0.60676   0.61128   0.61158   0.61262   0.61728
 Alpha virt. eigenvalues --    0.62134   0.62593   0.63211   0.63467   0.63484
 Alpha virt. eigenvalues --    0.64312   0.64473   0.64629   0.64785   0.65119
 Alpha virt. eigenvalues --    0.65371   0.65813   0.66263   0.66667   0.66741
 Alpha virt. eigenvalues --    0.67127   0.67408   0.67527   0.67710   0.67973
 Alpha virt. eigenvalues --    0.68266   0.68600   0.68898   0.69319   0.69456
 Alpha virt. eigenvalues --    0.69789   0.70013   0.70205   0.70410   0.70914
 Alpha virt. eigenvalues --    0.70995   0.71145   0.71340   0.71494   0.71649
 Alpha virt. eigenvalues --    0.71799   0.72060   0.72209   0.72286   0.72758
 Alpha virt. eigenvalues --    0.73065   0.73241   0.73622   0.73634   0.73984
 Alpha virt. eigenvalues --    0.74225   0.74581   0.74886   0.75247   0.75415
 Alpha virt. eigenvalues --    0.75940   0.76277   0.76513   0.76829   0.77016
 Alpha virt. eigenvalues --    0.77451   0.77666   0.77750   0.78021   0.78268
 Alpha virt. eigenvalues --    0.78523   0.78659   0.78992   0.79043   0.79601
 Alpha virt. eigenvalues --    0.79870   0.80426   0.80817   0.80959   0.81123
 Alpha virt. eigenvalues --    0.81365   0.81519   0.81681   0.82107   0.82702
 Alpha virt. eigenvalues --    0.82999   0.83080   0.83366   0.83610   0.84252
 Alpha virt. eigenvalues --    0.84555   0.84840   0.85359   0.85669   0.85892
 Alpha virt. eigenvalues --    0.86057   0.86366   0.86510   0.86722   0.87196
 Alpha virt. eigenvalues --    0.87660   0.87980   0.88193   0.88429   0.88570
 Alpha virt. eigenvalues --    0.88929   0.89367   0.89634   0.90114   0.90489
 Alpha virt. eigenvalues --    0.90863   0.91091   0.91272   0.91589   0.92011
 Alpha virt. eigenvalues --    0.92201   0.92264   0.92489   0.92707   0.93493
 Alpha virt. eigenvalues --    0.93908   0.94102   0.94690   0.94941   0.95111
 Alpha virt. eigenvalues --    0.95300   0.95358   0.95758   0.96536   0.96666
 Alpha virt. eigenvalues --    0.96843   0.97175   0.97423   0.97502   0.97612
 Alpha virt. eigenvalues --    0.97836   0.98296   0.98489   0.98916   0.99139
 Alpha virt. eigenvalues --    0.99367   0.99517   0.99858   1.00014   1.00466
 Alpha virt. eigenvalues --    1.00550   1.00893   1.01367   1.01440   1.01626
 Alpha virt. eigenvalues --    1.01983   1.02269   1.02688   1.02858   1.03332
 Alpha virt. eigenvalues --    1.03402   1.03982   1.04142   1.04374   1.04645
 Alpha virt. eigenvalues --    1.05028   1.05238   1.05435   1.05855   1.06197
 Alpha virt. eigenvalues --    1.06422   1.06501   1.06874   1.07270   1.07677
 Alpha virt. eigenvalues --    1.07879   1.08079   1.08477   1.08523   1.09232
 Alpha virt. eigenvalues --    1.09438   1.09798   1.10123   1.10417   1.10544
 Alpha virt. eigenvalues --    1.10784   1.11155   1.11475   1.11859   1.12170
 Alpha virt. eigenvalues --    1.12304   1.12581   1.12741   1.12896   1.13320
 Alpha virt. eigenvalues --    1.13538   1.13677   1.14212   1.14352   1.14973
 Alpha virt. eigenvalues --    1.15449   1.15620   1.15837   1.16026   1.16294
 Alpha virt. eigenvalues --    1.16813   1.17136   1.17546   1.18057   1.18154
 Alpha virt. eigenvalues --    1.18325   1.18642   1.19210   1.19495   1.19852
 Alpha virt. eigenvalues --    1.20585   1.20729   1.21137   1.21454   1.21467
[...]
 
              Baa    -0.0007    -0.098    -0.035    -0.033  0.8259 -0.5573 -0.0862
    16 C(13)  Bbb    -0.0004    -0.058    -0.021    -0.019  0.3970  0.4661  0.7907
              Bcc     0.0012     0.156     0.056     0.052  0.4004  0.6872 -0.6062
 
              Baa    -0.0083    -1.109    -0.396    -0.370  0.0039  0.2587  0.9659
    17 C(13)  Bbb     0.0024     0.325     0.116     0.108  0.2137  0.9434 -0.2536
              Bcc     0.0058     0.785     0.280     0.262  0.9769 -0.2074  0.0517
 
              Baa    -0.0019    -0.257    -0.092    -0.086 -0.0133  0.9614 -0.2747
    18 C(13)  Bbb    -0.0008    -0.112    -0.040    -0.037  0.9997  0.0079 -0.0210
              Bcc     0.0028     0.370     0.132     0.123  0.0180  0.2749  0.9613
 
              Baa    -0.0083    -1.110    -0.396    -0.370  0.0055  0.2348  0.9720
    19 C(13)  Bbb     0.0037     0.500     0.178     0.167  0.2634  0.9374 -0.2279
              Bcc     0.0045     0.610     0.218     0.204  0.9647 -0.2573  0.0567
 
              Baa    -0.0030    -0.116    -0.041    -0.039 -0.1016 -0.3854  0.9171
    20 N(14)  Bbb     0.0011     0.044     0.016     0.015  0.1720  0.9012  0.3978
              Bcc     0.0019     0.072     0.026     0.024  0.9799 -0.1981  0.0252
 
              Baa    -0.0004    -0.048    -0.017    -0.016 -0.0990  0.9018  0.4206
    21 C(13)  Bbb    -0.0000    -0.003    -0.001    -0.001  0.4360 -0.3407  0.8330
              Bcc     0.0004     0.051     0.018     0.017  0.8945  0.2659 -0.3595
 
              Baa    -0.0003    -0.041    -0.015    -0.014  0.6991  0.7108 -0.0777
    22 C(13)  Bbb     0.0000     0.003     0.001     0.001  0.0856  0.0248  0.9960
              Bcc     0.0003     0.038     0.013     0.013  0.7099 -0.7029 -0.0435
 
              Baa    -0.0002    -0.022    -0.008    -0.007  0.3024  0.3724  0.8774
    23 C(13)  Bbb    -0.0001    -0.007    -0.003    -0.002 -0.0528  0.9256 -0.3747
              Bcc     0.0002     0.029     0.010     0.010  0.9517 -0.0670 -0.2996
 
              Baa    -0.0004    -0.053    -0.019    -0.018  0.5245  0.6572 -0.5412
    24 C(13)  Bbb     0.0001     0.013     0.005     0.004  0.2629  0.4795  0.8372
              Bcc     0.0003     0.040     0.014     0.013  0.8098 -0.5814  0.0787
 
              Baa    -0.0001    -0.018    -0.007    -0.006  0.1875  0.5381  0.8218
    25 C(13)  Bbb    -0.0000    -0.004    -0.001    -0.001 -0.1691  0.8418 -0.5126
              Bcc     0.0002     0.022     0.008     0.007  0.9676  0.0428 -0.2488
 
              Baa    -0.0004    -0.048    -0.017    -0.016  0.5746  0.6055 -0.5506
    26 C(13)  Bbb     0.0001     0.009     0.003     0.003  0.0861  0.6243  0.7764
              Bcc     0.0003     0.039     0.014     0.013  0.8139 -0.4935  0.3066
 
              Baa    -0.0004    -0.050    -0.018    -0.017  0.3516  0.8403  0.4126
    27 C(13)  Bbb    -0.0000    -0.003    -0.001    -0.001 -0.5529 -0.1692  0.8159
              Bcc     0.0004     0.054     0.019     0.018  0.7554 -0.5150  0.4052
 
              Baa    -0.0003    -0.042    -0.015    -0.014 -0.3629  0.9300 -0.0589
    28 C(13)  Bbb     0.0000     0.002     0.001     0.001 -0.1622 -0.0008  0.9868
              Bcc     0.0003     0.040     0.014     0.013  0.9176  0.3676  0.1511
 
              Baa    -0.0002    -0.022    -0.008    -0.007 -0.2355  0.5043  0.8308
    29 C(13)  Bbb    -0.0001    -0.007    -0.003    -0.002  0.3754  0.8357 -0.4008
              Bcc     0.0002     0.030     0.011     0.010  0.8964 -0.2175  0.3861
 
              Baa    -0.0004    -0.051    -0.018    -0.017 -0.2382  0.7922 -0.5618
    30 C(13)  Bbb     0.0001     0.012     0.004     0.004 -0.1667  0.5365  0.8273
              Bcc     0.0003     0.040     0.014     0.013  0.9568  0.2907  0.0043
 
              Baa    -0.0001    -0.019    -0.007    -0.006 -0.0629  0.5874  0.8069
    31 C(13)  Bbb    -0.0000    -0.003    -0.001    -0.001  0.4487  0.7388 -0.5029
              Bcc     0.0002     0.022     0.008     0.007  0.8915 -0.3303  0.3100
 
              Baa    -0.0003    -0.046    -0.017    -0.015 -0.2810  0.7659 -0.5783
    32 C(13)  Bbb     0.0001     0.007     0.003     0.002  0.0763  0.6185  0.7820
              Bcc     0.0003     0.039     0.014     0.013  0.9567  0.1757 -0.2322
 
              Baa    -0.0017    -0.231    -0.083    -0.077  0.5033  0.8383 -0.2096
    33 C(13)  Bbb    -0.0005    -0.072    -0.026    -0.024  0.8638 -0.4821  0.1461
              Bcc     0.0023     0.304     0.108     0.101 -0.0214  0.2546  0.9668
 
              Baa    -0.0081    -1.082    -0.386    -0.361  0.0232  0.2571  0.9661
    34 C(13)  Bbb     0.0029     0.395     0.141     0.132  0.4105  0.8787 -0.2437
              Bcc     0.0051     0.686     0.245     0.229  0.9116 -0.4023  0.0851
 
              Baa    -0.0034    -0.452    -0.161    -0.151  0.3072  0.9216 -0.2374
    35 C(13)  Bbb    -0.0016    -0.220    -0.078    -0.073  0.9516 -0.3003  0.0658
              Bcc     0.0050     0.672     0.240     0.224  0.0107  0.2461  0.9692
 
              Baa    -0.0201    -2.694    -0.961    -0.898  0.1846  0.9510 -0.2481
    36 C(13)  Bbb    -0.0168    -2.249    -0.802    -0.750  0.9828 -0.1772  0.0521
              Bcc     0.0368     4.942     1.763     1.648 -0.0056  0.2534  0.9673
 
              Baa    -0.0035    -0.465    -0.166    -0.155  0.9668  0.2492 -0.0573
    37 C(13)  Bbb    -0.0021    -0.286    -0.102    -0.095 -0.0084  0.2551  0.9669
              Bcc     0.0056     0.751     0.268     0.250 -0.2555  0.9342 -0.2488
 
              Baa    -0.0267    -1.030    -0.367    -0.343  0.9388  0.3348 -0.0812
    38 N(14)  Bbb    -0.0213    -0.823    -0.294    -0.275 -0.3444  0.9077 -0.2397
              Bcc     0.0480     1.853     0.661     0.618 -0.0065  0.2530  0.9674
 
              Baa    -0.0131    -1.757    -0.627    -0.586  0.3429 -0.3344  0.8778
    39 C(13)  Bbb    -0.0097    -1.307    -0.466    -0.436  0.8433  0.5212 -0.1309
              Bcc     0.0228     3.064     1.093     1.022 -0.4138  0.7852  0.4607
 
              Baa    -0.0671     4.855     1.732     1.620 -0.3207  0.9160 -0.2411
    40 O(17)  Bbb    -0.0489     3.540     1.263     1.181  0.9472  0.3104 -0.0806
              Bcc     0.1160    -8.396    -2.996    -2.801 -0.0010  0.2542  0.9672
 
              Baa    -0.0503    -6.744    -2.406    -2.249 -0.4611  0.8580 -0.2262
    41 C(13)  Bbb    -0.0420    -5.641    -2.013    -1.882  0.8873  0.4482 -0.1087
              Bcc     0.0923    12.385     4.419     4.131 -0.0081  0.2509  0.9680
 
              Baa    -0.0235    -3.155    -1.126    -1.052 -0.2362  0.9402 -0.2453
    42 C(13)  Bbb    -0.0193    -2.591    -0.925    -0.864  0.9717  0.2304 -0.0526
              Bcc     0.0428     5.746     2.050     1.917 -0.0071  0.2507  0.9680
 
              Baa    -0.0058    -0.784    -0.280    -0.261 -0.0089  0.2526  0.9675
    43 C(13)  Bbb    -0.0024    -0.324    -0.116    -0.108  0.7802 -0.6035  0.1648
              Bcc     0.0083     1.108     0.395     0.369  0.6255  0.7563 -0.1917
 
              Baa    -0.0298    -1.151    -0.411    -0.384  0.3975  0.8889 -0.2275
    44 N(14)  Bbb    -0.0251    -0.969    -0.346    -0.323  0.9176 -0.3830  0.1067
              Bcc     0.0550     2.119     0.756     0.707 -0.0077  0.2511  0.9679
 
              Baa    -0.0029    -0.393    -0.140    -0.131 -0.0124  0.2457  0.9693
    45 C(13)  Bbb    -0.0020    -0.262    -0.093    -0.087  0.7533  0.6398 -0.1525
              Bcc     0.0049     0.655     0.234     0.218 -0.6576  0.7282 -0.1930
 
              Baa    -0.0183    -0.706    -0.252    -0.236 -0.1712  0.9538 -0.2468
    46 N(14)  Bbb    -0.0159    -0.612    -0.218    -0.204  0.9852  0.1677 -0.0353
              Bcc     0.0342     1.318     0.470     0.440 -0.0078  0.2492  0.9684
 
              Baa    -0.0027    -1.435    -0.512    -0.479 -0.4421  0.5262  0.7264
    47 H(1)   Bbb    -0.0013    -0.689    -0.246    -0.230  0.8760  0.0794  0.4757
              Bcc     0.0040     2.124     0.758     0.708  0.1927  0.8466 -0.4961
 
              Baa    -0.0027    -1.457    -0.520    -0.486  0.9780  0.0577  0.2007
    48 H(1)   Bbb    -0.0023    -1.240    -0.442    -0.414 -0.1049  0.9668  0.2329
              Bcc     0.0051     2.696     0.962     0.899 -0.1806 -0.2488  0.9516
 
              Baa    -0.0047    -2.523    -0.900    -0.842 -0.0937  0.6859  0.7217
    49 H(1)   Bbb     0.0006     0.337     0.120     0.112  0.9944  0.0293  0.1013
              Bcc     0.0041     2.186     0.780     0.729  0.0483  0.7271 -0.6848
 
              Baa    -0.0065    -3.461    -1.235    -1.154  0.0011  0.2472  0.9690
    50 H(1)   Bbb    -0.0034    -1.810    -0.646    -0.604 -0.2391  0.9409 -0.2398
              Bcc     0.0099     5.271     1.881     1.758  0.9710  0.2314 -0.0602
 
              Baa    -0.0284   -15.132    -5.400    -5.048  0.9971  0.0731 -0.0208
    51 H(1)   Bbb    -0.0042    -2.224    -0.794    -0.742  0.0016  0.2529  0.9675
              Bcc     0.0325    17.356     6.193     5.789 -0.0760  0.9647 -0.2521
 
              Baa    -0.0039    -2.055    -0.733    -0.686  0.9915  0.1293 -0.0147
    52 H(1)   Bbb    -0.0035    -1.857    -0.662    -0.619 -0.0179  0.2476  0.9687
              Bcc     0.0073     3.912     1.396     1.305 -0.1289  0.9602 -0.2478
 
              Baa    -0.0022    -1.152    -0.411    -0.384 -0.0030  0.2538  0.9673
    53 H(1)   Bbb    -0.0009    -0.488    -0.174    -0.163 -0.1557  0.9554 -0.2511
              Bcc     0.0031     1.640     0.585     0.547  0.9878  0.1513 -0.0366
 
              Baa    -0.0054    -2.895    -1.033    -0.966  0.6299  0.7518 -0.1949
    54 H(1)   Bbb    -0.0029    -1.525    -0.544    -0.509 -0.0028  0.2531  0.9674
              Bcc     0.0083     4.420     1.577     1.474  0.7767 -0.6089  0.1616
 
              Baa    -0.0009    -0.468    -0.167    -0.156 -0.4046  0.8088 -0.4268
    55 H(1)   Bbb    -0.0005    -0.251    -0.089    -0.084 -0.1987  0.3778  0.9043
              Bcc     0.0013     0.719     0.257     0.240  0.8926  0.4507  0.0078
 
              Baa    -0.0013    -0.698    -0.249    -0.233 -0.5187  0.8261  0.2202
    56 H(1)   Bbb    -0.0005    -0.243    -0.087    -0.081 -0.3895 -0.4576  0.7993
              Bcc     0.0018     0.941     0.336     0.314  0.7611  0.3288  0.5591
 
              Baa    -0.0006    -0.339    -0.121    -0.113  0.0339 -0.0187  0.9993
    57 H(1)   Bbb    -0.0004    -0.215    -0.077    -0.072  0.9151 -0.4013 -0.0385
              Bcc     0.0010     0.554     0.198     0.185  0.4017  0.9158  0.0035
 
              Baa    -0.0005    -0.252    -0.090    -0.084  0.2092 -0.4512  0.8676
    58 H(1)   Bbb    -0.0003    -0.162    -0.058    -0.054  0.8243 -0.3959 -0.4047
              Bcc     0.0008     0.414     0.148     0.138  0.5260  0.7998  0.2891
 
              Baa    -0.0011    -0.568    -0.203    -0.190  0.2237 -0.3956  0.8908
    59 H(1)   Bbb    -0.0006    -0.314    -0.112    -0.105  0.9487 -0.1210 -0.2920
              Bcc     0.0017     0.882     0.315     0.294  0.2233  0.9104  0.3483
 
              Baa    -0.0016    -0.854    -0.305    -0.285 -0.5143  0.7441 -0.4264
    60 H(1)   Bbb    -0.0004    -0.190    -0.068    -0.063  0.5483  0.6676  0.5036
              Bcc     0.0020     1.044     0.372     0.348 -0.6594 -0.0252  0.7514
 
              Baa    -0.0009    -0.454    -0.162    -0.151 -0.1386  0.9459  0.2935
    61 H(1)   Bbb    -0.0005    -0.290    -0.103    -0.097  0.3177 -0.2382  0.9178
              Bcc     0.0014     0.744     0.265     0.248  0.9380  0.2205 -0.2675
 
              Baa    -0.0004    -0.236    -0.084    -0.079 -0.1078  0.7854  0.6095
    62 H(1)   Bbb    -0.0003    -0.164    -0.058    -0.055  0.8464 -0.2491  0.4707
              Bcc     0.0007     0.400     0.143     0.133 -0.5215 -0.5666  0.6379
 
              Baa    -0.0005    -0.258    -0.092    -0.086  0.0956  0.3941  0.9141
    63 H(1)   Bbb    -0.0004    -0.200    -0.071    -0.067  0.8549 -0.5030  0.1274
              Bcc     0.0009     0.458     0.163     0.153  0.5100  0.7692 -0.3850
 
              Baa    -0.0008    -0.431    -0.154    -0.144 -0.2294  0.6404  0.7330
    64 H(1)   Bbb    -0.0006    -0.298    -0.106    -0.099  0.9432 -0.0396  0.3298
              Bcc     0.0014     0.730     0.260     0.243  0.2402  0.7670 -0.5949
 
              Baa    -0.0004    -0.211    -0.075    -0.070 -0.1778  0.9553 -0.2362
    65 H(1)   Bbb    -0.0003    -0.142    -0.051    -0.047  0.0177  0.2430  0.9699
              Bcc     0.0007     0.353     0.126     0.118  0.9839  0.1683 -0.0601
 
              Baa    -0.0002    -0.120    -0.043    -0.040  0.2629  0.2772  0.9242
    66 H(1)   Bbb    -0.0001    -0.075    -0.027    -0.025  0.1581  0.9325 -0.3246
              Bcc     0.0004     0.194     0.069     0.065  0.9518 -0.2314 -0.2013
 
              Baa    -0.0001    -0.056    -0.020    -0.019  0.4174  0.3446  0.8408
    67 H(1)   Bbb    -0.0001    -0.050    -0.018    -0.017  0.2317  0.8544 -0.4652
              Bcc     0.0002     0.106     0.038     0.035  0.8787 -0.3890 -0.2768
 
              Baa    -0.0001    -0.038    -0.013    -0.013  0.3654  0.9174  0.1575
    68 H(1)   Bbb    -0.0001    -0.027    -0.010    -0.009 -0.0163 -0.1629  0.9865
              Bcc     0.0001     0.064     0.023     0.022  0.9307 -0.3631 -0.0446
 
              Baa    -0.0001    -0.035    -0.013    -0.012  0.1862  0.5920  0.7841
    69 H(1)   Bbb    -0.0001    -0.028    -0.010    -0.009  0.2862  0.7308 -0.6197
              Bcc     0.0001     0.063     0.022     0.021  0.9399 -0.3398  0.0334
 
              Baa    -0.0001    -0.049    -0.017    -0.016  0.0365  0.3347  0.9416
    70 H(1)   Bbb    -0.0001    -0.036    -0.013    -0.012  0.2457  0.9103 -0.3331
              Bcc     0.0002     0.085     0.030     0.028  0.9687 -0.2435  0.0490
 
              Baa    -0.0002    -0.126    -0.045    -0.042 -0.1607  0.6221  0.7663
    71 H(1)   Bbb    -0.0001    -0.077    -0.028    -0.026  0.2846  0.7726 -0.5675
              Bcc     0.0004     0.203     0.073     0.068  0.9451 -0.1269  0.3012
 
              Baa    -0.0001    -0.059    -0.021    -0.020 -0.2897  0.8265  0.4826
    72 H(1)   Bbb    -0.0001    -0.050    -0.018    -0.017 -0.2412 -0.5510  0.7989
              Bcc     0.0002     0.109     0.039     0.036  0.9262  0.1150  0.3590
 
              Baa    -0.0001    -0.039    -0.014    -0.013 -0.0936  0.9929  0.0737
    73 H(1)   Bbb    -0.0000    -0.026    -0.009    -0.009 -0.1149 -0.0843  0.9898
              Bcc     0.0001     0.065     0.023     0.022  0.9890  0.0842  0.1220
 
              Baa    -0.0001    -0.036    -0.013    -0.012 -0.0468  0.7237  0.6885
    74 H(1)   Bbb    -0.0001    -0.029    -0.010    -0.010  0.0102 -0.6889  0.7248
              Bcc     0.0001     0.065     0.023     0.022  0.9989  0.0409  0.0248
 
              Baa    -0.0001    -0.049    -0.018    -0.016  0.0178  0.3184  0.9478
    75 H(1)   Bbb    -0.0001    -0.039    -0.014    -0.013  0.0922  0.9434 -0.3187
              Bcc     0.0002     0.089     0.032     0.030  0.9956 -0.0930  0.0126
 
              Baa    -0.0004    -0.191    -0.068    -0.064  0.5646  0.8014 -0.1974
    76 H(1)   Bbb    -0.0002    -0.110    -0.039    -0.037 -0.0139  0.2484  0.9686
              Bcc     0.0006     0.301     0.107     0.100  0.8253 -0.5441  0.1514
 
              Baa    -0.0012    -0.665    -0.237    -0.222  0.5731  0.7841 -0.2381
    77 H(1)   Bbb    -0.0008    -0.439    -0.157    -0.146  0.0222  0.2756  0.9610
              Bcc     0.0021     1.104     0.394     0.368  0.8192 -0.5560  0.1405
 
              Baa    -0.0027    -1.441    -0.514    -0.481  0.9853 -0.0862 -0.1472
    78 H(1)   Bbb    -0.0023    -1.244    -0.444    -0.415 -0.0416  0.7157 -0.6972
              Bcc     0.0050     2.686     0.958     0.896  0.1654  0.6931  0.7016
 
              Baa    -0.0027    -1.435    -0.512    -0.479  0.4224 -0.0944  0.9015
    79 H(1)   Bbb    -0.0013    -0.681    -0.243    -0.227  0.8863 -0.1654 -0.4326
              Bcc     0.0040     2.116     0.755     0.706  0.1900  0.9817  0.0138
 
              Baa    -0.0047    -2.514    -0.897    -0.838  0.0843 -0.2260  0.9705
    80 H(1)   Bbb     0.0006     0.311     0.111     0.104  0.9950 -0.0326 -0.0941
              Bcc     0.0041     2.203     0.786     0.735  0.0529  0.9736  0.2221
 

 ---------------------------------------------------------------------------------

 No NMR shielding tensors so no spin-rotation constants.
 Leave Link  601 at Sat Nov  8 06:39:50 2025, MaxMem= 30870077440 cpu:             201.8 elap:               3.5
 (Enter /public/software/gauss/g16/l9999.exe)
 1\1\GINC-CU303\SP\UM062X\def2TZVPP\C41H34N4O1(1-,2)\BAIDING\08-Nov-202
 5\0\\#p M062X/DEF2TZVPP scrf=(solvent=water) em=GD3\\Energy calculatio
 n for M100479509_reduced\\-1,2\C,0,-5.631747,-2.172371,-1.923356\C,0,-
 6.080565,-1.812432,-0.505681\C,0,-5.816534,-0.361184,-0.122801\C,0,-4.
 591178,0.278439,0.043902\C,0,-3.313066,-0.262466,-0.096719\C,0,-2.0648
 62,0.441237,0.089312\C,0,-0.848251,-0.263944,-0.092799\C,0,0.372002,0.
 380475,0.076238\C,0,0.445171,1.749667,0.429023\C,0,-0.749129,2.452803,
 0.614857\C,0,-1.976941,1.812192,0.448525\C,0,1.902886,2.205114,0.56517
 \C,0,2.333336,3.282827,-0.48585\C,0,1.435435,4.505729,-0.705856\C,0,2.
 281836,2.592653,2.031536\C,0,1.689006,3.866201,2.641047\C,0,2.640194,0
 .899472,0.233248\C,0,4.010261,0.674644,0.199064\C,0,4.4947,-0.604324,-
 0.136756\N,0,5.895708,-0.849676,-0.184622\C,0,6.425596,-2.048055,0.368
 004\C,0,5.934604,-2.550454,1.584909\C,0,6.449744,-3.73125,2.117826\C,0
 ,7.471281,-4.422323,1.461208\C,0,7.967187,-3.920597,0.255135\C,0,7.446
 454,-2.750101,-0.294858\C,0,6.764173,0.107326,-0.777584\C,0,6.395957,0
 .766107,-1.962857\C,0,7.245685,1.711211,-2.535916\C,0,8.480807,2.00473
 1,-1.952244\C,0,8.85315,1.34514,-0.778153\C,0,8.002702,0.41141,-0.1876
 45\C,0,3.584944,-1.639202,-0.423929\C,0,2.210381,-1.415648,-0.370896\C
 ,0,1.735608,-0.142127,-0.04655\C,0,-7.110263,0.252252,0.042826\C,0,-7.
 313423,1.597585,0.396595\N,0,-7.416022,2.726842,0.693396\C,0,-5.608623
 ,-2.829012,0.535584\O,0,-7.563142,-1.898187,-0.514919\C,0,-8.106566,-0
 .70095,-0.199531\C,0,-9.521385,-0.637585,-0.173805\C,0,-10.281655,-1.7
 89729,-0.467298\N,0,-10.9238,-2.740548,-0.709132\C,0,-10.225624,0.5434
 71,0.136165\N,0,-10.843497,1.507337,0.38895\H,0,-5.979471,-3.17741,-2.
 180392\H,0,-6.039089,-1.460684,-2.646488\H,0,-4.541903,-2.155358,-1.99
 5448\H,0,-4.664611,1.329806,0.318219\H,0,-3.211428,-1.309146,-0.369304
 \H,0,-0.880827,-1.316344,-0.36443\H,0,-0.742249,3.502752,0.885229\H,0,
 -2.884454,2.38746,0.600185\H,0,3.342072,3.615923,-0.21034\H,0,2.438136
 ,2.775422,-1.451982\H,0,1.267379,5.088467,0.202499\H,0,1.906013,5.1701
 84,-1.439282\H,0,0.459005,4.219781,-1.106709\H,0,2.015234,1.741212,2.6
 69751\H,0,3.375482,2.670555,2.069077\H,0,2.001549,3.94335,3.688517\H,0
 ,2.036681,4.769924,2.13379\H,0,0.595411,3.865985,2.628718\H,0,4.712789
 ,1.46935,0.428909\H,0,5.151947,-2.013136,2.109955\H,0,6.05799,-4.10355
 ,3.06002\H,0,7.87461,-5.337697,1.882844\H,0,8.755864,-4.449593,-0.2720
 9\H,0,7.827457,-2.377319,-1.239744\H,0,5.445695,0.533921,-2.432003\H,0
 ,6.9439,2.209667,-3.452606\H,0,9.142707,2.736281,-2.405123\H,0,9.80626
 4,1.56725,-0.306849\H,0,8.294514,-0.083628,0.732526\H,0,3.962919,-2.62
 0236,-0.691304\H,0,1.523075,-2.226255,-0.596144\H,0,-5.994847,-2.57187
 5,1.525559\H,0,-5.961524,-3.82893,0.265997\H,0,-4.517595,-2.849909,0.5
 83126\\Version=ES64L-G16RevA.03\State=2-A\HF=-1877.1105182\S2=0.778334
 \S2-1=0.\S2A=0.750532\RMSD=4.149e-09\Dipole=18.3438763,-1.2272108,-0.3
 11978\Quadrupole=-223.8621162,105.3845737,118.4775425,13.0097474,2.809
 0334,-7.2818896\PG=C01 [X(C41H34N4O1)]\\@


 DESK:  A WASTEBASKET WITH DRAWERS.
 Job cpu time:       1 days 11 hours 21 minutes 10.5 seconds.
 Elapsed time:       0 days  0 hours 33 minutes 33.8 seconds.
 File lengths (MBytes):  RWF=   3863 Int=      0 D2E=      0 Chk=    252 Scr=      1
 Normal termination of Gaussian 16 at Sat Nov  8 06:39:52 2025.
