 Entering Gaussian System, Link 0=g16
 Input=M100032143_sp.gjf
 Output=M100032143_sp.log
 Initial command:
 /public/software/gauss/g16/l1.exe "/public/home/baiding/1101_v2_sp/tmp_M100032143_sp_1568608/Gau-4122389.inp" -scrdir="/public/home/baiding/1101_v2_sp/tmp_M100032143_sp_1568608/"
 Entering Link 1 = /public/software/gauss/g16/l1.exe PID=   4122390.
  
 Copyright (c) 1988,1990,1992,1993,1995,1998,2003,2009,2016,
            Gaussian, Inc.  All Rights Reserved.
  
 This is part of the Gaussian(R) 16 program.  It is based on
 the Gaussian(R) 09 system (copyright 2009, Gaussian, Inc.),
 the Gaussian(R) 03 system (copyright 2003, Gaussian, Inc.),
 the Gaussian(R) 98 system (copyright 1998, Gaussian, Inc.),
 the Gaussian(R) 94 system (copyright 1995, Gaussian, Inc.),
 the Gaussian 92(TM) system (copyright 1992, Gaussian, Inc.),
 the Gaussian 90(TM) system (copyright 1990, Gaussian, Inc.),
 the Gaussian 88(TM) system (copyright 1988, Gaussian, Inc.),
 the Gaussian 86(TM) system (copyright 1986, Carnegie Mellon
 University), and the Gaussian 82(TM) system (copyright 1983,
 Carnegie Mellon University). Gaussian is a federally registered
 trademark of Gaussian, Inc.
  
 This software contains proprietary and confidential information,
 including trade secrets, belonging to Gaussian, Inc.
  
 This software is provided under written license and may be
 used, copied, transmitted, or stored only in accord with that
 written license.
  
 The following legend is applicable only to US Government
 contracts under FAR:
  
                    RESTRICTED RIGHTS LEGEND
  
 Use, reproduction and disclosure by the US Government is
 subject to restrictions as set forth in subparagraphs (a)
 and (c) of the Commercial Computer Software - Restricted
 Rights clause in FAR 52.227-19.
  
 Gaussian, Inc.
 340 Quinnipiac St., Bldg. 40, Wallingford CT 06492
  
  
 ---------------------------------------------------------------
 Warning -- This program may not be used in any manner that
 competes with the business of Gaussian, Inc. or will provide
 assistance to any competitor of Gaussian, Inc.  The licensee
 of this program is prohibited from giving any competitor of
 Gaussian, Inc. access to this program.  By using this program,
 the user acknowledges that Gaussian, Inc. is engaged in the
 business of creating and licensing software in the field of
 computational chemistry and represents and warrants to the
 licensee that it is not a competitor of Gaussian, Inc. and that
 it will not use this program in any manner prohibited above.
 ---------------------------------------------------------------
  

 Cite this work as:
 Gaussian 16, Revision A.03,
 M. J. Frisch, G. W. Trucks, H. B. Schlegel, G. E. Scuseria, 
 M. A. Robb, J. R. Cheeseman, G. Scalmani, V. Barone, 
 G. A. Petersson, H. Nakatsuji, X. Li, M. Caricato, A. V. Marenich, 
 J. Bloino, B. G. Janesko, R. Gomperts, B. Mennucci, H. P. Hratchian, 
 J. V. Ortiz, A. F. Izmaylov, J. L. Sonnenberg, D. Williams-Young, 
 F. Ding, F. Lipparini, F. Egidi, J. Goings, B. Peng, A. Petrone, 
 T. Henderson, D. Ranasinghe, V. G. Zakrzewski, J. Gao, N. Rega, 
 G. Zheng, W. Liang, M. Hada, M. Ehara, K. Toyota, R. Fukuda, 
 J. Hasegawa, M. Ishida, T. Nakajima, Y. Honda, O. Kitao, H. Nakai, 
 T. Vreven, K. Throssell, J. A. Montgomery, Jr., J. E. Peralta, 
 F. Ogliaro, M. J. Bearpark, J. J. Heyd, E. N. Brothers, K. N. Kudin, 
 V. N. Staroverov, T. A. Keith, R. Kobayashi, J. Normand, 
 K. Raghavachari, A. P. Rendell, J. C. Burant, S. S. Iyengar, 
 J. Tomasi, M. Cossi, J. M. Millam, M. Klene, C. Adamo, R. Cammi, 
 J. W. Ochterski, R. L. Martin, K. Morokuma, O. Farkas, 
 J. B. Foresman, and D. J. Fox, Gaussian, Inc., Wallingford CT, 2016.
 
 ******************************************
 Gaussian 16:  ES64L-G16RevA.03 25-Dec-2016
                 6-Nov-2025 
 ******************************************
 %nprocshared=64
 Will use up to   64 processors via shared memory.
 %mem=230GB
 %chk=M100032143_sp.chk
 ----------------------------------------------
 #p M062X/DEF2TZVPP scrf=(solvent=water) em=GD3
 ----------------------------------------------
 1/38=1,172=1/1;
 2/12=2,17=6,18=5,40=1/2;
 3/5=44,7=202,11=2,25=1,30=1,70=2201,72=1,74=-55,124=31/1,2,3;
 4//1;
 5/5=2,38=5,53=1/2;
 6/7=2,8=2,9=2,10=2,28=1/1;
 99/5=1,9=1/99;
 Leave Link    1 at Thu Nov  6 05:00:10 2025, MaxMem= 30870077440 cpu:              13.7 elap:               0.2
 (Enter /public/software/gauss/g16/l101.exe)
 ---------------------------------
 Energy calculation for M100032143
 ---------------------------------
 Symbolic Z-matrix:
 Charge =  0 Multiplicity = 1
 C                    -3.28606   3.10613   0.074 
 C                    -1.88235   2.58194   0.05415 
 C                    -0.75234   3.37979  -0.00412 
 C                     0.39366   2.54569  -0.02057 
 C                     1.78455   2.92127  -0.08399 
 C                     2.21783   4.20186   0.01746 
 C                     3.60263   4.6612   -0.04719 
 C                     4.70205   3.79558  -0.23201 
 C                     5.99881   4.2963   -0.28424 
 C                     6.2352    5.66991  -0.15406 
 C                     5.15883   6.54053   0.02966 
 C                     3.85893   6.04138   0.08255 
 N                    -0.01881   1.24582   0.01984 
 C                    -1.41498   1.22206   0.07213 
 C                    -2.10908   0.00009   0.10623 
 C                    -1.41506  -1.22194   0.07205 
 C                    -1.88254  -2.58177   0.05436 
 C                    -3.28628  -3.10588   0.07443 
 C                    -0.75258  -3.37973  -0.00384 
 C                     0.39347  -2.54573  -0.02053 
 C                     1.78434  -2.92137  -0.0841 
 C                     2.21761  -4.20193   0.0178 
 C                     3.60238  -4.66135  -0.04705 
 C                     3.85864  -6.04151   0.08291 
 C                     5.15851  -6.54073   0.02981 
 C                     6.23488  -5.67019  -0.15432 
 C                     5.99852  -4.2966   -0.28468 
 C                     4.70179  -3.79581  -0.23226 
 N                    -0.01892  -1.2458    0.01967 
 B                     0.88631  -0.00007   0.19694 
 F                     1.90345  -0.00001  -0.77377 
 F                     1.47231  -0.0002    1.47067 
 C                    -3.60187   0.00015   0.17064 
 C                    -4.36627  -0.00032  -1.00368 
 C                    -5.75807  -0.00025  -0.95159 
 C                    -6.40264   0.00028   0.29184 
 C                    -5.65119   0.00075   1.47213 
 C                    -4.26062   0.00069   1.40786 
 N                    -7.81577   0.00039   0.45419 
 N                    -8.52695  -0.00009  -0.55747 
 N                    -9.29814  -0.00049  -1.39764 
 H                    -3.83167   2.78359   0.96581 
 H                    -3.2681    4.19906   0.06295 
 H                    -3.86255   2.76713  -0.79207 
 H                    -0.74256   4.45995  -0.0509 
 H                     2.49399   2.11505  -0.22978 
 H                     1.48397   4.99135   0.16715 
 H                     4.54156   2.72713  -0.3344 
 H                     6.83157   3.61397  -0.42687 
 H                     7.24956   6.05491  -0.19566 
 H                     5.33153   7.60777   0.13186 
 H                     3.02322   6.72108   0.22566 
 H                    -3.83191  -2.78287   0.96606 
 H                    -3.86272  -2.7673   -0.79183 
 H                    -3.26837  -4.19881   0.06394 
 H                    -0.74287  -4.4599   -0.05049 
 H                     2.49375  -2.11521  -0.23037 
 H                     1.48375  -4.99132   0.16802 
 H                     3.02293  -6.72115   0.22635 
 H                     5.33119  -7.60796   0.13218 
 H                     7.24922  -6.05524  -0.19607 
 H                     6.83128  -3.61432  -0.42761 
 H                     4.54132  -2.72737  -0.33478 
 H                    -3.87029  -0.00074  -1.96909 
 H                    -6.33103  -0.0006   -1.87361 
 H                    -6.16133   0.00117   2.42935 
 H                    -3.68286   0.00106   2.32655 
 
 ITRead=  0  0  0  0  0  0  0  0  0  0  0  0  0  0  0  0  0  0  0  0
 ITRead=  0  0  0  0  0  0  0  0  0  0  0  0  0  0  0  0  0  0  0  0
 ITRead=  0  0  0  0  0  0  0  0  0  0  0  0  0  0  0  0  0  0  0  0
 ITRead=  0  0  0  0  0  0  0
 MicOpt= -1 -1 -1 -1 -1 -1 -1 -1 -1 -1 -1 -1 -1 -1 -1 -1 -1 -1 -1 -1
 MicOpt= -1 -1 -1 -1 -1 -1 -1 -1 -1 -1 -1 -1 -1 -1 -1 -1 -1 -1 -1 -1
 MicOpt= -1 -1 -1 -1 -1 -1 -1 -1 -1 -1 -1 -1 -1 -1 -1 -1 -1 -1 -1 -1
 MicOpt= -1 -1 -1 -1 -1 -1 -1
 NAtoms=     67 NQM=       67 NQMF=       0 NMMI=      0 NMMIF=      0
                NMic=       0 NMicF=      0.
                    Isotopes and Nuclear Properties:
 (Nuclear quadrupole moments (NQMom) in fm**2, nuclear magnetic moments (NMagM)
  in nuclear magnetons)

  Atom         1           2           3           4           5           6           7           8           9          10
 IAtWgt=          12          12          12          12          12          12          12          12          12          12
 AtmWgt=  12.0000000  12.0000000  12.0000000  12.0000000  12.0000000  12.0000000  12.0000000  12.0000000  12.0000000  12.0000000
 NucSpn=           0           0           0           0           0           0           0           0           0           0
 AtZEff=  -0.0000000  -0.0000000  -0.0000000  -0.0000000  -0.0000000  -0.0000000  -0.0000000  -0.0000000  -0.0000000  -0.0000000
 NQMom=    0.0000000   0.0000000   0.0000000   0.0000000   0.0000000   0.0000000   0.0000000   0.0000000   0.0000000   0.0000000
 NMagM=    0.0000000   0.0000000   0.0000000   0.0000000   0.0000000   0.0000000   0.0000000   0.0000000   0.0000000   0.0000000
 AtZNuc=   6.0000000   6.0000000   6.0000000   6.0000000   6.0000000   6.0000000   6.0000000   6.0000000   6.0000000   6.0000000

  Atom        11          12          13          14          15          16          17          18          19          20
 IAtWgt=          12          12          14          12          12          12          12          12          12          12
 AtmWgt=  12.0000000  12.0000000  14.0030740  12.0000000  12.0000000  12.0000000  12.0000000  12.0000000  12.0000000  12.0000000
 NucSpn=           0           0           2           0           0           0           0           0           0           0
 AtZEff=  -0.0000000  -0.0000000  -0.0000000  -0.0000000  -0.0000000  -0.0000000  -0.0000000  -0.0000000  -0.0000000  -0.0000000
 NQMom=    0.0000000   0.0000000   2.0440000   0.0000000   0.0000000   0.0000000   0.0000000   0.0000000   0.0000000   0.0000000
 NMagM=    0.0000000   0.0000000   0.4037610   0.0000000   0.0000000   0.0000000   0.0000000   0.0000000   0.0000000   0.0000000
 AtZNuc=   6.0000000   6.0000000   7.0000000   6.0000000   6.0000000   6.0000000   6.0000000   6.0000000   6.0000000   6.0000000

  Atom        21          22          23          24          25          26          27          28          29          30
 IAtWgt=          12          12          12          12          12          12          12          12          14          11
 AtmWgt=  12.0000000  12.0000000  12.0000000  12.0000000  12.0000000  12.0000000  12.0000000  12.0000000  14.0030740  11.0093053
 NucSpn=           0           0           0           0           0           0           0           0           2           3
 AtZEff=  -0.0000000  -0.0000000  -0.0000000  -0.0000000  -0.0000000  -0.0000000  -0.0000000  -0.0000000  -0.0000000  -0.0000000
 NQMom=    0.0000000   0.0000000   0.0000000   0.0000000   0.0000000   0.0000000   0.0000000   0.0000000   2.0440000   4.0590000
 NMagM=    0.0000000   0.0000000   0.0000000   0.0000000   0.0000000   0.0000000   0.0000000   0.0000000   0.4037610   2.6886370
 AtZNuc=   6.0000000   6.0000000   6.0000000   6.0000000   6.0000000   6.0000000   6.0000000   6.0000000   7.0000000   5.0000000

  Atom        31          32          33          34          35          36          37          38          39          40
 IAtWgt=          19          19          12          12          12          12          12          12          14          14
 AtmWgt=  18.9984033  18.9984033  12.0000000  12.0000000  12.0000000  12.0000000  12.0000000  12.0000000  14.0030740  14.0030740
 NucSpn=           1           1           0           0           0           0           0           0           2           2
 AtZEff=  -0.0000000  -0.0000000  -0.0000000  -0.0000000  -0.0000000  -0.0000000  -0.0000000  -0.0000000  -0.0000000  -0.0000000
 NQMom=    0.0000000   0.0000000   0.0000000   0.0000000   0.0000000   0.0000000   0.0000000   0.0000000   2.0440000   2.0440000
 NMagM=    2.6288670   2.6288670   0.0000000   0.0000000   0.0000000   0.0000000   0.0000000   0.0000000   0.4037610   0.4037610
 AtZNuc=   9.0000000   9.0000000   6.0000000   6.0000000   6.0000000   6.0000000   6.0000000   6.0000000   7.0000000   7.0000000

  Atom        41          42          43          44          45          46          47          48          49          50
 IAtWgt=          14           1           1           1           1           1           1           1           1           1
 AtmWgt=  14.0030740   1.0078250   1.0078250   1.0078250   1.0078250   1.0078250   1.0078250   1.0078250   1.0078250   1.0078250
 NucSpn=           2           1           1           1           1           1           1           1           1           1
 AtZEff=  -0.0000000  -0.0000000  -0.0000000  -0.0000000  -0.0000000  -0.0000000  -0.0000000  -0.0000000  -0.0000000  -0.0000000
 NQMom=    2.0440000   0.0000000   0.0000000   0.0000000   0.0000000   0.0000000   0.0000000   0.0000000   0.0000000   0.0000000
 NMagM=    0.4037610   2.7928460   2.7928460   2.7928460   2.7928460   2.7928460   2.7928460   2.7928460   2.7928460   2.7928460
 AtZNuc=   7.0000000   1.0000000   1.0000000   1.0000000   1.0000000   1.0000000   1.0000000   1.0000000   1.0000000   1.0000000

  Atom        51          52          53          54          55          56          57          58          59          60
 IAtWgt=           1           1           1           1           1           1           1           1           1           1
 AtmWgt=   1.0078250   1.0078250   1.0078250   1.0078250   1.0078250   1.0078250   1.0078250   1.0078250   1.0078250   1.0078250
 NucSpn=           1           1           1           1           1           1           1           1           1           1
 AtZEff=  -0.0000000  -0.0000000  -0.0000000  -0.0000000  -0.0000000  -0.0000000  -0.0000000  -0.0000000  -0.0000000  -0.0000000
 NQMom=    0.0000000   0.0000000   0.0000000   0.0000000   0.0000000   0.0000000   0.0000000   0.0000000   0.0000000   0.0000000
 NMagM=    2.7928460   2.7928460   2.7928460   2.7928460   2.7928460   2.7928460   2.7928460   2.7928460   2.7928460   2.7928460
 AtZNuc=   1.0000000   1.0000000   1.0000000   1.0000000   1.0000000   1.0000000   1.0000000   1.0000000   1.0000000   1.0000000

  Atom        61          62          63          64          65          66          67
 IAtWgt=           1           1           1           1           1           1           1
 AtmWgt=   1.0078250   1.0078250   1.0078250   1.0078250   1.0078250   1.0078250   1.0078250
 NucSpn=           1           1           1           1           1           1           1
 AtZEff=  -0.0000000  -0.0000000  -0.0000000  -0.0000000  -0.0000000  -0.0000000  -0.0000000
 NQMom=    0.0000000   0.0000000   0.0000000   0.0000000   0.0000000   0.0000000   0.0000000
 NMagM=    2.7928460   2.7928460   2.7928460   2.7928460   2.7928460   2.7928460   2.7928460
 AtZNuc=   1.0000000   1.0000000   1.0000000   1.0000000   1.0000000   1.0000000   1.0000000
 Leave Link  101 at Thu Nov  6 05:00:10 2025, MaxMem= 30870077440 cpu:               3.8 elap:               0.1
 (Enter /public/software/gauss/g16/l202.exe)
 Stoichiometry    C33H26BF2N5
 Framework group  C1[X(C33H26BF2N5)]
 Deg. of freedom   195
 Full point group                 C1      NOp   1
 Largest Abelian subgroup         C1      NOp   1
 Largest concise Abelian subgroup C1      NOp   1
                         Standard orientation:                         
 ---------------------------------------------------------------------
 Center     Atomic      Atomic             Coordinates (Angstroms)
 Number     Number       Type             X           Y           Z
 ---------------------------------------------------------------------
      1          6           0        3.286063   -3.106132    0.073996
      2          6           0        1.882353   -2.581940    0.054146
      3          6           0        0.752344   -3.379789   -0.004122
      4          6           0       -0.393660   -2.545686   -0.020569
      5          6           0       -1.784548   -2.921272   -0.083993
      6          6           0       -2.217832   -4.201865    0.017459
      7          6           0       -3.602629   -4.661203   -0.047191
      8          6           0       -4.702046   -3.795578   -0.232007
      9          6           0       -5.998811   -4.296303   -0.284236
     10          6           0       -6.235198   -5.669911   -0.154064
     11          6           0       -5.158827   -6.540530    0.029658
     12          6           0       -3.858929   -6.041377    0.082550
     13          7           0        0.018808   -1.245823    0.019843
     14          6           0        1.414978   -1.222058    0.072130
     15          6           0        2.109077   -0.000094    0.106225
     16          6           0        1.415061    1.221943    0.072048
     17          6           0        1.882544    2.581766    0.054364
     18          6           0        3.286281    3.105881    0.074432
     19          6           0        0.752580    3.379725   -0.003837
     20          6           0       -0.393467    2.545734   -0.020526
     21          6           0       -1.784340    2.921370   -0.084101
     22          6           0       -2.217614    4.201932    0.017798
     23          6           0       -3.602375    4.661353   -0.047046
     24          6           0       -3.858642    6.041511    0.082908
     25          6           0       -5.158508    6.540730    0.029811
     26          6           0       -6.234876    5.670193   -0.154320
     27          6           0       -5.998520    4.296598   -0.284683
     28          6           0       -4.701788    3.795807   -0.232257
     29          7           0        0.018916    1.245800    0.019666
     30          5           0       -0.886314    0.000066    0.196944
     31          9           0       -1.903449    0.000010   -0.773767
     32          9           0       -1.472309    0.000195    1.470666
     33          6           0        3.601865   -0.000147    0.170642
     34          6           0        4.366266    0.000323   -1.003676
     35          6           0        5.758074    0.000254   -0.951587
     36          6           0        6.402636   -0.000279    0.291837
     37          6           0        5.651188   -0.000750    1.472127
     38          6           0        4.260620   -0.000693    1.407864
     39          7           0        7.815767   -0.000385    0.454194
     40          7           0        8.526954    0.000092   -0.557469
     41          7           0        9.298141    0.000485   -1.397637
     42          1           0        3.831665   -2.783593    0.965806
     43          1           0        3.268103   -4.199059    0.062949
     44          1           0        3.862553   -2.767133   -0.792066
     45          1           0        0.742555   -4.459953   -0.050901
     46          1           0       -2.493993   -2.115053   -0.229775
     47          1           0       -1.483974   -4.991354    0.167150
     48          1           0       -4.541561   -2.727133   -0.334395
     49          1           0       -6.831570   -3.613966   -0.426868
     50          1           0       -7.249564   -6.054908   -0.195657
     51          1           0       -5.331527   -7.607773    0.131860
     52          1           0       -3.023219   -6.721084    0.225664
     53          1           0        3.831907    2.782870    0.966057
     54          1           0        3.862724    2.767303   -0.791825
     55          1           0        3.268366    4.198815    0.063937
     56          1           0        0.742872    4.459896   -0.050494
     57          1           0       -2.493754    2.115211   -0.230374
     58          1           0       -1.483754    4.991319    0.168016
     59          1           0       -3.022935    6.721152    0.226345
     60          1           0       -5.331185    7.607961    0.132177
     61          1           0       -7.249215    6.055243   -0.196074
     62          1           0       -6.831279    3.614324   -0.427614
     63          1           0       -4.541324    2.727372   -0.334777
     64          1           0        3.870293    0.000738   -1.969089
     65          1           0        6.331028    0.000600   -1.873613
     66          1           0        6.161333   -0.001174    2.429348
     67          1           0        3.682857   -0.001061    2.326548
 ---------------------------------------------------------------------
 Rotational constants (GHZ):           0.0816217           0.0501207           0.0317919
 Leave Link  202 at Thu Nov  6 05:00:10 2025, MaxMem= 30870077440 cpu:               0.2 elap:               0.0
 (Enter /public/software/gauss/g16/l301.exe)
 Standard basis: def2TZVPP (5D, 7F)
 Ernie: Thresh=  0.10000D-02 Tol=  0.10000D-05 Strict=F.
 There are  1866 symmetry adapted cartesian basis functions of A   symmetry.
 There are  1635 symmetry adapted basis functions of A   symmetry.
  1635 basis functions,  2533 primitive gaussians,  1866 cartesian basis functions
   141 alpha electrons      141 beta electrons
       nuclear repulsion energy      4187.2223964671 Hartrees.
 IExCor= 4336 DFT=T Ex+Corr=M062X ExCW=0 ScaHFX=  0.540000
 ScaDFX=  1.000000  1.000000  1.000000  1.000000 ScalE2=  1.000000  1.000000
 IRadAn=      5 IRanWt=     -1 IRanGd=            0 ICorTp=0 IEmpDi=131
 NAtoms=   67 NActive=   67 NUniq=   67 SFac= 1.00D+00 NAtFMM=   60 NAOKFM=T Big=T
 Integral buffers will be    131072 words long.
 Raffenetti 2 integral format.
 Two-electron integral symmetry is turned on.
 R6Disp:  Grimme-D3 Dispersion energy=       -0.0053314839 Hartrees.
 Nuclear repulsion after empirical dispersion term =     4187.2170649832 Hartrees.
 ------------------------------------------------------------------------------
 Polarizable Continuum Model (PCM)
 =================================
 Model                : PCM.
 Atomic radii         : UFF (Universal Force Field).
 Polarization charges : Total charges.
 Charge compensation  : None.
 Solution method      : On-the-fly selection.
 Cavity type          : Scaled VdW (van der Waals Surface) (Alpha=1.100).
 Cavity algorithm     : GePol (No added spheres)
                        Default sphere list used, NSphG=   67.
                        Lebedev-Laikov grids with approx.  5.0 points / Ang**2.
                        Smoothing algorithm: York/Karplus (Gamma=1.0000).
                        Polarization charges: spherical gaussians, with
                                              point-specific exponents (IZeta= 3).
                        Self-potential: point-specific (ISelfS= 7).
                        Self-field    : sphere-specific E.n sum rule (ISelfD= 2).
 Solvent              : Water, Eps=  78.355300 Eps(inf)=   1.777849
 ------------------------------------------------------------------------------
 GePol: Number of generator spheres                  =      67
 GePol: Total number of spheres                      =      67
 GePol: Number of exposed spheres                    =      67 (100.00%)
 GePol: Number of points                             =    5029
 GePol: Average weight of points                     =       0.13
 GePol: Minimum weight of points                     =   0.10D-11
 GePol: Maximum weight of points                     =    0.20577
 GePol: Number of points with low weight             =     341
 GePol: Fraction of low-weight points (<1% of avg)   =       6.78%
 GePol: Cavity surface area                          =    633.836 Ang**2
 GePol: Cavity volume                                =    726.025 Ang**3
 Leave Link  301 at Thu Nov  6 05:00:10 2025, MaxMem= 30870077440 cpu:               3.5 elap:               0.1
 (Enter /public/software/gauss/g16/l302.exe)
 NPDir=0 NMtPBC=     1 NCelOv=     1 NCel=       1 NClECP=     1 NCelD=      1
         NCelK=      1 NCelE2=     1 NClLst=     1 CellRange=     0.0.
 One-electron integrals computed using PRISM.
 One-electron integral symmetry used in STVInt
   1 Symmetry operations used in ECPInt.
 ECPInt:  NShTT=  184528 NPrTT=  529886 LenC2=  122469 LenP2D=  238501.
 LDataN:  DoStor=T MaxTD1= 6 Len=  172
 NBasis=  1635 RedAO= T EigKep=  3.61D-06  NBF=  1635
 NBsUse=  1635 1.00D-06 EigRej= -1.00D+00 NBFU=  1635
 Precomputing XC quadrature grid using
 IXCGrd= 4 IRadAn=           5 IRanWt=          -1 IRanGd=           0 AccXCQ= 0.00D+00.
 Generated NRdTot=       0 NPtTot=           0 NUsed=           0 NTot=          32
 NSgBfM=  1685  1682  1685  1685  1685 MxSgAt=    67 MxSgA2=    67.
 Leave Link  302 at Thu Nov  6 05:00:17 2025, MaxMem= 30870077440 cpu:             446.3 elap:               7.0
 (Enter /public/software/gauss/g16/l303.exe)
 DipDrv:  MaxL=1.
 Leave Link  303 at Thu Nov  6 05:00:17 2025, MaxMem= 30870077440 cpu:              22.1 elap:               0.4
 (Enter /public/software/gauss/g16/l401.exe)
 ExpMin= 6.06D-02 ExpMax= 3.55D+04 ExpMxC= 1.21D+03 IAcc=3 IRadAn=         5 AccDes= 0.00D+00
 Harris functional with IExCor= 1009 and IRadAn=       5 diagonalized for initial guess.
 HarFok:  IExCor= 1009 AccDes= 0.00D+00 IRadAn=         5 IDoV= 1 UseB2=F ITyADJ=14
 ICtDFT=  3500011 ScaDFX=  1.000000  1.000000  1.000000  1.000000
 FoFCou: FMM=F IPFlag=           0 FMFlag=      100000 FMFlg1=        2001
         NFxFlg=           0 DoJE=T BraDBF=F KetDBF=T FulRan=T
         wScrn=  0.000000 ICntrl=       500 IOpCl=  0 I1Cent=   200000004 NGrid=           0
         NMat0=    1 NMatS0=      1 NMatT0=    0 NMatD0=    1 NMtDS0=    0 NMtDT0=    0
 Petite list used in FoFCou.
 Harris En= -1770.65581750485    
 JPrj=0 DoOrth=F DoCkMO=F.
 Leave Link  401 at Thu Nov  6 05:00:26 2025, MaxMem= 30870077440 cpu:             535.8 elap:               8.4
 (Enter /public/software/gauss/g16/l502.exe)
 Integral symmetry usage will be decided dynamically.
 Closed shell SCF:
 Using DIIS extrapolation, IDIIS=  1040.
 NGot= 30870077440 LenX= 30862978417 LenY= 30859494595
 Requested convergence on RMS density matrix=1.00D-08 within 128 cycles.
 Requested convergence on MAX density matrix=1.00D-06.
 Requested convergence on             energy=1.00D-06.
 No special actions if energy rises.
 Fock matrices will be formed incrementally for  20 cycles.

 Cycle   1  Pass 1  IDiag  1:
 FoFJK:  IHMeth= 1 ICntrl=       0 DoSepK=F KAlg= 0 I1Cent=           0 FoldK=F
 IRaf= 630000000 NMat=       1 IRICut=       1 DoRegI=T DoRafI=F ISym2E= 0 IDoP0=0 IntGTp=1.
 FoFCou: FMM=T IPFlag=           0 FMFlag=      100000 FMFlg1=        2001
         NFxFlg=           0 DoJE=F BraDBF=F KetDBF=F FulRan=T
         wScrn=  0.000000 ICntrl=         0 IOpCl=  0 I1Cent=           0 NGrid=           0
         NMat0=    1 NMatS0=      1 NMatT0=    0 NMatD0=    1 NMtDS0=    0 NMtDT0=    0
 Symmetry not used in FoFCou.
 FMM levels:  10  Number of levels for PrismC:   9
 Inv3:  Mode=1 IEnd=    75872523.
 Iteration    1 A*A^-1 deviation from unit magnitude is 1.33D-14 for   1640.
 Iteration    1 A*A^-1 deviation from orthogonality  is 8.96D-15 for   3433    710.
 Iteration    1 A^-1*A deviation from unit magnitude is 1.29D-14 for   1640.
 Iteration    1 A^-1*A deviation from orthogonality  is 5.39D-14 for   2853   2837.
 E= -1770.66980610923    
 DIIS: error= 2.09D-02 at cycle   1 NSaved=   1.
 NSaved= 1 IEnMin= 1 EnMin= -1770.66980610923     IErMin= 1 ErrMin= 2.09D-02
 ErrMax= 2.09D-02  0.00D+00 EMaxC= 1.00D-01 BMatC= 1.12D+00 BMatP= 1.12D+00
 IDIUse=3 WtCom= 7.91D-01 WtEn= 2.09D-01
 Coeff-Com:  0.100D+01
 Coeff-En:   0.100D+01
 Coeff:      0.100D+01
 Gap=     0.238 Goal=   None    Shift=    0.000
 GapD=    0.238 DampG=1.000 DampE=0.500 DampFc=0.5000 IDamp=-1.
 Damping current iteration by 5.00D-01
 RMSDP=1.26D-03 MaxDP=8.03D-02              OVMax= 1.96D-01

 Cycle   2  Pass 1  IDiag  1:
 RMSU=  6.24D-04    CP:  9.76D-01
 E= -1771.13014337581     Delta-E=       -0.460337266572 Rises=F Damp=T
 DIIS: error= 5.48D-03 at cycle   2 NSaved=   2.
 NSaved= 2 IEnMin= 2 EnMin= -1771.13014337581     IErMin= 2 ErrMin= 5.48D-03
 ErrMax= 5.48D-03  0.00D+00 EMaxC= 1.00D-01 BMatC= 1.11D-01 BMatP= 1.12D+00
 IDIUse=3 WtCom= 9.45D-01 WtEn= 5.48D-02
 Coeff-Com: -0.157D+00 0.116D+01
 Coeff-En:   0.000D+00 0.100D+01
 Coeff:     -0.148D+00 0.115D+01
 Gap=     0.240 Goal=   None    Shift=    0.000
 RMSDP=6.83D-04 MaxDP=7.16D-02 DE=-4.60D-01 OVMax= 1.18D-01

 Cycle   3  Pass 1  IDiag  1:
 RMSU=  6.07D-04    CP:  9.59D-01  1.49D+00
 E= -1771.53060800581     Delta-E=       -0.400464630009 Rises=F Damp=F
 DIIS: error= 5.55D-03 at cycle   3 NSaved=   3.
 NSaved= 3 IEnMin= 3 EnMin= -1771.53060800581     IErMin= 2 ErrMin= 5.48D-03
 ErrMax= 5.55D-03  0.00D+00 EMaxC= 1.00D-01 BMatC= 5.09D-02 BMatP= 1.11D-01
 IDIUse=3 WtCom= 9.44D-01 WtEn= 5.55D-02
 Coeff-Com: -0.138D+00 0.510D+00 0.628D+00
 Coeff-En:   0.000D+00 0.000D+00 0.100D+01
 Coeff:     -0.130D+00 0.482D+00 0.649D+00
 Gap=     0.137 Goal=   None    Shift=    0.000
 RMSDP=1.81D-04 MaxDP=3.14D-02 DE=-4.00D-01 OVMax= 5.08D-02

 Cycle   4  Pass 1  IDiag  1:
 RMSU=  1.66D-04    CP:  9.60D-01  1.53D+00  8.90D-01
 E= -1771.56248655587     Delta-E=       -0.031878550051 Rises=F Damp=F
 DIIS: error= 3.39D-03 at cycle   4 NSaved=   4.
 NSaved= 4 IEnMin= 4 EnMin= -1771.56248655587     IErMin= 4 ErrMin= 3.39D-03
 ErrMax= 3.39D-03  0.00D+00 EMaxC= 1.00D-01 BMatC= 1.29D-02 BMatP= 5.09D-02
 IDIUse=3 WtCom= 9.66D-01 WtEn= 3.39D-02
 Coeff-Com: -0.551D-01 0.147D+00 0.376D+00 0.532D+00
 Coeff-En:   0.000D+00 0.000D+00 0.192D+00 0.808D+00
 Coeff:     -0.533D-01 0.142D+00 0.370D+00 0.541D+00
 Gap=     0.138 Goal=   None    Shift=    0.000
 RMSDP=6.94D-05 MaxDP=1.31D-02 DE=-3.19D-02 OVMax= 2.47D-02

 Cycle   5  Pass 1  IDiag  1:
 RMSU=  5.52D-05    CP:  9.59D-01  1.54D+00  8.99D-01  7.51D-01
 E= -1771.57219285674     Delta-E=       -0.009706300872 Rises=F Damp=F
 DIIS: error= 1.35D-03 at cycle   5 NSaved=   5.
 NSaved= 5 IEnMin= 5 EnMin= -1771.57219285674     IErMin= 5 ErrMin= 1.35D-03
 ErrMax= 1.35D-03  0.00D+00 EMaxC= 1.00D-01 BMatC= 1.07D-03 BMatP= 1.29D-02
 IDIUse=3 WtCom= 9.87D-01 WtEn= 1.35D-02
 Coeff-Com: -0.203D-01 0.435D-01 0.162D+00 0.307D+00 0.507D+00
 Coeff-En:   0.000D+00 0.000D+00 0.000D+00 0.000D+00 0.100D+01
 Coeff:     -0.200D-01 0.430D-01 0.160D+00 0.303D+00 0.514D+00
 Gap=     0.139 Goal=   None    Shift=    0.000
 RMSDP=2.22D-05 MaxDP=5.00D-03 DE=-9.71D-03 OVMax= 1.08D-02

 Cycle   6  Pass 1  IDiag  1:
 RMSU=  1.91D-05    CP:  9.59D-01  1.54D+00  9.01D-01  7.57D-01  8.00D-01
 E= -1771.57305167466     Delta-E=       -0.000858817927 Rises=F Damp=F
 DIIS: error= 3.71D-04 at cycle   6 NSaved=   6.
 NSaved= 6 IEnMin= 6 EnMin= -1771.57305167466     IErMin= 6 ErrMin= 3.71D-04
 ErrMax= 3.71D-04  0.00D+00 EMaxC= 1.00D-01 BMatC= 9.98D-05 BMatP= 1.07D-03
 IDIUse=3 WtCom= 9.96D-01 WtEn= 3.71D-03
 Coeff-Com: -0.470D-02 0.741D-02 0.442D-01 0.100D+00 0.279D+00 0.574D+00
 Coeff-En:   0.000D+00 0.000D+00 0.000D+00 0.000D+00 0.884D-02 0.991D+00
 Coeff:     -0.468D-02 0.739D-02 0.441D-01 0.997D-01 0.278D+00 0.575D+00
 Gap=     0.139 Goal=   None    Shift=    0.000
 RMSDP=1.08D-05 MaxDP=1.99D-03 DE=-8.59D-04 OVMax= 2.61D-03

 Cycle   7  Pass 1  IDiag  1:
 RMSU=  8.64D-06    CP:  9.59D-01  1.54D+00  9.03D-01  7.46D-01  9.03D-01
                    CP:  9.03D-01
 E= -1771.57314189506     Delta-E=       -0.000090220398 Rises=F Damp=F
 DIIS: error= 6.16D-05 at cycle   7 NSaved=   7.
 NSaved= 7 IEnMin= 7 EnMin= -1771.57314189506     IErMin= 7 ErrMin= 6.16D-05
 ErrMax= 6.16D-05  0.00D+00 EMaxC= 1.00D-01 BMatC= 8.41D-06 BMatP= 9.98D-05
 IDIUse=1 WtCom= 1.00D+00 WtEn= 0.00D+00
 Coeff-Com:  0.117D-02-0.352D-02-0.728D-02-0.805D-02 0.361D-01 0.243D+00
 Coeff-Com:  0.738D+00
 Coeff:      0.117D-02-0.352D-02-0.728D-02-0.805D-02 0.361D-01 0.243D+00
 Coeff:      0.738D+00
 Gap=     0.140 Goal=   None    Shift=    0.000
 RMSDP=3.99D-06 MaxDP=4.38D-04 DE=-9.02D-05 OVMax= 1.44D-03

 Cycle   8  Pass 1  IDiag  1:
 RMSU=  2.98D-06    CP:  9.59D-01  1.54D+00  9.02D-01  7.48D-01  9.38D-01
                    CP:  9.69D-01  1.13D+00
 E= -1771.57315351945     Delta-E=       -0.000011624382 Rises=F Damp=F
 DIIS: error= 2.83D-05 at cycle   8 NSaved=   8.
 NSaved= 8 IEnMin= 8 EnMin= -1771.57315351945     IErMin= 8 ErrMin= 2.83D-05
 ErrMax= 2.83D-05  0.00D+00 EMaxC= 1.00D-01 BMatC= 1.23D-06 BMatP= 8.41D-06
 IDIUse=1 WtCom= 1.00D+00 WtEn= 0.00D+00
 Coeff-Com:  0.122D-02-0.264D-02-0.994D-02-0.196D-01-0.311D-01 0.893D-02
 Coeff-Com:  0.306D+00 0.747D+00
 Coeff:      0.122D-02-0.264D-02-0.994D-02-0.196D-01-0.311D-01 0.893D-02
 Coeff:      0.306D+00 0.747D+00
 Gap=     0.140 Goal=   None    Shift=    0.000
 RMSDP=1.83D-06 MaxDP=2.35D-04 DE=-1.16D-05 OVMax= 8.76D-04

 Cycle   9  Pass 1  IDiag  1:
 RMSU=  1.15D-06    CP:  9.59D-01  1.54D+00  9.02D-01  7.48D-01  9.49D-01
                    CP:  9.89D-01  1.26D+00  1.09D+00
 E= -1771.57315565170     Delta-E=       -0.000002132252 Rises=F Damp=F
 DIIS: error= 9.94D-06 at cycle   9 NSaved=   9.
 NSaved= 9 IEnMin= 9 EnMin= -1771.57315565170     IErMin= 9 ErrMin= 9.94D-06
 ErrMax= 9.94D-06  0.00D+00 EMaxC= 1.00D-01 BMatC= 2.07D-07 BMatP= 1.23D-06
 IDIUse=1 WtCom= 1.00D+00 WtEn= 0.00D+00
 Coeff-Com:  0.387D-03-0.730D-03-0.334D-02-0.770D-02-0.188D-01-0.255D-01
 Coeff-Com:  0.393D-01 0.320D+00 0.696D+00
 Coeff:      0.387D-03-0.730D-03-0.334D-02-0.770D-02-0.188D-01-0.255D-01
 Coeff:      0.393D-01 0.320D+00 0.696D+00
 Gap=     0.140 Goal=   None    Shift=    0.000
 RMSDP=7.85D-07 MaxDP=1.25D-04 DE=-2.13D-06 OVMax= 3.18D-04

 Cycle  10  Pass 1  IDiag  1:
 RMSU=  6.12D-07    CP:  9.59D-01  1.54D+00  9.02D-01  7.47D-01  9.53D-01
                    CP:  9.95D-01  1.29D+00  1.18D+00  1.08D+00
 E= -1771.57315600368     Delta-E=       -0.000000351979 Rises=F Damp=F
 DIIS: error= 5.73D-06 at cycle  10 NSaved=  10.
 NSaved=10 IEnMin=10 EnMin= -1771.57315600368     IErMin=10 ErrMin= 5.73D-06
 ErrMax= 5.73D-06  0.00D+00 EMaxC= 1.00D-01 BMatC= 4.68D-08 BMatP= 2.07D-07
 IDIUse=1 WtCom= 1.00D+00 WtEn= 0.00D+00
 Coeff-Com: -0.102D-03 0.268D-03 0.788D-03 0.906D-03-0.167D-02-0.110D-01
 Coeff-Com: -0.467D-01-0.289D-01 0.328D+00 0.759D+00
 Coeff:     -0.102D-03 0.268D-03 0.788D-03 0.906D-03-0.167D-02-0.110D-01
 Coeff:     -0.467D-01-0.289D-01 0.328D+00 0.759D+00
 Gap=     0.140 Goal=   None    Shift=    0.000
 RMSDP=3.51D-07 MaxDP=4.08D-05 DE=-3.52D-07 OVMax= 1.56D-04

 Cycle  11  Pass 1  IDiag  1:
 RMSU=  2.26D-07    CP:  9.59D-01  1.54D+00  9.02D-01  7.47D-01  9.53D-01
                    CP:  9.93D-01  1.31D+00  1.23D+00  1.20D+00  1.06D+00
 E= -1771.57315608201     Delta-E=       -0.000000078333 Rises=F Damp=F
 DIIS: error= 1.99D-06 at cycle  11 NSaved=  11.
 NSaved=11 IEnMin=11 EnMin= -1771.57315608201     IErMin=11 ErrMin= 1.99D-06
 ErrMax= 1.99D-06  0.00D+00 EMaxC= 1.00D-01 BMatC= 5.50D-09 BMatP= 4.68D-08
 IDIUse=1 WtCom= 1.00D+00 WtEn= 0.00D+00
 Coeff-Com: -0.934D-04 0.209D-03 0.816D-03 0.149D-02 0.171D-02-0.819D-03
 Coeff-Com: -0.257D-01-0.595D-01 0.539D-01 0.296D+00 0.732D+00
 Coeff:     -0.934D-04 0.209D-03 0.816D-03 0.149D-02 0.171D-02-0.819D-03
 Coeff:     -0.257D-01-0.595D-01 0.539D-01 0.296D+00 0.732D+00
 Gap=     0.140 Goal=   None    Shift=    0.000
 RMSDP=1.13D-07 MaxDP=1.43D-05 DE=-7.83D-08 OVMax= 5.50D-05

 Cycle  12  Pass 1  IDiag  1:
 RMSU=  7.47D-08    CP:  9.59D-01  1.54D+00  9.02D-01  7.47D-01  9.53D-01
                    CP:  9.94D-01  1.31D+00  1.24D+00  1.23D+00  1.17D+00
                    CP:  1.00D+00
 E= -1771.57315609125     Delta-E=       -0.000000009237 Rises=F Damp=F
 DIIS: error= 7.90D-07 at cycle  12 NSaved=  12.
 NSaved=12 IEnMin=12 EnMin= -1771.57315609125     IErMin=12 ErrMin= 7.90D-07
 ErrMax= 7.90D-07  0.00D+00 EMaxC= 1.00D-01 BMatC= 1.35D-09 BMatP= 5.50D-09
 IDIUse=1 WtCom= 1.00D+00 WtEn= 0.00D+00
 Coeff-Com: -0.211D-04 0.415D-04 0.220D-03 0.488D-03 0.847D-03 0.146D-02
 Coeff-Com: -0.410D-02-0.230D-01-0.274D-01-0.761D-02 0.347D+00 0.712D+00
 Coeff:     -0.211D-04 0.415D-04 0.220D-03 0.488D-03 0.847D-03 0.146D-02
 Coeff:     -0.410D-02-0.230D-01-0.274D-01-0.761D-02 0.347D+00 0.712D+00
 Gap=     0.140 Goal=   None    Shift=    0.000
 RMSDP=4.78D-08 MaxDP=7.31D-06 DE=-9.24D-09 OVMax= 2.09D-05

 Cycle  13  Pass 1  IDiag  1:
 RMSU=  2.98D-08    CP:  9.59D-01  1.54D+00  9.02D-01  7.47D-01  9.53D-01
                    CP:  9.94D-01  1.31D+00  1.24D+00  1.25D+00  1.18D+00
                    CP:  1.09D+00  1.15D+00
 E= -1771.57315609359     Delta-E=       -0.000000002346 Rises=F Damp=F
 DIIS: error= 4.13D-07 at cycle  13 NSaved=  13.
 NSaved=13 IEnMin=13 EnMin= -1771.57315609359     IErMin=13 ErrMin= 4.13D-07
 ErrMax= 4.13D-07  0.00D+00 EMaxC= 1.00D-01 BMatC= 1.84D-10 BMatP= 1.35D-09
 IDIUse=1 WtCom= 1.00D+00 WtEn= 0.00D+00
 Coeff-Com:  0.881D-05-0.217D-04-0.535D-04-0.632D-04 0.687D-05 0.923D-03
 Coeff-Com:  0.313D-02 0.184D-02-0.184D-01-0.582D-01 0.161D-01 0.286D+00
 Coeff-Com:  0.769D+00
 Coeff:      0.881D-05-0.217D-04-0.535D-04-0.632D-04 0.687D-05 0.923D-03
 Coeff:      0.313D-02 0.184D-02-0.184D-01-0.582D-01 0.161D-01 0.286D+00
 Coeff:      0.769D+00
 Gap=     0.140 Goal=   None    Shift=    0.000
 RMSDP=2.08D-08 MaxDP=3.71D-06 DE=-2.35D-09 OVMax= 9.14D-06

 Cycle  14  Pass 1  IDiag  1:
 RMSU=  1.18D-08    CP:  9.59D-01  1.54D+00  9.02D-01  7.47D-01  9.53D-01
                    CP:  9.94D-01  1.31D+00  1.24D+00  1.25D+00  1.18D+00
                    CP:  1.12D+00  1.27D+00  1.15D+00
 E= -1771.57315609404     Delta-E=       -0.000000000450 Rises=F Damp=F
 DIIS: error= 1.56D-07 at cycle  14 NSaved=  14.
 NSaved=14 IEnMin=14 EnMin= -1771.57315609404     IErMin=14 ErrMin= 1.56D-07
 ErrMax= 1.56D-07  0.00D+00 EMaxC= 1.00D-01 BMatC= 2.24D-11 BMatP= 1.84D-10
 IDIUse=1 WtCom= 1.00D+00 WtEn= 0.00D+00
 Coeff-Com:  0.607D-05-0.135D-04-0.495D-04-0.899D-04-0.126D-03 0.116D-03
 Coeff-Com:  0.158D-02 0.372D-02-0.279D-02-0.205D-01-0.440D-01-0.725D-03
 Coeff-Com:  0.275D+00 0.788D+00
 Coeff:      0.607D-05-0.135D-04-0.495D-04-0.899D-04-0.126D-03 0.116D-03
 Coeff:      0.158D-02 0.372D-02-0.279D-02-0.205D-01-0.440D-01-0.725D-03
 Coeff:      0.275D+00 0.788D+00
 Gap=     0.140 Goal=   None    Shift=    0.000
 RMSDP=6.62D-09 MaxDP=9.77D-07 DE=-4.50D-10 OVMax= 4.01D-06

 Error on total polarization charges =  0.02497
 SCF Done:  E(RM062X) =  -1771.57315609     A.U. after   14 cycles
            NFock= 14  Conv=0.66D-08     -V/T= 2.0055
 KE= 1.761922930403D+03 PE=-1.250025188823D+04 EE= 4.779538736752D+03
 Leave Link  502 at Thu Nov  6 05:12:18 2025, MaxMem= 30870077440 cpu:           44738.2 elap:             711.8
 (Enter /public/software/gauss/g16/l601.exe)
 Copying SCF densities to generalized density rwf, IOpCl= 0 IROHF=0.

 **********************************************************************

            Population analysis using the SCF density.

 **********************************************************************

 Orbital symmetries:
       Occupied  (A) (A) (A) (A) (A) (A) (A) (A) (A) (A) (A) (A)
                 (A) (A) (A) (A) (A) (A) (A) (A) (A) (A) (A) (A)
                 (A) (A) (A) (A) (A) (A) (A) (A) (A) (A) (A) (A)
                 (A) (A) (A) (A) (A) (A) (A) (A) (A) (A) (A) (A)
                 (A) (A) (A) (A) (A) (A) (A) (A) (A) (A) (A) (A)
                 (A) (A) (A) (A) (A) (A) (A) (A) (A) (A) (A) (A)
                 (A) (A) (A) (A) (A) (A) (A) (A) (A) (A) (A) (A)
                 (A) (A) (A) (A) (A) (A) (A) (A) (A) (A) (A) (A)
                 (A) (A) (A) (A) (A) (A) (A) (A) (A) (A) (A) (A)
                 (A) (A) (A) (A) (A) (A) (A) (A) (A) (A) (A) (A)
                 (A) (A) (A) (A) (A) (A) (A) (A) (A) (A) (A) (A)
                 (A) (A) (A) (A) (A) (A) (A) (A) (A)
       Virtual   (A) (A) (A) (A) (A) (A) (A) (A) (A) (A) (A) (A)
                 (A) (A) (A) (A) (A) (A) (A) (A) (A) (A) (A) (A)
                 (A) (A) (A) (A) (A) (A) (A) (A) (A) (A) (A) (A)
                 (A) (A) (A) (A) (A) (A) (A) (A) (A) (A) (A) (A)
                 (A) (A) (A) (A) (A) (A) (A) (A) (A) (A) (A) (A)
                 (A) (A) (A) (A) (A) (A) (A) (A) (A) (A) (A) (A)
                 (A) (A) (A) (A) (A) (A) (A) (A) (A) (A) (A) (A)
                 (A) (A) (A) (A) (A) (A) (A) (A) (A) (A) (A) (A)
                 (A) (A) (A) (A) (A) (A) (A) (A) (A) (A) (A) (A)
                 (A) (A) (A) (A) (A) (A) (A) (A) (A) (A) (A) (A)
                 (A) (A) (A) (A) (A) (A) (A) (A) (A) (A) (A) (A)
                 (A) (A) (A) (A) (A) (A) (A) (A) (A) (A) (A) (A)
                 (A) (A) (A) (A) (A) (A) (A) (A) (A) (A) (A) (A)
                 (A) (A) (A) (A) (A) (A) (A) (A) (A) (A) (A) (A)
                 (A) (A) (A) (A) (A) (A) (A) (A) (A) (A) (A) (A)
                 (A) (A) (A) (A) (A) (A) (A) (A) (A) (A) (A) (A)
                 (A) (A) (A) (A) (A) (A) (A) (A) (A) (A) (A) (A)
                 (A) (A) (A) (A) (A) (A) (A) (A) (A) (A) (A) (A)
                 (A) (A) (A) (A) (A) (A) (A) (A) (A) (A) (A) (A)
                 (A) (A) (A) (A) (A) (A) (A) (A) (A) (A) (A) (A)
                 (A) (A) (A) (A) (A) (A) (A) (A) (A) (A) (A) (A)
                 (A) (A) (A) (A) (A) (A) (A) (A) (A) (A) (A) (A)
                 (A) (A) (A) (A) (A) (A) (A) (A) (A) (A) (A) (A)
                 (A) (A) (A) (A) (A) (A) (A) (A) (A) (A) (A) (A)
                 (A) (A) (A) (A) (A) (A) (A) (A) (A) (A) (A) (A)
                 (A) (A) (A) (A) (A) (A) (A) (A) (A) (A) (A) (A)
                 (A) (A) (A) (A) (A) (A) (A) (A) (A) (A) (A) (A)
                 (A) (A) (A) (A) (A) (A) (A) (A) (A) (A) (A) (A)
                 (A) (A) (A) (A) (A) (A) (A) (A) (A) (A) (A) (A)
                 (A) (A) (A) (A) (A) (A) (A) (A) (A) (A) (A) (A)
                 (A) (A) (A) (A) (A) (A) (A) (A) (A) (A) (A) (A)
                 (A) (A) (A) (A) (A) (A) (A) (A) (A) (A) (A) (A)
                 (A) (A) (A) (A) (A) (A) (A) (A) (A) (A) (A) (A)
                 (A) (A) (A) (A) (A) (A) (A) (A) (A) (A) (A) (A)
                 (A) (A) (A) (A) (A) (A) (A) (A) (A) (A) (A) (A)
                 (A) (A) (A) (A) (A) (A) (A) (A) (A) (A) (A) (A)
                 (A) (A) (A) (A) (A) (A) (A) (A) (A) (A) (A) (A)
                 (A) (A) (A) (A) (A) (A) (A) (A) (A) (A) (A) (A)
                 (A) (A) (A) (A) (A) (A) (A) (A) (A) (A) (A) (A)
                 (A) (A) (A) (A) (A) (A) (A) (A) (A) (A) (A) (A)
                 (A) (A) (A) (A) (A) (A) (A) (A) (A) (A) (A) (A)
                 (A) (A) (A) (A) (A) (A) (A) (A) (A) (A) (A) (A)
                 (A) (A) (A) (A) (A) (A) (A) (A) (A) (A) (A) (A)
                 (A) (A) (A) (A) (A) (A) (A) (A) (A) (A) (A) (A)
                 (A) (A) (A) (A) (A) (A) (A) (A) (A) (A) (A) (A)
                 (A) (A) (A) (A) (A) (A) (A) (A) (A) (A) (A) (A)
                 (A) (A) (A) (A) (A) (A) (A) (A) (A) (A) (A) (A)
                 (A) (A) (A) (A) (A) (A) (A) (A) (A) (A) (A) (A)
                 (A) (A) (A) (A) (A) (A) (A) (A) (A) (A) (A) (A)
                 (A) (A) (A) (A) (A) (A) (A) (A) (A) (A) (A) (A)
                 (A) (A) (A) (A) (A) (A) (A) (A) (A) (A) (A) (A)
                 (A) (A) (A) (A) (A) (A) (A) (A) (A) (A) (A) (A)
                 (A) (A) (A) (A) (A) (A) (A) (A) (A) (A) (A) (A)
                 (A) (A) (A) (A) (A) (A) (A) (A) (A) (A) (A) (A)
                 (A) (A) (A) (A) (A) (A) (A) (A) (A) (A) (A) (A)
                 (A) (A) (A) (A) (A) (A) (A) (A) (A) (A) (A) (A)
                 (A) (A) (A) (A) (A) (A) (A) (A) (A) (A) (A) (A)
                 (A) (A) (A) (A) (A) (A) (A) (A) (A) (A) (A) (A)
                 (A) (A) (A) (A) (A) (A) (A) (A) (A) (A) (A) (A)
                 (A) (A) (A) (A) (A) (A) (A) (A) (A) (A) (A) (A)
                 (A) (A) (A) (A) (A) (A) (A) (A) (A) (A) (A) (A)
                 (A) (A) (A) (A) (A) (A) (A) (A) (A) (A) (A) (A)
                 (A) (A) (A) (A) (A) (A) (A) (A) (A) (A) (A) (A)
                 (A) (A) (A) (A) (A) (A) (A) (A) (A) (A) (A) (A)
                 (A) (A) (A) (A) (A) (A) (A) (A) (A) (A) (A) (A)
                 (A) (A) (A) (A) (A) (A) (A) (A) (A) (A) (A) (A)
                 (A) (A) (A) (A) (A) (A) (A) (A) (A) (A) (A) (A)
                 (A) (A) (A) (A) (A) (A) (A) (A) (A) (A) (A) (A)
                 (A) (A) (A) (A) (A) (A) (A) (A) (A) (A) (A) (A)
                 (A) (A) (A) (A) (A) (A) (A) (A) (A) (A) (A) (A)
                 (A) (A) (A) (A) (A) (A) (A) (A) (A) (A) (A) (A)
                 (A) (A) (A) (A) (A) (A) (A) (A) (A) (A) (A) (A)
                 (A) (A) (A) (A) (A) (A) (A) (A) (A) (A) (A) (A)
                 (A) (A) (A) (A) (A) (A) (A) (A) (A) (A) (A) (A)
                 (A) (A) (A) (A) (A) (A) (A) (A) (A) (A) (A) (A)
                 (A) (A) (A) (A) (A) (A) (A) (A) (A) (A) (A) (A)
                 (A) (A) (A) (A) (A) (A) (A) (A) (A) (A) (A) (A)
                 (A) (A) (A) (A) (A) (A) (A) (A) (A) (A) (A) (A)
                 (A) (A) (A) (A) (A) (A) (A) (A) (A) (A) (A) (A)
                 (A) (A) (A) (A) (A) (A) (A) (A) (A) (A) (A) (A)
                 (A) (A) (A) (A) (A) (A) (A) (A) (A) (A) (A) (A)
                 (A) (A) (A) (A) (A) (A) (A) (A) (A) (A) (A) (A)
                 (A) (A) (A) (A) (A) (A) (A) (A) (A) (A) (A) (A)
                 (A) (A) (A) (A) (A) (A) (A) (A) (A) (A) (A) (A)
                 (A) (A) (A) (A) (A) (A) (A) (A) (A) (A) (A) (A)
                 (A) (A) (A) (A) (A) (A) (A) (A) (A) (A) (A) (A)
                 (A) (A) (A) (A) (A) (A) (A) (A) (A) (A) (A) (A)
                 (A) (A) (A) (A) (A) (A) (A) (A) (A) (A) (A) (A)
                 (A) (A) (A) (A) (A) (A) (A) (A) (A) (A) (A) (A)
                 (A) (A) (A) (A) (A) (A) (A) (A) (A) (A) (A) (A)
                 (A) (A) (A) (A) (A) (A) (A) (A) (A) (A) (A) (A)
                 (A) (A) (A) (A) (A) (A) (A) (A) (A) (A) (A) (A)
                 (A) (A) (A) (A) (A) (A) (A) (A) (A) (A) (A) (A)
                 (A) (A) (A) (A) (A) (A) (A) (A) (A) (A) (A) (A)
                 (A) (A) (A) (A) (A) (A) (A) (A) (A) (A) (A) (A)
                 (A) (A) (A) (A) (A) (A) (A) (A) (A) (A) (A) (A)
                 (A) (A) (A) (A) (A) (A) (A) (A) (A) (A) (A) (A)
                 (A) (A) (A) (A) (A) (A) (A) (A) (A) (A) (A) (A)
                 (A) (A) (A) (A) (A) (A) (A) (A) (A) (A) (A) (A)
                 (A) (A) (A) (A) (A) (A) (A) (A) (A) (A) (A) (A)
                 (A) (A) (A) (A) (A) (A) (A) (A) (A) (A) (A) (A)
                 (A) (A) (A) (A) (A) (A) (A) (A) (A) (A) (A) (A)
                 (A) (A) (A) (A) (A) (A) (A) (A) (A) (A) (A) (A)
                 (A) (A) (A) (A) (A) (A) (A) (A) (A) (A) (A) (A)
                 (A) (A) (A) (A) (A) (A) (A) (A) (A) (A) (A) (A)
                 (A) (A) (A) (A) (A) (A) (A) (A) (A) (A) (A) (A)
                 (A) (A) (A) (A) (A) (A) (A) (A) (A) (A) (A) (A)
                 (A) (A) (A) (A) (A) (A) (A) (A) (A) (A) (A) (A)
                 (A) (A) (A) (A) (A) (A) (A) (A) (A) (A) (A) (A)
                 (A) (A) (A) (A) (A) (A) (A) (A) (A) (A) (A) (A)
                 (A) (A) (A) (A) (A) (A) (A) (A) (A) (A) (A) (A)
                 (A) (A) (A) (A) (A) (A) (A) (A) (A) (A) (A) (A)
                 (A) (A) (A) (A) (A) (A) (A) (A) (A) (A) (A) (A)
                 (A) (A) (A) (A) (A) (A) (A) (A) (A) (A) (A) (A)
                 (A) (A) (A) (A) (A) (A) (A) (A) (A) (A) (A) (A)
                 (A) (A) (A) (A) (A) (A) (A) (A) (A) (A) (A) (A)
                 (A) (A) (A) (A) (A) (A) (A) (A) (A) (A) (A) (A)
                 (A) (A) (A) (A) (A) (A) (A) (A) (A) (A) (A) (A)
                 (A) (A) (A) (A) (A) (A) (A) (A) (A) (A) (A) (A)
                 (A) (A) (A) (A) (A) (A) (A) (A) (A) (A) (A) (A)
                 (A) (A) (A) (A) (A) (A) (A) (A) (A) (A) (A) (A)
                 (A) (A) (A) (A) (A) (A) (A) (A) (A) (A) (A) (A)
                 (A) (A) (A) (A) (A) (A) (A) (A) (A) (A) (A) (A)
                 (A) (A) (A) (A) (A) (A) (A) (A) (A) (A) (A) (A)
                 (A) (A) (A) (A) (A) (A)
 The electronic state is 1-A.
 Alpha  occ. eigenvalues --  -25.20717 -25.20518 -14.95281 -14.85409 -14.82007
 Alpha  occ. eigenvalues --  -14.78583 -14.78582 -10.61323 -10.60504 -10.60503
 Alpha  occ. eigenvalues --  -10.60246 -10.59012 -10.59010 -10.57274 -10.57118
 Alpha  occ. eigenvalues --  -10.57117 -10.56685 -10.56685 -10.56517 -10.56517
 Alpha  occ. eigenvalues --  -10.56474 -10.56358 -10.56340 -10.56044 -10.55969
 Alpha  occ. eigenvalues --  -10.55969 -10.55403 -10.55403 -10.55371 -10.55371
 Alpha  occ. eigenvalues --  -10.55258 -10.55258 -10.55150 -10.55149 -10.55091
 Alpha  occ. eigenvalues --  -10.55091 -10.54365 -10.54364 -10.54013 -10.54013
 Alpha  occ. eigenvalues --   -7.13330  -1.32549  -1.29295  -1.28168  -1.11056
 Alpha  occ. eigenvalues --   -1.10738  -1.08843  -0.98825  -0.97418  -0.97400
 Alpha  occ. eigenvalues --   -0.94061  -0.91736  -0.91696  -0.90516  -0.90375
 Alpha  occ. eigenvalues --   -0.87159  -0.86360  -0.85969  -0.85143  -0.85098
 Alpha  occ. eigenvalues --   -0.84003  -0.80967  -0.80947  -0.78971  -0.77095
 Alpha  occ. eigenvalues --   -0.73842  -0.72770  -0.71635  -0.70520  -0.69909
 Alpha  occ. eigenvalues --   -0.69746  -0.68630  -0.66833  -0.66319  -0.65405
 Alpha  occ. eigenvalues --   -0.64752  -0.63900  -0.62795  -0.61485  -0.61433
 Alpha  occ. eigenvalues --   -0.60956  -0.60637  -0.59581  -0.59355  -0.58516
 Alpha  occ. eigenvalues --   -0.57946  -0.56475  -0.55846  -0.55027  -0.54352
 Alpha  occ. eigenvalues --   -0.54142  -0.53536  -0.53119  -0.52987  -0.52338
 Alpha  occ. eigenvalues --   -0.52196  -0.51764  -0.51506  -0.51384  -0.50579
 Alpha  occ. eigenvalues --   -0.50392  -0.49495  -0.49313  -0.49307  -0.49056
 Alpha  occ. eigenvalues --   -0.48664  -0.48519  -0.48038  -0.47951  -0.47163
 Alpha  occ. eigenvalues --   -0.46793  -0.46792  -0.46647  -0.46537  -0.45879
 Alpha  occ. eigenvalues --   -0.45688  -0.45174  -0.44335  -0.43444  -0.43345
 Alpha  occ. eigenvalues --   -0.43145  -0.42545  -0.41515  -0.41321  -0.40938
 Alpha  occ. eigenvalues --   -0.40372  -0.40089  -0.39958  -0.38769  -0.38416
 Alpha  occ. eigenvalues --   -0.37941  -0.35170  -0.32963  -0.32268  -0.31891
 Alpha  occ. eigenvalues --   -0.31885  -0.31315  -0.31257  -0.28782  -0.28499
 Alpha  occ. eigenvalues --   -0.23588
 Alpha virt. eigenvalues --   -0.09593  -0.03715  -0.01849  -0.01608  -0.00248
 Alpha virt. eigenvalues --   -0.00054   0.01214   0.01247   0.04831   0.04938
 Alpha virt. eigenvalues --    0.05826   0.06169   0.06840   0.07180   0.08148
 Alpha virt. eigenvalues --    0.08619   0.08683   0.09265   0.09595   0.09826
 Alpha virt. eigenvalues --    0.09947   0.09996   0.10677   0.11322   0.11665
 Alpha virt. eigenvalues --    0.12268   0.12528   0.12991   0.13111   0.13245
 Alpha virt. eigenvalues --    0.13322   0.13626   0.14054   0.14065   0.14460
 Alpha virt. eigenvalues --    0.14567   0.15083   0.15426   0.15777   0.15870
 Alpha virt. eigenvalues --    0.15943   0.16295   0.16424   0.17421   0.17677
 Alpha virt. eigenvalues --    0.17973   0.18178   0.18222   0.18347   0.18373
 Alpha virt. eigenvalues --    0.18780   0.19533   0.20282   0.20691   0.21026
 Alpha virt. eigenvalues --    0.21291   0.21448   0.21557   0.21652   0.22179
 Alpha virt. eigenvalues --    0.22330   0.22497   0.22828   0.22845   0.22930
 Alpha virt. eigenvalues --    0.23644   0.23827   0.23903   0.24479   0.24556
 Alpha virt. eigenvalues --    0.24590   0.25340   0.25530   0.25848   0.25936
 Alpha virt. eigenvalues --    0.26190   0.26410   0.26923   0.27052   0.27192
 Alpha virt. eigenvalues --    0.27377   0.27452   0.27926   0.27974   0.28141
 Alpha virt. eigenvalues --    0.28428   0.28627   0.28973   0.29501   0.29807
 Alpha virt. eigenvalues --    0.29888   0.30268   0.30551   0.30794   0.30860
 Alpha virt. eigenvalues --    0.31282   0.31440   0.31613   0.31947   0.32222
 Alpha virt. eigenvalues --    0.32635   0.32790   0.32851   0.33465   0.33513
 Alpha virt. eigenvalues --    0.33630   0.34004   0.34076   0.34770   0.34938
 Alpha virt. eigenvalues --    0.35106   0.35371   0.35429   0.35940   0.36037
 Alpha virt. eigenvalues --    0.36068   0.36495   0.36571   0.36788   0.36945
 Alpha virt. eigenvalues --    0.37379   0.37605   0.37685   0.38044   0.38216
 Alpha virt. eigenvalues --    0.38264   0.38789   0.39107   0.39365   0.39579
 Alpha virt. eigenvalues --    0.39579   0.39896   0.39994   0.40516   0.40745
 Alpha virt. eigenvalues --    0.41035   0.41408   0.41578   0.41710   0.41808
 Alpha virt. eigenvalues --    0.42151   0.42194   0.42249   0.42581   0.42741
 Alpha virt. eigenvalues --    0.42786   0.43071   0.43104   0.43766   0.44147
 Alpha virt. eigenvalues --    0.44424   0.44609   0.44707   0.44919   0.45169
 Alpha virt. eigenvalues --    0.45213   0.45670   0.45846   0.46002   0.46243
 Alpha virt. eigenvalues --    0.47064   0.47374   0.47565   0.47578   0.47770
 Alpha virt. eigenvalues --    0.48035   0.48897   0.49275   0.49372   0.49487
 Alpha virt. eigenvalues --    0.49611   0.49652   0.49733   0.50500   0.50783
 Alpha virt. eigenvalues --    0.51356   0.51417   0.51447   0.51699   0.51963
 Alpha virt. eigenvalues --    0.52024   0.52426   0.52458   0.52548   0.52726
 Alpha virt. eigenvalues --    0.53012   0.53039   0.53601   0.53728   0.53940
 Alpha virt. eigenvalues --    0.54082   0.54619   0.54697   0.54912   0.55157
 Alpha virt. eigenvalues --    0.55451   0.55889   0.56473   0.56553   0.57308
 Alpha virt. eigenvalues --    0.57332   0.57613   0.57900   0.58905   0.59008
 Alpha virt. eigenvalues --    0.59126   0.59283   0.59291   0.60154   0.61072
 Alpha virt. eigenvalues --    0.61189   0.62318   0.62361   0.62540   0.63191
 Alpha virt. eigenvalues --    0.63289   0.63466   0.63969   0.64223   0.64588
 Alpha virt. eigenvalues --    0.64898   0.65009   0.65869   0.65956   0.66121
 Alpha virt. eigenvalues --    0.66179   0.66786   0.67309   0.67581   0.67907
 Alpha virt. eigenvalues --    0.68036   0.68140   0.68251   0.68809   0.69076
 Alpha virt. eigenvalues --    0.69254   0.69622   0.69660   0.70156   0.70201
 Alpha virt. eigenvalues --    0.70404   0.70464   0.70858   0.70942   0.71154
 Alpha virt. eigenvalues --    0.71398   0.71567   0.71706   0.72147   0.72187
 Alpha virt. eigenvalues --    0.72336   0.73269   0.73477   0.73806   0.73890
 Alpha virt. eigenvalues --    0.74131   0.74307   0.74766   0.74997   0.75292
 Alpha virt. eigenvalues --    0.75687   0.75747   0.75860   0.75937   0.76614
 Alpha virt. eigenvalues --    0.76957   0.77080   0.77873   0.77964   0.78283
 Alpha virt. eigenvalues --    0.78413   0.78532   0.78812   0.79283   0.79504
 Alpha virt. eigenvalues --    0.79512   0.80434   0.80903   0.81138   0.81487
 Alpha virt. eigenvalues --    0.81870   0.82289   0.82623   0.82734   0.83298
 Alpha virt. eigenvalues --    0.83581   0.83975   0.84047   0.84670   0.85005
 Alpha virt. eigenvalues --    0.85299   0.86013   0.86402   0.86408   0.86640
 Alpha virt. eigenvalues --    0.87369   0.87703   0.87727   0.87871   0.88191
 Alpha virt. eigenvalues --    0.88759   0.88877   0.89329   0.89801   0.89850
 Alpha virt. eigenvalues --    0.90014   0.90862   0.91158   0.91303   0.91529
 Alpha virt. eigenvalues --    0.92553   0.92740   0.93061   0.94416   0.94478
 Alpha virt. eigenvalues --    0.94818   0.95294   0.95384   0.95702   0.96177
 Alpha virt. eigenvalues --    0.96501   0.96630   0.97280   0.97380   0.97585
 Alpha virt. eigenvalues --    0.97777   0.98604   0.98705   0.98876   0.99419
 Alpha virt. eigenvalues --    0.99511   0.99711   1.00281   1.00321   1.00438
 Alpha virt. eigenvalues --    1.00885   1.00993   1.01187   1.01200   1.01588
 Alpha virt. eigenvalues --    1.01693   1.02082   1.02575   1.02709   1.03094
 Alpha virt. eigenvalues --    1.03170   1.03710   1.04295   1.04793   1.05187
 Alpha virt. eigenvalues --    1.05348   1.05718   1.05836   1.05908   1.06442
 Alpha virt. eigenvalues --    1.06724   1.07414   1.07456   1.08475   1.08697
 Alpha virt. eigenvalues --    1.09098   1.09312   1.09815   1.10248   1.10478
 Alpha virt. eigenvalues --    1.11054   1.11232   1.11615   1.11953   1.12001
 Alpha virt. eigenvalues --    1.12201   1.12618   1.12769   1.13587   1.13693
 Alpha virt. eigenvalues --    1.14008   1.14227   1.14230   1.15199   1.15481
 Alpha virt. eigenvalues --    1.15739   1.16568   1.16878   1.17432   1.17540
 Alpha virt. eigenvalues --    1.18057   1.18093   1.19048   1.19544   1.19820
 Alpha virt. eigenvalues --    1.20195   1.20315   1.20860   1.21405   1.21526
 Alpha virt. eigenvalues --    1.21683   1.21791   1.22920   1.22993   1.23340
 Alpha virt. eigenvalues --    1.23482   1.23705   1.23965   1.24289   1.24830
 Alpha virt. eigenvalues --    1.25075   1.25261   1.25634   1.25786   1.26512
 Alpha virt. eigenvalues --    1.26604   1.26874   1.27398   1.27890   1.28248
 Alpha virt. eigenvalues --    1.28465   1.28994   1.29398   1.29782   1.29925
 Alpha virt. eigenvalues --    1.30213   1.30834   1.31003   1.31292   1.31831
 Alpha virt. eigenvalues --    1.32118   1.32397   1.32582   1.33061   1.33416
 Alpha virt. eigenvalues --    1.33700   1.34100   1.34128   1.34411   1.34787
 Alpha virt. eigenvalues --    1.35277   1.35556   1.36064   1.36189   1.36430
 Alpha virt. eigenvalues --    1.36707   1.36831   1.37107   1.37381   1.38044
 Alpha virt. eigenvalues --    1.38253   1.38901   1.39105   1.39511   1.39513
 Alpha virt. eigenvalues --    1.39994   1.40670   1.40704   1.41949   1.42634
 Alpha virt. eigenvalues --    1.42920   1.43622   1.43790   1.43806   1.43995
 Alpha virt. eigenvalues --    1.44669   1.45147   1.45200   1.45442   1.45954
 Alpha virt. eigenvalues --    1.46357   1.46791   1.46984   1.47356   1.47486
 Alpha virt. eigenvalues --    1.47587   1.48334   1.48838   1.49306   1.49671
 Alpha virt. eigenvalues --    1.49879   1.50540   1.50868   1.50881   1.51081
 Alpha virt. eigenvalues --    1.51407   1.51618   1.52189   1.52297   1.52455
 Alpha virt. eigenvalues --    1.52517   1.52886   1.53422   1.53570   1.53729
 Alpha virt. eigenvalues --    1.54297   1.54627   1.54850   1.55753   1.55819
 Alpha virt. eigenvalues --    1.56160   1.56284   1.56723   1.56812   1.57135
 Alpha virt. eigenvalues --    1.57301   1.57664   1.57907   1.58260   1.58563
 Alpha virt. eigenvalues --    1.59057   1.59148   1.60068   1.60512   1.61351
 Alpha virt. eigenvalues --    1.61418   1.61535   1.61799   1.61963   1.62456
 Alpha virt. eigenvalues --    1.63088   1.63609   1.63649   1.64033   1.65063
 Alpha virt. eigenvalues --    1.65493   1.65985   1.66087   1.67153   1.67225
 Alpha virt. eigenvalues --    1.67967   1.68298   1.68515   1.68713   1.68794
 Alpha virt. eigenvalues --    1.68971   1.69165   1.69383   1.69703   1.70265
 Alpha virt. eigenvalues --    1.70601   1.71067   1.71661   1.72673   1.72791
 Alpha virt. eigenvalues --    1.72907   1.74084   1.74171   1.75089   1.75089
 Alpha virt. eigenvalues --    1.75449   1.75457   1.75628   1.75949   1.76162
 Alpha virt. eigenvalues --    1.77716   1.77740   1.78300   1.78644   1.78816
 Alpha virt. eigenvalues --    1.79392   1.79834   1.80278   1.81636   1.81640
 Alpha virt. eigenvalues --    1.82226   1.82817   1.83140   1.83843   1.84731
 Alpha virt. eigenvalues --    1.84774   1.85830   1.85895   1.86634   1.87032
 Alpha virt. eigenvalues --    1.87299   1.87443   1.87634   1.88008   1.88867
 Alpha virt. eigenvalues --    1.88919   1.89818   1.90581   1.90877   1.92004
 Alpha virt. eigenvalues --    1.92140   1.92645   1.92914   1.94098   1.94432
 Alpha virt. eigenvalues --    1.95016   1.96446   1.96774   1.96999   1.97108
 Alpha virt. eigenvalues --    1.97567   1.98069   1.98706   1.98937   1.99393
 Alpha virt. eigenvalues --    1.99474   1.99861   2.00165   2.00507   2.00580
 Alpha virt. eigenvalues --    2.00978   2.01868   2.02024   2.03457   2.03678
 Alpha virt. eigenvalues --    2.04042   2.05015   2.05459   2.05922   2.06188
 Alpha virt. eigenvalues --    2.06470   2.06503   2.08025   2.08147   2.08702
 Alpha virt. eigenvalues --    2.09183   2.09395   2.09962   2.10161   2.10680
 Alpha virt. eigenvalues --    2.11048   2.11476   2.11531   2.11980   2.12546
 Alpha virt. eigenvalues --    2.14180   2.15716   2.15733   2.16363   2.16368
 Alpha virt. eigenvalues --    2.17793   2.18268   2.18896   2.19827   2.20241
 Alpha virt. eigenvalues --    2.20695   2.22268   2.23008   2.24054   2.24299
 Alpha virt. eigenvalues --    2.24380   2.25677   2.26291   2.26938   2.27625
 Alpha virt. eigenvalues --    2.28227   2.28308   2.28553   2.28882   2.29528
 Alpha virt. eigenvalues --    2.30682   2.31188   2.31359   2.32121   2.32211
 Alpha virt. eigenvalues --    2.32643   2.33458   2.33773   2.34510   2.34781
 Alpha virt. eigenvalues --    2.35294   2.36109   2.36427   2.37083   2.37174
 Alpha virt. eigenvalues --    2.37182   2.37581   2.38348   2.38586   2.39133
 Alpha virt. eigenvalues --    2.39441   2.39665   2.39790   2.40117   2.40747
 Alpha virt. eigenvalues --    2.41933   2.43630   2.44405   2.45169   2.45331
 Alpha virt. eigenvalues --    2.46190   2.46428   2.46880   2.47052   2.47878
 Alpha virt. eigenvalues --    2.48081   2.48759   2.48798   2.49863   2.50156
 Alpha virt. eigenvalues --    2.51859   2.54018   2.54294   2.55169   2.55335
 Alpha virt. eigenvalues --    2.56409   2.58153   2.58403   2.58764   2.58830
 Alpha virt. eigenvalues --    2.59892   2.60498   2.61424   2.62240   2.62611
 Alpha virt. eigenvalues --    2.62776   2.63751   2.64074   2.64480   2.64898
 Alpha virt. eigenvalues --    2.65964   2.66079   2.66192   2.66699   2.67115
 Alpha virt. eigenvalues --    2.67260   2.68219   2.68244   2.68697   2.69271
 Alpha virt. eigenvalues --    2.69807   2.70016   2.70209   2.72092   2.72309
 Alpha virt. eigenvalues --    2.73138   2.73588   2.73606   2.73802   2.74144
 Alpha virt. eigenvalues --    2.74384   2.75187   2.75400   2.75873   2.75886
 Alpha virt. eigenvalues --    2.75927   2.76399   2.76673   2.76887   2.77052
 Alpha virt. eigenvalues --    2.77057   2.77331   2.77705   2.77929   2.77980
 Alpha virt. eigenvalues --    2.78501   2.78820   2.78948   2.80077   2.80083
 Alpha virt. eigenvalues --    2.80597   2.80720   2.81236   2.81248   2.81467
 Alpha virt. eigenvalues --    2.81952   2.82206   2.82509   2.82652   2.83425
 Alpha virt. eigenvalues --    2.84158   2.84788   2.84789   2.85389   2.85945
 Alpha virt. eigenvalues --    2.86278   2.86555   2.86729   2.86751   2.87652
 Alpha virt. eigenvalues --    2.87673   2.88394   2.88912   2.89070   2.89332
 Alpha virt. eigenvalues --    2.90427   2.90731   2.90891   2.90953   2.91152
 Alpha virt. eigenvalues --    2.91565   2.91967   2.92110   2.92351   2.92408
 Alpha virt. eigenvalues --    2.93061   2.93307   2.93967   2.94516   2.94949
 Alpha virt. eigenvalues --    2.94979   2.95125   2.95570   2.95578   2.96396
 Alpha virt. eigenvalues --    2.97265   2.97812   2.98106   2.98360   2.98443
 Alpha virt. eigenvalues --    2.98462   2.98765   2.99838   2.99876   3.00181
 Alpha virt. eigenvalues --    3.00379   3.00744   3.00919   3.01214   3.01268
 Alpha virt. eigenvalues --    3.01318   3.02099   3.02187   3.02307   3.02636
 Alpha virt. eigenvalues --    3.02810   3.03596   3.03630   3.03774   3.03896
 Alpha virt. eigenvalues --    3.04197   3.04236   3.04589   3.04667   3.05114
 Alpha virt. eigenvalues --    3.05562   3.05678   3.05970   3.06153   3.06202
 Alpha virt. eigenvalues --    3.07014   3.07759   3.07861   3.08302   3.08534
 Alpha virt. eigenvalues --    3.08692   3.08741   3.09017   3.09232   3.09621
 Alpha virt. eigenvalues --    3.09681   3.09897   3.09932   3.10860   3.11200
 Alpha virt. eigenvalues --    3.11975   3.12659   3.12686   3.12982   3.13262
 Alpha virt. eigenvalues --    3.13787   3.13800   3.13946   3.14224   3.14539
 Alpha virt. eigenvalues --    3.14741   3.15184   3.15592   3.15749   3.15976
 Alpha virt. eigenvalues --    3.16320   3.16380   3.16490   3.16973   3.17856
 Alpha virt. eigenvalues --    3.17896   3.18094   3.18716   3.19164   3.19964
 Alpha virt. eigenvalues --    3.20117   3.20441   3.20796   3.20837   3.21138
 Alpha virt. eigenvalues --    3.21411   3.21684   3.22494   3.22549   3.22794
 Alpha virt. eigenvalues --    3.23139   3.23321   3.23855   3.23906   3.24623
 Alpha virt. eigenvalues --    3.24687   3.25124   3.25790   3.26226   3.26266
 Alpha virt. eigenvalues --    3.26386   3.26425   3.27118   3.27388   3.28037
 Alpha virt. eigenvalues --    3.28112   3.28228   3.28605   3.29135   3.29398
 Alpha virt. eigenvalues --    3.30271   3.30471   3.30569   3.30801   3.31555
 Alpha virt. eigenvalues --    3.31589   3.32391   3.32586   3.32606   3.32778
 Alpha virt. eigenvalues --    3.32948   3.33365   3.33491   3.33637   3.33943
 Alpha virt. eigenvalues --    3.34291   3.34533   3.34779   3.35582   3.35699
 Alpha virt. eigenvalues --    3.36275   3.36352   3.36616   3.36935   3.36948
 Alpha virt. eigenvalues --    3.37194   3.37547   3.37721   3.37853   3.38688
 Alpha virt. eigenvalues --    3.38729   3.39062   3.39342   3.40112   3.40188
 Alpha virt. eigenvalues --    3.40318   3.41046   3.41239   3.41871   3.42055
 Alpha virt. eigenvalues --    3.42638   3.42849   3.43297   3.43398   3.44072
 Alpha virt. eigenvalues --    3.44253   3.45948   3.46472   3.46858   3.46968
 Alpha virt. eigenvalues --    3.47242   3.47660   3.48080   3.48097   3.48489
 Alpha virt. eigenvalues --    3.48830   3.49217   3.49494   3.49882   3.50167
 Alpha virt. eigenvalues --    3.50473   3.50702   3.50918   3.50953   3.51671
 Alpha virt. eigenvalues --    3.51847   3.52229   3.52295   3.52471   3.52807
 Alpha virt. eigenvalues --    3.53219   3.53278   3.54011   3.54218   3.54232
 Alpha virt. eigenvalues --    3.54693   3.54921   3.55676   3.55735   3.56339
 Alpha virt. eigenvalues --    3.56685   3.57001   3.57329   3.57453   3.58500
 Alpha virt. eigenvalues --    3.58735   3.58850   3.59853   3.60570   3.60739
 Alpha virt. eigenvalues --    3.61057   3.61180   3.61684   3.61938   3.62132
 Alpha virt. eigenvalues --    3.62488   3.62499   3.62919   3.63080   3.63130
 Alpha virt. eigenvalues --    3.64212   3.64651   3.65503   3.65576   3.66376
 Alpha virt. eigenvalues --    3.66415   3.66963   3.67462   3.67853   3.68373
 Alpha virt. eigenvalues --    3.68777   3.69017   3.69793   3.70113   3.70747
 Alpha virt. eigenvalues --    3.71626   3.71644   3.71925   3.71978   3.72275
 Alpha virt. eigenvalues --    3.72501   3.72574   3.72990   3.73633   3.73657
 Alpha virt. eigenvalues --    3.73988   3.74428   3.75015   3.75236   3.75380
 Alpha virt. eigenvalues --    3.75423   3.76513   3.76625   3.76862   3.76996
 Alpha virt. eigenvalues --    3.77451   3.77738   3.78366   3.78460   3.78896
 Alpha virt. eigenvalues --    3.79083   3.79486   3.79937   3.80169   3.80483
 Alpha virt. eigenvalues --    3.80679   3.80684   3.81044   3.81622   3.81653
 Alpha virt. eigenvalues --    3.82350   3.82849   3.84900   3.85009   3.85115
 Alpha virt. eigenvalues --    3.85193   3.85605   3.85713   3.86330   3.86504
 Alpha virt. eigenvalues --    3.86591   3.86786   3.87848   3.88490   3.88642
 Alpha virt. eigenvalues --    3.88819   3.89098   3.89633   3.89966   3.90290
 Alpha virt. eigenvalues --    3.90294   3.91406   3.91496   3.91833   3.91931
 Alpha virt. eigenvalues --    3.92343   3.93325   3.93900   3.94426   3.94733
 Alpha virt. eigenvalues --    3.94772   3.94904   3.95351   3.95726   3.95939
 Alpha virt. eigenvalues --    3.96654   3.97037   3.97166   3.97799   3.98532
 Alpha virt. eigenvalues --    3.98875   3.99026   3.99323   3.99852   4.00090
 Alpha virt. eigenvalues --    4.00483   4.01619   4.01822   4.01900   4.02524
 Alpha virt. eigenvalues --    4.02844   4.03299   4.03357   4.03676   4.03905
 Alpha virt. eigenvalues --    4.04034   4.05639   4.05869   4.06232   4.06677
 Alpha virt. eigenvalues --    4.06934   4.07244   4.07324   4.07712   4.08038
 Alpha virt. eigenvalues --    4.08650   4.08973   4.09053   4.09743   4.09943
 Alpha virt. eigenvalues --    4.10274   4.10498   4.11037   4.11320   4.11552
 Alpha virt. eigenvalues --    4.11698   4.12180   4.12606   4.13727   4.13804
 Alpha virt. eigenvalues --    4.14677   4.14822   4.15425   4.15656   4.15695
 Alpha virt. eigenvalues --    4.15992   4.16433   4.16716   4.16868   4.17604
 Alpha virt. eigenvalues --    4.18319   4.18481   4.18851   4.19286   4.19424
 Alpha virt. eigenvalues --    4.19456   4.19728   4.19730   4.20395   4.20658
 Alpha virt. eigenvalues --    4.20905   4.21233   4.21314   4.21327   4.21490
 Alpha virt. eigenvalues --    4.21562   4.21627   4.22820   4.23141   4.23484
 Alpha virt. eigenvalues --    4.24093   4.24406   4.24729   4.25172   4.25252
 Alpha virt. eigenvalues --    4.25500   4.26110   4.26521   4.26696   4.27132
 Alpha virt. eigenvalues --    4.27328   4.28106   4.28519   4.28740   4.29182
 Alpha virt. eigenvalues --    4.30282   4.30353   4.30362   4.30680   4.31453
 Alpha virt. eigenvalues --    4.31758   4.32333   4.32499   4.33150   4.33698
 Alpha virt. eigenvalues --    4.34191   4.34610   4.34985   4.36357   4.36513
 Alpha virt. eigenvalues --    4.37386   4.37617   4.38194   4.38276   4.38806
 Alpha virt. eigenvalues --    4.38955   4.39354   4.41055   4.42081   4.42343
 Alpha virt. eigenvalues --    4.42800   4.43164   4.43725   4.45845   4.46353
 Alpha virt. eigenvalues --    4.46644   4.47731   4.48196   4.49128   4.49381
 Alpha virt. eigenvalues --    4.50179   4.50307   4.50723   4.51804   4.51985
 Alpha virt. eigenvalues --    4.52593   4.52708   4.53124   4.53768   4.54548
 Alpha virt. eigenvalues --    4.54869   4.56722   4.57365   4.57657   4.58055
 Alpha virt. eigenvalues --    4.58661   4.58856   4.59416   4.59856   4.60238
 Alpha virt. eigenvalues --    4.60594   4.61137   4.61203   4.62342   4.62459
 Alpha virt. eigenvalues --    4.62864   4.63868   4.64381   4.64441   4.64487
 Alpha virt. eigenvalues --    4.67107   4.67471   4.67856   4.68198   4.68232
 Alpha virt. eigenvalues --    4.69488   4.69537   4.69832   4.70014   4.70871
 Alpha virt. eigenvalues --    4.71169   4.71274   4.71309   4.72399   4.72673
 Alpha virt. eigenvalues --    4.72799   4.73593   4.73894   4.74948   4.75050
 Alpha virt. eigenvalues --    4.75152   4.75932   4.76637   4.77611   4.77977
 Alpha virt. eigenvalues --    4.77990   4.78889   4.79542   4.80585   4.81713
 Alpha virt. eigenvalues --    4.83280   4.84803   4.85657   4.86201   4.86883
 Alpha virt. eigenvalues --    4.86898   4.87323   4.88383   4.89201   4.90372
 Alpha virt. eigenvalues --    4.91520   4.91707   4.91777   4.92342   4.92889
 Alpha virt. eigenvalues --    4.93391   4.93433   4.93712   4.94090   4.94351
 Alpha virt. eigenvalues --    4.94494   4.95849   4.96209   4.96226   4.97228
 Alpha virt. eigenvalues --    4.97782   4.98191   4.98411   4.99332   4.99738
 Alpha virt. eigenvalues --    4.99860   5.00471   5.02165   5.02335   5.02967
 Alpha virt. eigenvalues --    5.03838   5.04360   5.05224   5.06153   5.07784
 Alpha virt. eigenvalues --    5.08260   5.08409   5.09402   5.09447   5.10311
 Alpha virt. eigenvalues --    5.10351   5.11143   5.11145   5.11760   5.12452
 Alpha virt. eigenvalues --    5.13297   5.13639   5.14270   5.16205   5.16268
 Alpha virt. eigenvalues --    5.16990   5.18242   5.18967   5.19887   5.20207
 Alpha virt. eigenvalues --    5.20905   5.21682   5.21894   5.22134   5.24678
 Alpha virt. eigenvalues --    5.24960   5.25087   5.26669   5.27992   5.28219
 Alpha virt. eigenvalues --    5.28484   5.28850   5.29929   5.30519   5.30608
 Alpha virt. eigenvalues --    5.31239   5.31615   5.31765   5.31892   5.32963
 Alpha virt. eigenvalues --    5.33111   5.33235   5.33501   5.35648   5.36020
 Alpha virt. eigenvalues --    5.37045   5.37397   5.38404   5.38878   5.39094
 Alpha virt. eigenvalues --    5.40560   5.40635   5.40937   5.43011   5.43394
 Alpha virt. eigenvalues --    5.43519   5.43952   5.45722   5.46144   5.50786
 Alpha virt. eigenvalues --    5.50837   5.52297   5.52679   5.52981   5.53253
 Alpha virt. eigenvalues --    5.53842   5.55080   5.57624   5.58285   5.58793
 Alpha virt. eigenvalues --    5.58981   5.59346   5.61343   5.62511   5.62966
 Alpha virt. eigenvalues --    5.63386   5.63553   5.64131   5.64227   5.65672
 Alpha virt. eigenvalues --    5.66410   5.67450   5.67580   5.68374   5.69909
 Alpha virt. eigenvalues --    5.72491   5.73286   5.73407   5.75395   5.76286
 Alpha virt. eigenvalues --    5.77565   5.79129   5.81653   5.84717   5.89443
 Alpha virt. eigenvalues --    5.90004   5.91544   5.95498   5.96610   5.97151
 Alpha virt. eigenvalues --    5.97227   6.01043   6.02732   6.03168   6.04209
 Alpha virt. eigenvalues --    6.10731   6.10843   6.11415   6.14667   6.18691
 Alpha virt. eigenvalues --    6.37770   6.39897   6.46645   6.58799   6.65237
 Alpha virt. eigenvalues --    6.65384   6.75954   6.84468   6.94235   6.94593
 Alpha virt. eigenvalues --    6.97241   6.98811   6.99020   6.99892   7.04943
 Alpha virt. eigenvalues --    7.10842   7.17095   7.22990   7.23768   7.27314
 Alpha virt. eigenvalues --    7.33246   7.34013   7.34473   8.46063   8.46790
 Alpha virt. eigenvalues --    8.56035   8.57977   8.82292   8.85999   8.90819
 Alpha virt. eigenvalues --    8.91506   8.92210   8.99847  15.85878  22.85985
 Alpha virt. eigenvalues --   22.88742  22.94650  22.97582  23.03873  23.10013
 Alpha virt. eigenvalues --   23.12811  23.12877  23.20919  23.21744  23.23411
 Alpha virt. eigenvalues --   23.25410  23.25424  23.28018  23.28712  23.29026
 Alpha virt. eigenvalues --   23.31200  23.33685  23.34690  23.36482  23.36592
 Alpha virt. eigenvalues --   23.39774  23.47410  23.55422  23.55755  23.61710
 Alpha virt. eigenvalues --   23.73449  23.78454  23.87219  23.88478  24.13963
 Alpha virt. eigenvalues --   24.14612  24.18922  31.89601  32.56734  33.13814
 Alpha virt. eigenvalues --   33.28993  33.38775  57.34758  57.54260
          Condensed to atoms (all electrons):
 Mulliken charges:
               1
     1  C   -0.435811
     2  C   -0.023585
     3  C   -0.091132
     4  C    0.017392
     5  C   -0.133811
     6  C   -0.055757
     7  C    0.040463
     8  C   -0.174023
     9  C   -0.153575
    10  C   -0.148264
    11  C   -0.159750
    12  C   -0.146586
    13  N   -0.103292
    14  C    0.105577
    15  C    0.137146
    16  C    0.105603
    17  C   -0.023538
    18  C   -0.435795
    19  C   -0.091220
    20  C    0.017484
    21  C   -0.133881
    22  C   -0.055736
    23  C    0.040459
    24  C   -0.146595
    25  C   -0.159746
    26  C   -0.148270
    27  C   -0.153583
    28  C   -0.174015
    29  N   -0.103357
    30  B    0.347167
    31  F   -0.367093
    32  F   -0.335468
    33  C   -0.251522
    34  C   -0.211206
    35  C   -0.105966
    36  C    0.176738
    37  C   -0.118666
    38  C   -0.157539
    39  N   -0.383194
    40  N    0.425419
    41  N   -0.175930
    42  H    0.159291
    43  H    0.131747
    44  H    0.162111
    45  H    0.165305
    46  H    0.137330
    47  H    0.116588
    48  H    0.149254
    49  H    0.158125
    50  H    0.160486
    51  H    0.158056
    52  H    0.141555
    53  H    0.159252
    54  H    0.162142
    55  H    0.131743
    56  H    0.165298
    57  H    0.137341
    58  H    0.116579
    59  H    0.141555
    60  H    0.158054
    61  H    0.160484
    62  H    0.158124
    63  H    0.149251
    64  H    0.176186
    65  H    0.153821
    66  H    0.165998
    67  H    0.168782
 Sum of Mulliken charges =  -0.00000
 Mulliken charges with hydrogens summed into heavy atoms:
               1
     1  C    0.017338
     2  C   -0.023585
     3  C    0.074172
     4  C    0.017392
     5  C    0.003519
     6  C    0.060832
     7  C    0.040463
     8  C   -0.024769
     9  C    0.004550
    10  C    0.012221
    11  C   -0.001695
    12  C   -0.005031
    13  N   -0.103292
    14  C    0.105577
    15  C    0.137146
    16  C    0.105603
    17  C   -0.023538
    18  C    0.017343
    19  C    0.074078
    20  C    0.017484
    21  C    0.003460
    22  C    0.060843
    23  C    0.040459
    24  C   -0.005040
    25  C   -0.001692
    26  C    0.012214
    27  C    0.004541
    28  C   -0.024764
    29  N   -0.103357
    30  B    0.347167
    31  F   -0.367093
    32  F   -0.335468
    33  C   -0.251522
    34  C   -0.035020
    35  C    0.047855
    36  C    0.176738
    37  C    0.047331
    38  C    0.011243
    39  N   -0.383194
    40  N    0.425419
    41  N   -0.175930
 Electronic spatial extent (au):  <R**2>=          31002.8950
 Charge=             -0.0000 electrons
 Dipole moment (field-independent basis, Debye):
    X=              3.1920    Y=             -0.0018    Z=             -1.0976  Tot=              3.3754
 Quadrupole moment (field-independent basis, Debye-Ang):
   XX=           -209.6068   YY=           -185.8275   ZZ=           -247.3319
   XY=              0.0034   XZ=              3.1015   YZ=              0.0006
 Traceless Quadrupole moment (field-independent basis, Debye-Ang):
   XX=              4.6486   YY=             28.4279   ZZ=            -33.0765
   XY=              0.0034   XZ=              3.1015   YZ=              0.0006
 Octapole moment (field-independent basis, Debye-Ang**2):
  XXX=           -338.1308  YYY=             -0.0334  ZZZ=              6.3483  XYY=           -122.6727
  XXY=             -0.0231  XXZ=             -8.5815  XZZ=             68.4258  YZZ=             -0.0027
  YYZ=             21.1264  XYZ=             -0.0038
 Hexadecapole moment (field-independent basis, Debye-Ang**3):
 XXXX=         -25784.0265 YYYY=         -13798.4079 ZZZZ=           -714.9425 XXXY=              0.0461
 XXXZ=            359.3342 YYYX=              0.1169 YYYZ=              0.2422 ZZZX=             13.8234
 ZZZY=             -0.0335 XXYY=          -6049.9654 XXZZ=          -4697.5706 YYZZ=          -3204.5082
 XXYZ=             -0.0769 YYXZ=            -62.1078 ZZXY=             -0.0454
 N-N= 4.187217064983D+03 E-N=-1.250025187654D+04  KE= 1.761922930403D+03
 No NMR shielding tensors so no spin-rotation constants.
 Leave Link  601 at Thu Nov  6 05:12:21 2025, MaxMem= 30870077440 cpu:             147.3 elap:               2.7
 (Enter /public/software/gauss/g16/l9999.exe)
 1\1\GINC-CU015\SP\RM062X\def2TZVPP\C33H26B1F2N5\BAIDING\06-Nov-2025\0\
 \#p M062X/DEF2TZVPP scrf=(solvent=water) em=GD3\\Energy calculation fo
 r M100032143\\0,1\C,0,-3.286063,3.106132,0.073996\C,0,-1.882353,2.5819
 4,0.054146\C,0,-0.752344,3.379789,-0.004122\C,0,0.39366,2.545686,-0.02
 0569\C,0,1.784548,2.921272,-0.083993\C,0,2.217832,4.201865,0.017459\C,
 0,3.602629,4.661203,-0.047191\C,0,4.702046,3.795578,-0.232007\C,0,5.99
 8811,4.296303,-0.284236\C,0,6.235198,5.669911,-0.154064\C,0,5.158827,6
 .54053,0.029658\C,0,3.858929,6.041377,0.08255\N,0,-0.018808,1.245823,0
 .019843\C,0,-1.414978,1.222058,0.07213\C,0,-2.109077,0.000094,0.106225
 \C,0,-1.415061,-1.221943,0.072048\C,0,-1.882544,-2.581766,0.054364\C,0
 ,-3.286281,-3.105881,0.074432\C,0,-0.75258,-3.379725,-0.003837\C,0,0.3
 93467,-2.545734,-0.020526\C,0,1.78434,-2.92137,-0.084101\C,0,2.217614,
 -4.201932,0.017798\C,0,3.602375,-4.661353,-0.047046\C,0,3.858642,-6.04
 1511,0.082908\C,0,5.158508,-6.54073,0.029811\C,0,6.234876,-5.670193,-0
 .15432\C,0,5.99852,-4.296598,-0.284683\C,0,4.701788,-3.795807,-0.23225
 7\N,0,-0.018916,-1.2458,0.019666\B,0,0.886314,-0.000066,0.196944\F,0,1
 .903449,-0.00001,-0.773767\F,0,1.472309,-0.000195,1.470666\C,0,-3.6018
 65,0.000147,0.170642\C,0,-4.366266,-0.000323,-1.003676\C,0,-5.758074,-
 0.000254,-0.951587\C,0,-6.402636,0.000279,0.291837\C,0,-5.651188,0.000
 75,1.472127\C,0,-4.26062,0.000693,1.407864\N,0,-7.815767,0.000385,0.45
 4194\N,0,-8.526954,-0.000092,-0.557469\N,0,-9.298141,-0.000485,-1.3976
 37\H,0,-3.831665,2.783593,0.965806\H,0,-3.268103,4.199059,0.062949\H,0
 ,-3.862553,2.767133,-0.792066\H,0,-0.742555,4.459953,-0.050901\H,0,2.4
 93993,2.115053,-0.229775\H,0,1.483974,4.991354,0.16715\H,0,4.541561,2.
 727133,-0.334395\H,0,6.83157,3.613966,-0.426868\H,0,7.249564,6.054908,
 -0.195657\H,0,5.331527,7.607773,0.13186\H,0,3.023219,6.721084,0.225664
 \H,0,-3.831907,-2.78287,0.966057\H,0,-3.862724,-2.767303,-0.791825\H,0
 ,-3.268366,-4.198815,0.063937\H,0,-0.742872,-4.459896,-0.050494\H,0,2.
 493754,-2.115211,-0.230374\H,0,1.483754,-4.991319,0.168016\H,0,3.02293
 5,-6.721152,0.226345\H,0,5.331185,-7.607961,0.132177\H,0,7.249215,-6.0
 55243,-0.196074\H,0,6.831279,-3.614324,-0.427614\H,0,4.541324,-2.72737
 2,-0.334777\H,0,-3.870293,-0.000738,-1.969089\H,0,-6.331028,-0.0006,-1
 .873613\H,0,-6.161333,0.001174,2.429348\H,0,-3.682857,0.001061,2.32654
 8\\Version=ES64L-G16RevA.03\State=1-A\HF=-1771.5731561\RMSD=6.617e-09\
 Dipole=-1.2558185,0.000698,-0.4318206\Quadrupole=3.4561116,21.1354451,
 -24.5915566,0.0025345,-2.3058725,-0.0004103\PG=C01 [X(C33H26B1F2N5)]\\
 @


 MISERY NO LONGER LOVES COMPANY.  NOWADAYS IT INSISTS ON IT.

                                              -- BAKER'S LAW
 Job cpu time:       0 days 12 hours 45 minutes 27.6 seconds.
 Elapsed time:       0 days  0 hours 12 minutes 11.0 seconds.
 File lengths (MBytes):  RWF=   1801 Int=      0 D2E=      0 Chk=    156 Scr=      1
 Normal termination of Gaussian 16 at Thu Nov  6 05:12:21 2025.
