 Entering Gaussian System, Link 0=g16
 Input=M100035783_sp.gjf
 Output=M100035783_sp.log
 Initial command:
 /public/software/gauss/g16/l1.exe "/public/home/baiding/1101_v2_sp/tmp_M100035783_sp_1568608/Gau-27971.inp" -scrdir="/public/home/baiding/1101_v2_sp/tmp_M100035783_sp_1568608/"
 Entering Link 1 = /public/software/gauss/g16/l1.exe PID=     27972.
  
 Copyright (c) 1988,1990,1992,1993,1995,1998,2003,2009,2016,
            Gaussian, Inc.  All Rights Reserved.
  
 This is part of the Gaussian(R) 16 program.  It is based on
 the Gaussian(R) 09 system (copyright 2009, Gaussian, Inc.),
 the Gaussian(R) 03 system (copyright 2003, Gaussian, Inc.),
 the Gaussian(R) 98 system (copyright 1998, Gaussian, Inc.),
 the Gaussian(R) 94 system (copyright 1995, Gaussian, Inc.),
 the Gaussian 92(TM) system (copyright 1992, Gaussian, Inc.),
 the Gaussian 90(TM) system (copyright 1990, Gaussian, Inc.),
 the Gaussian 88(TM) system (copyright 1988, Gaussian, Inc.),
 the Gaussian 86(TM) system (copyright 1986, Carnegie Mellon
 University), and the Gaussian 82(TM) system (copyright 1983,
 Carnegie Mellon University). Gaussian is a federally registered
 trademark of Gaussian, Inc.
  
 This software contains proprietary and confidential information,
 including trade secrets, belonging to Gaussian, Inc.
  
 This software is provided under written license and may be
 used, copied, transmitted, or stored only in accord with that
 written license.
  
 The following legend is applicable only to US Government
 contracts under FAR:
  
                    RESTRICTED RIGHTS LEGEND
  
 Use, reproduction and disclosure by the US Government is
 subject to restrictions as set forth in subparagraphs (a)
 and (c) of the Commercial Computer Software - Restricted
 Rights clause in FAR 52.227-19.
  
 Gaussian, Inc.
 340 Quinnipiac St., Bldg. 40, Wallingford CT 06492
  
  
 ---------------------------------------------------------------
 Warning -- This program may not be used in any manner that
 competes with the business of Gaussian, Inc. or will provide
 assistance to any competitor of Gaussian, Inc.  The licensee
 of this program is prohibited from giving any competitor of
 Gaussian, Inc. access to this program.  By using this program,
 the user acknowledges that Gaussian, Inc. is engaged in the
 business of creating and licensing software in the field of
 computational chemistry and represents and warrants to the
 licensee that it is not a competitor of Gaussian, Inc. and that
 it will not use this program in any manner prohibited above.
 ---------------------------------------------------------------
  

 Cite this work as:
 Gaussian 16, Revision A.03,
 M. J. Frisch, G. W. Trucks, H. B. Schlegel, G. E. Scuseria, 
 M. A. Robb, J. R. Cheeseman, G. Scalmani, V. Barone, 
 G. A. Petersson, H. Nakatsuji, X. Li, M. Caricato, A. V. Marenich, 
 J. Bloino, B. G. Janesko, R. Gomperts, B. Mennucci, H. P. Hratchian, 
 J. V. Ortiz, A. F. Izmaylov, J. L. Sonnenberg, D. Williams-Young, 
 F. Ding, F. Lipparini, F. Egidi, J. Goings, B. Peng, A. Petrone, 
 T. Henderson, D. Ranasinghe, V. G. Zakrzewski, J. Gao, N. Rega, 
 G. Zheng, W. Liang, M. Hada, M. Ehara, K. Toyota, R. Fukuda, 
 J. Hasegawa, M. Ishida, T. Nakajima, Y. Honda, O. Kitao, H. Nakai, 
 T. Vreven, K. Throssell, J. A. Montgomery, Jr., J. E. Peralta, 
 F. Ogliaro, M. J. Bearpark, J. J. Heyd, E. N. Brothers, K. N. Kudin, 
 V. N. Staroverov, T. A. Keith, R. Kobayashi, J. Normand, 
 K. Raghavachari, A. P. Rendell, J. C. Burant, S. S. Iyengar, 
 J. Tomasi, M. Cossi, J. M. Millam, M. Klene, C. Adamo, R. Cammi, 
 J. W. Ochterski, R. L. Martin, K. Morokuma, O. Farkas, 
 J. B. Foresman, and D. J. Fox, Gaussian, Inc., Wallingford CT, 2016.
 
 ******************************************
 Gaussian 16:  ES64L-G16RevA.03 25-Dec-2016
                 7-Nov-2025 
 ******************************************
 %nprocshared=64
 Will use up to   64 processors via shared memory.
 %mem=230GB
 %chk=M100035783_sp.chk
 ----------------------------------------------
 #p M062X/DEF2TZVPP scrf=(solvent=water) em=GD3
 ----------------------------------------------
 1/38=1,172=1/1;
 2/12=2,17=6,18=5,40=1/2;
 3/5=44,7=202,11=2,25=1,30=1,70=2201,72=1,74=-55,124=31/1,2,3;
 4//1;
 5/5=2,38=5,53=1/2;
 6/7=2,8=2,9=2,10=2,28=1/1;
 99/5=1,9=1/99;
 Leave Link    1 at Fri Nov  7 11:07:00 2025, MaxMem= 30870077440 cpu:              22.6 elap:               0.4
 (Enter /public/software/gauss/g16/l101.exe)
 ---------------------------------
 Energy calculation for M100035783
 ---------------------------------
 Symbolic Z-matrix:
 Charge =  0 Multiplicity = 1
 C                    -3.70908   3.99709   0.27572 
 C                    -2.83249   2.78833   0.19647 
 C                    -3.27288   1.43017   0.12662 
 C                    -4.56896   0.94229   0.06944 
 C                    -4.83473  -0.42061  -0.06443 
 C                    -6.04838  -1.14216  -0.14224 
 C                    -5.71287  -2.48839  -0.27723 
 C                    -4.30876  -2.56099  -0.27982 
 N                    -3.78062  -1.32544  -0.15345 
 B                    -2.26885  -0.96927  -0.1002 
 F                    -1.69235  -1.63844   0.99111 
 F                    -1.63977  -1.37142  -1.27906 
 N                    -2.15694   0.5826    0.07791 
 C                    -1.04581   1.37672   0.10487 
 C                     0.34801   0.99854   0.0725 
 C                     0.90236  -0.22131   0.26599 
 C                     2.33174  -0.52677   0.21854 
 C                     3.3241    0.42928  -0.03941 
 C                     4.67051   0.07118  -0.06436 
 N                     5.65177   1.11592  -0.32413 
 O                     6.84254   0.88289  -0.10115 
 O                     5.24413   2.2011   -0.75211 
 C                     5.05225  -1.26253   0.16124 
 F                     6.33151  -1.64833   0.11864 
 C                     4.08312  -2.22415   0.41 
 C                     2.74358  -1.85794   0.4436 
 C                    -1.45259   2.739     0.168 
 H                    -3.10659   4.90816   0.2874 
 H                    -4.39349   4.05068  -0.57787 
 H                    -4.32481   3.98369   1.18189 
 H                    -5.39727   1.64091   0.11923 
 H                    -7.03642  -0.70425  -0.10094 
 H                    -6.38569  -3.32978  -0.36533 
 H                    -3.67455  -3.43297  -0.36584 
 H                     0.99687   1.85285  -0.10348 
 H                     0.268    -1.06677   0.50278 
 H                     3.07514   1.46678  -0.21976 
 H                     4.39625  -3.24923   0.57236 
 H                     1.99382  -2.61694   0.64324 
 H                    -0.76917   3.57702   0.20178 
 
 ITRead=  0  0  0  0  0  0  0  0  0  0  0  0  0  0  0  0  0  0  0  0
 ITRead=  0  0  0  0  0  0  0  0  0  0  0  0  0  0  0  0  0  0  0  0
 MicOpt= -1 -1 -1 -1 -1 -1 -1 -1 -1 -1 -1 -1 -1 -1 -1 -1 -1 -1 -1 -1
 MicOpt= -1 -1 -1 -1 -1 -1 -1 -1 -1 -1 -1 -1 -1 -1 -1 -1 -1 -1 -1 -1
 NAtoms=     40 NQM=       40 NQMF=       0 NMMI=      0 NMMIF=      0
                NMic=       0 NMicF=      0.
                    Isotopes and Nuclear Properties:
 (Nuclear quadrupole moments (NQMom) in fm**2, nuclear magnetic moments (NMagM)
  in nuclear magnetons)

  Atom         1           2           3           4           5           6           7           8           9          10
 IAtWgt=          12          12          12          12          12          12          12          12          14          11
 AtmWgt=  12.0000000  12.0000000  12.0000000  12.0000000  12.0000000  12.0000000  12.0000000  12.0000000  14.0030740  11.0093053
 NucSpn=           0           0           0           0           0           0           0           0           2           3
 AtZEff=  -0.0000000  -0.0000000  -0.0000000  -0.0000000  -0.0000000  -0.0000000  -0.0000000  -0.0000000  -0.0000000  -0.0000000
 NQMom=    0.0000000   0.0000000   0.0000000   0.0000000   0.0000000   0.0000000   0.0000000   0.0000000   2.0440000   4.0590000
 NMagM=    0.0000000   0.0000000   0.0000000   0.0000000   0.0000000   0.0000000   0.0000000   0.0000000   0.4037610   2.6886370
 AtZNuc=   6.0000000   6.0000000   6.0000000   6.0000000   6.0000000   6.0000000   6.0000000   6.0000000   7.0000000   5.0000000

  Atom        11          12          13          14          15          16          17          18          19          20
 IAtWgt=          19          19          14          12          12          12          12          12          12          14
 AtmWgt=  18.9984033  18.9984033  14.0030740  12.0000000  12.0000000  12.0000000  12.0000000  12.0000000  12.0000000  14.0030740
 NucSpn=           1           1           2           0           0           0           0           0           0           2
 AtZEff=  -0.0000000  -0.0000000  -0.0000000  -0.0000000  -0.0000000  -0.0000000  -0.0000000  -0.0000000  -0.0000000  -0.0000000
 NQMom=    0.0000000   0.0000000   2.0440000   0.0000000   0.0000000   0.0000000   0.0000000   0.0000000   0.0000000   2.0440000
 NMagM=    2.6288670   2.6288670   0.4037610   0.0000000   0.0000000   0.0000000   0.0000000   0.0000000   0.0000000   0.4037610
 AtZNuc=   9.0000000   9.0000000   7.0000000   6.0000000   6.0000000   6.0000000   6.0000000   6.0000000   6.0000000   7.0000000

  Atom        21          22          23          24          25          26          27          28          29          30
 IAtWgt=          16          16          12          19          12          12          12           1           1           1
 AtmWgt=  15.9949146  15.9949146  12.0000000  18.9984033  12.0000000  12.0000000  12.0000000   1.0078250   1.0078250   1.0078250
 NucSpn=           0           0           0           1           0           0           0           1           1           1
 AtZEff=  -0.0000000  -0.0000000  -0.0000000  -0.0000000  -0.0000000  -0.0000000  -0.0000000  -0.0000000  -0.0000000  -0.0000000
 NQMom=    0.0000000   0.0000000   0.0000000   0.0000000   0.0000000   0.0000000   0.0000000   0.0000000   0.0000000   0.0000000
 NMagM=    0.0000000   0.0000000   0.0000000   2.6288670   0.0000000   0.0000000   0.0000000   2.7928460   2.7928460   2.7928460
 AtZNuc=   8.0000000   8.0000000   6.0000000   9.0000000   6.0000000   6.0000000   6.0000000   1.0000000   1.0000000   1.0000000

  Atom        31          32          33          34          35          36          37          38          39          40
 IAtWgt=           1           1           1           1           1           1           1           1           1           1
 AtmWgt=   1.0078250   1.0078250   1.0078250   1.0078250   1.0078250   1.0078250   1.0078250   1.0078250   1.0078250   1.0078250
 NucSpn=           1           1           1           1           1           1           1           1           1           1
 AtZEff=  -0.0000000  -0.0000000  -0.0000000  -0.0000000  -0.0000000  -0.0000000  -0.0000000  -0.0000000  -0.0000000  -0.0000000
 NQMom=    0.0000000   0.0000000   0.0000000   0.0000000   0.0000000   0.0000000   0.0000000   0.0000000   0.0000000   0.0000000
 NMagM=    2.7928460   2.7928460   2.7928460   2.7928460   2.7928460   2.7928460   2.7928460   2.7928460   2.7928460   2.7928460
 AtZNuc=   1.0000000   1.0000000   1.0000000   1.0000000   1.0000000   1.0000000   1.0000000   1.0000000   1.0000000   1.0000000
 Leave Link  101 at Fri Nov  7 11:07:00 2025, MaxMem= 30870077440 cpu:               7.1 elap:               0.1
 (Enter /public/software/gauss/g16/l202.exe)
                          Input orientation:                          
 ---------------------------------------------------------------------
 Center     Atomic      Atomic             Coordinates (Angstroms)
 Number     Number       Type             X           Y           Z
 ---------------------------------------------------------------------
      1          6           0       -3.709080    3.997094    0.275724
      2          6           0       -2.832487    2.788334    0.196465
      3          6           0       -3.272879    1.430172    0.126620
      4          6           0       -4.568963    0.942287    0.069444
      5          6           0       -4.834729   -0.420610   -0.064432
      6          6           0       -6.048375   -1.142164   -0.142235
      7          6           0       -5.712871   -2.488388   -0.277226
      8          6           0       -4.308763   -2.560987   -0.279818
      9          7           0       -3.780621   -1.325437   -0.153446
     10          5           0       -2.268849   -0.969271   -0.100200
     11          9           0       -1.692346   -1.638442    0.991108
     12          9           0       -1.639774   -1.371418   -1.279062
     13          7           0       -2.156939    0.582596    0.077910
     14          6           0       -1.045805    1.376722    0.104872
     15          6           0        0.348010    0.998543    0.072504
     16          6           0        0.902361   -0.221305    0.265992
     17          6           0        2.331741   -0.526773    0.218544
     18          6           0        3.324096    0.429279   -0.039414
     19          6           0        4.670506    0.071178   -0.064362
     20          7           0        5.651774    1.115923   -0.324133
     21          8           0        6.842541    0.882886   -0.101149
     22          8           0        5.244128    2.201098   -0.752114
     23          6           0        5.052250   -1.262530    0.161239
     24          9           0        6.331512   -1.648333    0.118637
     25          6           0        4.083122   -2.224151    0.410002
     26          6           0        2.743581   -1.857944    0.443604
     27          6           0       -1.452587    2.738995    0.168002
     28          1           0       -3.106589    4.908158    0.287400
     29          1           0       -4.393486    4.050679   -0.577866
     30          1           0       -4.324809    3.983690    1.181894
     31          1           0       -5.397274    1.640913    0.119229
     32          1           0       -7.036422   -0.704253   -0.100940
     33          1           0       -6.385687   -3.329781   -0.365326
     34          1           0       -3.674548   -3.432969   -0.365839
     35          1           0        0.996867    1.852850   -0.103482
     36          1           0        0.268001   -1.066772    0.502781
     37          1           0        3.075136    1.466779   -0.219762
     38          1           0        4.396252   -3.249232    0.572363
     39          1           0        1.993815   -2.616935    0.643240
     40          1           0       -0.769168    3.577021    0.201783
 ---------------------------------------------------------------------
                    Distance matrix (angstroms):
                    1          2          3          4          5
     1  C    0.000000
     2  C    1.495259   0.000000
     3  C    2.607986   1.429485   0.000000
     4  C    3.180219   2.537592   1.386050   0.000000
     5  C    4.571532   3.791354   2.429253   1.395006   0.000000
     6  C    5.662064   5.089741   3.793755   2.564840   1.414083
     7  C    6.810463   6.030323   4.633764   3.632938   2.256573
     8  C    6.608833   5.569692   4.143380   3.530243   2.214553
     9  N    5.340285   4.236096   2.815958   2.411169   1.392041
    10  B    5.184628   3.811206   2.610910   2.995556   2.624128
    11  F    6.028122   4.639798   3.558345   3.972978   3.531551
    12  F    5.959892   4.572011   3.534385   3.968860   3.547830
    13  N    3.755938   2.309914   1.402170   2.438711   2.863083
    14  C    3.740130   2.278875   2.227821   3.550018   4.197024
    15  C    5.049018   3.651613   3.646926   4.917296   5.375270
    16  C    6.249830   4.797067   4.492152   5.597139   5.750053
    17  C    7.547196   6.136748   5.937158   7.056917   7.172840
    18  C    7.892666   6.597294   6.674536   7.910462   8.203009
    19  C    9.259910   7.984101   8.061061   9.281407   9.517949
    20  N    9.812572   8.663179   8.941553  10.229786  10.601657
    21  O   11.008044   9.865367  10.132775  11.412934  11.749855
    22  O    9.189232   8.153304   8.596855   9.927553  10.436935
    23  C   10.219474   8.864526   8.749835   9.871038   9.925327
    24  F   11.519940  10.181795  10.085712  11.204200  11.235024
    25  C    9.971977   8.543784   8.218585   9.219592   9.110758
    26  C    8.714728   7.262335   6.863671   7.839298   7.730124
    27  C    2.585764   1.381075   2.242363   3.598565   4.634222
    28  H    1.092323   2.139405   3.485669   4.232514   5.613023
    29  H    1.095399   2.151702   2.935833   3.179922   4.522249
    30  H    1.095649   2.151040   2.956453   3.247659   4.605562
    31  H    2.902771   2.810814   2.134835   1.084738   2.144776
    32  H    5.771979   5.473544   4.332645   2.971276   2.220189
    33  H    7.826766   7.097335   5.708655   4.662625   3.310481
    34  H    7.457790   6.303163   4.904487   4.486905   3.242094
    35  H    5.185317   3.953359   4.296782   5.642472   6.259206
    36  H    6.442939   4.956682   4.349030   5.255504   5.174660
    37  H    7.257657   6.067929   6.357564   7.667528   8.133408
    38  H   10.876288   9.425931   8.995059   9.909432   9.675620
    39  H    8.740907   7.260147   6.662135   7.487814   7.207888
    40  H    2.970692   2.208923   3.298966   4.625773   5.707951
                    6          7          8          9         10
     6  C    0.000000
     7  C    1.393953   0.000000
     8  C    2.249053   1.405986   0.000000
     9  N    2.275175   2.258621   1.349625   0.000000
    10  B    3.783712   3.768334   2.593660   1.554073   0.000000
    11  F    4.528327   4.300663   3.051554   2.401847   1.403958
    12  F    4.558585   4.340670   3.088214   2.419163   1.395411
    13  N    4.262222   4.711870   3.826281   2.516040   1.566058
    14  C    5.606385   6.071786   5.128395   3.853260   2.653596
    15  C    6.748517   7.001091   5.871960   4.743156   3.278730
    16  C    7.023344   7.013989   5.738278   4.829633   3.278738
    17  C    8.410423   8.295149   6.962951   6.175533   4.632799
    18  C    9.503853   9.499269   8.201221   7.319087   5.765472
    19  C   10.787617  10.696317   9.359593   8.566214   7.017013
    20  N   11.917446  11.922601  10.617623   9.744714   8.193561
    21  O   13.049070  13.001341  11.672350  10.850392   9.297737
    22  O   11.792793  11.927809  10.684486   9.707778   8.180529
    23  C   11.105425  10.843561   9.460924   8.838699   7.331633
    24  F   12.392976  12.080131  10.686775  10.120945   8.629903
    25  C   10.204063   9.823624   8.426924   7.934962   6.494811
    26  C    8.840477   8.510502   7.124126   6.573070   5.119562
    27  C    6.023364   6.758238   6.037226   4.694963   3.806501
    28  H    6.741297   7.862595   7.586507   6.285409   5.949472
    29  H    5.467545   6.677616   6.618923   5.427556   5.471942
    30  H    5.567619   6.778166   6.705942   5.501464   5.513852
    31  H    2.870159   4.160277   4.358906   3.389270   4.080227
    32  H    1.081530   2.228453   3.304479   3.314946   4.774933
    33  H    2.224684   1.080919   2.216296   3.293730   4.752963
    34  H    3.306485   2.248299   1.081657   2.120861   2.848923
    35  H    7.655524   7.993567   6.903822   5.738327   4.316165
    36  H    6.349672   6.196792   4.877695   4.109608   2.609349
    37  H    9.489523   9.637205   8.411211   7.402856   5.874250
    38  H   10.678980  10.173252   8.773664   8.431432   7.076308
    39  H    8.213936   7.762525   6.370059   5.970493   4.630098
    40  H    7.089364   7.839569   7.101818   5.764471   4.796771
                   11         12         13         14         15
    11  F    0.000000
    12  F    2.286425   0.000000
    13  N    2.445974   2.434544   0.000000
    14  C    3.208527   3.133743   1.366009   0.000000
    15  C    3.458407   3.375608   2.539254   1.444572   0.000000
    16  C    3.044105   3.189420   3.168746   2.524876   1.353799
    17  C    4.245697   4.327722   4.625876   3.878664   2.506612
    18  C    5.522874   5.423951   5.484434   4.473757   3.032107
    19  C    6.672533   6.586062   6.848050   5.865944   4.422975
    20  N    7.953143   7.763081   7.837224   6.716370   5.319870
    21  O    8.966293   8.855452   9.006269   7.906473   6.497882
    22  O    8.117608   7.773587   7.621304   6.401350   5.108630
    23  C    6.805848   6.846131   7.442032   6.644931   5.220172
    24  F    8.071159   8.097632   8.776816   7.973453   6.542964
    25  C    5.834104   6.027572   6.850290   6.274176   4.944767
    26  C    4.474974   4.734774   5.486808   4.993721   3.746464
    27  C    4.460599   4.361712   2.270305   1.423111   2.506081
    28  H    6.734483   6.636145   4.433532   4.092821   5.221640
    29  H    6.490295   6.121580   4.178491   4.338565   5.676293
    30  H    6.210848   6.476334   4.181612   4.325289   5.654829
    31  H    5.024026   5.014794   3.409034   4.359505   5.781272
    32  H    5.533934   5.563892   5.049487   6.345101   7.580200
    33  H    5.169912   5.214766   5.778015   7.133484   8.016780
    34  H    2.998459   3.037149   4.315647   5.501362   6.000951
    35  H    4.540827   4.327790   3.404841   2.107752   1.087119
    36  H    2.099579   2.628189   2.963320   2.802692   2.111176
    37  H    5.817000   5.604271   5.314602   4.134689   2.782424
    38  H    6.311974   6.586924   7.607345   7.157792   5.889118
    39  H    3.829653   4.295291   5.271182   5.047616   4.013240
    40  H    5.355030   5.238120   3.302701   2.219738   2.813067
                   16         17         18         19         20
    16  C    0.000000
    17  C    1.462426   0.000000
    18  C    2.526130   1.401908   0.000000
    19  C    3.793889   2.430515   1.393441   0.000000
    20  N    4.969240   3.743737   2.443487   1.456661   0.000000
    21  O    6.053079   4.736735   3.548102   2.319043   1.233675
    22  O    5.074989   4.106757   2.708100   2.310542   1.235697
    23  C    4.279802   2.818828   2.426725   1.405490   2.500411
    24  F    5.615497   4.155243   3.658689   2.397738   2.880833
    25  C    3.761565   2.446443   2.796209   2.416315   3.762408
    26  C    2.469863   1.411482   2.408670   2.773550   4.229763
    27  C    3.784014   4.998893   5.309850   6.683076   7.304006
    28  H    6.510263   7.688865   7.843524   9.165332   9.563678
    29  H    6.856234   8.174106   8.541987   9.912420  10.468258
    30  H    6.770832   8.098270   8.522393   9.888205  10.489252
    31  H    6.570753   8.027851   8.806561  10.191073  11.070395
    32  H    7.961919   9.375289  10.422524  11.732638  12.820030
    33  H    7.948385   9.175582  10.417132  11.571366  12.832243
    34  H    5.626908   6.697984   8.000283   9.055930  10.376630
    35  H    2.108924   2.747398   2.728856   4.083076   4.718041
    36  H    1.083188   2.152072   3.445557   4.582426   5.867960
    37  H    2.794018   2.172325   1.082087   2.125337   2.602510
    38  H    4.633517   3.434993   3.880107   3.392014   4.629754
    39  H    2.659442   2.159476   3.393388   3.858928   5.315139
    40  H    4.150351   5.143641   5.169262   6.477023   6.896527
                   21         22         23         24         25
    21  O    0.000000
    22  O    2.171719   0.000000
    23  C    2.806564   3.587165   0.000000
    24  F    2.591626   4.093743   1.336851   0.000000
    25  C    4.186806   4.720305   1.387735   2.339170   0.000000
    26  C    4.960885   4.915109   2.400875   3.608710   1.389103
    27  C    8.504512   6.780998   7.637091   8.935507   7.438781
    28  H   10.739598   8.839866  10.230345  11.493207  10.128021
    29  H   11.683770   9.815035  10.862707  12.165091  10.592557
    30  H   11.660656   9.923839  10.793229  12.099892  10.479810
    31  H   12.265245  10.691702  10.845474  12.181279  10.242128
    32  H   13.969417  12.636337  12.104396  13.403028  11.234563
    33  H   13.885329  12.883820  11.635171  12.837003  10.555544
    34  H   11.371272  10.556264   9.008086  10.175504   7.889526
    35  H    5.925600   4.310595   5.120723   6.384830   5.139122
    36  H    6.884074   6.084043   4.800418   6.103437   3.987892
    37  H    3.814229   2.350989   3.391647   4.519117   3.877577
    38  H    4.848953   5.672674   2.132215   2.552249   1.084068
    39  H    6.026027   5.977039   3.379462   4.475379   2.138664
    40  H    8.080114   6.242020   7.570456   8.816513   7.565822
                   26         27         28         29         30
    26  C    0.000000
    27  C    6.230219   0.000000
    28  H    8.945894   2.730430   0.000000
    29  H    9.321639   3.305408   1.772021   0.000000
    30  H    9.199560   3.290426   1.771672   1.762373   0.000000
    31  H    8.866834   4.094963   3.993796   2.701944   2.787121
    32  H    9.862859   6.565630   6.862474   5.460947   5.565547
    33  H    9.282468   7.839002   8.890567   7.647564   7.754222
    34  H    6.657949   6.581431   8.385923   7.521091   7.604285
    35  H    4.137669   2.618928   5.130891   5.840496   5.874769
    36  H    2.599606   4.190031   6.865423   7.006109   6.860194
    37  H    3.406430   4.719022   7.093238   7.911074   7.940949
    38  H    2.164159   8.380411  11.086787  11.483520  11.346523
    39  H    1.085390   6.386668   9.097679   9.313742   9.153328
    40  H    6.475857   1.081892   2.691244   3.737363   3.710604
                   31         32         33         34         35
    31  H    0.000000
    32  H    2.869684   0.000000
    33  H    5.091125   2.717858   0.000000
    34  H    5.380275   4.338002   2.713102   0.000000
    35  H    6.401528   8.430452   9.023876   7.059096   0.000000
    36  H    6.290788   7.338290   7.081411   4.679432   3.069689
    37  H    8.480977  10.342684  10.608268   8.341888   2.117020
    38  H   10.955912  11.731849  10.822937   8.127226   6.167968
    39  H    8.545879   9.260526   8.470030   5.815023   4.640095
    40  H    5.017439   7.596013   8.920247   7.609428   2.486932
                   36         37         38         39         40
    36  H    0.000000
    37  H    3.849799   0.000000
    38  H    4.670164   4.961206   0.000000
    39  H    2.324041   4.311699   2.485262   0.000000
    40  H    4.767718   4.405621   8.568350   6.796621   0.000000
 Stoichiometry    C18H13BF3N3O2
 Framework group  C1[X(C18H13BF3N3O2)]
 Deg. of freedom   114
 Full point group                 C1      NOp   1
 Largest Abelian subgroup         C1      NOp   1
 Largest concise Abelian subgroup C1      NOp   1
                         Standard orientation:                         
 ---------------------------------------------------------------------
 Center     Atomic      Atomic             Coordinates (Angstroms)
 Number     Number       Type             X           Y           Z
 ---------------------------------------------------------------------
      1          6           0        3.709080    3.997094   -0.275724
      2          6           0        2.832487    2.788334   -0.196465
      3          6           0        3.272879    1.430172   -0.126620
      4          6           0        4.568963    0.942287   -0.069444
      5          6           0        4.834729   -0.420610    0.064432
      6          6           0        6.048375   -1.142164    0.142235
      7          6           0        5.712871   -2.488388    0.277226
      8          6           0        4.308763   -2.560987    0.279818
      9          7           0        3.780621   -1.325437    0.153446
     10          5           0        2.268849   -0.969271    0.100200
     11          9           0        1.692346   -1.638442   -0.991108
     12          9           0        1.639774   -1.371418    1.279062
     13          7           0        2.156939    0.582596   -0.077910
     14          6           0        1.045805    1.376722   -0.104872
     15          6           0       -0.348010    0.998543   -0.072504
     16          6           0       -0.902361   -0.221305   -0.265992
     17          6           0       -2.331741   -0.526773   -0.218544
     18          6           0       -3.324096    0.429279    0.039414
     19          6           0       -4.670506    0.071178    0.064362
     20          7           0       -5.651774    1.115923    0.324133
     21          8           0       -6.842541    0.882886    0.101149
     22          8           0       -5.244128    2.201098    0.752114
     23          6           0       -5.052250   -1.262530   -0.161239
     24          9           0       -6.331512   -1.648333   -0.118637
     25          6           0       -4.083122   -2.224151   -0.410002
     26          6           0       -2.743581   -1.857944   -0.443604
     27          6           0        1.452587    2.738995   -0.168002
     28          1           0        3.106589    4.908158   -0.287400
     29          1           0        4.393486    4.050679    0.577866
     30          1           0        4.324809    3.983690   -1.181894
     31          1           0        5.397274    1.640913   -0.119229
     32          1           0        7.036422   -0.704253    0.100940
     33          1           0        6.385687   -3.329781    0.365326
     34          1           0        3.674548   -3.432969    0.365839
     35          1           0       -0.996867    1.852850    0.103482
     36          1           0       -0.268001   -1.066772   -0.502781
     37          1           0       -3.075136    1.466779    0.219762
     38          1           0       -4.396252   -3.249232   -0.572363
     39          1           0       -1.993815   -2.616935   -0.643240
     40          1           0        0.769168    3.577021   -0.201783
 ---------------------------------------------------------------------
 Rotational constants (GHZ):           0.4136215           0.0815708           0.0695388
 Leave Link  202 at Fri Nov  7 11:07:00 2025, MaxMem= 30870077440 cpu:               0.3 elap:               0.0
 (Enter /public/software/gauss/g16/l301.exe)
 Standard basis: def2TZVPP (5D, 7F)
 Ernie: Thresh=  0.10000D-02 Tol=  0.10000D-05 Strict=F.
 There are  1167 symmetry adapted cartesian basis functions of A   symmetry.
 There are  1019 symmetry adapted basis functions of A   symmetry.
  1019 basis functions,  1598 primitive gaussians,  1167 cartesian basis functions
    95 alpha electrons       95 beta electrons
       nuclear repulsion energy      2293.8150568434 Hartrees.
 IExCor= 4336 DFT=T Ex+Corr=M062X ExCW=0 ScaHFX=  0.540000
 ScaDFX=  1.000000  1.000000  1.000000  1.000000 ScalE2=  1.000000  1.000000
 IRadAn=      5 IRanWt=     -1 IRanGd=            0 ICorTp=0 IEmpDi=131
 NAtoms=   40 NActive=   40 NUniq=   40 SFac= 1.00D+00 NAtFMM=   60 NAOKFM=F Big=F
 Integral buffers will be    131072 words long.
 Raffenetti 2 integral format.
 Two-electron integral symmetry is turned on.
 R6Disp:  Grimme-D3 Dispersion energy=       -0.0024378766 Hartrees.
 Nuclear repulsion after empirical dispersion term =     2293.8126189668 Hartrees.
 ------------------------------------------------------------------------------
 Polarizable Continuum Model (PCM)
 =================================
 Model                : PCM.
 Atomic radii         : UFF (Universal Force Field).
 Polarization charges : Total charges.
 Charge compensation  : None.
 Solution method      : On-the-fly selection.
 Cavity type          : Scaled VdW (van der Waals Surface) (Alpha=1.100).
 Cavity algorithm     : GePol (No added spheres)
                        Default sphere list used, NSphG=   40.
                        Lebedev-Laikov grids with approx.  5.0 points / Ang**2.
                        Smoothing algorithm: York/Karplus (Gamma=1.0000).
                        Polarization charges: spherical gaussians, with
                                              point-specific exponents (IZeta= 3).
                        Self-potential: point-specific (ISelfS= 7).
                        Self-field    : sphere-specific E.n sum rule (ISelfD= 2).
 Solvent              : Water, Eps=  78.355300 Eps(inf)=   1.777849
 ------------------------------------------------------------------------------
 GePol: Number of generator spheres                  =      40
 GePol: Total number of spheres                      =      40
 GePol: Number of exposed spheres                    =      40 (100.00%)
 GePol: Number of points                             =    3288
 GePol: Average weight of points                     =       0.13
 GePol: Minimum weight of points                     =   0.10D-09
 GePol: Maximum weight of points                     =    0.20577
 GePol: Number of points with low weight             =     181
 GePol: Fraction of low-weight points (<1% of avg)   =       5.50%
 GePol: Cavity surface area                          =    411.309 Ang**2
 GePol: Cavity volume                                =    454.223 Ang**3
 Leave Link  301 at Fri Nov  7 11:07:00 2025, MaxMem= 30870077440 cpu:               3.9 elap:               0.1
 (Enter /public/software/gauss/g16/l302.exe)
 NPDir=0 NMtPBC=     1 NCelOv=     1 NCel=       1 NClECP=     1 NCelD=      1
         NCelK=      1 NCelE2=     1 NClLst=     1 CellRange=     0.0.
 One-electron integrals computed using PRISM.
 One-electron integral symmetry used in STVInt
   1 Symmetry operations used in ECPInt.
 ECPInt:  NShTT=   70500 NPrTT=  208323 LenC2=   53788 LenP2D=  111347.
 LDataN:  DoStor=T MaxTD1= 6 Len=  172
 NBasis=  1019 RedAO= T EigKep=  7.75D-06  NBF=  1019
 NBsUse=  1019 1.00D-06 EigRej= -1.00D+00 NBFU=  1019
 Precomputing XC quadrature grid using
 IXCGrd= 4 IRadAn=           5 IRanWt=          -1 IRanGd=           0 AccXCQ= 0.00D+00.
 Generated NRdTot=       0 NPtTot=           0 NUsed=           0 NTot=          32
 NSgBfM=  1119  1118  1119  1119  1119 MxSgAt=    40 MxSgA2=    40.
 Leave Link  302 at Fri Nov  7 11:07:03 2025, MaxMem= 30870077440 cpu:             148.5 elap:               2.3
 (Enter /public/software/gauss/g16/l303.exe)
 DipDrv:  MaxL=1.
 Leave Link  303 at Fri Nov  7 11:07:03 2025, MaxMem= 30870077440 cpu:              10.3 elap:               0.2
 (Enter /public/software/gauss/g16/l401.exe)
 ExpMin= 6.06D-02 ExpMax= 3.55D+04 ExpMxC= 1.21D+03 IAcc=3 IRadAn=         5 AccDes= 0.00D+00
 Harris functional with IExCor= 1009 and IRadAn=       5 diagonalized for initial guess.
 HarFok:  IExCor= 1009 AccDes= 0.00D+00 IRadAn=         5 IDoV= 1 UseB2=F ITyADJ=14
 ICtDFT=  3500011 ScaDFX=  1.000000  1.000000  1.000000  1.000000
 FoFCou: FMM=F IPFlag=           0 FMFlag=      100000 FMFlg1=           0
         NFxFlg=           0 DoJE=T BraDBF=F KetDBF=T FulRan=T
         wScrn=  0.000000 ICntrl=       500 IOpCl=  0 I1Cent=   200000004 NGrid=           0
         NMat0=    1 NMatS0=      1 NMatT0=    0 NMatD0=    1 NMtDS0=    0 NMtDT0=    0
 Petite list used in FoFCou.
 Harris En= -1332.19554332913    
 JPrj=0 DoOrth=F DoCkMO=F.
 Leave Link  401 at Fri Nov  7 11:07:07 2025, MaxMem= 30870077440 cpu:             226.6 elap:               3.6
 (Enter /public/software/gauss/g16/l502.exe)
 Integral symmetry usage will be decided dynamically.
 Closed shell SCF:
 Using DIIS extrapolation, IDIIS=  1040.
 NGot= 30870077440 LenX= 30867269166 LenY= 30865906110
 Requested convergence on RMS density matrix=1.00D-08 within 128 cycles.
 Requested convergence on MAX density matrix=1.00D-06.
 Requested convergence on             energy=1.00D-06.
 No special actions if energy rises.
 Fock matrices will be formed incrementally for  20 cycles.

 Cycle   1  Pass 1  IDiag  1:
 FoFJK:  IHMeth= 1 ICntrl=       0 DoSepK=F KAlg= 0 I1Cent=           0 FoldK=F
 IRaf= 680000000 NMat=       1 IRICut=       1 DoRegI=T DoRafI=F ISym2E= 0 IDoP0=0 IntGTp=1.
 FoFCou: FMM=F IPFlag=           0 FMFlag=      100000 FMFlg1=           0
         NFxFlg=           0 DoJE=F BraDBF=F KetDBF=F FulRan=T
         wScrn=  0.000000 ICntrl=         0 IOpCl=  0 I1Cent=           0 NGrid=           0
         NMat0=    1 NMatS0=      1 NMatT0=    0 NMatD0=    1 NMtDS0=    0 NMtDT0=    0
 Symmetry not used in FoFCou.
 Inv3:  Mode=1 IEnd=    32432832.
 Iteration    1 A*A^-1 deviation from unit magnitude is 9.44D-15 for    354.
 Iteration    1 A*A^-1 deviation from orthogonality  is 4.24D-15 for   1948    566.
 Iteration    1 A^-1*A deviation from unit magnitude is 9.88D-15 for    354.
 Iteration    1 A^-1*A deviation from orthogonality  is 5.24D-15 for   1523   1512.
 E= -1332.32764910400    
 DIIS: error= 2.35D-02 at cycle   1 NSaved=   1.
 NSaved= 1 IEnMin= 1 EnMin= -1332.32764910400     IErMin= 1 ErrMin= 2.35D-02
 ErrMax= 2.35D-02  0.00D+00 EMaxC= 1.00D-01 BMatC= 8.50D-01 BMatP= 8.50D-01
 IDIUse=3 WtCom= 7.65D-01 WtEn= 2.35D-01
 Coeff-Com:  0.100D+01
 Coeff-En:   0.100D+01
 Coeff:      0.100D+01
 Gap=     0.155 Goal=   None    Shift=    0.000
 GapD=    0.155 DampG=1.000 DampE=0.500 DampFc=0.5000 IDamp=-1.
 Damping current iteration by 5.00D-01
 RMSDP=1.66D-03 MaxDP=1.08D-01              OVMax= 2.36D-01

 Cycle   2  Pass 1  IDiag  1:
 RMSU=  8.28D-04    CP:  9.84D-01
 E= -1332.60482603015     Delta-E=       -0.277176926151 Rises=F Damp=T
 DIIS: error= 5.34D-03 at cycle   2 NSaved=   2.
 NSaved= 2 IEnMin= 2 EnMin= -1332.60482603015     IErMin= 2 ErrMin= 5.34D-03
 ErrMax= 5.34D-03  0.00D+00 EMaxC= 1.00D-01 BMatC= 9.09D-02 BMatP= 8.50D-01
 IDIUse=3 WtCom= 9.47D-01 WtEn= 5.34D-02
 Coeff-Com: -0.192D-01 0.102D+01
 Coeff-En:   0.000D+00 0.100D+01
 Coeff:     -0.182D-01 0.102D+01
 Gap=     0.185 Goal=   None    Shift=    0.000
 RMSDP=6.83D-04 MaxDP=4.21D-02 DE=-2.77D-01 OVMax= 1.75D-01

 Cycle   3  Pass 1  IDiag  1:
 RMSU=  6.39D-04    CP:  9.65D-01  1.27D+00
 E= -1332.88957049715     Delta-E=       -0.284744466997 Rises=F Damp=F
 DIIS: error= 8.25D-03 at cycle   3 NSaved=   3.
 NSaved= 3 IEnMin= 3 EnMin= -1332.88957049715     IErMin= 2 ErrMin= 5.34D-03
 ErrMax= 8.25D-03  0.00D+00 EMaxC= 1.00D-01 BMatC= 4.86D-02 BMatP= 9.09D-02
 IDIUse=3 WtCom= 9.17D-01 WtEn= 8.25D-02
 Coeff-Com: -0.105D+00 0.454D+00 0.651D+00
 Coeff-En:   0.000D+00 0.000D+00 0.100D+01
 Coeff:     -0.967D-01 0.417D+00 0.680D+00
 Gap=     0.153 Goal=   None    Shift=    0.000
 RMSDP=2.36D-04 MaxDP=2.28D-02 DE=-2.85D-01 OVMax= 5.69D-02

 Cycle   4  Pass 1  IDiag  1:
 RMSU=  2.10D-04    CP:  9.66D-01  1.36D+00  8.86D-01
 E= -1332.92113222500     Delta-E=       -0.031561727852 Rises=F Damp=F
 DIIS: error= 2.59D-03 at cycle   4 NSaved=   4.
 NSaved= 4 IEnMin= 4 EnMin= -1332.92113222500     IErMin= 4 ErrMin= 2.59D-03
 ErrMax= 2.59D-03  0.00D+00 EMaxC= 1.00D-01 BMatC= 6.84D-03 BMatP= 4.86D-02
 IDIUse=3 WtCom= 9.74D-01 WtEn= 2.59D-02
 Coeff-Com: -0.335D-01 0.858D-01 0.324D+00 0.623D+00
 Coeff-En:   0.000D+00 0.000D+00 0.863D-01 0.914D+00
 Coeff:     -0.326D-01 0.836D-01 0.318D+00 0.631D+00
 Gap=     0.154 Goal=   None    Shift=    0.000
 RMSDP=7.87D-05 MaxDP=6.62D-03 DE=-3.16D-02 OVMax= 1.40D-02

 Cycle   5  Pass 1  IDiag  1:
 RMSU=  5.10D-05    CP:  9.64D-01  1.34D+00  9.37D-01  7.76D-01
 E= -1332.92626187413     Delta-E=       -0.005129649128 Rises=F Damp=F
 DIIS: error= 2.93D-04 at cycle   5 NSaved=   5.
 NSaved= 5 IEnMin= 5 EnMin= -1332.92626187413     IErMin= 5 ErrMin= 2.93D-04
 ErrMax= 2.93D-04  0.00D+00 EMaxC= 1.00D-01 BMatC= 2.25D-04 BMatP= 6.84D-03
 IDIUse=3 WtCom= 9.97D-01 WtEn= 2.93D-03
 Coeff-Com: -0.920D-02 0.161D-01 0.108D+00 0.270D+00 0.615D+00
 Coeff-En:   0.000D+00 0.000D+00 0.000D+00 0.000D+00 0.100D+01
 Coeff:     -0.918D-02 0.161D-01 0.108D+00 0.270D+00 0.616D+00
 Gap=     0.155 Goal=   None    Shift=    0.000
 RMSDP=2.28D-05 MaxDP=4.04D-03 DE=-5.13D-03 OVMax= 3.26D-03

 Cycle   6  Pass 1  IDiag  1:
 RMSU=  2.00D-05    CP:  9.65D-01  1.35D+00  9.32D-01  7.69D-01  8.18D-01
 E= -1332.92643055965     Delta-E=       -0.000168685520 Rises=F Damp=F
 DIIS: error= 9.22D-05 at cycle   6 NSaved=   6.
 NSaved= 6 IEnMin= 6 EnMin= -1332.92643055965     IErMin= 6 ErrMin= 9.22D-05
 ErrMax= 9.22D-05  0.00D+00 EMaxC= 1.00D-01 BMatC= 1.66D-05 BMatP= 2.25D-04
 IDIUse=1 WtCom= 1.00D+00 WtEn= 0.00D+00
 Coeff-Com: -0.634D-03-0.825D-03 0.143D-01 0.485D-01 0.234D+00 0.704D+00
 Coeff:     -0.634D-03-0.825D-03 0.143D-01 0.485D-01 0.234D+00 0.704D+00
 Gap=     0.155 Goal=   None    Shift=    0.000
 RMSDP=6.72D-06 MaxDP=5.18D-04 DE=-1.69D-04 OVMax= 1.81D-03

 Cycle   7  Pass 1  IDiag  1:
 RMSU=  5.92D-06    CP:  9.65D-01  1.35D+00  9.34D-01  7.72D-01  8.69D-01
                    CP:  1.03D+00
 E= -1332.92644592408     Delta-E=       -0.000015364436 Rises=F Damp=F
 DIIS: error= 6.75D-05 at cycle   7 NSaved=   7.
 NSaved= 7 IEnMin= 7 EnMin= -1332.92644592408     IErMin= 7 ErrMin= 6.75D-05
 ErrMax= 6.75D-05  0.00D+00 EMaxC= 1.00D-01 BMatC= 5.39D-06 BMatP= 1.66D-05
 IDIUse=1 WtCom= 1.00D+00 WtEn= 0.00D+00
 Coeff-Com:  0.114D-02-0.316D-02-0.919D-02-0.163D-01 0.323D-01 0.393D+00
 Coeff-Com:  0.602D+00
 Coeff:      0.114D-02-0.316D-02-0.919D-02-0.163D-01 0.323D-01 0.393D+00
 Coeff:      0.602D+00
 Gap=     0.155 Goal=   None    Shift=    0.000
 RMSDP=3.78D-06 MaxDP=3.93D-04 DE=-1.54D-05 OVMax= 9.91D-04

 Cycle   8  Pass 1  IDiag  1:
 RMSU=  2.91D-06    CP:  9.65D-01  1.35D+00  9.33D-01  7.73D-01  8.75D-01
                    CP:  1.14D+00  8.94D-01
 E= -1332.92645087278     Delta-E=       -0.000004948694 Rises=F Damp=F
 DIIS: error= 2.52D-05 at cycle   8 NSaved=   8.
 NSaved= 8 IEnMin= 8 EnMin= -1332.92645087278     IErMin= 8 ErrMin= 2.52D-05
 ErrMax= 2.52D-05  0.00D+00 EMaxC= 1.00D-01 BMatC= 8.24D-07 BMatP= 5.39D-06
 IDIUse=1 WtCom= 1.00D+00 WtEn= 0.00D+00
 Coeff-Com:  0.708D-03-0.146D-02-0.742D-02-0.182D-01-0.327D-01 0.569D-01
 Coeff-Com:  0.315D+00 0.687D+00
 Coeff:      0.708D-03-0.146D-02-0.742D-02-0.182D-01-0.327D-01 0.569D-01
 Coeff:      0.315D+00 0.687D+00
 Gap=     0.156 Goal=   None    Shift=    0.000
 RMSDP=1.91D-06 MaxDP=1.47D-04 DE=-4.95D-06 OVMax= 5.74D-04

 Cycle   9  Pass 1  IDiag  1:
 RMSU=  1.14D-06    CP:  9.65D-01  1.35D+00  9.34D-01  7.73D-01  8.84D-01
                    CP:  1.20D+00  1.05D+00  9.42D-01
 E= -1332.92645195687     Delta-E=       -0.000001084093 Rises=F Damp=F
 DIIS: error= 6.42D-06 at cycle   9 NSaved=   9.
 NSaved= 9 IEnMin= 9 EnMin= -1332.92645195687     IErMin= 9 ErrMin= 6.42D-06
 ErrMax= 6.42D-06  0.00D+00 EMaxC= 1.00D-01 BMatC= 6.84D-08 BMatP= 8.24D-07
 IDIUse=1 WtCom= 1.00D+00 WtEn= 0.00D+00
 Coeff-Com:  0.109D-03-0.125D-03-0.131D-02-0.422D-02-0.150D-01-0.237D-01
 Coeff-Com:  0.331D-01 0.236D+00 0.775D+00
 Coeff:      0.109D-03-0.125D-03-0.131D-02-0.422D-02-0.150D-01-0.237D-01
 Coeff:      0.331D-01 0.236D+00 0.775D+00
 Gap=     0.156 Goal=   None    Shift=    0.000
 RMSDP=6.90D-07 MaxDP=8.28D-05 DE=-1.08D-06 OVMax= 3.13D-04

 Cycle  10  Pass 1  IDiag  1:
 RMSU=  4.12D-07    CP:  9.65D-01  1.35D+00  9.34D-01  7.72D-01  8.83D-01
                    CP:  1.21D+00  1.07D+00  1.07D+00  1.08D+00
 E= -1332.92645210739     Delta-E=       -0.000000150521 Rises=F Damp=F
 DIIS: error= 3.27D-06 at cycle  10 NSaved=  10.
 NSaved=10 IEnMin=10 EnMin= -1332.92645210739     IErMin=10 ErrMin= 3.27D-06
 ErrMax= 3.27D-06  0.00D+00 EMaxC= 1.00D-01 BMatC= 1.45D-08 BMatP= 6.84D-08
 IDIUse=1 WtCom= 1.00D+00 WtEn= 0.00D+00
 Coeff-Com: -0.807D-04 0.204D-03 0.801D-03 0.155D-02-0.741D-03-0.185D-01
 Coeff-Com: -0.453D-01-0.367D-01 0.297D+00 0.802D+00
 Coeff:     -0.807D-04 0.204D-03 0.801D-03 0.155D-02-0.741D-03-0.185D-01
 Coeff:     -0.453D-01-0.367D-01 0.297D+00 0.802D+00
 Gap=     0.156 Goal=   None    Shift=    0.000
 RMSDP=3.61D-07 MaxDP=3.07D-05 DE=-1.51D-07 OVMax= 1.59D-04

 Cycle  11  Pass 1  IDiag  1:
 RMSU=  1.74D-07    CP:  9.65D-01  1.35D+00  9.34D-01  7.72D-01  8.83D-01
                    CP:  1.22D+00  1.09D+00  1.11D+00  1.24D+00  1.26D+00
 E= -1332.92645214478     Delta-E=       -0.000000037384 Rises=F Damp=F
 DIIS: error= 2.18D-06 at cycle  11 NSaved=  11.
 NSaved=11 IEnMin=11 EnMin= -1332.92645214478     IErMin=11 ErrMin= 2.18D-06
 ErrMax= 2.18D-06  0.00D+00 EMaxC= 1.00D-01 BMatC= 2.46D-09 BMatP= 1.45D-08
 IDIUse=1 WtCom= 1.00D+00 WtEn= 0.00D+00
 Coeff-Com: -0.440D-04 0.905D-04 0.497D-03 0.127D-02 0.195D-02-0.231D-02
 Coeff-Com: -0.226D-01-0.537D-01-0.104D-01 0.302D+00 0.783D+00
 Coeff:     -0.440D-04 0.905D-04 0.497D-03 0.127D-02 0.195D-02-0.231D-02
 Coeff:     -0.226D-01-0.537D-01-0.104D-01 0.302D+00 0.783D+00
 Gap=     0.156 Goal=   None    Shift=    0.000
 RMSDP=1.48D-07 MaxDP=9.39D-06 DE=-3.74D-08 OVMax= 8.90D-05

 Cycle  12  Pass 1  IDiag  1:
 RMSU=  8.01D-08    CP:  9.65D-01  1.35D+00  9.34D-01  7.72D-01  8.83D-01
                    CP:  1.22D+00  1.09D+00  1.13D+00  1.30D+00  1.43D+00
                    CP:  1.24D+00
 E= -1332.92645215218     Delta-E=       -0.000000007398 Rises=F Damp=F
 DIIS: error= 1.15D-06 at cycle  12 NSaved=  12.
 NSaved=12 IEnMin=12 EnMin= -1332.92645215218     IErMin=12 ErrMin= 1.15D-06
 ErrMax= 1.15D-06  0.00D+00 EMaxC= 1.00D-01 BMatC= 5.07D-10 BMatP= 2.46D-09
 IDIUse=1 WtCom= 1.00D+00 WtEn= 0.00D+00
 Coeff-Com:  0.371D-06-0.765D-05 0.214D-04 0.152D-03 0.661D-03 0.282D-02
 Coeff-Com:  0.475D-03-0.116D-01-0.509D-01-0.610D-01 0.272D+00 0.847D+00
 Coeff:      0.371D-06-0.765D-05 0.214D-04 0.152D-03 0.661D-03 0.282D-02
 Coeff:      0.475D-03-0.116D-01-0.509D-01-0.610D-01 0.272D+00 0.847D+00
 Gap=     0.156 Goal=   None    Shift=    0.000
 RMSDP=7.60D-08 MaxDP=6.36D-06 DE=-7.40D-09 OVMax= 4.98D-05

 Cycle  13  Pass 1  IDiag  1:
 RMSU=  3.55D-08    CP:  9.65D-01  1.35D+00  9.34D-01  7.71D-01  8.83D-01
                    CP:  1.22D+00  1.09D+00  1.13D+00  1.32D+00  1.54D+00
                    CP:  1.45D+00  1.26D+00
 E= -1332.92645215395     Delta-E=       -0.000000001778 Rises=F Damp=F
 DIIS: error= 4.80D-07 at cycle  13 NSaved=  13.
 NSaved=13 IEnMin=13 EnMin= -1332.92645215395     IErMin=13 ErrMin= 4.80D-07
 ErrMax= 4.80D-07  0.00D+00 EMaxC= 1.00D-01 BMatC= 1.41D-10 BMatP= 5.07D-10
 IDIUse=1 WtCom= 1.00D+00 WtEn= 0.00D+00
 Coeff-Com:  0.103D-04-0.238D-04-0.105D-03-0.221D-03-0.171D-03 0.210D-02
 Coeff-Com:  0.559D-02 0.648D-02-0.211D-01-0.109D+00-0.458D-01 0.387D+00
 Coeff-Com:  0.775D+00
 Coeff:      0.103D-04-0.238D-04-0.105D-03-0.221D-03-0.171D-03 0.210D-02
 Coeff:      0.559D-02 0.648D-02-0.211D-01-0.109D+00-0.458D-01 0.387D+00
 Coeff:      0.775D+00
 Gap=     0.156 Goal=   None    Shift=    0.000
 RMSDP=3.91D-08 MaxDP=2.84D-06 DE=-1.78D-09 OVMax= 2.39D-05

 Cycle  14  Pass 1  IDiag  1:
 RMSU=  1.47D-08    CP:  9.65D-01  1.35D+00  9.34D-01  7.71D-01  8.83D-01
                    CP:  1.22D+00  1.09D+00  1.13D+00  1.33D+00  1.58D+00
                    CP:  1.57D+00  1.45D+00  1.29D+00
 E= -1332.92645215449     Delta-E=       -0.000000000540 Rises=F Damp=F
 DIIS: error= 2.33D-07 at cycle  14 NSaved=  14.
 NSaved=14 IEnMin=14 EnMin= -1332.92645215449     IErMin=14 ErrMin= 2.33D-07
 ErrMax= 2.33D-07  0.00D+00 EMaxC= 1.00D-01 BMatC= 2.02D-11 BMatP= 1.41D-10
 IDIUse=1 WtCom= 1.00D+00 WtEn= 0.00D+00
 Coeff-Com:  0.357D-05-0.704D-05-0.413D-04-0.109D-03-0.218D-03 0.226D-03
 Coeff-Com:  0.189D-02 0.454D-02 0.521D-02-0.278D-01-0.708D-01-0.343D-01
 Coeff-Com:  0.277D+00 0.844D+00
 Coeff:      0.357D-05-0.704D-05-0.413D-04-0.109D-03-0.218D-03 0.226D-03
 Coeff:      0.189D-02 0.454D-02 0.521D-02-0.278D-01-0.708D-01-0.343D-01
 Coeff:      0.277D+00 0.844D+00
 Gap=     0.156 Goal=   None    Shift=    0.000
 RMSDP=1.61D-08 MaxDP=1.27D-06 DE=-5.40D-10 OVMax= 1.10D-05

 Cycle  15  Pass 1  IDiag  1:
 RMSU=  6.47D-09    CP:  9.65D-01  1.35D+00  9.34D-01  7.71D-01  8.83D-01
                    CP:  1.22D+00  1.09D+00  1.13D+00  1.33D+00  1.59D+00
                    CP:  1.61D+00  1.54D+00  1.51D+00  1.21D+00
 E= -1332.92645215445     Delta-E=        0.000000000040 Rises=F Damp=F
 DIIS: error= 6.53D-08 at cycle  15 NSaved=  15.
 NSaved=15 IEnMin=14 EnMin= -1332.92645215449     IErMin=15 ErrMin= 6.53D-08
 ErrMax= 6.53D-08  0.00D+00 EMaxC= 1.00D-01 BMatC= 4.26D-12 BMatP= 2.02D-11
 IDIUse=1 WtCom= 1.00D+00 WtEn= 0.00D+00
 Coeff-Com: -0.146D-06 0.757D-06 0.307D-07-0.102D-04-0.691D-04-0.233D-03
 Coeff-Com: -0.110D-03 0.724D-03 0.564D-02 0.557D-02-0.224D-01-0.780D-01
 Coeff-Com: -0.307D-01 0.348D+00 0.772D+00
 Coeff:     -0.146D-06 0.757D-06 0.307D-07-0.102D-04-0.691D-04-0.233D-03
 Coeff:     -0.110D-03 0.724D-03 0.564D-02 0.557D-02-0.224D-01-0.780D-01
 Coeff:     -0.307D-01 0.348D+00 0.772D+00
 Gap=     0.156 Goal=   None    Shift=    0.000
 RMSDP=6.03D-09 MaxDP=4.62D-07 DE= 3.96D-11 OVMax= 3.70D-06

 Error on total polarization charges =  0.01715
 SCF Done:  E(RM062X) =  -1332.92645215     A.U. after   15 cycles
            NFock= 15  Conv=0.60D-08     -V/T= 2.0051
 KE= 1.326225070195D+03 PE=-7.707044933812D+03 EE= 2.754080792496D+03
 Leave Link  502 at Fri Nov  7 11:12:46 2025, MaxMem= 30870077440 cpu:           21361.2 elap:             339.1
 (Enter /public/software/gauss/g16/l601.exe)
 Copying SCF densities to generalized density rwf, IOpCl= 0 IROHF=0.

 **********************************************************************

            Population analysis using the SCF density.

 **********************************************************************

 Orbital symmetries:
       Occupied  (A) (A) (A) (A) (A) (A) (A) (A) (A) (A) (A) (A)
                 (A) (A) (A) (A) (A) (A) (A) (A) (A) (A) (A) (A)
                 (A) (A) (A) (A) (A) (A) (A) (A) (A) (A) (A) (A)
                 (A) (A) (A) (A) (A) (A) (A) (A) (A) (A) (A) (A)
                 (A) (A) (A) (A) (A) (A) (A) (A) (A) (A) (A) (A)
                 (A) (A) (A) (A) (A) (A) (A) (A) (A) (A) (A) (A)
                 (A) (A) (A) (A) (A) (A) (A) (A) (A) (A) (A) (A)
                 (A) (A) (A) (A) (A) (A) (A) (A) (A) (A) (A)
       Virtual   (A) (A) (A) (A) (A) (A) (A) (A) (A) (A) (A) (A)
                 (A) (A) (A) (A) (A) (A) (A) (A) (A) (A) (A) (A)
                 (A) (A) (A) (A) (A) (A) (A) (A) (A) (A) (A) (A)
                 (A) (A) (A) (A) (A) (A) (A) (A) (A) (A) (A) (A)
                 (A) (A) (A) (A) (A) (A) (A) (A) (A) (A) (A) (A)
                 (A) (A) (A) (A) (A) (A) (A) (A) (A) (A) (A) (A)
                 (A) (A) (A) (A) (A) (A) (A) (A) (A) (A) (A) (A)
                 (A) (A) (A) (A) (A) (A) (A) (A) (A) (A) (A) (A)
                 (A) (A) (A) (A) (A) (A) (A) (A) (A) (A) (A) (A)
                 (A) (A) (A) (A) (A) (A) (A) (A) (A) (A) (A) (A)
                 (A) (A) (A) (A) (A) (A) (A) (A) (A) (A) (A) (A)
                 (A) (A) (A) (A) (A) (A) (A) (A) (A) (A) (A) (A)
                 (A) (A) (A) (A) (A) (A) (A) (A) (A) (A) (A) (A)
                 (A) (A) (A) (A) (A) (A) (A) (A) (A) (A) (A) (A)
                 (A) (A) (A) (A) (A) (A) (A) (A) (A) (A) (A) (A)
                 (A) (A) (A) (A) (A) (A) (A) (A) (A) (A) (A) (A)
                 (A) (A) (A) (A) (A) (A) (A) (A) (A) (A) (A) (A)
                 (A) (A) (A) (A) (A) (A) (A) (A) (A) (A) (A) (A)
                 (A) (A) (A) (A) (A) (A) (A) (A) (A) (A) (A) (A)
                 (A) (A) (A) (A) (A) (A) (A) (A) (A) (A) (A) (A)
                 (A) (A) (A) (A) (A) (A) (A) (A) (A) (A) (A) (A)
                 (A) (A) (A) (A) (A) (A) (A) (A) (A) (A) (A) (A)
                 (A) (A) (A) (A) (A) (A) (A) (A) (A) (A) (A) (A)
                 (A) (A) (A) (A) (A) (A) (A) (A) (A) (A) (A) (A)
                 (A) (A) (A) (A) (A) (A) (A) (A) (A) (A) (A) (A)
                 (A) (A) (A) (A) (A) (A) (A) (A) (A) (A) (A) (A)
                 (A) (A) (A) (A) (A) (A) (A) (A) (A) (A) (A) (A)
                 (A) (A) (A) (A) (A) (A) (A) (A) (A) (A) (A) (A)
                 (A) (A) (A) (A) (A) (A) (A) (A) (A) (A) (A) (A)
                 (A) (A) (A) (A) (A) (A) (A) (A) (A) (A) (A) (A)
                 (A) (A) (A) (A) (A) (A) (A) (A) (A) (A) (A) (A)
                 (A) (A) (A) (A) (A) (A) (A) (A) (A) (A) (A) (A)
                 (A) (A) (A) (A) (A) (A) (A) (A) (A) (A) (A) (A)
                 (A) (A) (A) (A) (A) (A) (A) (A) (A) (A) (A) (A)
                 (A) (A) (A) (A) (A) (A) (A) (A) (A) (A) (A) (A)
                 (A) (A) (A) (A) (A) (A) (A) (A) (A) (A) (A) (A)
                 (A) (A) (A) (A) (A) (A) (A) (A) (A) (A) (A) (A)
                 (A) (A) (A) (A) (A) (A) (A) (A) (A) (A) (A) (A)
                 (A) (A) (A) (A) (A) (A) (A) (A) (A) (A) (A) (A)
                 (A) (A) (A) (A) (A) (A) (A) (A) (A) (A) (A) (A)
                 (A) (A) (A) (A) (A) (A) (A) (A) (A) (A) (A) (A)
                 (A) (A) (A) (A) (A) (A) (A) (A) (A) (A) (A) (A)
                 (A) (A) (A) (A) (A) (A) (A) (A) (A) (A) (A) (A)
                 (A) (A) (A) (A) (A) (A) (A) (A) (A) (A) (A) (A)
                 (A) (A) (A) (A) (A) (A) (A) (A) (A) (A) (A) (A)
                 (A) (A) (A) (A) (A) (A) (A) (A) (A) (A) (A) (A)
                 (A) (A) (A) (A) (A) (A) (A) (A) (A) (A) (A) (A)
                 (A) (A) (A) (A) (A) (A) (A) (A) (A) (A) (A) (A)
                 (A) (A) (A) (A) (A) (A) (A) (A) (A) (A) (A) (A)
                 (A) (A) (A) (A) (A) (A) (A) (A) (A) (A) (A) (A)
                 (A) (A) (A) (A) (A) (A) (A) (A) (A) (A) (A) (A)
                 (A) (A) (A) (A) (A) (A) (A) (A) (A) (A) (A) (A)
                 (A) (A) (A) (A) (A) (A) (A) (A) (A) (A) (A) (A)
                 (A) (A) (A) (A) (A) (A) (A) (A) (A) (A) (A) (A)
                 (A) (A) (A) (A) (A) (A) (A) (A) (A) (A) (A) (A)
                 (A) (A) (A) (A) (A) (A) (A) (A) (A) (A) (A) (A)
                 (A) (A) (A) (A) (A) (A) (A) (A) (A) (A) (A) (A)
                 (A) (A) (A) (A) (A) (A) (A) (A) (A) (A) (A) (A)
                 (A) (A) (A) (A) (A) (A) (A) (A) (A) (A) (A) (A)
                 (A) (A) (A) (A) (A) (A) (A) (A) (A) (A) (A) (A)
                 (A) (A) (A) (A) (A) (A) (A) (A) (A) (A) (A) (A)
                 (A) (A) (A) (A) (A) (A) (A) (A) (A) (A) (A) (A)
                 (A) (A) (A) (A) (A) (A) (A) (A) (A) (A) (A) (A)
                 (A) (A) (A) (A) (A) (A) (A) (A) (A) (A) (A) (A)
                 (A) (A) (A) (A) (A) (A) (A) (A) (A) (A) (A) (A)
                 (A) (A) (A) (A) (A) (A) (A) (A) (A) (A) (A) (A)
                 (A) (A) (A) (A) (A) (A) (A) (A) (A) (A) (A) (A)
                 (A) (A) (A) (A) (A) (A) (A) (A) (A) (A) (A) (A)
                 (A) (A) (A) (A) (A) (A) (A) (A) (A) (A) (A) (A)
                 (A) (A) (A) (A) (A) (A) (A) (A) (A) (A) (A) (A)
                 (A) (A) (A) (A) (A) (A) (A) (A) (A) (A) (A) (A)
                 (A) (A) (A) (A) (A) (A) (A) (A) (A) (A) (A) (A)
                 (A) (A) (A) (A) (A) (A) (A) (A) (A) (A) (A) (A)
                 (A) (A) (A) (A) (A) (A) (A) (A) (A) (A) (A) (A)
                 (A) (A) (A) (A) (A) (A) (A) (A) (A) (A) (A) (A)
                 (A) (A) (A) (A) (A) (A) (A) (A) (A) (A) (A) (A)
                 (A) (A) (A) (A) (A) (A) (A) (A) (A) (A) (A) (A)
 The electronic state is 1-A.
 Alpha  occ. eigenvalues --  -25.28666 -25.20907 -25.20869 -19.68290 -19.68172
 Alpha  occ. eigenvalues --  -15.02086 -14.79383 -14.78946 -10.67384 -10.63118
 Alpha  occ. eigenvalues --  -10.61546 -10.59591 -10.59457 -10.59279 -10.58955
 Alpha  occ. eigenvalues --  -10.58806 -10.58625 -10.58337 -10.57633 -10.57582
 Alpha  occ. eigenvalues --  -10.57256 -10.56966 -10.56037 -10.55003 -10.54745
 Alpha  occ. eigenvalues --  -10.54540  -7.13867  -1.40453  -1.37357  -1.32872
 Alpha  occ. eigenvalues --   -1.29647  -1.18861  -1.11084  -1.09200  -1.01670
 Alpha  occ. eigenvalues --   -0.94623  -0.92964  -0.91609  -0.91107  -0.88906
 Alpha  occ. eigenvalues --   -0.87193  -0.82850  -0.81781  -0.80527  -0.77409
 Alpha  occ. eigenvalues --   -0.74014  -0.71707  -0.70367  -0.69115  -0.67856
 Alpha  occ. eigenvalues --   -0.67219  -0.65106  -0.64500  -0.64155  -0.63340
 Alpha  occ. eigenvalues --   -0.62833  -0.61841  -0.60516  -0.60463  -0.59553
 Alpha  occ. eigenvalues --   -0.58799  -0.57420  -0.56934  -0.54485  -0.54025
 Alpha  occ. eigenvalues --   -0.53510  -0.52895  -0.52665  -0.51666  -0.51382
 Alpha  occ. eigenvalues --   -0.50784  -0.49193  -0.49102  -0.48746  -0.47798
 Alpha  occ. eigenvalues --   -0.47676  -0.47518  -0.46936  -0.46862  -0.45602
 Alpha  occ. eigenvalues --   -0.45396  -0.44493  -0.44220  -0.43800  -0.41885
 Alpha  occ. eigenvalues --   -0.41246  -0.40333  -0.39923  -0.39851  -0.36666
 Alpha  occ. eigenvalues --   -0.35126  -0.33073  -0.32094  -0.31297  -0.25527
 Alpha virt. eigenvalues --   -0.09968  -0.07482  -0.03154   0.01344   0.04384
 Alpha virt. eigenvalues --    0.06097   0.06693   0.07605   0.08195   0.08403
 Alpha virt. eigenvalues --    0.09031   0.09620   0.10120   0.10488   0.10943
 Alpha virt. eigenvalues --    0.11776   0.11919   0.12207   0.12593   0.13305
 Alpha virt. eigenvalues --    0.13657   0.14475   0.14760   0.15632   0.16109
 Alpha virt. eigenvalues --    0.16565   0.17073   0.17685   0.18222   0.18386
 Alpha virt. eigenvalues --    0.19392   0.19677   0.20178   0.20465   0.21149
 Alpha virt. eigenvalues --    0.21553   0.22005   0.22565   0.22651   0.23223
 Alpha virt. eigenvalues --    0.24176   0.24348   0.24734   0.24812   0.25276
 Alpha virt. eigenvalues --    0.25709   0.26107   0.26803   0.27118   0.27630
 Alpha virt. eigenvalues --    0.27649   0.29038   0.29090   0.29292   0.29460
 Alpha virt. eigenvalues --    0.29830   0.30466   0.30896   0.31133   0.31959
 Alpha virt. eigenvalues --    0.32520   0.32821   0.33525   0.34051   0.34212
 Alpha virt. eigenvalues --    0.34622   0.35194   0.35413   0.35646   0.36004
 Alpha virt. eigenvalues --    0.36396   0.37219   0.37336   0.37425   0.37967
 Alpha virt. eigenvalues --    0.38445   0.38713   0.38849   0.39300   0.39567
 Alpha virt. eigenvalues --    0.40410   0.40528   0.40933   0.41221   0.41688
 Alpha virt. eigenvalues --    0.42222   0.42431   0.42817   0.43235   0.43516
 Alpha virt. eigenvalues --    0.43796   0.43874   0.44344   0.44568   0.45538
 Alpha virt. eigenvalues --    0.45842   0.46259   0.46731   0.47797   0.48345
 Alpha virt. eigenvalues --    0.48470   0.48580   0.49395   0.49508   0.49914
 Alpha virt. eigenvalues --    0.50135   0.50749   0.51002   0.51233   0.51682
 Alpha virt. eigenvalues --    0.52495   0.52616   0.52922   0.53537   0.53648
 Alpha virt. eigenvalues --    0.54565   0.55236   0.55650   0.55950   0.56612
 Alpha virt. eigenvalues --    0.56922   0.58105   0.58274   0.58653   0.59478
 Alpha virt. eigenvalues --    0.59997   0.60884   0.61161   0.61629   0.62074
 Alpha virt. eigenvalues --    0.62387   0.62470   0.63272   0.63989   0.64055
 Alpha virt. eigenvalues --    0.64142   0.65237   0.65506   0.66043   0.66498
 Alpha virt. eigenvalues --    0.67018   0.67555   0.68135   0.68584   0.69044
 Alpha virt. eigenvalues --    0.69367   0.69763   0.70668   0.70915   0.71201
 Alpha virt. eigenvalues --    0.71404   0.71857   0.72154   0.72889   0.73182
 Alpha virt. eigenvalues --    0.73582   0.74207   0.74566   0.74670   0.75429
 Alpha virt. eigenvalues --    0.76438   0.76921   0.77941   0.78026   0.78392
 Alpha virt. eigenvalues --    0.79011   0.79655   0.79943   0.80638   0.80886
 Alpha virt. eigenvalues --    0.81434   0.82032   0.82616   0.83307   0.83598
 Alpha virt. eigenvalues --    0.83881   0.84413   0.85174   0.85502   0.85764
 Alpha virt. eigenvalues --    0.86200   0.86751   0.87727   0.88054   0.88595
 Alpha virt. eigenvalues --    0.90305   0.91342   0.91506   0.92060   0.92282
 Alpha virt. eigenvalues --    0.92510   0.93469   0.93892   0.94207   0.94811
 Alpha virt. eigenvalues --    0.94842   0.95020   0.96303   0.97124   0.97776
 Alpha virt. eigenvalues --    0.97889   0.98665   0.99444   0.99593   1.00226
 Alpha virt. eigenvalues --    1.00346   1.00925   1.01310   1.02520   1.02872
 Alpha virt. eigenvalues --    1.03253   1.03798   1.04413   1.05057   1.05432
 Alpha virt. eigenvalues --    1.06011   1.07246   1.07636   1.08054   1.08471
 Alpha virt. eigenvalues --    1.09086   1.09500   1.09877   1.10172   1.10852
 Alpha virt. eigenvalues --    1.11586   1.12878   1.13127   1.14295   1.14894
 Alpha virt. eigenvalues --    1.15513   1.15578   1.16867   1.17259   1.17811
 Alpha virt. eigenvalues --    1.18289   1.18786   1.19382   1.19791   1.20136
 Alpha virt. eigenvalues --    1.20965   1.21613   1.21976   1.22903   1.23600
 Alpha virt. eigenvalues --    1.24523   1.25014   1.26090   1.26772   1.27030
 Alpha virt. eigenvalues --    1.27511   1.28415   1.29292   1.29679   1.30239
 Alpha virt. eigenvalues --    1.30459   1.31252   1.31802   1.32363   1.32856
 Alpha virt. eigenvalues --    1.33101   1.34158   1.34183   1.35142   1.35687
 Alpha virt. eigenvalues --    1.37137   1.37344   1.37585   1.39545   1.39742
 Alpha virt. eigenvalues --    1.40496   1.41293   1.41769   1.42310   1.42425
 Alpha virt. eigenvalues --    1.42734   1.43546   1.44018   1.44270   1.45715
 Alpha virt. eigenvalues --    1.46875   1.47422   1.47799   1.48260   1.48713
 Alpha virt. eigenvalues --    1.49722   1.49988   1.50206   1.50882   1.51676
 Alpha virt. eigenvalues --    1.51923   1.52348   1.53103   1.53638   1.53921
 Alpha virt. eigenvalues --    1.54673   1.55368   1.56076   1.56418   1.56508
 Alpha virt. eigenvalues --    1.57371   1.58160   1.58590   1.59176   1.59693
 Alpha virt. eigenvalues --    1.60161   1.61092   1.62403   1.63056   1.63550
 Alpha virt. eigenvalues --    1.64990   1.65382   1.65795   1.66179   1.66621
 Alpha virt. eigenvalues --    1.66967   1.68025   1.69231   1.69794   1.70089
 Alpha virt. eigenvalues --    1.70228   1.70662   1.72247   1.73217   1.73936
 Alpha virt. eigenvalues --    1.74950   1.75317   1.75993   1.76946   1.77289
 Alpha virt. eigenvalues --    1.77860   1.77968   1.78309   1.79502   1.80464
 Alpha virt. eigenvalues --    1.81420   1.81928   1.83827   1.83946   1.85028
 Alpha virt. eigenvalues --    1.85114   1.86098   1.86720   1.87393   1.88054
 Alpha virt. eigenvalues --    1.88302   1.89184   1.90204   1.91595   1.92613
 Alpha virt. eigenvalues --    1.93276   1.94021   1.95650   1.96335   1.97722
 Alpha virt. eigenvalues --    1.98812   1.99497   2.00544   2.00872   2.01738
 Alpha virt. eigenvalues --    2.02336   2.02741   2.03687   2.04507   2.04956
 Alpha virt. eigenvalues --    2.05308   2.07020   2.07153   2.07756   2.08444
 Alpha virt. eigenvalues --    2.09091   2.10036   2.11751   2.13394   2.13756
 Alpha virt. eigenvalues --    2.14758   2.16582   2.17451   2.18174   2.19325
 Alpha virt. eigenvalues --    2.20103   2.20210   2.20770   2.21066   2.22325
 Alpha virt. eigenvalues --    2.22842   2.23978   2.24516   2.26198   2.27009
 Alpha virt. eigenvalues --    2.27800   2.28467   2.29611   2.29874   2.30589
 Alpha virt. eigenvalues --    2.32543   2.33193   2.34145   2.34490   2.34919
 Alpha virt. eigenvalues --    2.36236   2.37060   2.37666   2.38660   2.39440
 Alpha virt. eigenvalues --    2.41253   2.42787   2.43172   2.44244   2.45204
 Alpha virt. eigenvalues --    2.46278   2.46842   2.47099   2.48691   2.50413
 Alpha virt. eigenvalues --    2.51409   2.52395   2.53561   2.54531   2.55532
 Alpha virt. eigenvalues --    2.56323   2.57263   2.58299   2.59369   2.60352
 Alpha virt. eigenvalues --    2.61052   2.62257   2.62295   2.62778   2.63547
 Alpha virt. eigenvalues --    2.63801   2.64811   2.65636   2.65936   2.66626
 Alpha virt. eigenvalues --    2.67976   2.68176   2.69892   2.70107   2.70850
 Alpha virt. eigenvalues --    2.71318   2.71997   2.72190   2.72947   2.73654
 Alpha virt. eigenvalues --    2.74096   2.74470   2.75087   2.75861   2.76469
 Alpha virt. eigenvalues --    2.77358   2.77719   2.78491   2.79072   2.79779
 Alpha virt. eigenvalues --    2.80638   2.81227   2.82209   2.82319   2.82912
 Alpha virt. eigenvalues --    2.83372   2.83850   2.84564   2.85212   2.85357
 Alpha virt. eigenvalues --    2.86056   2.86953   2.87204   2.88086   2.89205
 Alpha virt. eigenvalues --    2.89478   2.89970   2.90523   2.90548   2.90903
 Alpha virt. eigenvalues --    2.91481   2.92221   2.92635   2.93521   2.93790
 Alpha virt. eigenvalues --    2.94241   2.94461   2.94986   2.95795   2.96526
 Alpha virt. eigenvalues --    2.96755   2.97111   2.97665   2.98265   2.98533
 Alpha virt. eigenvalues --    2.99343   2.99709   2.99954   3.00533   3.01224
 Alpha virt. eigenvalues --    3.01722   3.01778   3.02784   3.03019   3.03343
 Alpha virt. eigenvalues --    3.03911   3.04438   3.04752   3.05419   3.05681
 Alpha virt. eigenvalues --    3.05852   3.06674   3.06873   3.07419   3.08061
 Alpha virt. eigenvalues --    3.08459   3.09105   3.09475   3.10609   3.10812
 Alpha virt. eigenvalues --    3.11239   3.11886   3.12346   3.12588   3.14052
 Alpha virt. eigenvalues --    3.15008   3.15206   3.16019   3.16369   3.16620
 Alpha virt. eigenvalues --    3.17245   3.17363   3.17915   3.18445   3.18678
 Alpha virt. eigenvalues --    3.19070   3.19931   3.20465   3.20937   3.21291
 Alpha virt. eigenvalues --    3.21864   3.22286   3.23241   3.23708   3.24117
 Alpha virt. eigenvalues --    3.25197   3.25622   3.26008   3.26641   3.26649
 Alpha virt. eigenvalues --    3.28133   3.28786   3.28922   3.29755   3.29963
 Alpha virt. eigenvalues --    3.30134   3.31010   3.31378   3.32136   3.32500
 Alpha virt. eigenvalues --    3.33266   3.33919   3.34544   3.35436   3.36309
 Alpha virt. eigenvalues --    3.36584   3.37323   3.38135   3.38500   3.39042
 Alpha virt. eigenvalues --    3.39330   3.40338   3.41179   3.41619   3.42605
 Alpha virt. eigenvalues --    3.43606   3.44501   3.44830   3.45231   3.46118
 Alpha virt. eigenvalues --    3.46593   3.46879   3.48342   3.48564   3.49583
 Alpha virt. eigenvalues --    3.49751   3.50371   3.50761   3.50870   3.52012
 Alpha virt. eigenvalues --    3.52364   3.52850   3.53506   3.54055   3.55358
 Alpha virt. eigenvalues --    3.55477   3.56365   3.57187   3.57798   3.58879
 Alpha virt. eigenvalues --    3.60484   3.61012   3.61753   3.62150   3.62846
 Alpha virt. eigenvalues --    3.63341   3.64117   3.65061   3.65561   3.66057
 Alpha virt. eigenvalues --    3.67943   3.68133   3.68820   3.69490   3.70364
 Alpha virt. eigenvalues --    3.70750   3.71432   3.72358   3.72715   3.73842
 Alpha virt. eigenvalues --    3.73965   3.75217   3.75612   3.75741   3.76441
 Alpha virt. eigenvalues --    3.77275   3.78477   3.78908   3.79733   3.80048
 Alpha virt. eigenvalues --    3.80651   3.81819   3.82095   3.82345   3.83164
 Alpha virt. eigenvalues --    3.84284   3.84377   3.85539   3.86328   3.87021
 Alpha virt. eigenvalues --    3.87436   3.88747   3.89023   3.89409   3.89918
 Alpha virt. eigenvalues --    3.90210   3.90921   3.91972   3.92689   3.93586
 Alpha virt. eigenvalues --    3.93666   3.94204   3.94381   3.95862   3.96931
 Alpha virt. eigenvalues --    3.97655   3.97715   3.98352   3.98866   4.00170
 Alpha virt. eigenvalues --    4.00740   4.01201   4.01231   4.02642   4.03377
 Alpha virt. eigenvalues --    4.03748   4.04600   4.05139   4.05966   4.06297
 Alpha virt. eigenvalues --    4.08031   4.08396   4.09159   4.09772   4.10198
 Alpha virt. eigenvalues --    4.10933   4.11051   4.12155   4.12419   4.13295
 Alpha virt. eigenvalues --    4.13889   4.14735   4.15403   4.15719   4.15946
 Alpha virt. eigenvalues --    4.16860   4.18244   4.18563   4.19777   4.20456
 Alpha virt. eigenvalues --    4.21334   4.22035   4.22433   4.23192   4.23385
 Alpha virt. eigenvalues --    4.24289   4.24849   4.25589   4.26239   4.27007
 Alpha virt. eigenvalues --    4.28360   4.28577   4.29970   4.30488   4.32014
 Alpha virt. eigenvalues --    4.32329   4.32939   4.34845   4.35274   4.36026
 Alpha virt. eigenvalues --    4.36698   4.37547   4.37859   4.38653   4.40724
 Alpha virt. eigenvalues --    4.41500   4.41590   4.43442   4.44535   4.45062
 Alpha virt. eigenvalues --    4.46349   4.48188   4.49152   4.49256   4.50214
 Alpha virt. eigenvalues --    4.50715   4.52542   4.53191   4.56084   4.57418
 Alpha virt. eigenvalues --    4.58554   4.59243   4.60187   4.61717   4.62697
 Alpha virt. eigenvalues --    4.63312   4.64042   4.64109   4.64952   4.66364
 Alpha virt. eigenvalues --    4.67891   4.69272   4.71067   4.71235   4.72613
 Alpha virt. eigenvalues --    4.73691   4.74260   4.75987   4.77235   4.78374
 Alpha virt. eigenvalues --    4.80371   4.82018   4.82880   4.83120   4.83591
 Alpha virt. eigenvalues --    4.85693   4.86673   4.87574   4.88937   4.89497
 Alpha virt. eigenvalues --    4.90449   4.91380   4.92817   4.93278   4.93913
 Alpha virt. eigenvalues --    4.94581   4.96348   4.96784   4.97612   4.99638
 Alpha virt. eigenvalues --    5.00423   5.01229   5.03193   5.04054   5.04967
 Alpha virt. eigenvalues --    5.06131   5.07088   5.07744   5.08565   5.09093
 Alpha virt. eigenvalues --    5.09912   5.11274   5.12158   5.13945   5.13980
 Alpha virt. eigenvalues --    5.14483   5.15106   5.15862   5.17110   5.17390
 Alpha virt. eigenvalues --    5.17980   5.18241   5.19026   5.19526   5.21080
 Alpha virt. eigenvalues --    5.22270   5.22727   5.25213   5.25258   5.27243
 Alpha virt. eigenvalues --    5.27639   5.28898   5.29196   5.31640   5.31760
 Alpha virt. eigenvalues --    5.32295   5.33470   5.34614   5.35843   5.36805
 Alpha virt. eigenvalues --    5.37367   5.37804   5.38596   5.41359   5.42570
 Alpha virt. eigenvalues --    5.45009   5.45673   5.46717   5.48430   5.50913
 Alpha virt. eigenvalues --    5.51832   5.54925   5.55805   5.56209   5.58529
 Alpha virt. eigenvalues --    5.59726   5.60479   5.60864   5.62941   5.65947
 Alpha virt. eigenvalues --    5.66646   5.66847   5.70696   5.72190   5.75271
 Alpha virt. eigenvalues --    5.78023   5.81551   5.81992   5.84186   5.86443
 Alpha virt. eigenvalues --    5.91694   5.92166   5.92868   5.97225   5.98398
 Alpha virt. eigenvalues --    6.00248   6.05726   6.18547   6.22889   6.26744
 Alpha virt. eigenvalues --    6.29098   6.32455   6.36077   6.40128   6.44145
 Alpha virt. eigenvalues --    6.47305   6.52979   6.71414   6.81054   6.83556
 Alpha virt. eigenvalues --    6.87000   6.88887   6.90651   6.93619   6.94284
 Alpha virt. eigenvalues --    6.96738   6.98456   6.98711   6.99871   7.00044
 Alpha virt. eigenvalues --    7.04932   7.06979   7.10868   7.11480   7.17125
 Alpha virt. eigenvalues --    7.20615   7.21321   7.23838   7.24827   7.26621
 Alpha virt. eigenvalues --    7.29040   7.32896   7.34416   7.41377   7.44185
 Alpha virt. eigenvalues --    7.47383   7.67674   8.34978   8.44693   8.47654
 Alpha virt. eigenvalues --    8.54504   8.56572   8.59777   8.74908   8.81496
 Alpha virt. eigenvalues --    8.85506   8.88585   8.91423   8.91981   8.99212
 Alpha virt. eigenvalues --    8.99375   9.02748  15.84529  22.76846  22.91584
 Alpha virt. eigenvalues --   23.03064  23.10649  23.10815  23.21400  23.25481
 Alpha virt. eigenvalues --   23.28946  23.33743  23.35237  23.39392  23.42350
 Alpha virt. eigenvalues --   23.50629  23.53693  23.69856  23.81350  23.88419
 Alpha virt. eigenvalues --   24.02472  32.58428  33.09037  33.16906  44.17321
 Alpha virt. eigenvalues --   44.22666  57.29490  57.52984  57.54835
          Condensed to atoms (all electrons):
               1          2          3          4          5          6
     1  C    4.975693   0.298580  -0.066918  -0.010228  -0.000889  -0.000069
     2  C    0.298580   5.123984   0.426094  -0.080973   0.008208  -0.000388
     3  C   -0.066918   0.426094   5.072200   0.473223  -0.078110   0.003103
     4  C   -0.010228  -0.080973   0.473223   5.055371   0.425259  -0.056977
     5  C   -0.000889   0.008208  -0.078110   0.425259   5.074593   0.489199
     6  C   -0.000069  -0.000388   0.003103  -0.056977   0.489199   4.942235
     7  C   -0.000001  -0.000022  -0.000024   0.010451  -0.090711   0.549015
     8  C   -0.000013   0.000060  -0.003489   0.011534  -0.158378  -0.084235
     9  N    0.000008  -0.000415  -0.002297  -0.062062   0.376379  -0.099887
    10  B    0.001126   0.010639  -0.039771  -0.033986  -0.038464   0.005852
    11  F    0.000005  -0.000043  -0.002556   0.000389  -0.001583   0.000890
    12  F    0.000005   0.000114  -0.005547   0.002729  -0.007989   0.000180
    13  N    0.006614  -0.059013   0.383385  -0.069772   0.006673   0.000298
    14  C    0.006763  -0.080550  -0.114848   0.002401  -0.000589  -0.000113
    15  C   -0.001465  -0.003412   0.008736  -0.002411  -0.000480  -0.000028
    16  C    0.000021  -0.001727  -0.000760   0.000049  -0.000003   0.000007
    17  C   -0.000002   0.000224   0.000048   0.000005  -0.000008  -0.000000
    18  C   -0.000000  -0.000044  -0.000028  -0.000000  -0.000001  -0.000000
    19  C   -0.000000  -0.000003  -0.000001  -0.000000  -0.000000  -0.000000
    20  N    0.000000   0.000000   0.000000  -0.000000   0.000000   0.000000
    21  O   -0.000000  -0.000000  -0.000000   0.000000  -0.000000  -0.000000
    22  O    0.000000   0.000000  -0.000000   0.000000  -0.000000  -0.000000
    23  C   -0.000000  -0.000000  -0.000000   0.000000  -0.000000  -0.000000
    24  F   -0.000000  -0.000000  -0.000000   0.000000  -0.000000  -0.000000
    25  C    0.000000   0.000000   0.000000  -0.000000   0.000000  -0.000000
    26  C    0.000000  -0.000000   0.000009  -0.000001   0.000003  -0.000000
    27  C   -0.056635   0.516841  -0.123778   0.031204  -0.006887  -0.000095
    28  H    0.413758  -0.034492   0.020099  -0.000294   0.000138   0.000003
    29  H    0.423758  -0.038788  -0.013775  -0.001426  -0.000467  -0.000008
    30  H    0.422165  -0.042995  -0.009832  -0.001485  -0.000941  -0.000010
    31  H    0.001396  -0.001813   0.004326   0.332927   0.025485  -0.001822
    32  H    0.000007   0.000029   0.000061  -0.001314  -0.014134   0.398584
    33  H   -0.000000  -0.000000   0.000034  -0.000462   0.002185  -0.014638
    34  H   -0.000000  -0.000003   0.000244  -0.000902   0.012481   0.002278
    35  H    0.000069   0.003822  -0.000665   0.000005   0.000017   0.000000
    36  H   -0.000001   0.000180  -0.000177  -0.000057  -0.000080   0.000000
    37  H   -0.000000   0.000006   0.000005  -0.000000   0.000000   0.000000
    38  H    0.000000   0.000000   0.000000  -0.000000  -0.000000   0.000000
    39  H    0.000000   0.000000   0.000001  -0.000000   0.000001  -0.000000
    40  H   -0.000296   0.006439   0.003348  -0.000575   0.000086   0.000001
               7          8          9         10         11         12
     1  C   -0.000001  -0.000013   0.000008   0.001126   0.000005   0.000005
     2  C   -0.000022   0.000060  -0.000415   0.010639  -0.000043   0.000114
     3  C   -0.000024  -0.003489  -0.002297  -0.039771  -0.002556  -0.005547
     4  C    0.010451   0.011534  -0.062062  -0.033986   0.000389   0.002729
     5  C   -0.090711  -0.158378   0.376379  -0.038464  -0.001583  -0.007989
     6  C    0.549015  -0.084235  -0.099887   0.005852   0.000890   0.000180
     7  C    4.936891   0.559214  -0.103477  -0.005182  -0.001376  -0.000100
     8  C    0.559214   4.914231   0.455539  -0.022969  -0.000557  -0.004659
     9  N   -0.103477   0.455539   6.293541   0.352476  -0.043897  -0.032820
    10  B   -0.005182  -0.022969   0.352476   3.376781   0.347231   0.371794
    11  F   -0.001376  -0.000557  -0.043897   0.347231   9.147019  -0.034175
    12  F   -0.000100  -0.004659  -0.032820   0.371794  -0.034175   9.107824
    13  N   -0.000433   0.000758  -0.037517   0.345390  -0.047067  -0.042394
    14  C    0.000067  -0.000644   0.001061  -0.022549   0.008828  -0.010287
    15  C    0.000000  -0.000106   0.001240  -0.010024  -0.014920   0.017263
    16  C   -0.000002   0.000048  -0.001225   0.000894  -0.009994  -0.004339
    17  C   -0.000000   0.000005  -0.000066  -0.003554   0.000195  -0.004844
    18  C   -0.000000  -0.000000  -0.000001  -0.000993  -0.000067  -0.000164
    19  C   -0.000000   0.000000   0.000000   0.000062  -0.000002   0.000005
    20  N   -0.000000   0.000000  -0.000000  -0.000000  -0.000000  -0.000000
    21  O    0.000000   0.000000   0.000000  -0.000000   0.000000   0.000000
    22  O    0.000000   0.000000   0.000000  -0.000000  -0.000000  -0.000000
    23  C    0.000000  -0.000000   0.000000  -0.000000   0.000001   0.000000
    24  F    0.000000   0.000000   0.000000  -0.000000  -0.000000   0.000000
    25  C    0.000000   0.000000  -0.000000   0.000025   0.000013   0.000000
    26  C    0.000000  -0.000003   0.000005   0.000945   0.000122   0.000643
    27  C    0.000000  -0.000024  -0.000044  -0.002138   0.000954  -0.000129
    28  H   -0.000000   0.000000   0.000000  -0.000015  -0.000000  -0.000000
    29  H   -0.000000  -0.000001  -0.000009  -0.000001   0.000000  -0.000001
    30  H    0.000000  -0.000001  -0.000004   0.000013  -0.000001   0.000000
    31  H   -0.000121  -0.000144   0.003587   0.000873   0.000016   0.000039
    32  H   -0.011563   0.001885   0.004802   0.000631   0.000007   0.000008
    33  H    0.411926  -0.020686   0.003346  -0.000031  -0.000002   0.000010
    34  H   -0.013803   0.404361  -0.027006  -0.005374   0.000609   0.000023
    35  H    0.000000   0.000000  -0.000001   0.000860  -0.000116   0.000257
    36  H    0.000012  -0.000104  -0.000327  -0.008885   0.006384  -0.010703
    37  H    0.000000   0.000000  -0.000000  -0.000066  -0.000001  -0.000008
    38  H   -0.000000   0.000000  -0.000000  -0.000004  -0.000000  -0.000000
    39  H    0.000000  -0.000002   0.000001  -0.000097   0.000699  -0.000093
    40  H    0.000000   0.000000   0.000001   0.000178   0.000009   0.000000
              13         14         15         16         17         18
     1  C    0.006614   0.006763  -0.001465   0.000021  -0.000002  -0.000000
     2  C   -0.059013  -0.080550  -0.003412  -0.001727   0.000224  -0.000044
     3  C    0.383385  -0.114848   0.008736  -0.000760   0.000048  -0.000028
     4  C   -0.069772   0.002401  -0.002411   0.000049   0.000005  -0.000000
     5  C    0.006673  -0.000589  -0.000480  -0.000003  -0.000008  -0.000001
     6  C    0.000298  -0.000113  -0.000028   0.000007  -0.000000  -0.000000
     7  C   -0.000433   0.000067   0.000000  -0.000002  -0.000000  -0.000000
     8  C    0.000758  -0.000644  -0.000106   0.000048   0.000005  -0.000000
     9  N   -0.037517   0.001061   0.001240  -0.001225  -0.000066  -0.000001
    10  B    0.345390  -0.022549  -0.010024   0.000894  -0.003554  -0.000993
    11  F   -0.047067   0.008828  -0.014920  -0.009994   0.000195  -0.000067
    12  F   -0.042394  -0.010287   0.017263  -0.004339  -0.004844  -0.000164
    13  N    6.372713   0.451984  -0.087605  -0.003164   0.000575  -0.000089
    14  C    0.451984   5.000523   0.271037  -0.078695   0.013716  -0.005046
    15  C   -0.087605   0.271037   5.221065   0.496639  -0.055771  -0.037848
    16  C   -0.003164  -0.078695   0.496639   5.151271   0.307142  -0.075705
    17  C    0.000575   0.013716  -0.055771   0.307142   5.070359   0.317784
    18  C   -0.000089  -0.005046  -0.037848  -0.075705   0.317784   5.347501
    19  C   -0.000001  -0.001321  -0.006664   0.036388  -0.015469   0.194427
    20  N    0.000000   0.000016   0.000304  -0.000963   0.006315  -0.026718
    21  O   -0.000000  -0.000000  -0.000025   0.000050  -0.002571   0.003978
    22  O    0.000000  -0.000017  -0.000311   0.000126  -0.008741  -0.003536
    23  C    0.000000  -0.000174  -0.001918   0.001979  -0.095693   0.060407
    24  F   -0.000000  -0.000000  -0.000005   0.000018  -0.002936   0.007489
    25  C   -0.000002   0.000454   0.000650   0.008248   0.013065  -0.137459
    26  C    0.000114  -0.000491   0.011658  -0.096600   0.455120  -0.002379
    27  C   -0.121721   0.520513  -0.057219   0.007324  -0.001589   0.000387
    28  H   -0.000368   0.001332  -0.000154  -0.000007   0.000000  -0.000000
    29  H    0.000137  -0.000569   0.000071  -0.000002  -0.000000   0.000000
    30  H    0.000110  -0.000873   0.000036   0.000004   0.000000   0.000000
    31  H    0.002540   0.000187   0.000064  -0.000000   0.000000   0.000000
    32  H    0.000033   0.000002  -0.000000   0.000000   0.000000   0.000000
    33  H    0.000005  -0.000000  -0.000000   0.000000   0.000000   0.000000
    34  H   -0.000035  -0.000009  -0.000005  -0.000004   0.000003   0.000000
    35  H    0.004848   0.040634   0.347840  -0.016574  -0.012815   0.002945
    36  H    0.002206   0.006081  -0.040098   0.385786   0.005366   0.017056
    37  H    0.000006   0.002238   0.005013  -0.014931   0.023247   0.358416
    38  H   -0.000000   0.000002   0.000058  -0.000384   0.005214  -0.001904
    39  H    0.000033  -0.000012  -0.000422  -0.008664  -0.018947   0.015077
    40  H    0.003879  -0.008855  -0.002470   0.000581   0.000004   0.000042
              19         20         21         22         23         24
     1  C   -0.000000   0.000000  -0.000000   0.000000  -0.000000  -0.000000
     2  C   -0.000003   0.000000  -0.000000   0.000000  -0.000000  -0.000000
     3  C   -0.000001   0.000000  -0.000000  -0.000000  -0.000000  -0.000000
     4  C   -0.000000  -0.000000   0.000000   0.000000   0.000000   0.000000
     5  C   -0.000000   0.000000  -0.000000  -0.000000  -0.000000  -0.000000
     6  C   -0.000000   0.000000  -0.000000  -0.000000  -0.000000  -0.000000
     7  C   -0.000000  -0.000000   0.000000   0.000000   0.000000   0.000000
     8  C    0.000000   0.000000   0.000000   0.000000  -0.000000   0.000000
     9  N    0.000000  -0.000000   0.000000   0.000000   0.000000   0.000000
    10  B    0.000062  -0.000000  -0.000000  -0.000000  -0.000000  -0.000000
    11  F   -0.000002  -0.000000   0.000000  -0.000000   0.000001  -0.000000
    12  F    0.000005  -0.000000   0.000000  -0.000000   0.000000   0.000000
    13  N   -0.000001   0.000000  -0.000000   0.000000   0.000000  -0.000000
    14  C   -0.001321   0.000016  -0.000000  -0.000017  -0.000174  -0.000000
    15  C   -0.006664   0.000304  -0.000025  -0.000311  -0.001918  -0.000005
    16  C    0.036388  -0.000963   0.000050   0.000126   0.001979   0.000018
    17  C   -0.015469   0.006315  -0.002571  -0.008741  -0.095693  -0.002936
    18  C    0.194427  -0.026718   0.003978  -0.003536   0.060407   0.007489
    19  C    5.602617   0.303021  -0.085019  -0.103324   0.278319  -0.075132
    20  N    0.303021   5.532484   0.363173   0.360542  -0.017198  -0.000035
    21  O   -0.085019   0.363173   8.192411  -0.123937   0.014442  -0.016106
    22  O   -0.103324   0.360542  -0.123937   8.211569   0.012846  -0.000076
    23  C    0.278319  -0.017198   0.014442   0.012846   4.762277   0.304637
    24  F   -0.075132  -0.000035  -0.016106  -0.000076   0.304637   8.994791
    25  C    0.013590   0.004594   0.000704  -0.001707   0.486967  -0.055112
    26  C   -0.075929  -0.000180   0.000318   0.001447  -0.013838   0.011116
    27  C    0.000018  -0.000000   0.000000  -0.000001   0.000000   0.000000
    28  H   -0.000000   0.000000  -0.000000  -0.000000  -0.000000  -0.000000
    29  H    0.000000  -0.000000   0.000000   0.000000  -0.000000   0.000000
    30  H   -0.000000   0.000000   0.000000  -0.000000   0.000000  -0.000000
    31  H    0.000000  -0.000000   0.000000   0.000000   0.000000   0.000000
    32  H    0.000000   0.000000  -0.000000  -0.000000  -0.000000  -0.000000
    33  H   -0.000000   0.000000  -0.000000  -0.000000   0.000000  -0.000000
    34  H   -0.000000   0.000000   0.000000   0.000000   0.000000  -0.000000
    35  H    0.000001   0.000102  -0.000004   0.000104  -0.000050  -0.000000
    36  H   -0.001073   0.000001   0.000000   0.000005   0.000457   0.000001
    37  H   -0.013545  -0.004966   0.001145   0.020826   0.000393   0.000047
    38  H    0.014697  -0.000075   0.000036   0.000003  -0.041880   0.002199
    39  H   -0.002643   0.000006   0.000000   0.000005   0.003430  -0.000081
    40  H    0.000001  -0.000000  -0.000000  -0.000000  -0.000000   0.000000
              25         26         27         28         29         30
     1  C    0.000000   0.000000  -0.056635   0.413758   0.423758   0.422165
     2  C    0.000000  -0.000000   0.516841  -0.034492  -0.038788  -0.042995
     3  C    0.000000   0.000009  -0.123778   0.020099  -0.013775  -0.009832
     4  C   -0.000000  -0.000001   0.031204  -0.000294  -0.001426  -0.001485
     5  C    0.000000   0.000003  -0.006887   0.000138  -0.000467  -0.000941
     6  C   -0.000000  -0.000000  -0.000095   0.000003  -0.000008  -0.000010
     7  C    0.000000   0.000000   0.000000  -0.000000  -0.000000   0.000000
     8  C    0.000000  -0.000003  -0.000024   0.000000  -0.000001  -0.000001
     9  N   -0.000000   0.000005  -0.000044   0.000000  -0.000009  -0.000004
    10  B    0.000025   0.000945  -0.002138  -0.000015  -0.000001   0.000013
    11  F    0.000013   0.000122   0.000954  -0.000000   0.000000  -0.000001
    12  F    0.000000   0.000643  -0.000129  -0.000000  -0.000001   0.000000
    13  N   -0.000002   0.000114  -0.121721  -0.000368   0.000137   0.000110
    14  C    0.000454  -0.000491   0.520513   0.001332  -0.000569  -0.000873
    15  C    0.000650   0.011658  -0.057219  -0.000154   0.000071   0.000036
    16  C    0.008248  -0.096600   0.007324  -0.000007  -0.000002   0.000004
    17  C    0.013065   0.455120  -0.001589   0.000000  -0.000000   0.000000
    18  C   -0.137459  -0.002379   0.000387  -0.000000   0.000000   0.000000
    19  C    0.013590  -0.075929   0.000018  -0.000000   0.000000  -0.000000
    20  N    0.004594  -0.000180  -0.000000   0.000000  -0.000000   0.000000
    21  O    0.000704   0.000318   0.000000  -0.000000   0.000000   0.000000
    22  O   -0.001707   0.001447  -0.000001  -0.000000   0.000000  -0.000000
    23  C    0.486967  -0.013838   0.000000  -0.000000  -0.000000   0.000000
    24  F   -0.055112   0.011116   0.000000  -0.000000   0.000000  -0.000000
    25  C    5.038071   0.393722  -0.000001  -0.000000   0.000000  -0.000000
    26  C    0.393722   5.042713  -0.000011  -0.000000  -0.000000   0.000000
    27  C   -0.000001  -0.000011   5.000945  -0.022047   0.004888   0.006003
    28  H   -0.000000  -0.000000  -0.022047   0.530167  -0.018917  -0.018184
    29  H    0.000000  -0.000000   0.004888  -0.018917   0.523656  -0.031253
    30  H   -0.000000   0.000000   0.006003  -0.018184  -0.031253   0.519681
    31  H   -0.000000  -0.000000  -0.000008   0.000104  -0.001555  -0.001135
    32  H    0.000000  -0.000000  -0.000006   0.000000  -0.000001  -0.000002
    33  H    0.000000  -0.000000   0.000000  -0.000000  -0.000000  -0.000000
    34  H   -0.000000  -0.000001   0.000002   0.000000  -0.000000  -0.000000
    35  H    0.000007   0.000727  -0.011761   0.000002   0.000001  -0.000001
    36  H   -0.000824  -0.010142  -0.000330  -0.000000   0.000000   0.000000
    37  H   -0.001415   0.006525   0.000101   0.000000  -0.000000   0.000000
    38  H    0.418058  -0.024973   0.000000   0.000000  -0.000000  -0.000000
    39  H   -0.013703   0.392747  -0.000001   0.000000  -0.000000   0.000000
    40  H    0.000000  -0.000002   0.377059   0.001465  -0.000076  -0.000009
              31         32         33         34         35         36
     1  C    0.001396   0.000007  -0.000000  -0.000000   0.000069  -0.000001
     2  C   -0.001813   0.000029  -0.000000  -0.000003   0.003822   0.000180
     3  C    0.004326   0.000061   0.000034   0.000244  -0.000665  -0.000177
     4  C    0.332927  -0.001314  -0.000462  -0.000902   0.000005  -0.000057
     5  C    0.025485  -0.014134   0.002185   0.012481   0.000017  -0.000080
     6  C   -0.001822   0.398584  -0.014638   0.002278   0.000000   0.000000
     7  C   -0.000121  -0.011563   0.411926  -0.013803   0.000000   0.000012
     8  C   -0.000144   0.001885  -0.020686   0.404361   0.000000  -0.000104
     9  N    0.003587   0.004802   0.003346  -0.027006  -0.000001  -0.000327
    10  B    0.000873   0.000631  -0.000031  -0.005374   0.000860  -0.008885
    11  F    0.000016   0.000007  -0.000002   0.000609  -0.000116   0.006384
    12  F    0.000039   0.000008   0.000010   0.000023   0.000257  -0.010703
    13  N    0.002540   0.000033   0.000005  -0.000035   0.004848   0.002206
    14  C    0.000187   0.000002  -0.000000  -0.000009   0.040634   0.006081
    15  C    0.000064  -0.000000  -0.000000  -0.000005   0.347840  -0.040098
    16  C   -0.000000   0.000000   0.000000  -0.000004  -0.016574   0.385786
    17  C    0.000000   0.000000   0.000000   0.000003  -0.012815   0.005366
    18  C    0.000000   0.000000   0.000000   0.000000   0.002945   0.017056
    19  C    0.000000   0.000000  -0.000000  -0.000000   0.000001  -0.001073
    20  N   -0.000000   0.000000   0.000000   0.000000   0.000102   0.000001
    21  O    0.000000  -0.000000  -0.000000   0.000000  -0.000004   0.000000
    22  O    0.000000  -0.000000  -0.000000   0.000000   0.000104   0.000005
    23  C    0.000000  -0.000000   0.000000   0.000000  -0.000050   0.000457
    24  F    0.000000  -0.000000  -0.000000  -0.000000  -0.000000   0.000001
    25  C   -0.000000   0.000000   0.000000  -0.000000   0.000007  -0.000824
    26  C   -0.000000  -0.000000  -0.000000  -0.000001   0.000727  -0.010142
    27  C   -0.000008  -0.000006   0.000000   0.000002  -0.011761  -0.000330
    28  H    0.000104   0.000000  -0.000000   0.000000   0.000002  -0.000000
    29  H   -0.001555  -0.000001  -0.000000  -0.000000   0.000001   0.000000
    30  H   -0.001135  -0.000002  -0.000000  -0.000000  -0.000001   0.000000
    31  H    0.458330   0.001634  -0.000001   0.000002  -0.000001   0.000000
    32  H    0.001634   0.432895   0.000035  -0.000162  -0.000000   0.000000
    33  H   -0.000001   0.000035   0.439936   0.000451  -0.000000   0.000000
    34  H    0.000002  -0.000162   0.000451   0.445582  -0.000000  -0.000002
    35  H   -0.000001  -0.000000  -0.000000  -0.000000   0.525244   0.002346
    36  H    0.000000   0.000000   0.000000  -0.000002   0.002346   0.500609
    37  H   -0.000000   0.000000   0.000000   0.000000   0.004133   0.000185
    38  H    0.000000   0.000000  -0.000000  -0.000000   0.000001  -0.000019
    39  H   -0.000000  -0.000000   0.000000   0.000001   0.000008   0.006290
    40  H   -0.000014  -0.000000  -0.000000  -0.000000   0.000675   0.000001
              37         38         39         40
     1  C   -0.000000   0.000000   0.000000  -0.000296
     2  C    0.000006   0.000000   0.000000   0.006439
     3  C    0.000005   0.000000   0.000001   0.003348
     4  C   -0.000000  -0.000000  -0.000000  -0.000575
     5  C    0.000000  -0.000000   0.000001   0.000086
     6  C    0.000000   0.000000  -0.000000   0.000001
     7  C    0.000000  -0.000000   0.000000   0.000000
     8  C    0.000000   0.000000  -0.000002   0.000000
     9  N   -0.000000  -0.000000   0.000001   0.000001
    10  B   -0.000066  -0.000004  -0.000097   0.000178
    11  F   -0.000001  -0.000000   0.000699   0.000009
    12  F   -0.000008  -0.000000  -0.000093   0.000000
    13  N    0.000006  -0.000000   0.000033   0.003879
    14  C    0.002238   0.000002  -0.000012  -0.008855
    15  C    0.005013   0.000058  -0.000422  -0.002470
    16  C   -0.014931  -0.000384  -0.008664   0.000581
    17  C    0.023247   0.005214  -0.018947   0.000004
    18  C    0.358416  -0.001904   0.015077   0.000042
    19  C   -0.013545   0.014697  -0.002643   0.000001
    20  N   -0.004966  -0.000075   0.000006  -0.000000
    21  O    0.001145   0.000036   0.000000  -0.000000
    22  O    0.020826   0.000003   0.000005  -0.000000
    23  C    0.000393  -0.041880   0.003430  -0.000000
    24  F    0.000047   0.002199  -0.000081   0.000000
    25  C   -0.001415   0.418058  -0.013703   0.000000
    26  C    0.006525  -0.024973   0.392747  -0.000002
    27  C    0.000101   0.000000  -0.000001   0.377059
    28  H    0.000000   0.000000   0.000000   0.001465
    29  H   -0.000000  -0.000000  -0.000000  -0.000076
    30  H    0.000000  -0.000000   0.000000  -0.000009
    31  H   -0.000000   0.000000  -0.000000  -0.000014
    32  H    0.000000   0.000000  -0.000000  -0.000000
    33  H    0.000000  -0.000000   0.000000  -0.000000
    34  H    0.000000  -0.000000   0.000001  -0.000000
    35  H    0.004133   0.000001   0.000008   0.000675
    36  H    0.000185  -0.000019   0.006290   0.000001
    37  H    0.425089   0.000003  -0.000048   0.000064
    38  H    0.000003   0.458355  -0.002116   0.000000
    39  H   -0.000048  -0.002116   0.468256  -0.000000
    40  H    0.000064   0.000000  -0.000000   0.446966
 Mulliken charges:
               1
     1  C   -0.413449
     2  C   -0.050541
     3  C    0.067662
     4  C   -0.022621
     5  C   -0.020991
     6  C   -0.133374
     7  C   -0.240763
     8  C   -0.051619
     9  N   -0.080929
    10  B    0.378333
    11  F   -0.357015
    12  F   -0.342643
    13  N   -0.113123
    14  C   -0.002195
    15  C   -0.058314
    16  C   -0.082829
    17  C    0.004622
    18  C   -0.033527
    19  C   -0.063021
    20  N    0.479580
    21  O   -0.348595
    22  O   -0.365822
    23  C    0.244597
    24  F   -0.170816
    25  C   -0.167948
    26  C   -0.093386
    27  C   -0.061813
    28  H    0.127413
    29  H    0.154339
    30  H    0.158714
    31  H    0.175103
    32  H    0.186570
    33  H    0.177894
    34  H    0.181271
    35  H    0.107340
    36  H    0.139856
    37  H    0.187537
    38  H    0.172731
    39  H    0.160277
    40  H    0.171498
 Sum of Mulliken charges =  -0.00000
 Mulliken charges with hydrogens summed into heavy atoms:
               1
     1  C    0.027016
     2  C   -0.050541
     3  C    0.067662
     4  C    0.152482
     5  C   -0.020991
     6  C    0.053196
     7  C   -0.062869
     8  C    0.129653
     9  N   -0.080929
    10  B    0.378333
    11  F   -0.357015
    12  F   -0.342643
    13  N   -0.113123
    14  C   -0.002195
    15  C    0.049026
    16  C    0.057026
    17  C    0.004622
    18  C    0.154010
    19  C   -0.063021
    20  N    0.479580
    21  O   -0.348595
    22  O   -0.365822
    23  C    0.244597
    24  F   -0.170816
    25  C    0.004782
    26  C    0.066891
    27  C    0.109685
 Electronic spatial extent (au):  <R**2>=          13940.9569
 Charge=             -0.0000 electrons
 Dipole moment (field-independent basis, Debye):
    X=              9.0382    Y=              1.1741    Z=             -1.5765  Tot=              9.2495
 Quadrupole moment (field-independent basis, Debye-Ang):
   XX=           -163.2428   YY=           -130.5318   ZZ=           -161.5594
   XY=             28.6824   XZ=              4.3061   YZ=             -1.8145
 Traceless Quadrupole moment (field-independent basis, Debye-Ang):
   XX=            -11.4648   YY=             21.2462   ZZ=             -9.7814
   XY=             28.6824   XZ=              4.3061   YZ=             -1.8145
 Octapole moment (field-independent basis, Debye-Ang**2):
  XXX=            574.3592  YYY=            -23.0240  ZZZ=              3.3835  XYY=             54.6259
  XXY=            -75.3278  XXZ=            -20.4868  XZZ=            -45.1460  YZZ=              0.8226
  YYZ=             -9.5363  XYZ=             -2.3755
 Hexadecapole moment (field-independent basis, Debye-Ang**3):
 XXXX=         -16128.3417 YYYY=          -2710.8514 ZZZZ=           -319.7708 XXXY=            589.9427
 XXXZ=            110.4178 YYYX=            181.7303 YYYZ=            -19.4742 ZZZX=            -29.7502
 ZZZY=             11.5576 XXYY=          -2754.3719 XXZZ=          -2598.3836 YYZZ=           -603.8364
 XXYZ=            -88.5538 YYXZ=             59.4983 ZZXY=             31.7915
 N-N= 2.293812618967D+03 E-N=-7.707044943623D+03  KE= 1.326225070195D+03
 No NMR shielding tensors so no spin-rotation constants.
 Leave Link  601 at Fri Nov  7 11:12:47 2025, MaxMem= 30870077440 cpu:              89.5 elap:               1.7
 (Enter /public/software/gauss/g16/l9999.exe)
 1\1\GINC-CU015\SP\RM062X\def2TZVPP\C18H13B1F3N3O2\BAIDING\07-Nov-2025\
 0\\#p M062X/DEF2TZVPP scrf=(solvent=water) em=GD3\\Energy calculation 
 for M100035783\\0,1\C,0,-3.70908,3.997094,0.275724\C,0,-2.832487,2.788
 334,0.196465\C,0,-3.272879,1.430172,0.12662\C,0,-4.568963,0.942287,0.0
 69444\C,0,-4.834729,-0.42061,-0.064432\C,0,-6.048375,-1.142164,-0.1422
 35\C,0,-5.712871,-2.488388,-0.277226\C,0,-4.308763,-2.560987,-0.279818
 \N,0,-3.780621,-1.325437,-0.153446\B,0,-2.268849,-0.969271,-0.1002\F,0
 ,-1.692346,-1.638442,0.991108\F,0,-1.639774,-1.371418,-1.279062\N,0,-2
 .156939,0.582596,0.07791\C,0,-1.045805,1.376722,0.104872\C,0,0.34801,0
 .998543,0.072504\C,0,0.902361,-0.221305,0.265992\C,0,2.331741,-0.52677
 3,0.218544\C,0,3.324096,0.429279,-0.039414\C,0,4.670506,0.071178,-0.06
 4362\N,0,5.651774,1.115923,-0.324133\O,0,6.842541,0.882886,-0.101149\O
 ,0,5.244128,2.201098,-0.752114\C,0,5.05225,-1.26253,0.161239\F,0,6.331
 512,-1.648333,0.118637\C,0,4.083122,-2.224151,0.410002\C,0,2.743581,-1
 .857944,0.443604\C,0,-1.452587,2.738995,0.168002\H,0,-3.106589,4.90815
 8,0.2874\H,0,-4.393486,4.050679,-0.577866\H,0,-4.324809,3.98369,1.1818
 94\H,0,-5.397274,1.640913,0.119229\H,0,-7.036422,-0.704253,-0.10094\H,
 0,-6.385687,-3.329781,-0.365326\H,0,-3.674548,-3.432969,-0.365839\H,0,
 0.996867,1.85285,-0.103482\H,0,0.268001,-1.066772,0.502781\H,0,3.07513
 6,1.466779,-0.219762\H,0,4.396252,-3.249232,0.572363\H,0,1.993815,-2.6
 16935,0.64324\H,0,-0.769168,3.577021,0.201783\\Version=ES64L-G16RevA.0
 3\State=1-A\HF=-1332.9264522\RMSD=6.028e-09\Dipole=-3.5558982,0.461915
 3,0.6202483\Quadrupole=-8.5238067,15.7960591,-7.2722525,-21.3246638,3.
 2014802,1.3490214\PG=C01 [X(C18H13B1F3N3O2)]\\@


 I KNOW YOU BELIEVE YOU UNDERSTAND WHAT YOU THINK I SAID,
 BUT I AM NOT SURE YOU REALIZE THAT WHAT YOU HEARD IS NOT WHAT I MEANT.
 Job cpu time:       0 days  6 hours  4 minutes 55.9 seconds.
 Elapsed time:       0 days  0 hours  5 minutes 47.9 seconds.
 File lengths (MBytes):  RWF=    721 Int=      0 D2E=      0 Chk=     62 Scr=      1
 Normal termination of Gaussian 16 at Fri Nov  7 11:12:48 2025.
