 Entering Gaussian System, Link 0=g16
 Input=M100039985_reduced_sp.gjf
 Output=M100039985_reduced_sp.log
 Initial command:
 /public/software/gauss/g16/l1.exe "/public/home/baiding/1101_v2_sp/tmp_M100039985_reduced_sp_1568608/Gau-51072.inp" -scrdir="/public/home/baiding/1101_v2_sp/tmp_M100039985_reduced_sp_1568608/"
 Entering Link 1 = /public/software/gauss/g16/l1.exe PID=     51073.
  
 Copyright (c) 1988,1990,1992,1993,1995,1998,2003,2009,2016,
            Gaussian, Inc.  All Rights Reserved.
  
 This is part of the Gaussian(R) 16 program.  It is based on
 the Gaussian(R) 09 system (copyright 2009, Gaussian, Inc.),
 the Gaussian(R) 03 system (copyright 2003, Gaussian, Inc.),
 the Gaussian(R) 98 system (copyright 1998, Gaussian, Inc.),
 the Gaussian(R) 94 system (copyright 1995, Gaussian, Inc.),
 the Gaussian 92(TM) system (copyright 1992, Gaussian, Inc.),
 the Gaussian 90(TM) system (copyright 1990, Gaussian, Inc.),
 the Gaussian 88(TM) system (copyright 1988, Gaussian, Inc.),
 the Gaussian 86(TM) system (copyright 1986, Carnegie Mellon
 University), and the Gaussian 82(TM) system (copyright 1983,
 Carnegie Mellon University). Gaussian is a federally registered
 trademark of Gaussian, Inc.
  
 This software contains proprietary and confidential information,
 including trade secrets, belonging to Gaussian, Inc.
  
 This software is provided under written license and may be
 used, copied, transmitted, or stored only in accord with that
 written license.
  
 The following legend is applicable only to US Government
 contracts under FAR:
  
                    RESTRICTED RIGHTS LEGEND
  
 Use, reproduction and disclosure by the US Government is
 subject to restrictions as set forth in subparagraphs (a)
 and (c) of the Commercial Computer Software - Restricted
 Rights clause in FAR 52.227-19.
  
 Gaussian, Inc.
 340 Quinnipiac St., Bldg. 40, Wallingford CT 06492
  
  
 ---------------------------------------------------------------
 Warning -- This program may not be used in any manner that
 competes with the business of Gaussian, Inc. or will provide
 assistance to any competitor of Gaussian, Inc.  The licensee
 of this program is prohibited from giving any competitor of
 Gaussian, Inc. access to this program.  By using this program,
 the user acknowledges that Gaussian, Inc. is engaged in the
 business of creating and licensing software in the field of
 computational chemistry and represents and warrants to the
 licensee that it is not a competitor of Gaussian, Inc. and that
 it will not use this program in any manner prohibited above.
 ---------------------------------------------------------------
  

 Cite this work as:
 Gaussian 16, Revision A.03,
 M. J. Frisch, G. W. Trucks, H. B. Schlegel, G. E. Scuseria, 
 M. A. Robb, J. R. Cheeseman, G. Scalmani, V. Barone, 
 G. A. Petersson, H. Nakatsuji, X. Li, M. Caricato, A. V. Marenich, 
 J. Bloino, B. G. Janesko, R. Gomperts, B. Mennucci, H. P. Hratchian, 
 J. V. Ortiz, A. F. Izmaylov, J. L. Sonnenberg, D. Williams-Young, 
 F. Ding, F. Lipparini, F. Egidi, J. Goings, B. Peng, A. Petrone, 
 T. Henderson, D. Ranasinghe, V. G. Zakrzewski, J. Gao, N. Rega, 
 G. Zheng, W. Liang, M. Hada, M. Ehara, K. Toyota, R. Fukuda, 
 J. Hasegawa, M. Ishida, T. Nakajima, Y. Honda, O. Kitao, H. Nakai, 
 T. Vreven, K. Throssell, J. A. Montgomery, Jr., J. E. Peralta, 
 F. Ogliaro, M. J. Bearpark, J. J. Heyd, E. N. Brothers, K. N. Kudin, 
 V. N. Staroverov, T. A. Keith, R. Kobayashi, J. Normand, 
 K. Raghavachari, A. P. Rendell, J. C. Burant, S. S. Iyengar, 
 J. Tomasi, M. Cossi, J. M. Millam, M. Klene, C. Adamo, R. Cammi, 
 J. W. Ochterski, R. L. Martin, K. Morokuma, O. Farkas, 
 J. B. Foresman, and D. J. Fox, Gaussian, Inc., Wallingford CT, 2016.
 
 ******************************************
 Gaussian 16:  ES64L-G16RevA.03 25-Dec-2016
                 7-Nov-2025 
 ******************************************
 %nprocshared=64
 Will use up to   64 processors via shared memory.
 %mem=230GB
 %chk=M100039985_reduced_sp.chk
 ----------------------------------------------
 #p M062X/DEF2TZVPP scrf=(solvent=water) em=GD3
 ----------------------------------------------
 1/38=1,172=1/1;
 2/12=2,17=6,18=5,40=1/2;
 3/5=44,7=202,11=2,25=1,30=1,70=2201,72=1,74=-55,124=31/1,2,3;
 4//1;
 5/5=2,38=5,53=1/2;
 6/7=2,8=2,9=2,10=2,28=1/1;
 99/5=1,9=1/99;
 Leave Link    1 at Fri Nov  7 18:45:00 2025, MaxMem= 30870077440 cpu:              12.4 elap:               0.2
 (Enter /public/software/gauss/g16/l101.exe)
 -----------------------------------------
 Energy calculation for M100039985_reduced
 -----------------------------------------
 Symbolic Z-matrix:
 Charge = -1 Multiplicity = 2
 C                    -0.90646  -9.88791  -0.22081 
 O                    -0.11134  -9.07112   0.64332 
 C                    -0.13597  -7.71363   0.44438 
 C                     0.65155  -6.95088   1.31944 
 C                     0.69232  -5.56815   1.19788 
 C                    -0.0448   -4.89371   0.20138 
 C                    -0.82567  -5.68034  -0.66287 
 C                    -0.87966  -7.07111  -0.55179 
 C                     0.00002  -3.41949   0.07242 
 C                    -1.19972  -2.66227   0.0095 
 C                    -2.54788  -3.0646    0.09151 
 C                    -3.35344  -1.92118  -0.02282 
 C                    -2.47742  -0.80527  -0.14178 
 C                    -2.72984   0.61156  -0.21881 
 C                    -3.84465   1.26382   0.20368 
 C                    -4.0865    2.69813   0.09597 
 C                    -5.2455    3.2369    0.69583 
 C                    -5.53143   4.5955    0.63393 
 C                    -4.66132   5.45997  -0.03861 
 C                    -3.50572   4.94882  -0.64425 
 C                    -3.22572   3.59074  -0.58222 
 C                    -4.93333   6.93149  -0.06476 
 F                    -4.43562   7.52798  -1.17486 
 F                    -4.37674   7.5802    0.99403 
 F                    -6.25807   7.21203  -0.0235 
 N                    -1.17457  -1.28423  -0.12862 
 B                     0.10106  -0.41275  -0.04979 
 F                     0.13727   0.44113  -1.18102 
 F                     0.07818   0.38405   1.10902 
 N                     1.33314  -1.34759  -0.05245 
 C                     2.67851  -0.99299  -0.09643 
 C                     3.26036   0.31796  -0.02591 
 C                     2.71114   1.55892  -0.15759 
 C                     3.43717   2.81517  -0.01584 
 C                     4.79709   2.9112    0.36206 
 C                     5.42825   4.14244   0.46981 
 C                     4.72289   5.32481   0.20683 
 C                     3.375     5.25775  -0.16134 
 C                     2.74826   4.0225   -0.2704 
 C                     5.39405   6.64965   0.38561 
 F                     5.33308   7.09306   1.67127 
 F                     4.83396   7.62053  -0.37482 
 F                     6.71114   6.60683   0.06756 
 C                     3.4466   -2.19704  -0.08275 
 C                     2.54887  -3.26609  -0.00633 
 C                     1.24344  -2.73676   0.01754 
 C                     4.90724  -2.34368  -0.15696 
 C                     5.54625  -3.34349   0.60592 
 C                     6.92038  -3.52903   0.53098 
 C                     7.70161  -2.71989  -0.30998 
 C                     9.15075  -2.93127  -0.37038 
 O                     9.92722  -2.2852   -1.07215 
 C                     7.07535  -1.72734  -1.08346 
 C                     5.70216  -1.54639  -1.01218 
 C                    -4.82353  -1.97124  -0.09441 
 C                    -5.55006  -1.23169  -1.04921 
 C                    -6.931    -1.34888  -1.13628 
 C                    -7.62958  -2.21195  -0.27539 
 C                    -9.08675  -2.31637  -0.38609 
 O                    -9.79674  -3.03369   0.31749 
 C                    -6.91355  -2.96095   0.67447 
 C                    -5.53465  -2.84268   0.76028 
 H                    -0.74646  -10.915    0.10974 
 H                    -1.97033  -9.64056  -0.13615 
 H                    -0.5909   -9.7893   -1.26524 
 H                     1.21608  -7.4582    2.09562 
 H                     1.29218  -4.99516   1.89745 
 H                    -1.39151  -5.20001  -1.45459 
 H                    -1.48905  -7.63632  -1.24655 
 H                    -2.90044  -4.0821    0.17065 
 H                    -1.9113    1.19117  -0.63356 
 H                    -4.63988   0.70236   0.68549 
 H                    -5.92747   2.57096   1.21664 
 H                    -6.43053   4.9825    1.10164 
 H                    -2.83246   5.61459  -1.17388 
 H                    -2.33423   3.21834  -1.07544 
 H                     4.32839   0.27102   0.16602 
 H                     1.66509   1.66215  -0.41257 
 H                     5.36866   2.01469   0.57719 
 H                     6.47352   4.18832   0.7576 
 H                     2.82041   6.1671   -0.36715 
 H                     1.70285   3.97987  -0.56223 
 H                     2.80191  -4.31553  -0.01941 
 H                     4.9534   -3.96197   1.27187 
 H                     7.40094  -4.29792   1.13028 
 H                     9.53116  -3.7427    0.27986 
 H                     7.67696  -1.11462  -1.74743 
 H                     5.22837  -0.80301  -1.64349 
 H                    -5.02106  -0.57442  -1.73017 
 H                    -7.47975  -0.77906  -1.88177 
 H                    -9.54107  -1.68504  -1.17422 
 H                    -7.45256  -3.62731   1.34063 
 H                    -4.98896  -3.41661   1.50251 
 
 ITRead=  0  0  0  0  0  0  0  0  0  0  0  0  0  0  0  0  0  0  0  0
 ITRead=  0  0  0  0  0  0  0  0  0  0  0  0  0  0  0  0  0  0  0  0
 ITRead=  0  0  0  0  0  0  0  0  0  0  0  0  0  0  0  0  0  0  0  0
 ITRead=  0  0  0  0  0  0  0  0  0  0  0  0  0  0  0  0  0  0  0  0
 ITRead=  0  0  0  0  0  0  0  0  0  0  0  0  0
 MicOpt= -1 -1 -1 -1 -1 -1 -1 -1 -1 -1 -1 -1 -1 -1 -1 -1 -1 -1 -1 -1
 MicOpt= -1 -1 -1 -1 -1 -1 -1 -1 -1 -1 -1 -1 -1 -1 -1 -1 -1 -1 -1 -1
 MicOpt= -1 -1 -1 -1 -1 -1 -1 -1 -1 -1 -1 -1 -1 -1 -1 -1 -1 -1 -1 -1
 MicOpt= -1 -1 -1 -1 -1 -1 -1 -1 -1 -1 -1 -1 -1 -1 -1 -1 -1 -1 -1 -1
 MicOpt= -1 -1 -1 -1 -1 -1 -1 -1 -1 -1 -1 -1 -1
 NAtoms=     93 NQM=       93 NQMF=       0 NMMI=      0 NMMIF=      0
                NMic=       0 NMicF=      0.
                    Isotopes and Nuclear Properties:
 (Nuclear quadrupole moments (NQMom) in fm**2, nuclear magnetic moments (NMagM)
  in nuclear magnetons)

  Atom         1           2           3           4           5           6           7           8           9          10
 IAtWgt=          12          16          12          12          12          12          12          12          12          12
 AtmWgt=  12.0000000  15.9949146  12.0000000  12.0000000  12.0000000  12.0000000  12.0000000  12.0000000  12.0000000  12.0000000
 NucSpn=           0           0           0           0           0           0           0           0           0           0
 AtZEff=  -0.0000000  -0.0000000  -0.0000000  -0.0000000  -0.0000000  -0.0000000  -0.0000000  -0.0000000  -0.0000000  -0.0000000
 NQMom=    0.0000000   0.0000000   0.0000000   0.0000000   0.0000000   0.0000000   0.0000000   0.0000000   0.0000000   0.0000000
 NMagM=    0.0000000   0.0000000   0.0000000   0.0000000   0.0000000   0.0000000   0.0000000   0.0000000   0.0000000   0.0000000
 AtZNuc=   6.0000000   8.0000000   6.0000000   6.0000000   6.0000000   6.0000000   6.0000000   6.0000000   6.0000000   6.0000000

  Atom        11          12          13          14          15          16          17          18          19          20
 IAtWgt=          12          12          12          12          12          12          12          12          12          12
 AtmWgt=  12.0000000  12.0000000  12.0000000  12.0000000  12.0000000  12.0000000  12.0000000  12.0000000  12.0000000  12.0000000
 NucSpn=           0           0           0           0           0           0           0           0           0           0
 AtZEff=  -0.0000000  -0.0000000  -0.0000000  -0.0000000  -0.0000000  -0.0000000  -0.0000000  -0.0000000  -0.0000000  -0.0000000
 NQMom=    0.0000000   0.0000000   0.0000000   0.0000000   0.0000000   0.0000000   0.0000000   0.0000000   0.0000000   0.0000000
 NMagM=    0.0000000   0.0000000   0.0000000   0.0000000   0.0000000   0.0000000   0.0000000   0.0000000   0.0000000   0.0000000
 AtZNuc=   6.0000000   6.0000000   6.0000000   6.0000000   6.0000000   6.0000000   6.0000000   6.0000000   6.0000000   6.0000000

  Atom        21          22          23          24          25          26          27          28          29          30
 IAtWgt=          12          12          19          19          19          14          11          19          19          14
 AtmWgt=  12.0000000  12.0000000  18.9984033  18.9984033  18.9984033  14.0030740  11.0093053  18.9984033  18.9984033  14.0030740
 NucSpn=           0           0           1           1           1           2           3           1           1           2
 AtZEff=  -0.0000000  -0.0000000  -0.0000000  -0.0000000  -0.0000000  -0.0000000  -0.0000000  -0.0000000  -0.0000000  -0.0000000
 NQMom=    0.0000000   0.0000000   0.0000000   0.0000000   0.0000000   2.0440000   4.0590000   0.0000000   0.0000000   2.0440000
 NMagM=    0.0000000   0.0000000   2.6288670   2.6288670   2.6288670   0.4037610   2.6886370   2.6288670   2.6288670   0.4037610
 AtZNuc=   6.0000000   6.0000000   9.0000000   9.0000000   9.0000000   7.0000000   5.0000000   9.0000000   9.0000000   7.0000000

  Atom        31          32          33          34          35          36          37          38          39          40
 IAtWgt=          12          12          12          12          12          12          12          12          12          12
 AtmWgt=  12.0000000  12.0000000  12.0000000  12.0000000  12.0000000  12.0000000  12.0000000  12.0000000  12.0000000  12.0000000
 NucSpn=           0           0           0           0           0           0           0           0           0           0
 AtZEff=  -0.0000000  -0.0000000  -0.0000000  -0.0000000  -0.0000000  -0.0000000  -0.0000000  -0.0000000  -0.0000000  -0.0000000
 NQMom=    0.0000000   0.0000000   0.0000000   0.0000000   0.0000000   0.0000000   0.0000000   0.0000000   0.0000000   0.0000000
 NMagM=    0.0000000   0.0000000   0.0000000   0.0000000   0.0000000   0.0000000   0.0000000   0.0000000   0.0000000   0.0000000
 AtZNuc=   6.0000000   6.0000000   6.0000000   6.0000000   6.0000000   6.0000000   6.0000000   6.0000000   6.0000000   6.0000000

  Atom        41          42          43          44          45          46          47          48          49          50
 IAtWgt=          19          19          19          12          12          12          12          12          12          12
 AtmWgt=  18.9984033  18.9984033  18.9984033  12.0000000  12.0000000  12.0000000  12.0000000  12.0000000  12.0000000  12.0000000
 NucSpn=           1           1           1           0           0           0           0           0           0           0
 AtZEff=  -0.0000000  -0.0000000  -0.0000000  -0.0000000  -0.0000000  -0.0000000  -0.0000000  -0.0000000  -0.0000000  -0.0000000
 NQMom=    0.0000000   0.0000000   0.0000000   0.0000000   0.0000000   0.0000000   0.0000000   0.0000000   0.0000000   0.0000000
 NMagM=    2.6288670   2.6288670   2.6288670   0.0000000   0.0000000   0.0000000   0.0000000   0.0000000   0.0000000   0.0000000
 AtZNuc=   9.0000000   9.0000000   9.0000000   6.0000000   6.0000000   6.0000000   6.0000000   6.0000000   6.0000000   6.0000000

  Atom        51          52          53          54          55          56          57          58          59          60
 IAtWgt=          12          16          12          12          12          12          12          12          12          16
 AtmWgt=  12.0000000  15.9949146  12.0000000  12.0000000  12.0000000  12.0000000  12.0000000  12.0000000  12.0000000  15.9949146
 NucSpn=           0           0           0           0           0           0           0           0           0           0
 AtZEff=  -0.0000000  -0.0000000  -0.0000000  -0.0000000  -0.0000000  -0.0000000  -0.0000000  -0.0000000  -0.0000000  -0.0000000
 NQMom=    0.0000000   0.0000000   0.0000000   0.0000000   0.0000000   0.0000000   0.0000000   0.0000000   0.0000000   0.0000000
 NMagM=    0.0000000   0.0000000   0.0000000   0.0000000   0.0000000   0.0000000   0.0000000   0.0000000   0.0000000   0.0000000
 AtZNuc=   6.0000000   8.0000000   6.0000000   6.0000000   6.0000000   6.0000000   6.0000000   6.0000000   6.0000000   8.0000000

  Atom        61          62          63          64          65          66          67          68          69          70
 IAtWgt=          12          12           1           1           1           1           1           1           1           1
 AtmWgt=  12.0000000  12.0000000   1.0078250   1.0078250   1.0078250   1.0078250   1.0078250   1.0078250   1.0078250   1.0078250
 NucSpn=           0           0           1           1           1           1           1           1           1           1
 AtZEff=  -0.0000000  -0.0000000  -0.0000000  -0.0000000  -0.0000000  -0.0000000  -0.0000000  -0.0000000  -0.0000000  -0.0000000
 NQMom=    0.0000000   0.0000000   0.0000000   0.0000000   0.0000000   0.0000000   0.0000000   0.0000000   0.0000000   0.0000000
 NMagM=    0.0000000   0.0000000   2.7928460   2.7928460   2.7928460   2.7928460   2.7928460   2.7928460   2.7928460   2.7928460
 AtZNuc=   6.0000000   6.0000000   1.0000000   1.0000000   1.0000000   1.0000000   1.0000000   1.0000000   1.0000000   1.0000000

  Atom        71          72          73          74          75          76          77          78          79          80
 IAtWgt=           1           1           1           1           1           1           1           1           1           1
 AtmWgt=   1.0078250   1.0078250   1.0078250   1.0078250   1.0078250   1.0078250   1.0078250   1.0078250   1.0078250   1.0078250
 NucSpn=           1           1           1           1           1           1           1           1           1           1
 AtZEff=  -0.0000000  -0.0000000  -0.0000000  -0.0000000  -0.0000000  -0.0000000  -0.0000000  -0.0000000  -0.0000000  -0.0000000
 NQMom=    0.0000000   0.0000000   0.0000000   0.0000000   0.0000000   0.0000000   0.0000000   0.0000000   0.0000000   0.0000000
 NMagM=    2.7928460   2.7928460   2.7928460   2.7928460   2.7928460   2.7928460   2.7928460   2.7928460   2.7928460   2.7928460
 AtZNuc=   1.0000000   1.0000000   1.0000000   1.0000000   1.0000000   1.0000000   1.0000000   1.0000000   1.0000000   1.0000000

  Atom        81          82          83          84          85          86          87          88          89          90
 IAtWgt=           1           1           1           1           1           1           1           1           1           1
 AtmWgt=   1.0078250   1.0078250   1.0078250   1.0078250   1.0078250   1.0078250   1.0078250   1.0078250   1.0078250   1.0078250
 NucSpn=           1           1           1           1           1           1           1           1           1           1
 AtZEff=  -0.0000000  -0.0000000  -0.0000000  -0.0000000  -0.0000000  -0.0000000  -0.0000000  -0.0000000  -0.0000000  -0.0000000
 NQMom=    0.0000000   0.0000000   0.0000000   0.0000000   0.0000000   0.0000000   0.0000000   0.0000000   0.0000000   0.0000000
 NMagM=    2.7928460   2.7928460   2.7928460   2.7928460   2.7928460   2.7928460   2.7928460   2.7928460   2.7928460   2.7928460
 AtZNuc=   1.0000000   1.0000000   1.0000000   1.0000000   1.0000000   1.0000000   1.0000000   1.0000000   1.0000000   1.0000000

  Atom        91          92          93
 IAtWgt=           1           1           1
 AtmWgt=   1.0078250   1.0078250   1.0078250
 NucSpn=           1           1           1
 AtZEff=  -0.0000000  -0.0000000  -0.0000000
 NQMom=    0.0000000   0.0000000   0.0000000
 NMagM=    2.7928460   2.7928460   2.7928460
 AtZNuc=   1.0000000   1.0000000   1.0000000
 Leave Link  101 at Fri Nov  7 18:45:00 2025, MaxMem= 30870077440 cpu:               7.3 elap:               0.1
 (Enter /public/software/gauss/g16/l202.exe)
 Stoichiometry    C48H31BF8N2O3(1-,2)
 Framework group  C1[X(C48H31BF8N2O3)]
 Deg. of freedom   273
 Full point group                 C1      NOp   1
 Largest Abelian subgroup         C1      NOp   1
 Largest concise Abelian subgroup C1      NOp   1
                         Standard orientation:                         
 ---------------------------------------------------------------------
 Center     Atomic      Atomic             Coordinates (Angstroms)
 Number     Number       Type             X           Y           Z
 ---------------------------------------------------------------------
      1          6           0       -0.906455   -9.887908   -0.220806
      2          8           0       -0.111335   -9.071120    0.643318
      3          6           0       -0.135970   -7.713630    0.444376
      4          6           0        0.651546   -6.950884    1.319441
      5          6           0        0.692319   -5.568151    1.197876
      6          6           0       -0.044800   -4.893714    0.201384
      7          6           0       -0.825667   -5.680345   -0.662867
      8          6           0       -0.879661   -7.071111   -0.551787
      9          6           0        0.000024   -3.419494    0.072424
     10          6           0       -1.199720   -2.662266    0.009501
     11          6           0       -2.547878   -3.064604    0.091511
     12          6           0       -3.353442   -1.921180   -0.022816
     13          6           0       -2.477417   -0.805268   -0.141777
     14          6           0       -2.729837    0.611562   -0.218811
     15          6           0       -3.844649    1.263818    0.203680
     16          6           0       -4.086498    2.698131    0.095973
     17          6           0       -5.245497    3.236902    0.695825
     18          6           0       -5.531425    4.595497    0.633931
     19          6           0       -4.661319    5.459970   -0.038610
     20          6           0       -3.505718    4.948824   -0.644250
     21          6           0       -3.225721    3.590739   -0.582218
     22          6           0       -4.933330    6.931491   -0.064761
     23          9           0       -4.435625    7.527978   -1.174858
     24          9           0       -4.376741    7.580195    0.994025
     25          9           0       -6.258065    7.212027   -0.023502
     26          7           0       -1.174571   -1.284229   -0.128620
     27          5           0        0.101063   -0.412753   -0.049790
     28          9           0        0.137270    0.441126   -1.181019
     29          9           0        0.078184    0.384053    1.109017
     30          7           0        1.333136   -1.347586   -0.052445
     31          6           0        2.678511   -0.992994   -0.096430
     32          6           0        3.260359    0.317959   -0.025910
     33          6           0        2.711137    1.558921   -0.157593
     34          6           0        3.437171    2.815170   -0.015842
     35          6           0        4.797094    2.911203    0.362057
     36          6           0        5.428249    4.142437    0.469813
     37          6           0        4.722887    5.324811    0.206825
     38          6           0        3.374998    5.257751   -0.161340
     39          6           0        2.748258    4.022501   -0.270397
     40          6           0        5.394055    6.649653    0.385608
     41          9           0        5.333081    7.093063    1.671268
     42          9           0        4.833955    7.620525   -0.374815
     43          9           0        6.711137    6.606827    0.067558
     44          6           0        3.446595   -2.197041   -0.082754
     45          6           0        2.548871   -3.266089   -0.006329
     46          6           0        1.243435   -2.736759    0.017541
     47          6           0        4.907242   -2.343678   -0.156956
     48          6           0        5.546253   -3.343494    0.605923
     49          6           0        6.920382   -3.529031    0.530975
     50          6           0        7.701609   -2.719890   -0.309979
     51          6           0        9.150748   -2.931274   -0.370381
     52          8           0        9.927222   -2.285202   -1.072147
     53          6           0        7.075348   -1.727342   -1.083456
     54          6           0        5.702155   -1.546392   -1.012176
     55          6           0       -4.823528   -1.971243   -0.094408
     56          6           0       -5.550055   -1.231691   -1.049213
     57          6           0       -6.930996   -1.348881   -1.136275
     58          6           0       -7.629584   -2.211952   -0.275387
     59          6           0       -9.086747   -2.316365   -0.386086
     60          8           0       -9.796741   -3.033695    0.317487
     61          6           0       -6.913553   -2.960946    0.674466
     62          6           0       -5.534645   -2.842684    0.760277
     63          1           0       -0.746461  -10.914999    0.109737
     64          1           0       -1.970326   -9.640559   -0.136153
     65          1           0       -0.590900   -9.789299   -1.265239
     66          1           0        1.216081   -7.458201    2.095623
     67          1           0        1.292184   -4.995155    1.897447
     68          1           0       -1.391506   -5.200009   -1.454586
     69          1           0       -1.489048   -7.636319   -1.246554
     70          1           0       -2.900436   -4.082102    0.170649
     71          1           0       -1.911296    1.191173   -0.633562
     72          1           0       -4.639879    0.702362    0.685494
     73          1           0       -5.927466    2.570961    1.216643
     74          1           0       -6.430533    4.982504    1.101637
     75          1           0       -2.832459    5.614591   -1.173882
     76          1           0       -2.334234    3.218336   -1.075444
     77          1           0        4.328389    0.271017    0.166024
     78          1           0        1.665092    1.662147   -0.412572
     79          1           0        5.368659    2.014689    0.577186
     80          1           0        6.473517    4.188320    0.757599
     81          1           0        2.820410    6.167097   -0.367149
     82          1           0        1.702852    3.979866   -0.562230
     83          1           0        2.801906   -4.315531   -0.019414
     84          1           0        4.953403   -3.961968    1.271866
     85          1           0        7.400937   -4.297924    1.130284
     86          1           0        9.531163   -3.742695    0.279857
     87          1           0        7.676955   -1.114620   -1.747425
     88          1           0        5.228369   -0.803014   -1.643492
     89          1           0       -5.021058   -0.574419   -1.730168
     90          1           0       -7.479755   -0.779061   -1.881771
     91          1           0       -9.541073   -1.685042   -1.174216
     92          1           0       -7.452562   -3.627313    1.340626
     93          1           0       -4.988955   -3.416613    1.502509
 ---------------------------------------------------------------------
 Rotational constants (GHZ):           0.0276496           0.0253895           0.0135051
 Leave Link  202 at Fri Nov  7 18:45:00 2025, MaxMem= 30870077440 cpu:               0.2 elap:               0.0
 (Enter /public/software/gauss/g16/l301.exe)
 Standard basis: def2TZVPP (5D, 7F)
 Ernie: Thresh=  0.10000D-02 Tol=  0.10000D-05 Strict=F.
 There are  2697 symmetry adapted cartesian basis functions of A   symmetry.
 There are  2356 symmetry adapted basis functions of A   symmetry.
  2356 basis functions,  3689 primitive gaussians,  2697 cartesian basis functions
   218 alpha electrons      217 beta electrons
       nuclear repulsion energy      8088.5625440222 Hartrees.
 IExCor= 4336 DFT=T Ex+Corr=M062X ExCW=0 ScaHFX=  0.540000
 ScaDFX=  1.000000  1.000000  1.000000  1.000000 ScalE2=  1.000000  1.000000
 IRadAn=      5 IRanWt=     -1 IRanGd=            0 ICorTp=0 IEmpDi=131
 NAtoms=   93 NActive=   93 NUniq=   93 SFac= 1.00D+00 NAtFMM=   60 NAOKFM=T Big=T
 Integral buffers will be    131072 words long.
 Raffenetti 2 integral format.
 Two-electron integral symmetry is turned on.
 R6Disp:  Grimme-D3 Dispersion energy=       -0.0086033402 Hartrees.
 Nuclear repulsion after empirical dispersion term =     8088.5539406820 Hartrees.
 ------------------------------------------------------------------------------
 Polarizable Continuum Model (PCM)
 =================================
 Model                : PCM.
 Atomic radii         : UFF (Universal Force Field).
 Polarization charges : Total charges.
 Charge compensation  : None.
 Solution method      : On-the-fly selection.
 Cavity type          : Scaled VdW (van der Waals Surface) (Alpha=1.100).
 Cavity algorithm     : GePol (No added spheres)
                        Default sphere list used, NSphG=   93.
                        Lebedev-Laikov grids with approx.  5.0 points / Ang**2.
                        Smoothing algorithm: York/Karplus (Gamma=1.0000).
                        Polarization charges: spherical gaussians, with
                                              point-specific exponents (IZeta= 3).
                        Self-potential: point-specific (ISelfS= 7).
                        Self-field    : sphere-specific E.n sum rule (ISelfD= 2).
 Solvent              : Water, Eps=  78.355300 Eps(inf)=   1.777849
 ------------------------------------------------------------------------------
 GePol: Number of generator spheres                  =      93
 GePol: Total number of spheres                      =      93
 GePol: Number of exposed spheres                    =      93 (100.00%)
 GePol: Number of points                             =    7033
 GePol: Average weight of points                     =       0.13
 GePol: Minimum weight of points                     =   0.25D-10
 GePol: Maximum weight of points                     =    0.20577
 GePol: Number of points with low weight             =     385
 GePol: Fraction of low-weight points (<1% of avg)   =       5.47%
 GePol: Cavity surface area                          =    894.457 Ang**2
 GePol: Cavity volume                                =   1033.939 Ang**3
 Leave Link  301 at Fri Nov  7 18:45:00 2025, MaxMem= 30870077440 cpu:               4.4 elap:               0.1
 (Enter /public/software/gauss/g16/l302.exe)
 NPDir=0 NMtPBC=     1 NCelOv=     1 NCel=       1 NClECP=     1 NCelD=      1
         NCelK=      1 NCelE2=     1 NClLst=     1 CellRange=     0.0.
 One-electron integrals computed using PRISM.
 One-electron integral symmetry used in STVInt
   1 Symmetry operations used in ECPInt.
 ECPInt:  NShTT=  377146 NPrTT= 1109273 LenC2=  208874 LenP2D=  396257.
 LDataN:  DoStor=T MaxTD1= 6 Len=  172
 NBasis=  2356 RedAO= T EigKep=  5.21D-06  NBF=  2356
 NBsUse=  2356 1.00D-06 EigRej= -1.00D+00 NBFU=  2356
 Precomputing XC quadrature grid using
 IXCGrd= 4 IRadAn=           5 IRanWt=          -1 IRanGd=           0 AccXCQ= 0.00D+00.
 Generated NRdTot=       0 NPtTot=           0 NUsed=           0 NTot=          32
 NSgBfM=  2277  2264  2276  2277  2277 MxSgAt=    93 MxSgA2=    93.
 Leave Link  302 at Fri Nov  7 18:45:17 2025, MaxMem= 30870077440 cpu:            1091.9 elap:              17.2
 (Enter /public/software/gauss/g16/l303.exe)
 DipDrv:  MaxL=1.
 Leave Link  303 at Fri Nov  7 18:45:18 2025, MaxMem= 30870077440 cpu:              42.0 elap:               0.7
 (Enter /public/software/gauss/g16/l401.exe)
 ExpMin= 6.06D-02 ExpMax= 3.55D+04 ExpMxC= 1.21D+03 IAcc=3 IRadAn=         5 AccDes= 0.00D+00
 Harris functional with IExCor= 1009 and IRadAn=       5 diagonalized for initial guess.
 HarFok:  IExCor= 1009 AccDes= 0.00D+00 IRadAn=         5 IDoV= 1 UseB2=F ITyADJ=14
 ICtDFT=  3500011 ScaDFX=  1.000000  1.000000  1.000000  1.000000
 FoFCou: FMM=F IPFlag=           0 FMFlag=      100000 FMFlg1=        2001
         NFxFlg=           0 DoJE=T BraDBF=F KetDBF=T FulRan=T
         wScrn=  0.000000 ICntrl=       500 IOpCl=  0 I1Cent=   200000004 NGrid=           0
         NMat0=    1 NMatS0=      1 NMatT0=    0 NMatD0=    1 NMtDS0=    0 NMtDT0=    0
 Petite list used in FoFCou.
 Harris En= -3005.34871412585    
 JPrj=0 DoOrth=F DoCkMO=F.
 Initial guess <Sx>= 0.0000 <Sy>= 0.0000 <Sz>= 0.5000 <S**2>= 0.7500 S= 0.5000
 Leave Link  401 at Fri Nov  7 18:45:35 2025, MaxMem= 30870077440 cpu:            1086.1 elap:              17.1
 (Enter /public/software/gauss/g16/l502.exe)
 Integral symmetry usage will be decided dynamically.
 UHF open shell SCF:
 Using DIIS extrapolation, IDIIS=  1040.
 NGot= 30870077440 LenX= 30855334753 LenY= 30848058247
 Requested convergence on RMS density matrix=1.00D-08 within 128 cycles.
 Requested convergence on MAX density matrix=1.00D-06.
 Requested convergence on             energy=1.00D-06.
 No special actions if energy rises.
 Fock matrices will be formed incrementally for  20 cycles.

 Cycle   1  Pass 1  IDiag  1:
 FoFJK:  IHMeth= 1 ICntrl=       0 DoSepK=F KAlg= 0 I1Cent=           0 FoldK=F
 IRaf= 500000000 NMat=       1 IRICut=       1 DoRegI=T DoRafI=F ISym2E= 0 IDoP0=0 IntGTp=1.
 FoFCou: FMM=T IPFlag=           0 FMFlag=      100000 FMFlg1=        2001
         NFxFlg=           0 DoJE=F BraDBF=F KetDBF=F FulRan=T
         wScrn=  0.000000 ICntrl=         0 IOpCl=  1 I1Cent=           0 NGrid=           0
         NMat0=    1 NMatS0=      1 NMatT0=    0 NMatD0=    1 NMtDS0=    0 NMtDT0=    0
 Symmetry not used in FoFCou.
 FMM levels:  10  Number of levels for PrismC:   9
 Inv3:  Mode=1 IEnd=   148389267.
 Iteration    1 A*A^-1 deviation from unit magnitude is 1.08D-14 for   7015.
 Iteration    1 A*A^-1 deviation from orthogonality  is 5.27D-15 for   7015   2090.
 Iteration    1 A^-1*A deviation from unit magnitude is 1.08D-14 for   7015.
 Iteration    1 A^-1*A deviation from orthogonality  is 3.46D-15 for   5707   5493.
 E= -3005.72591767932    
 DIIS: error= 2.20D-02 at cycle   1 NSaved=   1.
 NSaved= 1 IEnMin= 1 EnMin= -3005.72591767932     IErMin= 1 ErrMin= 2.20D-02
 ErrMax= 2.20D-02  0.00D+00 EMaxC= 1.00D-01 BMatC= 6.65D+00 BMatP= 6.65D+00
 IDIUse=3 WtCom= 7.80D-01 WtEn= 2.20D-01
 Coeff-Com:  0.100D+01
 Coeff-En:   0.100D+01
 Coeff:      0.100D+01
 Gap=     0.118 Goal=   None    Shift=    0.000
 Gap=     0.137 Goal=   None    Shift=    0.000
 GapD=    0.118 DampG=1.000 DampE=0.500 DampFc=0.5000 IDamp=-1.
 Damping current iteration by 5.00D-01
 RMSDP=1.66D-03 MaxDP=5.30D-01              OVMax= 1.89D-01

 Cycle   2  Pass 1  IDiag  1:
 RMSU=  8.32D-04    CP:  9.95D-01
 E= -3006.35615069641     Delta-E=       -0.630233017089 Rises=F Damp=T
 DIIS: error= 4.24D-03 at cycle   2 NSaved=   2.
 NSaved= 2 IEnMin= 2 EnMin= -3006.35615069641     IErMin= 2 ErrMin= 4.24D-03
 ErrMax= 4.24D-03  0.00D+00 EMaxC= 1.00D-01 BMatC= 6.73D-01 BMatP= 6.65D+00
 IDIUse=3 WtCom= 9.58D-01 WtEn= 4.24D-02
 Coeff-Com: -0.155D+00 0.116D+01
 Coeff-En:   0.000D+00 0.100D+01
 Coeff:     -0.149D+00 0.115D+01
 Gap=     0.114 Goal=   None    Shift=    0.000
 Gap=     0.146 Goal=   None    Shift=    0.000
 RMSDP=6.07D-04 MaxDP=1.21D-01 DE=-6.30D-01 OVMax= 1.03D-01

 Cycle   3  Pass 1  IDiag  1:
 RMSU=  6.03D-04    CP:  9.76D-01  9.93D-01
 E= -3006.91014164398     Delta-E=       -0.553990947565 Rises=F Damp=F
 DIIS: error= 4.93D-03 at cycle   3 NSaved=   3.
 NSaved= 3 IEnMin= 3 EnMin= -3006.91014164398     IErMin= 2 ErrMin= 4.24D-03
 ErrMax= 4.93D-03  0.00D+00 EMaxC= 1.00D-01 BMatC= 2.82D-01 BMatP= 6.73D-01
 IDIUse=3 WtCom= 9.51D-01 WtEn= 4.93D-02
 Coeff-Com: -0.144D+00 0.490D+00 0.653D+00
 Coeff-En:   0.000D+00 0.000D+00 0.100D+01
 Coeff:     -0.137D+00 0.466D+00 0.670D+00
 Gap=     0.123 Goal=   None    Shift=    0.000
 Gap=     0.143 Goal=   None    Shift=    0.000
 RMSDP=1.76D-04 MaxDP=6.39D-02 DE=-5.54D-01 OVMax= 5.15D-02

 Cycle   4  Pass 1  IDiag  1:
 RMSU=  1.63D-04    CP:  9.78D-01  1.04D+00  9.19D-01
 E= -3006.95399648853     Delta-E=       -0.043854844556 Rises=F Damp=F
 DIIS: error= 1.83D-03 at cycle   4 NSaved=   4.
 NSaved= 4 IEnMin= 4 EnMin= -3006.95399648853     IErMin= 4 ErrMin= 1.83D-03
 ErrMax= 1.83D-03  0.00D+00 EMaxC= 1.00D-01 BMatC= 4.95D-02 BMatP= 2.82D-01
 IDIUse=3 WtCom= 9.82D-01 WtEn= 1.83D-02
 Coeff-Com: -0.516D-01 0.125D+00 0.349D+00 0.577D+00
 Coeff-En:   0.000D+00 0.000D+00 0.113D+00 0.887D+00
 Coeff:     -0.507D-01 0.123D+00 0.345D+00 0.583D+00
 Gap=     0.122 Goal=   None    Shift=    0.000
 Gap=     0.145 Goal=   None    Shift=    0.000
 RMSDP=7.37D-05 MaxDP=3.28D-02 DE=-4.39D-02 OVMax= 1.51D-02

 Cycle   5  Pass 1  IDiag  1:
 RMSU=  4.90D-05    CP:  9.76D-01  1.02D+00  9.49D-01  7.02D-01
 E= -3006.96361702524     Delta-E=       -0.009620536704 Rises=F Damp=F
 DIIS: error= 4.32D-04 at cycle   5 NSaved=   5.
 NSaved= 5 IEnMin= 5 EnMin= -3006.96361702524     IErMin= 5 ErrMin= 4.32D-04
 ErrMax= 4.32D-04  0.00D+00 EMaxC= 1.00D-01 BMatC= 2.45D-03 BMatP= 4.95D-02
 IDIUse=3 WtCom= 9.96D-01 WtEn= 4.32D-03
 Coeff-Com: -0.149D-01 0.283D-01 0.120D+00 0.268D+00 0.599D+00
 Coeff-En:   0.000D+00 0.000D+00 0.000D+00 0.000D+00 0.100D+01
 Coeff:     -0.149D-01 0.282D-01 0.119D+00 0.267D+00 0.601D+00
 Gap=     0.123 Goal=   None    Shift=    0.000
 Gap=     0.147 Goal=   None    Shift=    0.000
 RMSDP=1.78D-05 MaxDP=4.51D-03 DE=-9.62D-03 OVMax= 5.49D-03

 Cycle   6  Pass 1  IDiag  1:
 RMSU=  1.66D-05    CP:  9.76D-01  1.03D+00  9.43D-01  7.12D-01  1.02D+00
 E= -3006.96420519106     Delta-E=       -0.000588165820 Rises=F Damp=F
 DIIS: error= 1.34D-04 at cycle   6 NSaved=   6.
 NSaved= 6 IEnMin= 6 EnMin= -3006.96420519106     IErMin= 6 ErrMin= 1.34D-04
 ErrMax= 1.34D-04  0.00D+00 EMaxC= 1.00D-01 BMatC= 2.06D-04 BMatP= 2.45D-03
 IDIUse=3 WtCom= 9.99D-01 WtEn= 1.34D-03
 Coeff-Com: -0.855D-04-0.201D-02 0.569D-02 0.275D-01 0.205D+00 0.763D+00
 Coeff-En:   0.000D+00 0.000D+00 0.000D+00 0.000D+00 0.000D+00 0.100D+01
 Coeff:     -0.854D-04-0.201D-02 0.568D-02 0.275D-01 0.205D+00 0.764D+00
 Gap=     0.124 Goal=   None    Shift=    0.000
 Gap=     0.148 Goal=   None    Shift=    0.000
 RMSDP=1.13D-05 MaxDP=2.85D-03 DE=-5.88D-04 OVMax= 6.90D-03

 Cycle   7  Pass 1  IDiag  1:
 RMSU=  7.55D-06    CP:  9.76D-01  1.03D+00  9.46D-01  7.21D-01  1.16D+00
                    CP:  1.20D+00
 E= -3006.96432452138     Delta-E=       -0.000119330320 Rises=F Damp=F
 DIIS: error= 5.24D-05 at cycle   7 NSaved=   7.
 NSaved= 7 IEnMin= 7 EnMin= -3006.96432452138     IErMin= 7 ErrMin= 5.24D-05
 ErrMax= 5.24D-05  0.00D+00 EMaxC= 1.00D-01 BMatC= 4.80D-05 BMatP= 2.06D-04
 IDIUse=1 WtCom= 1.00D+00 WtEn= 0.00D+00
 Coeff-Com:  0.359D-02-0.757D-02-0.273D-01-0.586D-01-0.878D-01 0.191D+00
 Coeff-Com:  0.987D+00
 Coeff:      0.359D-02-0.757D-02-0.273D-01-0.586D-01-0.878D-01 0.191D+00
 Coeff:      0.987D+00
 Gap=     0.125 Goal=   None    Shift=    0.000
 Gap=     0.149 Goal=   None    Shift=    0.000
 RMSDP=9.62D-06 MaxDP=2.57D-03 DE=-1.19D-04 OVMax= 5.66D-03

 Cycle   8  Pass 1  IDiag  1:
 RMSU=  3.72D-06    CP:  9.76D-01  1.02D+00  9.48D-01  7.27D-01  1.28D+00
                    CP:  1.48D+00  1.58D+00
 E= -3006.96437999434     Delta-E=       -0.000055472969 Rises=F Damp=F
 DIIS: error= 3.14D-05 at cycle   8 NSaved=   8.
 NSaved= 8 IEnMin= 8 EnMin= -3006.96437999434     IErMin= 8 ErrMin= 3.14D-05
 ErrMax= 3.14D-05  0.00D+00 EMaxC= 1.00D-01 BMatC= 1.69D-05 BMatP= 4.80D-05
 IDIUse=1 WtCom= 1.00D+00 WtEn= 0.00D+00
 Coeff-Com:  0.153D-02-0.267D-02-0.126D-01-0.318D-01-0.887D-01-0.107D+00
 Coeff-Com:  0.431D+00 0.810D+00
 Coeff:      0.153D-02-0.267D-02-0.126D-01-0.318D-01-0.887D-01-0.107D+00
 Coeff:      0.431D+00 0.810D+00
 Gap=     0.126 Goal=   None    Shift=    0.000
 Gap=     0.150 Goal=   None    Shift=    0.000
 RMSDP=4.49D-06 MaxDP=1.03D-03 DE=-5.55D-05 OVMax= 2.52D-03

 Cycle   9  Pass 1  IDiag  1:
 RMSU=  1.83D-06    CP:  9.76D-01  1.02D+00  9.48D-01  7.32D-01  1.32D+00
                    CP:  1.60D+00  1.91D+00  1.35D+00
 E= -3006.96439556269     Delta-E=       -0.000015568345 Rises=F Damp=F
 DIIS: error= 1.63D-05 at cycle   9 NSaved=   9.
 NSaved= 9 IEnMin= 9 EnMin= -3006.96439556269     IErMin= 9 ErrMin= 1.63D-05
 ErrMax= 1.63D-05  0.00D+00 EMaxC= 1.00D-01 BMatC= 3.99D-06 BMatP= 1.69D-05
 IDIUse=1 WtCom= 1.00D+00 WtEn= 0.00D+00
 Coeff-Com: -0.577D-03 0.146D-02 0.407D-02 0.658D-02-0.796D-02-0.988D-01
 Coeff-Com: -0.150D+00 0.311D+00 0.935D+00
 Coeff:     -0.577D-03 0.146D-02 0.407D-02 0.658D-02-0.796D-02-0.988D-01
 Coeff:     -0.150D+00 0.311D+00 0.935D+00
 Gap=     0.126 Goal=   None    Shift=    0.000
 Gap=     0.150 Goal=   None    Shift=    0.000
 RMSDP=2.74D-06 MaxDP=5.66D-04 DE=-1.56D-05 OVMax= 1.59D-03

 Cycle  10  Pass 1  IDiag  1:
 RMSU=  1.02D-06    CP:  9.76D-01  1.02D+00  9.49D-01  7.34D-01  1.34D+00
                    CP:  1.66D+00  2.11D+00  1.75D+00  1.35D+00
 E= -3006.96439964321     Delta-E=       -0.000004080517 Rises=F Damp=F
 DIIS: error= 7.66D-06 at cycle  10 NSaved=  10.
 NSaved=10 IEnMin=10 EnMin= -3006.96439964321     IErMin=10 ErrMin= 7.66D-06
 ErrMax= 7.66D-06  0.00D+00 EMaxC= 1.00D-01 BMatC= 8.67D-07 BMatP= 3.99D-06
 IDIUse=1 WtCom= 1.00D+00 WtEn= 0.00D+00
 Coeff-Com: -0.487D-03 0.102D-02 0.375D-02 0.838D-02 0.116D-01-0.229D-01
 Coeff-Com: -0.132D+00-0.488D-02 0.395D+00 0.741D+00
 Coeff:     -0.487D-03 0.102D-02 0.375D-02 0.838D-02 0.116D-01-0.229D-01
 Coeff:     -0.132D+00-0.488D-02 0.395D+00 0.741D+00
 Gap=     0.126 Goal=   None    Shift=    0.000
 Gap=     0.151 Goal=   None    Shift=    0.000
 RMSDP=7.45D-07 MaxDP=1.50D-04 DE=-4.08D-06 OVMax= 5.28D-04

 Cycle  11  Pass 1  IDiag  1:
 RMSU=  4.24D-07    CP:  9.76D-01  1.02D+00  9.49D-01  7.35D-01  1.34D+00
                    CP:  1.67D+00  2.14D+00  1.82D+00  1.57D+00  1.19D+00
 E= -3006.96440031207     Delta-E=       -0.000000668859 Rises=F Damp=F
 DIIS: error= 3.27D-06 at cycle  11 NSaved=  11.
 NSaved=11 IEnMin=11 EnMin= -3006.96440031207     IErMin=11 ErrMin= 3.27D-06
 ErrMax= 3.27D-06  0.00D+00 EMaxC= 1.00D-01 BMatC= 2.07D-07 BMatP= 8.67D-07
 IDIUse=1 WtCom= 1.00D+00 WtEn= 0.00D+00
 Coeff-Com: -0.624D-04 0.907D-04 0.518D-03 0.183D-02 0.564D-02 0.960D-02
 Coeff-Com: -0.188D-01-0.630D-01-0.449D-01 0.270D+00 0.839D+00
 Coeff:     -0.624D-04 0.907D-04 0.518D-03 0.183D-02 0.564D-02 0.960D-02
 Coeff:     -0.188D-01-0.630D-01-0.449D-01 0.270D+00 0.839D+00
 Gap=     0.126 Goal=   None    Shift=    0.000
 Gap=     0.151 Goal=   None    Shift=    0.000
 RMSDP=4.59D-07 MaxDP=8.48D-05 DE=-6.69D-07 OVMax= 3.36D-04

 Cycle  12  Pass 1  IDiag  1:
 RMSU=  2.69D-07    CP:  9.76D-01  1.02D+00  9.49D-01  7.36D-01  1.34D+00
                    CP:  1.67D+00  2.14D+00  1.85D+00  1.65D+00  1.42D+00
                    CP:  1.34D+00
 E= -3006.96440057076     Delta-E=       -0.000000258691 Rises=F Damp=F
 DIIS: error= 2.47D-06 at cycle  12 NSaved=  12.
 NSaved=12 IEnMin=12 EnMin= -3006.96440057076     IErMin=12 ErrMin= 2.47D-06
 ErrMax= 2.47D-06  0.00D+00 EMaxC= 1.00D-01 BMatC= 8.13D-08 BMatP= 2.07D-07
 IDIUse=1 WtCom= 1.00D+00 WtEn= 0.00D+00
 Coeff-Com:  0.126D-03-0.277D-03-0.980D-03-0.194D-02-0.146D-02 0.100D-01
 Coeff-Com:  0.339D-01-0.178D-01-0.140D+00-0.149D+00 0.353D+00 0.915D+00
 Coeff:      0.126D-03-0.277D-03-0.980D-03-0.194D-02-0.146D-02 0.100D-01
 Coeff:      0.339D-01-0.178D-01-0.140D+00-0.149D+00 0.353D+00 0.915D+00
 Gap=     0.126 Goal=   None    Shift=    0.000
 Gap=     0.151 Goal=   None    Shift=    0.000
 RMSDP=3.46D-07 MaxDP=5.19D-05 DE=-2.59D-07 OVMax= 2.98D-04

 Cycle  13  Pass 1  IDiag  1:
 RMSU=  1.46D-07    CP:  9.76D-01  1.02D+00  9.49D-01  7.36D-01  1.34D+00
                    CP:  1.67D+00  2.14D+00  1.86D+00  1.71D+00  1.56D+00
                    CP:  1.85D+00  1.48D+00
 E= -3006.96440070455     Delta-E=       -0.000000133790 Rises=F Damp=F
 DIIS: error= 1.84D-06 at cycle  13 NSaved=  13.
 NSaved=13 IEnMin=13 EnMin= -3006.96440070455     IErMin=13 ErrMin= 1.84D-06
 ErrMax= 1.84D-06  0.00D+00 EMaxC= 1.00D-01 BMatC= 2.41D-08 BMatP= 8.13D-08
 IDIUse=1 WtCom= 1.00D+00 WtEn= 0.00D+00
 Coeff-Com:  0.578D-04-0.114D-03-0.458D-03-0.124D-02-0.225D-02-0.603D-03
 Coeff-Com:  0.162D-01 0.184D-01-0.265D-01-0.154D+00-0.188D+00 0.254D+00
 Coeff-Com:  0.108D+01
 Coeff:      0.578D-04-0.114D-03-0.458D-03-0.124D-02-0.225D-02-0.603D-03
 Coeff:      0.162D-01 0.184D-01-0.265D-01-0.154D+00-0.188D+00 0.254D+00
 Coeff:      0.108D+01
 Gap=     0.126 Goal=   None    Shift=    0.000
 Gap=     0.151 Goal=   None    Shift=    0.000
 RMSDP=2.73D-07 MaxDP=3.17D-05 DE=-1.34D-07 OVMax= 2.24D-04

 Cycle  14  Pass 1  IDiag  1:
 RMSU=  9.06D-08    CP:  9.76D-01  1.02D+00  9.49D-01  7.36D-01  1.34D+00
                    CP:  1.67D+00  2.15D+00  1.86D+00  1.73D+00  1.66D+00
                    CP:  2.18D+00  2.06D+00  1.63D+00
 E= -3006.96440076259     Delta-E=       -0.000000058046 Rises=F Damp=F
 DIIS: error= 1.02D-06 at cycle  14 NSaved=  14.
 NSaved=14 IEnMin=14 EnMin= -3006.96440076259     IErMin=14 ErrMin= 1.02D-06
 ErrMax= 1.02D-06  0.00D+00 EMaxC= 1.00D-01 BMatC= 8.26D-09 BMatP= 2.41D-08
 IDIUse=1 WtCom= 1.00D+00 WtEn= 0.00D+00
 Coeff-Com: -0.170D-04 0.426D-04 0.136D-03 0.965D-04-0.490D-03-0.366D-02
 Coeff-Com: -0.463D-02 0.134D-01 0.350D-01-0.132D-01-0.190D+00-0.214D+00
 Coeff-Com:  0.457D+00 0.920D+00
 Coeff:     -0.170D-04 0.426D-04 0.136D-03 0.965D-04-0.490D-03-0.366D-02
 Coeff:     -0.463D-02 0.134D-01 0.350D-01-0.132D-01-0.190D+00-0.214D+00
 Coeff:      0.457D+00 0.920D+00
 Gap=     0.126 Goal=   None    Shift=    0.000
 Gap=     0.151 Goal=   None    Shift=    0.000
 RMSDP=1.57D-07 MaxDP=1.85D-05 DE=-5.80D-08 OVMax= 1.50D-04

 Cycle  15  Pass 1  IDiag  1:
 RMSU=  4.07D-08    CP:  9.76D-01  1.02D+00  9.49D-01  7.36D-01  1.34D+00
                    CP:  1.67D+00  2.15D+00  1.86D+00  1.75D+00  1.69D+00
                    CP:  2.36D+00  2.34D+00  2.21D+00  1.49D+00
 E= -3006.96440077908     Delta-E=       -0.000000016487 Rises=F Damp=F
 DIIS: error= 3.93D-07 at cycle  15 NSaved=  15.
 NSaved=15 IEnMin=15 EnMin= -3006.96440077908     IErMin=15 ErrMin= 3.93D-07
 ErrMax= 3.93D-07  0.00D+00 EMaxC= 1.00D-01 BMatC= 2.05D-09 BMatP= 8.26D-09
 IDIUse=1 WtCom= 1.00D+00 WtEn= 0.00D+00
 Coeff-Com: -0.209D-04 0.448D-04 0.179D-03 0.366D-03 0.406D-03-0.116D-02
 Coeff-Com: -0.627D-02-0.887D-03 0.198D-01 0.433D-01-0.117D-01-0.152D+00
 Coeff-Com: -0.148D+00 0.337D+00 0.919D+00
 Coeff:     -0.209D-04 0.448D-04 0.179D-03 0.366D-03 0.406D-03-0.116D-02
 Coeff:     -0.627D-02-0.887D-03 0.198D-01 0.433D-01-0.117D-01-0.152D+00
 Coeff:     -0.148D+00 0.337D+00 0.919D+00
 Gap=     0.126 Goal=   None    Shift=    0.000
 Gap=     0.151 Goal=   None    Shift=    0.000
 RMSDP=7.54D-08 MaxDP=1.19D-05 DE=-1.65D-08 OVMax= 6.46D-05

 Cycle  16  Pass 1  IDiag  1:
 RMSU=  2.02D-08    CP:  9.76D-01  1.02D+00  9.49D-01  7.36D-01  1.34D+00
                    CP:  1.68D+00  2.15D+00  1.87D+00  1.75D+00  1.70D+00
                    CP:  2.41D+00  2.46D+00  2.45D+00  1.94D+00  1.40D+00
 E= -3006.96440078227     Delta-E=       -0.000000003194 Rises=F Damp=F
 DIIS: error= 1.88D-07 at cycle  16 NSaved=  16.
 NSaved=16 IEnMin=16 EnMin= -3006.96440078227     IErMin=16 ErrMin= 1.88D-07
 ErrMax= 1.88D-07  0.00D+00 EMaxC= 1.00D-01 BMatC= 4.85D-10 BMatP= 2.05D-09
 IDIUse=1 WtCom= 1.00D+00 WtEn= 0.00D+00
 Coeff-Com: -0.389D-05 0.711D-05 0.426D-04 0.123D-03 0.286D-03 0.419D-03
 Coeff-Com: -0.148D-02-0.361D-02-0.129D-04 0.215D-01 0.369D-01-0.156D-01
 Coeff-Com: -0.170D+00-0.600D-01 0.387D+00 0.804D+00
 Coeff:     -0.389D-05 0.711D-05 0.426D-04 0.123D-03 0.286D-03 0.419D-03
 Coeff:     -0.148D-02-0.361D-02-0.129D-04 0.215D-01 0.369D-01-0.156D-01
 Coeff:     -0.170D+00-0.600D-01 0.387D+00 0.804D+00
 Gap=     0.126 Goal=   None    Shift=    0.000
 Gap=     0.151 Goal=   None    Shift=    0.000
 RMSDP=2.91D-08 MaxDP=3.47D-06 DE=-3.19D-09 OVMax= 2.77D-05

 Cycle  17  Pass 1  IDiag  1:
 RMSU=  1.01D-08    CP:  9.76D-01  1.02D+00  9.49D-01  7.36D-01  1.34D+00
                    CP:  1.68D+00  2.15D+00  1.86D+00  1.75D+00  1.70D+00
                    CP:  2.42D+00  2.49D+00  2.55D+00  2.08D+00  1.71D+00
                    CP:  1.39D+00
 E= -3006.96440078258     Delta-E=       -0.000000000306 Rises=F Damp=F
 DIIS: error= 8.22D-08 at cycle  17 NSaved=  17.
 NSaved=17 IEnMin=17 EnMin= -3006.96440078258     IErMin=17 ErrMin= 8.22D-08
 ErrMax= 8.22D-08  0.00D+00 EMaxC= 1.00D-01 BMatC= 9.21D-11 BMatP= 4.85D-10
 IDIUse=1 WtCom= 1.00D+00 WtEn= 0.00D+00
 Coeff-Com:  0.322D-05-0.712D-05-0.247D-04-0.415D-04-0.707D-05 0.299D-03
 Coeff-Com:  0.876D-03-0.638D-03-0.389D-02-0.374D-02 0.110D-01 0.302D-01
 Coeff-Com: -0.897D-02-0.852D-01-0.117D+00 0.212D+00 0.965D+00
 Coeff:      0.322D-05-0.712D-05-0.247D-04-0.415D-04-0.707D-05 0.299D-03
 Coeff:      0.876D-03-0.638D-03-0.389D-02-0.374D-02 0.110D-01 0.302D-01
 Coeff:     -0.897D-02-0.852D-01-0.117D+00 0.212D+00 0.965D+00
 Gap=     0.126 Goal=   None    Shift=    0.000
 Gap=     0.151 Goal=   None    Shift=    0.000
 RMSDP=1.38D-08 MaxDP=3.25D-06 DE=-3.06D-10 OVMax= 1.25D-05

 Cycle  18  Pass 1  IDiag  1:
 RMSU=  5.04D-09    CP:  9.76D-01  1.02D+00  9.49D-01  7.36D-01  1.34D+00
                    CP:  1.68D+00  2.15D+00  1.86D+00  1.75D+00  1.70D+00
                    CP:  2.43D+00  2.50D+00  2.56D+00  2.14D+00  1.87D+00
                    CP:  1.75D+00  1.37D+00
 E= -3006.96440078305     Delta-E=       -0.000000000466 Rises=F Damp=F
 DIIS: error= 3.87D-08 at cycle  18 NSaved=  18.
 NSaved=18 IEnMin=18 EnMin= -3006.96440078305     IErMin=18 ErrMin= 3.87D-08
 ErrMax= 3.87D-08  0.00D+00 EMaxC= 1.00D-01 BMatC= 2.88D-11 BMatP= 9.21D-11
 IDIUse=1 WtCom= 1.00D+00 WtEn= 0.00D+00
 Coeff-Com:  0.208D-05-0.433D-05-0.192D-04-0.425D-04-0.598D-04 0.418D-04
 Coeff-Com:  0.694D-03 0.487D-03-0.159D-02-0.601D-02-0.334D-02 0.153D-01
 Coeff-Com:  0.294D-01-0.205D-01-0.124D+00-0.837D-01 0.380D+00 0.813D+00
 Coeff:      0.208D-05-0.433D-05-0.192D-04-0.425D-04-0.598D-04 0.418D-04
 Coeff:      0.694D-03 0.487D-03-0.159D-02-0.601D-02-0.334D-02 0.153D-01
 Coeff:      0.294D-01-0.205D-01-0.124D+00-0.837D-01 0.380D+00 0.813D+00
 Gap=     0.126 Goal=   None    Shift=    0.000
 Gap=     0.151 Goal=   None    Shift=    0.000
 RMSDP=6.09D-09 MaxDP=7.47D-07 DE=-4.66D-10 OVMax= 5.50D-06

 Error on total polarization charges =  0.02475
 SCF Done:  E(UM062X) =  -3006.96440078     A.U. after   18 cycles
            NFock= 18  Conv=0.61D-08     -V/T= 2.0051
 <Sx>= 0.0000 <Sy>= 0.0000 <Sz>= 0.5000 <S**2>= 0.7896 S= 0.5196
 <L.S>= 0.000000000000E+00
 KE= 2.991734319662D+03 PE=-2.325067467278D+04 EE= 9.163422011651D+03
 Annihilation of the first spin contaminant:
 S**2 before annihilation     0.7896,   after     0.7513
 Leave Link  502 at Fri Nov  7 19:29:43 2025, MaxMem= 30870077440 cpu:          167327.8 elap:            2647.9
 (Enter /public/software/gauss/g16/l601.exe)
 Copying SCF densities to generalized density rwf, IOpCl= 1 IROHF=0.

 **********************************************************************

            Population analysis using the SCF density.

 **********************************************************************

 Orbital symmetries:
 Alpha Orbitals:
       Occupied  (A) (A) (A) (A) (A) (A) (A) (A) (A) (A) (A) (A)
                 (A) (A) (A) (A) (A) (A) (A) (A) (A) (A) (A) (A)
                 (A) (A) (A) (A) (A) (A) (A) (A) (A) (A) (A) (A)
                 (A) (A) (A) (A) (A) (A) (A) (A) (A) (A) (A) (A)
                 (A) (A) (A) (A) (A) (A) (A) (A) (A) (A) (A) (A)
                 (A) (A) (A) (A) (A) (A) (A) (A) (A) (A) (A) (A)
                 (A) (A) (A) (A) (A) (A) (A) (A) (A) (A) (A) (A)
                 (A) (A) (A) (A) (A) (A) (A) (A) (A) (A) (A) (A)
                 (A) (A) (A) (A) (A) (A) (A) (A) (A) (A) (A) (A)
                 (A) (A) (A) (A) (A) (A) (A) (A) (A) (A) (A) (A)
                 (A) (A) (A) (A) (A) (A) (A) (A) (A) (A) (A) (A)
                 (A) (A) (A) (A) (A) (A) (A) (A) (A) (A) (A) (A)
                 (A) (A) (A) (A) (A) (A) (A) (A) (A) (A) (A) (A)
                 (A) (A) (A) (A) (A) (A) (A) (A) (A) (A) (A) (A)
                 (A) (A) (A) (A) (A) (A) (A) (A) (A) (A) (A) (A)
                 (A) (A) (A) (A) (A) (A) (A) (A) (A) (A) (A) (A)
                 (A) (A) (A) (A) (A) (A) (A) (A) (A) (A) (A) (A)
                 (A) (A) (A) (A) (A) (A) (A) (A) (A) (A) (A) (A)
                 (A) (A)
       Virtual   (A) (A) (A) (A) (A) (A) (A) (A) (A) (A) (A) (A)
                 (A) (A) (A) (A) (A) (A) (A) (A) (A) (A) (A) (A)
                 (A) (A) (A) (A) (A) (A) (A) (A) (A) (A) (A) (A)
                 (A) (A) (A) (A) (A) (A) (A) (A) (A) (A) (A) (A)
                 (A) (A) (A) (A) (A) (A) (A) (A) (A) (A) (A) (A)
                 (A) (A) (A) (A) (A) (A) (A) (A) (A) (A) (A) (A)
                 (A) (A) (A) (A) (A) (A) (A) (A) (A) (A) (A) (A)
                 (A) (A) (A) (A) (A) (A) (A) (A) (A) (A) (A) (A)
                 (A) (A) (A) (A) (A) (A) (A) (A) (A) (A) (A) (A)
                 (A) (A) (A) (A) (A) (A) (A) (A) (A) (A) (A) (A)
                 (A) (A) (A) (A) (A) (A) (A) (A) (A) (A) (A) (A)
                 (A) (A) (A) (A) (A) (A) (A) (A) (A) (A) (A) (A)
                 (A) (A) (A) (A) (A) (A) (A) (A) (A) (A) (A) (A)
                 (A) (A) (A) (A) (A) (A) (A) (A) (A) (A) (A) (A)
                 (A) (A) (A) (A) (A) (A) (A) (A) (A) (A) (A) (A)
                 (A) (A) (A) (A) (A) (A) (A) (A) (A) (A) (A) (A)
                 (A) (A) (A) (A) (A) (A) (A) (A) (A) (A) (A) (A)
                 (A) (A) (A) (A) (A) (A) (A) (A) (A) (A) (A) (A)
                 (A) (A) (A) (A) (A) (A) (A) (A) (A) (A) (A) (A)
                 (A) (A) (A) (A) (A) (A) (A) (A) (A) (A) (A) (A)
                 (A) (A) (A) (A) (A) (A) (A) (A) (A) (A) (A) (A)
                 (A) (A) (A) (A) (A) (A) (A) (A) (A) (A) (A) (A)
                 (A) (A) (A) (A) (A) (A) (A) (A) (A) (A) (A) (A)
                 (A) (A) (A) (A) (A) (A) (A) (A) (A) (A) (A) (A)
                 (A) (A) (A) (A) (A) (A) (A) (A) (A) (A) (A) (A)
                 (A) (A) (A) (A) (A) (A) (A) (A) (A) (A) (A) (A)
                 (A) (A) (A) (A) (A) (A) (A) (A) (A) (A) (A) (A)
                 (A) (A) (A) (A) (A) (A) (A) (A) (A) (A) (A) (A)
                 (A) (A) (A) (A) (A) (A) (A) (A) (A) (A) (A) (A)
                 (A) (A) (A) (A) (A) (A) (A) (A) (A) (A) (A) (A)
                 (A) (A) (A) (A) (A) (A) (A) (A) (A) (A) (A) (A)
                 (A) (A) (A) (A) (A) (A) (A) (A) (A) (A) (A) (A)
                 (A) (A) (A) (A) (A) (A) (A) (A) (A) (A) (A) (A)
                 (A) (A) (A) (A) (A) (A) (A) (A) (A) (A) (A) (A)
                 (A) (A) (A) (A) (A) (A) (A) (A) (A) (A) (A) (A)
                 (A) (A) (A) (A) (A) (A) (A) (A) (A) (A) (A) (A)
                 (A) (A) (A) (A) (A) (A) (A) (A) (A) (A) (A) (A)
                 (A) (A) (A) (A) (A) (A) (A) (A) (A) (A) (A) (A)
                 (A) (A) (A) (A) (A) (A) (A) (A) (A) (A) (A) (A)
                 (A) (A) (A) (A) (A) (A) (A) (A) (A) (A) (A) (A)
                 (A) (A) (A) (A) (A) (A) (A) (A) (A) (A) (A) (A)
                 (A) (A) (A) (A) (A) (A) (A) (A) (A) (A) (A) (A)
                 (A) (A) (A) (A) (A) (A) (A) (A) (A) (A) (A) (A)
                 (A) (A) (A) (A) (A) (A) (A) (A) (A) (A) (A) (A)
                 (A) (A) (A) (A) (A) (A) (A) (A) (A) (A) (A) (A)
                 (A) (A) (A) (A) (A) (A) (A) (A) (A) (A) (A) (A)
                 (A) (A) (A) (A) (A) (A) (A) (A) (A) (A) (A) (A)
                 (A) (A) (A) (A) (A) (A) (A) (A) (A) (A) (A) (A)
                 (A) (A) (A) (A) (A) (A) (A) (A) (A) (A) (A) (A)
                 (A) (A) (A) (A) (A) (A) (A) (A) (A) (A) (A) (A)
                 (A) (A) (A) (A) (A) (A) (A) (A) (A) (A) (A) (A)
                 (A) (A) (A) (A) (A) (A) (A) (A) (A) (A) (A) (A)
                 (A) (A) (A) (A) (A) (A) (A) (A) (A) (A) (A) (A)
                 (A) (A) (A) (A) (A) (A) (A) (A) (A) (A) (A) (A)
                 (A) (A) (A) (A) (A) (A) (A) (A) (A) (A) (A) (A)
                 (A) (A) (A) (A) (A) (A) (A) (A) (A) (A) (A) (A)
                 (A) (A) (A) (A) (A) (A) (A) (A) (A) (A) (A) (A)
                 (A) (A) (A) (A) (A) (A) (A) (A) (A) (A) (A) (A)
                 (A) (A) (A) (A) (A) (A) (A) (A) (A) (A) (A) (A)
                 (A) (A) (A) (A) (A) (A) (A) (A) (A) (A) (A) (A)
                 (A) (A) (A) (A) (A) (A) (A) (A) (A) (A) (A) (A)
                 (A) (A) (A) (A) (A) (A) (A) (A) (A) (A) (A) (A)
                 (A) (A) (A) (A) (A) (A) (A) (A) (A) (A) (A) (A)
                 (A) (A) (A) (A) (A) (A) (A) (A) (A) (A) (A) (A)
                 (A) (A) (A) (A) (A) (A) (A) (A) (A) (A) (A) (A)
                 (A) (A) (A) (A) (A) (A) (A) (A) (A) (A) (A) (A)
                 (A) (A) (A) (A) (A) (A) (A) (A) (A) (A) (A) (A)
                 (A) (A) (A) (A) (A) (A) (A) (A) (A) (A) (A) (A)
                 (A) (A) (A) (A) (A) (A) (A) (A) (A) (A) (A) (A)
                 (A) (A) (A) (A) (A) (A) (A) (A) (A) (A) (A) (A)
                 (A) (A) (A) (A) (A) (A) (A) (A) (A) (A) (A) (A)
                 (A) (A) (A) (A) (A) (A) (A) (A) (A) (A) (A) (A)
                 (A) (A) (A) (A) (A) (A) (A) (A) (A) (A) (A) (A)
                 (A) (A) (A) (A) (A) (A) (A) (A) (A) (A) (A) (A)
                 (A) (A) (A) (A) (A) (A) (A) (A) (A) (A) (A) (A)
                 (A) (A) (A) (A) (A) (A) (A) (A) (A) (A) (A) (A)
                 (A) (A) (A) (A) (A) (A) (A) (A) (A) (A) (A) (A)
                 (A) (A) (A) (A) (A) (A) (A) (A) (A) (A) (A) (A)
                 (A) (A) (A) (A) (A) (A) (A) (A) (A) (A) (A) (A)
                 (A) (A) (A) (A) (A) (A) (A) (A) (A) (A) (A) (A)
                 (A) (A) (A) (A) (A) (A) (A) (A) (A) (A) (A) (A)
                 (A) (A) (A) (A) (A) (A) (A) (A) (A) (A) (A) (A)
                 (A) (A) (A) (A) (A) (A) (A) (A) (A) (A) (A) (A)
                 (A) (A) (A) (A) (A) (A) (A) (A) (A) (A) (A) (A)
                 (A) (A) (A) (A) (A) (A) (A) (A) (A) (A) (A) (A)
                 (A) (A) (A) (A) (A) (A) (A) (A) (A) (A) (A) (A)
                 (A) (A) (A) (A) (A) (A) (A) (A) (A) (A) (A) (A)
                 (A) (A) (A) (A) (A) (A) (A) (A) (A) (A) (A) (A)
                 (A) (A) (A) (A) (A) (A) (A) (A) (A) (A) (A) (A)
                 (A) (A) (A) (A) (A) (A) (A) (A) (A) (A) (A) (A)
                 (A) (A) (A) (A) (A) (A) (A) (A) (A) (A) (A) (A)
                 (A) (A) (A) (A) (A) (A) (A) (A) (A) (A) (A) (A)
                 (A) (A) (A) (A) (A) (A) (A) (A) (A) (A) (A) (A)
                 (A) (A) (A) (A) (A) (A) (A) (A) (A) (A) (A) (A)
                 (A) (A) (A) (A) (A) (A) (A) (A) (A) (A) (A) (A)
                 (A) (A) (A) (A) (A) (A) (A) (A) (A) (A) (A) (A)
                 (A) (A) (A) (A) (A) (A) (A) (A) (A) (A) (A) (A)
                 (A) (A) (A) (A) (A) (A) (A) (A) (A) (A) (A) (A)
                 (A) (A) (A) (A) (A) (A) (A) (A) (A) (A) (A) (A)
                 (A) (A) (A) (A) (A) (A) (A) (A) (A) (A) (A) (A)
                 (A) (A) (A) (A) (A) (A) (A) (A) (A) (A) (A) (A)
                 (A) (A) (A) (A) (A) (A) (A) (A) (A) (A) (A) (A)
                 (A) (A) (A) (A) (A) (A) (A) (A) (A) (A) (A) (A)
                 (A) (A) (A) (A) (A) (A) (A) (A) (A) (A) (A) (A)
                 (A) (A) (A) (A) (A) (A) (A) (A) (A) (A) (A) (A)
                 (A) (A) (A) (A) (A) (A) (A) (A) (A) (A) (A) (A)
                 (A) (A) (A) (A) (A) (A) (A) (A) (A) (A) (A) (A)
                 (A) (A) (A) (A) (A) (A) (A) (A) (A) (A) (A) (A)
                 (A) (A) (A) (A) (A) (A) (A) (A) (A) (A) (A) (A)
                 (A) (A) (A) (A) (A) (A) (A) (A) (A) (A) (A) (A)
                 (A) (A) (A) (A) (A) (A) (A) (A) (A) (A) (A) (A)
                 (A) (A) (A) (A) (A) (A) (A) (A) (A) (A) (A) (A)
                 (A) (A) (A) (A) (A) (A) (A) (A) (A) (A) (A) (A)
                 (A) (A) (A) (A) (A) (A) (A) (A) (A) (A) (A) (A)
                 (A) (A) (A) (A) (A) (A) (A) (A) (A) (A) (A) (A)
                 (A) (A) (A) (A) (A) (A) (A) (A) (A) (A) (A) (A)
                 (A) (A) (A) (A) (A) (A) (A) (A) (A) (A) (A) (A)
                 (A) (A) (A) (A) (A) (A) (A) (A) (A) (A) (A) (A)
                 (A) (A) (A) (A) (A) (A) (A) (A) (A) (A) (A) (A)
                 (A) (A) (A) (A) (A) (A) (A) (A) (A) (A) (A) (A)
                 (A) (A) (A) (A) (A) (A) (A) (A) (A) (A) (A) (A)
                 (A) (A) (A) (A) (A) (A) (A) (A) (A) (A) (A) (A)
                 (A) (A) (A) (A) (A) (A) (A) (A) (A) (A) (A) (A)
                 (A) (A) (A) (A) (A) (A) (A) (A) (A) (A) (A) (A)
                 (A) (A) (A) (A) (A) (A) (A) (A) (A) (A) (A) (A)
                 (A) (A) (A) (A) (A) (A) (A) (A) (A) (A) (A) (A)
                 (A) (A) (A) (A) (A) (A) (A) (A) (A) (A) (A) (A)
                 (A) (A) (A) (A) (A) (A) (A) (A) (A) (A) (A) (A)
                 (A) (A) (A) (A) (A) (A) (A) (A) (A) (A) (A) (A)
                 (A) (A) (A) (A) (A) (A) (A) (A) (A) (A) (A) (A)
                 (A) (A) (A) (A) (A) (A) (A) (A) (A) (A) (A) (A)
                 (A) (A) (A) (A) (A) (A) (A) (A) (A) (A) (A) (A)
                 (A) (A) (A) (A) (A) (A) (A) (A) (A) (A) (A) (A)
                 (A) (A) (A) (A) (A) (A) (A) (A) (A) (A) (A) (A)
                 (A) (A) (A) (A) (A) (A) (A) (A) (A) (A) (A) (A)
                 (A) (A) (A) (A) (A) (A) (A) (A) (A) (A) (A) (A)
                 (A) (A) (A) (A) (A) (A) (A) (A) (A) (A) (A) (A)
                 (A) (A) (A) (A) (A) (A) (A) (A) (A) (A) (A) (A)
                 (A) (A) (A) (A) (A) (A) (A) (A) (A) (A) (A) (A)
                 (A) (A) (A) (A) (A) (A) (A) (A) (A) (A) (A) (A)
                 (A) (A) (A) (A) (A) (A) (A) (A) (A) (A) (A) (A)
                 (A) (A) (A) (A) (A) (A) (A) (A) (A) (A) (A) (A)
                 (A) (A) (A) (A) (A) (A) (A) (A) (A) (A) (A) (A)
                 (A) (A) (A) (A) (A) (A) (A) (A) (A) (A) (A) (A)
                 (A) (A) (A) (A) (A) (A) (A) (A) (A) (A) (A) (A)
                 (A) (A) (A) (A) (A) (A) (A) (A) (A) (A) (A) (A)
                 (A) (A) (A) (A) (A) (A) (A) (A) (A) (A) (A) (A)
                 (A) (A) (A) (A) (A) (A) (A) (A) (A) (A) (A) (A)
                 (A) (A) (A) (A) (A) (A) (A) (A) (A) (A) (A) (A)
                 (A) (A) (A) (A) (A) (A) (A) (A) (A) (A) (A) (A)
                 (A) (A) (A) (A) (A) (A) (A) (A) (A) (A) (A) (A)
                 (A) (A) (A) (A) (A) (A) (A) (A) (A) (A) (A) (A)
                 (A) (A) (A) (A) (A) (A) (A) (A) (A) (A) (A) (A)
                 (A) (A) (A) (A) (A) (A) (A) (A) (A) (A) (A) (A)
                 (A) (A) (A) (A) (A) (A) (A) (A) (A) (A) (A) (A)
                 (A) (A) (A) (A) (A) (A) (A) (A) (A) (A) (A) (A)
                 (A) (A) (A) (A) (A) (A) (A) (A) (A) (A) (A) (A)
                 (A) (A) (A) (A) (A) (A) (A) (A) (A) (A) (A) (A)
                 (A) (A) (A) (A) (A) (A) (A) (A) (A) (A) (A) (A)
                 (A) (A) (A) (A) (A) (A) (A) (A) (A) (A) (A) (A)
                 (A) (A) (A) (A) (A) (A) (A) (A) (A) (A) (A) (A)
                 (A) (A) (A) (A) (A) (A) (A) (A) (A) (A) (A) (A)
                 (A) (A) (A) (A) (A) (A) (A) (A) (A) (A) (A) (A)
                 (A) (A) (A) (A) (A) (A) (A) (A) (A) (A) (A) (A)
                 (A) (A) (A) (A) (A) (A) (A) (A) (A) (A) (A) (A)
                 (A) (A) (A) (A) (A) (A) (A) (A) (A) (A) (A) (A)
                 (A) (A) (A) (A) (A) (A) (A) (A) (A) (A) (A) (A)
                 (A) (A) (A) (A) (A) (A) (A) (A) (A) (A) (A) (A)
                 (A) (A) (A) (A) (A) (A) (A) (A) (A) (A) (A) (A)
                 (A) (A) (A) (A) (A) (A) (A) (A) (A) (A) (A) (A)
                 (A) (A) (A) (A) (A) (A) (A) (A) (A) (A) (A) (A)
                 (A) (A) (A) (A) (A) (A) (A) (A) (A) (A) (A) (A)
                 (A) (A) (A) (A) (A) (A) (A) (A) (A) (A) (A) (A)
                 (A) (A) (A) (A) (A) (A) (A) (A) (A) (A) (A) (A)
                 (A) (A) (A) (A) (A) (A) (A) (A) (A) (A) (A) (A)
                 (A) (A) (A) (A) (A) (A) (A) (A) (A) (A) (A) (A)
                 (A) (A) (A) (A) (A) (A) (A) (A) (A) (A) (A) (A)
                 (A) (A) (A) (A) (A) (A) (A) (A) (A) (A) (A) (A)
                 (A) (A)
 Beta  Orbitals:
       Occupied  (A) (A) (A) (A) (A) (A) (A) (A) (A) (A) (A) (A)
                 (A) (A) (A) (A) (A) (A) (A) (A) (A) (A) (A) (A)
                 (A) (A) (A) (A) (A) (A) (A) (A) (A) (A) (A) (A)
                 (A) (A) (A) (A) (A) (A) (A) (A) (A) (A) (A) (A)
                 (A) (A) (A) (A) (A) (A) (A) (A) (A) (A) (A) (A)
                 (A) (A) (A) (A) (A) (A) (A) (A) (A) (A) (A) (A)
                 (A) (A) (A) (A) (A) (A) (A) (A) (A) (A) (A) (A)
                 (A) (A) (A) (A) (A) (A) (A) (A) (A) (A) (A) (A)
                 (A) (A) (A) (A) (A) (A) (A) (A) (A) (A) (A) (A)
                 (A) (A) (A) (A) (A) (A) (A) (A) (A) (A) (A) (A)
                 (A) (A) (A) (A) (A) (A) (A) (A) (A) (A) (A) (A)
                 (A) (A) (A) (A) (A) (A) (A) (A) (A) (A) (A) (A)
                 (A) (A) (A) (A) (A) (A) (A) (A) (A) (A) (A) (A)
                 (A) (A) (A) (A) (A) (A) (A) (A) (A) (A) (A) (A)
                 (A) (A) (A) (A) (A) (A) (A) (A) (A) (A) (A) (A)
                 (A) (A) (A) (A) (A) (A) (A) (A) (A) (A) (A) (A)
                 (A) (A) (A) (A) (A) (A) (A) (A) (A) (A) (A) (A)
                 (A) (A) (A) (A) (A) (A) (A) (A) (A) (A) (A) (A)
                 (A)
       Virtual   (A) (A) (A) (A) (A) (A) (A) (A) (A) (A) (A) (A)
                 (A) (A) (A) (A) (A) (A) (A) (A) (A) (A) (A) (A)
                 (A) (A) (A) (A) (A) (A) (A) (A) (A) (A) (A) (A)
                 (A) (A) (A) (A) (A) (A) (A) (A) (A) (A) (A) (A)
                 (A) (A) (A) (A) (A) (A) (A) (A) (A) (A) (A) (A)
                 (A) (A) (A) (A) (A) (A) (A) (A) (A) (A) (A) (A)
                 (A) (A) (A) (A) (A) (A) (A) (A) (A) (A) (A) (A)
                 (A) (A) (A) (A) (A) (A) (A) (A) (A) (A) (A) (A)
                 (A) (A) (A) (A) (A) (A) (A) (A) (A) (A) (A) (A)
                 (A) (A) (A) (A) (A) (A) (A) (A) (A) (A) (A) (A)
                 (A) (A) (A) (A) (A) (A) (A) (A) (A) (A) (A) (A)
                 (A) (A) (A) (A) (A) (A) (A) (A) (A) (A) (A) (A)
                 (A) (A) (A) (A) (A) (A) (A) (A) (A) (A) (A) (A)
                 (A) (A) (A) (A) (A) (A) (A) (A) (A) (A) (A) (A)
                 (A) (A) (A) (A) (A) (A) (A) (A) (A) (A) (A) (A)
                 (A) (A) (A) (A) (A) (A) (A) (A) (A) (A) (A) (A)
                 (A) (A) (A) (A) (A) (A) (A) (A) (A) (A) (A) (A)
                 (A) (A) (A) (A) (A) (A) (A) (A) (A) (A) (A) (A)
                 (A) (A) (A) (A) (A) (A) (A) (A) (A) (A) (A) (A)
                 (A) (A) (A) (A) (A) (A) (A) (A) (A) (A) (A) (A)
                 (A) (A) (A) (A) (A) (A) (A) (A) (A) (A) (A) (A)
                 (A) (A) (A) (A) (A) (A) (A) (A) (A) (A) (A) (A)
                 (A) (A) (A) (A) (A) (A) (A) (A) (A) (A) (A) (A)
                 (A) (A) (A) (A) (A) (A) (A) (A) (A) (A) (A) (A)
                 (A) (A) (A) (A) (A) (A) (A) (A) (A) (A) (A) (A)
                 (A) (A) (A) (A) (A) (A) (A) (A) (A) (A) (A) (A)
                 (A) (A) (A) (A) (A) (A) (A) (A) (A) (A) (A) (A)
                 (A) (A) (A) (A) (A) (A) (A) (A) (A) (A) (A) (A)
                 (A) (A) (A) (A) (A) (A) (A) (A) (A) (A) (A) (A)
                 (A) (A) (A) (A) (A) (A) (A) (A) (A) (A) (A) (A)
                 (A) (A) (A) (A) (A) (A) (A) (A) (A) (A) (A) (A)
                 (A) (A) (A) (A) (A) (A) (A) (A) (A) (A) (A) (A)
                 (A) (A) (A) (A) (A) (A) (A) (A) (A) (A) (A) (A)
                 (A) (A) (A) (A) (A) (A) (A) (A) (A) (A) (A) (A)
                 (A) (A) (A) (A) (A) (A) (A) (A) (A) (A) (A) (A)
                 (A) (A) (A) (A) (A) (A) (A) (A) (A) (A) (A) (A)
                 (A) (A) (A) (A) (A) (A) (A) (A) (A) (A) (A) (A)
                 (A) (A) (A) (A) (A) (A) (A) (A) (A) (A) (A) (A)
                 (A) (A) (A) (A) (A) (A) (A) (A) (A) (A) (A) (A)
                 (A) (A) (A) (A) (A) (A) (A) (A) (A) (A) (A) (A)
                 (A) (A) (A) (A) (A) (A) (A) (A) (A) (A) (A) (A)
                 (A) (A) (A) (A) (A) (A) (A) (A) (A) (A) (A) (A)
                 (A) (A) (A) (A) (A) (A) (A) (A) (A) (A) (A) (A)
                 (A) (A) (A) (A) (A) (A) (A) (A) (A) (A) (A) (A)
                 (A) (A) (A) (A) (A) (A) (A) (A) (A) (A) (A) (A)
                 (A) (A) (A) (A) (A) (A) (A) (A) (A) (A) (A) (A)
                 (A) (A) (A) (A) (A) (A) (A) (A) (A) (A) (A) (A)
                 (A) (A) (A) (A) (A) (A) (A) (A) (A) (A) (A) (A)
                 (A) (A) (A) (A) (A) (A) (A) (A) (A) (A) (A) (A)
                 (A) (A) (A) (A) (A) (A) (A) (A) (A) (A) (A) (A)
                 (A) (A) (A) (A) (A) (A) (A) (A) (A) (A) (A) (A)
                 (A) (A) (A) (A) (A) (A) (A) (A) (A) (A) (A) (A)
                 (A) (A) (A) (A) (A) (A) (A) (A) (A) (A) (A) (A)
                 (A) (A) (A) (A) (A) (A) (A) (A) (A) (A) (A) (A)
                 (A) (A) (A) (A) (A) (A) (A) (A) (A) (A) (A) (A)
                 (A) (A) (A) (A) (A) (A) (A) (A) (A) (A) (A) (A)
                 (A) (A) (A) (A) (A) (A) (A) (A) (A) (A) (A) (A)
                 (A) (A) (A) (A) (A) (A) (A) (A) (A) (A) (A) (A)
                 (A) (A) (A) (A) (A) (A) (A) (A) (A) (A) (A) (A)
                 (A) (A) (A) (A) (A) (A) (A) (A) (A) (A) (A) (A)
                 (A) (A) (A) (A) (A) (A) (A) (A) (A) (A) (A) (A)
                 (A) (A) (A) (A) (A) (A) (A) (A) (A) (A) (A) (A)
                 (A) (A) (A) (A) (A) (A) (A) (A) (A) (A) (A) (A)
                 (A) (A) (A) (A) (A) (A) (A) (A) (A) (A) (A) (A)
                 (A) (A) (A) (A) (A) (A) (A) (A) (A) (A) (A) (A)
                 (A) (A) (A) (A) (A) (A) (A) (A) (A) (A) (A) (A)
                 (A) (A) (A) (A) (A) (A) (A) (A) (A) (A) (A) (A)
                 (A) (A) (A) (A) (A) (A) (A) (A) (A) (A) (A) (A)
                 (A) (A) (A) (A) (A) (A) (A) (A) (A) (A) (A) (A)
                 (A) (A) (A) (A) (A) (A) (A) (A) (A) (A) (A) (A)
                 (A) (A) (A) (A) (A) (A) (A) (A) (A) (A) (A) (A)
                 (A) (A) (A) (A) (A) (A) (A) (A) (A) (A) (A) (A)
                 (A) (A) (A) (A) (A) (A) (A) (A) (A) (A) (A) (A)
                 (A) (A) (A) (A) (A) (A) (A) (A) (A) (A) (A) (A)
                 (A) (A) (A) (A) (A) (A) (A) (A) (A) (A) (A) (A)
                 (A) (A) (A) (A) (A) (A) (A) (A) (A) (A) (A) (A)
                 (A) (A) (A) (A) (A) (A) (A) (A) (A) (A) (A) (A)
                 (A) (A) (A) (A) (A) (A) (A) (A) (A) (A) (A) (A)
                 (A) (A) (A) (A) (A) (A) (A) (A) (A) (A) (A) (A)
                 (A) (A) (A) (A) (A) (A) (A) (A) (A) (A) (A) (A)
                 (A) (A) (A) (A) (A) (A) (A) (A) (A) (A) (A) (A)
                 (A) (A) (A) (A) (A) (A) (A) (A) (A) (A) (A) (A)
                 (A) (A) (A) (A) (A) (A) (A) (A) (A) (A) (A) (A)
                 (A) (A) (A) (A) (A) (A) (A) (A) (A) (A) (A) (A)
                 (A) (A) (A) (A) (A) (A) (A) (A) (A) (A) (A) (A)
                 (A) (A) (A) (A) (A) (A) (A) (A) (A) (A) (A) (A)
                 (A) (A) (A) (A) (A) (A) (A) (A) (A) (A) (A) (A)
                 (A) (A) (A) (A) (A) (A) (A) (A) (A) (A) (A) (A)
                 (A) (A) (A) (A) (A) (A) (A) (A) (A) (A) (A) (A)
                 (A) (A) (A) (A) (A) (A) (A) (A) (A) (A) (A) (A)
                 (A) (A) (A) (A) (A) (A) (A) (A) (A) (A) (A) (A)
                 (A) (A) (A) (A) (A) (A) (A) (A) (A) (A) (A) (A)
                 (A) (A) (A) (A) (A) (A) (A) (A) (A) (A) (A) (A)
                 (A) (A) (A) (A) (A) (A) (A) (A) (A) (A) (A) (A)
                 (A) (A) (A) (A) (A) (A) (A) (A) (A) (A) (A) (A)
                 (A) (A) (A) (A) (A) (A) (A) (A) (A) (A) (A) (A)
                 (A) (A) (A) (A) (A) (A) (A) (A) (A) (A) (A) (A)
                 (A) (A) (A) (A) (A) (A) (A) (A) (A) (A) (A) (A)
                 (A) (A) (A) (A) (A) (A) (A) (A) (A) (A) (A) (A)
                 (A) (A) (A) (A) (A) (A) (A) (A) (A) (A) (A) (A)
                 (A) (A) (A) (A) (A) (A) (A) (A) (A) (A) (A) (A)
                 (A) (A) (A) (A) (A) (A) (A) (A) (A) (A) (A) (A)
                 (A) (A) (A) (A) (A) (A) (A) (A) (A) (A) (A) (A)
                 (A) (A) (A) (A) (A) (A) (A) (A) (A) (A) (A) (A)
                 (A) (A) (A) (A) (A) (A) (A) (A) (A) (A) (A) (A)
                 (A) (A) (A) (A) (A) (A) (A) (A) (A) (A) (A) (A)
                 (A) (A) (A) (A) (A) (A) (A) (A) (A) (A) (A) (A)
                 (A) (A) (A) (A) (A) (A) (A) (A) (A) (A) (A) (A)
                 (A) (A) (A) (A) (A) (A) (A) (A) (A) (A) (A) (A)
                 (A) (A) (A) (A) (A) (A) (A) (A) (A) (A) (A) (A)
                 (A) (A) (A) (A) (A) (A) (A) (A) (A) (A) (A) (A)
                 (A) (A) (A) (A) (A) (A) (A) (A) (A) (A) (A) (A)
                 (A) (A) (A) (A) (A) (A) (A) (A) (A) (A) (A) (A)
                 (A) (A) (A) (A) (A) (A) (A) (A) (A) (A) (A) (A)
                 (A) (A) (A) (A) (A) (A) (A) (A) (A) (A) (A) (A)
                 (A) (A) (A) (A) (A) (A) (A) (A) (A) (A) (A) (A)
                 (A) (A) (A) (A) (A) (A) (A) (A) (A) (A) (A) (A)
                 (A) (A) (A) (A) (A) (A) (A) (A) (A) (A) (A) (A)
                 (A) (A) (A) (A) (A) (A) (A) (A) (A) (A) (A) (A)
                 (A) (A) (A) (A) (A) (A) (A) (A) (A) (A) (A) (A)
                 (A) (A) (A) (A) (A) (A) (A) (A) (A) (A) (A) (A)
                 (A) (A) (A) (A) (A) (A) (A) (A) (A) (A) (A) (A)
                 (A) (A) (A) (A) (A) (A) (A) (A) (A) (A) (A) (A)
                 (A) (A) (A) (A) (A) (A) (A) (A) (A) (A) (A) (A)
                 (A) (A) (A) (A) (A) (A) (A) (A) (A) (A) (A) (A)
                 (A) (A) (A) (A) (A) (A) (A) (A) (A) (A) (A) (A)
                 (A) (A) (A) (A) (A) (A) (A) (A) (A) (A) (A) (A)
                 (A) (A) (A) (A) (A) (A) (A) (A) (A) (A) (A) (A)
                 (A) (A) (A) (A) (A) (A) (A) (A) (A) (A) (A) (A)
                 (A) (A) (A) (A) (A) (A) (A) (A) (A) (A) (A) (A)
                 (A) (A) (A) (A) (A) (A) (A) (A) (A) (A) (A) (A)
                 (A) (A) (A) (A) (A) (A) (A) (A) (A) (A) (A) (A)
                 (A) (A) (A) (A) (A) (A) (A) (A) (A) (A) (A) (A)
                 (A) (A) (A) (A) (A) (A) (A) (A) (A) (A) (A) (A)
                 (A) (A) (A) (A) (A) (A) (A) (A) (A) (A) (A) (A)
                 (A) (A) (A) (A) (A) (A) (A) (A) (A) (A) (A) (A)
                 (A) (A) (A) (A) (A) (A) (A) (A) (A) (A) (A) (A)
                 (A) (A) (A) (A) (A) (A) (A) (A) (A) (A) (A) (A)
                 (A) (A) (A) (A) (A) (A) (A) (A) (A) (A) (A) (A)
                 (A) (A) (A) (A) (A) (A) (A) (A) (A) (A) (A) (A)
                 (A) (A) (A) (A) (A) (A) (A) (A) (A) (A) (A) (A)
                 (A) (A) (A) (A) (A) (A) (A) (A) (A) (A) (A) (A)
                 (A) (A) (A) (A) (A) (A) (A) (A) (A) (A) (A) (A)
                 (A) (A) (A) (A) (A) (A) (A) (A) (A) (A) (A) (A)
                 (A) (A) (A) (A) (A) (A) (A) (A) (A) (A) (A) (A)
                 (A) (A) (A) (A) (A) (A) (A) (A) (A) (A) (A) (A)
                 (A) (A) (A) (A) (A) (A) (A) (A) (A) (A) (A) (A)
                 (A) (A) (A) (A) (A) (A) (A) (A) (A) (A) (A) (A)
                 (A) (A) (A) (A) (A) (A) (A) (A) (A) (A) (A) (A)
                 (A) (A) (A) (A) (A) (A) (A) (A) (A) (A) (A) (A)
                 (A) (A) (A) (A) (A) (A) (A) (A) (A) (A) (A) (A)
                 (A) (A) (A) (A) (A) (A) (A) (A) (A) (A) (A) (A)
                 (A) (A) (A) (A) (A) (A) (A) (A) (A) (A) (A) (A)
                 (A) (A) (A) (A) (A) (A) (A) (A) (A) (A) (A) (A)
                 (A) (A) (A) (A) (A) (A) (A) (A) (A) (A) (A) (A)
                 (A) (A) (A) (A) (A) (A) (A) (A) (A) (A) (A) (A)
                 (A) (A) (A) (A) (A) (A) (A) (A) (A) (A) (A) (A)
                 (A) (A) (A) (A) (A) (A) (A) (A) (A) (A) (A) (A)
                 (A) (A) (A) (A) (A) (A) (A) (A) (A) (A) (A) (A)
                 (A) (A) (A) (A) (A) (A) (A) (A) (A) (A) (A) (A)
                 (A) (A) (A) (A) (A) (A) (A) (A) (A) (A) (A) (A)
                 (A) (A) (A) (A) (A) (A) (A) (A) (A) (A) (A) (A)
                 (A) (A) (A) (A) (A) (A) (A) (A) (A) (A) (A) (A)
                 (A) (A) (A) (A) (A) (A) (A) (A) (A) (A) (A) (A)
                 (A) (A) (A) (A) (A) (A) (A) (A) (A) (A) (A) (A)
                 (A) (A) (A) (A) (A) (A) (A) (A) (A) (A) (A) (A)
                 (A) (A) (A) (A) (A) (A) (A) (A) (A) (A) (A) (A)
                 (A) (A) (A) (A) (A) (A) (A) (A) (A) (A) (A) (A)
                 (A) (A) (A) (A) (A) (A) (A) (A) (A) (A) (A) (A)
                 (A) (A) (A) (A) (A) (A) (A) (A) (A) (A) (A) (A)
                 (A) (A) (A) (A) (A) (A) (A) (A) (A) (A) (A) (A)
                 (A) (A) (A) (A) (A) (A) (A) (A) (A) (A) (A) (A)
                 (A) (A) (A) (A) (A) (A) (A) (A) (A) (A) (A) (A)
                 (A) (A) (A) (A) (A) (A) (A) (A) (A) (A) (A) (A)
                 (A) (A) (A) (A) (A) (A) (A) (A) (A) (A) (A) (A)
                 (A) (A) (A) (A) (A) (A) (A) (A) (A) (A) (A) (A)
                 (A) (A) (A) (A) (A) (A) (A) (A) (A) (A) (A) (A)
                 (A) (A) (A) (A) (A) (A) (A) (A) (A) (A) (A) (A)
                 (A) (A) (A)
 The electronic state is 2-A.
 Alpha  occ. eigenvalues --  -25.28394 -25.28388 -25.28362 -25.28292 -25.27999
 Alpha  occ. eigenvalues --  -25.27925 -25.19507 -25.19474 -19.66165 -19.63326
 Alpha  occ. eigenvalues --  -19.63250 -14.76904 -14.76732 -10.80307 -10.80222
 Alpha  occ. eigenvalues --  -10.63766 -10.63702 -10.61013 -10.58869 -10.58281
 Alpha  occ. eigenvalues --  -10.58120 -10.57737 -10.57566 -10.57493 -10.57492
 Alpha  occ. eigenvalues --  -10.57362 -10.57178 -10.57029 -10.56810 -10.56400
 Alpha  occ. eigenvalues --  -10.56384 -10.56335 -10.56281 -10.56231 -10.56230
 Alpha  occ. eigenvalues --  -10.56091 -10.55997 -10.55982 -10.55872 -10.55845
 Alpha  occ. eigenvalues --  -10.55644 -10.55622 -10.55610 -10.55586 -10.55530
 Alpha  occ. eigenvalues --  -10.55474 -10.55435 -10.55420 -10.55399 -10.55364
 Alpha  occ. eigenvalues --  -10.55316 -10.55101 -10.55054 -10.54959 -10.54953
 Alpha  occ. eigenvalues --  -10.54908 -10.54688 -10.54489 -10.54202 -10.53542
 Alpha  occ. eigenvalues --  -10.53460  -7.11944  -1.46237  -1.46159  -1.37520
 Alpha  occ. eigenvalues --   -1.37453  -1.37066  -1.36983  -1.31319  -1.28114
 Alpha  occ. eigenvalues --   -1.18934  -1.16877  -1.16796  -1.08717  -1.06790
 Alpha  occ. eigenvalues --   -0.98579  -0.98387  -0.98022  -0.97888  -0.96879
 Alpha  occ. eigenvalues --   -0.92699  -0.91966  -0.91015  -0.90455  -0.90248
 Alpha  occ. eigenvalues --   -0.87779  -0.87083  -0.85995  -0.85967  -0.85832
 Alpha  occ. eigenvalues --   -0.85684  -0.85414  -0.85315  -0.84722  -0.83914
 Alpha  occ. eigenvalues --   -0.82372  -0.81133  -0.78908  -0.78703  -0.76129
 Alpha  occ. eigenvalues --   -0.75468  -0.74939  -0.73105  -0.72065  -0.71640
 Alpha  occ. eigenvalues --   -0.71320  -0.70948  -0.70594  -0.70040  -0.69103
 Alpha  occ. eigenvalues --   -0.69029  -0.68533  -0.68400  -0.68085  -0.68003
 Alpha  occ. eigenvalues --   -0.67446  -0.67139  -0.66214  -0.65627  -0.65478
 Alpha  occ. eigenvalues --   -0.65315  -0.64590  -0.63430  -0.62345  -0.61068
 Alpha  occ. eigenvalues --   -0.60494  -0.59827  -0.58785  -0.58464  -0.58262
 Alpha  occ. eigenvalues --   -0.57967  -0.57900  -0.57774  -0.57527  -0.57292
 Alpha  occ. eigenvalues --   -0.57125  -0.56551  -0.56014  -0.55572  -0.55303
 Alpha  occ. eigenvalues --   -0.54931  -0.54652  -0.54370  -0.53903  -0.53764
 Alpha  occ. eigenvalues --   -0.53687  -0.53534  -0.53518  -0.53319  -0.53050
 Alpha  occ. eigenvalues --   -0.52806  -0.52613  -0.51976  -0.51843  -0.51812
 Alpha  occ. eigenvalues --   -0.51764  -0.51505  -0.51265  -0.50968  -0.50557
 Alpha  occ. eigenvalues --   -0.50457  -0.50248  -0.49972  -0.49872  -0.49653
 Alpha  occ. eigenvalues --   -0.49611  -0.49435  -0.49370  -0.49189  -0.48885
 Alpha  occ. eigenvalues --   -0.48785  -0.48370  -0.48010  -0.47715  -0.47062
 Alpha  occ. eigenvalues --   -0.46737  -0.46347  -0.46235  -0.45997  -0.45960
 Alpha  occ. eigenvalues --   -0.45860  -0.45265  -0.44567  -0.43895  -0.43838
 Alpha  occ. eigenvalues --   -0.43554  -0.43243  -0.43129  -0.42420  -0.42273
[...]
 
              Baa    -0.0833   -11.178    -3.989    -3.729  1.0000 -0.0018 -0.0062
    31 C(13)  Bbb    -0.0802   -10.768    -3.842    -3.592  0.0018  1.0000  0.0004
              Bcc     0.1635    21.946     7.831     7.320  0.0062 -0.0004  1.0000
 
              Baa    -0.0605    -8.117    -2.896    -2.707 -0.1353  0.0261  0.9905
    32 C(13)  Bbb     0.0242     3.250     1.160     1.084  0.9860 -0.0945  0.1372
              Bcc     0.0363     4.867     1.737     1.623  0.0971  0.9952 -0.0129
 
              Baa    -0.0741    -9.947    -3.550    -3.318 -0.5616  0.8083 -0.1770
    33 C(13)  Bbb    -0.0687    -9.225    -3.292    -3.077  0.7900  0.5874  0.1756
              Bcc     0.1429    19.172     6.841     6.395 -0.2459  0.0412  0.9684
 
              Baa    -0.0215    -2.885    -1.029    -0.962 -0.2675  0.0405  0.9627
    34 C(13)  Bbb     0.0081     1.082     0.386     0.361  0.7446 -0.6254  0.2332
              Bcc     0.0134     1.803     0.643     0.601  0.6116  0.7792  0.1372
 
              Baa    -0.0172    -2.304    -0.822    -0.769  0.7942 -0.5552  0.2469
    35 C(13)  Bbb    -0.0158    -2.126    -0.759    -0.709  0.5416  0.8310  0.1269
              Bcc     0.0330     4.430     1.581     1.478 -0.2756  0.0329  0.9607
 
              Baa    -0.0131    -1.764    -0.629    -0.588 -0.2718  0.0461  0.9613
    36 C(13)  Bbb     0.0056     0.749     0.267     0.250  0.9095 -0.3140  0.2722
              Bcc     0.0076     1.015     0.362     0.338  0.3144  0.9483  0.0434
 
              Baa    -0.0216    -2.900    -1.035    -0.967  0.8434 -0.4684  0.2631
    37 C(13)  Bbb    -0.0197    -2.637    -0.941    -0.880  0.4574  0.8830  0.1055
              Bcc     0.0413     5.537     1.976     1.847 -0.2818  0.0314  0.9590
 
              Baa    -0.0122    -1.638    -0.584    -0.546 -0.2610  0.0558  0.9637
    38 C(13)  Bbb     0.0049     0.661     0.236     0.221  0.7726 -0.5864  0.2432
              Bcc     0.0073     0.976     0.348     0.326  0.5787  0.8081  0.1100
 
              Baa    -0.0177    -2.371    -0.846    -0.791  0.8608 -0.4326  0.2681
    39 C(13)  Bbb    -0.0153    -2.048    -0.731    -0.683  0.4331  0.8993  0.0603
              Bcc     0.0329     4.418     1.577     1.474 -0.2672  0.0642  0.9615
 
              Baa    -0.0011    -0.147    -0.052    -0.049  0.8424 -0.4690  0.2654
    40 C(13)  Bbb     0.0001     0.016     0.006     0.005  0.3605  0.8566  0.3692
              Bcc     0.0010     0.131     0.047     0.044 -0.4005 -0.2153  0.8906
 
              Baa    -0.0066    -3.301    -1.178    -1.101 -0.2994 -0.4274  0.8530
    41 F(19)  Bbb    -0.0062    -3.127    -1.116    -1.043  0.8949 -0.4358  0.0958
              Bcc     0.0128     6.427     2.293     2.144  0.3308  0.7921  0.5130
 
              Baa    -0.0021    -1.036    -0.370    -0.346  0.8373  0.1008  0.5374
    42 F(19)  Bbb    -0.0019    -0.957    -0.341    -0.319 -0.4322 -0.4799  0.7635
              Bcc     0.0040     1.993     0.711     0.665 -0.3348  0.8715  0.3582
 
              Baa    -0.0028    -1.407    -0.502    -0.469 -0.4839  0.8743  0.0385
    43 F(19)  Bbb    -0.0025    -1.261    -0.450    -0.420 -0.4376 -0.2798  0.8545
              Bcc     0.0053     2.667     0.952     0.890  0.7579  0.3966  0.5180
 
              Baa    -0.0668    -8.963    -3.198    -2.990  0.0685 -0.0016  0.9976
    44 C(13)  Bbb     0.0331     4.448     1.587     1.484 -0.5492  0.8348  0.0391
              Bcc     0.0336     4.516     1.611     1.506  0.8329  0.5506 -0.0563
 
              Baa    -0.0826   -11.084    -3.955    -3.697  0.4430  0.8963 -0.0205
    45 C(13)  Bbb    -0.0818   -10.978    -3.917    -3.662  0.8943 -0.4434 -0.0604
              Bcc     0.1644    22.062     7.872     7.359  0.0632 -0.0084  0.9980
 
              Baa    -0.0996   -13.364    -4.768    -4.458  0.0245  0.0509  0.9984
    46 C(13)  Bbb     0.0424     5.695     2.032     1.900 -0.5667  0.8235 -0.0280
              Bcc     0.0571     7.669     2.736     2.558  0.8236  0.5651 -0.0490
 
              Baa    -0.0044    -0.584    -0.208    -0.195  0.1252  0.7412 -0.6595
    47 C(13)  Bbb    -0.0019    -0.253    -0.090    -0.084  0.9855 -0.1694 -0.0033
              Bcc     0.0062     0.837     0.299     0.279  0.1141  0.6496  0.7517
 
              Baa    -0.0083    -1.117    -0.398    -0.372 -0.0831  0.7351  0.6728
    48 C(13)  Bbb     0.0032     0.431     0.154     0.144  0.1591 -0.6567  0.7372
              Bcc     0.0051     0.686     0.245     0.229  0.9838  0.1683 -0.0624
 
              Baa    -0.0018    -0.239    -0.085    -0.080  0.3859  0.6721 -0.6319
    49 C(13)  Bbb    -0.0010    -0.138    -0.049    -0.046  0.9219 -0.3073  0.2360
              Bcc     0.0028     0.377     0.135     0.126  0.0356  0.6736  0.7382
 
              Baa    -0.0070    -0.936    -0.334    -0.312  0.1689  0.6114  0.7731
    50 C(13)  Bbb     0.0032     0.425     0.152     0.142  0.0981  0.7701 -0.6304
              Bcc     0.0038     0.511     0.182     0.170  0.9807 -0.1823 -0.0701
 
              Baa    -0.0005    -0.068    -0.024    -0.023 -0.4196 -0.5456  0.7254
    51 C(13)  Bbb    -0.0000    -0.004    -0.001    -0.001 -0.6909  0.7103  0.1347
              Bcc     0.0005     0.072     0.026     0.024  0.5888  0.4447  0.6750
 
              Baa    -0.0107     0.774     0.276     0.258  0.0662  0.6881  0.7226
    52 O(17)  Bbb     0.0051    -0.366    -0.131    -0.122 -0.1735  0.7211 -0.6708
              Bcc     0.0056    -0.408    -0.145    -0.136  0.9826  0.0810 -0.1671
 
              Baa    -0.0017    -0.231    -0.082    -0.077 -0.1449  0.7025 -0.6967
    53 C(13)  Bbb    -0.0006    -0.085    -0.030    -0.028  0.9767 -0.0112 -0.2145
              Bcc     0.0024     0.316     0.113     0.105  0.1585  0.7116  0.6845
 
              Baa    -0.0080    -1.077    -0.384    -0.359  0.2237  0.8583  0.4618
    54 C(13)  Bbb     0.0028     0.377     0.135     0.126 -0.1516 -0.4374  0.8864
              Bcc     0.0052     0.700     0.250     0.233  0.9628 -0.2683  0.0323
 
              Baa    -0.0037    -0.493    -0.176    -0.164  0.1055 -0.6359  0.7645
    55 C(13)  Bbb    -0.0009    -0.118    -0.042    -0.039  0.9849  0.1730  0.0080
              Bcc     0.0045     0.610     0.218     0.204 -0.1374  0.7521  0.6445
 
              Baa    -0.0058    -0.777    -0.277    -0.259 -0.2663  0.8481  0.4581
    56 C(13)  Bbb     0.0015     0.206     0.074     0.069 -0.0366 -0.4839  0.8744
              Bcc     0.0043     0.571     0.204     0.190  0.9632  0.2161  0.1599
 
              Baa    -0.0018    -0.248    -0.088    -0.083 -0.2080 -0.6020  0.7709
    57 C(13)  Bbb    -0.0007    -0.089    -0.032    -0.030  0.9781 -0.1357  0.1580
              Bcc     0.0025     0.337     0.120     0.112  0.0095  0.7869  0.6170
 
              Baa    -0.0048    -0.650    -0.232    -0.217 -0.1499  0.7231  0.6743
    58 C(13)  Bbb     0.0020     0.273     0.097     0.091  0.0191 -0.6798  0.7332
              Bcc     0.0028     0.377     0.135     0.126  0.9885  0.1228  0.0881
 
              Baa    -0.0004    -0.056    -0.020    -0.019 -0.1340 -0.5983  0.7900
    59 C(13)  Bbb     0.0000     0.001     0.000     0.000  0.7430  0.4668  0.4796
              Bcc     0.0004     0.056     0.020     0.019  0.6557 -0.6512 -0.3820
 
              Baa    -0.0069     0.501     0.179     0.167 -0.0662  0.7350  0.6749
    60 O(17)  Bbb     0.0032    -0.231    -0.082    -0.077  0.2527 -0.6419  0.7239
              Bcc     0.0037    -0.271    -0.097    -0.090  0.9653  0.2185 -0.1432
 
              Baa    -0.0013    -0.178    -0.064    -0.059  0.3093 -0.5913  0.7448
    61 C(13)  Bbb    -0.0005    -0.069    -0.025    -0.023  0.9509  0.1952 -0.2400
              Bcc     0.0018     0.247     0.088     0.083 -0.0035  0.7825  0.6226
 
              Baa    -0.0057    -0.764    -0.273    -0.255  0.1610  0.7504  0.6411
    62 C(13)  Bbb     0.0021     0.277     0.099     0.092 -0.1826 -0.6157  0.7665
              Bcc     0.0036     0.487     0.174     0.163  0.9699 -0.2405  0.0379
 
              Baa    -0.0004    -0.220    -0.078    -0.073  0.3314 -0.1691  0.9282
    63 H(1)   Bbb    -0.0004    -0.199    -0.071    -0.067  0.9234 -0.1439 -0.3559
              Bcc     0.0008     0.419     0.150     0.140  0.1937  0.9750  0.1085
 
              Baa    -0.0006    -0.298    -0.106    -0.099 -0.4785  0.1069  0.8716
    64 H(1)   Bbb    -0.0003    -0.173    -0.062    -0.058  0.7425 -0.4806  0.4666
              Bcc     0.0009     0.471     0.168     0.157  0.4688  0.8704  0.1506
 
              Baa    -0.0005    -0.272    -0.097    -0.091  0.9327  0.0074 -0.3605
    65 H(1)   Bbb    -0.0004    -0.196    -0.070    -0.065  0.3234 -0.4592  0.8274
              Bcc     0.0009     0.468     0.167     0.156  0.1594  0.8883  0.4307
 
              Baa    -0.0011    -0.610    -0.218    -0.204  0.8027 -0.0711 -0.5921
    66 H(1)   Bbb    -0.0002    -0.129    -0.046    -0.043  0.5964  0.1002  0.7964
              Bcc     0.0014     0.740     0.264     0.247 -0.0027  0.9924 -0.1229
 
              Baa    -0.0032    -1.693    -0.604    -0.565 -0.6170  0.2993  0.7279
    67 H(1)   Bbb    -0.0005    -0.246    -0.088    -0.082  0.4381  0.8989  0.0017
              Bcc     0.0036     1.939     0.692     0.647  0.6538 -0.3199  0.6857
 
              Baa    -0.0032    -1.729    -0.617    -0.577 -0.6440 -0.1184  0.7558
    68 H(1)   Bbb    -0.0004    -0.213    -0.076    -0.071 -0.3024  0.9469 -0.1093
              Bcc     0.0036     1.942     0.693     0.648  0.7027  0.2990  0.6456
 
              Baa    -0.0012    -0.627    -0.224    -0.209  0.8192 -0.0909 -0.5662
    69 H(1)   Bbb    -0.0003    -0.165    -0.059    -0.055  0.5629 -0.0609  0.8243
              Bcc     0.0015     0.792     0.283     0.264  0.1094  0.9940 -0.0013
 
              Baa    -0.0094    -5.007    -1.787    -1.670  0.9165 -0.3999 -0.0087
    70 H(1)   Bbb    -0.0025    -1.328    -0.474    -0.443  0.0623  0.1211  0.9907
              Bcc     0.0119     6.335     2.261     2.113  0.3952  0.9085 -0.1359
 
              Baa    -0.0028    -1.468    -0.524    -0.490  0.8068  0.3344  0.4870
    71 H(1)   Bbb    -0.0023    -1.228    -0.438    -0.410 -0.4575 -0.1679  0.8732
              Bcc     0.0051     2.696     0.962     0.899 -0.3738  0.9273 -0.0175
 
              Baa    -0.0053    -2.823    -1.007    -0.942 -0.5025  0.8487  0.1651
    72 H(1)   Bbb    -0.0019    -1.031    -0.368    -0.344  0.3674  0.0367  0.9293
              Bcc     0.0072     3.854     1.375     1.286  0.7826  0.5276 -0.3303
 
              Baa    -0.0010    -0.538    -0.192    -0.179  0.3897  0.2789  0.8777
    73 H(1)   Bbb    -0.0004    -0.219    -0.078    -0.073 -0.5076  0.8602 -0.0479
              Bcc     0.0014     0.757     0.270     0.252  0.7684  0.4269 -0.4768
 
              Baa    -0.0006    -0.314    -0.112    -0.105  0.4380  0.1741  0.8820
    74 H(1)   Bbb    -0.0002    -0.092    -0.033    -0.031  0.8874  0.0734 -0.4552
              Bcc     0.0008     0.406     0.145     0.135 -0.1440  0.9820 -0.1223
 
              Baa    -0.0006    -0.332    -0.119    -0.111  0.3966  0.1743  0.9013
    75 H(1)   Bbb    -0.0003    -0.182    -0.065    -0.061  0.7794  0.4548 -0.4309
              Bcc     0.0010     0.515     0.184     0.172 -0.4850  0.8734  0.0445
 
              Baa    -0.0011    -0.596    -0.213    -0.199  0.4336  0.7301  0.5281
    76 H(1)   Bbb    -0.0008    -0.448    -0.160    -0.149  0.0007 -0.5863  0.8101
              Bcc     0.0020     1.044     0.372     0.348  0.9011 -0.3509 -0.2548
 
              Baa    -0.0032    -1.728    -0.616    -0.576  0.9076 -0.3125 -0.2803
    77 H(1)   Bbb    -0.0021    -1.141    -0.407    -0.381  0.2535 -0.1242  0.9593
              Bcc     0.0054     2.869     1.024     0.957  0.3346  0.9418  0.0336
 
              Baa    -0.0077    -4.131    -1.474    -1.378  0.0270  0.9996  0.0112
    78 H(1)   Bbb    -0.0017    -0.892    -0.318    -0.298 -0.2253 -0.0048  0.9743
              Bcc     0.0094     5.023     1.792     1.676  0.9739 -0.0288  0.2251
 
              Baa    -0.0011    -0.585    -0.209    -0.195  0.7794  0.6179  0.1035
    79 H(1)   Bbb    -0.0010    -0.539    -0.192    -0.180 -0.1723  0.0525  0.9836
              Bcc     0.0021     1.124     0.401     0.375 -0.6024  0.7845 -0.1474
 
              Baa    -0.0007    -0.386    -0.138    -0.129 -0.2452  0.0677  0.9671
    80 H(1)   Bbb    -0.0003    -0.147    -0.052    -0.049  0.9381 -0.2351  0.2543
              Bcc     0.0010     0.533     0.190     0.178  0.2446  0.9696 -0.0059
 
              Baa    -0.0008    -0.407    -0.145    -0.136 -0.2312  0.0613  0.9710
    81 H(1)   Bbb    -0.0003    -0.181    -0.065    -0.060  0.7634 -0.6073  0.2201
              Bcc     0.0011     0.588     0.210     0.196  0.6032  0.7921  0.0936
 
              Baa    -0.0013    -0.708    -0.253    -0.236 -0.2137  0.1444  0.9662
    82 H(1)   Bbb    -0.0006    -0.311    -0.111    -0.104  0.0554  0.9892 -0.1356
              Bcc     0.0019     1.020     0.364     0.340  0.9753 -0.0246  0.2194
 
              Baa    -0.0094    -5.014    -1.789    -1.672  0.9480  0.3047 -0.0916
    83 H(1)   Bbb    -0.0024    -1.261    -0.450    -0.421  0.1029 -0.0215  0.9945
              Bcc     0.0118     6.275     2.239     2.093 -0.3010  0.9522  0.0517
 
              Baa    -0.0016    -0.860    -0.307    -0.287  0.3688  0.8151 -0.4469
    84 H(1)   Bbb    -0.0010    -0.542    -0.193    -0.181 -0.1172  0.5177  0.8475
              Bcc     0.0026     1.403     0.500     0.468  0.9221 -0.2602  0.2864
 
              Baa    -0.0004    -0.210    -0.075    -0.070 -0.4272 -0.3397  0.8379
    85 H(1)   Bbb    -0.0002    -0.108    -0.038    -0.036  0.2376  0.8520  0.4665
              Bcc     0.0006     0.318     0.113     0.106  0.8724 -0.3984  0.2833
 
              Baa    -0.0001    -0.072    -0.026    -0.024  0.0497 -0.3099  0.9495
    86 H(1)   Bbb    -0.0001    -0.045    -0.016    -0.015  0.0865  0.9484  0.3050
              Bcc     0.0002     0.117     0.042     0.039  0.9950 -0.0670 -0.0740
 
              Baa    -0.0004    -0.197    -0.070    -0.066  0.4237 -0.4138  0.8058
    87 H(1)   Bbb    -0.0002    -0.092    -0.033    -0.031  0.0453  0.8981  0.4374
              Bcc     0.0005     0.289     0.103     0.096  0.9047  0.1488 -0.3993
 
              Baa    -0.0016    -0.839    -0.299    -0.280  0.4014 -0.3066  0.8631
    88 H(1)   Bbb    -0.0007    -0.398    -0.142    -0.133  0.0554  0.9487  0.3112
              Bcc     0.0023     1.237     0.441     0.413  0.9142  0.0771 -0.3978
 
              Baa    -0.0019    -1.034    -0.369    -0.345 -0.4549 -0.5122  0.7285
    89 H(1)   Bbb    -0.0002    -0.126    -0.045    -0.042 -0.2164  0.8571  0.4675
              Bcc     0.0022     1.160     0.414     0.387  0.8639 -0.0550  0.5007
 
              Baa    -0.0005    -0.253    -0.090    -0.084 -0.4495 -0.3093  0.8380
    90 H(1)   Bbb    -0.0002    -0.098    -0.035    -0.033 -0.0832  0.9486  0.3055
              Bcc     0.0007     0.351     0.125     0.117  0.8894 -0.0676  0.4521
 
              Baa    -0.0002    -0.089    -0.032    -0.030 -0.0481 -0.3247  0.9446
    91 H(1)   Bbb    -0.0001    -0.062    -0.022    -0.021 -0.1678  0.9349  0.3128
              Bcc     0.0003     0.151     0.054     0.050  0.9846  0.1435  0.0994
 
              Baa    -0.0004    -0.204    -0.073    -0.068  0.3698 -0.1714  0.9131
    92 H(1)   Bbb    -0.0002    -0.112    -0.040    -0.037 -0.2311  0.9350  0.2691
              Bcc     0.0006     0.316     0.113     0.105  0.8999  0.3105 -0.3062
 
              Baa    -0.0014    -0.723    -0.258    -0.241 -0.3486  0.7258 -0.5930
    93 H(1)   Bbb    -0.0010    -0.512    -0.183    -0.171  0.1514  0.6680  0.7286
              Bcc     0.0023     1.235     0.441     0.412  0.9250  0.1642 -0.3428
 

 ---------------------------------------------------------------------------------

 No NMR shielding tensors so no spin-rotation constants.
 Leave Link  601 at Fri Nov  7 19:29:48 2025, MaxMem= 30870077440 cpu:             254.4 elap:               4.5
 (Enter /public/software/gauss/g16/l9999.exe)
 1\1\GINC-CU015\SP\UM062X\def2TZVPP\C48H31B1F8N2O3(1-,2)\BAIDING\07-Nov
 -2025\0\\#p M062X/DEF2TZVPP scrf=(solvent=water) em=GD3\\Energy calcul
 ation for M100039985_reduced\\-1,2\C,0,-0.906455,-9.887908,-0.220806\O
 ,0,-0.111335,-9.07112,0.643318\C,0,-0.13597,-7.71363,0.444376\C,0,0.65
 1546,-6.950884,1.319441\C,0,0.692319,-5.568151,1.197876\C,0,-0.0448,-4
 .893714,0.201384\C,0,-0.825667,-5.680345,-0.662867\C,0,-0.879661,-7.07
 1111,-0.551787\C,0,0.000024,-3.419494,0.072424\C,0,-1.19972,-2.662266,
 0.009501\C,0,-2.547878,-3.064604,0.091511\C,0,-3.353442,-1.92118,-0.02
 2816\C,0,-2.477417,-0.805268,-0.141777\C,0,-2.729837,0.611562,-0.21881
 1\C,0,-3.844649,1.263818,0.20368\C,0,-4.086498,2.698131,0.095973\C,0,-
 5.245497,3.236902,0.695825\C,0,-5.531425,4.595497,0.633931\C,0,-4.6613
 19,5.45997,-0.03861\C,0,-3.505718,4.948824,-0.64425\C,0,-3.225721,3.59
 0739,-0.582218\C,0,-4.93333,6.931491,-0.064761\F,0,-4.435625,7.527978,
 -1.174858\F,0,-4.376741,7.580195,0.994025\F,0,-6.258065,7.212027,-0.02
 3502\N,0,-1.174571,-1.284229,-0.12862\B,0,0.101063,-0.412753,-0.04979\
 F,0,0.13727,0.441126,-1.181019\F,0,0.078184,0.384053,1.109017\N,0,1.33
 3136,-1.347586,-0.052445\C,0,2.678511,-0.992994,-0.09643\C,0,3.260359,
 0.317959,-0.02591\C,0,2.711137,1.558921,-0.157593\C,0,3.437171,2.81517
 ,-0.015842\C,0,4.797094,2.911203,0.362057\C,0,5.428249,4.142437,0.4698
 13\C,0,4.722887,5.324811,0.206825\C,0,3.374998,5.257751,-0.16134\C,0,2
 .748258,4.022501,-0.270397\C,0,5.394055,6.649653,0.385608\F,0,5.333081
 ,7.093063,1.671268\F,0,4.833955,7.620525,-0.374815\F,0,6.711137,6.6068
 27,0.067558\C,0,3.446595,-2.197041,-0.082754\C,0,2.548871,-3.266089,-0
 .006329\C,0,1.243435,-2.736759,0.017541\C,0,4.907242,-2.343678,-0.1569
 56\C,0,5.546253,-3.343494,0.605923\C,0,6.920382,-3.529031,0.530975\C,0
 ,7.701609,-2.71989,-0.309979\C,0,9.150748,-2.931274,-0.370381\O,0,9.92
 7222,-2.285202,-1.072147\C,0,7.075348,-1.727342,-1.083456\C,0,5.702155
 ,-1.546392,-1.012176\C,0,-4.823528,-1.971243,-0.094408\C,0,-5.550055,-
 1.231691,-1.049213\C,0,-6.930996,-1.348881,-1.136275\C,0,-7.629584,-2.
 211952,-0.275387\C,0,-9.086747,-2.316365,-0.386086\O,0,-9.796741,-3.03
 3695,0.317487\C,0,-6.913553,-2.960946,0.674466\C,0,-5.534645,-2.842684
 ,0.760277\H,0,-0.746461,-10.914999,0.109737\H,0,-1.970326,-9.640559,-0
 .136153\H,0,-0.5909,-9.789299,-1.265239\H,0,1.216081,-7.458201,2.09562
 3\H,0,1.292184,-4.995155,1.897447\H,0,-1.391506,-5.200009,-1.454586\H,
 0,-1.489048,-7.636319,-1.246554\H,0,-2.900436,-4.082102,0.170649\H,0,-
 1.911296,1.191173,-0.633562\H,0,-4.639879,0.702362,0.685494\H,0,-5.927
 466,2.570961,1.216643\H,0,-6.430533,4.982504,1.101637\H,0,-2.832459,5.
 614591,-1.173882\H,0,-2.334234,3.218336,-1.075444\H,0,4.328389,0.27101
 7,0.166024\H,0,1.665092,1.662147,-0.412572\H,0,5.368659,2.014689,0.577
 186\H,0,6.473517,4.18832,0.757599\H,0,2.82041,6.167097,-0.367149\H,0,1
 .702852,3.979866,-0.56223\H,0,2.801906,-4.315531,-0.019414\H,0,4.95340
 3,-3.961968,1.271866\H,0,7.400937,-4.297924,1.130284\H,0,9.531163,-3.7
 42695,0.279857\H,0,7.676955,-1.11462,-1.747425\H,0,5.228369,-0.803014,
 -1.643492\H,0,-5.021058,-0.574419,-1.730168\H,0,-7.479755,-0.779061,-1
 .881771\H,0,-9.541073,-1.685042,-1.174216\H,0,-7.452562,-3.627313,1.34
 0626\H,0,-4.988955,-3.416613,1.502509\\Version=ES64L-G16RevA.03\State=
 2-A\HF=-3006.9644008\S2=0.789553\S2-1=0.\S2A=0.751256\RMSD=6.091e-09\D
 ipole=-1.015225,-3.0316305,-0.4913891\Quadrupole=-63.6433836,14.036967
 1,49.6064165,-20.4658758,25.9752794,-2.5730984\PG=C01 [X(C48H31B1F8N2O
 3)]\\@


 KINETICS       FACT
 ---------  =  -------
 MECHANISM     FICTION
 Job cpu time:       1 days 23 hours 11 minutes  6.4 seconds.
 Elapsed time:       0 days  0 hours 44 minutes 48.5 seconds.
 File lengths (MBytes):  RWF=   5926 Int=      0 D2E=      0 Chk=    385 Scr=      1
 Normal termination of Gaussian 16 at Fri Nov  7 19:29:50 2025.
