 Entering Gaussian System, Link 0=g16
 Input=M100035172_reduced_sp.gjf
 Output=M100035172_reduced_sp.log
 Initial command:
 /public/software/gauss/g16/l1.exe "/public/home/baiding/1101_v2_sp/tmp_M100035172_reduced_sp_1568608/Gau-9021.inp" -scrdir="/public/home/baiding/1101_v2_sp/tmp_M100035172_reduced_sp_1568608/"
 Entering Link 1 = /public/software/gauss/g16/l1.exe PID=      9022.
  
 Copyright (c) 1988,1990,1992,1993,1995,1998,2003,2009,2016,
            Gaussian, Inc.  All Rights Reserved.
  
 This is part of the Gaussian(R) 16 program.  It is based on
 the Gaussian(R) 09 system (copyright 2009, Gaussian, Inc.),
 the Gaussian(R) 03 system (copyright 2003, Gaussian, Inc.),
 the Gaussian(R) 98 system (copyright 1998, Gaussian, Inc.),
 the Gaussian(R) 94 system (copyright 1995, Gaussian, Inc.),
 the Gaussian 92(TM) system (copyright 1992, Gaussian, Inc.),
 the Gaussian 90(TM) system (copyright 1990, Gaussian, Inc.),
 the Gaussian 88(TM) system (copyright 1988, Gaussian, Inc.),
 the Gaussian 86(TM) system (copyright 1986, Carnegie Mellon
 University), and the Gaussian 82(TM) system (copyright 1983,
 Carnegie Mellon University). Gaussian is a federally registered
 trademark of Gaussian, Inc.
  
 This software contains proprietary and confidential information,
 including trade secrets, belonging to Gaussian, Inc.
  
 This software is provided under written license and may be
 used, copied, transmitted, or stored only in accord with that
 written license.
  
 The following legend is applicable only to US Government
 contracts under FAR:
  
                    RESTRICTED RIGHTS LEGEND
  
 Use, reproduction and disclosure by the US Government is
 subject to restrictions as set forth in subparagraphs (a)
 and (c) of the Commercial Computer Software - Restricted
 Rights clause in FAR 52.227-19.
  
 Gaussian, Inc.
 340 Quinnipiac St., Bldg. 40, Wallingford CT 06492
  
  
 ---------------------------------------------------------------
 Warning -- This program may not be used in any manner that
 competes with the business of Gaussian, Inc. or will provide
 assistance to any competitor of Gaussian, Inc.  The licensee
 of this program is prohibited from giving any competitor of
 Gaussian, Inc. access to this program.  By using this program,
 the user acknowledges that Gaussian, Inc. is engaged in the
 business of creating and licensing software in the field of
 computational chemistry and represents and warrants to the
 licensee that it is not a competitor of Gaussian, Inc. and that
 it will not use this program in any manner prohibited above.
 ---------------------------------------------------------------
  

 Cite this work as:
 Gaussian 16, Revision A.03,
 M. J. Frisch, G. W. Trucks, H. B. Schlegel, G. E. Scuseria, 
 M. A. Robb, J. R. Cheeseman, G. Scalmani, V. Barone, 
 G. A. Petersson, H. Nakatsuji, X. Li, M. Caricato, A. V. Marenich, 
 J. Bloino, B. G. Janesko, R. Gomperts, B. Mennucci, H. P. Hratchian, 
 J. V. Ortiz, A. F. Izmaylov, J. L. Sonnenberg, D. Williams-Young, 
 F. Ding, F. Lipparini, F. Egidi, J. Goings, B. Peng, A. Petrone, 
 T. Henderson, D. Ranasinghe, V. G. Zakrzewski, J. Gao, N. Rega, 
 G. Zheng, W. Liang, M. Hada, M. Ehara, K. Toyota, R. Fukuda, 
 J. Hasegawa, M. Ishida, T. Nakajima, Y. Honda, O. Kitao, H. Nakai, 
 T. Vreven, K. Throssell, J. A. Montgomery, Jr., J. E. Peralta, 
 F. Ogliaro, M. J. Bearpark, J. J. Heyd, E. N. Brothers, K. N. Kudin, 
 V. N. Staroverov, T. A. Keith, R. Kobayashi, J. Normand, 
 K. Raghavachari, A. P. Rendell, J. C. Burant, S. S. Iyengar, 
 J. Tomasi, M. Cossi, J. M. Millam, M. Klene, C. Adamo, R. Cammi, 
 J. W. Ochterski, R. L. Martin, K. Morokuma, O. Farkas, 
 J. B. Foresman, and D. J. Fox, Gaussian, Inc., Wallingford CT, 2016.
 
 ******************************************
 Gaussian 16:  ES64L-G16RevA.03 25-Dec-2016
                 7-Nov-2025 
 ******************************************
 %nprocshared=64
 Will use up to   64 processors via shared memory.
 %mem=230GB
 %chk=M100035172_reduced_sp.chk
 ----------------------------------------------
 #p M062X/DEF2TZVPP scrf=(solvent=water) em=GD3
 ----------------------------------------------
 1/38=1,172=1/1;
 2/12=2,17=6,18=5,40=1/2;
 3/5=44,7=202,11=2,25=1,30=1,70=2201,72=1,74=-55,124=31/1,2,3;
 4//1;
 5/5=2,38=5,53=1/2;
 6/7=2,8=2,9=2,10=2,28=1/1;
 99/5=1,9=1/99;
 Leave Link    1 at Fri Nov  7 05:11:15 2025, MaxMem= 30870077440 cpu:              21.0 elap:               0.3
 (Enter /public/software/gauss/g16/l101.exe)
 -----------------------------------------
 Energy calculation for M100035172_reduced
 -----------------------------------------
 Symbolic Z-matrix:
 Charge = -1 Multiplicity = 2
 C                     1.56626   7.08339  -0.85462 
 C                     1.12422   5.66558  -0.58443 
 C                     0.79078   4.80288  -1.6338 
 C                     0.3503    3.494    -1.40355 
 C                     0.00618   2.60171  -2.57323 
 C                     0.23946   3.02667  -0.07517 
 C                    -0.22562   1.63286   0.19662 
 C                     0.71113   0.57186   0.29945 
 C                     2.10395   0.54992   0.14936 
 C                     2.5331   -0.79914   0.33024 
 C                     3.848    -1.3734    0.27194 
 C                     5.00081  -0.6912    0.02053 
 C                     6.33394  -1.2492   -0.04532 
 C                     7.42318  -0.38026  -0.31204 
 C                     8.72324  -0.84325  -0.38855 
 C                     8.97079  -2.2104   -0.19762 
 N                     10.31409  -2.70283  -0.27472 
 O                     11.2391  -1.90157  -0.50994 
 O                     10.52335  -3.91958  -0.1045 
 C                     7.91953  -3.10346   0.06705 
 C                     6.62572  -2.62643   0.14069 
 C                     1.3694   -1.54399   0.58832 
 N                     0.28341  -0.73894   0.57262 
 B                    -1.16662  -1.16758   0.89577 
 F                    -1.54263  -2.26226   0.10406 
 F                    -1.27796  -1.53679   2.24879 
 N                    -2.06435   0.05379   0.59459 
 C                    -3.41922   0.06535   0.63369 
 C                    -3.89808   1.36762   0.40399 
 C                    -5.24544   1.89663   0.4353 
 C                    -6.48722   1.33899   0.37197 
 C                    -6.94412  -0.01355   0.07883 
 C                    -6.20661  -0.96415  -0.66646 
 C                    -6.72583  -2.21467  -0.95345 
 C                    -8.00723  -2.54583  -0.49369 
 N                    -8.54578  -3.85092  -0.77987 
 O                    -9.69665  -4.12262  -0.39721 
 O                    -7.84383  -4.66593  -1.40234 
 C                    -8.77916  -1.6256    0.22579 
 C                    -8.25003  -0.37499   0.4923 
 C                    -2.73833   2.1791    0.22667 
 C                    -1.61219   1.35348   0.33153 
 C                     0.5758    3.88203   0.99754 
 C                     0.47328   3.40992   2.4291 
 C                     1.01242   5.18362   0.72409 
 H                     2.25102   7.44321  -0.08075 
 H                     2.06683   7.16832  -1.82379 
 H                     0.70884   7.76821  -0.8716 
 H                     0.87717   5.15468  -2.65948 
 H                     0.61742   1.69249  -2.57713 
 H                    -1.04077   2.28066  -2.53805 
 H                     0.16806   3.12234  -3.5208 
 H                     2.72265   1.40678  -0.07601 
 H                     3.88911  -2.44669   0.44833 
 H                     4.94038   0.3817   -0.15118 
 H                     7.22615   0.67723  -0.45922 
 H                     9.54451  -0.16798  -0.5924 
 H                     8.13052  -4.15562   0.21033 
 H                     5.82579  -3.3293    0.3442 
 H                     1.28016  -2.60475   0.78273 
 H                    -3.96552  -0.8355    0.86997 
 H                    -5.2578    2.97713   0.57755 
 H                    -7.30576   2.02866   0.56948 
 H                    -5.22537  -0.70751  -1.04537 
 H                    -6.15863  -2.9302   -1.53514 
 H                    -9.77217  -1.89483   0.56248 
 H                    -8.84643   0.34722   1.04117 
 H                    -2.72829   3.24187   0.0272 
 H                     1.13044   2.5535    2.6169 
 H                     0.75134   4.20749   3.12317 
 H                    -0.54519   3.08801   2.67275 
 H                     1.27218   5.83554   1.55526 
 
 ITRead=  0  0  0  0  0  0  0  0  0  0  0  0  0  0  0  0  0  0  0  0
 ITRead=  0  0  0  0  0  0  0  0  0  0  0  0  0  0  0  0  0  0  0  0
 ITRead=  0  0  0  0  0  0  0  0  0  0  0  0  0  0  0  0  0  0  0  0
 ITRead=  0  0  0  0  0  0  0  0  0  0  0  0
 MicOpt= -1 -1 -1 -1 -1 -1 -1 -1 -1 -1 -1 -1 -1 -1 -1 -1 -1 -1 -1 -1
 MicOpt= -1 -1 -1 -1 -1 -1 -1 -1 -1 -1 -1 -1 -1 -1 -1 -1 -1 -1 -1 -1
 MicOpt= -1 -1 -1 -1 -1 -1 -1 -1 -1 -1 -1 -1 -1 -1 -1 -1 -1 -1 -1 -1
 MicOpt= -1 -1 -1 -1 -1 -1 -1 -1 -1 -1 -1 -1
 NAtoms=     72 NQM=       72 NQMF=       0 NMMI=      0 NMMIF=      0
                NMic=       0 NMicF=      0.
                    Isotopes and Nuclear Properties:
 (Nuclear quadrupole moments (NQMom) in fm**2, nuclear magnetic moments (NMagM)
  in nuclear magnetons)

  Atom         1           2           3           4           5           6           7           8           9          10
 IAtWgt=          12          12          12          12          12          12          12          12          12          12
 AtmWgt=  12.0000000  12.0000000  12.0000000  12.0000000  12.0000000  12.0000000  12.0000000  12.0000000  12.0000000  12.0000000
 NucSpn=           0           0           0           0           0           0           0           0           0           0
 AtZEff=  -0.0000000  -0.0000000  -0.0000000  -0.0000000  -0.0000000  -0.0000000  -0.0000000  -0.0000000  -0.0000000  -0.0000000
 NQMom=    0.0000000   0.0000000   0.0000000   0.0000000   0.0000000   0.0000000   0.0000000   0.0000000   0.0000000   0.0000000
 NMagM=    0.0000000   0.0000000   0.0000000   0.0000000   0.0000000   0.0000000   0.0000000   0.0000000   0.0000000   0.0000000
 AtZNuc=   6.0000000   6.0000000   6.0000000   6.0000000   6.0000000   6.0000000   6.0000000   6.0000000   6.0000000   6.0000000

  Atom        11          12          13          14          15          16          17          18          19          20
 IAtWgt=          12          12          12          12          12          12          14          16          16          12
 AtmWgt=  12.0000000  12.0000000  12.0000000  12.0000000  12.0000000  12.0000000  14.0030740  15.9949146  15.9949146  12.0000000
 NucSpn=           0           0           0           0           0           0           2           0           0           0
 AtZEff=  -0.0000000  -0.0000000  -0.0000000  -0.0000000  -0.0000000  -0.0000000  -0.0000000  -0.0000000  -0.0000000  -0.0000000
 NQMom=    0.0000000   0.0000000   0.0000000   0.0000000   0.0000000   0.0000000   2.0440000   0.0000000   0.0000000   0.0000000
 NMagM=    0.0000000   0.0000000   0.0000000   0.0000000   0.0000000   0.0000000   0.4037610   0.0000000   0.0000000   0.0000000
 AtZNuc=   6.0000000   6.0000000   6.0000000   6.0000000   6.0000000   6.0000000   7.0000000   8.0000000   8.0000000   6.0000000

  Atom        21          22          23          24          25          26          27          28          29          30
 IAtWgt=          12          12          14          11          19          19          14          12          12          12
 AtmWgt=  12.0000000  12.0000000  14.0030740  11.0093053  18.9984033  18.9984033  14.0030740  12.0000000  12.0000000  12.0000000
 NucSpn=           0           0           2           3           1           1           2           0           0           0
 AtZEff=  -0.0000000  -0.0000000  -0.0000000  -0.0000000  -0.0000000  -0.0000000  -0.0000000  -0.0000000  -0.0000000  -0.0000000
 NQMom=    0.0000000   0.0000000   2.0440000   4.0590000   0.0000000   0.0000000   2.0440000   0.0000000   0.0000000   0.0000000
 NMagM=    0.0000000   0.0000000   0.4037610   2.6886370   2.6288670   2.6288670   0.4037610   0.0000000   0.0000000   0.0000000
 AtZNuc=   6.0000000   6.0000000   7.0000000   5.0000000   9.0000000   9.0000000   7.0000000   6.0000000   6.0000000   6.0000000

  Atom        31          32          33          34          35          36          37          38          39          40
 IAtWgt=          12          12          12          12          12          14          16          16          12          12
 AtmWgt=  12.0000000  12.0000000  12.0000000  12.0000000  12.0000000  14.0030740  15.9949146  15.9949146  12.0000000  12.0000000
 NucSpn=           0           0           0           0           0           2           0           0           0           0
 AtZEff=  -0.0000000  -0.0000000  -0.0000000  -0.0000000  -0.0000000  -0.0000000  -0.0000000  -0.0000000  -0.0000000  -0.0000000
 NQMom=    0.0000000   0.0000000   0.0000000   0.0000000   0.0000000   2.0440000   0.0000000   0.0000000   0.0000000   0.0000000
 NMagM=    0.0000000   0.0000000   0.0000000   0.0000000   0.0000000   0.4037610   0.0000000   0.0000000   0.0000000   0.0000000
 AtZNuc=   6.0000000   6.0000000   6.0000000   6.0000000   6.0000000   7.0000000   8.0000000   8.0000000   6.0000000   6.0000000

  Atom        41          42          43          44          45          46          47          48          49          50
 IAtWgt=          12          12          12          12          12           1           1           1           1           1
 AtmWgt=  12.0000000  12.0000000  12.0000000  12.0000000  12.0000000   1.0078250   1.0078250   1.0078250   1.0078250   1.0078250
 NucSpn=           0           0           0           0           0           1           1           1           1           1
 AtZEff=  -0.0000000  -0.0000000  -0.0000000  -0.0000000  -0.0000000  -0.0000000  -0.0000000  -0.0000000  -0.0000000  -0.0000000
 NQMom=    0.0000000   0.0000000   0.0000000   0.0000000   0.0000000   0.0000000   0.0000000   0.0000000   0.0000000   0.0000000
 NMagM=    0.0000000   0.0000000   0.0000000   0.0000000   0.0000000   2.7928460   2.7928460   2.7928460   2.7928460   2.7928460
 AtZNuc=   6.0000000   6.0000000   6.0000000   6.0000000   6.0000000   1.0000000   1.0000000   1.0000000   1.0000000   1.0000000

  Atom        51          52          53          54          55          56          57          58          59          60
 IAtWgt=           1           1           1           1           1           1           1           1           1           1
 AtmWgt=   1.0078250   1.0078250   1.0078250   1.0078250   1.0078250   1.0078250   1.0078250   1.0078250   1.0078250   1.0078250
 NucSpn=           1           1           1           1           1           1           1           1           1           1
 AtZEff=  -0.0000000  -0.0000000  -0.0000000  -0.0000000  -0.0000000  -0.0000000  -0.0000000  -0.0000000  -0.0000000  -0.0000000
 NQMom=    0.0000000   0.0000000   0.0000000   0.0000000   0.0000000   0.0000000   0.0000000   0.0000000   0.0000000   0.0000000
 NMagM=    2.7928460   2.7928460   2.7928460   2.7928460   2.7928460   2.7928460   2.7928460   2.7928460   2.7928460   2.7928460
 AtZNuc=   1.0000000   1.0000000   1.0000000   1.0000000   1.0000000   1.0000000   1.0000000   1.0000000   1.0000000   1.0000000

  Atom        61          62          63          64          65          66          67          68          69          70
 IAtWgt=           1           1           1           1           1           1           1           1           1           1
 AtmWgt=   1.0078250   1.0078250   1.0078250   1.0078250   1.0078250   1.0078250   1.0078250   1.0078250   1.0078250   1.0078250
 NucSpn=           1           1           1           1           1           1           1           1           1           1
 AtZEff=  -0.0000000  -0.0000000  -0.0000000  -0.0000000  -0.0000000  -0.0000000  -0.0000000  -0.0000000  -0.0000000  -0.0000000
 NQMom=    0.0000000   0.0000000   0.0000000   0.0000000   0.0000000   0.0000000   0.0000000   0.0000000   0.0000000   0.0000000
 NMagM=    2.7928460   2.7928460   2.7928460   2.7928460   2.7928460   2.7928460   2.7928460   2.7928460   2.7928460   2.7928460
 AtZNuc=   1.0000000   1.0000000   1.0000000   1.0000000   1.0000000   1.0000000   1.0000000   1.0000000   1.0000000   1.0000000

  Atom        71          72
 IAtWgt=           1           1
 AtmWgt=   1.0078250   1.0078250
 NucSpn=           1           1
 AtZEff=  -0.0000000  -0.0000000
 NQMom=    0.0000000   0.0000000
 NMagM=    2.7928460   2.7928460
 AtZNuc=   1.0000000   1.0000000
 Leave Link  101 at Fri Nov  7 05:11:15 2025, MaxMem= 30870077440 cpu:               3.9 elap:               0.1
 (Enter /public/software/gauss/g16/l202.exe)
 Stoichiometry    C34H27BF2N4O4(1-,2)
 Framework group  C1[X(C34H27BF2N4O4)]
 Deg. of freedom   210
 Full point group                 C1      NOp   1
 Largest Abelian subgroup         C1      NOp   1
 Largest concise Abelian subgroup C1      NOp   1
                         Standard orientation:                         
 ---------------------------------------------------------------------
 Center     Atomic      Atomic             Coordinates (Angstroms)
 Number     Number       Type             X           Y           Z
 ---------------------------------------------------------------------
      1          6           0       -1.566263    7.083388    0.854619
      2          6           0       -1.124220    5.665580    0.584428
      3          6           0       -0.790778    4.802878    1.633803
      4          6           0       -0.350302    3.493999    1.403547
      5          6           0       -0.006178    2.601705    2.573234
      6          6           0       -0.239457    3.026668    0.075168
      7          6           0        0.225615    1.632856   -0.196617
      8          6           0       -0.711129    0.571860   -0.299453
      9          6           0       -2.103953    0.549921   -0.149355
     10          6           0       -2.533102   -0.799136   -0.330240
     11          6           0       -3.848001   -1.373403   -0.271936
     12          6           0       -5.000806   -0.691199   -0.020533
     13          6           0       -6.333941   -1.249201    0.045324
     14          6           0       -7.423183   -0.380262    0.312041
     15          6           0       -8.723242   -0.843249    0.388545
     16          6           0       -8.970790   -2.210404    0.197619
     17          7           0      -10.314085   -2.702834    0.274715
     18          8           0      -11.239103   -1.901565    0.509939
     19          8           0      -10.523348   -3.919582    0.104495
     20          6           0       -7.919530   -3.103458   -0.067053
     21          6           0       -6.625717   -2.626430   -0.140694
     22          6           0       -1.369401   -1.543987   -0.588319
     23          7           0       -0.283410   -0.738937   -0.572624
     24          5           0        1.166616   -1.167582   -0.895772
     25          9           0        1.542630   -2.262255   -0.104059
     26          9           0        1.277959   -1.536788   -2.248792
     27          7           0        2.064353    0.053792   -0.594587
     28          6           0        3.419216    0.065346   -0.633693
     29          6           0        3.898082    1.367624   -0.403989
     30          6           0        5.245444    1.896628   -0.435301
     31          6           0        6.487222    1.338992   -0.371974
     32          6           0        6.944122   -0.013547   -0.078828
     33          6           0        6.206614   -0.964153    0.666459
     34          6           0        6.725833   -2.214670    0.953451
     35          6           0        8.007233   -2.545825    0.493693
     36          7           0        8.545781   -3.850924    0.779872
     37          8           0        9.696648   -4.122616    0.397212
     38          8           0        7.843830   -4.665930    1.402339
     39          6           0        8.779164   -1.625603   -0.225791
     40          6           0        8.250026   -0.374989   -0.492299
     41          6           0        2.738326    2.179099   -0.226666
     42          6           0        1.612188    1.353479   -0.331527
     43          6           0       -0.575801    3.882034   -0.997535
     44          6           0       -0.473283    3.409918   -2.429104
     45          6           0       -1.012415    5.183624   -0.724090
     46          1           0       -2.251015    7.443213    0.080750
     47          1           0       -2.066828    7.168318    1.823787
     48          1           0       -0.708839    7.768206    0.871600
     49          1           0       -0.877166    5.154684    2.659481
     50          1           0       -0.617418    1.692485    2.577127
     51          1           0        1.040771    2.280663    2.538045
     52          1           0       -0.168064    3.122336    3.520795
     53          1           0       -2.722653    1.406784    0.076012
     54          1           0       -3.889114   -2.446688   -0.448334
     55          1           0       -4.940380    0.381696    0.151184
     56          1           0       -7.226153    0.677228    0.459222
     57          1           0       -9.544512   -0.167976    0.592398
     58          1           0       -8.130517   -4.155615   -0.210331
     59          1           0       -5.825788   -3.329296   -0.344198
     60          1           0       -1.280159   -2.604746   -0.782731
     61          1           0        3.965518   -0.835499   -0.869971
     62          1           0        5.257803    2.977125   -0.577547
     63          1           0        7.305758    2.028656   -0.569477
     64          1           0        5.225368   -0.707513    1.045374
     65          1           0        6.158629   -2.930196    1.535144
     66          1           0        9.772169   -1.894825   -0.562478
     67          1           0        8.846427    0.347220   -1.041165
     68          1           0        2.728289    3.241873   -0.027200
     69          1           0       -1.130436    2.553496   -2.616898
     70          1           0       -0.751338    4.207489   -3.123170
     71          1           0        0.545189    3.088008   -2.672748
     72          1           0       -1.272178    5.835542   -1.555259
 ---------------------------------------------------------------------
 Rotational constants (GHZ):           0.0961204           0.0246488           0.0204402
 Leave Link  202 at Fri Nov  7 05:11:15 2025, MaxMem= 30870077440 cpu:               0.2 elap:               0.0
 (Enter /public/software/gauss/g16/l301.exe)
 Standard basis: def2TZVPP (5D, 7F)
 Ernie: Thresh=  0.10000D-02 Tol=  0.10000D-05 Strict=F.
 There are  2025 symmetry adapted cartesian basis functions of A   symmetry.
 There are  1773 symmetry adapted basis functions of A   symmetry.
  1773 basis functions,  2754 primitive gaussians,  2025 cartesian basis functions
   158 alpha electrons      157 beta electrons
       nuclear repulsion energy      4769.3636564017 Hartrees.
 IExCor= 4336 DFT=T Ex+Corr=M062X ExCW=0 ScaHFX=  0.540000
 ScaDFX=  1.000000  1.000000  1.000000  1.000000 ScalE2=  1.000000  1.000000
 IRadAn=      5 IRanWt=     -1 IRanGd=            0 ICorTp=0 IEmpDi=131
 NAtoms=   72 NActive=   72 NUniq=   72 SFac= 1.00D+00 NAtFMM=   60 NAOKFM=T Big=T
 Integral buffers will be    131072 words long.
 Raffenetti 2 integral format.
 Two-electron integral symmetry is turned on.
 R6Disp:  Grimme-D3 Dispersion energy=       -0.0058071141 Hartrees.
 Nuclear repulsion after empirical dispersion term =     4769.3578492877 Hartrees.
 ------------------------------------------------------------------------------
 Polarizable Continuum Model (PCM)
 =================================
 Model                : PCM.
 Atomic radii         : UFF (Universal Force Field).
 Polarization charges : Total charges.
 Charge compensation  : None.
 Solution method      : On-the-fly selection.
 Cavity type          : Scaled VdW (van der Waals Surface) (Alpha=1.100).
 Cavity algorithm     : GePol (No added spheres)
                        Default sphere list used, NSphG=   72.
                        Lebedev-Laikov grids with approx.  5.0 points / Ang**2.
                        Smoothing algorithm: York/Karplus (Gamma=1.0000).
                        Polarization charges: spherical gaussians, with
                                              point-specific exponents (IZeta= 3).
                        Self-potential: point-specific (ISelfS= 7).
                        Self-field    : sphere-specific E.n sum rule (ISelfD= 2).
 Solvent              : Water, Eps=  78.355300 Eps(inf)=   1.777849
 ------------------------------------------------------------------------------
 GePol: Number of generator spheres                  =      72
 GePol: Total number of spheres                      =      72
 GePol: Number of exposed spheres                    =      72 (100.00%)
 GePol: Number of points                             =    5459
 GePol: Average weight of points                     =       0.13
 GePol: Minimum weight of points                     =   0.15D-11
 GePol: Maximum weight of points                     =    0.20577
 GePol: Number of points with low weight             =     338
 GePol: Fraction of low-weight points (<1% of avg)   =       6.19%
 GePol: Cavity surface area                          =    694.269 Ang**2
 GePol: Cavity volume                                =    787.300 Ang**3
 Leave Link  301 at Fri Nov  7 05:11:15 2025, MaxMem= 30870077440 cpu:               3.8 elap:               0.1
 (Enter /public/software/gauss/g16/l302.exe)
 NPDir=0 NMtPBC=     1 NCelOv=     1 NCel=       1 NClECP=     1 NCelD=      1
         NCelK=      1 NCelE2=     1 NClLst=     1 CellRange=     0.0.
 One-electron integrals computed using PRISM.
 One-electron integral symmetry used in STVInt
   1 Symmetry operations used in ECPInt.
 ECPInt:  NShTT=  216153 NPrTT=  624357 LenC2=  131487 LenP2D=  254986.
 LDataN:  DoStor=T MaxTD1= 6 Len=  172
 NBasis=  1773 RedAO= T EigKep=  3.13D-06  NBF=  1773
 NBsUse=  1773 1.00D-06 EigRej= -1.00D+00 NBFU=  1773
 Precomputing XC quadrature grid using
 IXCGrd= 4 IRadAn=           5 IRanWt=          -1 IRanGd=           0 AccXCQ= 0.00D+00.
 Generated NRdTot=       0 NPtTot=           0 NUsed=           0 NTot=          32
 NSgBfM=  1670  1669  1669  1670  1670 MxSgAt=    72 MxSgA2=    72.
 Leave Link  302 at Fri Nov  7 05:11:23 2025, MaxMem= 30870077440 cpu:             536.2 elap:               8.4
 (Enter /public/software/gauss/g16/l303.exe)
 DipDrv:  MaxL=1.
 Leave Link  303 at Fri Nov  7 05:11:24 2025, MaxMem= 30870077440 cpu:              25.2 elap:               0.5
 (Enter /public/software/gauss/g16/l401.exe)
 ExpMin= 6.06D-02 ExpMax= 3.55D+04 ExpMxC= 1.21D+03 IAcc=3 IRadAn=         5 AccDes= 0.00D+00
 Harris functional with IExCor= 1009 and IRadAn=       5 diagonalized for initial guess.
 HarFok:  IExCor= 1009 AccDes= 0.00D+00 IRadAn=         5 IDoV= 1 UseB2=F ITyADJ=14
 ICtDFT=  3500011 ScaDFX=  1.000000  1.000000  1.000000  1.000000
 FoFCou: FMM=F IPFlag=           0 FMFlag=      100000 FMFlg1=        2001
         NFxFlg=           0 DoJE=T BraDBF=F KetDBF=T FulRan=T
         wScrn=  0.000000 ICntrl=       500 IOpCl=  0 I1Cent=   200000004 NGrid=           0
         NMat0=    1 NMatS0=      1 NMatT0=    0 NMatD0=    1 NMtDS0=    0 NMtDT0=    0
 Petite list used in FoFCou.
 Harris En= -2055.52431847636    
 JPrj=0 DoOrth=F DoCkMO=F.
 Initial guess <Sx>= 0.0000 <Sy>= 0.0000 <Sz>= 0.5000 <S**2>= 0.7500 S= 0.5000
 Leave Link  401 at Fri Nov  7 05:11:34 2025, MaxMem= 30870077440 cpu:             626.2 elap:               9.9
 (Enter /public/software/gauss/g16/l502.exe)
 Integral symmetry usage will be decided dynamically.
 UHF open shell SCF:
 Using DIIS extrapolation, IDIIS=  1040.
 NGot= 30870077440 LenX= 30861729606 LenY= 30857626956
 Requested convergence on RMS density matrix=1.00D-08 within 128 cycles.
 Requested convergence on MAX density matrix=1.00D-06.
 Requested convergence on             energy=1.00D-06.
 No special actions if energy rises.
 Fock matrices will be formed incrementally for  20 cycles.

 Cycle   1  Pass 1  IDiag  1:
 FoFJK:  IHMeth= 1 ICntrl=       0 DoSepK=F KAlg= 0 I1Cent=           0 FoldK=F
 IRaf= 580000000 NMat=       1 IRICut=       1 DoRegI=T DoRafI=F ISym2E= 0 IDoP0=0 IntGTp=1.
 FoFCou: FMM=T IPFlag=           0 FMFlag=      100000 FMFlg1=        2001
         NFxFlg=           0 DoJE=F BraDBF=F KetDBF=F FulRan=T
         wScrn=  0.000000 ICntrl=         0 IOpCl=  1 I1Cent=           0 NGrid=           0
         NMat0=    1 NMatS0=      1 NMatT0=    0 NMatD0=    1 NMtDS0=    0 NMtDT0=    0
 Symmetry not used in FoFCou.
 FMM levels:  10  Number of levels for PrismC:   9
 Inv3:  Mode=1 IEnd=    89402043.
 Iteration    1 A*A^-1 deviation from unit magnitude is 1.33D-14 for    671.
 Iteration    1 A*A^-1 deviation from orthogonality  is 3.61D-15 for   3997    666.
 Iteration    1 A^-1*A deviation from unit magnitude is 1.33D-14 for    671.
 Iteration    1 A^-1*A deviation from orthogonality  is 1.63D-14 for   5314   5312.
 E= -2055.25967451470    
 DIIS: error= 2.52D-02 at cycle   1 NSaved=   1.
 NSaved= 1 IEnMin= 1 EnMin= -2055.25967451470     IErMin= 1 ErrMin= 2.52D-02
 ErrMax= 2.52D-02  0.00D+00 EMaxC= 1.00D-01 BMatC= 6.20D+00 BMatP= 6.20D+00
 IDIUse=3 WtCom= 7.48D-01 WtEn= 2.52D-01
 Coeff-Com:  0.100D+01
 Coeff-En:   0.100D+01
 Coeff:      0.100D+01
 Gap=     0.071 Goal=   None    Shift=    0.000
 Gap=     0.170 Goal=   None    Shift=    0.000
 GapD=    0.071 DampG=0.500 DampE=0.500 DampFc=0.2500 IDamp=-1.
 Damping current iteration by 2.50D-01
 RMSDP=1.41D-03 MaxDP=1.19D-01              OVMax= 5.91D-01

 Cycle   2  Pass 1  IDiag  1:
 RMSU=  3.51D-04    CP:  9.89D-01
 E= -2055.66531913152     Delta-E=       -0.405644616826 Rises=F Damp=T
 DIIS: error= 1.43D-02 at cycle   2 NSaved=   2.
 NSaved= 2 IEnMin= 2 EnMin= -2055.66531913152     IErMin= 2 ErrMin= 1.43D-02
 ErrMax= 1.43D-02  0.00D+00 EMaxC= 1.00D-01 BMatC= 2.05D+00 BMatP= 6.20D+00
 IDIUse=3 WtCom= 8.57D-01 WtEn= 1.43D-01
 Coeff-Com: -0.103D+01 0.203D+01
 Coeff-En:   0.000D+00 0.100D+01
 Coeff:     -0.880D+00 0.188D+01
 Gap=     0.069 Goal=   None    Shift=    0.000
 Gap=     0.191 Goal=   None    Shift=    0.000
 RMSDP=8.67D-04 MaxDP=1.34D-01 DE=-4.06D-01 OVMax= 5.80D-01

 Cycle   3  Pass 1  IDiag  1:
 RMSU=  6.32D-04    CP:  9.63D-01  2.67D+00
 E= -2056.39313812049     Delta-E=       -0.727818988966 Rises=F Damp=F
 DIIS: error= 7.30D-03 at cycle   3 NSaved=   3.
 NSaved= 3 IEnMin= 3 EnMin= -2056.39313812049     IErMin= 3 ErrMin= 7.30D-03
 ErrMax= 7.30D-03  0.00D+00 EMaxC= 1.00D-01 BMatC= 2.48D-01 BMatP= 2.05D+00
 IDIUse=3 WtCom= 9.27D-01 WtEn= 7.30D-02
 Coeff-Com: -0.451D+00 0.799D+00 0.652D+00
 Coeff-En:   0.000D+00 0.000D+00 0.100D+01
 Coeff:     -0.418D+00 0.741D+00 0.678D+00
 Gap=     0.081 Goal=   None    Shift=    0.000
 Gap=     0.163 Goal=   None    Shift=    0.000
 RMSDP=2.01D-04 MaxDP=5.51D-02 DE=-7.28D-01 OVMax= 5.74D-02

 Cycle   4  Pass 1  IDiag  1:
 RMSU=  1.96D-04    CP:  9.61D-01  2.54D+00  9.96D-01
 E= -2056.43889549572     Delta-E=       -0.045757375231 Rises=F Damp=F
 DIIS: error= 2.33D-03 at cycle   4 NSaved=   4.
 NSaved= 4 IEnMin= 4 EnMin= -2056.43889549572     IErMin= 4 ErrMin= 2.33D-03
 ErrMax= 2.33D-03  0.00D+00 EMaxC= 1.00D-01 BMatC= 3.42D-02 BMatP= 2.48D-01
 IDIUse=3 WtCom= 9.77D-01 WtEn= 2.33D-02
 Coeff-Com: -0.712D-01 0.114D+00 0.287D+00 0.670D+00
 Coeff-En:   0.000D+00 0.000D+00 0.317D-01 0.968D+00
 Coeff:     -0.696D-01 0.111D+00 0.281D+00 0.677D+00
 Gap=     0.094 Goal=   None    Shift=    0.000
 Gap=     0.157 Goal=   None    Shift=    0.000
 RMSDP=7.90D-05 MaxDP=4.90D-02 DE=-4.58D-02 OVMax= 5.64D-02

 Cycle   5  Pass 1  IDiag  1:
 RMSU=  7.83D-05    CP:  9.60D-01  2.54D+00  9.81D-01  1.01D+00
 E= -2056.44640826232     Delta-E=       -0.007512766600 Rises=F Damp=F
 DIIS: error= 7.32D-04 at cycle   5 NSaved=   5.
 NSaved= 5 IEnMin= 5 EnMin= -2056.44640826232     IErMin= 5 ErrMin= 7.32D-04
 ErrMax= 7.32D-04  0.00D+00 EMaxC= 1.00D-01 BMatC= 2.91D-03 BMatP= 3.42D-02
 IDIUse=3 WtCom= 9.93D-01 WtEn= 7.32D-03
 Coeff-Com: -0.164D-01 0.228D-01 0.961D-01 0.309D+00 0.589D+00
 Coeff-En:   0.000D+00 0.000D+00 0.000D+00 0.000D+00 0.100D+01
 Coeff:     -0.163D-01 0.226D-01 0.954D-01 0.306D+00 0.592D+00
 Gap=     0.099 Goal=   None    Shift=    0.000
 Gap=     0.159 Goal=   None    Shift=    0.000
 RMSDP=2.58D-05 MaxDP=1.44D-02 DE=-7.51D-03 OVMax= 2.33D-02

 Cycle   6  Pass 1  IDiag  1:
 RMSU=  2.36D-05    CP:  9.60D-01  2.53D+00  9.79D-01  1.04D+00  1.09D+00
 E= -2056.44725452070     Delta-E=       -0.000846258376 Rises=F Damp=F
 DIIS: error= 1.94D-04 at cycle   6 NSaved=   6.
 NSaved= 6 IEnMin= 6 EnMin= -2056.44725452070     IErMin= 6 ErrMin= 1.94D-04
 ErrMax= 1.94D-04  0.00D+00 EMaxC= 1.00D-01 BMatC= 2.83D-04 BMatP= 2.91D-03
 IDIUse=3 WtCom= 9.98D-01 WtEn= 1.94D-03
 Coeff-Com:  0.358D-02-0.641D-02-0.136D-01-0.110D-01 0.166D+00 0.861D+00
 Coeff-En:   0.000D+00 0.000D+00 0.000D+00 0.000D+00 0.000D+00 0.100D+01
 Coeff:      0.357D-02-0.639D-02-0.136D-01-0.110D-01 0.166D+00 0.861D+00
 Gap=     0.104 Goal=   None    Shift=    0.000
 Gap=     0.160 Goal=   None    Shift=    0.000
 RMSDP=2.33D-05 MaxDP=1.89D-02 DE=-8.46D-04 OVMax= 2.58D-02

 Cycle   7  Pass 1  IDiag  1:
 RMSU=  1.48D-05    CP:  9.60D-01  2.53D+00  9.81D-01  1.08D+00  1.29D+00
                    CP:  1.27D+00
 E= -2056.44752133541     Delta-E=       -0.000266814712 Rises=F Damp=F
 DIIS: error= 1.26D-04 at cycle   7 NSaved=   7.
 NSaved= 7 IEnMin= 7 EnMin= -2056.44752133541     IErMin= 7 ErrMin= 1.26D-04
 ErrMax= 1.26D-04  0.00D+00 EMaxC= 1.00D-01 BMatC= 1.00D-04 BMatP= 2.83D-04
 IDIUse=3 WtCom= 9.99D-01 WtEn= 1.26D-03
 Coeff-Com:  0.589D-02-0.893D-02-0.298D-01-0.800D-01-0.694D-01 0.372D+00
 Coeff-Com:  0.810D+00
 Coeff-En:   0.000D+00 0.000D+00 0.000D+00 0.000D+00 0.000D+00 0.000D+00
 Coeff-En:   0.100D+01
 Coeff:      0.588D-02-0.892D-02-0.298D-01-0.799D-01-0.693D-01 0.372D+00
 Coeff:      0.810D+00
 Gap=     0.105 Goal=   None    Shift=    0.000
 Gap=     0.160 Goal=   None    Shift=    0.000
 RMSDP=1.52D-05 MaxDP=1.14D-02 DE=-2.67D-04 OVMax= 1.63D-02

 Cycle   8  Pass 1  IDiag  1:
 RMSU=  6.50D-06    CP:  9.60D-01  2.53D+00  9.82D-01  1.10D+00  1.41D+00
                    CP:  1.53D+00  1.45D+00
 E= -2056.44762835588     Delta-E=       -0.000107020473 Rises=F Damp=F
 DIIS: error= 5.85D-05 at cycle   8 NSaved=   8.
 NSaved= 8 IEnMin= 8 EnMin= -2056.44762835588     IErMin= 8 ErrMin= 5.85D-05
 ErrMax= 5.85D-05  0.00D+00 EMaxC= 1.00D-01 BMatC= 3.29D-05 BMatP= 1.00D-04
 IDIUse=1 WtCom= 1.00D+00 WtEn= 0.00D+00
 Coeff-Com:  0.556D-03-0.435D-03-0.721D-02-0.298D-01-0.795D-01-0.105D+00
 Coeff-Com:  0.394D+00 0.827D+00
 Coeff:      0.556D-03-0.435D-03-0.721D-02-0.298D-01-0.795D-01-0.105D+00
 Coeff:      0.394D+00 0.827D+00
 Gap=     0.106 Goal=   None    Shift=    0.000
 Gap=     0.160 Goal=   None    Shift=    0.000
 RMSDP=8.92D-06 MaxDP=5.67D-03 DE=-1.07D-04 OVMax= 1.02D-02

 Cycle   9  Pass 1  IDiag  1:
 RMSU=  3.67D-06    CP:  9.60D-01  2.53D+00  9.82D-01  1.10D+00  1.46D+00
                    CP:  1.66D+00  1.85D+00  1.34D+00
 E= -2056.44766443493     Delta-E=       -0.000036079046 Rises=F Damp=F
 DIIS: error= 2.92D-05 at cycle   9 NSaved=   9.
 NSaved= 9 IEnMin= 9 EnMin= -2056.44766443493     IErMin= 9 ErrMin= 2.92D-05
 ErrMax= 2.92D-05  0.00D+00 EMaxC= 1.00D-01 BMatC= 5.37D-06 BMatP= 3.29D-05
 IDIUse=1 WtCom= 1.00D+00 WtEn= 0.00D+00
 Coeff-Com: -0.978D-03 0.159D-02 0.507D-02 0.114D-01-0.254D-02-0.116D+00
 Coeff-Com: -0.787D-01 0.211D+00 0.969D+00
 Coeff:     -0.978D-03 0.159D-02 0.507D-02 0.114D-01-0.254D-02-0.116D+00
 Coeff:     -0.787D-01 0.211D+00 0.969D+00
 Gap=     0.107 Goal=   None    Shift=    0.000
 Gap=     0.160 Goal=   None    Shift=    0.000
 RMSDP=4.84D-06 MaxDP=1.92D-03 DE=-3.61D-05 OVMax= 4.59D-03

 Cycle  10  Pass 1  IDiag  1:
 RMSU=  1.69D-06    CP:  9.60D-01  2.53D+00  9.82D-01  1.10D+00  1.47D+00
                    CP:  1.71D+00  2.05D+00  1.73D+00  1.44D+00
 E= -2056.44767407592     Delta-E=       -0.000009640994 Rises=F Damp=F
 DIIS: error= 2.66D-05 at cycle  10 NSaved=  10.
 NSaved=10 IEnMin=10 EnMin= -2056.44767407592     IErMin=10 ErrMin= 2.66D-05
 ErrMax= 2.66D-05  0.00D+00 EMaxC= 1.00D-01 BMatC= 2.02D-06 BMatP= 5.37D-06
 IDIUse=1 WtCom= 1.00D+00 WtEn= 0.00D+00
 Coeff-Com: -0.424D-03 0.596D-03 0.325D-02 0.105D-01 0.146D-01-0.241D-01
 Coeff-Com: -0.108D+00-0.994D-01 0.401D+00 0.802D+00
 Coeff:     -0.424D-03 0.596D-03 0.325D-02 0.105D-01 0.146D-01-0.241D-01
 Coeff:     -0.108D+00-0.994D-01 0.401D+00 0.802D+00
 Gap=     0.107 Goal=   None    Shift=    0.000
 Gap=     0.160 Goal=   None    Shift=    0.000
 RMSDP=2.13D-06 MaxDP=6.07D-04 DE=-9.64D-06 OVMax= 1.82D-03

 Cycle  11  Pass 1  IDiag  1:
 RMSU=  8.37D-07    CP:  9.60D-01  2.53D+00  9.82D-01  1.10D+00  1.48D+00
                    CP:  1.73D+00  2.12D+00  1.87D+00  1.73D+00  1.36D+00
 E= -2056.44767699935     Delta-E=       -0.000002923431 Rises=F Damp=F
 DIIS: error= 1.28D-05 at cycle  11 NSaved=  11.
 NSaved=11 IEnMin=11 EnMin= -2056.44767699935     IErMin=11 ErrMin= 1.28D-05
 ErrMax= 1.28D-05  0.00D+00 EMaxC= 1.00D-01 BMatC= 6.04D-07 BMatP= 2.02D-06
 IDIUse=1 WtCom= 1.00D+00 WtEn= 0.00D+00
 Coeff-Com:  0.149D-03-0.261D-03-0.705D-03-0.707D-03 0.361D-02 0.270D-01
 Coeff-Com: -0.492D-03-0.833D-01-0.166D+00 0.234D+00 0.987D+00
 Coeff:      0.149D-03-0.261D-03-0.705D-03-0.707D-03 0.361D-02 0.270D-01
 Coeff:     -0.492D-03-0.833D-01-0.166D+00 0.234D+00 0.987D+00
 Gap=     0.107 Goal=   None    Shift=    0.000
 Gap=     0.160 Goal=   None    Shift=    0.000
 RMSDP=1.32D-06 MaxDP=1.92D-04 DE=-2.92D-06 OVMax= 1.06D-03

 Cycle  12  Pass 1  IDiag  1:
 RMSU=  5.37D-07    CP:  9.60D-01  2.53D+00  9.82D-01  1.10D+00  1.48D+00
                    CP:  1.74D+00  2.14D+00  1.94D+00  1.88D+00  1.76D+00
                    CP:  1.64D+00
 E= -2056.44767833417     Delta-E=       -0.000001334820 Rises=F Damp=F
 DIIS: error= 1.02D-05 at cycle  12 NSaved=  12.
 NSaved=12 IEnMin=12 EnMin= -2056.44767833417     IErMin=12 ErrMin= 1.02D-05
 ErrMax= 1.02D-05  0.00D+00 EMaxC= 1.00D-01 BMatC= 2.44D-07 BMatP= 6.04D-07
 IDIUse=1 WtCom= 1.00D+00 WtEn= 0.00D+00
 Coeff-Com:  0.197D-03-0.290D-03-0.144D-02-0.416D-02-0.425D-02 0.193D-01
 Coeff-Com:  0.396D-01 0.133D-01-0.216D+00-0.234D+00 0.339D+00 0.105D+01
 Coeff:      0.197D-03-0.290D-03-0.144D-02-0.416D-02-0.425D-02 0.193D-01
 Coeff:      0.396D-01 0.133D-01-0.216D+00-0.234D+00 0.339D+00 0.105D+01
 Gap=     0.107 Goal=   None    Shift=    0.000
 Gap=     0.160 Goal=   None    Shift=    0.000
 RMSDP=1.05D-06 MaxDP=1.52D-04 DE=-1.33D-06 OVMax= 8.79D-04

 Cycle  13  Pass 1  IDiag  1:
 RMSU=  3.08D-07    CP:  9.60D-01  2.53D+00  9.82D-01  1.10D+00  1.48D+00
                    CP:  1.74D+00  2.16D+00  1.99D+00  1.97D+00  2.04D+00
                    CP:  2.33D+00  1.70D+00
 E= -2056.44767899704     Delta-E=       -0.000000662869 Rises=F Damp=F
 DIIS: error= 6.27D-06 at cycle  13 NSaved=  13.
 NSaved=13 IEnMin=13 EnMin= -2056.44767899704     IErMin=13 ErrMin= 6.27D-06
 ErrMax= 6.27D-06  0.00D+00 EMaxC= 1.00D-01 BMatC= 9.22D-08 BMatP= 2.44D-07
 IDIUse=1 WtCom= 1.00D+00 WtEn= 0.00D+00
 Coeff-Com:  0.395D-04-0.447D-04-0.246D-03-0.130D-02-0.299D-02-0.302D-02
 Coeff-Com:  0.127D-01 0.398D-01-0.191D-01-0.182D+00-0.253D+00 0.419D+00
 Coeff-Com:  0.990D+00
 Coeff:      0.395D-04-0.447D-04-0.246D-03-0.130D-02-0.299D-02-0.302D-02
 Coeff:      0.127D-01 0.398D-01-0.191D-01-0.182D+00-0.253D+00 0.419D+00
 Coeff:      0.990D+00
 Gap=     0.107 Goal=   None    Shift=    0.000
 Gap=     0.160 Goal=   None    Shift=    0.000
 RMSDP=6.81D-07 MaxDP=7.94D-05 DE=-6.63D-07 OVMax= 5.20D-04

 Cycle  14  Pass 1  IDiag  1:
 RMSU=  1.84D-07    CP:  9.60D-01  2.53D+00  9.82D-01  1.10D+00  1.48D+00
                    CP:  1.75D+00  2.17D+00  2.02D+00  2.01D+00  2.21D+00
                    CP:  2.73D+00  2.28D+00  1.55D+00
 E= -2056.44767921598     Delta-E=       -0.000000218941 Rises=F Damp=F
 DIIS: error= 4.81D-06 at cycle  14 NSaved=  14.
 NSaved=14 IEnMin=14 EnMin= -2056.44767921598     IErMin=14 ErrMin= 4.81D-06
 ErrMax= 4.81D-06  0.00D+00 EMaxC= 1.00D-01 BMatC= 3.63D-08 BMatP= 9.22D-08
 IDIUse=1 WtCom= 1.00D+00 WtEn= 0.00D+00
 Coeff-Com: -0.373D-04 0.633D-04 0.322D-03 0.555D-03-0.340D-03-0.779D-02
 Coeff-Com: -0.617D-02 0.203D-01 0.585D-01-0.305D-01-0.250D+00-0.937D-01
 Coeff-Com:  0.552D+00 0.756D+00
 Coeff:     -0.373D-04 0.633D-04 0.322D-03 0.555D-03-0.340D-03-0.779D-02
 Coeff:     -0.617D-02 0.203D-01 0.585D-01-0.305D-01-0.250D+00-0.937D-01
 Coeff:      0.552D+00 0.756D+00
 Gap=     0.107 Goal=   None    Shift=    0.000
 Gap=     0.160 Goal=   None    Shift=    0.000
 RMSDP=2.98D-07 MaxDP=3.17D-05 DE=-2.19D-07 OVMax= 2.32D-04

 Cycle  15  Pass 1  IDiag  1:
 RMSU=  1.08D-07    CP:  9.60D-01  2.53D+00  9.82D-01  1.10D+00  1.48D+00
                    CP:  1.75D+00  2.17D+00  2.03D+00  2.02D+00  2.27D+00
                    CP:  2.89D+00  2.55D+00  1.94D+00  1.22D+00
 E= -2056.44767926122     Delta-E=       -0.000000045243 Rises=F Damp=F
 DIIS: error= 2.39D-06 at cycle  15 NSaved=  15.
 NSaved=15 IEnMin=15 EnMin= -2056.44767926122     IErMin=15 ErrMin= 2.39D-06
 ErrMax= 2.39D-06  0.00D+00 EMaxC= 1.00D-01 BMatC= 9.88D-09 BMatP= 3.63D-08
 IDIUse=1 WtCom= 1.00D+00 WtEn= 0.00D+00
 Coeff-Com: -0.327D-04 0.494D-04 0.238D-03 0.666D-03 0.742D-03-0.295D-02
 Coeff-Com: -0.743D-02-0.792D-03 0.355D-01 0.377D-01-0.497D-01-0.174D+00
 Coeff-Com: -0.202D-01 0.402D+00 0.778D+00
 Coeff:     -0.327D-04 0.494D-04 0.238D-03 0.666D-03 0.742D-03-0.295D-02
 Coeff:     -0.743D-02-0.792D-03 0.355D-01 0.377D-01-0.497D-01-0.174D+00
 Coeff:     -0.202D-01 0.402D+00 0.778D+00
 Gap=     0.107 Goal=   None    Shift=    0.000
 Gap=     0.160 Goal=   None    Shift=    0.000
 RMSDP=1.25D-07 MaxDP=1.41D-05 DE=-4.52D-08 OVMax= 9.12D-05

 Cycle  16  Pass 1  IDiag  1:
 RMSU=  4.84D-08    CP:  9.60D-01  2.53D+00  9.82D-01  1.10D+00  1.48D+00
                    CP:  1.75D+00  2.17D+00  2.03D+00  2.03D+00  2.29D+00
                    CP:  2.93D+00  2.65D+00  2.09D+00  1.54D+00  1.19D+00
 E= -2056.44767927058     Delta-E=       -0.000000009353 Rises=F Damp=F
 DIIS: error= 1.44D-06 at cycle  16 NSaved=  16.
 NSaved=16 IEnMin=16 EnMin= -2056.44767927058     IErMin=16 ErrMin= 1.44D-06
 ErrMax= 1.44D-06  0.00D+00 EMaxC= 1.00D-01 BMatC= 2.12D-09 BMatP= 9.88D-09
 IDIUse=1 WtCom= 1.00D+00 WtEn= 0.00D+00
 Coeff-Com: -0.406D-05 0.469D-05 0.213D-04 0.147D-03 0.361D-03 0.585D-03
 Coeff-Com: -0.193D-02-0.498D-02 0.139D-02 0.236D-01 0.381D-01-0.548D-01
 Coeff-Com: -0.141D+00-0.255D-02 0.342D+00 0.799D+00
 Coeff:     -0.406D-05 0.469D-05 0.213D-04 0.147D-03 0.361D-03 0.585D-03
 Coeff:     -0.193D-02-0.498D-02 0.139D-02 0.236D-01 0.381D-01-0.548D-01
 Coeff:     -0.141D+00-0.255D-02 0.342D+00 0.799D+00
 Gap=     0.107 Goal=   None    Shift=    0.000
 Gap=     0.160 Goal=   None    Shift=    0.000
 RMSDP=5.25D-08 MaxDP=7.18D-06 DE=-9.35D-09 OVMax= 3.85D-05

 Cycle  17  Pass 1  IDiag  1:
 RMSU=  2.60D-08    CP:  9.60D-01  2.53D+00  9.82D-01  1.10D+00  1.48D+00
                    CP:  1.75D+00  2.17D+00  2.03D+00  2.03D+00  2.30D+00
                    CP:  2.95D+00  2.67D+00  2.16D+00  1.65D+00  1.40D+00
                    CP:  1.30D+00
 E= -2056.44767927245     Delta-E=       -0.000000001873 Rises=F Damp=F
 DIIS: error= 7.71D-07 at cycle  17 NSaved=  17.
 NSaved=17 IEnMin=17 EnMin= -2056.44767927245     IErMin=17 ErrMin= 7.71D-07
 ErrMax= 7.71D-07  0.00D+00 EMaxC= 1.00D-01 BMatC= 4.64D-10 BMatP= 2.12D-09
 IDIUse=1 WtCom= 1.00D+00 WtEn= 0.00D+00
 Coeff-Com:  0.741D-05-0.117D-04-0.583D-04-0.129D-03-0.966D-04 0.102D-02
 Coeff-Com:  0.140D-02-0.154D-02-0.913D-02-0.153D-02 0.273D-01 0.282D-01
 Coeff-Com: -0.401D-01-0.116D+00-0.117D+00 0.265D+00 0.962D+00
 Coeff:      0.741D-05-0.117D-04-0.583D-04-0.129D-03-0.966D-04 0.102D-02
 Coeff:      0.140D-02-0.154D-02-0.913D-02-0.153D-02 0.273D-01 0.282D-01
 Coeff:     -0.401D-01-0.116D+00-0.117D+00 0.265D+00 0.962D+00
 Gap=     0.107 Goal=   None    Shift=    0.000
 Gap=     0.160 Goal=   None    Shift=    0.000
 RMSDP=2.91D-08 MaxDP=3.95D-06 DE=-1.87D-09 OVMax= 1.90D-05

 Cycle  18  Pass 1  IDiag  1:
 RMSU=  1.20D-08    CP:  9.60D-01  2.53D+00  9.82D-01  1.10D+00  1.48D+00
                    CP:  1.75D+00  2.17D+00  2.03D+00  2.03D+00  2.30D+00
                    CP:  2.95D+00  2.67D+00  2.18D+00  1.70D+00  1.49D+00
                    CP:  1.65D+00  1.49D+00
 E= -2056.44767927351     Delta-E=       -0.000000001065 Rises=F Damp=F
 DIIS: error= 3.75D-07 at cycle  18 NSaved=  18.
 NSaved=18 IEnMin=18 EnMin= -2056.44767927351     IErMin=18 ErrMin= 3.75D-07
 ErrMax= 3.75D-07  0.00D+00 EMaxC= 1.00D-01 BMatC= 1.17D-10 BMatP= 4.64D-10
 IDIUse=1 WtCom= 1.00D+00 WtEn= 0.00D+00
 Coeff-Com:  0.212D-05-0.314D-05-0.183D-04-0.619D-04-0.999D-04 0.143D-03
 Coeff-Com:  0.919D-03 0.638D-03-0.279D-02-0.589D-02-0.136D-02 0.198D-01
 Coeff-Com:  0.250D-01-0.323D-01-0.120D+00-0.102D+00 0.301D+00 0.917D+00
 Coeff:      0.212D-05-0.314D-05-0.183D-04-0.619D-04-0.999D-04 0.143D-03
 Coeff:      0.919D-03 0.638D-03-0.279D-02-0.589D-02-0.136D-02 0.198D-01
 Coeff:      0.250D-01-0.323D-01-0.120D+00-0.102D+00 0.301D+00 0.917D+00
 Gap=     0.107 Goal=   None    Shift=    0.000
 Gap=     0.160 Goal=   None    Shift=    0.000
 RMSDP=1.58D-08 MaxDP=2.89D-06 DE=-1.07D-09 OVMax= 1.24D-05

 Cycle  19  Pass 1  IDiag  1:
 RMSU=  6.63D-09    CP:  9.60D-01  2.53D+00  9.82D-01  1.10D+00  1.48D+00
                    CP:  1.75D+00  2.17D+00  2.03D+00  2.03D+00  2.30D+00
                    CP:  2.95D+00  2.67D+00  2.18D+00  1.70D+00  1.52D+00
                    CP:  1.79D+00  1.78D+00  1.52D+00
 E= -2056.44767927336     Delta-E=        0.000000000156 Rises=F Damp=F
 DIIS: error= 1.69D-07 at cycle  19 NSaved=  19.
 NSaved=19 IEnMin=18 EnMin= -2056.44767927351     IErMin=19 ErrMin= 1.69D-07
 ErrMax= 1.69D-07  0.00D+00 EMaxC= 1.00D-01 BMatC= 3.25D-11 BMatP= 1.17D-10
 IDIUse=1 WtCom= 1.00D+00 WtEn= 0.00D+00
 Coeff-Com: -0.134D-05 0.217D-05 0.956D-05 0.118D-04-0.125D-04-0.263D-03
 Coeff-Com:  0.351D-05 0.610D-03 0.152D-02-0.184D-02-0.815D-02-0.137D-03
 Coeff-Com:  0.215D-01 0.188D-01-0.183D-01-0.116D+00-0.156D+00 0.357D+00
 Coeff-Com:  0.902D+00
 Coeff:     -0.134D-05 0.217D-05 0.956D-05 0.118D-04-0.125D-04-0.263D-03
 Coeff:      0.351D-05 0.610D-03 0.152D-02-0.184D-02-0.815D-02-0.137D-03
 Coeff:      0.215D-01 0.188D-01-0.183D-01-0.116D+00-0.156D+00 0.357D+00
 Coeff:      0.902D+00
 Gap=     0.107 Goal=   None    Shift=    0.000
 Gap=     0.160 Goal=   None    Shift=    0.000
 RMSDP=8.90D-09 MaxDP=1.03D-06 DE= 1.56D-10 OVMax= 5.74D-06

 Cycle  20  Pass 1  IDiag  1:
 RMSU=  3.45D-09    CP:  9.60D-01  2.53D+00  9.82D-01  1.10D+00  1.48D+00
                    CP:  1.75D+00  2.17D+00  2.03D+00  2.03D+00  2.30D+00
                    CP:  2.95D+00  2.67D+00  2.18D+00  1.71D+00  1.53D+00
                    CP:  1.86D+00  1.94D+00  1.91D+00  1.42D+00
 E= -2056.44767927378     Delta-E=       -0.000000000424 Rises=F Damp=F
 DIIS: error= 5.69D-08 at cycle  20 NSaved=  20.
 NSaved=20 IEnMin=20 EnMin= -2056.44767927378     IErMin=20 ErrMin= 5.69D-08
 ErrMax= 5.69D-08  0.00D+00 EMaxC= 1.00D-01 BMatC= 1.03D-11 BMatP= 3.25D-11
 IDIUse=1 WtCom= 1.00D+00 WtEn= 0.00D+00
 Coeff-Com: -0.826D-06 0.130D-05 0.744D-05 0.162D-04 0.142D-04-0.150D-03
 Coeff-Com: -0.160D-03 0.125D-03 0.122D-02 0.418D-03-0.319D-02-0.390D-02
 Coeff-Com:  0.416D-02 0.141D-01 0.157D-01-0.299D-01-0.129D+00-0.155D-01
 Coeff-Com:  0.423D+00 0.724D+00
 Coeff:     -0.826D-06 0.130D-05 0.744D-05 0.162D-04 0.142D-04-0.150D-03
 Coeff:     -0.160D-03 0.125D-03 0.122D-02 0.418D-03-0.319D-02-0.390D-02
 Coeff:      0.416D-02 0.141D-01 0.157D-01-0.299D-01-0.129D+00-0.155D-01
 Coeff:      0.423D+00 0.724D+00
 Gap=     0.107 Goal=   None    Shift=    0.000
 Gap=     0.160 Goal=   None    Shift=    0.000
 RMSDP=3.20D-09 MaxDP=3.50D-07 DE=-4.24D-10 OVMax= 1.78D-06

 Error on total polarization charges =  0.02466
 SCF Done:  E(UM062X) =  -2056.44767927     A.U. after   20 cycles
            NFock= 20  Conv=0.32D-08     -V/T= 2.0053
 <Sx>= 0.0000 <Sy>= 0.0000 <Sz>= 0.5000 <S**2>= 0.7697 S= 0.5098
 <L.S>= 0.000000000000E+00
 KE= 2.045539467368D+03 PE=-1.436437398136D+04 EE= 5.493028985426D+03
 Annihilation of the first spin contaminant:
 S**2 before annihilation     0.7697,   after     0.7503
 Leave Link  502 at Fri Nov  7 05:39:12 2025, MaxMem= 30870077440 cpu:          104750.9 elap:            1657.9
 (Enter /public/software/gauss/g16/l601.exe)
 Copying SCF densities to generalized density rwf, IOpCl= 1 IROHF=0.

 **********************************************************************

            Population analysis using the SCF density.

 **********************************************************************

 Orbital symmetries:
 Alpha Orbitals:
       Occupied  (A) (A) (A) (A) (A) (A) (A) (A) (A) (A) (A) (A)
                 (A) (A) (A) (A) (A) (A) (A) (A) (A) (A) (A) (A)
                 (A) (A) (A) (A) (A) (A) (A) (A) (A) (A) (A) (A)
                 (A) (A) (A) (A) (A) (A) (A) (A) (A) (A) (A) (A)
                 (A) (A) (A) (A) (A) (A) (A) (A) (A) (A) (A) (A)
                 (A) (A) (A) (A) (A) (A) (A) (A) (A) (A) (A) (A)
                 (A) (A) (A) (A) (A) (A) (A) (A) (A) (A) (A) (A)
                 (A) (A) (A) (A) (A) (A) (A) (A) (A) (A) (A) (A)
                 (A) (A) (A) (A) (A) (A) (A) (A) (A) (A) (A) (A)
                 (A) (A) (A) (A) (A) (A) (A) (A) (A) (A) (A) (A)
                 (A) (A) (A) (A) (A) (A) (A) (A) (A) (A) (A) (A)
                 (A) (A) (A) (A) (A) (A) (A) (A) (A) (A) (A) (A)
                 (A) (A) (A) (A) (A) (A) (A) (A) (A) (A) (A) (A)
                 (A) (A)
       Virtual   (A) (A) (A) (A) (A) (A) (A) (A) (A) (A) (A) (A)
                 (A) (A) (A) (A) (A) (A) (A) (A) (A) (A) (A) (A)
                 (A) (A) (A) (A) (A) (A) (A) (A) (A) (A) (A) (A)
                 (A) (A) (A) (A) (A) (A) (A) (A) (A) (A) (A) (A)
                 (A) (A) (A) (A) (A) (A) (A) (A) (A) (A) (A) (A)
                 (A) (A) (A) (A) (A) (A) (A) (A) (A) (A) (A) (A)
                 (A) (A) (A) (A) (A) (A) (A) (A) (A) (A) (A) (A)
                 (A) (A) (A) (A) (A) (A) (A) (A) (A) (A) (A) (A)
                 (A) (A) (A) (A) (A) (A) (A) (A) (A) (A) (A) (A)
                 (A) (A) (A) (A) (A) (A) (A) (A) (A) (A) (A) (A)
                 (A) (A) (A) (A) (A) (A) (A) (A) (A) (A) (A) (A)
                 (A) (A) (A) (A) (A) (A) (A) (A) (A) (A) (A) (A)
                 (A) (A) (A) (A) (A) (A) (A) (A) (A) (A) (A) (A)
                 (A) (A) (A) (A) (A) (A) (A) (A) (A) (A) (A) (A)
                 (A) (A) (A) (A) (A) (A) (A) (A) (A) (A) (A) (A)
                 (A) (A) (A) (A) (A) (A) (A) (A) (A) (A) (A) (A)
                 (A) (A) (A) (A) (A) (A) (A) (A) (A) (A) (A) (A)
                 (A) (A) (A) (A) (A) (A) (A) (A) (A) (A) (A) (A)
                 (A) (A) (A) (A) (A) (A) (A) (A) (A) (A) (A) (A)
                 (A) (A) (A) (A) (A) (A) (A) (A) (A) (A) (A) (A)
                 (A) (A) (A) (A) (A) (A) (A) (A) (A) (A) (A) (A)
                 (A) (A) (A) (A) (A) (A) (A) (A) (A) (A) (A) (A)
                 (A) (A) (A) (A) (A) (A) (A) (A) (A) (A) (A) (A)
                 (A) (A) (A) (A) (A) (A) (A) (A) (A) (A) (A) (A)
                 (A) (A) (A) (A) (A) (A) (A) (A) (A) (A) (A) (A)
                 (A) (A) (A) (A) (A) (A) (A) (A) (A) (A) (A) (A)
                 (A) (A) (A) (A) (A) (A) (A) (A) (A) (A) (A) (A)
                 (A) (A) (A) (A) (A) (A) (A) (A) (A) (A) (A) (A)
                 (A) (A) (A) (A) (A) (A) (A) (A) (A) (A) (A) (A)
                 (A) (A) (A) (A) (A) (A) (A) (A) (A) (A) (A) (A)
                 (A) (A) (A) (A) (A) (A) (A) (A) (A) (A) (A) (A)
                 (A) (A) (A) (A) (A) (A) (A) (A) (A) (A) (A) (A)
                 (A) (A) (A) (A) (A) (A) (A) (A) (A) (A) (A) (A)
                 (A) (A) (A) (A) (A) (A) (A) (A) (A) (A) (A) (A)
                 (A) (A) (A) (A) (A) (A) (A) (A) (A) (A) (A) (A)
                 (A) (A) (A) (A) (A) (A) (A) (A) (A) (A) (A) (A)
                 (A) (A) (A) (A) (A) (A) (A) (A) (A) (A) (A) (A)
                 (A) (A) (A) (A) (A) (A) (A) (A) (A) (A) (A) (A)
                 (A) (A) (A) (A) (A) (A) (A) (A) (A) (A) (A) (A)
                 (A) (A) (A) (A) (A) (A) (A) (A) (A) (A) (A) (A)
                 (A) (A) (A) (A) (A) (A) (A) (A) (A) (A) (A) (A)
                 (A) (A) (A) (A) (A) (A) (A) (A) (A) (A) (A) (A)
                 (A) (A) (A) (A) (A) (A) (A) (A) (A) (A) (A) (A)
                 (A) (A) (A) (A) (A) (A) (A) (A) (A) (A) (A) (A)
                 (A) (A) (A) (A) (A) (A) (A) (A) (A) (A) (A) (A)
                 (A) (A) (A) (A) (A) (A) (A) (A) (A) (A) (A) (A)
                 (A) (A) (A) (A) (A) (A) (A) (A) (A) (A) (A) (A)
                 (A) (A) (A) (A) (A) (A) (A) (A) (A) (A) (A) (A)
                 (A) (A) (A) (A) (A) (A) (A) (A) (A) (A) (A) (A)
                 (A) (A) (A) (A) (A) (A) (A) (A) (A) (A) (A) (A)
                 (A) (A) (A) (A) (A) (A) (A) (A) (A) (A) (A) (A)
                 (A) (A) (A) (A) (A) (A) (A) (A) (A) (A) (A) (A)
                 (A) (A) (A) (A) (A) (A) (A) (A) (A) (A) (A) (A)
                 (A) (A) (A) (A) (A) (A) (A) (A) (A) (A) (A) (A)
                 (A) (A) (A) (A) (A) (A) (A) (A) (A) (A) (A) (A)
                 (A) (A) (A) (A) (A) (A) (A) (A) (A) (A) (A) (A)
                 (A) (A) (A) (A) (A) (A) (A) (A) (A) (A) (A) (A)
                 (A) (A) (A) (A) (A) (A) (A) (A) (A) (A) (A) (A)
                 (A) (A) (A) (A) (A) (A) (A) (A) (A) (A) (A) (A)
                 (A) (A) (A) (A) (A) (A) (A) (A) (A) (A) (A) (A)
                 (A) (A) (A) (A) (A) (A) (A) (A) (A) (A) (A) (A)
                 (A) (A) (A) (A) (A) (A) (A) (A) (A) (A) (A) (A)
                 (A) (A) (A) (A) (A) (A) (A) (A) (A) (A) (A) (A)
                 (A) (A) (A) (A) (A) (A) (A) (A) (A) (A) (A) (A)
                 (A) (A) (A) (A) (A) (A) (A) (A) (A) (A) (A) (A)
                 (A) (A) (A) (A) (A) (A) (A) (A) (A) (A) (A) (A)
                 (A) (A) (A) (A) (A) (A) (A) (A) (A) (A) (A) (A)
                 (A) (A) (A) (A) (A) (A) (A) (A) (A) (A) (A) (A)
                 (A) (A) (A) (A) (A) (A) (A) (A) (A) (A) (A) (A)
                 (A) (A) (A) (A) (A) (A) (A) (A) (A) (A) (A) (A)
                 (A) (A) (A) (A) (A) (A) (A) (A) (A) (A) (A) (A)
                 (A) (A) (A) (A) (A) (A) (A) (A) (A) (A) (A) (A)
                 (A) (A) (A) (A) (A) (A) (A) (A) (A) (A) (A) (A)
                 (A) (A) (A) (A) (A) (A) (A) (A) (A) (A) (A) (A)
                 (A) (A) (A) (A) (A) (A) (A) (A) (A) (A) (A) (A)
                 (A) (A) (A) (A) (A) (A) (A) (A) (A) (A) (A) (A)
                 (A) (A) (A) (A) (A) (A) (A) (A) (A) (A) (A) (A)
                 (A) (A) (A) (A) (A) (A) (A) (A) (A) (A) (A) (A)
                 (A) (A) (A) (A) (A) (A) (A) (A) (A) (A) (A) (A)
                 (A) (A) (A) (A) (A) (A) (A) (A) (A) (A) (A) (A)
                 (A) (A) (A) (A) (A) (A) (A) (A) (A) (A) (A) (A)
                 (A) (A) (A) (A) (A) (A) (A) (A) (A) (A) (A) (A)
                 (A) (A) (A) (A) (A) (A) (A) (A) (A) (A) (A) (A)
                 (A) (A) (A) (A) (A) (A) (A) (A) (A) (A) (A) (A)
                 (A) (A) (A) (A) (A) (A) (A) (A) (A) (A) (A) (A)
                 (A) (A) (A) (A) (A) (A) (A) (A) (A) (A) (A) (A)
                 (A) (A) (A) (A) (A) (A) (A) (A) (A) (A) (A) (A)
                 (A) (A) (A) (A) (A) (A) (A) (A) (A) (A) (A) (A)
                 (A) (A) (A) (A) (A) (A) (A) (A) (A) (A) (A) (A)
                 (A) (A) (A) (A) (A) (A) (A) (A) (A) (A) (A) (A)
                 (A) (A) (A) (A) (A) (A) (A) (A) (A) (A) (A) (A)
                 (A) (A) (A) (A) (A) (A) (A) (A) (A) (A) (A) (A)
                 (A) (A) (A) (A) (A) (A) (A) (A) (A) (A) (A) (A)
                 (A) (A) (A) (A) (A) (A) (A) (A) (A) (A) (A) (A)
                 (A) (A) (A) (A) (A) (A) (A) (A) (A) (A) (A) (A)
                 (A) (A) (A) (A) (A) (A) (A) (A) (A) (A) (A) (A)
                 (A) (A) (A) (A) (A) (A) (A) (A) (A) (A) (A) (A)
                 (A) (A) (A) (A) (A) (A) (A) (A) (A) (A) (A) (A)
                 (A) (A) (A) (A) (A) (A) (A) (A) (A) (A) (A) (A)
                 (A) (A) (A) (A) (A) (A) (A) (A) (A) (A) (A) (A)
                 (A) (A) (A) (A) (A) (A) (A) (A) (A) (A) (A) (A)
                 (A) (A) (A) (A) (A) (A) (A) (A) (A) (A) (A) (A)
                 (A) (A) (A) (A) (A) (A) (A) (A) (A) (A) (A) (A)
                 (A) (A) (A) (A) (A) (A) (A) (A) (A) (A) (A) (A)
                 (A) (A) (A) (A) (A) (A) (A) (A) (A) (A) (A) (A)
                 (A) (A) (A) (A) (A) (A) (A) (A) (A) (A) (A) (A)
                 (A) (A) (A) (A) (A) (A) (A) (A) (A) (A) (A) (A)
                 (A) (A) (A) (A) (A) (A) (A) (A) (A) (A) (A) (A)
                 (A) (A) (A) (A) (A) (A) (A) (A) (A) (A) (A) (A)
                 (A) (A) (A) (A) (A) (A) (A) (A) (A) (A) (A) (A)
                 (A) (A) (A) (A) (A) (A) (A) (A) (A) (A) (A) (A)
                 (A) (A) (A) (A) (A) (A) (A) (A) (A) (A) (A) (A)
                 (A) (A) (A) (A) (A) (A) (A) (A) (A) (A) (A) (A)
                 (A) (A) (A) (A) (A) (A) (A) (A) (A) (A) (A) (A)
                 (A) (A) (A) (A) (A) (A) (A) (A) (A) (A) (A) (A)
                 (A) (A) (A) (A) (A) (A) (A) (A) (A) (A) (A) (A)
                 (A) (A) (A) (A) (A) (A) (A) (A) (A) (A) (A) (A)
                 (A) (A) (A) (A) (A) (A) (A) (A) (A) (A) (A) (A)
                 (A) (A) (A) (A) (A) (A) (A) (A) (A) (A) (A) (A)
                 (A) (A) (A) (A) (A) (A) (A) (A) (A) (A) (A) (A)
                 (A) (A) (A) (A) (A) (A) (A) (A) (A) (A) (A) (A)
                 (A) (A) (A) (A) (A) (A) (A) (A) (A) (A) (A) (A)
                 (A) (A) (A) (A) (A) (A) (A) (A) (A) (A) (A) (A)
                 (A) (A) (A) (A) (A) (A) (A) (A) (A) (A) (A) (A)
                 (A) (A) (A) (A) (A) (A) (A) (A) (A) (A) (A) (A)
                 (A) (A) (A) (A) (A) (A) (A) (A) (A) (A) (A) (A)
                 (A) (A) (A) (A) (A) (A) (A) (A) (A) (A) (A) (A)
                 (A) (A) (A) (A) (A) (A) (A) (A) (A) (A) (A) (A)
                 (A) (A) (A) (A) (A) (A) (A) (A) (A) (A) (A) (A)
                 (A) (A) (A) (A) (A) (A) (A) (A) (A) (A) (A) (A)
                 (A) (A) (A) (A) (A) (A) (A) (A) (A) (A) (A) (A)
                 (A) (A) (A) (A) (A) (A) (A) (A) (A) (A) (A) (A)
                 (A) (A) (A) (A) (A) (A) (A) (A) (A) (A) (A) (A)
                 (A) (A) (A) (A) (A) (A) (A) (A) (A) (A) (A) (A)
                 (A) (A) (A) (A) (A) (A) (A)
 Beta  Orbitals:
       Occupied  (A) (A) (A) (A) (A) (A) (A) (A) (A) (A) (A) (A)
                 (A) (A) (A) (A) (A) (A) (A) (A) (A) (A) (A) (A)
                 (A) (A) (A) (A) (A) (A) (A) (A) (A) (A) (A) (A)
                 (A) (A) (A) (A) (A) (A) (A) (A) (A) (A) (A) (A)
                 (A) (A) (A) (A) (A) (A) (A) (A) (A) (A) (A) (A)
                 (A) (A) (A) (A) (A) (A) (A) (A) (A) (A) (A) (A)
                 (A) (A) (A) (A) (A) (A) (A) (A) (A) (A) (A) (A)
                 (A) (A) (A) (A) (A) (A) (A) (A) (A) (A) (A) (A)
                 (A) (A) (A) (A) (A) (A) (A) (A) (A) (A) (A) (A)
                 (A) (A) (A) (A) (A) (A) (A) (A) (A) (A) (A) (A)
                 (A) (A) (A) (A) (A) (A) (A) (A) (A) (A) (A) (A)
                 (A) (A) (A) (A) (A) (A) (A) (A) (A) (A) (A) (A)
                 (A) (A) (A) (A) (A) (A) (A) (A) (A) (A) (A) (A)
                 (A)
       Virtual   (A) (A) (A) (A) (A) (A) (A) (A) (A) (A) (A) (A)
                 (A) (A) (A) (A) (A) (A) (A) (A) (A) (A) (A) (A)
                 (A) (A) (A) (A) (A) (A) (A) (A) (A) (A) (A) (A)
                 (A) (A) (A) (A) (A) (A) (A) (A) (A) (A) (A) (A)
                 (A) (A) (A) (A) (A) (A) (A) (A) (A) (A) (A) (A)
                 (A) (A) (A) (A) (A) (A) (A) (A) (A) (A) (A) (A)
                 (A) (A) (A) (A) (A) (A) (A) (A) (A) (A) (A) (A)
                 (A) (A) (A) (A) (A) (A) (A) (A) (A) (A) (A) (A)
                 (A) (A) (A) (A) (A) (A) (A) (A) (A) (A) (A) (A)
                 (A) (A) (A) (A) (A) (A) (A) (A) (A) (A) (A) (A)
                 (A) (A) (A) (A) (A) (A) (A) (A) (A) (A) (A) (A)
                 (A) (A) (A) (A) (A) (A) (A) (A) (A) (A) (A) (A)
                 (A) (A) (A) (A) (A) (A) (A) (A) (A) (A) (A) (A)
                 (A) (A) (A) (A) (A) (A) (A) (A) (A) (A) (A) (A)
                 (A) (A) (A) (A) (A) (A) (A) (A) (A) (A) (A) (A)
                 (A) (A) (A) (A) (A) (A) (A) (A) (A) (A) (A) (A)
                 (A) (A) (A) (A) (A) (A) (A) (A) (A) (A) (A) (A)
                 (A) (A) (A) (A) (A) (A) (A) (A) (A) (A) (A) (A)
                 (A) (A) (A) (A) (A) (A) (A) (A) (A) (A) (A) (A)
                 (A) (A) (A) (A) (A) (A) (A) (A) (A) (A) (A) (A)
                 (A) (A) (A) (A) (A) (A) (A) (A) (A) (A) (A) (A)
                 (A) (A) (A) (A) (A) (A) (A) (A) (A) (A) (A) (A)
                 (A) (A) (A) (A) (A) (A) (A) (A) (A) (A) (A) (A)
                 (A) (A) (A) (A) (A) (A) (A) (A) (A) (A) (A) (A)
                 (A) (A) (A) (A) (A) (A) (A) (A) (A) (A) (A) (A)
                 (A) (A) (A) (A) (A) (A) (A) (A) (A) (A) (A) (A)
                 (A) (A) (A) (A) (A) (A) (A) (A) (A) (A) (A) (A)
                 (A) (A) (A) (A) (A) (A) (A) (A) (A) (A) (A) (A)
                 (A) (A) (A) (A) (A) (A) (A) (A) (A) (A) (A) (A)
                 (A) (A) (A) (A) (A) (A) (A) (A) (A) (A) (A) (A)
                 (A) (A) (A) (A) (A) (A) (A) (A) (A) (A) (A) (A)
                 (A) (A) (A) (A) (A) (A) (A) (A) (A) (A) (A) (A)
                 (A) (A) (A) (A) (A) (A) (A) (A) (A) (A) (A) (A)
                 (A) (A) (A) (A) (A) (A) (A) (A) (A) (A) (A) (A)
                 (A) (A) (A) (A) (A) (A) (A) (A) (A) (A) (A) (A)
                 (A) (A) (A) (A) (A) (A) (A) (A) (A) (A) (A) (A)
                 (A) (A) (A) (A) (A) (A) (A) (A) (A) (A) (A) (A)
                 (A) (A) (A) (A) (A) (A) (A) (A) (A) (A) (A) (A)
                 (A) (A) (A) (A) (A) (A) (A) (A) (A) (A) (A) (A)
                 (A) (A) (A) (A) (A) (A) (A) (A) (A) (A) (A) (A)
                 (A) (A) (A) (A) (A) (A) (A) (A) (A) (A) (A) (A)
                 (A) (A) (A) (A) (A) (A) (A) (A) (A) (A) (A) (A)
                 (A) (A) (A) (A) (A) (A) (A) (A) (A) (A) (A) (A)
                 (A) (A) (A) (A) (A) (A) (A) (A) (A) (A) (A) (A)
                 (A) (A) (A) (A) (A) (A) (A) (A) (A) (A) (A) (A)
                 (A) (A) (A) (A) (A) (A) (A) (A) (A) (A) (A) (A)
                 (A) (A) (A) (A) (A) (A) (A) (A) (A) (A) (A) (A)
                 (A) (A) (A) (A) (A) (A) (A) (A) (A) (A) (A) (A)
                 (A) (A) (A) (A) (A) (A) (A) (A) (A) (A) (A) (A)
                 (A) (A) (A) (A) (A) (A) (A) (A) (A) (A) (A) (A)
                 (A) (A) (A) (A) (A) (A) (A) (A) (A) (A) (A) (A)
                 (A) (A) (A) (A) (A) (A) (A) (A) (A) (A) (A) (A)
                 (A) (A) (A) (A) (A) (A) (A) (A) (A) (A) (A) (A)
                 (A) (A) (A) (A) (A) (A) (A) (A) (A) (A) (A) (A)
                 (A) (A) (A) (A) (A) (A) (A) (A) (A) (A) (A) (A)
                 (A) (A) (A) (A) (A) (A) (A) (A) (A) (A) (A) (A)
                 (A) (A) (A) (A) (A) (A) (A) (A) (A) (A) (A) (A)
                 (A) (A) (A) (A) (A) (A) (A) (A) (A) (A) (A) (A)
                 (A) (A) (A) (A) (A) (A) (A) (A) (A) (A) (A) (A)
                 (A) (A) (A) (A) (A) (A) (A) (A) (A) (A) (A) (A)
                 (A) (A) (A) (A) (A) (A) (A) (A) (A) (A) (A) (A)
                 (A) (A) (A) (A) (A) (A) (A) (A) (A) (A) (A) (A)
                 (A) (A) (A) (A) (A) (A) (A) (A) (A) (A) (A) (A)
                 (A) (A) (A) (A) (A) (A) (A) (A) (A) (A) (A) (A)
                 (A) (A) (A) (A) (A) (A) (A) (A) (A) (A) (A) (A)
                 (A) (A) (A) (A) (A) (A) (A) (A) (A) (A) (A) (A)
                 (A) (A) (A) (A) (A) (A) (A) (A) (A) (A) (A) (A)
                 (A) (A) (A) (A) (A) (A) (A) (A) (A) (A) (A) (A)
                 (A) (A) (A) (A) (A) (A) (A) (A) (A) (A) (A) (A)
                 (A) (A) (A) (A) (A) (A) (A) (A) (A) (A) (A) (A)
                 (A) (A) (A) (A) (A) (A) (A) (A) (A) (A) (A) (A)
                 (A) (A) (A) (A) (A) (A) (A) (A) (A) (A) (A) (A)
                 (A) (A) (A) (A) (A) (A) (A) (A) (A) (A) (A) (A)
                 (A) (A) (A) (A) (A) (A) (A) (A) (A) (A) (A) (A)
                 (A) (A) (A) (A) (A) (A) (A) (A) (A) (A) (A) (A)
                 (A) (A) (A) (A) (A) (A) (A) (A) (A) (A) (A) (A)
                 (A) (A) (A) (A) (A) (A) (A) (A) (A) (A) (A) (A)
                 (A) (A) (A) (A) (A) (A) (A) (A) (A) (A) (A) (A)
                 (A) (A) (A) (A) (A) (A) (A) (A) (A) (A) (A) (A)
                 (A) (A) (A) (A) (A) (A) (A) (A) (A) (A) (A) (A)
                 (A) (A) (A) (A) (A) (A) (A) (A) (A) (A) (A) (A)
                 (A) (A) (A) (A) (A) (A) (A) (A) (A) (A) (A) (A)
                 (A) (A) (A) (A) (A) (A) (A) (A) (A) (A) (A) (A)
                 (A) (A) (A) (A) (A) (A) (A) (A) (A) (A) (A) (A)
                 (A) (A) (A) (A) (A) (A) (A) (A) (A) (A) (A) (A)
                 (A) (A) (A) (A) (A) (A) (A) (A) (A) (A) (A) (A)
                 (A) (A) (A) (A) (A) (A) (A) (A) (A) (A) (A) (A)
                 (A) (A) (A) (A) (A) (A) (A) (A) (A) (A) (A) (A)
                 (A) (A) (A) (A) (A) (A) (A) (A) (A) (A) (A) (A)
                 (A) (A) (A) (A) (A) (A) (A) (A) (A) (A) (A) (A)
                 (A) (A) (A) (A) (A) (A) (A) (A) (A) (A) (A) (A)
                 (A) (A) (A) (A) (A) (A) (A) (A) (A) (A) (A) (A)
                 (A) (A) (A) (A) (A) (A) (A) (A) (A) (A) (A) (A)
                 (A) (A) (A) (A) (A) (A) (A) (A) (A) (A) (A) (A)
                 (A) (A) (A) (A) (A) (A) (A) (A) (A) (A) (A) (A)
                 (A) (A) (A) (A) (A) (A) (A) (A) (A) (A) (A) (A)
                 (A) (A) (A) (A) (A) (A) (A) (A) (A) (A) (A) (A)
                 (A) (A) (A) (A) (A) (A) (A) (A) (A) (A) (A) (A)
                 (A) (A) (A) (A) (A) (A) (A) (A) (A) (A) (A) (A)
                 (A) (A) (A) (A) (A) (A) (A) (A) (A) (A) (A) (A)
                 (A) (A) (A) (A) (A) (A) (A) (A) (A) (A) (A) (A)
                 (A) (A) (A) (A) (A) (A) (A) (A) (A) (A) (A) (A)
                 (A) (A) (A) (A) (A) (A) (A) (A) (A) (A) (A) (A)
                 (A) (A) (A) (A) (A) (A) (A) (A) (A) (A) (A) (A)
                 (A) (A) (A) (A) (A) (A) (A) (A) (A) (A) (A) (A)
                 (A) (A) (A) (A) (A) (A) (A) (A) (A) (A) (A) (A)
                 (A) (A) (A) (A) (A) (A) (A) (A) (A) (A) (A) (A)
                 (A) (A) (A) (A) (A) (A) (A) (A) (A) (A) (A) (A)
                 (A) (A) (A) (A) (A) (A) (A) (A) (A) (A) (A) (A)
                 (A) (A) (A) (A) (A) (A) (A) (A) (A) (A) (A) (A)
                 (A) (A) (A) (A) (A) (A) (A) (A) (A) (A) (A) (A)
                 (A) (A) (A) (A) (A) (A) (A) (A) (A) (A) (A) (A)
                 (A) (A) (A) (A) (A) (A) (A) (A) (A) (A) (A) (A)
                 (A) (A) (A) (A) (A) (A) (A) (A) (A) (A) (A) (A)
                 (A) (A) (A) (A) (A) (A) (A) (A) (A) (A) (A) (A)
                 (A) (A) (A) (A) (A) (A) (A) (A) (A) (A) (A) (A)
                 (A) (A) (A) (A) (A) (A) (A) (A) (A) (A) (A) (A)
                 (A) (A) (A) (A) (A) (A) (A) (A) (A) (A) (A) (A)
                 (A) (A) (A) (A) (A) (A) (A) (A) (A) (A) (A) (A)
                 (A) (A) (A) (A) (A) (A) (A) (A) (A) (A) (A) (A)
                 (A) (A) (A) (A) (A) (A) (A) (A) (A) (A) (A) (A)
                 (A) (A) (A) (A) (A) (A) (A) (A) (A) (A) (A) (A)
                 (A) (A) (A) (A) (A) (A) (A) (A) (A) (A) (A) (A)
                 (A) (A) (A) (A) (A) (A) (A) (A) (A) (A) (A) (A)
                 (A) (A) (A) (A) (A) (A) (A) (A) (A) (A) (A) (A)
                 (A) (A) (A) (A) (A) (A) (A) (A) (A) (A) (A) (A)
                 (A) (A) (A) (A) (A) (A) (A) (A) (A) (A) (A) (A)
                 (A) (A) (A) (A) (A) (A) (A) (A) (A) (A) (A) (A)
                 (A) (A) (A) (A) (A) (A) (A) (A) (A) (A) (A) (A)
                 (A) (A) (A) (A) (A) (A) (A) (A) (A) (A) (A) (A)
                 (A) (A) (A) (A) (A) (A) (A) (A) (A) (A) (A) (A)
                 (A) (A) (A) (A) (A) (A) (A) (A) (A) (A) (A) (A)
                 (A) (A) (A) (A) (A) (A) (A) (A) (A) (A) (A) (A)
                 (A) (A) (A) (A) (A) (A) (A) (A) (A) (A) (A) (A)
                 (A) (A) (A) (A) (A) (A) (A) (A)
 The electronic state is 2-A.
 Alpha  occ. eigenvalues --  -25.19591 -25.19362 -19.67096 -19.67090 -19.66755
 Alpha  occ. eigenvalues --  -19.66742 -15.00634 -15.00324 -14.76749 -14.76723
 Alpha  occ. eigenvalues --  -10.60881 -10.60543 -10.58059 -10.57978 -10.57278
 Alpha  occ. eigenvalues --  -10.57265 -10.57160 -10.57156 -10.57154 -10.56999
 Alpha  occ. eigenvalues --  -10.56992 -10.56808 -10.56189 -10.56138 -10.56079
 Alpha  occ. eigenvalues --  -10.56052 -10.56047 -10.55951 -10.55158 -10.55152
 Alpha  occ. eigenvalues --  -10.55119 -10.54940 -10.54807 -10.54688 -10.54472
 Alpha  occ. eigenvalues --  -10.54085 -10.53909 -10.53347 -10.53343 -10.53086
 Alpha  occ. eigenvalues --  -10.52960 -10.52902 -10.52863 -10.52852  -7.11651
 Alpha  occ. eigenvalues --   -1.35726  -1.35211  -1.31350  -1.28080  -1.17200
 Alpha  occ. eigenvalues --   -1.16679  -1.08679  -1.06758  -0.99907  -0.99729
 Alpha  occ. eigenvalues --   -0.96997  -0.93543  -0.93363  -0.91059  -0.90184
 Alpha  occ. eigenvalues --   -0.89597  -0.87756  -0.86878  -0.86748  -0.86248
 Alpha  occ. eigenvalues --   -0.85423  -0.84906  -0.81985  -0.79764  -0.78884
 Alpha  occ. eigenvalues --   -0.78158  -0.77961  -0.76618  -0.73367  -0.71891
 Alpha  occ. eigenvalues --   -0.71800  -0.71188  -0.70119  -0.67889  -0.67033
 Alpha  occ. eigenvalues --   -0.66331  -0.65357  -0.65241  -0.65092  -0.64972
 Alpha  occ. eigenvalues --   -0.64006  -0.63869  -0.62531  -0.62185  -0.62080
 Alpha  occ. eigenvalues --   -0.61147  -0.60893  -0.59461  -0.58982  -0.58065
 Alpha  occ. eigenvalues --   -0.57270  -0.56878  -0.55753  -0.55397  -0.54668
 Alpha  occ. eigenvalues --   -0.54140  -0.53176  -0.52982  -0.52589  -0.51833
 Alpha  occ. eigenvalues --   -0.51217  -0.51013  -0.50700  -0.50584  -0.50288
 Alpha  occ. eigenvalues --   -0.50006  -0.49638  -0.49298  -0.48714  -0.47681
 Alpha  occ. eigenvalues --   -0.47623  -0.47556  -0.47212  -0.46864  -0.46751
 Alpha  occ. eigenvalues --   -0.46535  -0.46505  -0.46246  -0.46097  -0.45943
 Alpha  occ. eigenvalues --   -0.45809  -0.45476  -0.44181  -0.43990  -0.43218
 Alpha  occ. eigenvalues --   -0.42530  -0.42366  -0.42207  -0.41534  -0.40921
 Alpha  occ. eigenvalues --   -0.40645  -0.40474  -0.40190  -0.39897  -0.39657
 Alpha  occ. eigenvalues --   -0.39133  -0.39047  -0.38905  -0.38792  -0.38647
 Alpha  occ. eigenvalues --   -0.38624  -0.38546  -0.35121  -0.33363  -0.33298
 Alpha  occ. eigenvalues --   -0.33264  -0.33077  -0.29260  -0.29052  -0.28730
 Alpha  occ. eigenvalues --   -0.27124  -0.24612  -0.18450
 Alpha virt. eigenvalues --   -0.07788  -0.07747  -0.01046  -0.00717   0.00365
 Alpha virt. eigenvalues --    0.00666   0.01945   0.02504   0.05724   0.05888
 Alpha virt. eigenvalues --    0.06642   0.06781   0.07722   0.08243   0.08704
 Alpha virt. eigenvalues --    0.08772   0.08831   0.09083   0.09569   0.10085
 Alpha virt. eigenvalues --    0.10312   0.10881   0.11365   0.11588   0.11810
 Alpha virt. eigenvalues --    0.12195   0.12283   0.12446   0.12684   0.12983
 Alpha virt. eigenvalues --    0.13423   0.13535   0.13854   0.14335   0.14576
 Alpha virt. eigenvalues --    0.15084   0.15336   0.15548   0.16196   0.16397
 Alpha virt. eigenvalues --    0.16566   0.16894   0.17328   0.17447   0.17814
 Alpha virt. eigenvalues --    0.17913   0.18005   0.18094   0.18284   0.18610
 Alpha virt. eigenvalues --    0.18900   0.19381   0.19992   0.20461   0.20509
 Alpha virt. eigenvalues --    0.21057   0.21235   0.21736   0.22016   0.22124
 Alpha virt. eigenvalues --    0.22314   0.22544   0.22805   0.22875   0.23170
 Alpha virt. eigenvalues --    0.23400   0.23774   0.23893   0.24083   0.24247
 Alpha virt. eigenvalues --    0.24527   0.24691   0.25071   0.25291   0.25455
 Alpha virt. eigenvalues --    0.25542   0.25816   0.26091   0.26372   0.26660
 Alpha virt. eigenvalues --    0.26759   0.26915   0.27060   0.27292   0.27596
 Alpha virt. eigenvalues --    0.27942   0.28135   0.28744   0.29008   0.29232
 Alpha virt. eigenvalues --    0.29476   0.29670   0.29938   0.30072   0.30366
 Alpha virt. eigenvalues --    0.30695   0.30847   0.31230   0.31468   0.31669
 Alpha virt. eigenvalues --    0.32125   0.32534   0.32737   0.32939   0.33328
 Alpha virt. eigenvalues --    0.33459   0.33579   0.33821   0.34220   0.34340
 Alpha virt. eigenvalues --    0.34688   0.34901   0.35325   0.35386   0.35590
 Alpha virt. eigenvalues --    0.35883   0.36014   0.36241   0.36291   0.36545
 Alpha virt. eigenvalues --    0.36710   0.36962   0.37247   0.37281   0.37384
 Alpha virt. eigenvalues --    0.38041   0.38145   0.38338   0.38488   0.38629
 Alpha virt. eigenvalues --    0.38833   0.38973   0.39181   0.39390   0.39703
 Alpha virt. eigenvalues --    0.40005   0.40171   0.40486   0.40663   0.40894
 Alpha virt. eigenvalues --    0.41011   0.41411   0.41622   0.41893   0.42248
 Alpha virt. eigenvalues --    0.42266   0.42566   0.42757   0.43024   0.43106
 Alpha virt. eigenvalues --    0.43241   0.43557   0.43583   0.43722   0.44035
 Alpha virt. eigenvalues --    0.44414   0.44462   0.44649   0.44864   0.45105
 Alpha virt. eigenvalues --    0.45621   0.45787   0.45931   0.46068   0.46416
 Alpha virt. eigenvalues --    0.46800   0.47098   0.47227   0.47444   0.47540
 Alpha virt. eigenvalues --    0.47801   0.48225   0.48387   0.48505   0.48593
 Alpha virt. eigenvalues --    0.48878   0.49428   0.49968   0.50023   0.50264
 Alpha virt. eigenvalues --    0.50522   0.50615   0.50920   0.51301   0.51403
 Alpha virt. eigenvalues --    0.51804   0.51975   0.52267   0.52494   0.52661
 Alpha virt. eigenvalues --    0.52797   0.52954   0.53093   0.53481   0.53779
 Alpha virt. eigenvalues --    0.53987   0.54369   0.54492   0.54569   0.55134
 Alpha virt. eigenvalues --    0.55219   0.55744   0.56064   0.56356   0.56689
 Alpha virt. eigenvalues --    0.56719   0.57091   0.57488   0.57775   0.58002
 Alpha virt. eigenvalues --    0.58084   0.58393   0.58508   0.58847   0.59265
 Alpha virt. eigenvalues --    0.59428   0.59702   0.59912   0.60075   0.60470
 Alpha virt. eigenvalues --    0.61000   0.61063   0.61272   0.61563   0.61771
 Alpha virt. eigenvalues --    0.62515   0.62699   0.63126   0.63346   0.63486
 Alpha virt. eigenvalues --    0.63771   0.63951   0.63968   0.64270   0.64581
 Alpha virt. eigenvalues --    0.64637   0.64991   0.65173   0.65563   0.65813
 Alpha virt. eigenvalues --    0.66042   0.66332   0.66654   0.67210   0.67521
 Alpha virt. eigenvalues --    0.67768   0.68110   0.68220   0.68692   0.68787
 Alpha virt. eigenvalues --    0.69213   0.69322   0.69510   0.69584   0.69842
 Alpha virt. eigenvalues --    0.70018   0.70655   0.70883   0.71340   0.71647
 Alpha virt. eigenvalues --    0.71749   0.71844   0.72108   0.72561   0.72686
 Alpha virt. eigenvalues --    0.72913   0.73251   0.73485   0.73887   0.74096
 Alpha virt. eigenvalues --    0.74507   0.74744   0.75077   0.75348   0.75738
 Alpha virt. eigenvalues --    0.75900   0.76117   0.76660   0.76673   0.77268
 Alpha virt. eigenvalues --    0.77370   0.77491   0.77623   0.77745   0.78083
 Alpha virt. eigenvalues --    0.78526   0.78940   0.79050   0.79335   0.79648
 Alpha virt. eigenvalues --    0.79902   0.79967   0.80319   0.80749   0.80997
 Alpha virt. eigenvalues --    0.81277   0.81496   0.81718   0.82380   0.82743
 Alpha virt. eigenvalues --    0.82826   0.83192   0.83546   0.83614   0.83908
 Alpha virt. eigenvalues --    0.84100   0.84378   0.84746   0.85216   0.85437
 Alpha virt. eigenvalues --    0.85749   0.86074   0.86475   0.86680   0.87049
 Alpha virt. eigenvalues --    0.87276   0.87466   0.87618   0.88233   0.88597
 Alpha virt. eigenvalues --    0.88983   0.89315   0.89683   0.90036   0.90273
 Alpha virt. eigenvalues --    0.90886   0.91501   0.91840   0.92014   0.92599
 Alpha virt. eigenvalues --    0.93124   0.93259   0.93660   0.94428   0.94647
 Alpha virt. eigenvalues --    0.95267   0.95657   0.95721   0.96220   0.96529
 Alpha virt. eigenvalues --    0.96746   0.96831   0.97159   0.97495   0.97744
 Alpha virt. eigenvalues --    0.98034   0.98334   0.98919   0.99081   0.99497
 Alpha virt. eigenvalues --    0.99557   0.99631   0.99852   1.00142   1.00709
 Alpha virt. eigenvalues --    1.00758   1.01026   1.01295   1.01914   1.02063
 Alpha virt. eigenvalues --    1.02195   1.02347   1.02670   1.03261   1.03640
 Alpha virt. eigenvalues --    1.03871   1.04068   1.04192   1.04503   1.04726
 Alpha virt. eigenvalues --    1.05166   1.05748   1.05825   1.06051   1.06815
 Alpha virt. eigenvalues --    1.06933   1.07095   1.07650   1.07727   1.07934
 Alpha virt. eigenvalues --    1.08137   1.08440   1.08913   1.09126   1.09698
 Alpha virt. eigenvalues --    1.09804   1.09879   1.10820   1.11012   1.11741
 Alpha virt. eigenvalues --    1.11857   1.12252   1.12715   1.12970   1.13155
 Alpha virt. eigenvalues --    1.14117   1.14276   1.14343   1.15016   1.15379
 Alpha virt. eigenvalues --    1.15521   1.16029   1.16212   1.16766   1.17082
 Alpha virt. eigenvalues --    1.17114   1.17512   1.18318   1.18581   1.19034
 Alpha virt. eigenvalues --    1.19484   1.19741   1.20055   1.20428   1.20705
 Alpha virt. eigenvalues --    1.20944   1.21118   1.21369   1.22328   1.22348
 Alpha virt. eigenvalues --    1.22803   1.23010   1.23209   1.23648   1.24024
 Alpha virt. eigenvalues --    1.24229   1.24583   1.25042   1.25482   1.25783
 Alpha virt. eigenvalues --    1.25891   1.26221   1.26512   1.27228   1.27390
 Alpha virt. eigenvalues --    1.27722   1.28216   1.28612   1.28699   1.29269
 Alpha virt. eigenvalues --    1.29297   1.29740   1.30149   1.30280   1.30478
 Alpha virt. eigenvalues --    1.30950   1.31249   1.31514   1.31765   1.31909
 Alpha virt. eigenvalues --    1.32256   1.32624   1.33120   1.33550   1.33621
 Alpha virt. eigenvalues --    1.34314   1.34540   1.35353   1.35521   1.35861
 Alpha virt. eigenvalues --    1.36083   1.36509   1.36688   1.37087   1.37716
 Alpha virt. eigenvalues --    1.37871   1.38270   1.38815   1.38877   1.39205
 Alpha virt. eigenvalues --    1.39443   1.40136   1.40189   1.40479   1.40790
 Alpha virt. eigenvalues --    1.41013   1.41521   1.41656   1.42111   1.42566
 Alpha virt. eigenvalues --    1.42979   1.43557   1.43669   1.44382   1.44582
 Alpha virt. eigenvalues --    1.44729   1.45053   1.45204   1.45588   1.45855
 Alpha virt. eigenvalues --    1.45944   1.46440   1.46712   1.47474   1.47766
 Alpha virt. eigenvalues --    1.48765   1.48959   1.49397   1.49687   1.49885
 Alpha virt. eigenvalues --    1.50149   1.50432   1.50825   1.51143   1.51314
 Alpha virt. eigenvalues --    1.51421   1.51631   1.51713   1.52329   1.52847
 Alpha virt. eigenvalues --    1.53002   1.53392   1.53627   1.53808   1.54035
 Alpha virt. eigenvalues --    1.54175   1.54652   1.54955   1.55308   1.55426
 Alpha virt. eigenvalues --    1.55680   1.55975   1.56230   1.56776   1.56905
 Alpha virt. eigenvalues --    1.57080   1.57462   1.57892   1.58220   1.58575
 Alpha virt. eigenvalues --    1.58664   1.59045   1.59498   1.59645   1.60048
 Alpha virt. eigenvalues --    1.60702   1.61019   1.61914   1.62204   1.62350
 Alpha virt. eigenvalues --    1.62572   1.63462   1.63688   1.63968   1.64336
 Alpha virt. eigenvalues --    1.64398   1.64793   1.65136   1.65527   1.65692
 Alpha virt. eigenvalues --    1.66404   1.66840   1.66969   1.67265   1.67718
 Alpha virt. eigenvalues --    1.67841   1.68119   1.68283   1.68799   1.69330
 Alpha virt. eigenvalues --    1.69527   1.69954   1.70144   1.70228   1.71057
 Alpha virt. eigenvalues --    1.71340   1.71645   1.72190   1.72374   1.72538
 Alpha virt. eigenvalues --    1.72926   1.73845   1.74072   1.74633   1.75033
[...]
     7 C(13)  Bbb    -0.3093   -41.507   -14.811   -13.845 -0.2618  0.9483  0.1792
              Bcc     0.6195    83.124    29.661    27.727  0.0689 -0.1668  0.9836
 
              Baa    -0.1011   -13.571    -4.842    -4.527  0.1021 -0.1779  0.9787
     8 C(13)  Bbb     0.0405     5.439     1.941     1.814 -0.6740  0.7113  0.1995
              Bcc     0.0606     8.132     2.902     2.712  0.7316  0.6801  0.0473
 
              Baa    -0.1204   -16.156    -5.765    -5.389 -0.2823  0.9389  0.1971
     9 C(13)  Bbb    -0.1168   -15.676    -5.594    -5.229  0.9509  0.3010 -0.0720
              Bcc     0.2372    31.831    11.358    10.618  0.1270 -0.1671  0.9777
 
              Baa    -0.0147    -1.977    -0.705    -0.659  0.1141 -0.1883  0.9755
    10 C(13)  Bbb     0.0055     0.741     0.264     0.247  0.7282 -0.6521 -0.2110
              Bcc     0.0092     1.236     0.441     0.412  0.6759  0.7344  0.0627
 
              Baa    -0.0029    -0.383    -0.137    -0.128 -0.4001  0.8946  0.1993
    11 C(13)  Bbb     0.0007     0.091     0.033     0.030  0.9144  0.3749  0.1526
              Bcc     0.0022     0.292     0.104     0.097 -0.0618 -0.2433  0.9680
 
              Baa    -0.0068    -0.918    -0.328    -0.306 -0.4007  0.8956  0.1934
    12 C(13)  Bbb    -0.0032    -0.429    -0.153    -0.143  0.9085  0.4156 -0.0423
              Bcc     0.0100     1.348     0.481     0.450  0.1183 -0.1587  0.9802
 
              Baa    -0.0013    -0.180    -0.064    -0.060  0.1120 -0.1649  0.9799
    13 C(13)  Bbb    -0.0004    -0.057    -0.020    -0.019 -0.3540  0.9148  0.1944
              Bcc     0.0018     0.236     0.084     0.079  0.9285  0.3687 -0.0441
 
              Baa    -0.0021    -0.280    -0.100    -0.093 -0.1944  0.9646  0.1784
    14 C(13)  Bbb    -0.0007    -0.088    -0.031    -0.029  0.9742  0.2111 -0.0800
              Bcc     0.0027     0.368     0.131     0.123  0.1149 -0.1583  0.9807
 
              Baa    -0.0006    -0.077    -0.028    -0.026  0.1103 -0.1594  0.9810
    15 C(13)  Bbb    -0.0002    -0.026    -0.009    -0.009 -0.2770  0.9430  0.1843
              Bcc     0.0008     0.104     0.037     0.035  0.9545  0.2920 -0.0598
 
              Baa    -0.0033    -0.439    -0.157    -0.146 -0.3252  0.9270  0.1870
    16 C(13)  Bbb    -0.0023    -0.304    -0.108    -0.101  0.9387  0.3404 -0.0551
              Bcc     0.0055     0.743     0.265     0.248  0.1147 -0.1576  0.9808
 
              Baa    -0.0013    -0.050    -0.018    -0.017 -0.3217  0.9285  0.1854
    17 N(14)  Bbb    -0.0008    -0.031    -0.011    -0.010  0.9401  0.3365 -0.0542
              Bcc     0.0021     0.081     0.029     0.027  0.1127 -0.1569  0.9812
 
              Baa    -0.0053     0.385     0.137     0.128 -0.5457  0.8154  0.1933
    18 O(17)  Bbb    -0.0050     0.359     0.128     0.120  0.8303  0.5573 -0.0065
              Bcc     0.0103    -0.744    -0.265    -0.248  0.1130 -0.1570  0.9811
 
              Baa    -0.0058     0.423     0.151     0.141 -0.0440  0.9857  0.1626
    19 O(17)  Bbb    -0.0055     0.394     0.141     0.132  0.9925  0.0616 -0.1052
              Bcc     0.0113    -0.818    -0.292    -0.273  0.1137 -0.1567  0.9811
 
              Baa    -0.0016    -0.209    -0.074    -0.070  0.1117 -0.1564  0.9814
    20 C(13)  Bbb     0.0003     0.040     0.014     0.013 -0.3233  0.9281  0.1847
              Bcc     0.0013     0.168     0.060     0.056  0.9397  0.3379 -0.0531
 
              Baa    -0.0023    -0.303    -0.108    -0.101 -0.4114  0.8924  0.1852
    21 C(13)  Bbb    -0.0009    -0.125    -0.045    -0.042  0.9047  0.4245 -0.0361
              Bcc     0.0032     0.428     0.153     0.143  0.1108 -0.1527  0.9820
 
              Baa    -0.0498    -6.688    -2.386    -2.231  0.9585  0.2800 -0.0531
    22 C(13)  Bbb    -0.0459    -6.158    -2.197    -2.054 -0.2653  0.9448  0.1922
              Bcc     0.0957    12.846     4.584     4.285  0.1040 -0.1701  0.9799
 
              Baa    -0.0509    -1.964    -0.701    -0.655  0.9582  0.2801 -0.0580
    23 N(14)  Bbb    -0.0423    -1.632    -0.582    -0.544 -0.2624  0.9415  0.2116
              Bcc     0.0933     3.597     1.283     1.200  0.1138 -0.1876  0.9756
 
              Baa    -0.0028    -0.474    -0.169    -0.158  0.0489 -0.2121  0.9760
    24 B(11)  Bbb     0.0004     0.073     0.026     0.024  0.9799  0.1996 -0.0058
              Bcc     0.0023     0.400     0.143     0.134 -0.1936  0.9566  0.2176
 
              Baa    -0.0082    -4.098    -1.462    -1.367  0.0746  0.0365  0.9965
    25 F(19)  Bbb    -0.0076    -3.794    -1.354    -1.265  0.9419  0.3256 -0.0824
              Bcc     0.0157     7.892     2.816     2.632 -0.3274  0.9448 -0.0101
 
              Baa    -0.0120    -6.012    -2.145    -2.006  0.9331  0.3547 -0.0584
    26 F(19)  Bbb    -0.0113    -5.691    -2.031    -1.898  0.2610 -0.5568  0.7886
              Bcc     0.0233    11.703     4.176     3.904 -0.2473  0.7511  0.6121
 
              Baa    -0.0580    -2.237    -0.798    -0.746  0.9448  0.3262  0.0291
    27 N(14)  Bbb    -0.0484    -1.868    -0.666    -0.623 -0.3251  0.9233  0.2047
              Bcc     0.1064     4.105     1.465     1.369  0.0399 -0.2029  0.9784
 
              Baa    -0.0686    -9.212    -3.287    -3.073  0.9483  0.3171  0.0156
    28 C(13)  Bbb    -0.0646    -8.663    -3.091    -2.890 -0.3123  0.9227  0.2259
              Bcc     0.1332    17.875     6.378     5.962  0.0572 -0.2191  0.9740
 
              Baa    -0.0149    -2.003    -0.715    -0.668  0.0271 -0.2890  0.9570
    29 C(13)  Bbb     0.0066     0.882     0.315     0.294 -0.4412  0.8556  0.2708
              Bcc     0.0084     1.121     0.400     0.374  0.8970  0.4295  0.1043
 
              Baa    -0.0030    -0.399    -0.142    -0.133 -0.2862  0.9564 -0.0589
    30 C(13)  Bbb     0.0004     0.052     0.019     0.017  0.9504  0.2756 -0.1440
              Bcc     0.0026     0.347     0.124     0.116  0.1215  0.0972  0.9878
 
              Baa    -0.0025    -0.339    -0.121    -0.113 -0.1931  0.0958  0.9765
    31 C(13)  Bbb    -0.0001    -0.015    -0.005    -0.005 -0.1861  0.9736 -0.1324
              Bcc     0.0026     0.354     0.126     0.118  0.9634  0.2073  0.1702
 
              Baa    -0.0012    -0.160    -0.057    -0.054 -0.1533 -0.2553  0.9546
    32 C(13)  Bbb    -0.0005    -0.063    -0.022    -0.021 -0.0301  0.9668  0.2537
              Bcc     0.0017     0.223     0.080     0.074  0.9877 -0.0101  0.1559
 
              Baa    -0.0040    -0.536    -0.191    -0.179  0.0093  0.5649  0.8251
    33 C(13)  Bbb    -0.0026    -0.350    -0.125    -0.117  0.1648  0.8130 -0.5584
              Bcc     0.0066     0.887     0.316     0.296  0.9863 -0.1412  0.0855
 
              Baa    -0.0009    -0.123    -0.044    -0.041 -0.6040 -0.5049  0.6167
    34 C(13)  Bbb     0.0000     0.002     0.001     0.001  0.6389  0.1559  0.7534
              Bcc     0.0009     0.121     0.043     0.040 -0.4765  0.8490  0.2284
 
              Baa    -0.0011    -0.145    -0.052    -0.048  0.5831  0.7496 -0.3133
    35 C(13)  Bbb    -0.0001    -0.012    -0.004    -0.004  0.8098 -0.5674  0.1496
              Bcc     0.0012     0.157     0.056     0.052  0.0656  0.3410  0.9378
 
              Baa    -0.0009    -0.033    -0.012    -0.011  0.5108  0.8117 -0.2832
    36 N(14)  Bbb    -0.0005    -0.020    -0.007    -0.007  0.6366 -0.5785 -0.5100
              Bcc     0.0014     0.053     0.019     0.018  0.5778 -0.0802  0.8122
 
              Baa    -0.0024     0.173     0.062     0.058  0.4749  0.7716 -0.4231
    37 O(17)  Bbb    -0.0022     0.157     0.056     0.052  0.7507 -0.6062 -0.2627
              Bcc     0.0046    -0.329    -0.118    -0.110  0.4592  0.1929  0.8671
 
              Baa    -0.0017     0.121     0.043     0.040  0.6294  0.6234 -0.4638
    38 O(17)  Bbb    -0.0011     0.083     0.030     0.028 -0.6421  0.7535  0.1414
              Bcc     0.0028    -0.204    -0.073    -0.068  0.4376  0.2088  0.8746
 
              Baa    -0.0007    -0.089    -0.032    -0.030  0.2551  0.4119  0.8748
    39 C(13)  Bbb    -0.0000    -0.006    -0.002    -0.002  0.3286  0.8139 -0.4791
              Bcc     0.0007     0.095     0.034     0.032  0.9094 -0.4096 -0.0723
 
              Baa    -0.0007    -0.088    -0.031    -0.029  0.1775  0.8391 -0.5142
    40 C(13)  Bbb    -0.0003    -0.042    -0.015    -0.014 -0.2354  0.5435  0.8057
              Bcc     0.0010     0.130     0.046     0.043  0.9556 -0.0220  0.2940
 
              Baa    -0.1118   -15.003    -5.354    -5.005 -0.4886  0.8564  0.1669
    41 C(13)  Bbb    -0.1090   -14.623    -5.218    -4.878  0.8722  0.4843  0.0687
              Bcc     0.2208    29.626    10.571     9.882  0.0220 -0.1792  0.9836
 
              Baa    -0.0960   -12.878    -4.595    -4.296  0.0538 -0.1872  0.9809
    42 C(13)  Bbb     0.0383     5.145     1.836     1.716  0.1475  0.9730  0.1776
              Bcc     0.0576     7.733     2.759     2.579  0.9876 -0.1351 -0.0799
 
              Baa    -0.0111    -1.488    -0.531    -0.497 -0.2448  0.4345  0.8668
    43 C(13)  Bbb    -0.0095    -1.280    -0.457    -0.427  0.9061  0.4208  0.0450
              Bcc     0.0206     2.769     0.988     0.924 -0.3452  0.7963 -0.4967
 
              Baa    -0.0035    -0.476    -0.170    -0.159 -0.0889  0.6801  0.7277
    44 C(13)  Bbb    -0.0027    -0.363    -0.130    -0.121  0.9575  0.2596 -0.1256
              Bcc     0.0062     0.839     0.299     0.280 -0.2744  0.6856 -0.6743
 
              Baa    -0.0037    -0.490    -0.175    -0.163  0.9449  0.3234 -0.0502
    45 C(13)  Bbb    -0.0021    -0.286    -0.102    -0.095  0.0275  0.0745  0.9968
              Bcc     0.0058     0.776     0.277     0.259 -0.3262  0.9433 -0.0615
 
              Baa    -0.0004    -0.228    -0.081    -0.076 -0.1298 -0.1081  0.9856
    46 H(1)   Bbb    -0.0004    -0.209    -0.075    -0.070  0.9153  0.3691  0.1610
              Bcc     0.0008     0.437     0.156     0.146 -0.3812  0.9231  0.0511
 
              Baa    -0.0004    -0.228    -0.081    -0.076  0.2151 -0.2414  0.9463
    47 H(1)   Bbb    -0.0004    -0.210    -0.075    -0.070  0.9101  0.4011 -0.1045
              Bcc     0.0008     0.437     0.156     0.146 -0.3543  0.8837  0.3060
 
              Baa    -0.0004    -0.232    -0.083    -0.077  0.0896 -0.1545  0.9839
    48 H(1)   Bbb    -0.0004    -0.207    -0.074    -0.069  0.9826  0.1749 -0.0620
              Bcc     0.0008     0.439     0.157     0.146 -0.1625  0.9724  0.1675
 
              Baa    -0.0010    -0.516    -0.184    -0.172  0.9522  0.3049 -0.0163
    49 H(1)   Bbb    -0.0009    -0.496    -0.177    -0.165  0.1943 -0.5637  0.8028
              Bcc     0.0019     1.012     0.361     0.337 -0.2355  0.7676  0.5961
 
              Baa    -0.0039    -2.058    -0.734    -0.687 -0.4442  0.8751 -0.1920
    50 H(1)   Bbb    -0.0022    -1.162    -0.415    -0.388  0.8506  0.4792  0.2163
              Bcc     0.0060     3.220     1.149     1.074 -0.2813  0.0672  0.9573
 
              Baa    -0.0038    -2.022    -0.721    -0.674 -0.1676  0.9616 -0.2175
    51 H(1)   Bbb    -0.0020    -1.066    -0.380    -0.356  0.9558  0.1044 -0.2748
              Bcc     0.0058     3.088     1.102     1.030  0.2415  0.2540  0.9366
 
              Baa    -0.0015    -0.781    -0.279    -0.260 -0.3092  0.8682 -0.3882
    52 H(1)   Bbb    -0.0013    -0.667    -0.238    -0.223  0.9457  0.3238 -0.0290
              Bcc     0.0027     1.448     0.517     0.483 -0.1005  0.3761  0.9211
 
              Baa    -0.0139    -7.435    -2.653    -2.480  0.7593  0.6506  0.0085
    53 H(1)   Bbb    -0.0026    -1.386    -0.495    -0.462  0.1219 -0.1551  0.9804
              Bcc     0.0165     8.821     3.147     2.942 -0.6392  0.7434  0.1971
 
              Baa    -0.0015    -0.825    -0.294    -0.275 -0.6196  0.7516  0.2263
    54 H(1)   Bbb    -0.0013    -0.703    -0.251    -0.234  0.1291 -0.1867  0.9739
              Bcc     0.0029     1.528     0.545     0.510  0.7742  0.6326  0.0187
 
              Baa    -0.0013    -0.689    -0.246    -0.230  0.1093 -0.1501  0.9826
    55 H(1)   Bbb    -0.0009    -0.474    -0.169    -0.158 -0.1848  0.9682  0.1685
              Bcc     0.0022     1.163     0.415     0.388  0.9767  0.2000 -0.0781
 
              Baa    -0.0005    -0.283    -0.101    -0.094  0.1096 -0.1600  0.9810
    56 H(1)   Bbb    -0.0002    -0.109    -0.039    -0.036 -0.0524  0.9846  0.1665
              Bcc     0.0007     0.392     0.140     0.131  0.9926  0.0697 -0.0995
 
              Baa    -0.0003    -0.145    -0.052    -0.048  0.1108 -0.1583  0.9812
    57 H(1)   Bbb    -0.0002    -0.087    -0.031    -0.029 -0.1258  0.9771  0.1719
              Bcc     0.0004     0.232     0.083     0.077  0.9859  0.1424 -0.0883
 
              Baa    -0.0003    -0.149    -0.053    -0.050  0.1125 -0.1624  0.9803
    58 H(1)   Bbb    -0.0002    -0.089    -0.032    -0.030 -0.3747  0.9068  0.1932
              Bcc     0.0004     0.238     0.085     0.079  0.9203  0.3890 -0.0412
 
              Baa    -0.0005    -0.277    -0.099    -0.092  0.1042 -0.1518  0.9829
    59 H(1)   Bbb    -0.0002    -0.115    -0.041    -0.038 -0.4735  0.8615  0.1832
              Bcc     0.0007     0.392     0.140     0.131  0.8746  0.4845 -0.0179
 
              Baa    -0.0075    -3.984    -1.421    -1.329  0.9856  0.1475 -0.0822
    60 H(1)   Bbb    -0.0012    -0.654    -0.233    -0.218  0.1081 -0.1772  0.9782
              Bcc     0.0087     4.637     1.655     1.547 -0.1298  0.9730  0.1906
 
              Baa    -0.0099    -5.283    -1.885    -1.762  0.8795  0.4701  0.0737
    61 H(1)   Bbb    -0.0015    -0.806    -0.287    -0.269  0.0593 -0.2619  0.9633
              Bcc     0.0114     6.088     2.172     2.031 -0.4721  0.8429  0.2582
 
              Baa    -0.0018    -0.965    -0.344    -0.322  0.1060 -0.1028  0.9890
    62 H(1)   Bbb    -0.0011    -0.586    -0.209    -0.195 -0.3963  0.9079  0.1368
              Bcc     0.0029     1.551     0.553     0.517  0.9120  0.4064 -0.0555
 
              Baa    -0.0007    -0.352    -0.126    -0.118  0.0164 -0.2173  0.9760
    63 H(1)   Bbb    -0.0005    -0.244    -0.087    -0.081 -0.1730  0.9608  0.2169
              Bcc     0.0011     0.597     0.213     0.199  0.9848  0.1724  0.0218
 
              Baa    -0.0025    -1.333    -0.476    -0.445  0.4465  0.8941  0.0356
    64 H(1)   Bbb    -0.0016    -0.860    -0.307    -0.287 -0.2666  0.0949  0.9591
              Bcc     0.0041     2.192     0.782     0.731  0.8541 -0.4378  0.2807
 
              Baa    -0.0005    -0.290    -0.103    -0.097 -0.1400  0.3169  0.9381
    65 H(1)   Bbb    -0.0003    -0.182    -0.065    -0.061  0.7455  0.6572 -0.1108
              Bcc     0.0009     0.472     0.169     0.158 -0.6517  0.6838 -0.3282
 
              Baa    -0.0002    -0.115    -0.041    -0.038  0.1651  0.3927  0.9047
    66 H(1)   Bbb    -0.0001    -0.071    -0.025    -0.024  0.3038  0.8525 -0.4254
              Bcc     0.0003     0.186     0.066     0.062  0.9383 -0.3451 -0.0215
 
              Baa    -0.0003    -0.180    -0.064    -0.060  0.1139  0.6202  0.7761
    67 H(1)   Bbb    -0.0003    -0.145    -0.052    -0.048 -0.0299  0.7830 -0.6213
              Bcc     0.0006     0.325     0.116     0.108  0.9930 -0.0475 -0.1077
 
              Baa    -0.0132    -7.032    -2.509    -2.346  0.9964 -0.0827 -0.0169
    68 H(1)   Bbb    -0.0027    -1.463    -0.522    -0.488  0.0038 -0.1565  0.9877
              Bcc     0.0159     8.495     3.031     2.834  0.0843  0.9842  0.1557
 
              Baa    -0.0038    -2.027    -0.723    -0.676 -0.3649  0.7619  0.5352
    69 H(1)   Bbb    -0.0021    -1.121    -0.400    -0.374  0.8126  0.5411 -0.2163
              Bcc     0.0059     3.149     1.123     1.050  0.4544 -0.3560  0.8166
 
              Baa    -0.0015    -0.775    -0.277    -0.258 -0.1703  0.7105  0.6828
    70 H(1)   Bbb    -0.0013    -0.684    -0.244    -0.228  0.9574  0.2834 -0.0560
              Bcc     0.0027     1.458     0.520     0.486  0.2333 -0.6441  0.7285
 
              Baa    -0.0038    -2.029    -0.724    -0.677 -0.0926  0.8442  0.5280
    71 H(1)   Bbb    -0.0024    -1.282    -0.457    -0.428  0.9913  0.0285  0.1282
              Bcc     0.0062     3.312     1.182     1.105 -0.0932 -0.5353  0.8395
 
              Baa    -0.0010    -0.518    -0.185    -0.173  0.9428  0.3331  0.0130
    72 H(1)   Bbb    -0.0009    -0.492    -0.175    -0.164 -0.1043  0.2580  0.9605
              Bcc     0.0019     1.010     0.360     0.337 -0.3166  0.9069 -0.2780
 

 ---------------------------------------------------------------------------------

 No NMR shielding tensors so no spin-rotation constants.
 Leave Link  601 at Fri Nov  7 05:39:15 2025, MaxMem= 30870077440 cpu:             197.9 elap:               3.5
 (Enter /public/software/gauss/g16/l9999.exe)
 1\1\GINC-CU015\SP\UM062X\def2TZVPP\C34H27B1F2N4O4(1-,2)\BAIDING\07-Nov
 -2025\0\\#p M062X/DEF2TZVPP scrf=(solvent=water) em=GD3\\Energy calcul
 ation for M100035172_reduced\\-1,2\C,0,1.566263,7.083388,-0.854619\C,0
 ,1.12422,5.66558,-0.584428\C,0,0.790778,4.802878,-1.633803\C,0,0.35030
 2,3.493999,-1.403547\C,0,0.006178,2.601705,-2.573234\C,0,0.239457,3.02
 6668,-0.075168\C,0,-0.225615,1.632856,0.196617\C,0,0.711129,0.57186,0.
 299453\C,0,2.103953,0.549921,0.149355\C,0,2.533102,-0.799136,0.33024\C
 ,0,3.848001,-1.373403,0.271936\C,0,5.000806,-0.691199,0.020533\C,0,6.3
 33941,-1.249201,-0.045324\C,0,7.423183,-0.380262,-0.312041\C,0,8.72324
 2,-0.843249,-0.388545\C,0,8.97079,-2.210404,-0.197619\N,0,10.314085,-2
 .702834,-0.274715\O,0,11.239103,-1.901565,-0.509939\O,0,10.523348,-3.9
 19582,-0.104495\C,0,7.91953,-3.103458,0.067053\C,0,6.625717,-2.62643,0
 .140694\C,0,1.369401,-1.543987,0.588319\N,0,0.28341,-0.738937,0.572624
 \B,0,-1.166616,-1.167582,0.895772\F,0,-1.54263,-2.262255,0.104059\F,0,
 -1.277959,-1.536788,2.248792\N,0,-2.064353,0.053792,0.594587\C,0,-3.41
 9216,0.065346,0.633693\C,0,-3.898082,1.367624,0.403989\C,0,-5.245444,1
 .896628,0.435301\C,0,-6.487222,1.338992,0.371974\C,0,-6.944122,-0.0135
 47,0.078828\C,0,-6.206614,-0.964153,-0.666459\C,0,-6.725833,-2.21467,-
 0.953451\C,0,-8.007233,-2.545825,-0.493693\N,0,-8.545781,-3.850924,-0.
 779872\O,0,-9.696648,-4.122616,-0.397212\O,0,-7.84383,-4.66593,-1.4023
 39\C,0,-8.779164,-1.625603,0.225791\C,0,-8.250026,-0.374989,0.492299\C
 ,0,-2.738326,2.179099,0.226666\C,0,-1.612188,1.353479,0.331527\C,0,0.5
 75801,3.882034,0.997535\C,0,0.473283,3.409918,2.429104\C,0,1.012415,5.
 183624,0.72409\H,0,2.251015,7.443213,-0.08075\H,0,2.066828,7.168318,-1
 .823787\H,0,0.708839,7.768206,-0.8716\H,0,0.877166,5.154684,-2.659481\
 H,0,0.617418,1.692485,-2.577127\H,0,-1.040771,2.280663,-2.538045\H,0,0
 .168064,3.122336,-3.520795\H,0,2.722653,1.406784,-0.076012\H,0,3.88911
 4,-2.446688,0.448334\H,0,4.94038,0.381696,-0.151184\H,0,7.226153,0.677
 228,-0.459222\H,0,9.544512,-0.167976,-0.592398\H,0,8.130517,-4.155615,
 0.210331\H,0,5.825788,-3.329296,0.344198\H,0,1.280159,-2.604746,0.7827
 31\H,0,-3.965518,-0.835499,0.869971\H,0,-5.257803,2.977125,0.577547\H,
 0,-7.305758,2.028656,0.569477\H,0,-5.225368,-0.707513,-1.045374\H,0,-6
 .158629,-2.930196,-1.535144\H,0,-9.772169,-1.894825,0.562478\H,0,-8.84
 6427,0.34722,1.041165\H,0,-2.728289,3.241873,0.0272\H,0,1.130436,2.553
 496,2.616898\H,0,0.751338,4.207489,3.12317\H,0,-0.545189,3.088008,2.67
 2748\H,0,1.272178,5.835542,1.555259\\Version=ES64L-G16RevA.03\State=2-
 A\HF=-2056.4476793\S2=0.769693\S2-1=0.\S2A=0.750301\RMSD=3.197e-09\Dip
 ole=-0.6293789,5.2261146,-0.4805806\Quadrupole=-103.2939239,41.6690576
 ,61.6248663,-11.3946162,-4.9636015,-4.8602886\PG=C01 [X(C34H27B1F2N4O4
 )]\\@


 The lyf so short, the craft so long to lerne.
                             -- Chaucer
 Job cpu time:       1 days  5 hours 29 minutes 59.3 seconds.
 Elapsed time:       0 days  0 hours 28 minutes  1.2 seconds.
 File lengths (MBytes):  RWF=   3390 Int=      0 D2E=      0 Chk=    219 Scr=      1
 Normal termination of Gaussian 16 at Fri Nov  7 05:39:16 2025.
