 Entering Gaussian System, Link 0=g16
 Input=M100034926_sp.gjf
 Output=M100034926_sp.log
 Initial command:
 /work/home/accqbws0vm/apprepo/gaussian/16-hy/scripts/../app/g16/l1.exe "/work/home/accqbws0vm/1012_third_energy/tmp_M100034926_sp_25977247/Gau-63112.inp" -scrdir="/work/home/accqbws0vm/1012_third_energy/tmp_M100034926_sp_25977247/"
 Entering Link 1 = /work/home/accqbws0vm/apprepo/gaussian/16-hy/scripts/../app/g16/l1.exe PID=     63113.
  
 Copyright (c) 1988,1990,1992,1993,1995,1998,2003,2009,2016,
            Gaussian, Inc.  All Rights Reserved.
  
 This is part of the Gaussian(R) 16 program.  It is based on
 the Gaussian(R) 09 system (copyright 2009, Gaussian, Inc.),
 the Gaussian(R) 03 system (copyright 2003, Gaussian, Inc.),
 the Gaussian(R) 98 system (copyright 1998, Gaussian, Inc.),
 the Gaussian(R) 94 system (copyright 1995, Gaussian, Inc.),
 the Gaussian 92(TM) system (copyright 1992, Gaussian, Inc.),
 the Gaussian 90(TM) system (copyright 1990, Gaussian, Inc.),
 the Gaussian 88(TM) system (copyright 1988, Gaussian, Inc.),
 the Gaussian 86(TM) system (copyright 1986, Carnegie Mellon
 University), and the Gaussian 82(TM) system (copyright 1983,
 Carnegie Mellon University). Gaussian is a federally registered
 trademark of Gaussian, Inc.
  
 This software contains proprietary and confidential information,
 including trade secrets, belonging to Gaussian, Inc.
  
 This software is provided under written license and may be
 used, copied, transmitted, or stored only in accord with that
 written license.
  
 The following legend is applicable only to US Government
 contracts under FAR:
  
                    RESTRICTED RIGHTS LEGEND
  
 Use, reproduction and disclosure by the US Government is
 subject to restrictions as set forth in subparagraphs (a)
 and (c) of the Commercial Computer Software - Restricted
 Rights clause in FAR 52.227-19.
  
 Gaussian, Inc.
 340 Quinnipiac St., Bldg. 40, Wallingford CT 06492
  
  
 ---------------------------------------------------------------
 Warning -- This program may not be used in any manner that
 competes with the business of Gaussian, Inc. or will provide
 assistance to any competitor of Gaussian, Inc.  The licensee
 of this program is prohibited from giving any competitor of
 Gaussian, Inc. access to this program.  By using this program,
 the user acknowledges that Gaussian, Inc. is engaged in the
 business of creating and licensing software in the field of
 computational chemistry and represents and warrants to the
 licensee that it is not a competitor of Gaussian, Inc. and that
 it will not use this program in any manner prohibited above.
 ---------------------------------------------------------------
  

 Cite this work as:
 Gaussian 16, Revision A.03,
 M. J. Frisch, G. W. Trucks, H. B. Schlegel, G. E. Scuseria, 
 M. A. Robb, J. R. Cheeseman, G. Scalmani, V. Barone, 
 G. A. Petersson, H. Nakatsuji, X. Li, M. Caricato, A. V. Marenich, 
 J. Bloino, B. G. Janesko, R. Gomperts, B. Mennucci, H. P. Hratchian, 
 J. V. Ortiz, A. F. Izmaylov, J. L. Sonnenberg, D. Williams-Young, 
 F. Ding, F. Lipparini, F. Egidi, J. Goings, B. Peng, A. Petrone, 
 T. Henderson, D. Ranasinghe, V. G. Zakrzewski, J. Gao, N. Rega, 
 G. Zheng, W. Liang, M. Hada, M. Ehara, K. Toyota, R. Fukuda, 
 J. Hasegawa, M. Ishida, T. Nakajima, Y. Honda, O. Kitao, H. Nakai, 
 T. Vreven, K. Throssell, J. A. Montgomery, Jr., J. E. Peralta, 
 F. Ogliaro, M. J. Bearpark, J. J. Heyd, E. N. Brothers, K. N. Kudin, 
 V. N. Staroverov, T. A. Keith, R. Kobayashi, J. Normand, 
 K. Raghavachari, A. P. Rendell, J. C. Burant, S. S. Iyengar, 
 J. Tomasi, M. Cossi, J. M. Millam, M. Klene, C. Adamo, R. Cammi, 
 J. W. Ochterski, R. L. Martin, K. Morokuma, O. Farkas, 
 J. B. Foresman, and D. J. Fox, Gaussian, Inc., Wallingford CT, 2016.
 
 ******************************************
 Gaussian 16:  ES64L-G16RevA.03 25-Dec-2016
                12-Oct-2025 
 ******************************************
 %nprocshared=64
 Will use up to   64 processors via shared memory.
 %mem=230GB
 %chk=M100034926_sp.chk
 ----------------------------------------------
 #p M062X/DEF2TZVPP scrf=(solvent=water) em=GD3
 ----------------------------------------------
 1/38=1,172=1/1;
 2/12=2,17=6,18=5,40=1/2;
 3/5=44,7=202,11=2,25=1,30=1,70=2201,72=1,74=-55,124=31/1,2,3;
 4//1;
 5/5=2,38=5,53=1/2;
 6/7=2,8=2,9=2,10=2,28=1/1;
 99/5=1,9=1/99;
 Leave Link    1 at Sun Oct 12 06:44:23 2025, MaxMem= 30870077440 cpu:               5.4 elap:               0.1
 (Enter /work/home/accqbws0vm/apprepo/gaussian/16-hy/scripts/../app/g16/l101.exe)
 ---------------------------------
 Energy calculation for M100034926
 ---------------------------------
 Symbolic Z-matrix:
 Charge =  0 Multiplicity = 1
 C                    -4.46075   2.30044  -0.60536 
 C                    -3.52759   1.15806  -0.85742 
 C                    -3.89933  -0.16007  -1.13264 
 I                    -5.85775  -0.85527  -1.34073 
 C                    -2.73152  -0.93923  -1.34403 
 C                    -2.58146  -2.32106  -1.78943 
 C                    -3.11307  -3.46356  -1.30223 
 C                    -3.87692  -3.78629  -0.0888 
 C                    -4.73971  -4.89731  -0.15513 
 C                    -5.47926  -5.33059   0.94147 
 C                    -5.3338   -4.66766   2.16068 
 C                    -4.46104  -3.58469   2.2772 
 C                    -3.7389   -3.13439   1.16516 
 O                    -2.8676   -2.08261   1.2113 
 C                    -2.5386   -1.46812   2.46748 
 C                    -1.55506  -2.28654   3.27729 
 C                    -0.41206  -2.81664   2.6668 
 C                     0.48674  -3.54135   3.44496 
 C                     0.21916  -3.70387   4.80543 
 C                    -0.93817  -3.12887   5.32401 
 N                    -1.82084  -2.43429   4.58592 
 N                    -1.65809  -0.12027  -1.21283 
 C                    -2.09442   1.16246  -0.88969 
 C                    -1.1527    2.17639  -0.63216 
 C                    -1.63982   3.53766  -0.25526 
 C                    -1.74343   4.54083  -1.23078 
 C                    -2.20653   5.80776  -0.89116 
 C                    -2.55736   6.05546   0.43609 
 N                    -3.04011   7.38516   0.80165 
 O                    -3.1163    8.24538  -0.08098 
 O                    -3.35203   7.59368   1.97808 
 C                    -2.46361   5.07777   1.42657 
 C                    -2.00518   3.81379   1.0709 
 C                     0.2284    1.92161  -0.6964 
 C                     1.33836   2.76503  -0.34834 
 C                     1.32445   4.19241   0.10005 
 C                     2.46508   1.96905  -0.50091 
 I                     4.44311   2.56866  -0.18048 
 C                     2.08121   0.67247  -0.95951 
 C                     3.01882  -0.39698  -1.2122 
 C                     2.85491  -1.46262  -2.03981 
 C                     3.78023  -2.54661  -2.34328 
 C                     3.37633  -3.45384  -3.34745 
 C                     4.16284  -4.5294   -3.74353 
 C                     5.39942  -4.72779  -3.12739 
 C                     5.8375   -3.86094  -2.12453 
 C                     5.0431   -2.78025  -1.72484 
 O                     5.4194   -1.91137  -0.7424 
 C                     6.66742  -2.13863  -0.05325 
 C                     6.79193  -1.0853    1.01773 
 C                     6.00495  -1.15801   2.17226 
 C                     6.13577  -0.16592   3.1413 
 C                     7.05148   0.86369   2.92265 
 C                     7.79289   0.85148   1.74241 
 N                     7.67579  -0.09616   0.79751 
 N                     0.7198    0.66156  -1.06938 
 B                    -0.1861   -0.55242  -1.42453 
 F                    -0.02517  -0.91098  -2.7775 
 F                     0.12139  -1.64649  -0.60879 
 H                    -4.47974   2.57888   0.45379 
 H                    -4.17832   3.19079  -1.17126 
 H                    -5.47684   2.02189  -0.89245 
 H                    -1.94496  -2.42305  -2.66572 
 H                    -2.92579  -4.34224  -1.91833 
 H                    -4.82601  -5.41987  -1.10399 
 H                    -6.14584  -6.18217   0.85013 
 H                    -5.88803  -4.99625   3.03491 
 H                    -4.34131  -3.10505   3.24025 
 H                    -2.08384  -0.51576   2.1799 
 H                    -3.4331   -1.24931   3.05545 
 H                    -0.23444  -2.64645   1.60987 
 H                     1.38212  -3.96612   3.00111 
 H                     0.89021  -4.25988   5.45176 
 H                    -1.1746   -3.23304   6.3806 
 H                    -1.46367   4.32772  -2.25678 
 H                    -2.29411   6.58905  -1.6353 
 H                    -2.74375   5.30368   2.4474 
 H                    -1.9263    3.03873   1.82557 
 H                     0.6915    4.33541   0.97964 
 H                     2.33633   4.51133   0.35631 
 H                     0.94885   4.85797  -0.68267 
 H                     3.96666  -0.25876  -0.70986 
 H                     1.93054  -1.52956  -2.60132 
 H                     2.412    -3.2901   -3.82055 
 H                     3.81725  -5.20303  -4.52098 
 H                     6.03304  -5.55938  -3.42112 
 H                     6.80027  -4.03275  -1.66049 
 H                     6.65857  -3.14114   0.3886 
 H                     7.50273  -2.0588   -0.75468 
 H                     5.31012  -1.98164   2.30296 
 H                     5.54065  -0.19769   4.04877 
 H                     7.1941    1.65721   3.64867 
 H                     8.51829   1.63743   1.54562 
 
 ITRead=  0  0  0  0  0  0  0  0  0  0  0  0  0  0  0  0  0  0  0  0
 ITRead=  0  0  0  0  0  0  0  0  0  0  0  0  0  0  0  0  0  0  0  0
 ITRead=  0  0  0  0  0  0  0  0  0  0  0  0  0  0  0  0  0  0  0  0
 ITRead=  0  0  0  0  0  0  0  0  0  0  0  0  0  0  0  0  0  0  0  0
 ITRead=  0  0  0  0  0  0  0  0  0  0  0  0  0
 MicOpt= -1 -1 -1 -1 -1 -1 -1 -1 -1 -1 -1 -1 -1 -1 -1 -1 -1 -1 -1 -1
 MicOpt= -1 -1 -1 -1 -1 -1 -1 -1 -1 -1 -1 -1 -1 -1 -1 -1 -1 -1 -1 -1
 MicOpt= -1 -1 -1 -1 -1 -1 -1 -1 -1 -1 -1 -1 -1 -1 -1 -1 -1 -1 -1 -1
 MicOpt= -1 -1 -1 -1 -1 -1 -1 -1 -1 -1 -1 -1 -1 -1 -1 -1 -1 -1 -1 -1
 MicOpt= -1 -1 -1 -1 -1 -1 -1 -1 -1 -1 -1 -1 -1
 NAtoms=     93 NQM=       93 NQMF=       0 NMMI=      0 NMMIF=      0
                NMic=       0 NMicF=      0.
                    Isotopes and Nuclear Properties:
 (Nuclear quadrupole moments (NQMom) in fm**2, nuclear magnetic moments (NMagM)
  in nuclear magnetons)

  Atom         1           2           3           4           5           6           7           8           9          10
 IAtWgt=          12          12          12         127          12          12          12          12          12          12
 AtmWgt=  12.0000000  12.0000000  12.0000000 126.9004000  12.0000000  12.0000000  12.0000000  12.0000000  12.0000000  12.0000000
 NucSpn=           0           0           0           5           0           0           0           0           0           0
 AtZEff=  -0.0000000  -0.0000000  -0.0000000  -0.0000000  -0.0000000  -0.0000000  -0.0000000  -0.0000000  -0.0000000  -0.0000000
 NQMom=    0.0000000   0.0000000   0.0000000 -71.0000000   0.0000000   0.0000000   0.0000000   0.0000000   0.0000000   0.0000000
 NMagM=    0.0000000   0.0000000   0.0000000   2.8132800   0.0000000   0.0000000   0.0000000   0.0000000   0.0000000   0.0000000
 AtZNuc=   6.0000000   6.0000000   6.0000000  53.0000000   6.0000000   6.0000000   6.0000000   6.0000000   6.0000000   6.0000000

  Atom        11          12          13          14          15          16          17          18          19          20
 IAtWgt=          12          12          12          16          12          12          12          12          12          12
 AtmWgt=  12.0000000  12.0000000  12.0000000  15.9949146  12.0000000  12.0000000  12.0000000  12.0000000  12.0000000  12.0000000
 NucSpn=           0           0           0           0           0           0           0           0           0           0
 AtZEff=  -0.0000000  -0.0000000  -0.0000000  -0.0000000  -0.0000000  -0.0000000  -0.0000000  -0.0000000  -0.0000000  -0.0000000
 NQMom=    0.0000000   0.0000000   0.0000000   0.0000000   0.0000000   0.0000000   0.0000000   0.0000000   0.0000000   0.0000000
 NMagM=    0.0000000   0.0000000   0.0000000   0.0000000   0.0000000   0.0000000   0.0000000   0.0000000   0.0000000   0.0000000
 AtZNuc=   6.0000000   6.0000000   6.0000000   8.0000000   6.0000000   6.0000000   6.0000000   6.0000000   6.0000000   6.0000000

  Atom        21          22          23          24          25          26          27          28          29          30
 IAtWgt=          14          14          12          12          12          12          12          12          14          16
 AtmWgt=  14.0030740  14.0030740  12.0000000  12.0000000  12.0000000  12.0000000  12.0000000  12.0000000  14.0030740  15.9949146
 NucSpn=           2           2           0           0           0           0           0           0           2           0
 AtZEff=  -0.0000000  -0.0000000  -0.0000000  -0.0000000  -0.0000000  -0.0000000  -0.0000000  -0.0000000  -0.0000000  -0.0000000
 NQMom=    2.0440000   2.0440000   0.0000000   0.0000000   0.0000000   0.0000000   0.0000000   0.0000000   2.0440000   0.0000000
 NMagM=    0.4037610   0.4037610   0.0000000   0.0000000   0.0000000   0.0000000   0.0000000   0.0000000   0.4037610   0.0000000
 AtZNuc=   7.0000000   7.0000000   6.0000000   6.0000000   6.0000000   6.0000000   6.0000000   6.0000000   7.0000000   8.0000000

  Atom        31          32          33          34          35          36          37          38          39          40
 IAtWgt=          16          12          12          12          12          12          12         127          12          12
 AtmWgt=  15.9949146  12.0000000  12.0000000  12.0000000  12.0000000  12.0000000  12.0000000 126.9004000  12.0000000  12.0000000
 NucSpn=           0           0           0           0           0           0           0           5           0           0
 AtZEff=  -0.0000000  -0.0000000  -0.0000000  -0.0000000  -0.0000000  -0.0000000  -0.0000000  -0.0000000  -0.0000000  -0.0000000
 NQMom=    0.0000000   0.0000000   0.0000000   0.0000000   0.0000000   0.0000000   0.0000000 -71.0000000   0.0000000   0.0000000
 NMagM=    0.0000000   0.0000000   0.0000000   0.0000000   0.0000000   0.0000000   0.0000000   2.8132800   0.0000000   0.0000000
 AtZNuc=   8.0000000   6.0000000   6.0000000   6.0000000   6.0000000   6.0000000   6.0000000  53.0000000   6.0000000   6.0000000

  Atom        41          42          43          44          45          46          47          48          49          50
 IAtWgt=          12          12          12          12          12          12          12          16          12          12
 AtmWgt=  12.0000000  12.0000000  12.0000000  12.0000000  12.0000000  12.0000000  12.0000000  15.9949146  12.0000000  12.0000000
 NucSpn=           0           0           0           0           0           0           0           0           0           0
 AtZEff=  -0.0000000  -0.0000000  -0.0000000  -0.0000000  -0.0000000  -0.0000000  -0.0000000  -0.0000000  -0.0000000  -0.0000000
 NQMom=    0.0000000   0.0000000   0.0000000   0.0000000   0.0000000   0.0000000   0.0000000   0.0000000   0.0000000   0.0000000
 NMagM=    0.0000000   0.0000000   0.0000000   0.0000000   0.0000000   0.0000000   0.0000000   0.0000000   0.0000000   0.0000000
 AtZNuc=   6.0000000   6.0000000   6.0000000   6.0000000   6.0000000   6.0000000   6.0000000   8.0000000   6.0000000   6.0000000

  Atom        51          52          53          54          55          56          57          58          59          60
 IAtWgt=          12          12          12          12          14          14          11          19          19           1
 AtmWgt=  12.0000000  12.0000000  12.0000000  12.0000000  14.0030740  14.0030740  11.0093053  18.9984032  18.9984032   1.0078250
 NucSpn=           0           0           0           0           2           2           3           1           1           1
 AtZEff=  -0.0000000  -0.0000000  -0.0000000  -0.0000000  -0.0000000  -0.0000000  -0.0000000  -0.0000000  -0.0000000  -0.0000000
 NQMom=    0.0000000   0.0000000   0.0000000   0.0000000   2.0440000   2.0440000   4.0590000   0.0000000   0.0000000   0.0000000
 NMagM=    0.0000000   0.0000000   0.0000000   0.0000000   0.4037610   0.4037610   2.6886370   2.6288670   2.6288670   2.7928460
 AtZNuc=   6.0000000   6.0000000   6.0000000   6.0000000   7.0000000   7.0000000   5.0000000   9.0000000   9.0000000   1.0000000

  Atom        61          62          63          64          65          66          67          68          69          70
 IAtWgt=           1           1           1           1           1           1           1           1           1           1
 AtmWgt=   1.0078250   1.0078250   1.0078250   1.0078250   1.0078250   1.0078250   1.0078250   1.0078250   1.0078250   1.0078250
 NucSpn=           1           1           1           1           1           1           1           1           1           1
 AtZEff=  -0.0000000  -0.0000000  -0.0000000  -0.0000000  -0.0000000  -0.0000000  -0.0000000  -0.0000000  -0.0000000  -0.0000000
 NQMom=    0.0000000   0.0000000   0.0000000   0.0000000   0.0000000   0.0000000   0.0000000   0.0000000   0.0000000   0.0000000
 NMagM=    2.7928460   2.7928460   2.7928460   2.7928460   2.7928460   2.7928460   2.7928460   2.7928460   2.7928460   2.7928460
 AtZNuc=   1.0000000   1.0000000   1.0000000   1.0000000   1.0000000   1.0000000   1.0000000   1.0000000   1.0000000   1.0000000

  Atom        71          72          73          74          75          76          77          78          79          80
 IAtWgt=           1           1           1           1           1           1           1           1           1           1
 AtmWgt=   1.0078250   1.0078250   1.0078250   1.0078250   1.0078250   1.0078250   1.0078250   1.0078250   1.0078250   1.0078250
 NucSpn=           1           1           1           1           1           1           1           1           1           1
 AtZEff=  -0.0000000  -0.0000000  -0.0000000  -0.0000000  -0.0000000  -0.0000000  -0.0000000  -0.0000000  -0.0000000  -0.0000000
 NQMom=    0.0000000   0.0000000   0.0000000   0.0000000   0.0000000   0.0000000   0.0000000   0.0000000   0.0000000   0.0000000
 NMagM=    2.7928460   2.7928460   2.7928460   2.7928460   2.7928460   2.7928460   2.7928460   2.7928460   2.7928460   2.7928460
 AtZNuc=   1.0000000   1.0000000   1.0000000   1.0000000   1.0000000   1.0000000   1.0000000   1.0000000   1.0000000   1.0000000

  Atom        81          82          83          84          85          86          87          88          89          90
 IAtWgt=           1           1           1           1           1           1           1           1           1           1
 AtmWgt=   1.0078250   1.0078250   1.0078250   1.0078250   1.0078250   1.0078250   1.0078250   1.0078250   1.0078250   1.0078250
 NucSpn=           1           1           1           1           1           1           1           1           1           1
 AtZEff=  -0.0000000  -0.0000000  -0.0000000  -0.0000000  -0.0000000  -0.0000000  -0.0000000  -0.0000000  -0.0000000  -0.0000000
 NQMom=    0.0000000   0.0000000   0.0000000   0.0000000   0.0000000   0.0000000   0.0000000   0.0000000   0.0000000   0.0000000
 NMagM=    2.7928460   2.7928460   2.7928460   2.7928460   2.7928460   2.7928460   2.7928460   2.7928460   2.7928460   2.7928460
 AtZNuc=   1.0000000   1.0000000   1.0000000   1.0000000   1.0000000   1.0000000   1.0000000   1.0000000   1.0000000   1.0000000

  Atom        91          92          93
 IAtWgt=           1           1           1
 AtmWgt=   1.0078250   1.0078250   1.0078250
 NucSpn=           1           1           1
 AtZEff=  -0.0000000  -0.0000000  -0.0000000
 NQMom=    0.0000000   0.0000000   0.0000000
 NMagM=    2.7928460   2.7928460   2.7928460
 AtZNuc=   1.0000000   1.0000000   1.0000000
 Leave Link  101 at Sun Oct 12 06:44:23 2025, MaxMem= 30870077440 cpu:               4.6 elap:               0.1
 (Enter /work/home/accqbws0vm/apprepo/gaussian/16-hy/scripts/../app/g16/l202.exe)
 Stoichiometry    C45H34BF2I2N5O4
 Framework group  C1[X(C45H34BF2I2N5O4)]
 Deg. of freedom   273
 Full point group                 C1      NOp   1
 Largest Abelian subgroup         C1      NOp   1
 Largest concise Abelian subgroup C1      NOp   1
                         Standard orientation:                         
 ---------------------------------------------------------------------
 Center     Atomic      Atomic             Coordinates (Angstroms)
 Number     Number       Type             X           Y           Z
 ---------------------------------------------------------------------
      1          6           0       -4.460752    2.300441   -0.605358
      2          6           0       -3.527588    1.158062   -0.857422
      3          6           0       -3.899332   -0.160066   -1.132641
      4         53           0       -5.857745   -0.855271   -1.340727
      5          6           0       -2.731515   -0.939232   -1.344033
      6          6           0       -2.581455   -2.321064   -1.789427
      7          6           0       -3.113070   -3.463556   -1.302233
      8          6           0       -3.876919   -3.786286   -0.088801
      9          6           0       -4.739713   -4.897311   -0.155131
     10          6           0       -5.479264   -5.330585    0.941473
     11          6           0       -5.333796   -4.667661    2.160685
     12          6           0       -4.461042   -3.584694    2.277196
     13          6           0       -3.738903   -3.134389    1.165159
     14          8           0       -2.867600   -2.082611    1.211301
     15          6           0       -2.538597   -1.468123    2.467477
     16          6           0       -1.555060   -2.286543    3.277287
     17          6           0       -0.412062   -2.816635    2.666798
     18          6           0        0.486740   -3.541347    3.444962
     19          6           0        0.219156   -3.703868    4.805425
     20          6           0       -0.938168   -3.128865    5.324011
     21          7           0       -1.820844   -2.434294    4.585917
     22          7           0       -1.658092   -0.120274   -1.212828
     23          6           0       -2.094424    1.162460   -0.889692
     24          6           0       -1.152696    2.176393   -0.632162
     25          6           0       -1.639819    3.537659   -0.255261
     26          6           0       -1.743432    4.540831   -1.230781
     27          6           0       -2.206533    5.807758   -0.891164
     28          6           0       -2.557363    6.055456    0.436085
     29          7           0       -3.040113    7.385164    0.801646
     30          8           0       -3.116303    8.245377   -0.080978
     31          8           0       -3.352031    7.593678    1.978082
     32          6           0       -2.463609    5.077765    1.426572
     33          6           0       -2.005177    3.813791    1.070899
     34          6           0        0.228395    1.921612   -0.696397
     35          6           0        1.338361    2.765033   -0.348337
     36          6           0        1.324454    4.192409    0.100052
     37          6           0        2.465078    1.969045   -0.500914
     38         53           0        4.443110    2.568661   -0.180483
     39          6           0        2.081205    0.672468   -0.959512
     40          6           0        3.018815   -0.396982   -1.212197
     41          6           0        2.854908   -1.462621   -2.039812
     42          6           0        3.780227   -2.546613   -2.343284
     43          6           0        3.376329   -3.453842   -3.347446
     44          6           0        4.162843   -4.529404   -3.743528
     45          6           0        5.399420   -4.727791   -3.127391
     46          6           0        5.837503   -3.860936   -2.124529
     47          6           0        5.043104   -2.780246   -1.724841
     48          8           0        5.419400   -1.911368   -0.742396
     49          6           0        6.667416   -2.138627   -0.053246
     50          6           0        6.791929   -1.085305    1.017734
     51          6           0        6.004946   -1.158007    2.172265
     52          6           0        6.135775   -0.165922    3.141296
     53          6           0        7.051481    0.863690    2.922654
     54          6           0        7.792889    0.851484    1.742407
     55          7           0        7.675786   -0.096158    0.797508
     56          7           0        0.719801    0.661559   -1.069382
     57          5           0       -0.186095   -0.552419   -1.424527
     58          9           0       -0.025170   -0.910976   -2.777497
     59          9           0        0.121392   -1.646491   -0.608785
     60          1           0       -4.479742    2.578877    0.453789
     61          1           0       -4.178319    3.190793   -1.171256
     62          1           0       -5.476835    2.021891   -0.892454
     63          1           0       -1.944955   -2.423049   -2.665720
     64          1           0       -2.925790   -4.342243   -1.918333
     65          1           0       -4.826012   -5.419866   -1.103989
     66          1           0       -6.145843   -6.182169    0.850134
     67          1           0       -5.888026   -4.996252    3.034906
     68          1           0       -4.341308   -3.105045    3.240247
     69          1           0       -2.083840   -0.515761    2.179899
     70          1           0       -3.433104   -1.249310    3.055450
     71          1           0       -0.234435   -2.646452    1.609871
     72          1           0        1.382124   -3.966120    3.001111
     73          1           0        0.890205   -4.259884    5.451762
     74          1           0       -1.174598   -3.233037    6.380602
     75          1           0       -1.463674    4.327722   -2.256783
     76          1           0       -2.294112    6.589051   -1.635300
     77          1           0       -2.743750    5.303678    2.447403
     78          1           0       -1.926303    3.038727    1.825574
     79          1           0        0.691503    4.335411    0.979638
     80          1           0        2.336327    4.511328    0.356305
     81          1           0        0.948854    4.857965   -0.682673
     82          1           0        3.966662   -0.258761   -0.709864
     83          1           0        1.930542   -1.529561   -2.601317
     84          1           0        2.411998   -3.290104   -3.820547
     85          1           0        3.817253   -5.203031   -4.520976
     86          1           0        6.033040   -5.559379   -3.421121
     87          1           0        6.800269   -4.032745   -1.660485
     88          1           0        6.658568   -3.141141    0.388604
     89          1           0        7.502733   -2.058802   -0.754677
     90          1           0        5.310116   -1.981637    2.302962
     91          1           0        5.540652   -0.197693    4.048769
     92          1           0        7.194100    1.657206    3.648672
     93          1           0        8.518291    1.637430    1.545622
 ---------------------------------------------------------------------
 Rotational constants (GHZ):           0.0374321           0.0238732           0.0182241
 Leave Link  202 at Sun Oct 12 06:44:24 2025, MaxMem= 30870077440 cpu:               6.4 elap:               0.2
 (Enter /work/home/accqbws0vm/apprepo/gaussian/16-hy/scripts/../app/g16/l301.exe)
 Standard basis: def2TZVPP (5D, 7F)
 Ernie: Thresh=  0.10000D-02 Tol=  0.10000D-05 Strict=F.
 There are  2680 symmetry adapted cartesian basis functions of A   symmetry.
 There are  2343 symmetry adapted basis functions of A   symmetry.
  2343 basis functions,  3703 primitive gaussians,  2680 cartesian basis functions
   222 alpha electrons      222 beta electrons
       nuclear repulsion energy      9158.5235838435 Hartrees.
 IExCor= 4336 DFT=T Ex+Corr=M062X ExCW=0 ScaHFX=  0.540000
 ScaDFX=  1.000000  1.000000  1.000000  1.000000 ScalE2=  1.000000  1.000000
 IRadAn=      5 IRanWt=     -1 IRanGd=            0 ICorTp=0 IEmpDi=131
 NAtoms=   93 NActive=   93 NUniq=   93 SFac= 1.00D+00 NAtFMM=   60 NAOKFM=T Big=T
 Integral buffers will be    131072 words long.
 Raffenetti 2 integral format.
 Two-electron integral symmetry is turned on.
 R6Disp:  Grimme-D3 Dispersion energy=       -0.0110906184 Hartrees.
 Nuclear repulsion after empirical dispersion term =     9158.5124932252 Hartrees.
 ------------------------------------------------------------------------------
 Polarizable Continuum Model (PCM)
 =================================
 Model                : PCM.
 Atomic radii         : UFF (Universal Force Field).
 Polarization charges : Total charges.
 Charge compensation  : None.
 Solution method      : On-the-fly selection.
 Cavity type          : Scaled VdW (van der Waals Surface) (Alpha=1.100).
 Cavity algorithm     : GePol (No added spheres)
                        Default sphere list used, NSphG=   93.
                        Lebedev-Laikov grids with approx.  5.0 points / Ang**2.
                        Smoothing algorithm: York/Karplus (Gamma=1.0000).
                        Polarization charges: spherical gaussians, with
                                              point-specific exponents (IZeta= 3).
                        Self-potential: point-specific (ISelfS= 7).
                        Self-field    : sphere-specific E.n sum rule (ISelfD= 2).
 Solvent              : Water, Eps=  78.355300 Eps(inf)=   1.777849
 ------------------------------------------------------------------------------
 GePol: Number of generator spheres                  =      93
 GePol: Total number of spheres                      =      93
 GePol: Number of exposed spheres                    =      93 (100.00%)
 GePol: Number of points                             =    6897
 GePol: Average weight of points                     =       0.13
 GePol: Minimum weight of points                     =   0.81D-11
 GePol: Maximum weight of points                     =    0.20577
 GePol: Number of points with low weight             =     515
 GePol: Fraction of low-weight points (<1% of avg)   =       7.47%
 GePol: Cavity surface area                          =    885.333 Ang**2
 GePol: Cavity volume                                =   1067.744 Ang**3
 Leave Link  301 at Sun Oct 12 06:44:24 2025, MaxMem= 30870077440 cpu:               9.0 elap:               0.2
 (Enter /work/home/accqbws0vm/apprepo/gaussian/16-hy/scripts/../app/g16/l302.exe)
 NPDir=0 NMtPBC=     1 NCelOv=     1 NCel=       1 NClECP=     1 NCelD=      1
         NCelK=      1 NCelE2=     1 NClLst=     1 CellRange=     0.0.
 One-electron integrals computed using PRISM.
 One-electron integral symmetry used in STVInt
   1 Symmetry operations used in ECPInt.
 ECPInt:  NShTT=  372816 NPrTT= 1088501 LenC2=  239103 LenP2D=  453890.
 LDataN:  DoStor=T MaxTD1= 7 Len=  274
 Number of processors reduced to  41 by ecpmxn.
 NBasis=  2343 RedAO= T EigKep=  3.41D-06  NBF=  2343
 NBsUse=  2343 1.00D-06 EigRej= -1.00D+00 NBFU=  2343
 Precomputing XC quadrature grid using
 IXCGrd= 4 IRadAn=           5 IRanWt=          -1 IRanGd=           0 AccXCQ= 0.00D+00.
 Defaulting to unpruned grid for atomic number  53.
 Defaulting to unpruned grid for atomic number  53.
 Generated NRdTot=       0 NPtTot=           0 NUsed=           0 NTot=          32
 NSgBfM=  2447  2447  2447  2447  2447 MxSgAt=    93 MxSgA2=    93.
 Leave Link  302 at Sun Oct 12 06:44:42 2025, MaxMem= 30870077440 cpu:            1166.2 elap:              18.7
 (Enter /work/home/accqbws0vm/apprepo/gaussian/16-hy/scripts/../app/g16/l303.exe)
 DipDrv:  MaxL=1.
 Leave Link  303 at Sun Oct 12 06:44:43 2025, MaxMem= 30870077440 cpu:              47.1 elap:               0.9
 (Enter /work/home/accqbws0vm/apprepo/gaussian/16-hy/scripts/../app/g16/l401.exe)
 ExpMin= 6.06D-02 ExpMax= 3.55D+04 ExpMxC= 1.21D+03 IAcc=3 IRadAn=         5 AccDes= 0.00D+00
 Harris functional with IExCor= 1009 and IRadAn=       5 diagonalized for initial guess.
 HarFok:  IExCor= 1009 AccDes= 0.00D+00 IRadAn=         5 IDoV= 1 UseB2=F ITyADJ=14
 ICtDFT=  3500011 ScaDFX=  1.000000  1.000000  1.000000  1.000000
 Defaulting to unpruned grid for atomic number  53.
 FoFCou: FMM=F IPFlag=           0 FMFlag=      100000 FMFlg1=        2001
         NFxFlg=           0 DoJE=T BraDBF=F KetDBF=T FulRan=T
         wScrn=  0.000000 ICntrl=       500 IOpCl=  0 I1Cent=   200000004 NGrid=           0
         NMat0=    1 NMatS0=      1 NMatT0=    0 NMatD0=    1 NMtDS0=    0 NMtDT0=    0
 Petite list used in FoFCou.
 Harris En= -3129.01862298973    
 JPrj=0 DoOrth=F DoCkMO=F.
 Leave Link  401 at Sun Oct 12 06:45:00 2025, MaxMem= 30870077440 cpu:            1076.6 elap:              16.9
 (Enter /work/home/accqbws0vm/apprepo/gaussian/16-hy/scripts/../app/g16/l502.exe)
 Integral symmetry usage will be decided dynamically.
 Closed shell SCF:
 Using DIIS extrapolation, IDIIS=  1040.
 NGot= 30870077440 LenX= 30855518779 LenY= 30848333699
 Requested convergence on RMS density matrix=1.00D-08 within 128 cycles.
 Requested convergence on MAX density matrix=1.00D-06.
 Requested convergence on             energy=1.00D-06.
 No special actions if energy rises.
 Fock matrices will be formed incrementally for  20 cycles.

 Cycle   1  Pass 1  IDiag  1:
 FoFJK:  IHMeth= 1 ICntrl=       0 DoSepK=F KAlg= 0 I1Cent=           0 FoldK=F
 IRaf= 600000000 NMat=       1 IRICut=       1 DoRegI=T DoRafI=F ISym2E= 0 IDoP0=0 IntGTp=1.
 FoFCou: FMM=T IPFlag=           0 FMFlag=      100000 FMFlg1=        2001
         NFxFlg=           0 DoJE=F BraDBF=F KetDBF=F FulRan=T
         wScrn=  0.000000 ICntrl=         0 IOpCl=  0 I1Cent=           0 NGrid=           0
         NMat0=    1 NMatS0=      1 NMatT0=    0 NMatD0=    1 NMtDS0=    0 NMtDT0=    0
 Symmetry not used in FoFCou.
 FMM levels:  10  Number of levels for PrismC:   9
 Defaulting to unpruned grid for atomic number  53.
 Defaulting to unpruned grid for atomic number  53.
 Defaulting to unpruned grid for atomic number  53.
 Defaulting to unpruned grid for atomic number  53.
 Defaulting to unpruned grid for atomic number  53.
 Defaulting to unpruned grid for atomic number  53.
 Defaulting to unpruned grid for atomic number  53.
 Defaulting to unpruned grid for atomic number  53.
 Defaulting to unpruned grid for atomic number  53.
 Defaulting to unpruned grid for atomic number  53.
 Defaulting to unpruned grid for atomic number  53.
 Defaulting to unpruned grid for atomic number  53.
 Defaulting to unpruned grid for atomic number  53.
 Defaulting to unpruned grid for atomic number  53.
 Defaulting to unpruned grid for atomic number  53.
 Defaulting to unpruned grid for atomic number  53.
 Defaulting to unpruned grid for atomic number  53.
 Defaulting to unpruned grid for atomic number  53.
 Defaulting to unpruned grid for atomic number  53.
 Defaulting to unpruned grid for atomic number  53.
 Defaulting to unpruned grid for atomic number  53.
 Defaulting to unpruned grid for atomic number  53.
 Defaulting to unpruned grid for atomic number  53.
 Defaulting to unpruned grid for atomic number  53.
 Defaulting to unpruned grid for atomic number  53.
 Defaulting to unpruned grid for atomic number  53.
 Defaulting to unpruned grid for atomic number  53.
 Defaulting to unpruned grid for atomic number  53.
 Defaulting to unpruned grid for atomic number  53.
 Defaulting to unpruned grid for atomic number  53.
 Defaulting to unpruned grid for atomic number  53.
 Defaulting to unpruned grid for atomic number  53.
 Defaulting to unpruned grid for atomic number  53.
 Defaulting to unpruned grid for atomic number  53.
 Defaulting to unpruned grid for atomic number  53.
 Defaulting to unpruned grid for atomic number  53.
 Defaulting to unpruned grid for atomic number  53.
 Defaulting to unpruned grid for atomic number  53.
 Defaulting to unpruned grid for atomic number  53.
 Defaulting to unpruned grid for atomic number  53.
 Defaulting to unpruned grid for atomic number  53.
 Defaulting to unpruned grid for atomic number  53.
 Defaulting to unpruned grid for atomic number  53.
 Defaulting to unpruned grid for atomic number  53.
 Defaulting to unpruned grid for atomic number  53.
 Defaulting to unpruned grid for atomic number  53.
 Defaulting to unpruned grid for atomic number  53.
 Defaulting to unpruned grid for atomic number  53.
 Defaulting to unpruned grid for atomic number  53.
 Defaulting to unpruned grid for atomic number  53.
 Defaulting to unpruned grid for atomic number  53.
 Defaulting to unpruned grid for atomic number  53.
 Defaulting to unpruned grid for atomic number  53.
 Defaulting to unpruned grid for atomic number  53.
 Defaulting to unpruned grid for atomic number  53.
 Defaulting to unpruned grid for atomic number  53.
 Defaulting to unpruned grid for atomic number  53.
 Defaulting to unpruned grid for atomic number  53.
 Defaulting to unpruned grid for atomic number  53.
 Defaulting to unpruned grid for atomic number  53.
 Defaulting to unpruned grid for atomic number  53.
 Defaulting to unpruned grid for atomic number  53.
 Defaulting to unpruned grid for atomic number  53.
 Defaulting to unpruned grid for atomic number  53.
 Inv3:  Mode=1 IEnd=   142705827.
 Iteration    1 A*A^-1 deviation from unit magnitude is 3.55D-15 for   2431.
 Iteration    1 A*A^-1 deviation from orthogonality  is 2.89D-15 for   6218   1517.
 Iteration    1 A^-1*A deviation from unit magnitude is 4.22D-15 for   2431.
 Iteration    1 A^-1*A deviation from orthogonality  is 1.08D-14 for   6288   6282.
 E= -3128.44768967811    
 DIIS: error= 3.38D-02 at cycle   1 NSaved=   1.
 NSaved= 1 IEnMin= 1 EnMin= -3128.44768967811     IErMin= 1 ErrMin= 3.38D-02
 ErrMax= 3.38D-02  0.00D+00 EMaxC= 1.00D-01 BMatC= 1.73D+00 BMatP= 1.73D+00
 IDIUse=3 WtCom= 6.62D-01 WtEn= 3.38D-01
 Coeff-Com:  0.100D+01
 Coeff-En:   0.100D+01
 Coeff:      0.100D+01
 Gap=     0.264 Goal=   None    Shift=    0.000
 GapD=    0.264 DampG=1.000 DampE=0.500 DampFc=0.5000 IDamp=-1.
 Damping current iteration by 5.00D-01
 RMSDP=1.24D-03 MaxDP=1.48D-01              OVMax= 2.61D-01

 Cycle   2  Pass 1  IDiag  1:
 RMSU=  6.19D-04    CP:  9.93D-01
 E= -3129.10305886507     Delta-E=       -0.655369186959 Rises=F Damp=T
 DIIS: error= 5.48D-03 at cycle   2 NSaved=   2.
 NSaved= 2 IEnMin= 2 EnMin= -3129.10305886507     IErMin= 2 ErrMin= 5.48D-03
 ErrMax= 5.48D-03  0.00D+00 EMaxC= 1.00D-01 BMatC= 1.71D-01 BMatP= 1.73D+00
 IDIUse=3 WtCom= 9.45D-01 WtEn= 5.48D-02
 Coeff-Com: -0.994D-01 0.110D+01
 Coeff-En:   0.000D+00 0.100D+01
 Coeff:     -0.940D-01 0.109D+01
 Gap=     0.194 Goal=   None    Shift=    0.000
 RMSDP=6.42D-04 MaxDP=9.00D-02 DE=-6.55D-01 OVMax= 2.19D-01

 Cycle   3  Pass 1  IDiag  1:
 RMSU=  5.58D-04    CP:  9.82D-01  1.51D+00
 E= -3129.70133016414     Delta-E=       -0.598271299072 Rises=F Damp=F
 DIIS: error= 1.56D-02 at cycle   3 NSaved=   3.
 NSaved= 3 IEnMin= 3 EnMin= -3129.70133016414     IErMin= 2 ErrMin= 5.48D-03
 ErrMax= 1.56D-02  0.00D+00 EMaxC= 1.00D-01 BMatC= 9.09D-02 BMatP= 1.71D-01
 IDIUse=3 WtCom= 8.44D-01 WtEn= 1.56D-01
 Coeff-Com: -0.125D+00 0.495D+00 0.629D+00
 Coeff-En:   0.000D+00 0.000D+00 0.100D+01
 Coeff:     -0.105D+00 0.418D+00 0.687D+00
 Gap=     0.141 Goal=   None    Shift=    0.000
 RMSDP=1.85D-04 MaxDP=3.27D-02 DE=-5.98D-01 OVMax= 9.65D-02

 Cycle   4  Pass 1  IDiag  1:
 RMSU=  1.79D-04    CP:  9.81D-01  1.52D+00  9.20D-01
 E= -3129.75427241124     Delta-E=       -0.052942247094 Rises=F Damp=F
 DIIS: error= 7.51D-03 at cycle   4 NSaved=   4.
 NSaved= 4 IEnMin= 4 EnMin= -3129.75427241124     IErMin= 2 ErrMin= 5.48D-03
 ErrMax= 7.51D-03  0.00D+00 EMaxC= 1.00D-01 BMatC= 2.35D-02 BMatP= 9.09D-02
 IDIUse=3 WtCom= 9.25D-01 WtEn= 7.51D-02
 Coeff-Com: -0.347D-01 0.884D-01 0.373D+00 0.573D+00
 Coeff-En:   0.000D+00 0.000D+00 0.206D+00 0.794D+00
 Coeff:     -0.321D-01 0.817D-01 0.361D+00 0.590D+00
 Gap=     0.142 Goal=   None    Shift=    0.000
 RMSDP=7.17D-05 MaxDP=1.38D-02 DE=-5.29D-02 OVMax= 3.18D-02

 Cycle   5  Pass 1  IDiag  1:
 RMSU=  5.20D-05    CP:  9.82D-01  1.53D+00  9.54D-01  7.50D-01
 E= -3129.77192519180     Delta-E=       -0.017652780565 Rises=F Damp=F
 DIIS: error= 6.91D-04 at cycle   5 NSaved=   5.
 NSaved= 5 IEnMin= 5 EnMin= -3129.77192519180     IErMin= 5 ErrMin= 6.91D-04
 ErrMax= 6.91D-04  0.00D+00 EMaxC= 1.00D-01 BMatC= 5.15D-04 BMatP= 2.35D-02
 IDIUse=3 WtCom= 9.93D-01 WtEn= 6.91D-03
 Coeff-Com: -0.762D-02 0.125D-01 0.120D+00 0.246D+00 0.629D+00
 Coeff-En:   0.000D+00 0.000D+00 0.000D+00 0.000D+00 0.100D+01
 Coeff:     -0.757D-02 0.124D-01 0.119D+00 0.244D+00 0.632D+00
 Gap=     0.143 Goal=   None    Shift=    0.000
 RMSDP=1.67D-05 MaxDP=2.87D-03 DE=-1.77D-02 OVMax= 4.86D-03

 Cycle   6  Pass 1  IDiag  1:
 RMSU=  1.55D-05    CP:  9.82D-01  1.53D+00  9.58D-01  7.80D-01  1.05D+00
 E= -3129.77234230455     Delta-E=       -0.000417112744 Rises=F Damp=F
 DIIS: error= 9.21D-05 at cycle   6 NSaved=   6.
 NSaved= 6 IEnMin= 6 EnMin= -3129.77234230455     IErMin= 6 ErrMin= 9.21D-05
 ErrMax= 9.21D-05  0.00D+00 EMaxC= 1.00D-01 BMatC= 5.58D-05 BMatP= 5.15D-04
 IDIUse=1 WtCom= 1.00D+00 WtEn= 0.00D+00
 Coeff-Com:  0.383D-03-0.354D-02 0.134D-01 0.431D-01 0.275D+00 0.671D+00
 Coeff:      0.383D-03-0.354D-02 0.134D-01 0.431D-01 0.275D+00 0.671D+00
 Gap=     0.143 Goal=   None    Shift=    0.000
 RMSDP=9.22D-06 MaxDP=3.39D-03 DE=-4.17D-04 OVMax= 2.34D-03

 Cycle   7  Pass 1  IDiag  1:
 RMSU=  7.36D-06    CP:  9.82D-01  1.53D+00  9.63D-01  7.85D-01  1.13D+00
                    CP:  9.64D-01
 E= -3129.77240341563     Delta-E=       -0.000061111081 Rises=F Damp=F
 DIIS: error= 4.05D-05 at cycle   7 NSaved=   7.
 NSaved= 7 IEnMin= 7 EnMin= -3129.77240341563     IErMin= 7 ErrMin= 4.05D-05
 ErrMax= 4.05D-05  0.00D+00 EMaxC= 1.00D-01 BMatC= 6.76D-06 BMatP= 5.58D-05
 IDIUse=1 WtCom= 1.00D+00 WtEn= 0.00D+00
 Coeff-Com:  0.126D-02-0.332D-02-0.104D-01-0.163D-01 0.255D-01 0.273D+00
 Coeff-Com:  0.731D+00
 Coeff:      0.126D-02-0.332D-02-0.104D-01-0.163D-01 0.255D-01 0.273D+00
 Coeff:      0.731D+00
 Gap=     0.144 Goal=   None    Shift=    0.000
 RMSDP=3.50D-06 MaxDP=5.11D-04 DE=-6.11D-05 OVMax= 1.41D-03

 Cycle   8  Pass 1  IDiag  1:
 RMSU=  2.11D-06    CP:  9.82D-01  1.53D+00  9.64D-01  7.91D-01  1.17D+00
                    CP:  1.06D+00  9.93D-01
 E= -3129.77241234391     Delta-E=       -0.000008928282 Rises=F Damp=F
 DIIS: error= 2.33D-05 at cycle   8 NSaved=   8.
 NSaved= 8 IEnMin= 8 EnMin= -3129.77241234391     IErMin= 8 ErrMin= 2.33D-05
 ErrMax= 2.33D-05  0.00D+00 EMaxC= 1.00D-01 BMatC= 1.73D-06 BMatP= 6.76D-06
 IDIUse=1 WtCom= 1.00D+00 WtEn= 0.00D+00
 Coeff-Com:  0.618D-03-0.127D-02-0.747D-02-0.154D-01-0.276D-01 0.421D-01
 Coeff-Com:  0.386D+00 0.623D+00
 Coeff:      0.618D-03-0.127D-02-0.747D-02-0.154D-01-0.276D-01 0.421D-01
 Coeff:      0.386D+00 0.623D+00
 Gap=     0.144 Goal=   None    Shift=    0.000
 RMSDP=1.80D-06 MaxDP=6.59D-04 DE=-8.93D-06 OVMax= 6.07D-04

 Cycle   9  Pass 1  IDiag  1:
 RMSU=  9.97D-07    CP:  9.82D-01  1.53D+00  9.65D-01  7.91D-01  1.18D+00
                    CP:  1.09D+00  1.14D+00  1.00D+00
 E= -3129.77241447993     Delta-E=       -0.000002136019 Rises=F Damp=F
 DIIS: error= 9.26D-06 at cycle   9 NSaved=   9.
 NSaved= 9 IEnMin= 9 EnMin= -3129.77241447993     IErMin= 9 ErrMin= 9.26D-06
 ErrMax= 9.26D-06  0.00D+00 EMaxC= 1.00D-01 BMatC= 1.70D-07 BMatP= 1.73D-06
 IDIUse=1 WtCom= 1.00D+00 WtEn= 0.00D+00
 Coeff-Com:  0.982D-04-0.111D-03-0.179D-02-0.459D-02-0.149D-01-0.173D-01
 Coeff-Com:  0.761D-01 0.258D+00 0.705D+00
 Coeff:      0.982D-04-0.111D-03-0.179D-02-0.459D-02-0.149D-01-0.173D-01
 Coeff:      0.761D-01 0.258D+00 0.705D+00
 Gap=     0.144 Goal=   None    Shift=    0.000
 RMSDP=5.03D-07 MaxDP=1.47D-04 DE=-2.14D-06 OVMax= 2.65D-04

 Cycle  10  Pass 1  IDiag  1:
 RMSU=  3.42D-07    CP:  9.82D-01  1.53D+00  9.65D-01  7.91D-01  1.19D+00
                    CP:  1.09D+00  1.16D+00  1.12D+00  1.01D+00
 E= -3129.77241473587     Delta-E=       -0.000000255946 Rises=F Damp=F
 DIIS: error= 3.47D-06 at cycle  10 NSaved=  10.
 NSaved=10 IEnMin=10 EnMin= -3129.77241473587     IErMin=10 ErrMin= 3.47D-06
 ErrMax= 3.47D-06  0.00D+00 EMaxC= 1.00D-01 BMatC= 5.16D-08 BMatP= 1.70D-07
 IDIUse=1 WtCom= 1.00D+00 WtEn= 0.00D+00
 Coeff-Com: -0.908D-04 0.234D-03 0.817D-03 0.118D-02-0.126D-02-0.197D-01
 Coeff-Com: -0.506D-01-0.212D-01 0.378D+00 0.712D+00
 Coeff:     -0.908D-04 0.234D-03 0.817D-03 0.118D-02-0.126D-02-0.197D-01
 Coeff:     -0.506D-01-0.212D-01 0.378D+00 0.712D+00
 Gap=     0.144 Goal=   None    Shift=    0.000
 RMSDP=3.27D-07 MaxDP=9.65D-05 DE=-2.56D-07 OVMax= 1.20D-04

 Cycle  11  Pass 1  IDiag  1:
 RMSU=  1.42D-07    CP:  9.82D-01  1.53D+00  9.65D-01  7.91D-01  1.19D+00
                    CP:  1.10D+00  1.19D+00  1.17D+00  1.18D+00  1.04D+00
 E= -3129.77241480815     Delta-E=       -0.000000072270 Rises=F Damp=F
 DIIS: error= 1.05D-06 at cycle  11 NSaved=  11.
 NSaved=11 IEnMin=11 EnMin= -3129.77241480815     IErMin=11 ErrMin= 1.05D-06
 ErrMax= 1.05D-06  0.00D+00 EMaxC= 1.00D-01 BMatC= 3.71D-09 BMatP= 5.16D-08
 IDIUse=1 WtCom= 1.00D+00 WtEn= 0.00D+00
 Coeff-Com: -0.426D-04 0.970D-04 0.515D-03 0.967D-03 0.115D-02-0.619D-02
 Coeff-Com: -0.272D-01-0.393D-01 0.767D-01 0.284D+00 0.710D+00
 Coeff:     -0.426D-04 0.970D-04 0.515D-03 0.967D-03 0.115D-02-0.619D-02
 Coeff:     -0.272D-01-0.393D-01 0.767D-01 0.284D+00 0.710D+00
 Gap=     0.144 Goal=   None    Shift=    0.000
 RMSDP=7.25D-08 MaxDP=1.98D-05 DE=-7.23D-08 OVMax= 3.77D-05

 Cycle  12  Pass 1  IDiag  1:
 RMSU=  4.49D-08    CP:  9.82D-01  1.53D+00  9.65D-01  7.91D-01  1.19D+00
                    CP:  1.10D+00  1.19D+00  1.18D+00  1.20D+00  1.13D+00
                    CP:  1.03D+00
 E= -3129.77241481291     Delta-E=       -0.000000004766 Rises=F Damp=F
 DIIS: error= 6.62D-07 at cycle  12 NSaved=  12.
 NSaved=12 IEnMin=12 EnMin= -3129.77241481291     IErMin=12 ErrMin= 6.62D-07
 ErrMax= 6.62D-07  0.00D+00 EMaxC= 1.00D-01 BMatC= 5.92D-10 BMatP= 3.71D-09
 IDIUse=1 WtCom= 1.00D+00 WtEn= 0.00D+00
 Coeff-Com: -0.404D-05 0.629D-05 0.975D-04 0.233D-03 0.681D-03 0.383D-04
 Coeff-Com: -0.378D-02-0.140D-01-0.190D-01 0.199D-01 0.311D+00 0.705D+00
 Coeff:     -0.404D-05 0.629D-05 0.975D-04 0.233D-03 0.681D-03 0.383D-04
 Coeff:     -0.378D-02-0.140D-01-0.190D-01 0.199D-01 0.311D+00 0.705D+00
 Gap=     0.144 Goal=   None    Shift=    0.000
 RMSDP=2.69D-08 MaxDP=3.41D-06 DE=-4.77D-09 OVMax= 9.71D-06

 Cycle  13  Pass 1  IDiag  1:
 RMSU=  1.78D-08    CP:  9.82D-01  1.53D+00  9.65D-01  7.91D-01  1.19D+00
                    CP:  1.10D+00  1.19D+00  1.18D+00  1.21D+00  1.15D+00
                    CP:  1.11D+00  1.18D+00
 E= -3129.77241481365     Delta-E=       -0.000000000739 Rises=F Damp=F
 DIIS: error= 1.18D-07 at cycle  13 NSaved=  13.
 NSaved=13 IEnMin=13 EnMin= -3129.77241481365     IErMin=13 ErrMin= 1.18D-07
 ErrMax= 1.18D-07  0.00D+00 EMaxC= 1.00D-01 BMatC= 6.80D-11 BMatP= 5.92D-10
 IDIUse=1 WtCom= 1.00D+00 WtEn= 0.00D+00
 Coeff-Com:  0.324D-05-0.845D-05-0.216D-04-0.191D-04 0.149D-03 0.650D-03
 Coeff-Com:  0.172D-02-0.124D-02-0.172D-01-0.272D-01 0.391D-01 0.279D+00
 Coeff-Com:  0.725D+00
 Coeff:      0.324D-05-0.845D-05-0.216D-04-0.191D-04 0.149D-03 0.650D-03
 Coeff:      0.172D-02-0.124D-02-0.172D-01-0.272D-01 0.391D-01 0.279D+00
 Coeff:      0.725D+00
 Gap=     0.144 Goal=   None    Shift=    0.000
 RMSDP=1.05D-08 MaxDP=1.03D-06 DE=-7.39D-10 OVMax= 5.00D-06

 Cycle  14  Pass 1  IDiag  1:
 RMSU=  6.90D-09    CP:  9.82D-01  1.53D+00  9.65D-01  7.91D-01  1.19D+00
                    CP:  1.10D+00  1.19D+00  1.18D+00  1.21D+00  1.16D+00
                    CP:  1.15D+00  1.27D+00  1.09D+00
 E= -3129.77241481389     Delta-E=       -0.000000000236 Rises=F Damp=F
 DIIS: error= 6.24D-08 at cycle  14 NSaved=  14.
 NSaved=14 IEnMin=14 EnMin= -3129.77241481389     IErMin=14 ErrMin= 6.24D-08
 ErrMax= 6.24D-08  0.00D+00 EMaxC= 1.00D-01 BMatC= 1.18D-11 BMatP= 6.80D-11
 IDIUse=1 WtCom= 1.00D+00 WtEn= 0.00D+00
 Coeff-Com:  0.170D-05-0.396D-05-0.217D-04-0.377D-04-0.217D-04 0.239D-03
 Coeff-Com:  0.129D-02 0.160D-02-0.378D-02-0.130D-01-0.306D-01 0.346D-03
 Coeff-Com:  0.301D+00 0.743D+00
 Coeff:      0.170D-05-0.396D-05-0.217D-04-0.377D-04-0.217D-04 0.239D-03
 Coeff:      0.129D-02 0.160D-02-0.378D-02-0.130D-01-0.306D-01 0.346D-03
 Coeff:      0.301D+00 0.743D+00
 Gap=     0.144 Goal=   None    Shift=    0.000
 RMSDP=4.99D-09 MaxDP=6.22D-07 DE=-2.36D-10 OVMax= 2.68D-06

 Error on total polarization charges =  0.02762
 SCF Done:  E(RM062X) =  -3129.77241481     A.U. after   14 cycles
            NFock= 14  Conv=0.50D-08     -V/T= 2.1390
 KE= 2.747758175717D+03 PE=-2.548623375345D+04 EE= 1.045019066969D+04
 Leave Link  502 at Sun Oct 12 07:16:30 2025, MaxMem= 30870077440 cpu:          118809.2 elap:            1889.8
 (Enter /work/home/accqbws0vm/apprepo/gaussian/16-hy/scripts/../app/g16/l601.exe)
 Copying SCF densities to generalized density rwf, IOpCl= 0 IROHF=0.

 **********************************************************************

            Population analysis using the SCF density.

 **********************************************************************

 Orbital symmetries:
       Occupied  (A) (A) (A) (A) (A) (A) (A) (A) (A) (A) (A) (A)
                 (A) (A) (A) (A) (A) (A) (A) (A) (A) (A) (A) (A)
                 (A) (A) (A) (A) (A) (A) (A) (A) (A) (A) (A) (A)
                 (A) (A) (A) (A) (A) (A) (A) (A) (A) (A) (A) (A)
                 (A) (A) (A) (A) (A) (A) (A) (A) (A) (A) (A) (A)
                 (A) (A) (A) (A) (A) (A) (A) (A) (A) (A) (A) (A)
                 (A) (A) (A) (A) (A) (A) (A) (A) (A) (A) (A) (A)
                 (A) (A) (A) (A) (A) (A) (A) (A) (A) (A) (A) (A)
                 (A) (A) (A) (A) (A) (A) (A) (A) (A) (A) (A) (A)
                 (A) (A) (A) (A) (A) (A) (A) (A) (A) (A) (A) (A)
                 (A) (A) (A) (A) (A) (A) (A) (A) (A) (A) (A) (A)
                 (A) (A) (A) (A) (A) (A) (A) (A) (A) (A) (A) (A)
                 (A) (A) (A) (A) (A) (A) (A) (A) (A) (A) (A) (A)
                 (A) (A) (A) (A) (A) (A) (A) (A) (A) (A) (A) (A)
                 (A) (A) (A) (A) (A) (A) (A) (A) (A) (A) (A) (A)
                 (A) (A) (A) (A) (A) (A) (A) (A) (A) (A) (A) (A)
                 (A) (A) (A) (A) (A) (A) (A) (A) (A) (A) (A) (A)
                 (A) (A) (A) (A) (A) (A) (A) (A) (A) (A) (A) (A)
                 (A) (A) (A) (A) (A) (A)
       Virtual   (A) (A) (A) (A) (A) (A) (A) (A) (A) (A) (A) (A)
                 (A) (A) (A) (A) (A) (A) (A) (A) (A) (A) (A) (A)
                 (A) (A) (A) (A) (A) (A) (A) (A) (A) (A) (A) (A)
                 (A) (A) (A) (A) (A) (A) (A) (A) (A) (A) (A) (A)
                 (A) (A) (A) (A) (A) (A) (A) (A) (A) (A) (A) (A)
                 (A) (A) (A) (A) (A) (A) (A) (A) (A) (A) (A) (A)
                 (A) (A) (A) (A) (A) (A) (A) (A) (A) (A) (A) (A)
                 (A) (A) (A) (A) (A) (A) (A) (A) (A) (A) (A) (A)
                 (A) (A) (A) (A) (A) (A) (A) (A) (A) (A) (A) (A)
                 (A) (A) (A) (A) (A) (A) (A) (A) (A) (A) (A) (A)
                 (A) (A) (A) (A) (A) (A) (A) (A) (A) (A) (A) (A)
                 (A) (A) (A) (A) (A) (A) (A) (A) (A) (A) (A) (A)
                 (A) (A) (A) (A) (A) (A) (A) (A) (A) (A) (A) (A)
                 (A) (A) (A) (A) (A) (A) (A) (A) (A) (A) (A) (A)
                 (A) (A) (A) (A) (A) (A) (A) (A) (A) (A) (A) (A)
                 (A) (A) (A) (A) (A) (A) (A) (A) (A) (A) (A) (A)
                 (A) (A) (A) (A) (A) (A) (A) (A) (A) (A) (A) (A)
                 (A) (A) (A) (A) (A) (A) (A) (A) (A) (A) (A) (A)
                 (A) (A) (A) (A) (A) (A) (A) (A) (A) (A) (A) (A)
                 (A) (A) (A) (A) (A) (A) (A) (A) (A) (A) (A) (A)
                 (A) (A) (A) (A) (A) (A) (A) (A) (A) (A) (A) (A)
                 (A) (A) (A) (A) (A) (A) (A) (A) (A) (A) (A) (A)
                 (A) (A) (A) (A) (A) (A) (A) (A) (A) (A) (A) (A)
                 (A) (A) (A) (A) (A) (A) (A) (A) (A) (A) (A) (A)
                 (A) (A) (A) (A) (A) (A) (A) (A) (A) (A) (A) (A)
                 (A) (A) (A) (A) (A) (A) (A) (A) (A) (A) (A) (A)
                 (A) (A) (A) (A) (A) (A) (A) (A) (A) (A) (A) (A)
                 (A) (A) (A) (A) (A) (A) (A) (A) (A) (A) (A) (A)
                 (A) (A) (A) (A) (A) (A) (A) (A) (A) (A) (A) (A)
                 (A) (A) (A) (A) (A) (A) (A) (A) (A) (A) (A) (A)
                 (A) (A) (A) (A) (A) (A) (A) (A) (A) (A) (A) (A)
                 (A) (A) (A) (A) (A) (A) (A) (A) (A) (A) (A) (A)
                 (A) (A) (A) (A) (A) (A) (A) (A) (A) (A) (A) (A)
                 (A) (A) (A) (A) (A) (A) (A) (A) (A) (A) (A) (A)
                 (A) (A) (A) (A) (A) (A) (A) (A) (A) (A) (A) (A)
                 (A) (A) (A) (A) (A) (A) (A) (A) (A) (A) (A) (A)
                 (A) (A) (A) (A) (A) (A) (A) (A) (A) (A) (A) (A)
                 (A) (A) (A) (A) (A) (A) (A) (A) (A) (A) (A) (A)
                 (A) (A) (A) (A) (A) (A) (A) (A) (A) (A) (A) (A)
                 (A) (A) (A) (A) (A) (A) (A) (A) (A) (A) (A) (A)
                 (A) (A) (A) (A) (A) (A) (A) (A) (A) (A) (A) (A)
                 (A) (A) (A) (A) (A) (A) (A) (A) (A) (A) (A) (A)
                 (A) (A) (A) (A) (A) (A) (A) (A) (A) (A) (A) (A)
                 (A) (A) (A) (A) (A) (A) (A) (A) (A) (A) (A) (A)
                 (A) (A) (A) (A) (A) (A) (A) (A) (A) (A) (A) (A)
                 (A) (A) (A) (A) (A) (A) (A) (A) (A) (A) (A) (A)
                 (A) (A) (A) (A) (A) (A) (A) (A) (A) (A) (A) (A)
                 (A) (A) (A) (A) (A) (A) (A) (A) (A) (A) (A) (A)
                 (A) (A) (A) (A) (A) (A) (A) (A) (A) (A) (A) (A)
                 (A) (A) (A) (A) (A) (A) (A) (A) (A) (A) (A) (A)
                 (A) (A) (A) (A) (A) (A) (A) (A) (A) (A) (A) (A)
                 (A) (A) (A) (A) (A) (A) (A) (A) (A) (A) (A) (A)
                 (A) (A) (A) (A) (A) (A) (A) (A) (A) (A) (A) (A)
                 (A) (A) (A) (A) (A) (A) (A) (A) (A) (A) (A) (A)
                 (A) (A) (A) (A) (A) (A) (A) (A) (A) (A) (A) (A)
                 (A) (A) (A) (A) (A) (A) (A) (A) (A) (A) (A) (A)
                 (A) (A) (A) (A) (A) (A) (A) (A) (A) (A) (A) (A)
                 (A) (A) (A) (A) (A) (A) (A) (A) (A) (A) (A) (A)
                 (A) (A) (A) (A) (A) (A) (A) (A) (A) (A) (A) (A)
                 (A) (A) (A) (A) (A) (A) (A) (A) (A) (A) (A) (A)
                 (A) (A) (A) (A) (A) (A) (A) (A) (A) (A) (A) (A)
                 (A) (A) (A) (A) (A) (A) (A) (A) (A) (A) (A) (A)
                 (A) (A) (A) (A) (A) (A) (A) (A) (A) (A) (A) (A)
                 (A) (A) (A) (A) (A) (A) (A) (A) (A) (A) (A) (A)
                 (A) (A) (A) (A) (A) (A) (A) (A) (A) (A) (A) (A)
                 (A) (A) (A) (A) (A) (A) (A) (A) (A) (A) (A) (A)
                 (A) (A) (A) (A) (A) (A) (A) (A) (A) (A) (A) (A)
                 (A) (A) (A) (A) (A) (A) (A) (A) (A) (A) (A) (A)
                 (A) (A) (A) (A) (A) (A) (A) (A) (A) (A) (A) (A)
                 (A) (A) (A) (A) (A) (A) (A) (A) (A) (A) (A) (A)
                 (A) (A) (A) (A) (A) (A) (A) (A) (A) (A) (A) (A)
                 (A) (A) (A) (A) (A) (A) (A) (A) (A) (A) (A) (A)
                 (A) (A) (A) (A) (A) (A) (A) (A) (A) (A) (A) (A)
                 (A) (A) (A) (A) (A) (A) (A) (A) (A) (A) (A) (A)
                 (A) (A) (A) (A) (A) (A) (A) (A) (A) (A) (A) (A)
                 (A) (A) (A) (A) (A) (A) (A) (A) (A) (A) (A) (A)
                 (A) (A) (A) (A) (A) (A) (A) (A) (A) (A) (A) (A)
                 (A) (A) (A) (A) (A) (A) (A) (A) (A) (A) (A) (A)
                 (A) (A) (A) (A) (A) (A) (A) (A) (A) (A) (A) (A)
                 (A) (A) (A) (A) (A) (A) (A) (A) (A) (A) (A) (A)
                 (A) (A) (A) (A) (A) (A) (A) (A) (A) (A) (A) (A)
                 (A) (A) (A) (A) (A) (A) (A) (A) (A) (A) (A) (A)
                 (A) (A) (A) (A) (A) (A) (A) (A) (A) (A) (A) (A)
                 (A) (A) (A) (A) (A) (A) (A) (A) (A) (A) (A) (A)
                 (A) (A) (A) (A) (A) (A) (A) (A) (A) (A) (A) (A)
                 (A) (A) (A) (A) (A) (A) (A) (A) (A) (A) (A) (A)
                 (A) (A) (A) (A) (A) (A) (A) (A) (A) (A) (A) (A)
                 (A) (A) (A) (A) (A) (A) (A) (A) (A) (A) (A) (A)
                 (A) (A) (A) (A) (A) (A) (A) (A) (A) (A) (A) (A)
                 (A) (A) (A) (A) (A) (A) (A) (A) (A) (A) (A) (A)
                 (A) (A) (A) (A) (A) (A) (A) (A) (A) (A) (A) (A)
                 (A) (A) (A) (A) (A) (A) (A) (A) (A) (A) (A) (A)
                 (A) (A) (A) (A) (A) (A) (A) (A) (A) (A) (A) (A)
                 (A) (A) (A) (A) (A) (A) (A) (A) (A) (A) (A) (A)
                 (A) (A) (A) (A) (A) (A) (A) (A) (A) (A) (A) (A)
                 (A) (A) (A) (A) (A) (A) (A) (A) (A) (A) (A) (A)
                 (A) (A) (A) (A) (A) (A) (A) (A) (A) (A) (A) (A)
                 (A) (A) (A) (A) (A) (A) (A) (A) (A) (A) (A) (A)
                 (A) (A) (A) (A) (A) (A) (A) (A) (A) (A) (A) (A)
                 (A) (A) (A) (A) (A) (A) (A) (A) (A) (A) (A) (A)
                 (A) (A) (A) (A) (A) (A) (A) (A) (A) (A) (A) (A)
                 (A) (A) (A) (A) (A) (A) (A) (A) (A) (A) (A) (A)
                 (A) (A) (A) (A) (A) (A) (A) (A) (A) (A) (A) (A)
                 (A) (A) (A) (A) (A) (A) (A) (A) (A) (A) (A) (A)
                 (A) (A) (A) (A) (A) (A) (A) (A) (A) (A) (A) (A)
                 (A) (A) (A) (A) (A) (A) (A) (A) (A) (A) (A) (A)
                 (A) (A) (A) (A) (A) (A) (A) (A) (A) (A) (A) (A)
                 (A) (A) (A) (A) (A) (A) (A) (A) (A) (A) (A) (A)
                 (A) (A) (A) (A) (A) (A) (A) (A) (A) (A) (A) (A)
                 (A) (A) (A) (A) (A) (A) (A) (A) (A) (A) (A) (A)
                 (A) (A) (A) (A) (A) (A) (A) (A) (A) (A) (A) (A)
                 (A) (A) (A) (A) (A) (A) (A) (A) (A) (A) (A) (A)
                 (A) (A) (A) (A) (A) (A) (A) (A) (A) (A) (A) (A)
                 (A) (A) (A) (A) (A) (A) (A) (A) (A) (A) (A) (A)
                 (A) (A) (A) (A) (A) (A) (A) (A) (A) (A) (A) (A)
                 (A) (A) (A) (A) (A) (A) (A) (A) (A) (A) (A) (A)
                 (A) (A) (A) (A) (A) (A) (A) (A) (A) (A) (A) (A)
                 (A) (A) (A) (A) (A) (A) (A) (A) (A) (A) (A) (A)
                 (A) (A) (A) (A) (A) (A) (A) (A) (A) (A) (A) (A)
                 (A) (A) (A) (A) (A) (A) (A) (A) (A) (A) (A) (A)
                 (A) (A) (A) (A) (A) (A) (A) (A) (A) (A) (A) (A)
                 (A) (A) (A) (A) (A) (A) (A) (A) (A) (A) (A) (A)
                 (A) (A) (A) (A) (A) (A) (A) (A) (A) (A) (A) (A)
                 (A) (A) (A) (A) (A) (A) (A) (A) (A) (A) (A) (A)
                 (A) (A) (A) (A) (A) (A) (A) (A) (A) (A) (A) (A)
                 (A) (A) (A) (A) (A) (A) (A) (A) (A) (A) (A) (A)
                 (A) (A) (A) (A) (A) (A) (A) (A) (A) (A) (A) (A)
                 (A) (A) (A) (A) (A) (A) (A) (A) (A) (A) (A) (A)
                 (A) (A) (A) (A) (A) (A) (A) (A) (A) (A) (A) (A)
                 (A) (A) (A) (A) (A) (A) (A) (A) (A) (A) (A) (A)
                 (A) (A) (A) (A) (A) (A) (A) (A) (A) (A) (A) (A)
                 (A) (A) (A) (A) (A) (A) (A) (A) (A) (A) (A) (A)
                 (A) (A) (A) (A) (A) (A) (A) (A) (A) (A) (A) (A)
                 (A) (A) (A) (A) (A) (A) (A) (A) (A) (A) (A) (A)
                 (A) (A) (A) (A) (A) (A) (A) (A) (A) (A) (A) (A)
                 (A) (A) (A) (A) (A) (A) (A) (A) (A) (A) (A) (A)
                 (A) (A) (A) (A) (A) (A) (A) (A) (A) (A) (A) (A)
                 (A) (A) (A) (A) (A) (A) (A) (A) (A) (A) (A) (A)
                 (A) (A) (A) (A) (A) (A) (A) (A) (A) (A) (A) (A)
                 (A) (A) (A) (A) (A) (A) (A) (A) (A) (A) (A) (A)
                 (A) (A) (A) (A) (A) (A) (A) (A) (A) (A) (A) (A)
                 (A) (A) (A) (A) (A) (A) (A) (A) (A) (A) (A) (A)
                 (A) (A) (A) (A) (A) (A) (A) (A) (A) (A) (A) (A)
                 (A) (A) (A) (A) (A) (A) (A) (A) (A) (A) (A) (A)
                 (A) (A) (A) (A) (A) (A) (A) (A) (A) (A) (A) (A)
                 (A) (A) (A) (A) (A) (A) (A) (A) (A) (A) (A) (A)
                 (A) (A) (A) (A) (A) (A) (A) (A) (A) (A) (A) (A)
                 (A) (A) (A) (A) (A) (A) (A) (A) (A) (A) (A) (A)
                 (A) (A) (A) (A) (A) (A) (A) (A) (A) (A) (A) (A)
                 (A) (A) (A) (A) (A) (A) (A) (A) (A) (A) (A) (A)
                 (A) (A) (A) (A) (A) (A) (A) (A) (A) (A) (A) (A)
                 (A) (A) (A) (A) (A) (A) (A) (A) (A) (A) (A) (A)
                 (A) (A) (A) (A) (A) (A) (A) (A) (A) (A) (A) (A)
                 (A) (A) (A) (A) (A) (A) (A) (A) (A) (A) (A) (A)
                 (A) (A) (A) (A) (A) (A) (A) (A) (A) (A) (A) (A)
                 (A) (A) (A) (A) (A) (A) (A) (A) (A) (A) (A) (A)
                 (A) (A) (A) (A) (A) (A) (A) (A) (A) (A) (A) (A)
                 (A) (A) (A) (A) (A) (A) (A) (A) (A) (A) (A) (A)
                 (A) (A) (A) (A) (A) (A) (A) (A) (A) (A) (A) (A)
                 (A) (A) (A) (A) (A) (A) (A) (A) (A) (A) (A) (A)
                 (A) (A) (A) (A) (A) (A) (A) (A) (A) (A) (A) (A)
                 (A) (A) (A) (A) (A) (A) (A) (A) (A) (A) (A) (A)
                 (A) (A) (A) (A) (A) (A) (A) (A) (A) (A) (A) (A)
                 (A) (A) (A) (A) (A) (A) (A) (A) (A) (A) (A) (A)
                 (A) (A) (A) (A) (A) (A) (A) (A) (A) (A) (A) (A)
                 (A) (A) (A) (A) (A) (A) (A) (A) (A) (A) (A) (A)
                 (A) (A) (A) (A) (A) (A) (A) (A) (A) (A) (A) (A)
                 (A) (A) (A) (A) (A) (A) (A) (A) (A) (A) (A) (A)
                 (A) (A) (A) (A) (A) (A) (A) (A) (A) (A) (A) (A)
                 (A) (A) (A) (A) (A) (A) (A) (A) (A) (A) (A) (A)
                 (A) (A) (A) (A) (A) (A) (A) (A) (A) (A) (A) (A)
                 (A) (A) (A) (A) (A) (A) (A) (A) (A) (A) (A) (A)
                 (A) (A) (A) (A) (A) (A) (A) (A) (A) (A) (A) (A)
                 (A) (A) (A) (A) (A) (A) (A) (A) (A) (A) (A) (A)
                 (A) (A) (A) (A) (A) (A) (A) (A) (A) (A) (A) (A)
                 (A) (A) (A) (A) (A) (A) (A) (A) (A) (A) (A) (A)
                 (A) (A) (A) (A) (A) (A) (A) (A) (A)
 The electronic state is 1-A.
 Alpha  occ. eigenvalues --  -25.20952 -25.20877 -19.68158 -19.68156 -19.67437
 Alpha  occ. eigenvalues --  -19.66801 -15.01630 -14.79793 -14.79304 -14.76411
 Alpha  occ. eigenvalues --  -14.76226 -10.62428 -10.62354 -10.62050 -10.62035
 Alpha  occ. eigenvalues --  -10.61651 -10.61523 -10.60758 -10.60530 -10.60386
 Alpha  occ. eigenvalues --  -10.59990 -10.59668 -10.59565 -10.59427 -10.59324
 Alpha  occ. eigenvalues --  -10.59233 -10.58571 -10.58557 -10.58435 -10.58429
 Alpha  occ. eigenvalues --  -10.58403 -10.58342 -10.57787 -10.57783 -10.56831
 Alpha  occ. eigenvalues --  -10.56725 -10.56684 -10.56672 -10.56624 -10.56408
 Alpha  occ. eigenvalues --  -10.56115 -10.56002 -10.55820 -10.55780 -10.55735
 Alpha  occ. eigenvalues --  -10.55733 -10.55568 -10.55488 -10.55470 -10.55462
 Alpha  occ. eigenvalues --  -10.55226 -10.55000 -10.54622 -10.54614 -10.54515
 Alpha  occ. eigenvalues --  -10.54482  -7.13977  -7.11584  -7.11278  -5.10953
 Alpha  occ. eigenvalues --   -5.10649  -5.09879  -5.09867  -5.09577  -5.09558
 Alpha  occ. eigenvalues --   -2.07803  -2.07501  -2.07339  -2.07331  -2.07034
 Alpha  occ. eigenvalues --   -2.07025  -2.06439  -2.06437  -2.06132  -2.06131
 Alpha  occ. eigenvalues --   -1.37181  -1.32825  -1.29645  -1.20374  -1.19856
 Alpha  occ. eigenvalues --   -1.18712  -1.11713  -1.09872  -1.06404  -1.06218
 Alpha  occ. eigenvalues --   -1.01452  -0.97403  -0.97161  -0.96128  -0.93041
 Alpha  occ. eigenvalues --   -0.92244  -0.91826  -0.91338  -0.91209  -0.90961
 Alpha  occ. eigenvalues --   -0.89986  -0.89551  -0.89079  -0.88142  -0.86938
 Alpha  occ. eigenvalues --   -0.85412  -0.84849  -0.84774  -0.83184  -0.82699
 Alpha  occ. eigenvalues --   -0.80970  -0.80267  -0.79896  -0.79821  -0.79328
 Alpha  occ. eigenvalues --   -0.78056  -0.75821  -0.73113  -0.72887  -0.72572
 Alpha  occ. eigenvalues --   -0.72324  -0.71502  -0.71281  -0.71003  -0.69433
 Alpha  occ. eigenvalues --   -0.68520  -0.68170  -0.67937  -0.67596  -0.66393
 Alpha  occ. eigenvalues --   -0.65771  -0.65576  -0.64482  -0.63627  -0.63001
 Alpha  occ. eigenvalues --   -0.62185  -0.61694  -0.61239  -0.60815  -0.60248
 Alpha  occ. eigenvalues --   -0.59787  -0.59613  -0.59050  -0.58422  -0.58153
 Alpha  occ. eigenvalues --   -0.57959  -0.57202  -0.56800  -0.56534  -0.56116
 Alpha  occ. eigenvalues --   -0.55891  -0.55043  -0.54613  -0.54520  -0.54230
 Alpha  occ. eigenvalues --   -0.53950  -0.53656  -0.53193  -0.53040  -0.52670
 Alpha  occ. eigenvalues --   -0.52382  -0.52255  -0.52217  -0.52100  -0.51521
 Alpha  occ. eigenvalues --   -0.51112  -0.50896  -0.50047  -0.49774  -0.49461
 Alpha  occ. eigenvalues --   -0.49108  -0.48901  -0.48485  -0.48348  -0.48227
 Alpha  occ. eigenvalues --   -0.48058  -0.47920  -0.47541  -0.47305  -0.47271
 Alpha  occ. eigenvalues --   -0.46869  -0.46665  -0.46308  -0.46009  -0.45687
 Alpha  occ. eigenvalues --   -0.45373  -0.45013  -0.44471  -0.44130  -0.44060
 Alpha  occ. eigenvalues --   -0.43677  -0.43340  -0.43220  -0.42904  -0.42356
 Alpha  occ. eigenvalues --   -0.42287  -0.42007  -0.41648  -0.41308  -0.40720
 Alpha  occ. eigenvalues --   -0.40573  -0.40082  -0.39933  -0.39705  -0.39653
 Alpha  occ. eigenvalues --   -0.39318  -0.37520  -0.37117  -0.36668  -0.35609
 Alpha  occ. eigenvalues --   -0.35406  -0.35004  -0.34299  -0.34268  -0.34210
 Alpha  occ. eigenvalues --   -0.34029  -0.32964  -0.32530  -0.32516  -0.32080
 Alpha  occ. eigenvalues --   -0.31320  -0.30598  -0.30146  -0.30066  -0.28780
 Alpha  occ. eigenvalues --   -0.28004  -0.24607
 Alpha virt. eigenvalues --   -0.10236  -0.07661  -0.03284  -0.01856  -0.01256
 Alpha virt. eigenvalues --   -0.00960  -0.00668  -0.00305   0.00131   0.00274
 Alpha virt. eigenvalues --    0.00741   0.01770   0.01991   0.02079   0.04116
 Alpha virt. eigenvalues --    0.04521   0.04691   0.06262   0.06574   0.07144
 Alpha virt. eigenvalues --    0.07213   0.07875   0.08250   0.08479   0.08678
 Alpha virt. eigenvalues --    0.08847   0.09278   0.09502   0.09571   0.10065
 Alpha virt. eigenvalues --    0.10107   0.10287   0.10640   0.10998   0.11129
 Alpha virt. eigenvalues --    0.11432   0.11536   0.11837   0.12258   0.12350
 Alpha virt. eigenvalues --    0.12557   0.12933   0.13053   0.13296   0.13506
 Alpha virt. eigenvalues --    0.13871   0.13918   0.14057   0.14143   0.14322
 Alpha virt. eigenvalues --    0.14596   0.14943   0.15163   0.15218   0.15348
 Alpha virt. eigenvalues --    0.15621   0.15802   0.15942   0.16062   0.16294
 Alpha virt. eigenvalues --    0.16625   0.16820   0.16959   0.17122   0.17206
 Alpha virt. eigenvalues --    0.17448   0.17722   0.17982   0.18113   0.18264
 Alpha virt. eigenvalues --    0.18387   0.18634   0.18657   0.18981   0.19257
 Alpha virt. eigenvalues --    0.19370   0.19444   0.19758   0.20084   0.20177
 Alpha virt. eigenvalues --    0.20585   0.20691   0.20900   0.20941   0.21106
 Alpha virt. eigenvalues --    0.21208   0.21483   0.21664   0.21777   0.22195
 Alpha virt. eigenvalues --    0.22384   0.22610   0.22715   0.22997   0.23090
 Alpha virt. eigenvalues --    0.23213   0.23479   0.23619   0.23782   0.24091
 Alpha virt. eigenvalues --    0.24235   0.24447   0.24609   0.24723   0.24976
 Alpha virt. eigenvalues --    0.25048   0.25323   0.25523   0.25899   0.26080
 Alpha virt. eigenvalues --    0.26107   0.26323   0.26481   0.26730   0.27119
 Alpha virt. eigenvalues --    0.27195   0.27347   0.27574   0.27799   0.28026
 Alpha virt. eigenvalues --    0.28169   0.28199   0.28324   0.28481   0.28730
 Alpha virt. eigenvalues --    0.29009   0.29225   0.29339   0.29491   0.29559
 Alpha virt. eigenvalues --    0.29745   0.30049   0.30168   0.30399   0.30485
 Alpha virt. eigenvalues --    0.30768   0.30949   0.31117   0.31166   0.31307
 Alpha virt. eigenvalues --    0.31407   0.31646   0.31780   0.32004   0.32047
 Alpha virt. eigenvalues --    0.32288   0.32569   0.32621   0.32949   0.33241
 Alpha virt. eigenvalues --    0.33295   0.33751   0.33890   0.33951   0.34219
 Alpha virt. eigenvalues --    0.34500   0.34582   0.34720   0.34811   0.35181
 Alpha virt. eigenvalues --    0.35293   0.35342   0.35579   0.35754   0.35875
 Alpha virt. eigenvalues --    0.36195   0.36215   0.36347   0.36523   0.36564
 Alpha virt. eigenvalues --    0.36719   0.37066   0.37135   0.37352   0.37409
 Alpha virt. eigenvalues --    0.37615   0.37925   0.38042   0.38132   0.38241
 Alpha virt. eigenvalues --    0.38507   0.38826   0.39010   0.39267   0.39437
 Alpha virt. eigenvalues --    0.39583   0.39836   0.39863   0.40126   0.40268
 Alpha virt. eigenvalues --    0.40398   0.40603   0.40825   0.41042   0.41217
 Alpha virt. eigenvalues --    0.41356   0.41601   0.41880   0.41980   0.42112
 Alpha virt. eigenvalues --    0.42426   0.42531   0.42691   0.42777   0.43084
 Alpha virt. eigenvalues --    0.43244   0.43366   0.43588   0.43752   0.43880
 Alpha virt. eigenvalues --    0.44033   0.44119   0.44219   0.44412   0.44521
 Alpha virt. eigenvalues --    0.44701   0.44849   0.44978   0.45211   0.45475
 Alpha virt. eigenvalues --    0.45863   0.45911   0.46196   0.46335   0.46456
 Alpha virt. eigenvalues --    0.46495   0.46552   0.46905   0.46948   0.47031
 Alpha virt. eigenvalues --    0.47210   0.47298   0.47493   0.47814   0.48075
 Alpha virt. eigenvalues --    0.48226   0.48422   0.48537   0.48566   0.48687
 Alpha virt. eigenvalues --    0.48956   0.49157   0.49276   0.49464   0.49723
 Alpha virt. eigenvalues --    0.49835   0.49973   0.50214   0.50351   0.50370
 Alpha virt. eigenvalues --    0.50534   0.50876   0.50914   0.51350   0.51423
 Alpha virt. eigenvalues --    0.51763   0.51911   0.51952   0.52084   0.52325
 Alpha virt. eigenvalues --    0.52571   0.52586   0.52775   0.52858   0.53078
 Alpha virt. eigenvalues --    0.53224   0.53503   0.53748   0.53804   0.54152
 Alpha virt. eigenvalues --    0.54415   0.54498   0.54759   0.54820   0.54984
 Alpha virt. eigenvalues --    0.55146   0.55400   0.55526   0.55775   0.55923
 Alpha virt. eigenvalues --    0.56077   0.56384   0.56589   0.56750   0.56819
 Alpha virt. eigenvalues --    0.57212   0.57521   0.57682   0.58208   0.58245
 Alpha virt. eigenvalues --    0.58381   0.58956   0.59246   0.59359   0.59468
 Alpha virt. eigenvalues --    0.59842   0.60129   0.60314   0.60440   0.60554
 Alpha virt. eigenvalues --    0.60748   0.61194   0.61717   0.61782   0.62121
 Alpha virt. eigenvalues --    0.62371   0.62668   0.62705   0.62792   0.63076
 Alpha virt. eigenvalues --    0.63429   0.63555   0.63791   0.63932   0.64386
 Alpha virt. eigenvalues --    0.64795   0.64889   0.65088   0.65197   0.65350
 Alpha virt. eigenvalues --    0.65628   0.65648   0.65922   0.66270   0.66442
 Alpha virt. eigenvalues --    0.66583   0.66695   0.66904   0.67354   0.67569
 Alpha virt. eigenvalues --    0.67894   0.67961   0.68098   0.68174   0.68433
 Alpha virt. eigenvalues --    0.68787   0.68870   0.69066   0.69240   0.69471
 Alpha virt. eigenvalues --    0.69602   0.69694   0.69864   0.70255   0.70522
 Alpha virt. eigenvalues --    0.70750   0.70778   0.70987   0.71112   0.71365
 Alpha virt. eigenvalues --    0.71724   0.71806   0.72020   0.72093   0.72495
 Alpha virt. eigenvalues --    0.72501   0.72765   0.73085   0.73196   0.73391
 Alpha virt. eigenvalues --    0.73453   0.73790   0.73853   0.74138   0.74197
 Alpha virt. eigenvalues --    0.74536   0.74720   0.74812   0.75202   0.75487
 Alpha virt. eigenvalues --    0.75638   0.76015   0.76317   0.76425   0.76635
 Alpha virt. eigenvalues --    0.76867   0.76974   0.77134   0.77503   0.77722
 Alpha virt. eigenvalues --    0.77789   0.78308   0.78576   0.78622   0.78961
 Alpha virt. eigenvalues --    0.79106   0.79381   0.79404   0.79606   0.79921
 Alpha virt. eigenvalues --    0.79995   0.80483   0.80529   0.80847   0.80891
 Alpha virt. eigenvalues --    0.81294   0.81523   0.81746   0.82002   0.82098
 Alpha virt. eigenvalues --    0.82257   0.82271   0.82860   0.82882   0.83125
 Alpha virt. eigenvalues --    0.83299   0.83915   0.84067   0.84113   0.84395
 Alpha virt. eigenvalues --    0.84511   0.84629   0.85351   0.85367   0.85884
 Alpha virt. eigenvalues --    0.86015   0.86350   0.86472   0.86725   0.87321
 Alpha virt. eigenvalues --    0.87571   0.87716   0.87946   0.88230   0.88383
 Alpha virt. eigenvalues --    0.88696   0.88965   0.89153   0.89220   0.89437
 Alpha virt. eigenvalues --    0.89867   0.90060   0.90412   0.90745   0.91007
 Alpha virt. eigenvalues --    0.91151   0.91537   0.91742   0.91790   0.91904
 Alpha virt. eigenvalues --    0.92220   0.92280   0.92552   0.92687   0.92929
 Alpha virt. eigenvalues --    0.93107   0.93317   0.93603   0.93853   0.94018
 Alpha virt. eigenvalues --    0.94326   0.94758   0.94934   0.95080   0.95299
 Alpha virt. eigenvalues --    0.95428   0.95829   0.95881   0.96405   0.96451
 Alpha virt. eigenvalues --    0.96692   0.96913   0.97204   0.97559   0.97631
 Alpha virt. eigenvalues --    0.97984   0.98468   0.98590   0.98892   0.99106
 Alpha virt. eigenvalues --    0.99137   0.99174   0.99663   0.99837   0.99963
 Alpha virt. eigenvalues --    1.00067   1.00491   1.00656   1.00820   1.00953
 Alpha virt. eigenvalues --    1.01094   1.01374   1.01561   1.01797   1.01906
 Alpha virt. eigenvalues --    1.02140   1.02386   1.02537   1.02639   1.03125
 Alpha virt. eigenvalues --    1.03521   1.03795   1.03964   1.04272   1.04507
 Alpha virt. eigenvalues --    1.04576   1.04799   1.04970   1.05186   1.05437
 Alpha virt. eigenvalues --    1.05607   1.05931   1.06288   1.06652   1.06905
 Alpha virt. eigenvalues --    1.07049   1.07262   1.07456   1.07727   1.07974
 Alpha virt. eigenvalues --    1.08191   1.08534   1.08689   1.08919   1.09125
 Alpha virt. eigenvalues --    1.09336   1.09548   1.09628   1.10105   1.10286
 Alpha virt. eigenvalues --    1.10587   1.10656   1.11073   1.11414   1.11465
 Alpha virt. eigenvalues --    1.11516   1.12050   1.12143   1.12347   1.12829
 Alpha virt. eigenvalues --    1.12966   1.13041   1.13203   1.13285   1.13533
 Alpha virt. eigenvalues --    1.14064   1.14153   1.14519   1.14765   1.15070
 Alpha virt. eigenvalues --    1.15330   1.15424   1.15812   1.16024   1.16257
 Alpha virt. eigenvalues --    1.16485   1.16784   1.16954   1.17116   1.17429
 Alpha virt. eigenvalues --    1.17625   1.18113   1.18281   1.18348   1.18677
 Alpha virt. eigenvalues --    1.18895   1.19077   1.19530   1.19780   1.20179
 Alpha virt. eigenvalues --    1.20300   1.20361   1.20781   1.21023   1.21464
 Alpha virt. eigenvalues --    1.21716   1.21865   1.21949   1.22396   1.22606
 Alpha virt. eigenvalues --    1.22945   1.23217   1.23376   1.23596   1.23877
 Alpha virt. eigenvalues --    1.24083   1.24366   1.24421   1.24716   1.24777
 Alpha virt. eigenvalues --    1.24861   1.25154   1.25471   1.25861   1.26011
 Alpha virt. eigenvalues --    1.26205   1.26326   1.26462   1.26764   1.26972
 Alpha virt. eigenvalues --    1.27175   1.27791   1.27830   1.28233   1.28650
 Alpha virt. eigenvalues --    1.29055   1.29089   1.29635   1.30069   1.30287
 Alpha virt. eigenvalues --    1.30463   1.30679   1.30896   1.31150   1.31421
 Alpha virt. eigenvalues --    1.31759   1.31926   1.32075   1.32244   1.32600
 Alpha virt. eigenvalues --    1.32999   1.33159   1.33436   1.33677   1.34039
 Alpha virt. eigenvalues --    1.34046   1.34281   1.34541   1.34728   1.34831
 Alpha virt. eigenvalues --    1.35141   1.35279   1.35501   1.35599   1.35783
 Alpha virt. eigenvalues --    1.36087   1.36210   1.36449   1.36589   1.36791
 Alpha virt. eigenvalues --    1.37059   1.37215   1.37382   1.37637   1.37725
 Alpha virt. eigenvalues --    1.38303   1.38540   1.38869   1.39130   1.39296
 Alpha virt. eigenvalues --    1.39474   1.39748   1.40184   1.40204   1.40480
 Alpha virt. eigenvalues --    1.40606   1.40737   1.40998   1.41351   1.41550
 Alpha virt. eigenvalues --    1.41806   1.42021   1.42582   1.42775   1.43064
 Alpha virt. eigenvalues --    1.43287   1.43712   1.43754   1.44041   1.44152
 Alpha virt. eigenvalues --    1.44474   1.44883   1.45218   1.45542   1.45601
 Alpha virt. eigenvalues --    1.45916   1.46067   1.46266   1.46351   1.46878
 Alpha virt. eigenvalues --    1.46964   1.47072   1.47711   1.47762   1.47876
 Alpha virt. eigenvalues --    1.48032   1.48183   1.48694   1.48886   1.49111
 Alpha virt. eigenvalues --    1.49773   1.49841   1.49997   1.50227   1.50506
 Alpha virt. eigenvalues --    1.50930   1.51308   1.51627   1.51872   1.52133
 Alpha virt. eigenvalues --    1.52365   1.52775   1.52820   1.52877   1.53138
 Alpha virt. eigenvalues --    1.53391   1.53587   1.53742   1.54081   1.54312
 Alpha virt. eigenvalues --    1.54607   1.54761   1.54867   1.55307   1.55520
 Alpha virt. eigenvalues --    1.55735   1.55766   1.56325   1.56728   1.56906
 Alpha virt. eigenvalues --    1.57390   1.57551   1.58067   1.58153   1.58252
 Alpha virt. eigenvalues --    1.58463   1.58640   1.59089   1.59126   1.59349
 Alpha virt. eigenvalues --    1.59506   1.59799   1.60066   1.60155   1.60392
 Alpha virt. eigenvalues --    1.60617   1.60707   1.61108   1.61485   1.61799
 Alpha virt. eigenvalues --    1.61887   1.62074   1.62144   1.62278   1.62582
 Alpha virt. eigenvalues --    1.62878   1.63134   1.63639   1.63804   1.63863
 Alpha virt. eigenvalues --    1.63908   1.64318   1.64690   1.64932   1.65216
 Alpha virt. eigenvalues --    1.65417   1.65538   1.65852   1.66084   1.66305
 Alpha virt. eigenvalues --    1.66675   1.66885   1.67325   1.67644   1.67965
 Alpha virt. eigenvalues --    1.68152   1.68425   1.68518   1.68806   1.69360
 Alpha virt. eigenvalues --    1.69507   1.69707   1.70164   1.70305   1.70644
 Alpha virt. eigenvalues --    1.70760   1.71178   1.71352   1.71539   1.71703
 Alpha virt. eigenvalues --    1.71893   1.72126   1.72271   1.72764   1.72984
 Alpha virt. eigenvalues --    1.73066   1.73617   1.73837   1.74164   1.74313
 Alpha virt. eigenvalues --    1.74505   1.74799   1.75153   1.75418   1.76329
 Alpha virt. eigenvalues --    1.76415   1.76640   1.76906   1.77236   1.77528
 Alpha virt. eigenvalues --    1.77714   1.78354   1.78592   1.78983   1.79154
 Alpha virt. eigenvalues --    1.79777   1.80151   1.80275   1.80745   1.80912
 Alpha virt. eigenvalues --    1.81205   1.81342   1.81468   1.81856   1.82173
 Alpha virt. eigenvalues --    1.82712   1.83340   1.83377   1.83820   1.84216
 Alpha virt. eigenvalues --    1.84420   1.84582   1.84737   1.85197   1.85352
 Alpha virt. eigenvalues --    1.85429   1.86045   1.86389   1.86655   1.87089
 Alpha virt. eigenvalues --    1.87238   1.87782   1.88504   1.88608   1.88709
 Alpha virt. eigenvalues --    1.89247   1.89964   1.90094   1.90455   1.90553
 Alpha virt. eigenvalues --    1.91054   1.91466   1.91874   1.92184   1.92358
 Alpha virt. eigenvalues --    1.92953   1.93426   1.94011   1.94661   1.94919
 Alpha virt. eigenvalues --    1.95585   1.95988   1.96667   1.96752   1.97356
 Alpha virt. eigenvalues --    1.97482   1.97841   1.98286   1.98491   1.98575
 Alpha virt. eigenvalues --    1.98756   1.99417   1.99688   2.00014   2.00470
 Alpha virt. eigenvalues --    2.00833   2.01041   2.01286   2.02139   2.02379
 Alpha virt. eigenvalues --    2.02755   2.03122   2.03212   2.03926   2.04201
 Alpha virt. eigenvalues --    2.04351   2.04455   2.05134   2.05373   2.05482
 Alpha virt. eigenvalues --    2.05741   2.06181   2.06388   2.06674   2.07001
 Alpha virt. eigenvalues --    2.07436   2.07929   2.08211   2.08263   2.08833
 Alpha virt. eigenvalues --    2.09274   2.09446   2.09855   2.10040   2.10351
 Alpha virt. eigenvalues --    2.10801   2.11573   2.11752   2.12370   2.12701
 Alpha virt. eigenvalues --    2.13046   2.13150   2.13532   2.14210   2.15274
[...]
 Alpha virt. eigenvalues --    3.69218   3.69371   3.69489   3.69873   3.70479
 Alpha virt. eigenvalues --    3.70662   3.70973   3.71244   3.71580   3.71699
 Alpha virt. eigenvalues --    3.72009   3.72123   3.72532   3.72864   3.73266
 Alpha virt. eigenvalues --    3.73352   3.73899   3.74014   3.74425   3.74648
 Alpha virt. eigenvalues --    3.74887   3.75174   3.75356   3.75884   3.76063
 Alpha virt. eigenvalues --    3.76382   3.76569   3.76727   3.77176   3.77357
 Alpha virt. eigenvalues --    3.77720   3.77766   3.77805   3.78290   3.78432
 Alpha virt. eigenvalues --    3.78635   3.78999   3.79559   3.79997   3.80156
 Alpha virt. eigenvalues --    3.80247   3.80488   3.81004   3.81197   3.81373
 Alpha virt. eigenvalues --    3.81595   3.81610   3.82016   3.82027   3.82208
 Alpha virt. eigenvalues --    3.82481   3.82650   3.83022   3.83423   3.83864
 Alpha virt. eigenvalues --    3.84040   3.84257   3.84627   3.84745   3.84998
 Alpha virt. eigenvalues --    3.85806   3.85973   3.86266   3.86327   3.86514
 Alpha virt. eigenvalues --    3.86889   3.87115   3.87248   3.87656   3.87826
 Alpha virt. eigenvalues --    3.88066   3.88349   3.88839   3.88857   3.89215
 Alpha virt. eigenvalues --    3.89261   3.89384   3.89594   3.89830   3.90236
 Alpha virt. eigenvalues --    3.91197   3.91243   3.91429   3.91791   3.92017
 Alpha virt. eigenvalues --    3.92487   3.92755   3.93089   3.93400   3.93506
 Alpha virt. eigenvalues --    3.93965   3.94198   3.94597   3.94687   3.95252
 Alpha virt. eigenvalues --    3.95791   3.96263   3.96514   3.96988   3.97696
 Alpha virt. eigenvalues --    3.97873   3.98104   3.98778   3.98901   3.99425
 Alpha virt. eigenvalues --    3.99612   3.99838   4.00352   4.00438   4.00582
 Alpha virt. eigenvalues --    4.01083   4.01291   4.01565   4.01848   4.01904
 Alpha virt. eigenvalues --    4.02145   4.02280   4.02629   4.02770   4.03203
 Alpha virt. eigenvalues --    4.03395   4.03739   4.03987   4.04304   4.04704
 Alpha virt. eigenvalues --    4.04920   4.05103   4.05502   4.05687   4.05868
 Alpha virt. eigenvalues --    4.06048   4.06409   4.06437   4.07068   4.07317
 Alpha virt. eigenvalues --    4.07534   4.07889   4.08332   4.08667   4.08971
 Alpha virt. eigenvalues --    4.09484   4.09851   4.10175   4.10315   4.10621
 Alpha virt. eigenvalues --    4.11379   4.11556   4.11710   4.12052   4.12141
 Alpha virt. eigenvalues --    4.12373   4.12596   4.12777   4.13138   4.13223
 Alpha virt. eigenvalues --    4.13254   4.13595   4.14091   4.14340   4.14592
 Alpha virt. eigenvalues --    4.14861   4.15085   4.15238   4.15661   4.16244
 Alpha virt. eigenvalues --    4.16485   4.16763   4.16840   4.17181   4.17358
 Alpha virt. eigenvalues --    4.17793   4.17976   4.18167   4.18439   4.18757
 Alpha virt. eigenvalues --    4.19171   4.19209   4.19547   4.19950   4.20189
 Alpha virt. eigenvalues --    4.20380   4.20518   4.20804   4.21420   4.21570
 Alpha virt. eigenvalues --    4.21924   4.22064   4.22640   4.22780   4.22883
 Alpha virt. eigenvalues --    4.23480   4.23515   4.23887   4.24245   4.24337
 Alpha virt. eigenvalues --    4.24581   4.25159   4.25513   4.25686   4.25841
 Alpha virt. eigenvalues --    4.25875   4.26185   4.26308   4.26538   4.26703
 Alpha virt. eigenvalues --    4.27079   4.27557   4.27730   4.27847   4.28199
 Alpha virt. eigenvalues --    4.28545   4.29018   4.29113   4.29401   4.29537
 Alpha virt. eigenvalues --    4.30281   4.30790   4.30953   4.31548   4.31775
 Alpha virt. eigenvalues --    4.31917   4.32172   4.32606   4.33130   4.33549
 Alpha virt. eigenvalues --    4.34132   4.34751   4.35357   4.35641   4.36064
 Alpha virt. eigenvalues --    4.36427   4.37130   4.37896   4.38105   4.38423
 Alpha virt. eigenvalues --    4.38463   4.39065   4.39400   4.40365   4.40463
 Alpha virt. eigenvalues --    4.40740   4.41203   4.41459   4.41911   4.42337
 Alpha virt. eigenvalues --    4.42388   4.42942   4.43674   4.43762   4.44286
 Alpha virt. eigenvalues --    4.44479   4.44640   4.45315   4.46135   4.46514
 Alpha virt. eigenvalues --    4.46944   4.46991   4.47702   4.48119   4.49159
 Alpha virt. eigenvalues --    4.49348   4.50286   4.50782   4.51039   4.51357
 Alpha virt. eigenvalues --    4.52310   4.52844   4.53223   4.53426   4.53950
 Alpha virt. eigenvalues --    4.53975   4.54853   4.55502   4.56346   4.56535
 Alpha virt. eigenvalues --    4.57213   4.57590   4.58038   4.58483   4.58946
 Alpha virt. eigenvalues --    4.59241   4.59550   4.60210   4.60583   4.61415
 Alpha virt. eigenvalues --    4.61632   4.61760   4.62059   4.62186   4.62373
 Alpha virt. eigenvalues --    4.62493   4.62552   4.63051   4.63291   4.63636
 Alpha virt. eigenvalues --    4.63700   4.63797   4.64176   4.64724   4.64914
 Alpha virt. eigenvalues --    4.65321   4.65735   4.66119   4.66707   4.67019
 Alpha virt. eigenvalues --    4.67523   4.68434   4.68610   4.69278   4.69793
 Alpha virt. eigenvalues --    4.70440   4.70896   4.71549   4.71812   4.72001
 Alpha virt. eigenvalues --    4.72376   4.72512   4.72875   4.73585   4.73670
 Alpha virt. eigenvalues --    4.74094   4.74252   4.75114   4.75311   4.75652
 Alpha virt. eigenvalues --    4.75756   4.75913   4.76106   4.76358   4.77007
 Alpha virt. eigenvalues --    4.77756   4.78009   4.78446   4.78724   4.79674
 Alpha virt. eigenvalues --    4.80159   4.80411   4.81453   4.81735   4.82110
 Alpha virt. eigenvalues --    4.82357   4.83304   4.83937   4.83999   4.84263
 Alpha virt. eigenvalues --    4.85590   4.85742   4.86534   4.86594   4.87770
 Alpha virt. eigenvalues --    4.88147   4.88396   4.88623   4.89018   4.89493
 Alpha virt. eigenvalues --    4.89864   4.90180   4.90609   4.91181   4.91289
 Alpha virt. eigenvalues --    4.91610   4.91994   4.92307   4.92665   4.93098
 Alpha virt. eigenvalues --    4.93804   4.94262   4.94291   4.94948   4.95483
 Alpha virt. eigenvalues --    4.95930   4.96179   4.96373   4.96496   4.97077
 Alpha virt. eigenvalues --    4.97801   4.97937   4.98682   4.99246   4.99837
 Alpha virt. eigenvalues --    5.00173   5.00257   5.00467   5.01666   5.01980
 Alpha virt. eigenvalues --    5.02563   5.03073   5.03680   5.04268   5.04962
 Alpha virt. eigenvalues --    5.05294   5.05514   5.06068   5.06345   5.06904
 Alpha virt. eigenvalues --    5.07386   5.07849   5.07982   5.08979   5.09144
 Alpha virt. eigenvalues --    5.10325   5.10469   5.10612   5.10855   5.11795
 Alpha virt. eigenvalues --    5.12166   5.12501   5.12947   5.13190   5.13897
 Alpha virt. eigenvalues --    5.14284   5.14582   5.14719   5.15540   5.15724
 Alpha virt. eigenvalues --    5.16307   5.16999   5.17336   5.17744   5.18059
 Alpha virt. eigenvalues --    5.18620   5.18948   5.19355   5.19660   5.20283
 Alpha virt. eigenvalues --    5.20620   5.20850   5.21495   5.22220   5.22268
 Alpha virt. eigenvalues --    5.22807   5.22962   5.23720   5.24328   5.24532
 Alpha virt. eigenvalues --    5.25491   5.25952   5.26108   5.26413   5.27091
 Alpha virt. eigenvalues --    5.27659   5.27877   5.28564   5.28898   5.29110
 Alpha virt. eigenvalues --    5.29358   5.29899   5.30106   5.30304   5.30540
 Alpha virt. eigenvalues --    5.30936   5.31615   5.32510   5.32640   5.33245
 Alpha virt. eigenvalues --    5.33711   5.33898   5.33960   5.34277   5.34845
 Alpha virt. eigenvalues --    5.35232   5.35966   5.36106   5.37005   5.37200
 Alpha virt. eigenvalues --    5.37619   5.37648   5.38123   5.38693   5.39243
 Alpha virt. eigenvalues --    5.39899   5.40255   5.40529   5.41134   5.42032
 Alpha virt. eigenvalues --    5.42434   5.43042   5.43517   5.44776   5.45749
 Alpha virt. eigenvalues --    5.46240   5.46361   5.46524   5.48783   5.50087
 Alpha virt. eigenvalues --    5.51107   5.52043   5.52488   5.53225   5.54112
 Alpha virt. eigenvalues --    5.54862   5.55119   5.55448   5.56128   5.56286
 Alpha virt. eigenvalues --    5.57134   5.57676   5.58002   5.58940   5.59631
 Alpha virt. eigenvalues --    5.60087   5.60419   5.60587   5.61271   5.61669
 Alpha virt. eigenvalues --    5.62077   5.62753   5.63824   5.64534   5.65602
 Alpha virt. eigenvalues --    5.65779   5.66283   5.66984   5.68089   5.68604
 Alpha virt. eigenvalues --    5.69696   5.71461   5.72165   5.73668   5.74472
 Alpha virt. eigenvalues --    5.74763   5.75812   5.77165   5.77718   5.80272
 Alpha virt. eigenvalues --    5.81629   5.82861   5.84103   5.84706   5.84831
 Alpha virt. eigenvalues --    5.85804   5.86051   5.87402   5.88168   5.89430
 Alpha virt. eigenvalues --    5.90844   5.91178   5.91899   5.94291   5.94579
 Alpha virt. eigenvalues --    5.95051   5.98352   5.98774   5.99047   5.99611
 Alpha virt. eigenvalues --    6.03417   6.05050   6.05156   6.05288   6.09380
 Alpha virt. eigenvalues --    6.11448   6.14687   6.17232   6.18819   6.22169
 Alpha virt. eigenvalues --    6.22940   6.23366   6.25341   6.28087   6.35143
 Alpha virt. eigenvalues --    6.36346   6.37530   6.38632   6.40774   6.42225
 Alpha virt. eigenvalues --    6.43155   6.49157   6.55717   6.56461   6.74184
 Alpha virt. eigenvalues --    6.74579   6.74632   6.75447   6.77073   6.80741
 Alpha virt. eigenvalues --    6.83105   6.87460   6.92182   6.93202   6.93805
 Alpha virt. eigenvalues --    6.94357   6.95210   6.96946   6.98960   6.99428
 Alpha virt. eigenvalues --    6.99545   7.01117   7.04942   7.08376   7.11427
 Alpha virt. eigenvalues --    7.17200   7.20749   7.22390   7.24229   7.27217
 Alpha virt. eigenvalues --    7.33187   7.33237   7.34804   7.36212   7.37038
 Alpha virt. eigenvalues --    7.45313   7.46788   7.49455   7.50826   8.46596
 Alpha virt. eigenvalues --    8.49594   8.56459   8.61789   8.83370   8.88109
 Alpha virt. eigenvalues --    8.91813   8.94470   8.99125   9.04096  15.87334
 Alpha virt. eigenvalues --   22.76038  22.76345  22.79116  22.87522  22.93003
 Alpha virt. eigenvalues --   22.98809  22.99141  23.03311  23.06805  23.10097
 Alpha virt. eigenvalues --   23.11957  23.16133  23.16650  23.17518  23.18367
 Alpha virt. eigenvalues --   23.19113  23.20457  23.21674  23.21755  23.23610
 Alpha virt. eigenvalues --   23.25878  23.28209  23.29107  23.29868  23.31320
 Alpha virt. eigenvalues --   23.32502  23.33969  23.34958  23.36145  23.40268
 Alpha virt. eigenvalues --   23.40348  23.41720  23.48585  23.50575  23.52028
 Alpha virt. eigenvalues --   23.58373  23.65931  23.73987  23.74408  23.74585
 Alpha virt. eigenvalues --   23.80279  23.83580  24.08248  24.08283  24.16252
 Alpha virt. eigenvalues --   32.59710  32.73259  32.74740  33.12341  33.27878
 Alpha virt. eigenvalues --   34.49757  34.51048  34.62049  34.64617  34.89876
 Alpha virt. eigenvalues --   34.92741  42.94035  42.95041  44.20590  44.25091
 Alpha virt. eigenvalues --   44.66473  44.72434  57.45685  57.65166 117.59733
 Alpha virt. eigenvalues --  117.59793
          Condensed to atoms (all electrons):
 Mulliken charges:
               1
     1  C   -0.425025
     2  C    0.079549
     3  C   -0.002245
     4  I   -0.040544
     5  C    0.053448
     6  C   -0.241880
     7  C   -0.095523
     8  C   -0.032557
     9  C   -0.106861
    10  C   -0.183829
    11  C   -0.159242
    12  C   -0.149299
    13  C    0.185656
    14  O   -0.275287
    15  C   -0.220786
    16  C    0.205977
    17  C   -0.179563
    18  C   -0.109915
    19  C   -0.143609
    20  C   -0.044185
    21  N   -0.301365
    22  N   -0.036660
    23  C    0.042279
    24  C    0.165179
    25  C   -0.267245
    26  C   -0.155768
    27  C   -0.042820
    28  C   -0.029324
    29  N    0.494214
    30  O   -0.365345
    31  O   -0.365407
    32  C   -0.036242
    33  C   -0.178537
    34  C    0.082801
    35  C    0.031334
    36  C   -0.421627
    37  C   -0.012078
    38  I   -0.054159
    39  C    0.117536
    40  C   -0.154440
    41  C   -0.073065
    42  C   -0.013486
    43  C   -0.122147
    44  C   -0.183957
    45  C   -0.151286
    46  C   -0.167895
    47  C    0.221033
    48  O   -0.294874
    49  C   -0.125586
    50  C    0.066571
    51  C   -0.134745
    52  C   -0.109601
    53  C   -0.121914
    54  C   -0.072552
    55  N   -0.277043
    56  N   -0.071226
    57  B    0.386279
    58  F   -0.344077
    59  F   -0.341156
    60  H    0.173501
    61  H    0.160528
    62  H    0.134242
    63  H    0.162673
    64  H    0.134971
    65  H    0.133274
    66  H    0.156892
    67  H    0.161004
    68  H    0.149773
    69  H    0.165609
    70  H    0.175866
    71  H    0.148738
    72  H    0.163239
    73  H    0.159233
    74  H    0.141383
    75  H    0.181449
    76  H    0.199447
    77  H    0.200524
    78  H    0.180576
    79  H    0.165389
    80  H    0.128414
    81  H    0.174176
    82  H    0.083492
    83  H    0.114503
    84  H    0.133906
    85  H    0.158163
    86  H    0.162576
    87  H    0.156182
    88  H    0.164679
    89  H    0.156109
    90  H    0.150574
    91  H    0.166326
    92  H    0.161398
    93  H    0.145314
 Sum of Mulliken charges =  -0.00000
 Mulliken charges with hydrogens summed into heavy atoms:
               1
     1  C    0.043246
     2  C    0.079549
     3  C   -0.002245
     4  I   -0.040544
     5  C    0.053448
     6  C   -0.079207
     7  C    0.039448
     8  C   -0.032557
     9  C    0.026413
    10  C   -0.026938
    11  C    0.001762
    12  C    0.000474
    13  C    0.185656
    14  O   -0.275287
    15  C    0.120689
    16  C    0.205977
    17  C   -0.030825
    18  C    0.053324
    19  C    0.015623
    20  C    0.097198
    21  N   -0.301365
    22  N   -0.036660
    23  C    0.042279
    24  C    0.165179
    25  C   -0.267245
    26  C    0.025681
    27  C    0.156628
    28  C   -0.029324
    29  N    0.494214
    30  O   -0.365345
    31  O   -0.365407
    32  C    0.164282
    33  C    0.002038
    34  C    0.082801
    35  C    0.031334
    36  C    0.046352
    37  C   -0.012078
    38  I   -0.054159
    39  C    0.117536
    40  C   -0.070948
    41  C    0.041438
    42  C   -0.013486
    43  C    0.011759
    44  C   -0.025794
    45  C    0.011290
    46  C   -0.011713
    47  C    0.221033
    48  O   -0.294874
    49  C    0.195201
    50  C    0.066571
    51  C    0.015829
    52  C    0.056725
    53  C    0.039483
    54  C    0.072762
    55  N   -0.277043
    56  N   -0.071226
    57  B    0.386279
    58  F   -0.344077
    59  F   -0.341156
 Electronic spatial extent (au):  <R**2>=          50275.2680
 Charge=              0.0000 electrons
 Dipole moment (field-independent basis, Debye):
    X=              3.8648    Y=             -3.1757    Z=              4.3346  Tot=              6.6189
 Quadrupole moment (field-independent basis, Debye-Ang):
   XX=           -368.3253   YY=           -392.8534   ZZ=           -362.7491
   XY=              5.3099   XZ=             25.4550   YZ=             -8.6805
 Traceless Quadrupole moment (field-independent basis, Debye-Ang):
   XX=              6.3173   YY=            -18.2108   ZZ=             11.8935
   XY=              5.3099   XZ=             25.4550   YZ=             -8.6805
 Octapole moment (field-independent basis, Debye-Ang**2):
  XXX=              8.3538  YYY=           -553.5850  ZZZ=             11.8215  XYY=            271.4309
  XXY=           -163.4158  XXZ=             81.7344  XZZ=             56.1778  YZZ=            -43.3300
  YYZ=           -150.1273  XYZ=             77.6983
 Hexadecapole moment (field-independent basis, Debye-Ang**3):
 XXXX=         -37022.9554 YYYY=         -29504.0002 ZZZZ=          -8767.6684 XXXY=            929.3027
 XXXZ=            896.9041 YYYX=           2886.4295 YYYZ=           -504.7144 ZZZX=            685.5946
 ZZZY=           -143.4678 XXYY=          -9897.9507 XXZZ=          -7512.1195 YYZZ=          -5187.5979
 XXYZ=            233.6310 YYXZ=            387.1303 ZZXY=            168.4908
 N-N= 9.158512493225D+03 E-N=-2.548623377172D+04  KE= 2.747758175717D+03
 No NMR shielding tensors so no spin-rotation constants.
 Leave Link  601 at Sun Oct 12 07:16:34 2025, MaxMem= 30870077440 cpu:             163.9 elap:               3.2
 (Enter /work/home/accqbws0vm/apprepo/gaussian/16-hy/scripts/../app/g16/l9999.exe)
 1\1\GINC-G03R2N33\SP\RM062X\def2TZVPP\C45H34B1F2I2N5O4\ACCQBWS0VM\12-O
 ct-2025\0\\#p M062X/DEF2TZVPP scrf=(solvent=water) em=GD3\\Energy calc
 ulation for M100034926\\0,1\C,0,-4.460752,2.300441,-0.605358\C,0,-3.52
 7588,1.158062,-0.857422\C,0,-3.899332,-0.160066,-1.132641\I,0,-5.85774
 5,-0.855271,-1.340727\C,0,-2.731515,-0.939232,-1.344033\C,0,-2.581455,
 -2.321064,-1.789427\C,0,-3.11307,-3.463556,-1.302233\C,0,-3.876919,-3.
 786286,-0.088801\C,0,-4.739713,-4.897311,-0.155131\C,0,-5.479264,-5.33
 0585,0.941473\C,0,-5.333796,-4.667661,2.160685\C,0,-4.461042,-3.584694
 ,2.277196\C,0,-3.738903,-3.134389,1.165159\O,0,-2.8676,-2.082611,1.211
 301\C,0,-2.538597,-1.468123,2.467477\C,0,-1.55506,-2.286543,3.277287\C
 ,0,-0.412062,-2.816635,2.666798\C,0,0.48674,-3.541347,3.444962\C,0,0.2
 19156,-3.703868,4.805425\C,0,-0.938168,-3.128865,5.324011\N,0,-1.82084
 4,-2.434294,4.585917\N,0,-1.658092,-0.120274,-1.212828\C,0,-2.094424,1
 .16246,-0.889692\C,0,-1.152696,2.176393,-0.632162\C,0,-1.639819,3.5376
 59,-0.255261\C,0,-1.743432,4.540831,-1.230781\C,0,-2.206533,5.807758,-
 0.891164\C,0,-2.557363,6.055456,0.436085\N,0,-3.040113,7.385164,0.8016
 46\O,0,-3.116303,8.245377,-0.080978\O,0,-3.352031,7.593678,1.978082\C,
 0,-2.463609,5.077765,1.426572\C,0,-2.005177,3.813791,1.070899\C,0,0.22
 8395,1.921612,-0.696397\C,0,1.338361,2.765033,-0.348337\C,0,1.324454,4
 .192409,0.100052\C,0,2.465078,1.969045,-0.500914\I,0,4.44311,2.568661,
 -0.180483\C,0,2.081205,0.672468,-0.959512\C,0,3.018815,-0.396982,-1.21
 2197\C,0,2.854908,-1.462621,-2.039812\C,0,3.780227,-2.546613,-2.343284
 \C,0,3.376329,-3.453842,-3.347446\C,0,4.162843,-4.529404,-3.743528\C,0
 ,5.39942,-4.727791,-3.127391\C,0,5.837503,-3.860936,-2.124529\C,0,5.04
 3104,-2.780246,-1.724841\O,0,5.4194,-1.911368,-0.742396\C,0,6.667416,-
 2.138627,-0.053246\C,0,6.791929,-1.085305,1.017734\C,0,6.004946,-1.158
 007,2.172265\C,0,6.135775,-0.165922,3.141296\C,0,7.051481,0.86369,2.92
 2654\C,0,7.792889,0.851484,1.742407\N,0,7.675786,-0.096158,0.797508\N,
 0,0.719801,0.661559,-1.069382\B,0,-0.186095,-0.552419,-1.424527\F,0,-0
 .02517,-0.910976,-2.777497\F,0,0.121392,-1.646491,-0.608785\H,0,-4.479
 742,2.578877,0.453789\H,0,-4.178319,3.190793,-1.171256\H,0,-5.476835,2
 .021891,-0.892454\H,0,-1.944955,-2.423049,-2.66572\H,0,-2.92579,-4.342
 243,-1.918333\H,0,-4.826012,-5.419866,-1.103989\H,0,-6.145843,-6.18216
 9,0.850134\H,0,-5.888026,-4.996252,3.034906\H,0,-4.341308,-3.105045,3.
 240247\H,0,-2.08384,-0.515761,2.179899\H,0,-3.433104,-1.24931,3.05545\
 H,0,-0.234435,-2.646452,1.609871\H,0,1.382124,-3.96612,3.001111\H,0,0.
 890205,-4.259884,5.451762\H,0,-1.174598,-3.233037,6.380602\H,0,-1.4636
 74,4.327722,-2.256783\H,0,-2.294112,6.589051,-1.6353\H,0,-2.74375,5.30
 3678,2.447403\H,0,-1.926303,3.038727,1.825574\H,0,0.691503,4.335411,0.
 979638\H,0,2.336327,4.511328,0.356305\H,0,0.948854,4.857965,-0.682673\
 H,0,3.966662,-0.258761,-0.709864\H,0,1.930542,-1.529561,-2.601317\H,0,
 2.411998,-3.290104,-3.820547\H,0,3.817253,-5.203031,-4.520976\H,0,6.03
 304,-5.559379,-3.421121\H,0,6.800269,-4.032745,-1.660485\H,0,6.658568,
 -3.141141,0.388604\H,0,7.502733,-2.058802,-0.754677\H,0,5.310116,-1.98
 1637,2.302962\H,0,5.540652,-0.197693,4.048769\H,0,7.1941,1.657206,3.64
 8672\H,0,8.518291,1.63743,1.545622\\Version=ES64L-G16RevA.03\State=1-A
 \HF=-3129.7724148\RMSD=4.995e-09\Dipole=1.5205392,-1.2494073,1.7053442
 \Quadrupole=4.6967438,-13.5392548,8.8425109,3.9478077,18.9252038,-6.45
 37726\PG=C01 [X(C45H34B1F2I2N5O4)]\\@


 ART, GLORY, FREEDOM FAIL, BUT NATURE STILL IS FAIR.

                                           -- BYRON
 Job cpu time:       1 days  9 hours 41 minutes 38.2 seconds.
 Elapsed time:       0 days  0 hours 32 minutes 10.4 seconds.
 File lengths (MBytes):  RWF=   3680 Int=      0 D2E=      0 Chk=    318 Scr=      1
 Normal termination of Gaussian 16 at Sun Oct 12 07:16:34 2025.
