 Entering Gaussian System, Link 0=g16
 Input=M100034873_reduced_sp.gjf
 Output=M100034873_reduced_sp.log
 Initial command:
 /public/software/gauss/g16/l1.exe "/public/home/baiding/1101_v2_sp/tmp_M100034873_reduced_sp_1568608/Gau-1555.inp" -scrdir="/public/home/baiding/1101_v2_sp/tmp_M100034873_reduced_sp_1568608/"
 Entering Link 1 = /public/software/gauss/g16/l1.exe PID=      1556.
  
 Copyright (c) 1988,1990,1992,1993,1995,1998,2003,2009,2016,
            Gaussian, Inc.  All Rights Reserved.
  
 This is part of the Gaussian(R) 16 program.  It is based on
 the Gaussian(R) 09 system (copyright 2009, Gaussian, Inc.),
 the Gaussian(R) 03 system (copyright 2003, Gaussian, Inc.),
 the Gaussian(R) 98 system (copyright 1998, Gaussian, Inc.),
 the Gaussian(R) 94 system (copyright 1995, Gaussian, Inc.),
 the Gaussian 92(TM) system (copyright 1992, Gaussian, Inc.),
 the Gaussian 90(TM) system (copyright 1990, Gaussian, Inc.),
 the Gaussian 88(TM) system (copyright 1988, Gaussian, Inc.),
 the Gaussian 86(TM) system (copyright 1986, Carnegie Mellon
 University), and the Gaussian 82(TM) system (copyright 1983,
 Carnegie Mellon University). Gaussian is a federally registered
 trademark of Gaussian, Inc.
  
 This software contains proprietary and confidential information,
 including trade secrets, belonging to Gaussian, Inc.
  
 This software is provided under written license and may be
 used, copied, transmitted, or stored only in accord with that
 written license.
  
 The following legend is applicable only to US Government
 contracts under FAR:
  
                    RESTRICTED RIGHTS LEGEND
  
 Use, reproduction and disclosure by the US Government is
 subject to restrictions as set forth in subparagraphs (a)
 and (c) of the Commercial Computer Software - Restricted
 Rights clause in FAR 52.227-19.
  
 Gaussian, Inc.
 340 Quinnipiac St., Bldg. 40, Wallingford CT 06492
  
  
 ---------------------------------------------------------------
 Warning -- This program may not be used in any manner that
 competes with the business of Gaussian, Inc. or will provide
 assistance to any competitor of Gaussian, Inc.  The licensee
 of this program is prohibited from giving any competitor of
 Gaussian, Inc. access to this program.  By using this program,
 the user acknowledges that Gaussian, Inc. is engaged in the
 business of creating and licensing software in the field of
 computational chemistry and represents and warrants to the
 licensee that it is not a competitor of Gaussian, Inc. and that
 it will not use this program in any manner prohibited above.
 ---------------------------------------------------------------
  

 Cite this work as:
 Gaussian 16, Revision A.03,
 M. J. Frisch, G. W. Trucks, H. B. Schlegel, G. E. Scuseria, 
 M. A. Robb, J. R. Cheeseman, G. Scalmani, V. Barone, 
 G. A. Petersson, H. Nakatsuji, X. Li, M. Caricato, A. V. Marenich, 
 J. Bloino, B. G. Janesko, R. Gomperts, B. Mennucci, H. P. Hratchian, 
 J. V. Ortiz, A. F. Izmaylov, J. L. Sonnenberg, D. Williams-Young, 
 F. Ding, F. Lipparini, F. Egidi, J. Goings, B. Peng, A. Petrone, 
 T. Henderson, D. Ranasinghe, V. G. Zakrzewski, J. Gao, N. Rega, 
 G. Zheng, W. Liang, M. Hada, M. Ehara, K. Toyota, R. Fukuda, 
 J. Hasegawa, M. Ishida, T. Nakajima, Y. Honda, O. Kitao, H. Nakai, 
 T. Vreven, K. Throssell, J. A. Montgomery, Jr., J. E. Peralta, 
 F. Ogliaro, M. J. Bearpark, J. J. Heyd, E. N. Brothers, K. N. Kudin, 
 V. N. Staroverov, T. A. Keith, R. Kobayashi, J. Normand, 
 K. Raghavachari, A. P. Rendell, J. C. Burant, S. S. Iyengar, 
 J. Tomasi, M. Cossi, J. M. Millam, M. Klene, C. Adamo, R. Cammi, 
 J. W. Ochterski, R. L. Martin, K. Morokuma, O. Farkas, 
 J. B. Foresman, and D. J. Fox, Gaussian, Inc., Wallingford CT, 2016.
 
 ******************************************
 Gaussian 16:  ES64L-G16RevA.03 25-Dec-2016
                 7-Nov-2025 
 ******************************************
 %nprocshared=64
 Will use up to   64 processors via shared memory.
 %mem=230GB
 %chk=M100034873_reduced_sp.chk
 ----------------------------------------------
 #p M062X/DEF2TZVPP scrf=(solvent=water) em=GD3
 ----------------------------------------------
 1/38=1,172=1/1;
 2/12=2,17=6,18=5,40=1/2;
 3/5=44,7=202,11=2,25=1,30=1,70=2201,72=1,74=-55,124=31/1,2,3;
 4//1;
 5/5=2,38=5,53=1/2;
 6/7=2,8=2,9=2,10=2,28=1/1;
 99/5=1,9=1/99;
 Leave Link    1 at Fri Nov  7 02:34:02 2025, MaxMem= 30870077440 cpu:              12.9 elap:               0.2
 (Enter /public/software/gauss/g16/l101.exe)
 -----------------------------------------
 Energy calculation for M100034873_reduced
 -----------------------------------------
 Symbolic Z-matrix:
 Charge = -1 Multiplicity = 2
 C                     8.87376   0.34001   0.08538 
 C                     7.36944   0.21965   0.05442 
 C                     6.63655   0.07312   1.23784 
 C                     5.23986  -0.0143    1.23573 
 C                     4.49863  -0.17203   2.54283 
 C                     4.54532   0.04482   0.00738 
 C                     3.04991  -0.04208  -0.01432 
 C                     2.27225   1.13999   0.03122 
 C                     2.65194   2.52515   0.11014 
 C                     4.02424   3.12989   0.18031 
 C                     1.47194   3.25666   0.10623 
 C                     0.37664   2.36677   0.02427 
 C                    -1.01971   2.65312  -0.0351 
 C                    -1.56946   3.90078   0.08514 
 C                    -2.97783   4.22549   0.0155 
 C                    -4.00167   3.26289  -0.18224 
 C                    -5.33416   3.62997  -0.23703 
 C                    -5.70553   4.98457  -0.09612 
 C                    -7.07684   5.36258  -0.15138 
 N                    -8.20276   5.67311  -0.1963 
 C                    -4.70573   5.95853   0.10103 
 C                    -3.37545   5.57925   0.15484 
 N                     0.88743   1.07827  -0.0183 
 B                     0.05263  -0.21351   0.02328 
 F                    -0.85911  -0.23181  -1.05679 
 F                    -0.70235  -0.25704   1.22149 
 N                     1.01455  -1.41293  -0.05767 
 C                     0.67712  -2.75783  -0.15298 
 C                    -0.60234  -3.39198  -0.13272 
 C                    -1.8565   -2.8947    0.09869 
 C                    -3.07993  -3.67152   0.08011 
 C                    -3.14727  -5.04864  -0.25594 
 C                    -4.34881  -5.73439  -0.25244 
 C                    -5.54696  -5.06954   0.08585 
 C                    -6.78377  -5.77439   0.08633 
 N                    -7.79921  -6.35319   0.08688 
 C                    -5.50642  -3.70053   0.41902 
 C                    -4.29766  -3.02566   0.41277 
 C                     1.88033  -3.49084  -0.25738 
 C                     2.96062  -2.622    -0.20883 
 C                     4.39763  -3.05184  -0.28375 
 C                     2.40669  -1.30359  -0.08693 
 C                     5.2667    0.18906  -1.19633 
 C                     4.5572    0.25004  -2.52883 
 C                     6.66438   0.27215  -1.1519 
 H                     9.31301   0.10796  -0.88905 
 H                     9.18391   1.3586    0.3507 
 H                     9.31346  -0.33198   0.82935 
 H                     7.16451   0.02478   2.18783 
 H                     3.92697  -1.1064    2.5714 
 H                     5.19385  -0.17601   3.38653 
 H                     3.78084   0.64091   2.69872 
 H                     4.62915   2.89904  -0.70265 
 H                     3.94092   4.21852   0.25185 
 H                     4.58982   2.78055   1.05031 
 H                     1.39979   4.33603   0.1414 
 H                    -1.67151   1.80235  -0.20274 
 H                    -0.90903   4.7494    0.25189 
 H                    -3.74673   2.21445  -0.29218 
 H                    -6.10169   2.87792  -0.38787 
 H                    -4.9845    7.00146   0.20989 
 H                    -2.61224   6.3369    0.30729 
 H                    -0.51111  -4.46096  -0.31577 
 H                    -1.97962  -1.84743   0.34238 
 H                    -2.24607  -5.58654  -0.52949 
 H                    -4.37684  -6.7873   -0.5134 
 H                    -6.42369  -3.18206   0.67827 
 H                    -4.27709  -1.97082   0.67076 
 H                     1.93212  -4.56907  -0.34693 
 H                     4.92058  -2.61877  -1.14257 
 H                     4.96743  -2.77028   0.60769 
 H                     4.4464   -4.1408   -0.37954 
 H                     5.27505   0.34491  -3.34793 
 H                     3.95674  -0.64898  -2.70689 
 H                     3.87083   1.10256  -2.58079 
 H                     7.21393   0.37942  -2.08445 
 
 ITRead=  0  0  0  0  0  0  0  0  0  0  0  0  0  0  0  0  0  0  0  0
 ITRead=  0  0  0  0  0  0  0  0  0  0  0  0  0  0  0  0  0  0  0  0
 ITRead=  0  0  0  0  0  0  0  0  0  0  0  0  0  0  0  0  0  0  0  0
 ITRead=  0  0  0  0  0  0  0  0  0  0  0  0  0  0  0  0
 MicOpt= -1 -1 -1 -1 -1 -1 -1 -1 -1 -1 -1 -1 -1 -1 -1 -1 -1 -1 -1 -1
 MicOpt= -1 -1 -1 -1 -1 -1 -1 -1 -1 -1 -1 -1 -1 -1 -1 -1 -1 -1 -1 -1
 MicOpt= -1 -1 -1 -1 -1 -1 -1 -1 -1 -1 -1 -1 -1 -1 -1 -1 -1 -1 -1 -1
 MicOpt= -1 -1 -1 -1 -1 -1 -1 -1 -1 -1 -1 -1 -1 -1 -1 -1
 NAtoms=     76 NQM=       76 NQMF=       0 NMMI=      0 NMMIF=      0
                NMic=       0 NMicF=      0.
                    Isotopes and Nuclear Properties:
 (Nuclear quadrupole moments (NQMom) in fm**2, nuclear magnetic moments (NMagM)
  in nuclear magnetons)

  Atom         1           2           3           4           5           6           7           8           9          10
 IAtWgt=          12          12          12          12          12          12          12          12          12          12
 AtmWgt=  12.0000000  12.0000000  12.0000000  12.0000000  12.0000000  12.0000000  12.0000000  12.0000000  12.0000000  12.0000000
 NucSpn=           0           0           0           0           0           0           0           0           0           0
 AtZEff=  -0.0000000  -0.0000000  -0.0000000  -0.0000000  -0.0000000  -0.0000000  -0.0000000  -0.0000000  -0.0000000  -0.0000000
 NQMom=    0.0000000   0.0000000   0.0000000   0.0000000   0.0000000   0.0000000   0.0000000   0.0000000   0.0000000   0.0000000
 NMagM=    0.0000000   0.0000000   0.0000000   0.0000000   0.0000000   0.0000000   0.0000000   0.0000000   0.0000000   0.0000000
 AtZNuc=   6.0000000   6.0000000   6.0000000   6.0000000   6.0000000   6.0000000   6.0000000   6.0000000   6.0000000   6.0000000

  Atom        11          12          13          14          15          16          17          18          19          20
 IAtWgt=          12          12          12          12          12          12          12          12          12          14
 AtmWgt=  12.0000000  12.0000000  12.0000000  12.0000000  12.0000000  12.0000000  12.0000000  12.0000000  12.0000000  14.0030740
 NucSpn=           0           0           0           0           0           0           0           0           0           2
 AtZEff=  -0.0000000  -0.0000000  -0.0000000  -0.0000000  -0.0000000  -0.0000000  -0.0000000  -0.0000000  -0.0000000  -0.0000000
 NQMom=    0.0000000   0.0000000   0.0000000   0.0000000   0.0000000   0.0000000   0.0000000   0.0000000   0.0000000   2.0440000
 NMagM=    0.0000000   0.0000000   0.0000000   0.0000000   0.0000000   0.0000000   0.0000000   0.0000000   0.0000000   0.4037610
 AtZNuc=   6.0000000   6.0000000   6.0000000   6.0000000   6.0000000   6.0000000   6.0000000   6.0000000   6.0000000   7.0000000

  Atom        21          22          23          24          25          26          27          28          29          30
 IAtWgt=          12          12          14          11          19          19          14          12          12          12
 AtmWgt=  12.0000000  12.0000000  14.0030740  11.0093053  18.9984033  18.9984033  14.0030740  12.0000000  12.0000000  12.0000000
 NucSpn=           0           0           2           3           1           1           2           0           0           0
 AtZEff=  -0.0000000  -0.0000000  -0.0000000  -0.0000000  -0.0000000  -0.0000000  -0.0000000  -0.0000000  -0.0000000  -0.0000000
 NQMom=    0.0000000   0.0000000   2.0440000   4.0590000   0.0000000   0.0000000   2.0440000   0.0000000   0.0000000   0.0000000
 NMagM=    0.0000000   0.0000000   0.4037610   2.6886370   2.6288670   2.6288670   0.4037610   0.0000000   0.0000000   0.0000000
 AtZNuc=   6.0000000   6.0000000   7.0000000   5.0000000   9.0000000   9.0000000   7.0000000   6.0000000   6.0000000   6.0000000

  Atom        31          32          33          34          35          36          37          38          39          40
 IAtWgt=          12          12          12          12          12          14          12          12          12          12
 AtmWgt=  12.0000000  12.0000000  12.0000000  12.0000000  12.0000000  14.0030740  12.0000000  12.0000000  12.0000000  12.0000000
 NucSpn=           0           0           0           0           0           2           0           0           0           0
 AtZEff=  -0.0000000  -0.0000000  -0.0000000  -0.0000000  -0.0000000  -0.0000000  -0.0000000  -0.0000000  -0.0000000  -0.0000000
 NQMom=    0.0000000   0.0000000   0.0000000   0.0000000   0.0000000   2.0440000   0.0000000   0.0000000   0.0000000   0.0000000
 NMagM=    0.0000000   0.0000000   0.0000000   0.0000000   0.0000000   0.4037610   0.0000000   0.0000000   0.0000000   0.0000000
 AtZNuc=   6.0000000   6.0000000   6.0000000   6.0000000   6.0000000   7.0000000   6.0000000   6.0000000   6.0000000   6.0000000

  Atom        41          42          43          44          45          46          47          48          49          50
 IAtWgt=          12          12          12          12          12           1           1           1           1           1
 AtmWgt=  12.0000000  12.0000000  12.0000000  12.0000000  12.0000000   1.0078250   1.0078250   1.0078250   1.0078250   1.0078250
 NucSpn=           0           0           0           0           0           1           1           1           1           1
 AtZEff=  -0.0000000  -0.0000000  -0.0000000  -0.0000000  -0.0000000  -0.0000000  -0.0000000  -0.0000000  -0.0000000  -0.0000000
 NQMom=    0.0000000   0.0000000   0.0000000   0.0000000   0.0000000   0.0000000   0.0000000   0.0000000   0.0000000   0.0000000
 NMagM=    0.0000000   0.0000000   0.0000000   0.0000000   0.0000000   2.7928460   2.7928460   2.7928460   2.7928460   2.7928460
 AtZNuc=   6.0000000   6.0000000   6.0000000   6.0000000   6.0000000   1.0000000   1.0000000   1.0000000   1.0000000   1.0000000

  Atom        51          52          53          54          55          56          57          58          59          60
 IAtWgt=           1           1           1           1           1           1           1           1           1           1
 AtmWgt=   1.0078250   1.0078250   1.0078250   1.0078250   1.0078250   1.0078250   1.0078250   1.0078250   1.0078250   1.0078250
 NucSpn=           1           1           1           1           1           1           1           1           1           1
 AtZEff=  -0.0000000  -0.0000000  -0.0000000  -0.0000000  -0.0000000  -0.0000000  -0.0000000  -0.0000000  -0.0000000  -0.0000000
 NQMom=    0.0000000   0.0000000   0.0000000   0.0000000   0.0000000   0.0000000   0.0000000   0.0000000   0.0000000   0.0000000
 NMagM=    2.7928460   2.7928460   2.7928460   2.7928460   2.7928460   2.7928460   2.7928460   2.7928460   2.7928460   2.7928460
 AtZNuc=   1.0000000   1.0000000   1.0000000   1.0000000   1.0000000   1.0000000   1.0000000   1.0000000   1.0000000   1.0000000

  Atom        61          62          63          64          65          66          67          68          69          70
 IAtWgt=           1           1           1           1           1           1           1           1           1           1
 AtmWgt=   1.0078250   1.0078250   1.0078250   1.0078250   1.0078250   1.0078250   1.0078250   1.0078250   1.0078250   1.0078250
 NucSpn=           1           1           1           1           1           1           1           1           1           1
 AtZEff=  -0.0000000  -0.0000000  -0.0000000  -0.0000000  -0.0000000  -0.0000000  -0.0000000  -0.0000000  -0.0000000  -0.0000000
 NQMom=    0.0000000   0.0000000   0.0000000   0.0000000   0.0000000   0.0000000   0.0000000   0.0000000   0.0000000   0.0000000
 NMagM=    2.7928460   2.7928460   2.7928460   2.7928460   2.7928460   2.7928460   2.7928460   2.7928460   2.7928460   2.7928460
 AtZNuc=   1.0000000   1.0000000   1.0000000   1.0000000   1.0000000   1.0000000   1.0000000   1.0000000   1.0000000   1.0000000

  Atom        71          72          73          74          75          76
 IAtWgt=           1           1           1           1           1           1
 AtmWgt=   1.0078250   1.0078250   1.0078250   1.0078250   1.0078250   1.0078250
 NucSpn=           1           1           1           1           1           1
 AtZEff=  -0.0000000  -0.0000000  -0.0000000  -0.0000000  -0.0000000  -0.0000000
 NQMom=    0.0000000   0.0000000   0.0000000   0.0000000   0.0000000   0.0000000
 NMagM=    2.7928460   2.7928460   2.7928460   2.7928460   2.7928460   2.7928460
 AtZNuc=   1.0000000   1.0000000   1.0000000   1.0000000   1.0000000   1.0000000
 Leave Link  101 at Fri Nov  7 02:34:02 2025, MaxMem= 30870077440 cpu:               4.8 elap:               0.1
 (Enter /public/software/gauss/g16/l202.exe)
 Stoichiometry    C38H31BF2N4(1-,2)
 Framework group  C1[X(C38H31BF2N4)]
 Deg. of freedom   222
 Full point group                 C1      NOp   1
 Largest Abelian subgroup         C1      NOp   1
 Largest concise Abelian subgroup C1      NOp   1
                         Standard orientation:                         
 ---------------------------------------------------------------------
 Center     Atomic      Atomic             Coordinates (Angstroms)
 Number     Number       Type             X           Y           Z
 ---------------------------------------------------------------------
      1          6           0       -8.873755   -0.340013    0.085376
      2          6           0       -7.369445   -0.219654    0.054417
      3          6           0       -6.636554   -0.073116    1.237843
      4          6           0       -5.239865    0.014299    1.235734
      5          6           0       -4.498632    0.172025    2.542831
      6          6           0       -4.545321   -0.044820    0.007378
      7          6           0       -3.049912    0.042083   -0.014319
      8          6           0       -2.272252   -1.139994    0.031223
      9          6           0       -2.651942   -2.525152    0.110135
     10          6           0       -4.024245   -3.129890    0.180313
     11          6           0       -1.471940   -3.256655    0.106231
     12          6           0       -0.376638   -2.366770    0.024272
     13          6           0        1.019710   -2.653121   -0.035102
     14          6           0        1.569463   -3.900777    0.085136
     15          6           0        2.977826   -4.225491    0.015502
     16          6           0        4.001672   -3.262889   -0.182239
     17          6           0        5.334156   -3.629965   -0.237031
     18          6           0        5.705526   -4.984574   -0.096118
     19          6           0        7.076841   -5.362584   -0.151382
     20          7           0        8.202760   -5.673107   -0.196295
     21          6           0        4.705732   -5.958529    0.101034
     22          6           0        3.375449   -5.579255    0.154836
     23          7           0       -0.887431   -1.078270   -0.018300
     24          5           0       -0.052628    0.213505    0.023279
     25          9           0        0.859112    0.231809   -1.056785
     26          9           0        0.702352    0.257039    1.221489
     27          7           0       -1.014553    1.412931   -0.057665
     28          6           0       -0.677115    2.757831   -0.152979
     29          6           0        0.602335    3.391981   -0.132715
     30          6           0        1.856499    2.894698    0.098693
     31          6           0        3.079930    3.671517    0.080114
     32          6           0        3.147270    5.048636   -0.255942
     33          6           0        4.348814    5.734389   -0.252441
     34          6           0        5.546957    5.069536    0.085853
     35          6           0        6.783768    5.774386    0.086327
     36          7           0        7.799209    6.353194    0.086877
     37          6           0        5.506424    3.700526    0.419021
     38          6           0        4.297662    3.025661    0.412773
     39          6           0       -1.880327    3.490840   -0.257379
     40          6           0       -2.960616    2.622001   -0.208829
     41          6           0       -4.397634    3.051837   -0.283749
     42          6           0       -2.406688    1.303585   -0.086933
     43          6           0       -5.266698   -0.189059   -1.196327
     44          6           0       -4.557201   -0.250039   -2.528827
     45          6           0       -6.664378   -0.272154   -1.151898
     46          1           0       -9.313013   -0.107957   -0.889046
     47          1           0       -9.183911   -1.358597    0.350695
     48          1           0       -9.313457    0.331981    0.829345
     49          1           0       -7.164509   -0.024782    2.187826
     50          1           0       -3.926965    1.106395    2.571397
     51          1           0       -5.193845    0.176007    3.386528
     52          1           0       -3.780844   -0.640909    2.698715
     53          1           0       -4.629153   -2.899043   -0.702645
     54          1           0       -3.940924   -4.218523    0.251847
     55          1           0       -4.589820   -2.780547    1.050308
     56          1           0       -1.399793   -4.336030    0.141397
     57          1           0        1.671505   -1.802348   -0.202742
     58          1           0        0.909027   -4.749396    0.251886
     59          1           0        3.746726   -2.214450   -0.292176
     60          1           0        6.101693   -2.877920   -0.387872
     61          1           0        4.984501   -7.001460    0.209887
     62          1           0        2.612235   -6.336895    0.307285
     63          1           0        0.511108    4.460957   -0.315774
     64          1           0        1.979617    1.847426    0.342377
     65          1           0        2.246067    5.586535   -0.529489
     66          1           0        4.376840    6.787299   -0.513395
     67          1           0        6.423690    3.182058    0.678269
     68          1           0        4.277085    1.970816    0.670758
     69          1           0       -1.932117    4.569067   -0.346931
     70          1           0       -4.920578    2.618773   -1.142574
     71          1           0       -4.967425    2.770279    0.607693
     72          1           0       -4.446397    4.140803   -0.379544
     73          1           0       -5.275046   -0.344911   -3.347927
     74          1           0       -3.956739    0.648976   -2.706887
     75          1           0       -3.870829   -1.102561   -2.580785
     76          1           0       -7.213929   -0.379422   -2.084451
 ---------------------------------------------------------------------
 Rotational constants (GHZ):           0.0729543           0.0418939           0.0276417
 Leave Link  202 at Fri Nov  7 02:34:02 2025, MaxMem= 30870077440 cpu:               0.2 elap:               0.0
 (Enter /public/software/gauss/g16/l301.exe)
 Standard basis: def2TZVPP (5D, 7F)
 Ernie: Thresh=  0.10000D-02 Tol=  0.10000D-05 Strict=F.
 There are  2085 symmetry adapted cartesian basis functions of A   symmetry.
 There are  1829 symmetry adapted basis functions of A   symmetry.
  1829 basis functions,  2822 primitive gaussians,  2085 cartesian basis functions
   156 alpha electrons      155 beta electrons
       nuclear repulsion energy      4904.9912592189 Hartrees.
 IExCor= 4336 DFT=T Ex+Corr=M062X ExCW=0 ScaHFX=  0.540000
 ScaDFX=  1.000000  1.000000  1.000000  1.000000 ScalE2=  1.000000  1.000000
 IRadAn=      5 IRanWt=     -1 IRanGd=            0 ICorTp=0 IEmpDi=131
 NAtoms=   76 NActive=   76 NUniq=   76 SFac= 1.00D+00 NAtFMM=   60 NAOKFM=T Big=T
 Integral buffers will be    131072 words long.
 Raffenetti 2 integral format.
 Two-electron integral symmetry is turned on.
 R6Disp:  Grimme-D3 Dispersion energy=       -0.0070245438 Hartrees.
 Nuclear repulsion after empirical dispersion term =     4904.9842346750 Hartrees.
 ------------------------------------------------------------------------------
 Polarizable Continuum Model (PCM)
 =================================
 Model                : PCM.
 Atomic radii         : UFF (Universal Force Field).
 Polarization charges : Total charges.
 Charge compensation  : None.
 Solution method      : On-the-fly selection.
 Cavity type          : Scaled VdW (van der Waals Surface) (Alpha=1.100).
 Cavity algorithm     : GePol (No added spheres)
                        Default sphere list used, NSphG=   76.
                        Lebedev-Laikov grids with approx.  5.0 points / Ang**2.
                        Smoothing algorithm: York/Karplus (Gamma=1.0000).
                        Polarization charges: spherical gaussians, with
                                              point-specific exponents (IZeta= 3).
                        Self-potential: point-specific (ISelfS= 7).
                        Self-field    : sphere-specific E.n sum rule (ISelfD= 2).
 Solvent              : Water, Eps=  78.355300 Eps(inf)=   1.777849
 ------------------------------------------------------------------------------
 GePol: Number of generator spheres                  =      76
 GePol: Total number of spheres                      =      76
 GePol: Number of exposed spheres                    =      76 (100.00%)
 GePol: Number of points                             =    5449
 GePol: Average weight of points                     =       0.13
 GePol: Minimum weight of points                     =   0.25D-11
 GePol: Maximum weight of points                     =    0.20577
 GePol: Number of points with low weight             =     353
 GePol: Fraction of low-weight points (<1% of avg)   =       6.48%
 GePol: Cavity surface area                          =    698.476 Ang**2
 GePol: Cavity volume                                =    816.624 Ang**3
 Leave Link  301 at Fri Nov  7 02:34:02 2025, MaxMem= 30870077440 cpu:               3.9 elap:               0.1
 (Enter /public/software/gauss/g16/l302.exe)
 NPDir=0 NMtPBC=     1 NCelOv=     1 NCel=       1 NClECP=     1 NCelD=      1
         NCelK=      1 NCelE2=     1 NClLst=     1 CellRange=     0.0.
 One-electron integrals computed using PRISM.
 One-electron integral symmetry used in STVInt
   1 Symmetry operations used in ECPInt.
 ECPInt:  NShTT=  232221 NPrTT=  660609 LenC2=  152717 LenP2D=  293285.
 LDataN:  DoStor=T MaxTD1= 6 Len=  172
 NBasis=  1829 RedAO= T EigKep=  2.30D-06  NBF=  1829
 NBsUse=  1829 1.00D-06 EigRej= -1.00D+00 NBFU=  1829
 Precomputing XC quadrature grid using
 IXCGrd= 4 IRadAn=           5 IRanWt=          -1 IRanGd=           0 AccXCQ= 0.00D+00.
 Generated NRdTot=       0 NPtTot=           0 NUsed=           0 NTot=          32
 NSgBfM=  1857  1857  1857  1857  1857 MxSgAt=    76 MxSgA2=    76.
 Leave Link  302 at Fri Nov  7 02:34:11 2025, MaxMem= 30870077440 cpu:             577.4 elap:               9.1
 (Enter /public/software/gauss/g16/l303.exe)
 DipDrv:  MaxL=1.
 Leave Link  303 at Fri Nov  7 02:34:12 2025, MaxMem= 30870077440 cpu:              28.3 elap:               0.5
 (Enter /public/software/gauss/g16/l401.exe)
 ExpMin= 6.06D-02 ExpMax= 3.55D+04 ExpMxC= 1.21D+03 IAcc=3 IRadAn=         5 AccDes= 0.00D+00
 Harris functional with IExCor= 1009 and IRadAn=       5 diagonalized for initial guess.
 HarFok:  IExCor= 1009 AccDes= 0.00D+00 IRadAn=         5 IDoV= 1 UseB2=F ITyADJ=14
 ICtDFT=  3500011 ScaDFX=  1.000000  1.000000  1.000000  1.000000
 FoFCou: FMM=F IPFlag=           0 FMFlag=      100000 FMFlg1=        2001
         NFxFlg=           0 DoJE=T BraDBF=F KetDBF=T FulRan=T
         wScrn=  0.000000 ICntrl=       500 IOpCl=  0 I1Cent=   200000004 NGrid=           0
         NMat0=    1 NMatS0=      1 NMatT0=    0 NMatD0=    1 NMtDS0=    0 NMtDT0=    0
 Petite list used in FoFCou.
 Harris En= -1909.66562722717    
 JPrj=0 DoOrth=F DoCkMO=F.
 Initial guess <Sx>= 0.0000 <Sy>= 0.0000 <Sz>= 0.5000 <S**2>= 0.7500 S= 0.5000
 Leave Link  401 at Fri Nov  7 02:34:23 2025, MaxMem= 30870077440 cpu:             715.2 elap:              11.2
 (Enter /public/software/gauss/g16/l502.exe)
 Integral symmetry usage will be decided dynamically.
 UHF open shell SCF:
 Using DIIS extrapolation, IDIIS=  1040.
 NGot= 30870077440 LenX= 30861232002 LenY= 30856882692
 Requested convergence on RMS density matrix=1.00D-08 within 128 cycles.
 Requested convergence on MAX density matrix=1.00D-06.
 Requested convergence on             energy=1.00D-06.
 No special actions if energy rises.
 Fock matrices will be formed incrementally for  20 cycles.

 Cycle   1  Pass 1  IDiag  1:
 FoFJK:  IHMeth= 1 ICntrl=       0 DoSepK=F KAlg= 0 I1Cent=           0 FoldK=F
 IRaf= 620000000 NMat=       1 IRICut=       1 DoRegI=T DoRafI=F ISym2E= 0 IDoP0=0 IntGTp=1.
 FoFCou: FMM=T IPFlag=           0 FMFlag=      100000 FMFlg1=        2001
         NFxFlg=           0 DoJE=F BraDBF=F KetDBF=F FulRan=T
         wScrn=  0.000000 ICntrl=         0 IOpCl=  1 I1Cent=           0 NGrid=           0
         NMat0=    1 NMatS0=      1 NMatT0=    0 NMatD0=    1 NMtDS0=    0 NMtDT0=    0
 Symmetry not used in FoFCou.
 FMM levels:  10  Number of levels for PrismC:   9
 Inv3:  Mode=1 IEnd=    89074803.
 Iteration    1 A*A^-1 deviation from unit magnitude is 6.22D-15 for   5447.
 Iteration    1 A*A^-1 deviation from orthogonality  is 5.24D-15 for   5402   1062.
 Iteration    1 A^-1*A deviation from unit magnitude is 6.44D-15 for   5447.
 Iteration    1 A^-1*A deviation from orthogonality  is 3.59D-15 for   4980   4504.
 E= -1909.49280115562    
 DIIS: error= 2.27D-02 at cycle   1 NSaved=   1.
 NSaved= 1 IEnMin= 1 EnMin= -1909.49280115562     IErMin= 1 ErrMin= 2.27D-02
 ErrMax= 2.27D-02  0.00D+00 EMaxC= 1.00D-01 BMatC= 5.16D+00 BMatP= 5.16D+00
 IDIUse=3 WtCom= 7.73D-01 WtEn= 2.27D-01
 Coeff-Com:  0.100D+01
 Coeff-En:   0.100D+01
 Coeff:      0.100D+01
 Gap=     0.113 Goal=   None    Shift=    0.000
 Gap=     0.129 Goal=   None    Shift=    0.000
 GapD=    0.113 DampG=1.000 DampE=0.500 DampFc=0.5000 IDamp=-1.
 Damping current iteration by 5.00D-01
 RMSDP=1.50D-03 MaxDP=2.31D-01              OVMax= 1.60D-01

 Cycle   2  Pass 1  IDiag  1:
 RMSU=  7.43D-04    CP:  9.70D-01
 E= -1910.04914060254     Delta-E=       -0.556339446922 Rises=F Damp=T
 DIIS: error= 4.56D-03 at cycle   2 NSaved=   2.
 NSaved= 2 IEnMin= 2 EnMin= -1910.04914060254     IErMin= 2 ErrMin= 4.56D-03
 ErrMax= 4.56D-03  0.00D+00 EMaxC= 1.00D-01 BMatC= 4.75D-01 BMatP= 5.16D+00
 IDIUse=3 WtCom= 9.54D-01 WtEn= 4.56D-02
 Coeff-Com: -0.190D+00 0.119D+01
 Coeff-En:   0.000D+00 0.100D+01
 Coeff:     -0.182D+00 0.118D+01
 Gap=     0.111 Goal=   None    Shift=    0.000
 Gap=     0.134 Goal=   None    Shift=    0.000
 RMSDP=7.06D-04 MaxDP=9.60D-02 DE=-5.56D-01 OVMax= 9.50D-02

 Cycle   3  Pass 1  IDiag  1:
 RMSU=  6.53D-04    CP:  9.44D-01  1.34D+00
 E= -1910.51126209577     Delta-E=       -0.462121493228 Rises=F Damp=F
 DIIS: error= 4.66D-03 at cycle   3 NSaved=   3.
 NSaved= 3 IEnMin= 3 EnMin= -1910.51126209577     IErMin= 2 ErrMin= 4.56D-03
 ErrMax= 4.66D-03  0.00D+00 EMaxC= 1.00D-01 BMatC= 1.97D-01 BMatP= 4.75D-01
 IDIUse=3 WtCom= 9.53D-01 WtEn= 4.66D-02
 Coeff-Com: -0.138D+00 0.517D+00 0.620D+00
 Coeff-En:   0.000D+00 0.000D+00 0.100D+01
 Coeff:     -0.131D+00 0.493D+00 0.638D+00
 Gap=     0.115 Goal=   None    Shift=    0.000
 Gap=     0.134 Goal=   None    Shift=    0.000
 RMSDP=1.77D-04 MaxDP=3.83D-02 DE=-4.62D-01 OVMax= 4.94D-02

 Cycle   4  Pass 1  IDiag  1:
 RMSU=  1.69D-04    CP:  9.45D-01  1.39D+00  9.48D-01
 E= -1910.54170477917     Delta-E=       -0.030442683406 Rises=F Damp=F
 DIIS: error= 2.56D-03 at cycle   4 NSaved=   4.
 NSaved= 4 IEnMin= 4 EnMin= -1910.54170477917     IErMin= 4 ErrMin= 2.56D-03
 ErrMax= 2.56D-03  0.00D+00 EMaxC= 1.00D-01 BMatC= 5.74D-02 BMatP= 1.97D-01
 IDIUse=3 WtCom= 9.74D-01 WtEn= 2.56D-02
 Coeff-Com: -0.465D-01 0.122D+00 0.379D+00 0.546D+00
 Coeff-En:   0.000D+00 0.000D+00 0.237D+00 0.763D+00
 Coeff:     -0.453D-01 0.119D+00 0.375D+00 0.551D+00
 Gap=     0.115 Goal=   None    Shift=    0.000
 Gap=     0.137 Goal=   None    Shift=    0.000
 RMSDP=7.49D-05 MaxDP=1.08D-02 DE=-3.04D-02 OVMax= 2.05D-02

 Cycle   5  Pass 1  IDiag  1:
 RMSU=  6.53D-05    CP:  9.44D-01  1.37D+00  9.63D-01  7.97D-01
 E= -1910.55408509549     Delta-E=       -0.012380316312 Rises=F Damp=F
 DIIS: error= 4.98D-04 at cycle   5 NSaved=   5.
 NSaved= 5 IEnMin= 5 EnMin= -1910.55408509549     IErMin= 5 ErrMin= 4.98D-04
 ErrMax= 4.98D-04  0.00D+00 EMaxC= 1.00D-01 BMatC= 2.23D-03 BMatP= 5.74D-02
 IDIUse=3 WtCom= 9.95D-01 WtEn= 4.98D-03
 Coeff-Com: -0.145D-01 0.303D-01 0.150D+00 0.267D+00 0.567D+00
 Coeff-En:   0.000D+00 0.000D+00 0.000D+00 0.000D+00 0.100D+01
 Coeff:     -0.144D-01 0.302D-01 0.149D+00 0.266D+00 0.570D+00
 Gap=     0.116 Goal=   None    Shift=    0.000
 Gap=     0.138 Goal=   None    Shift=    0.000
 RMSDP=2.31D-05 MaxDP=8.12D-03 DE=-1.24D-02 OVMax= 7.48D-03

 Cycle   6  Pass 1  IDiag  1:
 RMSU=  2.25D-05    CP:  9.44D-01  1.38D+00  9.62D-01  8.02D-01  9.55D-01
 E= -1910.55464807149     Delta-E=       -0.000562976005 Rises=F Damp=F
 DIIS: error= 2.46D-04 at cycle   6 NSaved=   6.
 NSaved= 6 IEnMin= 6 EnMin= -1910.55464807149     IErMin= 6 ErrMin= 2.46D-04
 ErrMax= 2.46D-04  0.00D+00 EMaxC= 1.00D-01 BMatC= 2.70D-04 BMatP= 2.23D-03
 IDIUse=3 WtCom= 9.98D-01 WtEn= 2.46D-03
 Coeff-Com: -0.362D-03-0.170D-02 0.178D-01 0.453D-01 0.247D+00 0.692D+00
 Coeff-En:   0.000D+00 0.000D+00 0.000D+00 0.000D+00 0.000D+00 0.100D+01
 Coeff:     -0.361D-03-0.169D-02 0.177D-01 0.452D-01 0.247D+00 0.693D+00
 Gap=     0.118 Goal=   None    Shift=    0.000
 Gap=     0.139 Goal=   None    Shift=    0.000
 RMSDP=1.42D-05 MaxDP=9.57D-03 DE=-5.63D-04 OVMax= 8.52D-03

 Cycle   7  Pass 1  IDiag  1:
 RMSU=  1.04D-05    CP:  9.45D-01  1.38D+00  9.63D-01  8.24D-01  1.06D+00
                    CP:  1.26D+00
 E= -1910.55480332486     Delta-E=       -0.000155253365 Rises=F Damp=F
 DIIS: error= 1.03D-04 at cycle   7 NSaved=   7.
 NSaved= 7 IEnMin= 7 EnMin= -1910.55480332486     IErMin= 7 ErrMin= 1.03D-04
 ErrMax= 1.03D-04  0.00D+00 EMaxC= 1.00D-01 BMatC= 6.88D-05 BMatP= 2.70D-04
 IDIUse=3 WtCom= 9.99D-01 WtEn= 1.03D-03
 Coeff-Com:  0.396D-02-0.897D-02-0.375D-01-0.633D-01-0.866D-01 0.224D+00
 Coeff-Com:  0.968D+00
 Coeff-En:   0.000D+00 0.000D+00 0.000D+00 0.000D+00 0.000D+00 0.000D+00
 Coeff-En:   0.100D+01
 Coeff:      0.396D-02-0.896D-02-0.375D-01-0.632D-01-0.865D-01 0.224D+00
 Coeff:      0.968D+00
 Gap=     0.120 Goal=   None    Shift=    0.000
 Gap=     0.141 Goal=   None    Shift=    0.000
 RMSDP=1.49D-05 MaxDP=1.08D-02 DE=-1.55D-04 OVMax= 8.54D-03

 Cycle   8  Pass 1  IDiag  1:
 RMSU=  5.07D-06    CP:  9.45D-01  1.38D+00  9.65D-01  8.41D-01  1.16D+00
                    CP:  1.63D+00  1.81D+00
 E= -1910.55489427423     Delta-E=       -0.000090949376 Rises=F Damp=F
 DIIS: error= 4.80D-05 at cycle   8 NSaved=   8.
 NSaved= 8 IEnMin= 8 EnMin= -1910.55489427423     IErMin= 8 ErrMin= 4.80D-05
 ErrMax= 4.80D-05  0.00D+00 EMaxC= 1.00D-01 BMatC= 2.28D-05 BMatP= 6.88D-05
 IDIUse=1 WtCom= 1.00D+00 WtEn= 0.00D+00
 Coeff-Com:  0.159D-02-0.282D-02-0.201D-01-0.396D-01-0.122D+00-0.161D+00
 Coeff-Com:  0.378D+00 0.966D+00
 Coeff:      0.159D-02-0.282D-02-0.201D-01-0.396D-01-0.122D+00-0.161D+00
 Coeff:      0.378D+00 0.966D+00
 Gap=     0.121 Goal=   None    Shift=    0.000
 Gap=     0.142 Goal=   None    Shift=    0.000
 RMSDP=1.04D-05 MaxDP=7.18D-03 DE=-9.09D-05 OVMax= 5.54D-03

 Cycle   9  Pass 1  IDiag  1:
 RMSU=  3.14D-06    CP:  9.45D-01  1.38D+00  9.66D-01  8.54D-01  1.22D+00
                    CP:  1.87D+00  2.38D+00  1.67D+00
 E= -1910.55492632835     Delta-E=       -0.000032054113 Rises=F Damp=F
 DIIS: error= 2.09D-05 at cycle   9 NSaved=   9.
 NSaved= 9 IEnMin= 9 EnMin= -1910.55492632835     IErMin= 9 ErrMin= 2.09D-05
 ErrMax= 2.09D-05  0.00D+00 EMaxC= 1.00D-01 BMatC= 4.07D-06 BMatP= 2.28D-05
 IDIUse=1 WtCom= 1.00D+00 WtEn= 0.00D+00
 Coeff-Com: -0.658D-03 0.171D-02 0.448D-02 0.548D-02-0.135D-01-0.106D+00
 Coeff-Com: -0.152D+00 0.295D+00 0.966D+00
 Coeff:     -0.658D-03 0.171D-02 0.448D-02 0.548D-02-0.135D-01-0.106D+00
 Coeff:     -0.152D+00 0.295D+00 0.966D+00
 Gap=     0.121 Goal=   None    Shift=    0.000
 Gap=     0.142 Goal=   None    Shift=    0.000
 RMSDP=4.70D-06 MaxDP=2.93D-03 DE=-3.21D-05 OVMax= 2.22D-03

 Cycle  10  Pass 1  IDiag  1:
 RMSU=  1.47D-06    CP:  9.45D-01  1.38D+00  9.66D-01  8.58D-01  1.24D+00
                    CP:  1.96D+00  2.66D+00  2.10D+00  1.27D+00
 E= -1910.55493141264     Delta-E=       -0.000005084290 Rises=F Damp=F
 DIIS: error= 1.14D-05 at cycle  10 NSaved=  10.
 NSaved=10 IEnMin=10 EnMin= -1910.55493141264     IErMin=10 ErrMin= 1.14D-05
 ErrMax= 1.14D-05  0.00D+00 EMaxC= 1.00D-01 BMatC= 5.84D-07 BMatP= 4.07D-06
 IDIUse=1 WtCom= 1.00D+00 WtEn= 0.00D+00
 Coeff-Com: -0.426D-03 0.943D-03 0.424D-02 0.749D-02 0.130D-01-0.766D-02
 Coeff-Com: -0.970D-01-0.381D-01 0.272D+00 0.846D+00
 Coeff:     -0.426D-03 0.943D-03 0.424D-02 0.749D-02 0.130D-01-0.766D-02
 Coeff:     -0.970D-01-0.381D-01 0.272D+00 0.846D+00
 Gap=     0.121 Goal=   None    Shift=    0.000
 Gap=     0.142 Goal=   None    Shift=    0.000
 RMSDP=9.15D-07 MaxDP=2.80D-04 DE=-5.08D-06 OVMax= 5.20D-04

 Cycle  11  Pass 1  IDiag  1:
 RMSU=  5.77D-07    CP:  9.45D-01  1.38D+00  9.66D-01  8.58D-01  1.24D+00
                    CP:  1.97D+00  2.70D+00  2.17D+00  1.38D+00  1.21D+00
 E= -1910.55493196322     Delta-E=       -0.000000550584 Rises=F Damp=F
 DIIS: error= 5.92D-06 at cycle  11 NSaved=  11.
 NSaved=11 IEnMin=11 EnMin= -1910.55493196322     IErMin=11 ErrMin= 5.92D-06
 ErrMax= 5.92D-06  0.00D+00 EMaxC= 1.00D-01 BMatC= 1.64D-07 BMatP= 5.84D-07
 IDIUse=1 WtCom= 1.00D+00 WtEn= 0.00D+00
 Coeff-Com: -0.391D-04 0.550D-04 0.764D-03 0.164D-02 0.578D-02 0.115D-01
 Coeff-Com: -0.151D-01-0.445D-01-0.506D-01 0.289D+00 0.802D+00
 Coeff:     -0.391D-04 0.550D-04 0.764D-03 0.164D-02 0.578D-02 0.115D-01
 Coeff:     -0.151D-01-0.445D-01-0.506D-01 0.289D+00 0.802D+00
 Gap=     0.121 Goal=   None    Shift=    0.000
 Gap=     0.142 Goal=   None    Shift=    0.000
 RMSDP=4.09D-07 MaxDP=1.38D-04 DE=-5.51D-07 OVMax= 3.44D-04

 Cycle  12  Pass 1  IDiag  1:
 RMSU=  2.54D-07    CP:  9.45D-01  1.38D+00  9.66D-01  8.58D-01  1.24D+00
                    CP:  1.97D+00  2.70D+00  2.18D+00  1.41D+00  1.32D+00
                    CP:  1.41D+00
 E= -1910.55493215496     Delta-E=       -0.000000191739 Rises=F Damp=F
 DIIS: error= 3.93D-06 at cycle  12 NSaved=  12.
 NSaved=12 IEnMin=12 EnMin= -1910.55493215496     IErMin=12 ErrMin= 3.93D-06
 ErrMax= 3.93D-06  0.00D+00 EMaxC= 1.00D-01 BMatC= 7.01D-08 BMatP= 1.64D-07
 IDIUse=1 WtCom= 1.00D+00 WtEn= 0.00D+00
 Coeff-Com:  0.136D-03-0.308D-03-0.119D-02-0.212D-02-0.263D-02 0.680D-02
 Coeff-Com:  0.258D-01 0.686D-02-0.116D+00-0.203D+00 0.325D+00 0.962D+00
 Coeff:      0.136D-03-0.308D-03-0.119D-02-0.212D-02-0.263D-02 0.680D-02
 Coeff:      0.258D-01 0.686D-02-0.116D+00-0.203D+00 0.325D+00 0.962D+00
 Gap=     0.121 Goal=   None    Shift=    0.000
 Gap=     0.142 Goal=   None    Shift=    0.000
 RMSDP=3.80D-07 MaxDP=2.35D-04 DE=-1.92D-07 OVMax= 3.22D-04

 Cycle  13  Pass 1  IDiag  1:
 RMSU=  1.69D-07    CP:  9.45D-01  1.38D+00  9.66D-01  8.58D-01  1.24D+00
                    CP:  1.97D+00  2.69D+00  2.17D+00  1.42D+00  1.44D+00
                    CP:  1.84D+00  1.56D+00
 E= -1910.55493227337     Delta-E=       -0.000000118410 Rises=F Damp=F
 DIIS: error= 2.53D-06 at cycle  13 NSaved=  13.
 NSaved=13 IEnMin=13 EnMin= -1910.55493227337     IErMin=13 ErrMin= 2.53D-06
 ErrMax= 2.53D-06  0.00D+00 EMaxC= 1.00D-01 BMatC= 1.83D-08 BMatP= 7.01D-08
 IDIUse=1 WtCom= 1.00D+00 WtEn= 0.00D+00
 Coeff-Com:  0.351D-04-0.699D-04-0.458D-03-0.966D-03-0.233D-02-0.215D-02
 Coeff-Com:  0.836D-02 0.186D-01-0.825D-02-0.144D+00-0.178D+00 0.146D+00
 Coeff-Com:  0.116D+01
 Coeff:      0.351D-04-0.699D-04-0.458D-03-0.966D-03-0.233D-02-0.215D-02
 Coeff:      0.836D-02 0.186D-01-0.825D-02-0.144D+00-0.178D+00 0.146D+00
 Coeff:      0.116D+01
 Gap=     0.121 Goal=   None    Shift=    0.000
 Gap=     0.142 Goal=   None    Shift=    0.000
 RMSDP=3.04D-07 MaxDP=1.92D-04 DE=-1.18D-07 OVMax= 2.51D-04

 Cycle  14  Pass 1  IDiag  1:
 RMSU=  1.04D-07    CP:  9.45D-01  1.38D+00  9.66D-01  8.58D-01  1.24D+00
                    CP:  1.96D+00  2.69D+00  2.17D+00  1.42D+00  1.50D+00
                    CP:  2.13D+00  2.10D+00  1.77D+00
 E= -1910.55493232287     Delta-E=       -0.000000049497 Rises=F Damp=F
 DIIS: error= 1.28D-06 at cycle  14 NSaved=  14.
 NSaved=14 IEnMin=14 EnMin= -1910.55493232287     IErMin=14 ErrMin= 1.28D-06
 ErrMax= 1.28D-06  0.00D+00 EMaxC= 1.00D-01 BMatC= 8.42D-09 BMatP= 1.83D-08
 IDIUse=1 WtCom= 1.00D+00 WtEn= 0.00D+00
 Coeff-Com: -0.296D-04 0.713D-04 0.171D-03 0.208D-03-0.435D-03-0.384D-02
 Coeff-Com: -0.535D-02 0.802D-02 0.376D-01-0.241D-02-0.195D+00-0.268D+00
 Coeff-Com:  0.621D+00 0.808D+00
 Coeff:     -0.296D-04 0.713D-04 0.171D-03 0.208D-03-0.435D-03-0.384D-02
 Coeff:     -0.535D-02 0.802D-02 0.376D-01-0.241D-02-0.195D+00-0.268D+00
 Coeff:      0.621D+00 0.808D+00
 Gap=     0.121 Goal=   None    Shift=    0.000
 Gap=     0.142 Goal=   None    Shift=    0.000
 RMSDP=1.52D-07 MaxDP=7.43D-05 DE=-4.95D-08 OVMax= 1.18D-04

 Cycle  15  Pass 1  IDiag  1:
 RMSU=  4.79D-08    CP:  9.45D-01  1.38D+00  9.66D-01  8.58D-01  1.24D+00
                    CP:  1.96D+00  2.69D+00  2.17D+00  1.43D+00  1.53D+00
                    CP:  2.26D+00  2.34D+00  2.27D+00  1.51D+00
 E= -1910.55493233636     Delta-E=       -0.000000013490 Rises=F Damp=F
 DIIS: error= 8.27D-07 at cycle  15 NSaved=  15.
 NSaved=15 IEnMin=15 EnMin= -1910.55493233636     IErMin=15 ErrMin= 8.27D-07
 ErrMax= 8.27D-07  0.00D+00 EMaxC= 1.00D-01 BMatC= 2.08D-09 BMatP= 8.42D-09
 IDIUse=1 WtCom= 1.00D+00 WtEn= 0.00D+00
 Coeff-Com: -0.229D-04 0.512D-04 0.210D-03 0.384D-03 0.469D-03-0.104D-02
 Coeff-Com: -0.473D-02-0.257D-02 0.183D-01 0.452D-01-0.266D-01-0.169D+00
 Coeff-Com: -0.977D-01 0.353D+00 0.884D+00
 Coeff:     -0.229D-04 0.512D-04 0.210D-03 0.384D-03 0.469D-03-0.104D-02
 Coeff:     -0.473D-02-0.257D-02 0.183D-01 0.452D-01-0.266D-01-0.169D+00
 Coeff:     -0.977D-01 0.353D+00 0.884D+00
 Gap=     0.121 Goal=   None    Shift=    0.000
 Gap=     0.142 Goal=   None    Shift=    0.000
 RMSDP=8.26D-08 MaxDP=3.85D-05 DE=-1.35D-08 OVMax= 5.97D-05

 Cycle  16  Pass 1  IDiag  1:
 RMSU=  2.78D-08    CP:  9.45D-01  1.38D+00  9.66D-01  8.58D-01  1.24D+00
                    CP:  1.96D+00  2.69D+00  2.18D+00  1.43D+00  1.54D+00
                    CP:  2.31D+00  2.45D+00  2.53D+00  1.88D+00  1.34D+00
 E= -1910.55493233890     Delta-E=       -0.000000002547 Rises=F Damp=F
 DIIS: error= 3.81D-07 at cycle  16 NSaved=  16.
 NSaved=16 IEnMin=16 EnMin= -1910.55493233890     IErMin=16 ErrMin= 3.81D-07
 ErrMax= 3.81D-07  0.00D+00 EMaxC= 1.00D-01 BMatC= 7.01D-10 BMatP= 2.08D-09
 IDIUse=1 WtCom= 1.00D+00 WtEn= 0.00D+00
 Coeff-Com: -0.523D-05 0.110D-04 0.732D-04 0.161D-03 0.346D-03 0.340D-03
 Coeff-Com: -0.115D-02-0.343D-02 0.883D-03 0.248D-01 0.296D-01-0.310D-01
 Coeff-Com: -0.192D+00-0.135D-02 0.487D+00 0.686D+00
 Coeff:     -0.523D-05 0.110D-04 0.732D-04 0.161D-03 0.346D-03 0.340D-03
 Coeff:     -0.115D-02-0.343D-02 0.883D-03 0.248D-01 0.296D-01-0.310D-01
 Coeff:     -0.192D+00-0.135D-02 0.487D+00 0.686D+00
 Gap=     0.121 Goal=   None    Shift=    0.000
 Gap=     0.142 Goal=   None    Shift=    0.000
 RMSDP=3.05D-08 MaxDP=1.10D-05 DE=-2.55D-09 OVMax= 2.20D-05

 Cycle  17  Pass 1  IDiag  1:
 RMSU=  1.24D-08    CP:  9.45D-01  1.38D+00  9.66D-01  8.58D-01  1.24D+00
                    CP:  1.96D+00  2.69D+00  2.18D+00  1.43D+00  1.55D+00
                    CP:  2.33D+00  2.49D+00  2.60D+00  2.01D+00  1.60D+00
                    CP:  1.28D+00
 E= -1910.55493233953     Delta-E=       -0.000000000628 Rises=F Damp=F
 DIIS: error= 1.57D-07 at cycle  17 NSaved=  17.
 NSaved=17 IEnMin=17 EnMin= -1910.55493233953     IErMin=17 ErrMin= 1.57D-07
 ErrMax= 1.57D-07  0.00D+00 EMaxC= 1.00D-01 BMatC= 1.13D-10 BMatP= 7.01D-10
 IDIUse=1 WtCom= 1.00D+00 WtEn= 0.00D+00
 Coeff-Com:  0.350D-05-0.790D-05-0.218D-04-0.271D-04 0.132D-04 0.324D-03
 Coeff-Com:  0.705D-03-0.744D-03-0.388D-02-0.872D-03 0.186D-01 0.295D-01
 Coeff-Com: -0.523D-01-0.913D-01-0.229D-01 0.281D+00 0.841D+00
 Coeff:      0.350D-05-0.790D-05-0.218D-04-0.271D-04 0.132D-04 0.324D-03
 Coeff:      0.705D-03-0.744D-03-0.388D-02-0.872D-03 0.186D-01 0.295D-01
 Coeff:     -0.523D-01-0.913D-01-0.229D-01 0.281D+00 0.841D+00
 Gap=     0.121 Goal=   None    Shift=    0.000
 Gap=     0.142 Goal=   None    Shift=    0.000
 RMSDP=1.37D-08 MaxDP=2.27D-06 DE=-6.28D-10 OVMax= 9.59D-06

 Cycle  18  Pass 1  IDiag  1:
 RMSU=  6.40D-09    CP:  9.45D-01  1.38D+00  9.66D-01  8.58D-01  1.24D+00
                    CP:  1.96D+00  2.69D+00  2.18D+00  1.43D+00  1.55D+00
                    CP:  2.33D+00  2.50D+00  2.62D+00  2.05D+00  1.72D+00
                    CP:  1.53D+00  1.34D+00
 E= -1910.55493233970     Delta-E=       -0.000000000170 Rises=F Damp=F
 DIIS: error= 7.49D-08 at cycle  18 NSaved=  18.
 NSaved=18 IEnMin=18 EnMin= -1910.55493233970     IErMin=18 ErrMin= 7.49D-08
 ErrMax= 7.49D-08  0.00D+00 EMaxC= 1.00D-01 BMatC= 2.45D-11 BMatP= 1.13D-10
 IDIUse=1 WtCom= 1.00D+00 WtEn= 0.00D+00
 Coeff-Com:  0.225D-05-0.500D-05-0.213D-04-0.368D-04-0.513D-04 0.643D-04
 Coeff-Com:  0.499D-03 0.275D-03-0.168D-02-0.456D-02 0.294D-02 0.171D-01
 Coeff-Com:  0.984D-02-0.371D-01-0.912D-01-0.903D-02 0.342D+00 0.771D+00
 Coeff:      0.225D-05-0.500D-05-0.213D-04-0.368D-04-0.513D-04 0.643D-04
 Coeff:      0.499D-03 0.275D-03-0.168D-02-0.456D-02 0.294D-02 0.171D-01
 Coeff:      0.984D-02-0.371D-01-0.912D-01-0.903D-02 0.342D+00 0.771D+00
 Gap=     0.121 Goal=   None    Shift=    0.000
 Gap=     0.142 Goal=   None    Shift=    0.000
 RMSDP=5.43D-09 MaxDP=9.05D-07 DE=-1.70D-10 OVMax= 3.99D-06

 Error on total polarization charges =  0.02789
 SCF Done:  E(UM062X) =  -1910.55493234     A.U. after   18 cycles
            NFock= 18  Conv=0.54D-08     -V/T= 2.0056
 <Sx>= 0.0000 <Sy>= 0.0000 <Sz>= 0.5000 <S**2>= 0.8087 S= 0.5289
 <L.S>= 0.000000000000E+00
 KE= 1.899971323214D+03 PE=-1.428583262131D+04 EE= 5.570322131084D+03
 Annihilation of the first spin contaminant:
 S**2 before annihilation     0.8087,   after     0.7526
 Leave Link  502 at Fri Nov  7 03:05:24 2025, MaxMem= 30870077440 cpu:          117548.4 elap:            1860.3
 (Enter /public/software/gauss/g16/l601.exe)
 Copying SCF densities to generalized density rwf, IOpCl= 1 IROHF=0.

 **********************************************************************

            Population analysis using the SCF density.

 **********************************************************************

 Orbital symmetries:
 Alpha Orbitals:
       Occupied  (A) (A) (A) (A) (A) (A) (A) (A) (A) (A) (A) (A)
                 (A) (A) (A) (A) (A) (A) (A) (A) (A) (A) (A) (A)
                 (A) (A) (A) (A) (A) (A) (A) (A) (A) (A) (A) (A)
                 (A) (A) (A) (A) (A) (A) (A) (A) (A) (A) (A) (A)
                 (A) (A) (A) (A) (A) (A) (A) (A) (A) (A) (A) (A)
                 (A) (A) (A) (A) (A) (A) (A) (A) (A) (A) (A) (A)
                 (A) (A) (A) (A) (A) (A) (A) (A) (A) (A) (A) (A)
                 (A) (A) (A) (A) (A) (A) (A) (A) (A) (A) (A) (A)
                 (A) (A) (A) (A) (A) (A) (A) (A) (A) (A) (A) (A)
                 (A) (A) (A) (A) (A) (A) (A) (A) (A) (A) (A) (A)
                 (A) (A) (A) (A) (A) (A) (A) (A) (A) (A) (A) (A)
                 (A) (A) (A) (A) (A) (A) (A) (A) (A) (A) (A) (A)
                 (A) (A) (A) (A) (A) (A) (A) (A) (A) (A) (A) (A)
       Virtual   (A) (A) (A) (A) (A) (A) (A) (A) (A) (A) (A) (A)
                 (A) (A) (A) (A) (A) (A) (A) (A) (A) (A) (A) (A)
                 (A) (A) (A) (A) (A) (A) (A) (A) (A) (A) (A) (A)
                 (A) (A) (A) (A) (A) (A) (A) (A) (A) (A) (A) (A)
                 (A) (A) (A) (A) (A) (A) (A) (A) (A) (A) (A) (A)
                 (A) (A) (A) (A) (A) (A) (A) (A) (A) (A) (A) (A)
                 (A) (A) (A) (A) (A) (A) (A) (A) (A) (A) (A) (A)
                 (A) (A) (A) (A) (A) (A) (A) (A) (A) (A) (A) (A)
                 (A) (A) (A) (A) (A) (A) (A) (A) (A) (A) (A) (A)
                 (A) (A) (A) (A) (A) (A) (A) (A) (A) (A) (A) (A)
                 (A) (A) (A) (A) (A) (A) (A) (A) (A) (A) (A) (A)
                 (A) (A) (A) (A) (A) (A) (A) (A) (A) (A) (A) (A)
                 (A) (A) (A) (A) (A) (A) (A) (A) (A) (A) (A) (A)
                 (A) (A) (A) (A) (A) (A) (A) (A) (A) (A) (A) (A)
                 (A) (A) (A) (A) (A) (A) (A) (A) (A) (A) (A) (A)
                 (A) (A) (A) (A) (A) (A) (A) (A) (A) (A) (A) (A)
                 (A) (A) (A) (A) (A) (A) (A) (A) (A) (A) (A) (A)
                 (A) (A) (A) (A) (A) (A) (A) (A) (A) (A) (A) (A)
                 (A) (A) (A) (A) (A) (A) (A) (A) (A) (A) (A) (A)
                 (A) (A) (A) (A) (A) (A) (A) (A) (A) (A) (A) (A)
                 (A) (A) (A) (A) (A) (A) (A) (A) (A) (A) (A) (A)
                 (A) (A) (A) (A) (A) (A) (A) (A) (A) (A) (A) (A)
                 (A) (A) (A) (A) (A) (A) (A) (A) (A) (A) (A) (A)
                 (A) (A) (A) (A) (A) (A) (A) (A) (A) (A) (A) (A)
                 (A) (A) (A) (A) (A) (A) (A) (A) (A) (A) (A) (A)
                 (A) (A) (A) (A) (A) (A) (A) (A) (A) (A) (A) (A)
                 (A) (A) (A) (A) (A) (A) (A) (A) (A) (A) (A) (A)
                 (A) (A) (A) (A) (A) (A) (A) (A) (A) (A) (A) (A)
                 (A) (A) (A) (A) (A) (A) (A) (A) (A) (A) (A) (A)
                 (A) (A) (A) (A) (A) (A) (A) (A) (A) (A) (A) (A)
                 (A) (A) (A) (A) (A) (A) (A) (A) (A) (A) (A) (A)
                 (A) (A) (A) (A) (A) (A) (A) (A) (A) (A) (A) (A)
                 (A) (A) (A) (A) (A) (A) (A) (A) (A) (A) (A) (A)
                 (A) (A) (A) (A) (A) (A) (A) (A) (A) (A) (A) (A)
                 (A) (A) (A) (A) (A) (A) (A) (A) (A) (A) (A) (A)
                 (A) (A) (A) (A) (A) (A) (A) (A) (A) (A) (A) (A)
                 (A) (A) (A) (A) (A) (A) (A) (A) (A) (A) (A) (A)
                 (A) (A) (A) (A) (A) (A) (A) (A) (A) (A) (A) (A)
                 (A) (A) (A) (A) (A) (A) (A) (A) (A) (A) (A) (A)
                 (A) (A) (A) (A) (A) (A) (A) (A) (A) (A) (A) (A)
                 (A) (A) (A) (A) (A) (A) (A) (A) (A) (A) (A) (A)
                 (A) (A) (A) (A) (A) (A) (A) (A) (A) (A) (A) (A)
                 (A) (A) (A) (A) (A) (A) (A) (A) (A) (A) (A) (A)
                 (A) (A) (A) (A) (A) (A) (A) (A) (A) (A) (A) (A)
                 (A) (A) (A) (A) (A) (A) (A) (A) (A) (A) (A) (A)
                 (A) (A) (A) (A) (A) (A) (A) (A) (A) (A) (A) (A)
                 (A) (A) (A) (A) (A) (A) (A) (A) (A) (A) (A) (A)
                 (A) (A) (A) (A) (A) (A) (A) (A) (A) (A) (A) (A)
                 (A) (A) (A) (A) (A) (A) (A) (A) (A) (A) (A) (A)
                 (A) (A) (A) (A) (A) (A) (A) (A) (A) (A) (A) (A)
                 (A) (A) (A) (A) (A) (A) (A) (A) (A) (A) (A) (A)
                 (A) (A) (A) (A) (A) (A) (A) (A) (A) (A) (A) (A)
                 (A) (A) (A) (A) (A) (A) (A) (A) (A) (A) (A) (A)
                 (A) (A) (A) (A) (A) (A) (A) (A) (A) (A) (A) (A)
                 (A) (A) (A) (A) (A) (A) (A) (A) (A) (A) (A) (A)
                 (A) (A) (A) (A) (A) (A) (A) (A) (A) (A) (A) (A)
                 (A) (A) (A) (A) (A) (A) (A) (A) (A) (A) (A) (A)
                 (A) (A) (A) (A) (A) (A) (A) (A) (A) (A) (A) (A)
                 (A) (A) (A) (A) (A) (A) (A) (A) (A) (A) (A) (A)
                 (A) (A) (A) (A) (A) (A) (A) (A) (A) (A) (A) (A)
                 (A) (A) (A) (A) (A) (A) (A) (A) (A) (A) (A) (A)
                 (A) (A) (A) (A) (A) (A) (A) (A) (A) (A) (A) (A)
                 (A) (A) (A) (A) (A) (A) (A) (A) (A) (A) (A) (A)
                 (A) (A) (A) (A) (A) (A) (A) (A) (A) (A) (A) (A)
                 (A) (A) (A) (A) (A) (A) (A) (A) (A) (A) (A) (A)
                 (A) (A) (A) (A) (A) (A) (A) (A) (A) (A) (A) (A)
                 (A) (A) (A) (A) (A) (A) (A) (A) (A) (A) (A) (A)
                 (A) (A) (A) (A) (A) (A) (A) (A) (A) (A) (A) (A)
                 (A) (A) (A) (A) (A) (A) (A) (A) (A) (A) (A) (A)
                 (A) (A) (A) (A) (A) (A) (A) (A) (A) (A) (A) (A)
                 (A) (A) (A) (A) (A) (A) (A) (A) (A) (A) (A) (A)
                 (A) (A) (A) (A) (A) (A) (A) (A) (A) (A) (A) (A)
                 (A) (A) (A) (A) (A) (A) (A) (A) (A) (A) (A) (A)
                 (A) (A) (A) (A) (A) (A) (A) (A) (A) (A) (A) (A)
                 (A) (A) (A) (A) (A) (A) (A) (A) (A) (A) (A) (A)
                 (A) (A) (A) (A) (A) (A) (A) (A) (A) (A) (A) (A)
                 (A) (A) (A) (A) (A) (A) (A) (A) (A) (A) (A) (A)
                 (A) (A) (A) (A) (A) (A) (A) (A) (A) (A) (A) (A)
                 (A) (A) (A) (A) (A) (A) (A) (A) (A) (A) (A) (A)
                 (A) (A) (A) (A) (A) (A) (A) (A) (A) (A) (A) (A)
                 (A) (A) (A) (A) (A) (A) (A) (A) (A) (A) (A) (A)
                 (A) (A) (A) (A) (A) (A) (A) (A) (A) (A) (A) (A)
                 (A) (A) (A) (A) (A) (A) (A) (A) (A) (A) (A) (A)
                 (A) (A) (A) (A) (A) (A) (A) (A) (A) (A) (A) (A)
                 (A) (A) (A) (A) (A) (A) (A) (A) (A) (A) (A) (A)
                 (A) (A) (A) (A) (A) (A) (A) (A) (A) (A) (A) (A)
                 (A) (A) (A) (A) (A) (A) (A) (A) (A) (A) (A) (A)
                 (A) (A) (A) (A) (A) (A) (A) (A) (A) (A) (A) (A)
                 (A) (A) (A) (A) (A) (A) (A) (A) (A) (A) (A) (A)
                 (A) (A) (A) (A) (A) (A) (A) (A) (A) (A) (A) (A)
                 (A) (A) (A) (A) (A) (A) (A) (A) (A) (A) (A) (A)
                 (A) (A) (A) (A) (A) (A) (A) (A) (A) (A) (A) (A)
                 (A) (A) (A) (A) (A) (A) (A) (A) (A) (A) (A) (A)
                 (A) (A) (A) (A) (A) (A) (A) (A) (A) (A) (A) (A)
                 (A) (A) (A) (A) (A) (A) (A) (A) (A) (A) (A) (A)
                 (A) (A) (A) (A) (A) (A) (A) (A) (A) (A) (A) (A)
                 (A) (A) (A) (A) (A) (A) (A) (A) (A) (A) (A) (A)
                 (A) (A) (A) (A) (A) (A) (A) (A) (A) (A) (A) (A)
                 (A) (A) (A) (A) (A) (A) (A) (A) (A) (A) (A) (A)
                 (A) (A) (A) (A) (A) (A) (A) (A) (A) (A) (A) (A)
                 (A) (A) (A) (A) (A) (A) (A) (A) (A) (A) (A) (A)
                 (A) (A) (A) (A) (A) (A) (A) (A) (A) (A) (A) (A)
                 (A) (A) (A) (A) (A) (A) (A) (A) (A) (A) (A) (A)
                 (A) (A) (A) (A) (A) (A) (A) (A) (A) (A) (A) (A)
                 (A) (A) (A) (A) (A) (A) (A) (A) (A) (A) (A) (A)
                 (A) (A) (A) (A) (A) (A) (A) (A) (A) (A) (A) (A)
                 (A) (A) (A) (A) (A) (A) (A) (A) (A) (A) (A) (A)
                 (A) (A) (A) (A) (A) (A) (A) (A) (A) (A) (A) (A)
                 (A) (A) (A) (A) (A) (A) (A) (A) (A) (A) (A) (A)
                 (A) (A) (A) (A) (A) (A) (A) (A) (A) (A) (A) (A)
                 (A) (A) (A) (A) (A) (A) (A) (A) (A) (A) (A) (A)
                 (A) (A) (A) (A) (A) (A) (A) (A) (A) (A) (A) (A)
                 (A) (A) (A) (A) (A) (A) (A) (A) (A) (A) (A) (A)
                 (A) (A) (A) (A) (A) (A) (A) (A) (A) (A) (A) (A)
                 (A) (A) (A) (A) (A) (A) (A) (A) (A) (A) (A) (A)
                 (A) (A) (A) (A) (A) (A) (A) (A) (A) (A) (A) (A)
                 (A) (A) (A) (A) (A) (A) (A) (A) (A) (A) (A) (A)
                 (A) (A) (A) (A) (A) (A) (A) (A) (A) (A) (A) (A)
                 (A) (A) (A) (A) (A) (A) (A) (A) (A) (A) (A) (A)
                 (A) (A) (A) (A) (A) (A) (A) (A) (A) (A) (A) (A)
                 (A) (A) (A) (A) (A) (A) (A) (A) (A) (A) (A) (A)
                 (A) (A) (A) (A) (A) (A) (A) (A) (A) (A) (A) (A)
                 (A) (A) (A) (A) (A) (A) (A) (A) (A) (A) (A) (A)
                 (A) (A) (A) (A) (A) (A) (A) (A) (A) (A) (A) (A)
                 (A) (A) (A) (A) (A) (A) (A) (A) (A) (A) (A) (A)
                 (A) (A) (A) (A) (A) (A) (A) (A) (A) (A) (A) (A)
                 (A) (A) (A) (A) (A) (A) (A) (A) (A) (A) (A) (A)
                 (A) (A) (A) (A) (A) (A) (A) (A) (A) (A) (A) (A)
                 (A) (A) (A) (A) (A) (A) (A) (A) (A) (A) (A) (A)
                 (A) (A) (A) (A) (A) (A) (A) (A) (A) (A) (A) (A)
                 (A) (A) (A) (A) (A) (A) (A) (A) (A) (A) (A) (A)
                 (A) (A) (A) (A) (A) (A) (A) (A) (A) (A) (A) (A)
                 (A) (A) (A) (A) (A) (A) (A) (A) (A) (A) (A) (A)
                 (A) (A) (A) (A) (A) (A) (A) (A) (A) (A) (A) (A)
                 (A) (A) (A) (A) (A) (A) (A) (A) (A) (A) (A) (A)
                 (A) (A) (A) (A) (A) (A) (A) (A) (A) (A) (A) (A)
                 (A) (A) (A) (A) (A) (A) (A) (A) (A) (A) (A) (A)
                 (A) (A) (A) (A) (A) (A) (A) (A) (A) (A) (A) (A)
                 (A) (A) (A) (A) (A) (A) (A) (A) (A) (A) (A) (A)
                 (A) (A) (A) (A) (A)
 Beta  Orbitals:
       Occupied  (A) (A) (A) (A) (A) (A) (A) (A) (A) (A) (A) (A)
                 (A) (A) (A) (A) (A) (A) (A) (A) (A) (A) (A) (A)
                 (A) (A) (A) (A) (A) (A) (A) (A) (A) (A) (A) (A)
                 (A) (A) (A) (A) (A) (A) (A) (A) (A) (A) (A) (A)
                 (A) (A) (A) (A) (A) (A) (A) (A) (A) (A) (A) (A)
                 (A) (A) (A) (A) (A) (A) (A) (A) (A) (A) (A) (A)
                 (A) (A) (A) (A) (A) (A) (A) (A) (A) (A) (A) (A)
                 (A) (A) (A) (A) (A) (A) (A) (A) (A) (A) (A) (A)
                 (A) (A) (A) (A) (A) (A) (A) (A) (A) (A) (A) (A)
                 (A) (A) (A) (A) (A) (A) (A) (A) (A) (A) (A) (A)
                 (A) (A) (A) (A) (A) (A) (A) (A) (A) (A) (A) (A)
                 (A) (A) (A) (A) (A) (A) (A) (A) (A) (A) (A) (A)
                 (A) (A) (A) (A) (A) (A) (A) (A) (A) (A) (A)
       Virtual   (A) (A) (A) (A) (A) (A) (A) (A) (A) (A) (A) (A)
                 (A) (A) (A) (A) (A) (A) (A) (A) (A) (A) (A) (A)
                 (A) (A) (A) (A) (A) (A) (A) (A) (A) (A) (A) (A)
                 (A) (A) (A) (A) (A) (A) (A) (A) (A) (A) (A) (A)
                 (A) (A) (A) (A) (A) (A) (A) (A) (A) (A) (A) (A)
                 (A) (A) (A) (A) (A) (A) (A) (A) (A) (A) (A) (A)
                 (A) (A) (A) (A) (A) (A) (A) (A) (A) (A) (A) (A)
                 (A) (A) (A) (A) (A) (A) (A) (A) (A) (A) (A) (A)
                 (A) (A) (A) (A) (A) (A) (A) (A) (A) (A) (A) (A)
                 (A) (A) (A) (A) (A) (A) (A) (A) (A) (A) (A) (A)
                 (A) (A) (A) (A) (A) (A) (A) (A) (A) (A) (A) (A)
                 (A) (A) (A) (A) (A) (A) (A) (A) (A) (A) (A) (A)
                 (A) (A) (A) (A) (A) (A) (A) (A) (A) (A) (A) (A)
                 (A) (A) (A) (A) (A) (A) (A) (A) (A) (A) (A) (A)
                 (A) (A) (A) (A) (A) (A) (A) (A) (A) (A) (A) (A)
                 (A) (A) (A) (A) (A) (A) (A) (A) (A) (A) (A) (A)
                 (A) (A) (A) (A) (A) (A) (A) (A) (A) (A) (A) (A)
                 (A) (A) (A) (A) (A) (A) (A) (A) (A) (A) (A) (A)
                 (A) (A) (A) (A) (A) (A) (A) (A) (A) (A) (A) (A)
                 (A) (A) (A) (A) (A) (A) (A) (A) (A) (A) (A) (A)
                 (A) (A) (A) (A) (A) (A) (A) (A) (A) (A) (A) (A)
                 (A) (A) (A) (A) (A) (A) (A) (A) (A) (A) (A) (A)
                 (A) (A) (A) (A) (A) (A) (A) (A) (A) (A) (A) (A)
                 (A) (A) (A) (A) (A) (A) (A) (A) (A) (A) (A) (A)
                 (A) (A) (A) (A) (A) (A) (A) (A) (A) (A) (A) (A)
                 (A) (A) (A) (A) (A) (A) (A) (A) (A) (A) (A) (A)
                 (A) (A) (A) (A) (A) (A) (A) (A) (A) (A) (A) (A)
                 (A) (A) (A) (A) (A) (A) (A) (A) (A) (A) (A) (A)
                 (A) (A) (A) (A) (A) (A) (A) (A) (A) (A) (A) (A)
                 (A) (A) (A) (A) (A) (A) (A) (A) (A) (A) (A) (A)
                 (A) (A) (A) (A) (A) (A) (A) (A) (A) (A) (A) (A)
                 (A) (A) (A) (A) (A) (A) (A) (A) (A) (A) (A) (A)
                 (A) (A) (A) (A) (A) (A) (A) (A) (A) (A) (A) (A)
                 (A) (A) (A) (A) (A) (A) (A) (A) (A) (A) (A) (A)
                 (A) (A) (A) (A) (A) (A) (A) (A) (A) (A) (A) (A)
                 (A) (A) (A) (A) (A) (A) (A) (A) (A) (A) (A) (A)
                 (A) (A) (A) (A) (A) (A) (A) (A) (A) (A) (A) (A)
                 (A) (A) (A) (A) (A) (A) (A) (A) (A) (A) (A) (A)
                 (A) (A) (A) (A) (A) (A) (A) (A) (A) (A) (A) (A)
                 (A) (A) (A) (A) (A) (A) (A) (A) (A) (A) (A) (A)
                 (A) (A) (A) (A) (A) (A) (A) (A) (A) (A) (A) (A)
                 (A) (A) (A) (A) (A) (A) (A) (A) (A) (A) (A) (A)
                 (A) (A) (A) (A) (A) (A) (A) (A) (A) (A) (A) (A)
                 (A) (A) (A) (A) (A) (A) (A) (A) (A) (A) (A) (A)
                 (A) (A) (A) (A) (A) (A) (A) (A) (A) (A) (A) (A)
                 (A) (A) (A) (A) (A) (A) (A) (A) (A) (A) (A) (A)
                 (A) (A) (A) (A) (A) (A) (A) (A) (A) (A) (A) (A)
                 (A) (A) (A) (A) (A) (A) (A) (A) (A) (A) (A) (A)
                 (A) (A) (A) (A) (A) (A) (A) (A) (A) (A) (A) (A)
                 (A) (A) (A) (A) (A) (A) (A) (A) (A) (A) (A) (A)
                 (A) (A) (A) (A) (A) (A) (A) (A) (A) (A) (A) (A)
                 (A) (A) (A) (A) (A) (A) (A) (A) (A) (A) (A) (A)
                 (A) (A) (A) (A) (A) (A) (A) (A) (A) (A) (A) (A)
                 (A) (A) (A) (A) (A) (A) (A) (A) (A) (A) (A) (A)
                 (A) (A) (A) (A) (A) (A) (A) (A) (A) (A) (A) (A)
                 (A) (A) (A) (A) (A) (A) (A) (A) (A) (A) (A) (A)
                 (A) (A) (A) (A) (A) (A) (A) (A) (A) (A) (A) (A)
                 (A) (A) (A) (A) (A) (A) (A) (A) (A) (A) (A) (A)
                 (A) (A) (A) (A) (A) (A) (A) (A) (A) (A) (A) (A)
                 (A) (A) (A) (A) (A) (A) (A) (A) (A) (A) (A) (A)
                 (A) (A) (A) (A) (A) (A) (A) (A) (A) (A) (A) (A)
                 (A) (A) (A) (A) (A) (A) (A) (A) (A) (A) (A) (A)
                 (A) (A) (A) (A) (A) (A) (A) (A) (A) (A) (A) (A)
                 (A) (A) (A) (A) (A) (A) (A) (A) (A) (A) (A) (A)
                 (A) (A) (A) (A) (A) (A) (A) (A) (A) (A) (A) (A)
                 (A) (A) (A) (A) (A) (A) (A) (A) (A) (A) (A) (A)
                 (A) (A) (A) (A) (A) (A) (A) (A) (A) (A) (A) (A)
                 (A) (A) (A) (A) (A) (A) (A) (A) (A) (A) (A) (A)
                 (A) (A) (A) (A) (A) (A) (A) (A) (A) (A) (A) (A)
                 (A) (A) (A) (A) (A) (A) (A) (A) (A) (A) (A) (A)
                 (A) (A) (A) (A) (A) (A) (A) (A) (A) (A) (A) (A)
                 (A) (A) (A) (A) (A) (A) (A) (A) (A) (A) (A) (A)
                 (A) (A) (A) (A) (A) (A) (A) (A) (A) (A) (A) (A)
                 (A) (A) (A) (A) (A) (A) (A) (A) (A) (A) (A) (A)
                 (A) (A) (A) (A) (A) (A) (A) (A) (A) (A) (A) (A)
                 (A) (A) (A) (A) (A) (A) (A) (A) (A) (A) (A) (A)
                 (A) (A) (A) (A) (A) (A) (A) (A) (A) (A) (A) (A)
                 (A) (A) (A) (A) (A) (A) (A) (A) (A) (A) (A) (A)
                 (A) (A) (A) (A) (A) (A) (A) (A) (A) (A) (A) (A)
                 (A) (A) (A) (A) (A) (A) (A) (A) (A) (A) (A) (A)
                 (A) (A) (A) (A) (A) (A) (A) (A) (A) (A) (A) (A)
                 (A) (A) (A) (A) (A) (A) (A) (A) (A) (A) (A) (A)
                 (A) (A) (A) (A) (A) (A) (A) (A) (A) (A) (A) (A)
                 (A) (A) (A) (A) (A) (A) (A) (A) (A) (A) (A) (A)
                 (A) (A) (A) (A) (A) (A) (A) (A) (A) (A) (A) (A)
                 (A) (A) (A) (A) (A) (A) (A) (A) (A) (A) (A) (A)
                 (A) (A) (A) (A) (A) (A) (A) (A) (A) (A) (A) (A)
                 (A) (A) (A) (A) (A) (A) (A) (A) (A) (A) (A) (A)
                 (A) (A) (A) (A) (A) (A) (A) (A) (A) (A) (A) (A)
                 (A) (A) (A) (A) (A) (A) (A) (A) (A) (A) (A) (A)
                 (A) (A) (A) (A) (A) (A) (A) (A) (A) (A) (A) (A)
                 (A) (A) (A) (A) (A) (A) (A) (A) (A) (A) (A) (A)
                 (A) (A) (A) (A) (A) (A) (A) (A) (A) (A) (A) (A)
                 (A) (A) (A) (A) (A) (A) (A) (A) (A) (A) (A) (A)
                 (A) (A) (A) (A) (A) (A) (A) (A) (A) (A) (A) (A)
                 (A) (A) (A) (A) (A) (A) (A) (A) (A) (A) (A) (A)
                 (A) (A) (A) (A) (A) (A) (A) (A) (A) (A) (A) (A)
                 (A) (A) (A) (A) (A) (A) (A) (A) (A) (A) (A) (A)
                 (A) (A) (A) (A) (A) (A) (A) (A) (A) (A) (A) (A)
                 (A) (A) (A) (A) (A) (A) (A) (A) (A) (A) (A) (A)
                 (A) (A) (A) (A) (A) (A) (A) (A) (A) (A) (A) (A)
                 (A) (A) (A) (A) (A) (A) (A) (A) (A) (A) (A) (A)
                 (A) (A) (A) (A) (A) (A) (A) (A) (A) (A) (A) (A)
                 (A) (A) (A) (A) (A) (A) (A) (A) (A) (A) (A) (A)
                 (A) (A) (A) (A) (A) (A) (A) (A) (A) (A) (A) (A)
                 (A) (A) (A) (A) (A) (A) (A) (A) (A) (A) (A) (A)
                 (A) (A) (A) (A) (A) (A) (A) (A) (A) (A) (A) (A)
                 (A) (A) (A) (A) (A) (A) (A) (A) (A) (A) (A) (A)
                 (A) (A) (A) (A) (A) (A) (A) (A) (A) (A) (A) (A)
                 (A) (A) (A) (A) (A) (A) (A) (A) (A) (A) (A) (A)
                 (A) (A) (A) (A) (A) (A) (A) (A) (A) (A) (A) (A)
                 (A) (A) (A) (A) (A) (A) (A) (A) (A) (A) (A) (A)
                 (A) (A) (A) (A) (A) (A) (A) (A) (A) (A) (A) (A)
                 (A) (A) (A) (A) (A) (A) (A) (A) (A) (A) (A) (A)
                 (A) (A) (A) (A) (A) (A) (A) (A) (A) (A) (A) (A)
                 (A) (A) (A) (A) (A) (A) (A) (A) (A) (A) (A) (A)
                 (A) (A) (A) (A) (A) (A) (A) (A) (A) (A) (A) (A)
                 (A) (A) (A) (A) (A) (A) (A) (A) (A) (A) (A) (A)
                 (A) (A) (A) (A) (A) (A) (A) (A) (A) (A) (A) (A)
                 (A) (A) (A) (A) (A) (A) (A) (A) (A) (A) (A) (A)
                 (A) (A) (A) (A) (A) (A) (A) (A) (A) (A) (A) (A)
                 (A) (A) (A) (A) (A) (A) (A) (A) (A) (A) (A) (A)
                 (A) (A) (A) (A) (A) (A) (A) (A) (A) (A) (A) (A)
                 (A) (A) (A) (A) (A) (A) (A) (A) (A) (A) (A) (A)
                 (A) (A) (A) (A) (A) (A) (A) (A) (A) (A) (A) (A)
                 (A) (A) (A) (A) (A) (A) (A) (A) (A) (A) (A) (A)
                 (A) (A) (A) (A) (A) (A) (A) (A) (A) (A) (A) (A)
                 (A) (A) (A) (A) (A) (A) (A) (A) (A) (A) (A) (A)
                 (A) (A) (A) (A) (A) (A) (A) (A) (A) (A) (A) (A)
                 (A) (A) (A) (A) (A) (A) (A) (A) (A) (A) (A) (A)
                 (A) (A) (A) (A) (A) (A) (A) (A) (A) (A) (A) (A)
                 (A) (A) (A) (A) (A) (A) (A) (A) (A) (A) (A) (A)
                 (A) (A) (A) (A) (A) (A) (A) (A) (A) (A) (A) (A)
                 (A) (A) (A) (A) (A) (A) (A) (A) (A) (A) (A) (A)
                 (A) (A) (A) (A) (A) (A) (A) (A) (A) (A) (A) (A)
                 (A) (A) (A) (A) (A) (A) (A) (A) (A) (A) (A) (A)
                 (A) (A) (A) (A) (A) (A) (A) (A) (A) (A) (A) (A)
                 (A) (A) (A) (A) (A) (A) (A) (A) (A) (A) (A) (A)
                 (A) (A) (A) (A) (A) (A) (A) (A) (A) (A) (A) (A)
                 (A) (A) (A) (A) (A) (A)
 The electronic state is 2-A.
 Alpha  occ. eigenvalues --  -25.19000 -25.18970 -14.76255 -14.76216 -14.76103
 Alpha  occ. eigenvalues --  -14.76011 -10.59226 -10.59194 -10.58478 -10.58393
 Alpha  occ. eigenvalues --  -10.57314 -10.57178 -10.57138 -10.57137 -10.57092
 Alpha  occ. eigenvalues --  -10.57004 -10.56703 -10.56682 -10.56640 -10.56597
 Alpha  occ. eigenvalues --  -10.55515 -10.55449 -10.55402 -10.55321 -10.55313
 Alpha  occ. eigenvalues --  -10.55259 -10.55163 -10.55110 -10.55093 -10.55029
 Alpha  occ. eigenvalues --  -10.54633 -10.54429 -10.54373 -10.54081 -10.53738
 Alpha  occ. eigenvalues --  -10.53417 -10.53399 -10.53116 -10.52981 -10.52976
 Alpha  occ. eigenvalues --  -10.52955 -10.52932 -10.52894 -10.52800  -7.11227
 Alpha  occ. eigenvalues --   -1.30789  -1.27516  -1.08041  -1.06038  -1.02287
 Alpha  occ. eigenvalues --   -1.02249  -0.98004  -0.97881  -0.97044  -0.92083
 Alpha  occ. eigenvalues --   -0.91210  -0.90372  -0.89276  -0.88370  -0.87815
 Alpha  occ. eigenvalues --   -0.87129  -0.86440  -0.86072  -0.85954  -0.84218
 Alpha  occ. eigenvalues --   -0.80526  -0.79892  -0.78949  -0.77846  -0.77356
 Alpha  occ. eigenvalues --   -0.76672  -0.75362  -0.73731  -0.70942  -0.70726
 Alpha  occ. eigenvalues --   -0.70162  -0.68370  -0.67214  -0.65633  -0.65292
 Alpha  occ. eigenvalues --   -0.64752  -0.63664  -0.63603  -0.62517  -0.61787
 Alpha  occ. eigenvalues --   -0.61137  -0.59653  -0.58413  -0.57096  -0.56790
 Alpha  occ. eigenvalues --   -0.56537  -0.55441  -0.55396  -0.54842  -0.53892
 Alpha  occ. eigenvalues --   -0.52974  -0.52109  -0.51619  -0.51332  -0.50785
 Alpha  occ. eigenvalues --   -0.50640  -0.50301  -0.50161  -0.50054  -0.49957
 Alpha  occ. eigenvalues --   -0.49542  -0.48838  -0.48673  -0.48461  -0.48156
 Alpha  occ. eigenvalues --   -0.48047  -0.47656  -0.47169  -0.47056  -0.46753
 Alpha  occ. eigenvalues --   -0.46619  -0.46541  -0.46539  -0.46240  -0.46161
 Alpha  occ. eigenvalues --   -0.46107  -0.45645  -0.45258  -0.45171  -0.44874
 Alpha  occ. eigenvalues --   -0.44506  -0.43413  -0.43275  -0.43196  -0.43088
 Alpha  occ. eigenvalues --   -0.42895  -0.42717  -0.42418  -0.42405  -0.41638
 Alpha  occ. eigenvalues --   -0.41246  -0.40957  -0.40102  -0.39751  -0.39681
 Alpha  occ. eigenvalues --   -0.39583  -0.38577  -0.38434  -0.38107  -0.37286
 Alpha  occ. eigenvalues --   -0.34303  -0.32896  -0.32805  -0.31168  -0.30743
 Alpha  occ. eigenvalues --   -0.29983  -0.28973  -0.28600  -0.28102  -0.23042
 Alpha  occ. eigenvalues --   -0.17482
 Alpha virt. eigenvalues --   -0.05338  -0.03595   0.00621   0.00700   0.01682
 Alpha virt. eigenvalues --    0.02143   0.02677   0.03567   0.05367   0.05990
 Alpha virt. eigenvalues --    0.06607   0.06714   0.07749   0.07863   0.08190
 Alpha virt. eigenvalues --    0.08610   0.08747   0.08796   0.09286   0.09506
 Alpha virt. eigenvalues --    0.09828   0.10044   0.11017   0.11217   0.11434
 Alpha virt. eigenvalues --    0.11813   0.12002   0.12383   0.12449   0.12629
 Alpha virt. eigenvalues --    0.12976   0.13213   0.13484   0.13858   0.14068
 Alpha virt. eigenvalues --    0.14267   0.14463   0.14553   0.15009   0.15060
 Alpha virt. eigenvalues --    0.15671   0.16013   0.16167   0.16342   0.16427
 Alpha virt. eigenvalues --    0.16707   0.16911   0.17331   0.17362   0.17733
 Alpha virt. eigenvalues --    0.18042   0.18283   0.18381   0.18547   0.18985
 Alpha virt. eigenvalues --    0.19164   0.19512   0.19694   0.20056   0.20841
 Alpha virt. eigenvalues --    0.20954   0.21109   0.21407   0.21788   0.21845
 Alpha virt. eigenvalues --    0.22202   0.22465   0.22636   0.23027   0.23190
 Alpha virt. eigenvalues --    0.23407   0.23847   0.23967   0.24164   0.24344
 Alpha virt. eigenvalues --    0.24477   0.24692   0.25227   0.25748   0.25826
 Alpha virt. eigenvalues --    0.26046   0.26089   0.26522   0.26833   0.27050
 Alpha virt. eigenvalues --    0.27194   0.27325   0.27454   0.27565   0.28031
 Alpha virt. eigenvalues --    0.28340   0.28431   0.28564   0.28706   0.29028
 Alpha virt. eigenvalues --    0.29109   0.29257   0.29475   0.29762   0.29814
 Alpha virt. eigenvalues --    0.29999   0.30153   0.30653   0.31259   0.31367
 Alpha virt. eigenvalues --    0.31608   0.31848   0.32242   0.32288   0.32675
 Alpha virt. eigenvalues --    0.32829   0.33047   0.33079   0.33219   0.33444
 Alpha virt. eigenvalues --    0.33670   0.33760   0.34008   0.34410   0.34793
 Alpha virt. eigenvalues --    0.35064   0.35429   0.35443   0.35862   0.36185
 Alpha virt. eigenvalues --    0.36395   0.36628   0.36686   0.36891   0.36989
 Alpha virt. eigenvalues --    0.37416   0.37559   0.37579   0.37810   0.37911
 Alpha virt. eigenvalues --    0.38161   0.38603   0.38792   0.38990   0.39083
 Alpha virt. eigenvalues --    0.39323   0.39582   0.39778   0.39995   0.40209
 Alpha virt. eigenvalues --    0.40350   0.40518   0.40686   0.41040   0.41115
 Alpha virt. eigenvalues --    0.41163   0.41562   0.41686   0.42033   0.42291
 Alpha virt. eigenvalues --    0.42451   0.42512   0.42765   0.42997   0.43237
 Alpha virt. eigenvalues --    0.43481   0.43883   0.44333   0.44493   0.44725
 Alpha virt. eigenvalues --    0.44908   0.45140   0.45256   0.45463   0.46013
 Alpha virt. eigenvalues --    0.46087   0.46284   0.46436   0.46769   0.46919
 Alpha virt. eigenvalues --    0.46985   0.47206   0.47351   0.47657   0.47953
 Alpha virt. eigenvalues --    0.48252   0.48640   0.48883   0.49105   0.49286
 Alpha virt. eigenvalues --    0.49889   0.49962   0.50111   0.50424   0.50667
 Alpha virt. eigenvalues --    0.50960   0.51409   0.51507   0.51695   0.51830
 Alpha virt. eigenvalues --    0.51992   0.52064   0.52239   0.52475   0.52792
 Alpha virt. eigenvalues --    0.52922   0.53186   0.53700   0.53837   0.53965
 Alpha virt. eigenvalues --    0.54101   0.54418   0.54489   0.54608   0.55119
 Alpha virt. eigenvalues --    0.55414   0.55633   0.55909   0.56073   0.56160
 Alpha virt. eigenvalues --    0.56823   0.57170   0.57254   0.57670   0.57722
 Alpha virt. eigenvalues --    0.58224   0.58377   0.58727   0.58935   0.59156
 Alpha virt. eigenvalues --    0.59410   0.59728   0.59927   0.60449   0.60604
 Alpha virt. eigenvalues --    0.61096   0.61205   0.61309   0.61661   0.62268
 Alpha virt. eigenvalues --    0.62316   0.62619   0.62679   0.63019   0.63340
 Alpha virt. eigenvalues --    0.63612   0.64371   0.64603   0.64704   0.65051
 Alpha virt. eigenvalues --    0.65132   0.65537   0.65593   0.65867   0.66378
 Alpha virt. eigenvalues --    0.66459   0.66685   0.66843   0.67045   0.67339
 Alpha virt. eigenvalues --    0.67466   0.67776   0.68114   0.68456   0.68556
 Alpha virt. eigenvalues --    0.68675   0.69303   0.69499   0.69657   0.69681
 Alpha virt. eigenvalues --    0.69919   0.70095   0.70201   0.70417   0.70662
 Alpha virt. eigenvalues --    0.70800   0.71059   0.71576   0.71875   0.72150
 Alpha virt. eigenvalues --    0.72450   0.72954   0.73206   0.73461   0.73496
 Alpha virt. eigenvalues --    0.73954   0.74314   0.74565   0.74903   0.75212
 Alpha virt. eigenvalues --    0.75569   0.75866   0.75972   0.76556   0.76675
 Alpha virt. eigenvalues --    0.76855   0.77201   0.77686   0.78010   0.78330
 Alpha virt. eigenvalues --    0.78562   0.78684   0.79020   0.79364   0.79425
 Alpha virt. eigenvalues --    0.79709   0.80208   0.80314   0.80583   0.80945
 Alpha virt. eigenvalues --    0.81322   0.81736   0.81977   0.82031   0.82271
 Alpha virt. eigenvalues --    0.82422   0.83008   0.83081   0.83336   0.83546
 Alpha virt. eigenvalues --    0.84051   0.84335   0.84475   0.84716   0.84917
 Alpha virt. eigenvalues --    0.85106   0.85374   0.85860   0.85976   0.86027
 Alpha virt. eigenvalues --    0.86433   0.87046   0.87283   0.87622   0.87842
 Alpha virt. eigenvalues --    0.88470   0.88727   0.88884   0.89282   0.89412
 Alpha virt. eigenvalues --    0.90244   0.90558   0.90902   0.91179   0.91388
 Alpha virt. eigenvalues --    0.91579   0.92127   0.92639   0.92965   0.93236
 Alpha virt. eigenvalues --    0.93730   0.94267   0.94400   0.94652   0.95076
 Alpha virt. eigenvalues --    0.95532   0.95786   0.95945   0.96193   0.96555
 Alpha virt. eigenvalues --    0.96772   0.97336   0.97474   0.98170   0.98377
 Alpha virt. eigenvalues --    0.98992   0.99093   0.99260   0.99531   0.99857
 Alpha virt. eigenvalues --    1.00165   1.00635   1.00778   1.00841   1.00964
 Alpha virt. eigenvalues --    1.01246   1.01504   1.01707   1.02109   1.02492
 Alpha virt. eigenvalues --    1.02568   1.02851   1.03281   1.03485   1.03648
 Alpha virt. eigenvalues --    1.03900   1.03983   1.04134   1.04372   1.04720
 Alpha virt. eigenvalues --    1.04866   1.04981   1.05563   1.05673   1.06117
 Alpha virt. eigenvalues --    1.06376   1.06534   1.07102   1.07641   1.08161
 Alpha virt. eigenvalues --    1.08590   1.08734   1.09059   1.09568   1.09708
 Alpha virt. eigenvalues --    1.09935   1.10172   1.10421   1.10595   1.11144
 Alpha virt. eigenvalues --    1.11322   1.12063   1.12404   1.12631   1.12756
 Alpha virt. eigenvalues --    1.13078   1.13430   1.13879   1.13906   1.14132
 Alpha virt. eigenvalues --    1.14603   1.14770   1.15066   1.15317   1.15466
 Alpha virt. eigenvalues --    1.15752   1.15850   1.16147   1.16373   1.16854
 Alpha virt. eigenvalues --    1.16998   1.17215   1.17616   1.18083   1.18522
 Alpha virt. eigenvalues --    1.19225   1.19497   1.19977   1.20332   1.20549
 Alpha virt. eigenvalues --    1.20577   1.20768   1.21097   1.21333   1.21787
 Alpha virt. eigenvalues --    1.22300   1.22642   1.22977   1.23083   1.23664
 Alpha virt. eigenvalues --    1.23949   1.24124   1.24198   1.24331   1.24723
 Alpha virt. eigenvalues --    1.24981   1.25290   1.25405   1.25987   1.26293
 Alpha virt. eigenvalues --    1.26780   1.27005   1.27412   1.27526   1.27714
 Alpha virt. eigenvalues --    1.28234   1.28365   1.28616   1.28833   1.29180
 Alpha virt. eigenvalues --    1.29612   1.29889   1.30218   1.30360   1.30594
 Alpha virt. eigenvalues --    1.30796   1.31224   1.31501   1.31689   1.32078
 Alpha virt. eigenvalues --    1.32279   1.32385   1.33087   1.33415   1.34320
 Alpha virt. eigenvalues --    1.34567   1.35047   1.35191   1.35314   1.35611
 Alpha virt. eigenvalues --    1.36149   1.36409   1.36690   1.37084   1.37479
 Alpha virt. eigenvalues --    1.37947   1.38111   1.38393   1.38684   1.38865
 Alpha virt. eigenvalues --    1.39139   1.39333   1.39656   1.39818   1.40698
 Alpha virt. eigenvalues --    1.41051   1.41312   1.41360   1.41957   1.42392
 Alpha virt. eigenvalues --    1.42444   1.42978   1.43610   1.44351   1.44445
 Alpha virt. eigenvalues --    1.44808   1.45138   1.45304   1.45467   1.45650
 Alpha virt. eigenvalues --    1.45707   1.45801   1.46071   1.46339   1.46405
 Alpha virt. eigenvalues --    1.46464   1.46780   1.46939   1.47508   1.47630
 Alpha virt. eigenvalues --    1.47877   1.48373   1.49018   1.49433   1.49976
 Alpha virt. eigenvalues --    1.50114   1.51067   1.51226   1.51496   1.51780
 Alpha virt. eigenvalues --    1.52058   1.52264   1.52565   1.52827   1.53131
 Alpha virt. eigenvalues --    1.53346   1.53567   1.54081   1.54334   1.54473
 Alpha virt. eigenvalues --    1.54618   1.54851   1.55006   1.55495   1.55675
 Alpha virt. eigenvalues --    1.55879   1.56208   1.56493   1.56802   1.57223
 Alpha virt. eigenvalues --    1.57409   1.57561   1.57827   1.58174   1.58514
 Alpha virt. eigenvalues --    1.58761   1.58838   1.59130   1.59327   1.59647
 Alpha virt. eigenvalues --    1.59881   1.59935   1.60253   1.60471   1.61081
 Alpha virt. eigenvalues --    1.61278   1.61575   1.62021   1.62152   1.62372
 Alpha virt. eigenvalues --    1.62633   1.63470   1.63865   1.64171   1.64250
 Alpha virt. eigenvalues --    1.64619   1.64828   1.65424   1.65889   1.66393
 Alpha virt. eigenvalues --    1.66981   1.67166   1.67539   1.67669   1.67886
 Alpha virt. eigenvalues --    1.67986   1.68160   1.68381   1.68629   1.68978
 Alpha virt. eigenvalues --    1.69181   1.69564   1.70764   1.71024   1.71492
 Alpha virt. eigenvalues --    1.71812   1.72431   1.72858   1.72924   1.74135
 Alpha virt. eigenvalues --    1.74378   1.75137   1.75324   1.75798   1.76129
 Alpha virt. eigenvalues --    1.76710   1.77535   1.77919   1.78210   1.78463
 Alpha virt. eigenvalues --    1.79143   1.79189   1.79597   1.79668   1.80054
 Alpha virt. eigenvalues --    1.80477   1.81072   1.81700   1.82332   1.82590
 Alpha virt. eigenvalues --    1.83236   1.83597   1.83744   1.84486   1.84922
 Alpha virt. eigenvalues --    1.85297   1.85844   1.86128   1.87086   1.87817
 Alpha virt. eigenvalues --    1.88121   1.88455   1.88703   1.88894   1.88991
 Alpha virt. eigenvalues --    1.89530   1.90256   1.90907   1.91022   1.91131
[...]
 
              Baa    -0.0907   -12.165    -4.341    -4.058  0.4477  0.8925 -0.0559
    12 C(13)  Bbb    -0.0872   -11.708    -4.178    -3.905  0.8931 -0.4493 -0.0205
              Bcc     0.1779    23.873     8.518     7.963  0.0434  0.0407  0.9982
 
              Baa    -0.0629    -8.436    -3.010    -2.814  0.0710  0.1200  0.9902
    13 C(13)  Bbb     0.0257     3.451     1.231     1.151  0.5094  0.8492 -0.1394
              Bcc     0.0371     4.985     1.779     1.663  0.8576 -0.5143  0.0008
 
              Baa    -0.0851   -11.426    -4.077    -3.811 -0.2015  0.9720 -0.1211
    14 C(13)  Bbb    -0.0793   -10.641    -3.797    -3.549  0.9769  0.1905 -0.0964
              Bcc     0.1644    22.067     7.874     7.361  0.0706  0.1378  0.9879
 
              Baa    -0.0244    -3.277    -1.169    -1.093  0.0607  0.1309  0.9895
    15 C(13)  Bbb     0.0087     1.173     0.419     0.391  0.1231  0.9828 -0.1376
              Bcc     0.0157     2.103     0.751     0.702  0.9905 -0.1301 -0.0436
 
              Baa    -0.0230    -3.085    -1.101    -1.029  0.4312  0.8917 -0.1373
    16 C(13)  Bbb    -0.0213    -2.856    -1.019    -0.953  0.8990 -0.4376 -0.0191
              Bcc     0.0443     5.941     2.120     1.982  0.0771  0.1152  0.9903
 
              Baa    -0.0172    -2.313    -0.825    -0.771  0.0785  0.1198  0.9897
    17 C(13)  Bbb     0.0071     0.954     0.340     0.318  0.4603  0.8763 -0.1426
              Bcc     0.0101     1.359     0.485     0.453  0.8843 -0.4667 -0.0136
 
              Baa    -0.0316    -4.242    -1.514    -1.415  0.3024  0.9425 -0.1422
    18 C(13)  Bbb    -0.0290    -3.896    -1.390    -1.299  0.9503 -0.3097 -0.0318
              Bcc     0.0606     8.138     2.904     2.714  0.0740  0.1256  0.9893
 
              Baa    -0.0073    -0.983    -0.351    -0.328  0.0726  0.1233  0.9897
    19 C(13)  Bbb    -0.0018    -0.240    -0.086    -0.080  0.2667  0.9538 -0.1384
              Bcc     0.0091     1.223     0.436     0.408  0.9611 -0.2740 -0.0363
 
              Baa    -0.0267    -1.030    -0.368    -0.344  0.9657 -0.2564 -0.0402
    20 N(14)  Bbb    -0.0206    -0.795    -0.284    -0.265  0.2486  0.9585 -0.1395
              Bcc     0.0473     1.825     0.651     0.609  0.0743  0.1247  0.9894
 
              Baa    -0.0152    -2.045    -0.730    -0.682  0.0800  0.1211  0.9894
    21 C(13)  Bbb     0.0061     0.822     0.293     0.274  0.1707  0.9763 -0.1333
              Bcc     0.0091     1.224     0.437     0.408  0.9821 -0.1796 -0.0574
 
              Baa    -0.0230    -3.087    -1.102    -1.030  0.3175  0.9382 -0.1375
    22 C(13)  Bbb    -0.0202    -2.710    -0.967    -0.904  0.9450 -0.3251 -0.0360
              Bcc     0.0432     5.797     2.069     1.934  0.0785  0.1185  0.9898
 
              Baa    -0.0615    -2.372    -0.846    -0.791 -0.0811  0.9965 -0.0190
    23 N(14)  Bbb    -0.0508    -1.959    -0.699    -0.653  0.9955  0.0801 -0.0507
              Bcc     0.1123     4.331     1.545     1.445  0.0490  0.0230  0.9985
 
              Baa    -0.0018    -0.306    -0.109    -0.102 -0.0081  0.2342  0.9722
    24 B(11)  Bbb    -0.0000    -0.008    -0.003    -0.003  0.9253 -0.3669  0.0961
              Bcc     0.0018     0.314     0.112     0.105  0.3792  0.9003 -0.2137
 
              Baa    -0.0101    -5.056    -1.804    -1.687  0.3436  0.0331  0.9385
    25 F(19)  Bbb    -0.0069    -3.463    -1.236    -1.155  0.2257  0.9672 -0.1167
              Bcc     0.0170     8.519     3.040     2.842  0.9116 -0.2519 -0.3249
 
              Baa    -0.0132    -6.622    -2.363    -2.209  0.3502  0.7948 -0.4956
    26 F(19)  Bbb    -0.0124    -6.231    -2.223    -2.078 -0.1623  0.5726  0.8036
              Bcc     0.0256    12.853     4.586     4.287  0.9225 -0.2011  0.3295
 
              Baa    -0.0601    -2.318    -0.827    -0.773 -0.0907  0.9949 -0.0437
    27 N(14)  Bbb    -0.0491    -1.893    -0.675    -0.631  0.9945  0.0928  0.0480
              Bcc     0.1092     4.211     1.502     1.405 -0.0519  0.0391  0.9979
 
              Baa    -0.0813   -10.908    -3.892    -3.639 -0.2983  0.9510 -0.0817
    28 C(13)  Bbb    -0.0776   -10.418    -3.718    -3.475  0.9532  0.3013  0.0263
              Bcc     0.1589    21.327     7.610     7.114 -0.0497  0.0701  0.9963
 
              Baa    -0.0575    -7.714    -2.753    -2.573 -0.0930  0.1373  0.9861
    29 C(13)  Bbb     0.0225     3.017     1.076     1.006 -0.1545  0.9764 -0.1506
              Bcc     0.0350     4.697     1.676     1.567  0.9836  0.1664  0.0696
 
              Baa    -0.0845   -11.342    -4.047    -3.783  0.8285 -0.5148  0.2202
    30 C(13)  Bbb    -0.0775   -10.406    -3.713    -3.471  0.5459  0.8302 -0.1132
              Bcc     0.1621    21.748     7.760     7.254 -0.1246  0.2140  0.9689
 
              Baa    -0.0235    -3.149    -1.123    -1.050 -0.1345  0.2284  0.9642
    31 C(13)  Bbb     0.0081     1.089     0.389     0.363 -0.6370  0.7254 -0.2607
              Bcc     0.0153     2.059     0.735     0.687  0.7590  0.6493 -0.0479
 
              Baa    -0.0222    -2.985    -1.065    -0.996 -0.4897  0.8238 -0.2857
    32 C(13)  Bbb    -0.0206    -2.762    -0.986    -0.921  0.8615  0.5075 -0.0132
              Bcc     0.0428     5.747     2.051     1.917 -0.1341  0.2526  0.9582
 
              Baa    -0.0169    -2.268    -0.809    -0.756 -0.1331  0.2437  0.9607
    33 C(13)  Bbb     0.0071     0.947     0.338     0.316 -0.3469  0.8965 -0.2755
              Bcc     0.0098     1.320     0.471     0.440  0.9284  0.3700  0.0347
 
              Baa    -0.0304    -4.074    -1.454    -1.359 -0.4923  0.8256 -0.2759
    34 C(13)  Bbb    -0.0278    -3.726    -1.330    -1.243  0.8596  0.5110 -0.0046
              Bcc     0.0581     7.801     2.783     2.602 -0.1372  0.2394  0.9612
 
              Baa    -0.0070    -0.941    -0.336    -0.314 -0.1395  0.2397  0.9608
    35 C(13)  Bbb    -0.0018    -0.235    -0.084    -0.078 -0.4773  0.8338 -0.2773
              Bcc     0.0088     1.176     0.420     0.392  0.8676  0.4973  0.0019
 
              Baa    -0.0256    -0.988    -0.352    -0.329  0.8714  0.4905  0.0015
    36 N(14)  Bbb    -0.0198    -0.764    -0.273    -0.255 -0.4708  0.8372 -0.2783
              Bcc     0.0454     1.752     0.625     0.584 -0.1377  0.2418  0.9605
 
              Baa    -0.0141    -1.898    -0.677    -0.633 -0.1432  0.2344  0.9615
    37 C(13)  Bbb     0.0055     0.734     0.262     0.245 -0.5803  0.7671 -0.2734
              Bcc     0.0087     1.163     0.415     0.388  0.8017  0.5971 -0.0261
 
              Baa    -0.0221    -2.963    -1.057    -0.988 -0.4852  0.8286 -0.2794
    38 C(13)  Bbb    -0.0189    -2.537    -0.905    -0.846  0.8621  0.5067  0.0057
              Bcc     0.0410     5.499     1.962     1.834 -0.1463  0.2381  0.9602
 
              Baa    -0.0744    -9.984    -3.563    -3.330 -0.0113  0.0839  0.9964
    39 C(13)  Bbb     0.0357     4.786     1.708     1.597 -0.3229  0.9428 -0.0830
              Bcc     0.0387     5.198     1.855     1.734  0.9464  0.3227 -0.0164
 
              Baa    -0.0747   -10.024    -3.577    -3.344  0.9957 -0.0866  0.0344
    40 C(13)  Bbb    -0.0732    -9.822    -3.505    -3.276  0.0894  0.9917 -0.0928
              Bcc     0.1479    19.846     7.082     6.620 -0.0260  0.0954  0.9951
 
              Baa    -0.0017    -0.229    -0.082    -0.076  0.7410  0.6696 -0.0506
    41 C(13)  Bbb     0.0005     0.061     0.022     0.021  0.0121  0.0619  0.9980
              Bcc     0.0013     0.168     0.060     0.056 -0.6714  0.7401 -0.0378
 
              Baa    -0.1117   -14.987    -5.348    -4.999 -0.0297  0.0742  0.9968
    42 C(13)  Bbb     0.0491     6.583     2.349     2.196  0.8142 -0.5767  0.0672
              Bcc     0.0626     8.403     2.999     2.803  0.5798  0.8136 -0.0433
 
              Baa    -0.0080    -1.073    -0.383    -0.358 -0.6283 -0.0969  0.7719
    43 C(13)  Bbb    -0.0069    -0.927    -0.331    -0.309 -0.1880  0.9817 -0.0297
              Bcc     0.0149     2.000     0.714     0.667  0.7550  0.1637  0.6350
 
              Baa    -0.0025    -0.335    -0.119    -0.112 -0.2942  0.9528  0.0746
    44 C(13)  Bbb    -0.0019    -0.257    -0.092    -0.086  0.7260  0.2735 -0.6310
              Bcc     0.0044     0.591     0.211     0.197  0.6216  0.1315  0.7722
 
              Baa    -0.0024    -0.318    -0.113    -0.106 -0.0608  0.9954 -0.0744
    45 C(13)  Bbb    -0.0014    -0.192    -0.068    -0.064 -0.2587  0.0563  0.9643
              Bcc     0.0038     0.509     0.182     0.170  0.9640  0.0779  0.2541
 
              Baa    -0.0003    -0.157    -0.056    -0.053 -0.1250  0.1292  0.9837
    46 H(1)   Bbb    -0.0003    -0.148    -0.053    -0.049 -0.0037  0.9914 -0.1307
              Bcc     0.0006     0.306     0.109     0.102  0.9921  0.0200  0.1235
 
              Baa    -0.0003    -0.163    -0.058    -0.054  0.0394  0.0771  0.9962
    47 H(1)   Bbb    -0.0003    -0.143    -0.051    -0.048 -0.1972  0.9780 -0.0679
              Bcc     0.0006     0.306     0.109     0.102  0.9796  0.1937 -0.0538
 
              Baa    -0.0003    -0.159    -0.057    -0.053  0.1183 -0.0927  0.9886
    48 H(1)   Bbb    -0.0003    -0.145    -0.052    -0.049  0.0532  0.9948  0.0869
              Bcc     0.0006     0.305     0.109     0.102  0.9916 -0.0423 -0.1226
 
              Baa    -0.0007    -0.360    -0.128    -0.120 -0.0201  0.9997 -0.0109
    49 H(1)   Bbb    -0.0006    -0.317    -0.113    -0.106  0.4645  0.0190  0.8854
              Bcc     0.0013     0.677     0.241     0.226  0.8853  0.0127 -0.4648
 
              Baa    -0.0021    -1.146    -0.409    -0.382  0.9157 -0.0840  0.3930
    50 H(1)   Bbb    -0.0017    -0.880    -0.314    -0.294  0.2217  0.9212 -0.3197
              Bcc     0.0038     2.026     0.723     0.676 -0.3352  0.3798  0.8622
 
              Baa    -0.0009    -0.480    -0.171    -0.160  0.1116  0.9930  0.0373
    51 H(1)   Bbb    -0.0008    -0.450    -0.161    -0.150  0.8323 -0.1139  0.5426
              Bcc     0.0017     0.931     0.332     0.310 -0.5430  0.0295  0.8392
 
              Baa    -0.0022    -1.191    -0.425    -0.397  0.8395  0.3939  0.3742
    52 H(1)   Bbb    -0.0018    -0.948    -0.338    -0.316 -0.4593  0.8825  0.1014
              Bcc     0.0040     2.139     0.763     0.713 -0.2903 -0.2570  0.9218
 
              Baa    -0.0021    -1.120    -0.400    -0.374 -0.3845  0.0650  0.9208
    53 H(1)   Bbb    -0.0006    -0.334    -0.119    -0.112 -0.4802  0.8378 -0.2597
              Bcc     0.0027     1.454     0.519     0.485  0.7884  0.5420  0.2910
 
              Baa    -0.0014    -0.730    -0.261    -0.244  0.7394 -0.4027  0.5396
    54 H(1)   Bbb    -0.0013    -0.715    -0.255    -0.239 -0.4374  0.3220  0.8396
              Bcc     0.0027     1.445     0.516     0.482  0.5119  0.8568 -0.0620
 
              Baa    -0.0021    -1.137    -0.406    -0.379  0.4240  0.0389  0.9048
    55 H(1)   Bbb    -0.0006    -0.314    -0.112    -0.105 -0.4750  0.8602  0.1856
              Bcc     0.0027     1.451     0.518     0.484  0.7711  0.5085 -0.3832
 
              Baa    -0.0026    -1.413    -0.504    -0.471 -0.1421  0.9803  0.1372
    56 H(1)   Bbb    -0.0025    -1.311    -0.468    -0.437  0.0532 -0.1309  0.9900
              Bcc     0.0051     2.724     0.972     0.909  0.9884  0.1480 -0.0336
 
              Baa    -0.0031    -1.631    -0.582    -0.544  0.1542  0.2773  0.9483
    57 H(1)   Bbb    -0.0028    -1.490    -0.532    -0.497  0.4155  0.8526 -0.3169
              Bcc     0.0058     3.121     1.114     1.041  0.8964 -0.4429 -0.0162
 
              Baa    -0.0091    -4.871    -1.738    -1.625  0.7623 -0.6465  0.0303
    58 H(1)   Bbb    -0.0020    -1.076    -0.384    -0.359  0.0598  0.1169  0.9913
              Bcc     0.0111     5.947     2.122     1.984  0.6444  0.7539 -0.1278
 
              Baa    -0.0021    -1.126    -0.402    -0.376  0.9706  0.2320 -0.0636
    59 H(1)   Bbb    -0.0013    -0.691    -0.247    -0.231  0.0461  0.0802  0.9957
              Bcc     0.0034     1.818     0.649     0.606 -0.2361  0.9694 -0.0672
 
              Baa    -0.0010    -0.538    -0.192    -0.180  0.0744  0.1002  0.9922
    60 H(1)   Bbb    -0.0005    -0.272    -0.097    -0.091  0.5709  0.8115 -0.1248
              Bcc     0.0015     0.810     0.289     0.270  0.8177 -0.5757 -0.0032
 
              Baa    -0.0009    -0.506    -0.181    -0.169  0.0757  0.1138  0.9906
    61 H(1)   Bbb    -0.0003    -0.164    -0.058    -0.055  0.1224  0.9849 -0.1225
              Bcc     0.0013     0.670     0.239     0.223  0.9896 -0.1306 -0.0606
 
              Baa    -0.0014    -0.752    -0.268    -0.251  0.1073  0.1008  0.9891
    62 H(1)   Bbb    -0.0012    -0.625    -0.223    -0.209  0.7723 -0.6350 -0.0191
              Bcc     0.0026     1.378     0.492     0.460  0.6262  0.7659 -0.1460
 
              Baa    -0.0031    -1.665    -0.594    -0.555 -0.4250  0.8688  0.2539
    63 H(1)   Bbb    -0.0020    -1.077    -0.384    -0.359  0.0955 -0.2359  0.9671
              Bcc     0.0051     2.742     0.978     0.915  0.9001  0.4353  0.0173
 
              Baa    -0.0093    -4.952    -1.767    -1.652  0.9938  0.0471  0.1011
    64 H(1)   Bbb    -0.0017    -0.933    -0.333    -0.311 -0.1084  0.1930  0.9752
              Bcc     0.0110     5.885     2.100     1.963 -0.0264  0.9801 -0.1969
 
              Baa    -0.0017    -0.930    -0.332    -0.310  0.5771  0.8077 -0.1210
    65 H(1)   Bbb    -0.0011    -0.579    -0.207    -0.193 -0.1144  0.2266  0.9672
              Bcc     0.0028     1.509     0.539     0.503  0.8086 -0.5444  0.2232
 
              Baa    -0.0009    -0.487    -0.174    -0.163 -0.1365  0.2129  0.9675
    66 H(1)   Bbb    -0.0004    -0.210    -0.075    -0.070 -0.2330  0.9423 -0.2402
              Bcc     0.0013     0.697     0.249     0.233  0.9628  0.2582  0.0790
 
              Baa    -0.0010    -0.514    -0.183    -0.171 -0.1333  0.2075  0.9691
    67 H(1)   Bbb    -0.0004    -0.213    -0.076    -0.071 -0.6140  0.7503 -0.2451
              Bcc     0.0014     0.727     0.259     0.242  0.7780  0.6277 -0.0274
 
              Baa    -0.0015    -0.821    -0.293    -0.274 -0.1801  0.2033  0.9624
    68 H(1)   Bbb    -0.0010    -0.517    -0.185    -0.173  0.9836  0.0390  0.1758
              Bcc     0.0025     1.339     0.478     0.447 -0.0018  0.9783 -0.2070
 
              Baa    -0.0027    -1.443    -0.515    -0.481  0.0393  0.9724 -0.2300
    69 H(1)   Bbb    -0.0020    -1.080    -0.385    -0.360 -0.0239  0.2311  0.9726
              Bcc     0.0047     2.523     0.900     0.842  0.9989 -0.0327  0.0323
 
              Baa    -0.0022    -1.157    -0.413    -0.386 -0.4323 -0.0123  0.9016
    70 H(1)   Bbb    -0.0006    -0.340    -0.121    -0.113  0.3704  0.9092  0.1900
              Bcc     0.0028     1.497     0.534     0.499  0.8221 -0.4161  0.3885
 
              Baa    -0.0021    -1.134    -0.405    -0.378  0.3842  0.1353  0.9133
    71 H(1)   Bbb    -0.0007    -0.351    -0.125    -0.117  0.3794  0.8786 -0.2898
              Bcc     0.0028     1.485     0.530     0.495  0.8417 -0.4579 -0.2863
 
              Baa    -0.0015    -0.803    -0.287    -0.268  0.7955  0.5958 -0.1104
    72 H(1)   Bbb    -0.0013    -0.711    -0.254    -0.237  0.0396  0.1307  0.9906
              Bcc     0.0028     1.514     0.540     0.505 -0.6046  0.7925 -0.0803
 
              Baa    -0.0009    -0.470    -0.168    -0.157 -0.0011  0.9943 -0.1066
    73 H(1)   Bbb    -0.0009    -0.458    -0.163    -0.153  0.8254 -0.0592 -0.5614
              Bcc     0.0017     0.928     0.331     0.309  0.5645  0.0886  0.8207
 
              Baa    -0.0022    -1.190    -0.425    -0.397  0.9022 -0.1817 -0.3913
    74 H(1)   Bbb    -0.0017    -0.930    -0.332    -0.310  0.2500  0.9593  0.1311
              Bcc     0.0040     2.120     0.756     0.707  0.3516 -0.2161  0.9109
 
              Baa    -0.0022    -1.163    -0.415    -0.388  0.8695  0.2364 -0.4338
    75 H(1)   Bbb    -0.0016    -0.845    -0.301    -0.282 -0.3797  0.8815 -0.2807
              Bcc     0.0038     2.008     0.717     0.670  0.3160  0.4087  0.8562
 
              Baa    -0.0007    -0.356    -0.127    -0.119 -0.0541  0.9947 -0.0877
    76 H(1)   Bbb    -0.0006    -0.320    -0.114    -0.107 -0.4408  0.0550  0.8959
              Bcc     0.0013     0.676     0.241     0.225  0.8960  0.0871  0.4355
 

 ---------------------------------------------------------------------------------

 No NMR shielding tensors so no spin-rotation constants.
 Leave Link  601 at Fri Nov  7 03:05:27 2025, MaxMem= 30870077440 cpu:             176.3 elap:               3.1
 (Enter /public/software/gauss/g16/l9999.exe)
 1\1\GINC-CU015\SP\UM062X\def2TZVPP\C38H31B1F2N4(1-,2)\BAIDING\07-Nov-2
 025\0\\#p M062X/DEF2TZVPP scrf=(solvent=water) em=GD3\\Energy calculat
 ion for M100034873_reduced\\-1,2\C,0,8.873755,0.340013,0.085376\C,0,7.
 369445,0.219654,0.054417\C,0,6.636554,0.073116,1.237843\C,0,5.239865,-
 0.014299,1.235734\C,0,4.498632,-0.172025,2.542831\C,0,4.545321,0.04482
 ,0.007378\C,0,3.049912,-0.042083,-0.014319\C,0,2.272252,1.139994,0.031
 223\C,0,2.651942,2.525152,0.110135\C,0,4.024245,3.12989,0.180313\C,0,1
 .47194,3.256655,0.106231\C,0,0.376638,2.36677,0.024272\C,0,-1.01971,2.
 653121,-0.035102\C,0,-1.569463,3.900777,0.085136\C,0,-2.977826,4.22549
 1,0.015502\C,0,-4.001672,3.262889,-0.182239\C,0,-5.334156,3.629965,-0.
 237031\C,0,-5.705526,4.984574,-0.096118\C,0,-7.076841,5.362584,-0.1513
 82\N,0,-8.20276,5.673107,-0.196295\C,0,-4.705732,5.958529,0.101034\C,0
 ,-3.375449,5.579255,0.154836\N,0,0.887431,1.07827,-0.0183\B,0,0.052628
 ,-0.213505,0.023279\F,0,-0.859112,-0.231809,-1.056785\F,0,-0.702352,-0
 .257039,1.221489\N,0,1.014553,-1.412931,-0.057665\C,0,0.677115,-2.7578
 31,-0.152979\C,0,-0.602335,-3.391981,-0.132715\C,0,-1.856499,-2.894698
 ,0.098693\C,0,-3.07993,-3.671517,0.080114\C,0,-3.14727,-5.048636,-0.25
 5942\C,0,-4.348814,-5.734389,-0.252441\C,0,-5.546957,-5.069536,0.08585
 3\C,0,-6.783768,-5.774386,0.086327\N,0,-7.799209,-6.353194,0.086877\C,
 0,-5.506424,-3.700526,0.419021\C,0,-4.297662,-3.025661,0.412773\C,0,1.
 880327,-3.49084,-0.257379\C,0,2.960616,-2.622001,-0.208829\C,0,4.39763
 4,-3.051837,-0.283749\C,0,2.406688,-1.303585,-0.086933\C,0,5.266698,0.
 189059,-1.196327\C,0,4.557201,0.250039,-2.528827\C,0,6.664378,0.272154
 ,-1.151898\H,0,9.313013,0.107957,-0.889046\H,0,9.183911,1.358597,0.350
 695\H,0,9.313457,-0.331981,0.829345\H,0,7.164509,0.024782,2.187826\H,0
 ,3.926965,-1.106395,2.571397\H,0,5.193845,-0.176007,3.386528\H,0,3.780
 844,0.640909,2.698715\H,0,4.629153,2.899043,-0.702645\H,0,3.940924,4.2
 18523,0.251847\H,0,4.58982,2.780547,1.050308\H,0,1.399793,4.33603,0.14
 1397\H,0,-1.671505,1.802348,-0.202742\H,0,-0.909027,4.749396,0.251886\
 H,0,-3.746726,2.21445,-0.292176\H,0,-6.101693,2.87792,-0.387872\H,0,-4
 .984501,7.00146,0.209887\H,0,-2.612235,6.336895,0.307285\H,0,-0.511108
 ,-4.460957,-0.315774\H,0,-1.979617,-1.847426,0.342377\H,0,-2.246067,-5
 .586535,-0.529489\H,0,-4.37684,-6.787299,-0.513395\H,0,-6.42369,-3.182
 058,0.678269\H,0,-4.277085,-1.970816,0.670758\H,0,1.932117,-4.569067,-
 0.346931\H,0,4.920578,-2.618773,-1.142574\H,0,4.967425,-2.770279,0.607
 693\H,0,4.446397,-4.140803,-0.379544\H,0,5.275046,0.344911,-3.347927\H
 ,0,3.956739,-0.648976,-2.706887\H,0,3.870829,1.102561,-2.580785\H,0,7.
 213929,0.379422,-2.084451\\Version=ES64L-G16RevA.03\State=2-A\HF=-1910
 .5549323\S2=0.808702\S2-1=0.\S2A=0.752567\RMSD=5.433e-09\Dipole=7.6898
 274,0.8946081,0.0039752\Quadrupole=-54.6181676,7.5239062,47.0942614,-4
 .9992764,-1.6239844,4.8972621\PG=C01 [X(C38H31B1F2N4)]\\@


 IF NO USE IS MADE OF THE LABOR OF PAST AGES,
 THE WORLD MUST REMAIN ALWAYS IN THE INFANCY OF KNOWLEDGE.

                          -- CICERO
 Job cpu time:       1 days  9 hours  4 minutes 51.0 seconds.
 Elapsed time:       0 days  0 hours 31 minutes 25.0 seconds.
 File lengths (MBytes):  RWF=   3573 Int=      0 D2E=      0 Chk=    233 Scr=      1
 Normal termination of Gaussian 16 at Fri Nov  7 03:05:28 2025.
