 Entering Gaussian System, Link 0=g16
 Input=M100034618_reduced_sp.gjf
 Output=M100034618_reduced_sp.log
 Initial command:
 /public/software/gauss/g16/l1.exe "/public/home/baiding/1106_34618/tmp_M100034618_reduced_sp_1571661/Gau-1813599.inp" -scrdir="/public/home/baiding/1106_34618/tmp_M100034618_reduced_sp_1571661/"
 Entering Link 1 = /public/software/gauss/g16/l1.exe PID=   1813600.
  
 Copyright (c) 1988,1990,1992,1993,1995,1998,2003,2009,2016,
            Gaussian, Inc.  All Rights Reserved.
  
 This is part of the Gaussian(R) 16 program.  It is based on
 the Gaussian(R) 09 system (copyright 2009, Gaussian, Inc.),
 the Gaussian(R) 03 system (copyright 2003, Gaussian, Inc.),
 the Gaussian(R) 98 system (copyright 1998, Gaussian, Inc.),
 the Gaussian(R) 94 system (copyright 1995, Gaussian, Inc.),
 the Gaussian 92(TM) system (copyright 1992, Gaussian, Inc.),
 the Gaussian 90(TM) system (copyright 1990, Gaussian, Inc.),
 the Gaussian 88(TM) system (copyright 1988, Gaussian, Inc.),
 the Gaussian 86(TM) system (copyright 1986, Carnegie Mellon
 University), and the Gaussian 82(TM) system (copyright 1983,
 Carnegie Mellon University). Gaussian is a federally registered
 trademark of Gaussian, Inc.
  
 This software contains proprietary and confidential information,
 including trade secrets, belonging to Gaussian, Inc.
  
 This software is provided under written license and may be
 used, copied, transmitted, or stored only in accord with that
 written license.
  
 The following legend is applicable only to US Government
 contracts under FAR:
  
                    RESTRICTED RIGHTS LEGEND
  
 Use, reproduction and disclosure by the US Government is
 subject to restrictions as set forth in subparagraphs (a)
 and (c) of the Commercial Computer Software - Restricted
 Rights clause in FAR 52.227-19.
  
 Gaussian, Inc.
 340 Quinnipiac St., Bldg. 40, Wallingford CT 06492
  
  
 ---------------------------------------------------------------
 Warning -- This program may not be used in any manner that
 competes with the business of Gaussian, Inc. or will provide
 assistance to any competitor of Gaussian, Inc.  The licensee
 of this program is prohibited from giving any competitor of
 Gaussian, Inc. access to this program.  By using this program,
 the user acknowledges that Gaussian, Inc. is engaged in the
 business of creating and licensing software in the field of
 computational chemistry and represents and warrants to the
 licensee that it is not a competitor of Gaussian, Inc. and that
 it will not use this program in any manner prohibited above.
 ---------------------------------------------------------------
  

 Cite this work as:
 Gaussian 16, Revision A.03,
 M. J. Frisch, G. W. Trucks, H. B. Schlegel, G. E. Scuseria, 
 M. A. Robb, J. R. Cheeseman, G. Scalmani, V. Barone, 
 G. A. Petersson, H. Nakatsuji, X. Li, M. Caricato, A. V. Marenich, 
 J. Bloino, B. G. Janesko, R. Gomperts, B. Mennucci, H. P. Hratchian, 
 J. V. Ortiz, A. F. Izmaylov, J. L. Sonnenberg, D. Williams-Young, 
 F. Ding, F. Lipparini, F. Egidi, J. Goings, B. Peng, A. Petrone, 
 T. Henderson, D. Ranasinghe, V. G. Zakrzewski, J. Gao, N. Rega, 
 G. Zheng, W. Liang, M. Hada, M. Ehara, K. Toyota, R. Fukuda, 
 J. Hasegawa, M. Ishida, T. Nakajima, Y. Honda, O. Kitao, H. Nakai, 
 T. Vreven, K. Throssell, J. A. Montgomery, Jr., J. E. Peralta, 
 F. Ogliaro, M. J. Bearpark, J. J. Heyd, E. N. Brothers, K. N. Kudin, 
 V. N. Staroverov, T. A. Keith, R. Kobayashi, J. Normand, 
 K. Raghavachari, A. P. Rendell, J. C. Burant, S. S. Iyengar, 
 J. Tomasi, M. Cossi, J. M. Millam, M. Klene, C. Adamo, R. Cammi, 
 J. W. Ochterski, R. L. Martin, K. Morokuma, O. Farkas, 
 J. B. Foresman, and D. J. Fox, Gaussian, Inc., Wallingford CT, 2016.
 
 ******************************************
 Gaussian 16:  ES64L-G16RevA.03 25-Dec-2016
                 6-Nov-2025 
 ******************************************
 %nprocshared=64
 Will use up to   64 processors via shared memory.
 %mem=230GB
 %chk=M100034618_reduced.chk
 ----------------------------------------------
 #p M062X/DEF2TZVPP scrf=(solvent=water) em=GD3
 ----------------------------------------------
 1/38=1,172=1/1;
 2/12=2,17=6,18=5,40=1/2;
 3/5=44,7=202,11=2,25=1,30=1,70=2201,72=1,74=-55,124=31/1,2,3;
 4//1;
 5/5=2,38=5,53=1/2;
 6/7=2,8=2,9=2,10=2,28=1/1;
 99/5=1,9=1/99;
 Leave Link    1 at Thu Nov  6 22:21:45 2025, MaxMem= 30870077440 cpu:               7.5 elap:               0.1
 (Enter /public/software/gauss/g16/l101.exe)
 -----------------------------------------
 Energy calculation for M100034618_reduced
 -----------------------------------------
 Symbolic Z-matrix:
 Charge = -1 Multiplicity = 2
 C                     2.53422   1.62602   0.10182 
 N                     1.23167   2.124     0.13983 
 B                    -0.02651   1.24      0.0558 
 N                     0.38273  -0.24486   0.03263 
 C                     1.69664  -0.68962   0.174 
 C                     2.77896   0.22963   0.16457 
 C                     3.43386   2.7291   -0.03658 
 C                     2.65014   3.89021  -0.08466 
 C                     1.28632   3.513     0.03383 
 C                    -0.46704  -1.34805   0.1064 
 C                     0.3318   -2.50405   0.31007 
 C                     1.67611  -2.10906   0.3457 
 C                     2.83683  -3.04281   0.54716 
 C                    -0.17867  -3.91854   0.40725 
 C                    -0.29165  -4.62742  -0.95366 
 C                    -1.89793  -1.39584  -0.00246 
 C                    -2.81476  -0.45833  -0.38047 
 C                    -4.26055  -0.65613  -0.43093 
 C                    -5.07307   0.38065  -0.94717 
 C                    -6.45326   0.26177  -1.03141 
 C                    -7.08735  -0.91152  -0.59685 
 C                    -6.31176  -1.95585  -0.07449 
 C                    -4.92655  -1.82067   0.00511 
 O                    -8.45516  -0.93994  -0.71822 
 C                    -9.15584  -2.11669  -0.28 
 C                    -10.63991  -1.89129  -0.52175 
 C                    -11.48188  -3.09504  -0.08403 
 C                    -12.98287  -2.88843  -0.31641 
 C                    -13.82337  -4.0927    0.12395 
 C                    -15.31303  -3.86312  -0.1171 
 N                    -16.15351  -5.0386    0.25291 
 N                    -16.27299  -5.25149   1.4596 
 N                    -16.46512  -5.54854   2.54825 
 C                     4.18468  -0.27632   0.21601 
 C                     4.91584  -0.20349   1.40124 
 C                     6.23807  -0.67703   1.4452 
 C                     6.83214  -1.22202   0.30763 
 C                     6.08994  -1.29114  -0.8837 
 C                     4.77451  -0.82544  -0.93916 
 O                     6.7613   -1.83631  -1.94767 
 C                     6.0794   -1.94565  -3.21068 
 C                     7.02358  -2.61047  -4.21338 
 C                     7.31732  -4.06861  -3.80223 
 C                     8.52096  -4.69644  -4.51035 
 C                     6.43199  -2.5154   -5.63601 
 C                     6.49072  -1.12235  -6.27809 
 C                     5.92262  -1.09518  -7.70218 
 C                     5.99012   0.28917  -8.35115 
 O                     6.86703  -0.5612    2.65694 
 C                     8.2177   -1.04309   2.78258 
 C                     8.68176  -0.80631   4.22052 
 C                     7.7843   -1.51245   5.26201 
 C                     10.17057  -1.18549   4.37491 
 C                     11.14982  -0.23899   3.67199 
 C                     7.74775  -3.04603   5.20363 
 C                     6.84983  -3.65578   6.28776 
 C                     6.7996   -5.18454   6.23921 
 C                     4.93384   2.70518  -0.13398 
 C                     3.1647    5.30315  -0.18137 
 C                     3.4319    5.95609   1.18598 
 C                     0.20907   4.46355   0.04141 
 C                    -1.11909   4.33148   0.32769 
 C                    -2.11071   5.39975   0.28325 
 C                    -3.43685   5.12591   0.67998 
 C                    -4.4356    6.09222   0.67535 
 C                    -4.17054   7.4158    0.25478 
 C                    -2.8403    7.70232  -0.13797 
 C                    -1.85299   6.72616  -0.12774 
 N                    -5.17826   8.38558   0.1956 
 C                    -4.7629    9.78702   0.15152 
 C                    -6.38821   8.1442    0.9803 
 F                    -0.87366   1.46005   1.17319 
 F                    -0.74371   1.58288  -1.12003 
 H                     3.54848  -2.66653   1.28695 
 H                     2.48516  -4.0179    0.89514 
 H                     3.40439  -3.21465  -0.37499 
 H                     0.48595  -4.50179   1.05418 
 H                    -1.15736  -3.93512   0.89951 
 H                    -0.66205  -5.65162  -0.83363 
 H                    -0.97996  -4.09438  -1.61807 
 H                     0.68174  -4.67728  -1.4534 
 H                    -2.28413  -2.38303   0.24035 
 H                    -2.4756    0.51786  -0.70265 
 H                    -4.60032   1.29771  -1.28956 
 H                    -7.05931   1.06888  -1.43182 
 H                    -6.7748   -2.87079   0.27528 
 H                    -4.3589   -2.64505   0.42566 
 H                    -8.79672  -2.98966  -0.84031 
 H                    -8.95547  -2.28961   0.7853 
 H                    -10.9569  -0.99453   0.02508 
 H                    -10.80028  -1.69051  -1.58835 
 H                    -11.15044  -3.98985  -0.62791 
 H                    -11.30421  -3.29686   0.98092 
 H                    -13.31531  -1.99341   0.22655 
 H                    -13.16237  -2.68916  -1.38154 
 H                    -13.50555  -4.98963  -0.42132 
 H                    -13.65455  -4.2895    1.19066 
 H                    -15.66445  -2.98046   0.42747 
 H                    -15.51089  -3.70303  -1.17746 
 H                     4.47675   0.21411   2.301 
 H                     7.8485   -1.59431   0.3071 
 H                     4.20028  -0.87364  -1.8551 
 H                     5.16933  -2.54786  -3.08717 
 H                     5.78474  -0.94434  -3.54319 
 H                     7.96927  -2.04888  -4.19193 
 H                     7.49203  -4.09999  -2.72087 
 H                     6.4189   -4.67414  -3.9868 
 H                     8.68611  -5.72171  -4.16216 
 H                     8.3889   -4.73846  -5.59654 
 H                     9.43596  -4.12706  -4.30949 
 H                     6.96914  -3.21529  -6.28692 
 H                     5.38992  -2.86622  -5.61145 
 H                     5.94351  -0.39435  -5.66499 
 H                     7.53515  -0.78036  -6.29971 
 H                     6.46947  -1.81775  -8.3232 
 H                     4.87955  -1.43892  -7.68164 
 H                     5.42173   1.0267   -7.77248 
 H                     7.02442   0.64693  -8.41587 
 H                     5.57948   0.27642  -9.36657 
 H                     8.25151  -2.10927   2.5267 
 H                     8.85571  -0.50414   2.07357 
 H                     8.59565   0.27383   4.40717 
 H                     8.12647  -1.20448   6.25925 
 H                     6.76096  -1.13104   5.16084 
 H                     10.40386  -1.20101   5.44687 
 H                     10.33122  -2.20959   4.0145 
 H                     12.18542  -0.5302    3.878 
 H                     11.02221  -0.24079   2.58468 
 H                     11.01991   0.79234   4.02005 
 H                     7.38772  -3.37666   4.22017 
 H                     8.76209  -3.45191   5.31202 
 H                     7.20561  -3.33255   7.27557 
 H                     5.83327  -3.25272   6.18353 
 H                     6.15139  -5.5898    7.02377 
 H                     6.41499  -5.53834   5.27545 
 H                     7.79699  -5.61885   6.37556 
 H                     5.41573   2.50606   0.83048 
 H                     5.29298   1.93981  -0.82732 
 H                     5.30763   3.67015  -0.48733 
 H                     4.09227   5.31383  -0.76446 
 H                     2.45808   5.92586  -0.74105 
 H                     2.51646   6.00026   1.78546 
 H                     4.17523   5.38732   1.75492 
 H                     3.80821   6.97826   1.06674 
 H                     0.55615   5.46453  -0.20417 
 H                    -1.50042   3.3685    0.64318 
 H                    -3.68788   4.12061   1.01062 
 H                    -5.42862   5.80855   1.0015 
 H                    -2.56967   8.7004   -0.45979 
 H                    -0.85471   7.01059  -0.4477 
 H                    -4.17173   10.08729   1.03026 
 H                    -4.17216   9.99402  -0.74394 
 H                    -5.65322   10.41575   0.10564 
 H                    -6.1881    8.05      2.05873 
 H                    -7.07697   8.97666   0.83002 
 H                    -6.89721   7.2364    0.64792 
 
 ITRead=  0  0  0  0  0  0  0  0  0  0  0  0  0  0  0  0  0  0  0  0
 ITRead=  0  0  0  0  0  0  0  0  0  0  0  0  0  0  0  0  0  0  0  0
 ITRead=  0  0  0  0  0  0  0  0  0  0  0  0  0  0  0  0  0  0  0  0
 ITRead=  0  0  0  0  0  0  0  0  0  0  0  0  0  0  0  0  0  0  0  0
 ITRead=  0  0  0  0  0  0  0  0  0  0  0  0  0  0  0  0  0  0  0  0
 ITRead=  0  0  0  0  0  0  0  0  0  0  0  0  0  0  0  0  0  0  0  0
 ITRead=  0  0  0  0  0  0  0  0  0  0  0  0  0  0  0  0  0  0  0  0
 ITRead=  0  0  0  0  0  0  0  0  0  0  0  0  0  0  0  0
 MicOpt= -1 -1 -1 -1 -1 -1 -1 -1 -1 -1 -1 -1 -1 -1 -1 -1 -1 -1 -1 -1
 MicOpt= -1 -1 -1 -1 -1 -1 -1 -1 -1 -1 -1 -1 -1 -1 -1 -1 -1 -1 -1 -1
 MicOpt= -1 -1 -1 -1 -1 -1 -1 -1 -1 -1 -1 -1 -1 -1 -1 -1 -1 -1 -1 -1
 MicOpt= -1 -1 -1 -1 -1 -1 -1 -1 -1 -1 -1 -1 -1 -1 -1 -1 -1 -1 -1 -1
 MicOpt= -1 -1 -1 -1 -1 -1 -1 -1 -1 -1 -1 -1 -1 -1 -1 -1 -1 -1 -1 -1
 MicOpt= -1 -1 -1 -1 -1 -1 -1 -1 -1 -1 -1 -1 -1 -1 -1 -1 -1 -1 -1 -1
 MicOpt= -1 -1 -1 -1 -1 -1 -1 -1 -1 -1 -1 -1 -1 -1 -1 -1 -1 -1 -1 -1
 MicOpt= -1 -1 -1 -1 -1 -1 -1 -1 -1 -1 -1 -1 -1 -1 -1 -1
 NAtoms=    156 NQM=      156 NQMF=       0 NMMI=      0 NMMIF=      0
                NMic=       0 NMicF=      0.
                    Isotopes and Nuclear Properties:
 (Nuclear quadrupole moments (NQMom) in fm**2, nuclear magnetic moments (NMagM)
  in nuclear magnetons)

  Atom         1           2           3           4           5           6           7           8           9          10
 IAtWgt=          12          14          11          14          12          12          12          12          12          12
 AtmWgt=  12.0000000  14.0030740  11.0093053  14.0030740  12.0000000  12.0000000  12.0000000  12.0000000  12.0000000  12.0000000
 NucSpn=           0           2           3           2           0           0           0           0           0           0
 AtZEff=  -0.0000000  -0.0000000  -0.0000000  -0.0000000  -0.0000000  -0.0000000  -0.0000000  -0.0000000  -0.0000000  -0.0000000
 NQMom=    0.0000000   2.0440000   4.0590000   2.0440000   0.0000000   0.0000000   0.0000000   0.0000000   0.0000000   0.0000000
 NMagM=    0.0000000   0.4037610   2.6886370   0.4037610   0.0000000   0.0000000   0.0000000   0.0000000   0.0000000   0.0000000
 AtZNuc=   6.0000000   7.0000000   5.0000000   7.0000000   6.0000000   6.0000000   6.0000000   6.0000000   6.0000000   6.0000000

  Atom        11          12          13          14          15          16          17          18          19          20
 IAtWgt=          12          12          12          12          12          12          12          12          12          12
 AtmWgt=  12.0000000  12.0000000  12.0000000  12.0000000  12.0000000  12.0000000  12.0000000  12.0000000  12.0000000  12.0000000
 NucSpn=           0           0           0           0           0           0           0           0           0           0
 AtZEff=  -0.0000000  -0.0000000  -0.0000000  -0.0000000  -0.0000000  -0.0000000  -0.0000000  -0.0000000  -0.0000000  -0.0000000
 NQMom=    0.0000000   0.0000000   0.0000000   0.0000000   0.0000000   0.0000000   0.0000000   0.0000000   0.0000000   0.0000000
 NMagM=    0.0000000   0.0000000   0.0000000   0.0000000   0.0000000   0.0000000   0.0000000   0.0000000   0.0000000   0.0000000
 AtZNuc=   6.0000000   6.0000000   6.0000000   6.0000000   6.0000000   6.0000000   6.0000000   6.0000000   6.0000000   6.0000000

  Atom        21          22          23          24          25          26          27          28          29          30
 IAtWgt=          12          12          12          16          12          12          12          12          12          12
 AtmWgt=  12.0000000  12.0000000  12.0000000  15.9949146  12.0000000  12.0000000  12.0000000  12.0000000  12.0000000  12.0000000
 NucSpn=           0           0           0           0           0           0           0           0           0           0
 AtZEff=  -0.0000000  -0.0000000  -0.0000000  -0.0000000  -0.0000000  -0.0000000  -0.0000000  -0.0000000  -0.0000000  -0.0000000
 NQMom=    0.0000000   0.0000000   0.0000000   0.0000000   0.0000000   0.0000000   0.0000000   0.0000000   0.0000000   0.0000000
 NMagM=    0.0000000   0.0000000   0.0000000   0.0000000   0.0000000   0.0000000   0.0000000   0.0000000   0.0000000   0.0000000
 AtZNuc=   6.0000000   6.0000000   6.0000000   8.0000000   6.0000000   6.0000000   6.0000000   6.0000000   6.0000000   6.0000000

  Atom        31          32          33          34          35          36          37          38          39          40
 IAtWgt=          14          14          14          12          12          12          12          12          12          16
 AtmWgt=  14.0030740  14.0030740  14.0030740  12.0000000  12.0000000  12.0000000  12.0000000  12.0000000  12.0000000  15.9949146
 NucSpn=           2           2           2           0           0           0           0           0           0           0
 AtZEff=  -0.0000000  -0.0000000  -0.0000000  -0.0000000  -0.0000000  -0.0000000  -0.0000000  -0.0000000  -0.0000000  -0.0000000
 NQMom=    2.0440000   2.0440000   2.0440000   0.0000000   0.0000000   0.0000000   0.0000000   0.0000000   0.0000000   0.0000000
 NMagM=    0.4037610   0.4037610   0.4037610   0.0000000   0.0000000   0.0000000   0.0000000   0.0000000   0.0000000   0.0000000
 AtZNuc=   7.0000000   7.0000000   7.0000000   6.0000000   6.0000000   6.0000000   6.0000000   6.0000000   6.0000000   8.0000000

  Atom        41          42          43          44          45          46          47          48          49          50
 IAtWgt=          12          12          12          12          12          12          12          12          16          12
 AtmWgt=  12.0000000  12.0000000  12.0000000  12.0000000  12.0000000  12.0000000  12.0000000  12.0000000  15.9949146  12.0000000
 NucSpn=           0           0           0           0           0           0           0           0           0           0
 AtZEff=  -0.0000000  -0.0000000  -0.0000000  -0.0000000  -0.0000000  -0.0000000  -0.0000000  -0.0000000  -0.0000000  -0.0000000
 NQMom=    0.0000000   0.0000000   0.0000000   0.0000000   0.0000000   0.0000000   0.0000000   0.0000000   0.0000000   0.0000000
 NMagM=    0.0000000   0.0000000   0.0000000   0.0000000   0.0000000   0.0000000   0.0000000   0.0000000   0.0000000   0.0000000
 AtZNuc=   6.0000000   6.0000000   6.0000000   6.0000000   6.0000000   6.0000000   6.0000000   6.0000000   8.0000000   6.0000000

  Atom        51          52          53          54          55          56          57          58          59          60
 IAtWgt=          12          12          12          12          12          12          12          12          12          12
 AtmWgt=  12.0000000  12.0000000  12.0000000  12.0000000  12.0000000  12.0000000  12.0000000  12.0000000  12.0000000  12.0000000
 NucSpn=           0           0           0           0           0           0           0           0           0           0
 AtZEff=  -0.0000000  -0.0000000  -0.0000000  -0.0000000  -0.0000000  -0.0000000  -0.0000000  -0.0000000  -0.0000000  -0.0000000
 NQMom=    0.0000000   0.0000000   0.0000000   0.0000000   0.0000000   0.0000000   0.0000000   0.0000000   0.0000000   0.0000000
 NMagM=    0.0000000   0.0000000   0.0000000   0.0000000   0.0000000   0.0000000   0.0000000   0.0000000   0.0000000   0.0000000
 AtZNuc=   6.0000000   6.0000000   6.0000000   6.0000000   6.0000000   6.0000000   6.0000000   6.0000000   6.0000000   6.0000000

  Atom        61          62          63          64          65          66          67          68          69          70
 IAtWgt=          12          12          12          12          12          12          12          12          14          12
 AtmWgt=  12.0000000  12.0000000  12.0000000  12.0000000  12.0000000  12.0000000  12.0000000  12.0000000  14.0030740  12.0000000
 NucSpn=           0           0           0           0           0           0           0           0           2           0
 AtZEff=  -0.0000000  -0.0000000  -0.0000000  -0.0000000  -0.0000000  -0.0000000  -0.0000000  -0.0000000  -0.0000000  -0.0000000
 NQMom=    0.0000000   0.0000000   0.0000000   0.0000000   0.0000000   0.0000000   0.0000000   0.0000000   2.0440000   0.0000000
 NMagM=    0.0000000   0.0000000   0.0000000   0.0000000   0.0000000   0.0000000   0.0000000   0.0000000   0.4037610   0.0000000
 AtZNuc=   6.0000000   6.0000000   6.0000000   6.0000000   6.0000000   6.0000000   6.0000000   6.0000000   7.0000000   6.0000000

  Atom        71          72          73          74          75          76          77          78          79          80
 IAtWgt=          12          19          19           1           1           1           1           1           1           1
 AtmWgt=  12.0000000  18.9984033  18.9984033   1.0078250   1.0078250   1.0078250   1.0078250   1.0078250   1.0078250   1.0078250
 NucSpn=           0           1           1           1           1           1           1           1           1           1
 AtZEff=  -0.0000000  -0.0000000  -0.0000000  -0.0000000  -0.0000000  -0.0000000  -0.0000000  -0.0000000  -0.0000000  -0.0000000
 NQMom=    0.0000000   0.0000000   0.0000000   0.0000000   0.0000000   0.0000000   0.0000000   0.0000000   0.0000000   0.0000000
 NMagM=    0.0000000   2.6288670   2.6288670   2.7928460   2.7928460   2.7928460   2.7928460   2.7928460   2.7928460   2.7928460
 AtZNuc=   6.0000000   9.0000000   9.0000000   1.0000000   1.0000000   1.0000000   1.0000000   1.0000000   1.0000000   1.0000000

  Atom        81          82          83          84          85          86          87          88          89          90
 IAtWgt=           1           1           1           1           1           1           1           1           1           1
 AtmWgt=   1.0078250   1.0078250   1.0078250   1.0078250   1.0078250   1.0078250   1.0078250   1.0078250   1.0078250   1.0078250
 NucSpn=           1           1           1           1           1           1           1           1           1           1
 AtZEff=  -0.0000000  -0.0000000  -0.0000000  -0.0000000  -0.0000000  -0.0000000  -0.0000000  -0.0000000  -0.0000000  -0.0000000
 NQMom=    0.0000000   0.0000000   0.0000000   0.0000000   0.0000000   0.0000000   0.0000000   0.0000000   0.0000000   0.0000000
 NMagM=    2.7928460   2.7928460   2.7928460   2.7928460   2.7928460   2.7928460   2.7928460   2.7928460   2.7928460   2.7928460
 AtZNuc=   1.0000000   1.0000000   1.0000000   1.0000000   1.0000000   1.0000000   1.0000000   1.0000000   1.0000000   1.0000000

  Atom        91          92          93          94          95          96          97          98          99         100
 IAtWgt=           1           1           1           1           1           1           1           1           1           1
 AtmWgt=   1.0078250   1.0078250   1.0078250   1.0078250   1.0078250   1.0078250   1.0078250   1.0078250   1.0078250   1.0078250
 NucSpn=           1           1           1           1           1           1           1           1           1           1
 AtZEff=  -0.0000000  -0.0000000  -0.0000000  -0.0000000  -0.0000000  -0.0000000  -0.0000000  -0.0000000  -0.0000000  -0.0000000
 NQMom=    0.0000000   0.0000000   0.0000000   0.0000000   0.0000000   0.0000000   0.0000000   0.0000000   0.0000000   0.0000000
 NMagM=    2.7928460   2.7928460   2.7928460   2.7928460   2.7928460   2.7928460   2.7928460   2.7928460   2.7928460   2.7928460
 AtZNuc=   1.0000000   1.0000000   1.0000000   1.0000000   1.0000000   1.0000000   1.0000000   1.0000000   1.0000000   1.0000000

  Atom       101         102         103         104         105         106         107         108         109         110
 IAtWgt=           1           1           1           1           1           1           1           1           1           1
 AtmWgt=   1.0078250   1.0078250   1.0078250   1.0078250   1.0078250   1.0078250   1.0078250   1.0078250   1.0078250   1.0078250
 NucSpn=           1           1           1           1           1           1           1           1           1           1
 AtZEff=  -0.0000000  -0.0000000  -0.0000000  -0.0000000  -0.0000000  -0.0000000  -0.0000000  -0.0000000  -0.0000000  -0.0000000
 NQMom=    0.0000000   0.0000000   0.0000000   0.0000000   0.0000000   0.0000000   0.0000000   0.0000000   0.0000000   0.0000000
 NMagM=    2.7928460   2.7928460   2.7928460   2.7928460   2.7928460   2.7928460   2.7928460   2.7928460   2.7928460   2.7928460
 AtZNuc=   1.0000000   1.0000000   1.0000000   1.0000000   1.0000000   1.0000000   1.0000000   1.0000000   1.0000000   1.0000000

  Atom       111         112         113         114         115         116         117         118         119         120
 IAtWgt=           1           1           1           1           1           1           1           1           1           1
 AtmWgt=   1.0078250   1.0078250   1.0078250   1.0078250   1.0078250   1.0078250   1.0078250   1.0078250   1.0078250   1.0078250
 NucSpn=           1           1           1           1           1           1           1           1           1           1
 AtZEff=  -0.0000000  -0.0000000  -0.0000000  -0.0000000  -0.0000000  -0.0000000  -0.0000000  -0.0000000  -0.0000000  -0.0000000
 NQMom=    0.0000000   0.0000000   0.0000000   0.0000000   0.0000000   0.0000000   0.0000000   0.0000000   0.0000000   0.0000000
 NMagM=    2.7928460   2.7928460   2.7928460   2.7928460   2.7928460   2.7928460   2.7928460   2.7928460   2.7928460   2.7928460
 AtZNuc=   1.0000000   1.0000000   1.0000000   1.0000000   1.0000000   1.0000000   1.0000000   1.0000000   1.0000000   1.0000000

  Atom       121         122         123         124         125         126         127         128         129         130
 IAtWgt=           1           1           1           1           1           1           1           1           1           1
 AtmWgt=   1.0078250   1.0078250   1.0078250   1.0078250   1.0078250   1.0078250   1.0078250   1.0078250   1.0078250   1.0078250
 NucSpn=           1           1           1           1           1           1           1           1           1           1
 AtZEff=  -0.0000000  -0.0000000  -0.0000000  -0.0000000  -0.0000000  -0.0000000  -0.0000000  -0.0000000  -0.0000000  -0.0000000
 NQMom=    0.0000000   0.0000000   0.0000000   0.0000000   0.0000000   0.0000000   0.0000000   0.0000000   0.0000000   0.0000000
 NMagM=    2.7928460   2.7928460   2.7928460   2.7928460   2.7928460   2.7928460   2.7928460   2.7928460   2.7928460   2.7928460
 AtZNuc=   1.0000000   1.0000000   1.0000000   1.0000000   1.0000000   1.0000000   1.0000000   1.0000000   1.0000000   1.0000000

  Atom       131         132         133         134         135         136         137         138         139         140
 IAtWgt=           1           1           1           1           1           1           1           1           1           1
 AtmWgt=   1.0078250   1.0078250   1.0078250   1.0078250   1.0078250   1.0078250   1.0078250   1.0078250   1.0078250   1.0078250
 NucSpn=           1           1           1           1           1           1           1           1           1           1
 AtZEff=  -0.0000000  -0.0000000  -0.0000000  -0.0000000  -0.0000000  -0.0000000  -0.0000000  -0.0000000  -0.0000000  -0.0000000
 NQMom=    0.0000000   0.0000000   0.0000000   0.0000000   0.0000000   0.0000000   0.0000000   0.0000000   0.0000000   0.0000000
 NMagM=    2.7928460   2.7928460   2.7928460   2.7928460   2.7928460   2.7928460   2.7928460   2.7928460   2.7928460   2.7928460
 AtZNuc=   1.0000000   1.0000000   1.0000000   1.0000000   1.0000000   1.0000000   1.0000000   1.0000000   1.0000000   1.0000000

  Atom       141         142         143         144         145         146         147         148         149         150
 IAtWgt=           1           1           1           1           1           1           1           1           1           1
 AtmWgt=   1.0078250   1.0078250   1.0078250   1.0078250   1.0078250   1.0078250   1.0078250   1.0078250   1.0078250   1.0078250
 NucSpn=           1           1           1           1           1           1           1           1           1           1
 AtZEff=  -0.0000000  -0.0000000  -0.0000000  -0.0000000  -0.0000000  -0.0000000  -0.0000000  -0.0000000  -0.0000000  -0.0000000
 NQMom=    0.0000000   0.0000000   0.0000000   0.0000000   0.0000000   0.0000000   0.0000000   0.0000000   0.0000000   0.0000000
 NMagM=    2.7928460   2.7928460   2.7928460   2.7928460   2.7928460   2.7928460   2.7928460   2.7928460   2.7928460   2.7928460
 AtZNuc=   1.0000000   1.0000000   1.0000000   1.0000000   1.0000000   1.0000000   1.0000000   1.0000000   1.0000000   1.0000000

  Atom       151         152         153         154         155         156
 IAtWgt=           1           1           1           1           1           1
 AtmWgt=   1.0078250   1.0078250   1.0078250   1.0078250   1.0078250   1.0078250
 NucSpn=           1           1           1           1           1           1
 AtZEff=  -0.0000000  -0.0000000  -0.0000000  -0.0000000  -0.0000000  -0.0000000
 NQMom=    0.0000000   0.0000000   0.0000000   0.0000000   0.0000000   0.0000000
 NMagM=    2.7928460   2.7928460   2.7928460   2.7928460   2.7928460   2.7928460
 AtZNuc=   1.0000000   1.0000000   1.0000000   1.0000000   1.0000000   1.0000000
 Leave Link  101 at Thu Nov  6 22:21:45 2025, MaxMem= 30870077440 cpu:               5.6 elap:               0.1
 (Enter /public/software/gauss/g16/l202.exe)
 Stoichiometry    C61H83BF2N6O3(1-,2)
 Framework group  C1[X(C61H83BF2N6O3)]
 Deg. of freedom   462
 Full point group                 C1      NOp   1
 Largest Abelian subgroup         C1      NOp   1
 Largest concise Abelian subgroup C1      NOp   1
                         Standard orientation:                         
 ---------------------------------------------------------------------
 Center     Atomic      Atomic             Coordinates (Angstroms)
 Number     Number       Type             X           Y           Z
 ---------------------------------------------------------------------
      1          6           0       -2.534222    1.626024   -0.101819
      2          7           0       -1.231669    2.123998   -0.139833
      3          5           0        0.026505    1.240001   -0.055801
      4          7           0       -0.382725   -0.244863   -0.032627
      5          6           0       -1.696635   -0.689617   -0.174001
      6          6           0       -2.778964    0.229625   -0.164568
      7          6           0       -3.433864    2.729101    0.036583
      8          6           0       -2.650144    3.890210    0.084662
      9          6           0       -1.286321    3.512995   -0.033825
     10          6           0        0.467042   -1.348045   -0.106401
     11          6           0       -0.331801   -2.504053   -0.310071
     12          6           0       -1.676105   -2.109060   -0.345703
     13          6           0       -2.836830   -3.042813   -0.547163
     14          6           0        0.178672   -3.918543   -0.407247
     15          6           0        0.291650   -4.627421    0.953659
     16          6           0        1.897925   -1.395841    0.002455
     17          6           0        2.814759   -0.458334    0.380471
     18          6           0        4.260551   -0.656133    0.430933
     19          6           0        5.073068    0.380652    0.947168
     20          6           0        6.453257    0.261774    1.031410
     21          6           0        7.087346   -0.911522    0.596846
     22          6           0        6.311761   -1.955852    0.074486
     23          6           0        4.926545   -1.820666   -0.005113
     24          8           0        8.455163   -0.939938    0.718221
     25          6           0        9.155845   -2.116695    0.280001
     26          6           0       10.639910   -1.891290    0.521749
     27          6           0       11.481884   -3.095035    0.084033
     28          6           0       12.982867   -2.888429    0.316406
     29          6           0       13.823367   -4.092696   -0.123948
     30          6           0       15.313034   -3.863123    0.117100
     31          7           0       16.153512   -5.038598   -0.252911
     32          7           0       16.272987   -5.251489   -1.459597
     33          7           0       16.465118   -5.548541   -2.548247
     34          6           0       -4.184680   -0.276316   -0.216010
     35          6           0       -4.915837   -0.203491   -1.401238
     36          6           0       -6.238066   -0.677033   -1.445195
     37          6           0       -6.832140   -1.222023   -0.307626
     38          6           0       -6.089940   -1.291138    0.883701
     39          6           0       -4.774508   -0.825438    0.939161
     40          8           0       -6.761304   -1.836306    1.947671
     41          6           0       -6.079404   -1.945652    3.210683
     42          6           0       -7.023581   -2.610465    4.213383
     43          6           0       -7.317317   -4.068609    3.802232
     44          6           0       -8.520956   -4.696444    4.510347
     45          6           0       -6.431986   -2.515401    5.636013
     46          6           0       -6.490718   -1.122349    6.278092
     47          6           0       -5.922624   -1.095182    7.702183
     48          6           0       -5.990121    0.289165    8.351151
     49          8           0       -6.867032   -0.561198   -2.656940
     50          6           0       -8.217696   -1.043088   -2.782580
     51          6           0       -8.681755   -0.806312   -4.220521
     52          6           0       -7.784303   -1.512454   -5.262008
     53          6           0      -10.170574   -1.185489   -4.374911
     54          6           0      -11.149817   -0.238985   -3.671988
     55          6           0       -7.747752   -3.046033   -5.203632
     56          6           0       -6.849826   -3.655783   -6.287758
     57          6           0       -6.799601   -5.184536   -6.239210
     58          6           0       -4.933839    2.705181    0.133981
     59          6           0       -3.164697    5.303154    0.181372
     60          6           0       -3.431900    5.956094   -1.185984
     61          6           0       -0.209072    4.463548   -0.041412
     62          6           0        1.119085    4.331476   -0.327691
     63          6           0        2.110710    5.399750   -0.283249
     64          6           0        3.436846    5.125913   -0.679984
     65          6           0        4.435604    6.092220   -0.675347
     66          6           0        4.170544    7.415796   -0.254775
     67          6           0        2.840302    7.702316    0.137965
     68          6           0        1.852991    6.726160    0.127741
     69          7           0        5.178264    8.385584   -0.195599
     70          6           0        4.762904    9.787024   -0.151523
     71          6           0        6.388206    8.144196   -0.980295
     72          9           0        0.873657    1.460050   -1.173186
     73          9           0        0.743711    1.582876    1.120030
     74          1           0       -3.548477   -2.666525   -1.286949
     75          1           0       -2.485163   -4.017899   -0.895139
     76          1           0       -3.404387   -3.214646    0.374993
     77          1           0       -0.485951   -4.501788   -1.054183
     78          1           0        1.157362   -3.935124   -0.899512
     79          1           0        0.662050   -5.651622    0.833627
     80          1           0        0.979962   -4.094385    1.618066
     81          1           0       -0.681741   -4.677284    1.453401
     82          1           0        2.284133   -2.383026   -0.240353
     83          1           0        2.475599    0.517861    0.702653
     84          1           0        4.600321    1.297706    1.289558
     85          1           0        7.059308    1.068877    1.431816
     86          1           0        6.774801   -2.870792   -0.275276
     87          1           0        4.358896   -2.645046   -0.425656
     88          1           0        8.796721   -2.989657    0.840305
     89          1           0        8.955472   -2.289608   -0.785302
     90          1           0       10.956898   -0.994532   -0.025084
     91          1           0       10.800284   -1.690505    1.588347
     92          1           0       11.150442   -3.989851    0.627908
     93          1           0       11.304214   -3.296858   -0.980918
     94          1           0       13.315309   -1.993406   -0.226549
     95          1           0       13.162374   -2.689161    1.381536
     96          1           0       13.505548   -4.989625    0.421319
     97          1           0       13.654547   -4.289496   -1.190657
     98          1           0       15.664452   -2.980463   -0.427473
     99          1           0       15.510894   -3.703032    1.177461
    100          1           0       -4.476746    0.214110   -2.301005
    101          1           0       -7.848496   -1.594306   -0.307103
    102          1           0       -4.200278   -0.873635    1.855095
    103          1           0       -5.169328   -2.547859    3.087173
    104          1           0       -5.784735   -0.944338    3.543190
    105          1           0       -7.969267   -2.048877    4.191925
    106          1           0       -7.492032   -4.099991    2.720872
    107          1           0       -6.418903   -4.674138    3.986795
    108          1           0       -8.686113   -5.721712    4.162163
    109          1           0       -8.388901   -4.738464    5.596538
    110          1           0       -9.435962   -4.127059    4.309486
    111          1           0       -6.969141   -3.215288    6.286920
    112          1           0       -5.389917   -2.866217    5.611450
    113          1           0       -5.943512   -0.394352    5.664994
    114          1           0       -7.535153   -0.780364    6.299708
    115          1           0       -6.469466   -1.817748    8.323197
    116          1           0       -4.879549   -1.438924    7.681644
    117          1           0       -5.421731    1.026696    7.772476
    118          1           0       -7.024417    0.646934    8.415867
    119          1           0       -5.579482    0.276416    9.366573
    120          1           0       -8.251514   -2.109272   -2.526703
    121          1           0       -8.855711   -0.504136   -2.073567
    122          1           0       -8.595647    0.273825   -4.407166
    123          1           0       -8.126466   -1.204478   -6.259252
    124          1           0       -6.760960   -1.131044   -5.160844
    125          1           0      -10.403862   -1.201009   -5.446874
    126          1           0      -10.331218   -2.209589   -4.014500
    127          1           0      -12.185417   -0.530196   -3.877998
    128          1           0      -11.022206   -0.240788   -2.584675
    129          1           0      -11.019912    0.792335   -4.020049
    130          1           0       -7.387719   -3.376660   -4.220174
    131          1           0       -8.762092   -3.451905   -5.312017
    132          1           0       -7.205609   -3.332554   -7.275572
    133          1           0       -5.833274   -3.252717   -6.183529
    134          1           0       -6.151393   -5.589804   -7.023774
    135          1           0       -6.414986   -5.538341   -5.275447
    136          1           0       -7.796993   -5.618853   -6.375557
    137          1           0       -5.415725    2.506061   -0.830482
    138          1           0       -5.292979    1.939814    0.827318
    139          1           0       -5.307634    3.670149    0.487325
    140          1           0       -4.092275    5.313827    0.764459
    141          1           0       -2.458077    5.925858    0.741050
    142          1           0       -2.516464    6.000262   -1.785458
    143          1           0       -4.175227    5.387318   -1.754919
    144          1           0       -3.808214    6.978255   -1.066740
    145          1           0       -0.556147    5.464526    0.204169
    146          1           0        1.500418    3.368504   -0.643180
    147          1           0        3.687877    4.120607   -1.010618
    148          1           0        5.428623    5.808549   -1.001497
    149          1           0        2.569667    8.700405    0.459794
    150          1           0        0.854705    7.010594    0.447704
    151          1           0        4.171734   10.087288   -1.030260
    152          1           0        4.172158    9.994016    0.743939
    153          1           0        5.653221   10.415747   -0.105640
    154          1           0        6.188097    8.050001   -2.058731
    155          1           0        7.076967    8.976660   -0.830018
    156          1           0        6.897210    7.236396   -0.647924
 ---------------------------------------------------------------------
 Rotational constants (GHZ):           0.0244173           0.0090344           0.0080935
 Leave Link  202 at Thu Nov  6 22:21:45 2025, MaxMem= 30870077440 cpu:               0.2 elap:               0.0
 (Enter /public/software/gauss/g16/l301.exe)
 Standard basis: def2TZVPP (5D, 7F)
 Ernie: Thresh=  0.10000D-02 Tol=  0.10000D-05 Strict=F.
 There are  3873 symmetry adapted cartesian basis functions of A   symmetry.
 There are  3425 symmetry adapted basis functions of A   symmetry.
  3425 basis functions,  5134 primitive gaussians,  3873 cartesian basis functions
   270 alpha electrons      269 beta electrons
       nuclear repulsion energy     10737.6365008079 Hartrees.
 IExCor= 4336 DFT=T Ex+Corr=M062X ExCW=0 ScaHFX=  0.540000
 ScaDFX=  1.000000  1.000000  1.000000  1.000000 ScalE2=  1.000000  1.000000
 IRadAn=      5 IRanWt=     -1 IRanGd=            0 ICorTp=0 IEmpDi=131
 NAtoms=  156 NActive=  156 NUniq=  156 SFac= 1.00D+00 NAtFMM=   60 NAOKFM=T Big=T
 Integral buffers will be    131072 words long.
 Raffenetti 2 integral format.
 Two-electron integral symmetry is turned on.
 R6Disp:  Grimme-D3 Dispersion energy=       -0.0139438110 Hartrees.
 Nuclear repulsion after empirical dispersion term =    10737.6225569968 Hartrees.
 ------------------------------------------------------------------------------
 Polarizable Continuum Model (PCM)
 =================================
 Model                : PCM.
 Atomic radii         : UFF (Universal Force Field).
 Polarization charges : Total charges.
 Charge compensation  : None.
 Solution method      : On-the-fly selection.
 Cavity type          : Scaled VdW (van der Waals Surface) (Alpha=1.100).
 Cavity algorithm     : GePol (No added spheres)
                        Default sphere list used, NSphG=  156.
                        Lebedev-Laikov grids with approx.  5.0 points / Ang**2.
                        Smoothing algorithm: York/Karplus (Gamma=1.0000).
                        Polarization charges: spherical gaussians, with
                                              point-specific exponents (IZeta= 3).
                        Self-potential: point-specific (ISelfS= 7).
                        Self-field    : sphere-specific E.n sum rule (ISelfD= 2).
 Solvent              : Water, Eps=  78.355300 Eps(inf)=   1.777849
 ------------------------------------------------------------------------------
 GePol: Number of generator spheres                  =     156
 GePol: Total number of spheres                      =     156
 GePol: Number of exposed spheres                    =     156 (100.00%)
 GePol: Number of points                             =   10243
 GePol: Average weight of points                     =       0.13
 GePol: Minimum weight of points                     =   0.22D-11
 GePol: Maximum weight of points                     =    0.20577
 GePol: Number of points with low weight             =     729
 GePol: Fraction of low-weight points (<1% of avg)   =       7.12%
 GePol: Cavity surface area                          =   1305.175 Ang**2
 GePol: Cavity volume                                =   1483.007 Ang**3
 Leave Link  301 at Thu Nov  6 22:21:45 2025, MaxMem= 30870077440 cpu:               4.8 elap:               0.1
 (Enter /public/software/gauss/g16/l302.exe)
 NPDir=0 NMtPBC=     1 NCelOv=     1 NCel=       1 NClECP=     1 NCelD=      1
         NCelK=      1 NCelE2=     1 NClLst=     1 CellRange=     0.0.
 One-electron integrals computed using PRISM.
 One-electron integral symmetry used in STVInt
   1 Symmetry operations used in ECPInt.
 ECPInt:  NShTT=  846951 NPrTT= 2258605 LenC2=  365320 LenP2D=  647755.
 LDataN:  DoStor=T MaxTD1= 6 Len=  172
 Number of processors reduced to  49 by ecpmxn.
 NBasis=  3425 RedAO= T EigKep=  3.26D-06  NBF=  3425
 NBsUse=  3425 1.00D-06 EigRej= -1.00D+00 NBFU=  3425
 Precomputing XC quadrature grid using
 IXCGrd= 4 IRadAn=           5 IRanWt=          -1 IRanGd=           0 AccXCQ= 0.00D+00.
 Generated NRdTot=       0 NPtTot=           0 NUsed=           0 NTot=          32
 NSgBfM=  2906  2890  2893  2899  2906 MxSgAt=   156 MxSgA2=   156.
 Leave Link  302 at Thu Nov  6 22:22:36 2025, MaxMem= 30870077440 cpu:            3263.5 elap:              51.2
 (Enter /public/software/gauss/g16/l303.exe)
 DipDrv:  MaxL=1.
 Leave Link  303 at Thu Nov  6 22:22:38 2025, MaxMem= 30870077440 cpu:              81.2 elap:               1.4
 (Enter /public/software/gauss/g16/l401.exe)
 ExpMin= 6.06D-02 ExpMax= 3.55D+04 ExpMxC= 1.21D+03 IAcc=3 IRadAn=         5 AccDes= 0.00D+00
 Harris functional with IExCor= 1009 and IRadAn=       5 diagonalized for initial guess.
 HarFok:  IExCor= 1009 AccDes= 0.00D+00 IRadAn=         5 IDoV= 1 UseB2=F ITyADJ=14
 ICtDFT=  3500011 ScaDFX=  1.000000  1.000000  1.000000  1.000000
 FoFCou: FMM=F IPFlag=           0 FMFlag=      100000 FMFlg1=        2001
         NFxFlg=           0 DoJE=T BraDBF=F KetDBF=T FulRan=T
         wScrn=  0.000000 ICntrl=       500 IOpCl=  0 I1Cent=   200000004 NGrid=           0
         NMat0=    1 NMatS0=      1 NMatT0=    0 NMatD0=    1 NMtDS0=    0 NMtDT0=    0
 Petite list used in FoFCou.
 Harris En= -3152.13070809172    
 JPrj=0 DoOrth=F DoCkMO=F.
 Initial guess <Sx>= 0.0000 <Sy>= 0.0000 <Sz>= 0.5000 <S**2>= 0.7500 S= 0.5000
 Leave Link  401 at Thu Nov  6 22:23:15 2025, MaxMem= 30870077440 cpu:            2375.1 elap:              37.3
 (Enter /public/software/gauss/g16/l502.exe)
 Integral symmetry usage will be decided dynamically.
 UHF open shell SCF:
 Using DIIS extrapolation, IDIIS=  1040.
 NGot= 30870077440 LenX= 30839796338 LenY= 30824792336
 Requested convergence on RMS density matrix=1.00D-08 within 128 cycles.
 Requested convergence on MAX density matrix=1.00D-06.
 Requested convergence on             energy=1.00D-06.
 No special actions if energy rises.
 Fock matrices will be formed incrementally for  20 cycles.

 Cycle   1  Pass 1  IDiag  1:
 FoFJK:  IHMeth= 1 ICntrl=       0 DoSepK=F KAlg= 0 I1Cent=           0 FoldK=F
 IRaf= 380000000 NMat=       1 IRICut=       1 DoRegI=T DoRafI=F ISym2E= 0 IDoP0=0 IntGTp=1.
 FoFCou: FMM=T IPFlag=           0 FMFlag=      100000 FMFlg1=        2001
         NFxFlg=           0 DoJE=F BraDBF=F KetDBF=F FulRan=T
         wScrn=  0.000000 ICntrl=         0 IOpCl=  1 I1Cent=           0 NGrid=           0
         NMat0=    1 NMatS0=      1 NMatT0=    0 NMatD0=    1 NMtDS0=    0 NMtDT0=    0
 Symmetry not used in FoFCou.
 FMM levels:  10  Number of levels for PrismC:   9
 Inv3:  Mode=1 IEnd=   314757147.
 Iteration    1 A*A^-1 deviation from unit magnitude is 2.79D-14 for  10222.
 Iteration    1 A*A^-1 deviation from orthogonality  is 8.53D-15 for  10237   8955.
 Iteration    1 A^-1*A deviation from unit magnitude is 2.79D-14 for  10222.
 Iteration    1 A^-1*A deviation from orthogonality  is 5.75D-15 for   6650   4667.
 E= -3151.22425191129    
 DIIS: error= 1.83D-02 at cycle   1 NSaved=   1.
 NSaved= 1 IEnMin= 1 EnMin= -3151.22425191129     IErMin= 1 ErrMin= 1.83D-02
 ErrMax= 1.83D-02  0.00D+00 EMaxC= 1.00D-01 BMatC= 9.80D+00 BMatP= 9.80D+00
 IDIUse=3 WtCom= 8.17D-01 WtEn= 1.83D-01
 Coeff-Com:  0.100D+01
 Coeff-En:   0.100D+01
 Coeff:      0.100D+01
 Gap=     0.143 Goal=   None    Shift=    0.000
 Gap=     0.136 Goal=   None    Shift=    0.000
 GapD=    0.136 DampG=1.000 DampE=0.500 DampFc=0.5000 IDamp=-1.
 Damping current iteration by 5.00D-01
 RMSDP=1.07D-03 MaxDP=2.55D-01              OVMax= 1.71D-01

 Cycle   2  Pass 1  IDiag  1:
 RMSU=  5.35D-04    CP:  9.85D-01
 E= -3152.31818928703     Delta-E=       -1.093937375743 Rises=F Damp=T
 DIIS: error= 5.05D-03 at cycle   2 NSaved=   2.
 NSaved= 2 IEnMin= 2 EnMin= -3152.31818928703     IErMin= 2 ErrMin= 5.05D-03
 ErrMax= 5.05D-03  0.00D+00 EMaxC= 1.00D-01 BMatC= 7.96D-01 BMatP= 9.80D+00
 IDIUse=3 WtCom= 9.50D-01 WtEn= 5.05D-02
 Coeff-Com: -0.152D+00 0.115D+01
 Coeff-En:   0.000D+00 0.100D+01
 Coeff:     -0.144D+00 0.114D+01
 Gap=     0.170 Goal=   None    Shift=    0.000
 Gap=     0.215 Goal=   None    Shift=    0.000
 RMSDP=4.78D-04 MaxDP=2.44D-01 DE=-1.09D+00 OVMax= 9.25D-02

 Cycle   3  Pass 1  IDiag  1:
 RMSU=  4.41D-04    CP:  9.86D-01  1.34D+00
 E= -3153.29036811470     Delta-E=       -0.972178827662 Rises=F Damp=F
 DIIS: error= 3.39D-03 at cycle   3 NSaved=   3.
 NSaved= 3 IEnMin= 3 EnMin= -3153.29036811470     IErMin= 3 ErrMin= 3.39D-03
 ErrMax= 3.39D-03  0.00D+00 EMaxC= 1.00D-01 BMatC= 2.10D-01 BMatP= 7.96D-01
 IDIUse=3 WtCom= 9.66D-01 WtEn= 3.39D-02
 Coeff-Com: -0.103D+00 0.399D+00 0.704D+00
 Coeff-En:   0.000D+00 0.000D+00 0.100D+01
 Coeff:     -0.996D-01 0.386D+00 0.714D+00
 Gap=     0.140 Goal=   None    Shift=    0.000
 Gap=     0.134 Goal=   None    Shift=    0.000
 RMSDP=1.34D-04 MaxDP=5.39D-02 DE=-9.72D-01 OVMax= 4.83D-02

 Cycle   4  Pass 1  IDiag  1:
 RMSU=  1.26D-04    CP:  9.80D-01  1.29D+00  9.28D-01
 E= -3153.32333538542     Delta-E=       -0.032967270723 Rises=F Damp=F
 DIIS: error= 2.21D-03 at cycle   4 NSaved=   4.
 NSaved= 4 IEnMin= 4 EnMin= -3153.32333538542     IErMin= 4 ErrMin= 2.21D-03
 ErrMax= 2.21D-03  0.00D+00 EMaxC= 1.00D-01 BMatC= 6.36D-02 BMatP= 2.10D-01
 IDIUse=3 WtCom= 9.78D-01 WtEn= 2.21D-02
 Coeff-Com: -0.380D-01 0.986D-01 0.391D+00 0.548D+00
 Coeff-En:   0.000D+00 0.000D+00 0.202D+00 0.798D+00
 Coeff:     -0.371D-01 0.964D-01 0.387D+00 0.554D+00
 Gap=     0.141 Goal=   None    Shift=    0.000
 Gap=     0.136 Goal=   None    Shift=    0.000
 RMSDP=5.79D-05 MaxDP=4.74D-02 DE=-3.30D-02 OVMax= 2.09D-02

 Cycle   5  Pass 1  IDiag  1:
 RMSU=  3.85D-05    CP:  9.82D-01  1.33D+00  9.63D-01  7.28D-01
 E= -3153.33622246726     Delta-E=       -0.012887081837 Rises=F Damp=F
 DIIS: error= 6.24D-04 at cycle   5 NSaved=   5.
 NSaved= 5 IEnMin= 5 EnMin= -3153.33622246726     IErMin= 5 ErrMin= 6.24D-04
 ErrMax= 6.24D-04  0.00D+00 EMaxC= 1.00D-01 BMatC= 2.95D-03 BMatP= 6.36D-02
 IDIUse=3 WtCom= 9.94D-01 WtEn= 6.24D-03
 Coeff-Com: -0.109D-01 0.222D-01 0.138D+00 0.258D+00 0.592D+00
 Coeff-En:   0.000D+00 0.000D+00 0.000D+00 0.000D+00 0.100D+01
 Coeff:     -0.108D-01 0.220D-01 0.137D+00 0.257D+00 0.595D+00
 Gap=     0.141 Goal=   None    Shift=    0.000
 Gap=     0.138 Goal=   None    Shift=    0.000
 RMSDP=1.46D-05 MaxDP=1.10D-02 DE=-1.29D-02 OVMax= 9.04D-03

 Cycle   6  Pass 1  IDiag  1:
 RMSU=  1.24D-05    CP:  9.82D-01  1.33D+00  9.66D-01  7.34D-01  1.19D+00
 E= -3153.33686401923     Delta-E=       -0.000641551977 Rises=F Damp=F
 DIIS: error= 3.98D-04 at cycle   6 NSaved=   6.
 NSaved= 6 IEnMin= 6 EnMin= -3153.33686401923     IErMin= 6 ErrMin= 3.98D-04
 ErrMax= 3.98D-04  0.00D+00 EMaxC= 1.00D-01 BMatC= 6.59D-04 BMatP= 2.95D-03
 IDIUse=3 WtCom= 9.96D-01 WtEn= 3.98D-03
 Coeff-Com: -0.122D-02 0.211D-03 0.293D-01 0.756D-01 0.341D+00 0.555D+00
 Coeff-En:   0.000D+00 0.000D+00 0.000D+00 0.000D+00 0.000D+00 0.100D+01
 Coeff:     -0.122D-02 0.210D-03 0.292D-01 0.753D-01 0.340D+00 0.556D+00
 Gap=     0.142 Goal=   None    Shift=    0.000
 Gap=     0.139 Goal=   None    Shift=    0.000
 RMSDP=9.83D-06 MaxDP=9.59D-03 DE=-6.42D-04 OVMax= 5.35D-03

 Cycle   7  Pass 1  IDiag  1:
 RMSU=  5.75D-06    CP:  9.82D-01  1.33D+00  9.71D-01  7.48D-01  1.36D+00
                    CP:  1.26D+00
 E= -3153.33705755366     Delta-E=       -0.000193534428 Rises=F Damp=F
 DIIS: error= 1.27D-04 at cycle   7 NSaved=   7.
 NSaved= 7 IEnMin= 7 EnMin= -3153.33705755366     IErMin= 7 ErrMin= 1.27D-04
 ErrMax= 1.27D-04  0.00D+00 EMaxC= 1.00D-01 BMatC= 1.23D-04 BMatP= 6.59D-04
 IDIUse=3 WtCom= 9.99D-01 WtEn= 1.27D-03
 Coeff-Com:  0.236D-02-0.587D-02-0.230D-01-0.338D-01 0.975D-02 0.285D+00
 Coeff-Com:  0.765D+00
 Coeff-En:   0.000D+00 0.000D+00 0.000D+00 0.000D+00 0.000D+00 0.000D+00
 Coeff-En:   0.100D+01
 Coeff:      0.235D-02-0.586D-02-0.230D-01-0.337D-01 0.974D-02 0.285D+00
 Coeff:      0.766D+00
 Gap=     0.144 Goal=   None    Shift=    0.000
 Gap=     0.140 Goal=   None    Shift=    0.000
 RMSDP=1.05D-05 MaxDP=1.09D-02 DE=-1.94D-04 OVMax= 4.44D-03

 Cycle   8  Pass 1  IDiag  1:
 RMSU=  3.23D-06    CP:  9.82D-01  1.33D+00  9.77D-01  7.59D-01  1.55D+00
                    CP:  1.63D+00  1.66D+00
 E= -3153.33713745699     Delta-E=       -0.000079903335 Rises=F Damp=F
 DIIS: error= 3.84D-05 at cycle   8 NSaved=   8.
 NSaved= 8 IEnMin= 8 EnMin= -3153.33713745699     IErMin= 8 ErrMin= 3.84D-05
 ErrMax= 3.84D-05  0.00D+00 EMaxC= 1.00D-01 BMatC= 2.64D-05 BMatP= 1.23D-04
 IDIUse=1 WtCom= 1.00D+00 WtEn= 0.00D+00
 Coeff-Com:  0.117D-02-0.214D-02-0.166D-01-0.353D-01-0.103D+00-0.694D-01
 Coeff-Com:  0.262D+00 0.963D+00
 Coeff:      0.117D-02-0.214D-02-0.166D-01-0.353D-01-0.103D+00-0.694D-01
 Coeff:      0.262D+00 0.963D+00
 Gap=     0.145 Goal=   None    Shift=    0.000
 Gap=     0.141 Goal=   None    Shift=    0.000
 RMSDP=8.47D-06 MaxDP=8.44D-03 DE=-7.99D-05 OVMax= 4.10D-03

 Cycle   9  Pass 1  IDiag  1:
 RMSU=  1.97D-06    CP:  9.82D-01  1.34D+00  9.80D-01  7.69D-01  1.69D+00
                    CP:  1.97D+00  2.23D+00  1.58D+00
 E= -3153.33716959251     Delta-E=       -0.000032135513 Rises=F Damp=F
 DIIS: error= 1.68D-05 at cycle   9 NSaved=   9.
 NSaved= 9 IEnMin= 9 EnMin= -3153.33716959251     IErMin= 9 ErrMin= 1.68D-05
 ErrMax= 1.68D-05  0.00D+00 EMaxC= 1.00D-01 BMatC= 7.41D-06 BMatP= 2.64D-05
 IDIUse=1 WtCom= 1.00D+00 WtEn= 0.00D+00
 Coeff-Com: -0.213D-03 0.815D-03-0.169D-03-0.491D-02-0.434D-01-0.103D+00
 Coeff-Com: -0.100D+00 0.382D+00 0.869D+00
 Coeff:     -0.213D-03 0.815D-03-0.169D-03-0.491D-02-0.434D-01-0.103D+00
 Coeff:     -0.100D+00 0.382D+00 0.869D+00
 Gap=     0.145 Goal=   None    Shift=    0.000
 Gap=     0.142 Goal=   None    Shift=    0.000
 RMSDP=4.53D-06 MaxDP=5.11D-03 DE=-3.21D-05 OVMax= 2.36D-03

 Cycle  10  Pass 1  IDiag  1:
 RMSU=  1.02D-06    CP:  9.82D-01  1.34D+00  9.83D-01  7.71D-01  1.76D+00
                    CP:  2.13D+00  2.60D+00  2.01D+00  1.39D+00
 E= -3153.33717717773     Delta-E=       -0.000007585224 Rises=F Damp=F
 DIIS: error= 9.27D-06 at cycle  10 NSaved=  10.
 NSaved=10 IEnMin=10 EnMin= -3153.33717717773     IErMin=10 ErrMin= 9.27D-06
 ErrMax= 9.27D-06  0.00D+00 EMaxC= 1.00D-01 BMatC= 1.94D-06 BMatP= 7.41D-06
 IDIUse=1 WtCom= 1.00D+00 WtEn= 0.00D+00
 Coeff-Com: -0.451D-03 0.104D-02 0.480D-02 0.796D-02 0.855D-02-0.292D-01
 Coeff-Com: -0.121D+00-0.823D-01 0.392D+00 0.818D+00
 Coeff:     -0.451D-03 0.104D-02 0.480D-02 0.796D-02 0.855D-02-0.292D-01
 Coeff:     -0.121D+00-0.823D-01 0.392D+00 0.818D+00
 Gap=     0.145 Goal=   None    Shift=    0.000
 Gap=     0.142 Goal=   None    Shift=    0.000
 RMSDP=1.74D-06 MaxDP=1.52D-03 DE=-7.59D-06 OVMax= 1.13D-03

 Cycle  11  Pass 1  IDiag  1:
 RMSU=  4.38D-07    CP:  9.82D-01  1.34D+00  9.83D-01  7.73D-01  1.79D+00
                    CP:  2.19D+00  2.74D+00  2.20D+00  1.67D+00  1.29D+00
 E= -3153.33717882667     Delta-E=       -0.000001648934 Rises=F Damp=F
 DIIS: error= 4.41D-06 at cycle  11 NSaved=  11.
 NSaved=11 IEnMin=11 EnMin= -3153.33717882667     IErMin=11 ErrMin= 4.41D-06
 ErrMax= 4.41D-06  0.00D+00 EMaxC= 1.00D-01 BMatC= 3.33D-07 BMatP= 1.94D-06
 IDIUse=1 WtCom= 1.00D+00 WtEn= 0.00D+00
 Coeff-Com: -0.124D-03 0.248D-03 0.174D-02 0.367D-02 0.968D-02 0.381D-02
 Coeff-Com: -0.299D-01-0.806D-01-0.152D-02 0.305D+00 0.788D+00
 Coeff:     -0.124D-03 0.248D-03 0.174D-02 0.367D-02 0.968D-02 0.381D-02
 Coeff:     -0.299D-01-0.806D-01-0.152D-02 0.305D+00 0.788D+00
 Gap=     0.145 Goal=   None    Shift=    0.000
 Gap=     0.142 Goal=   None    Shift=    0.000
 RMSDP=5.41D-07 MaxDP=5.47D-04 DE=-1.65D-06 OVMax= 4.35D-04

 Cycle  12  Pass 1  IDiag  1:
 RMSU=  2.45D-07    CP:  9.82D-01  1.34D+00  9.84D-01  7.73D-01  1.79D+00
                    CP:  2.20D+00  2.78D+00  2.25D+00  1.76D+00  1.52D+00
                    CP:  1.26D+00
 E= -3153.33717916483     Delta-E=       -0.000000338165 Rises=F Damp=F
 DIIS: error= 2.63D-06 at cycle  12 NSaved=  12.
 NSaved=12 IEnMin=12 EnMin= -3153.33717916483     IErMin=12 ErrMin= 2.63D-06
 ErrMax= 2.63D-06  0.00D+00 EMaxC= 1.00D-01 BMatC= 9.36D-08 BMatP= 3.33D-07
 IDIUse=1 WtCom= 1.00D+00 WtEn= 0.00D+00
 Coeff-Com:  0.659D-04-0.161D-03-0.573D-03-0.714D-03 0.943D-03 0.646D-02
 Coeff-Com:  0.160D-01-0.856D-05-0.941D-01-0.765D-01 0.258D+00 0.891D+00
 Coeff:      0.659D-04-0.161D-03-0.573D-03-0.714D-03 0.943D-03 0.646D-02
 Coeff:      0.160D-01-0.856D-05-0.941D-01-0.765D-01 0.258D+00 0.891D+00
 Gap=     0.145 Goal=   None    Shift=    0.000
 Gap=     0.142 Goal=   None    Shift=    0.000
 RMSDP=2.82D-07 MaxDP=1.13D-04 DE=-3.38D-07 OVMax= 3.34D-04

 Cycle  13  Pass 1  IDiag  1:
 RMSU=  1.37D-07    CP:  9.82D-01  1.34D+00  9.84D-01  7.74D-01  1.79D+00
                    CP:  2.20D+00  2.79D+00  2.26D+00  1.79D+00  1.63D+00
                    CP:  1.64D+00  1.35D+00
 E= -3153.33717931822     Delta-E=       -0.000000153390 Rises=F Damp=F
 DIIS: error= 2.06D-06 at cycle  13 NSaved=  13.
 NSaved=13 IEnMin=13 EnMin= -3153.33717931822     IErMin=13 ErrMin= 2.06D-06
 ErrMax= 2.06D-06  0.00D+00 EMaxC= 1.00D-01 BMatC= 3.71D-08 BMatP= 9.36D-08
 IDIUse=1 WtCom= 1.00D+00 WtEn= 0.00D+00
 Coeff-Com:  0.644D-04-0.139D-03-0.800D-03-0.153D-02-0.272D-02 0.878D-03
 Coeff-Com:  0.155D-01 0.291D-01-0.408D-01-0.127D+00-0.171D+00 0.329D+00
 Coeff-Com:  0.969D+00
 Coeff:      0.644D-04-0.139D-03-0.800D-03-0.153D-02-0.272D-02 0.878D-03
 Coeff:      0.155D-01 0.291D-01-0.408D-01-0.127D+00-0.171D+00 0.329D+00
 Coeff:      0.969D+00
 Gap=     0.145 Goal=   None    Shift=    0.000
 Gap=     0.142 Goal=   None    Shift=    0.000
 RMSDP=2.44D-07 MaxDP=1.85D-04 DE=-1.53D-07 OVMax= 2.67D-04

 Cycle  14  Pass 1  IDiag  1:
 RMSU=  8.04D-08    CP:  9.82D-01  1.34D+00  9.84D-01  7.73D-01  1.79D+00
                    CP:  2.21D+00  2.79D+00  2.27D+00  1.81D+00  1.74D+00
                    CP:  1.84D+00  1.91D+00  1.56D+00
 E= -3153.33717939629     Delta-E=       -0.000000078066 Rises=F Damp=F
 DIIS: error= 9.89D-07 at cycle  14 NSaved=  14.
 NSaved=14 IEnMin=14 EnMin= -3153.33717939629     IErMin=14 ErrMin= 9.89D-07
 ErrMax= 9.89D-07  0.00D+00 EMaxC= 1.00D-01 BMatC= 1.59D-08 BMatP= 3.71D-08
 IDIUse=1 WtCom= 1.00D+00 WtEn= 0.00D+00
 Coeff-Com:  0.217D-05 0.142D-05-0.137D-03-0.435D-03-0.156D-02-0.235D-02
 Coeff-Com:  0.317D-03 0.143D-01 0.186D-01-0.289D-01-0.189D+00-0.204D+00
 Coeff-Com:  0.491D+00 0.901D+00
 Coeff:      0.217D-05 0.142D-05-0.137D-03-0.435D-03-0.156D-02-0.235D-02
 Coeff:      0.317D-03 0.143D-01 0.186D-01-0.289D-01-0.189D+00-0.204D+00
 Coeff:      0.491D+00 0.901D+00
 Gap=     0.145 Goal=   None    Shift=    0.000
 Gap=     0.142 Goal=   None    Shift=    0.000
 RMSDP=1.59D-07 MaxDP=5.38D-05 DE=-7.81D-08 OVMax= 2.00D-04

 Cycle  15  Pass 1  IDiag  1:
 RMSU=  3.91D-08    CP:  9.82D-01  1.34D+00  9.84D-01  7.73D-01  1.79D+00
                    CP:  2.21D+00  2.80D+00  2.27D+00  1.82D+00  1.77D+00
                    CP:  2.02D+00  2.17D+00  2.24D+00  1.47D+00
 E= -3153.33717942559     Delta-E=       -0.000000029302 Rises=F Damp=F
 DIIS: error= 4.73D-07 at cycle  15 NSaved=  15.
 NSaved=15 IEnMin=15 EnMin= -3153.33717942559     IErMin=15 ErrMin= 4.73D-07
 ErrMax= 4.73D-07  0.00D+00 EMaxC= 1.00D-01 BMatC= 3.88D-09 BMatP= 1.59D-08
 IDIUse=1 WtCom= 1.00D+00 WtEn= 0.00D+00
 Coeff-Com: -0.226D-04 0.515D-04 0.242D-03 0.373D-03 0.362D-03-0.124D-02
 Coeff-Com: -0.572D-02-0.555D-02 0.226D-01 0.350D-01-0.759D-02-0.203D+00
 Coeff-Com: -0.160D+00 0.354D+00 0.970D+00
 Coeff:     -0.226D-04 0.515D-04 0.242D-03 0.373D-03 0.362D-03-0.124D-02
 Coeff:     -0.572D-02-0.555D-02 0.226D-01 0.350D-01-0.759D-02-0.203D+00
 Coeff:     -0.160D+00 0.354D+00 0.970D+00
 Gap=     0.145 Goal=   None    Shift=    0.000
 Gap=     0.142 Goal=   None    Shift=    0.000
 RMSDP=9.92D-08 MaxDP=7.33D-05 DE=-2.93D-08 OVMax= 9.63D-05

 Cycle  16  Pass 1  IDiag  1:
 RMSU=  1.81D-08    CP:  9.82D-01  1.34D+00  9.84D-01  7.73D-01  1.79D+00
                    CP:  2.21D+00  2.80D+00  2.27D+00  1.83D+00  1.79D+00
                    CP:  2.08D+00  2.35D+00  2.57D+00  1.99D+00  1.45D+00
 E= -3153.33717943259     Delta-E=       -0.000000007003 Rises=F Damp=F
 DIIS: error= 2.07D-07 at cycle  16 NSaved=  16.
 NSaved=16 IEnMin=16 EnMin= -3153.33717943259     IErMin=16 ErrMin= 2.07D-07
 ErrMax= 2.07D-07  0.00D+00 EMaxC= 1.00D-01 BMatC= 7.75D-10 BMatP= 3.88D-09
 IDIUse=1 WtCom= 1.00D+00 WtEn= 0.00D+00
 Coeff-Com: -0.718D-05 0.156D-04 0.110D-03 0.207D-03 0.406D-03 0.504D-04
 Coeff-Com: -0.211D-02-0.488D-02 0.451D-02 0.176D-01 0.383D-01-0.282D-01
 Coeff-Com: -0.156D+00-0.746D-01 0.333D+00 0.872D+00
 Coeff:     -0.718D-05 0.156D-04 0.110D-03 0.207D-03 0.406D-03 0.504D-04
 Coeff:     -0.211D-02-0.488D-02 0.451D-02 0.176D-01 0.383D-01-0.282D-01
 Coeff:     -0.156D+00-0.746D-01 0.333D+00 0.872D+00
 Gap=     0.145 Goal=   None    Shift=    0.000
 Gap=     0.142 Goal=   None    Shift=    0.000
 RMSDP=3.23D-08 MaxDP=1.94D-05 DE=-7.00D-09 OVMax= 2.72D-05

 Cycle  17  Pass 1  IDiag  1:
 RMSU=  9.62D-09    CP:  9.82D-01  1.34D+00  9.84D-01  7.73D-01  1.79D+00
                    CP:  2.21D+00  2.80D+00  2.27D+00  1.83D+00  1.79D+00
                    CP:  2.10D+00  2.38D+00  2.69D+00  2.14D+00  1.74D+00
                    CP:  1.37D+00
 E= -3153.33717943402     Delta-E=       -0.000000001426 Rises=F Damp=F
 DIIS: error= 1.22D-07 at cycle  17 NSaved=  17.
 NSaved=17 IEnMin=17 EnMin= -3153.33717943402     IErMin=17 ErrMin= 1.22D-07
 ErrMax= 1.22D-07  0.00D+00 EMaxC= 1.00D-01 BMatC= 1.78D-10 BMatP= 7.75D-10
 IDIUse=1 WtCom= 1.00D+00 WtEn= 0.00D+00
 Coeff-Com:  0.219D-05-0.505D-05-0.712D-05 0.183D-05 0.699D-04 0.302D-03
 Coeff-Com:  0.365D-03-0.795D-03-0.289D-02-0.102D-02 0.167D-01 0.321D-01
 Coeff-Com: -0.203D-01-0.101D+00-0.855D-01 0.341D+00 0.821D+00
 Coeff:      0.219D-05-0.505D-05-0.712D-05 0.183D-05 0.699D-04 0.302D-03
 Coeff:      0.365D-03-0.795D-03-0.289D-02-0.102D-02 0.167D-01 0.321D-01
 Coeff:     -0.203D-01-0.101D+00-0.855D-01 0.341D+00 0.821D+00
 Gap=     0.145 Goal=   None    Shift=    0.000
 Gap=     0.142 Goal=   None    Shift=    0.000
 RMSDP=1.01D-08 MaxDP=5.07D-06 DE=-1.43D-09 OVMax= 7.56D-06

 Cycle  18  Pass 1  IDiag  1:
 RMSU=  4.31D-09    CP:  9.82D-01  1.34D+00  9.84D-01  7.73D-01  1.79D+00
                    CP:  2.21D+00  2.80D+00  2.27D+00  1.83D+00  1.79D+00
                    CP:  2.10D+00  2.38D+00  2.71D+00  2.17D+00  1.83D+00
                    CP:  1.65D+00  1.36D+00
 E= -3153.33717943369     Delta-E=        0.000000000322 Rises=F Damp=F
 DIIS: error= 6.23D-08 at cycle  18 NSaved=  18.
 NSaved=18 IEnMin=17 EnMin= -3153.33717943402     IErMin=18 ErrMin= 6.23D-08
 ErrMax= 6.23D-08  0.00D+00 EMaxC= 1.00D-01 BMatC= 3.54D-11 BMatP= 1.78D-10
 IDIUse=1 WtCom= 1.00D+00 WtEn= 0.00D+00
 Coeff-Com:  0.194D-05-0.434D-05-0.205D-04-0.319D-04-0.436D-04 0.118D-03
 Coeff-Com:  0.493D-03 0.481D-03-0.173D-02-0.335D-02-0.126D-06 0.164D-01
 Coeff-Com:  0.181D-01-0.252D-01-0.910D-01-0.122D-01 0.322D+00 0.776D+00
 Coeff:      0.194D-05-0.434D-05-0.205D-04-0.319D-04-0.436D-04 0.118D-03
 Coeff:      0.493D-03 0.481D-03-0.173D-02-0.335D-02-0.126D-06 0.164D-01
 Coeff:      0.181D-01-0.252D-01-0.910D-01-0.122D-01 0.322D+00 0.776D+00
 Gap=     0.145 Goal=   None    Shift=    0.000
 Gap=     0.142 Goal=   None    Shift=    0.000
 RMSDP=4.44D-09 MaxDP=1.65D-06 DE= 3.22D-10 OVMax= 4.35D-06

 Cycle  19  Pass 1  IDiag  1:
 RMSU=  2.33D-09    CP:  9.82D-01  1.34D+00  9.84D-01  7.73D-01  1.79D+00
                    CP:  2.21D+00  2.80D+00  2.27D+00  1.83D+00  1.79D+00
                    CP:  2.10D+00  2.38D+00  2.71D+00  2.18D+00  1.87D+00
                    CP:  1.75D+00  1.60D+00  1.32D+00
 E= -3153.33717943259     Delta-E=        0.000000001110 Rises=F Damp=F
 DIIS: error= 3.37D-08 at cycle  19 NSaved=  19.
 NSaved=19 IEnMin=17 EnMin= -3153.33717943402     IErMin=19 ErrMin= 3.37D-08
 ErrMax= 3.37D-08  0.00D+00 EMaxC= 1.00D-01 BMatC= 8.78D-12 BMatP= 3.54D-11
 IDIUse=1 WtCom= 1.00D+00 WtEn= 0.00D+00
 Coeff-Com: -0.714D-07 0.109D-06-0.332D-05-0.658D-05-0.242D-04-0.302D-04
 Coeff-Com:  0.450D-04 0.276D-03 0.198D-03-0.632D-03-0.359D-02-0.238D-02
 Coeff-Com:  0.864D-02 0.161D-01-0.571D-02-0.781D-01-0.989D-01 0.221D+00
 Coeff-Com:  0.943D+00
 Coeff:     -0.714D-07 0.109D-06-0.332D-05-0.658D-05-0.242D-04-0.302D-04
 Coeff:      0.450D-04 0.276D-03 0.198D-03-0.632D-03-0.359D-02-0.238D-02
 Coeff:      0.864D-02 0.161D-01-0.571D-02-0.781D-01-0.989D-01 0.221D+00
 Coeff:      0.943D+00
 Gap=     0.145 Goal=   None    Shift=    0.000
 Gap=     0.142 Goal=   None    Shift=    0.000
 RMSDP=3.39D-09 MaxDP=1.24D-06 DE= 1.11D-09 OVMax= 3.45D-06

 Cycle  20  Pass 1  IDiag  1:
 RMSU=  1.04D-09    CP:  9.82D-01  1.34D+00  9.84D-01  7.73D-01  1.79D+00
                    CP:  2.21D+00  2.80D+00  2.27D+00  1.83D+00  1.79D+00
                    CP:  2.10D+00  2.38D+00  2.70D+00  2.17D+00  1.88D+00
                    CP:  1.81D+00  1.77D+00  1.73D+00  1.58D+00
 E= -3153.33717943246     Delta-E=        0.000000000124 Rises=F Damp=F
 DIIS: error= 2.14D-08 at cycle  20 NSaved=  20.
 NSaved=20 IEnMin=17 EnMin= -3153.33717943402     IErMin=20 ErrMin= 2.14D-08
 ErrMax= 2.14D-08  0.00D+00 EMaxC= 1.00D-01 BMatC= 3.23D-12 BMatP= 8.78D-12
 IDIUse=1 WtCom= 1.00D+00 WtEn= 0.00D+00
 Coeff-Com: -0.652D-06 0.143D-05 0.486D-05 0.728D-05 0.368D-05-0.490D-04
 Coeff-Com: -0.134D-03-0.341D-04 0.615D-03 0.792D-03-0.148D-02-0.598D-02
 Coeff-Com: -0.274D-02 0.150D-01 0.274D-01-0.277D-01-0.148D+00-0.167D+00
 Coeff-Com:  0.382D+00 0.927D+00
 Coeff:     -0.652D-06 0.143D-05 0.486D-05 0.728D-05 0.368D-05-0.490D-04
 Coeff:     -0.134D-03-0.341D-04 0.615D-03 0.792D-03-0.148D-02-0.598D-02
 Coeff:     -0.274D-02 0.150D-01 0.274D-01-0.277D-01-0.148D+00-0.167D+00
 Coeff:      0.382D+00 0.927D+00
 Gap=     0.145 Goal=   None    Shift=    0.000
 Gap=     0.142 Goal=   None    Shift=    0.000
 RMSDP=2.50D-09 MaxDP=9.45D-07 DE= 1.24D-10 OVMax= 2.79D-06

 Error on total polarization charges =  0.03631
 SCF Done:  E(UM062X) =  -3153.33717943     A.U. after   20 cycles
            NFock= 20  Conv=0.25D-08     -V/T= 2.0057
 <Sx>= 0.0000 <Sy>= 0.0000 <Sz>= 0.5000 <S**2>= 0.7994 S= 0.5244
 <L.S>= 0.000000000000E+00
 KE= 3.135355902788D+03 PE=-2.885732490335D+04 EE= 1.183100926413D+04
 Annihilation of the first spin contaminant:
 S**2 before annihilation     0.7994,   after     0.7519
 Leave Link  502 at Thu Nov  6 23:58:16 2025, MaxMem= 30870077440 cpu:          359910.7 elap:            5701.1
 (Enter /public/software/gauss/g16/l601.exe)
 Copying SCF densities to generalized density rwf, IOpCl= 1 IROHF=0.
 Hyperfine terms turned off by default for NAtoms > 100.

 **********************************************************************

            Population analysis using the SCF density.

 **********************************************************************

 Orbital symmetries:
 Alpha Orbitals:
       Occupied  (A) (A) (A) (A) (A) (A) (A) (A) (A) (A) (A) (A)
                 (A) (A) (A) (A) (A) (A) (A) (A) (A) (A) (A) (A)
                 (A) (A) (A) (A) (A) (A) (A) (A) (A) (A) (A) (A)
                 (A) (A) (A) (A) (A) (A) (A) (A) (A) (A) (A) (A)
                 (A) (A) (A) (A) (A) (A) (A) (A) (A) (A) (A) (A)
                 (A) (A) (A) (A) (A) (A) (A) (A) (A) (A) (A) (A)
                 (A) (A) (A) (A) (A) (A) (A) (A) (A) (A) (A) (A)
                 (A) (A) (A) (A) (A) (A) (A) (A) (A) (A) (A) (A)
                 (A) (A) (A) (A) (A) (A) (A) (A) (A) (A) (A) (A)
                 (A) (A) (A) (A) (A) (A) (A) (A) (A) (A) (A) (A)
                 (A) (A) (A) (A) (A) (A) (A) (A) (A) (A) (A) (A)
                 (A) (A) (A) (A) (A) (A) (A) (A) (A) (A) (A) (A)
                 (A) (A) (A) (A) (A) (A) (A) (A) (A) (A) (A) (A)
                 (A) (A) (A) (A) (A) (A) (A) (A) (A) (A) (A) (A)
                 (A) (A) (A) (A) (A) (A) (A) (A) (A) (A) (A) (A)
                 (A) (A) (A) (A) (A) (A) (A) (A) (A) (A) (A) (A)
                 (A) (A) (A) (A) (A) (A) (A) (A) (A) (A) (A) (A)
                 (A) (A) (A) (A) (A) (A) (A) (A) (A) (A) (A) (A)
                 (A) (A) (A) (A) (A) (A) (A) (A) (A) (A) (A) (A)
                 (A) (A) (A) (A) (A) (A) (A) (A) (A) (A) (A) (A)
                 (A) (A) (A) (A) (A) (A) (A) (A) (A) (A) (A) (A)
                 (A) (A) (A) (A) (A) (A) (A) (A) (A) (A) (A) (A)
                 (A) (A) (A) (A) (A) (A)
       Virtual   (A) (A) (A) (A) (A) (A) (A) (A) (A) (A) (A) (A)
                 (A) (A) (A) (A) (A) (A) (A) (A) (A) (A) (A) (A)
                 (A) (A) (A) (A) (A) (A) (A) (A) (A) (A) (A) (A)
                 (A) (A) (A) (A) (A) (A) (A) (A) (A) (A) (A) (A)
                 (A) (A) (A) (A) (A) (A) (A) (A) (A) (A) (A) (A)
                 (A) (A) (A) (A) (A) (A) (A) (A) (A) (A) (A) (A)
                 (A) (A) (A) (A) (A) (A) (A) (A) (A) (A) (A) (A)
                 (A) (A) (A) (A) (A) (A) (A) (A) (A) (A) (A) (A)
                 (A) (A) (A) (A) (A) (A) (A) (A) (A) (A) (A) (A)
                 (A) (A) (A) (A) (A) (A) (A) (A) (A) (A) (A) (A)
                 (A) (A) (A) (A) (A) (A) (A) (A) (A) (A) (A) (A)
                 (A) (A) (A) (A) (A) (A) (A) (A) (A) (A) (A) (A)
                 (A) (A) (A) (A) (A) (A) (A) (A) (A) (A) (A) (A)
                 (A) (A) (A) (A) (A) (A) (A) (A) (A) (A) (A) (A)
                 (A) (A) (A) (A) (A) (A) (A) (A) (A) (A) (A) (A)
                 (A) (A) (A) (A) (A) (A) (A) (A) (A) (A) (A) (A)
                 (A) (A) (A) (A) (A) (A) (A) (A) (A) (A) (A) (A)
                 (A) (A) (A) (A) (A) (A) (A) (A) (A) (A) (A) (A)
                 (A) (A) (A) (A) (A) (A) (A) (A) (A) (A) (A) (A)
                 (A) (A) (A) (A) (A) (A) (A) (A) (A) (A) (A) (A)
                 (A) (A) (A) (A) (A) (A) (A) (A) (A) (A) (A) (A)
                 (A) (A) (A) (A) (A) (A) (A) (A) (A) (A) (A) (A)
                 (A) (A) (A) (A) (A) (A) (A) (A) (A) (A) (A) (A)
                 (A) (A) (A) (A) (A) (A) (A) (A) (A) (A) (A) (A)
                 (A) (A) (A) (A) (A) (A) (A) (A) (A) (A) (A) (A)
                 (A) (A) (A) (A) (A) (A) (A) (A) (A) (A) (A) (A)
                 (A) (A) (A) (A) (A) (A) (A) (A) (A) (A) (A) (A)
                 (A) (A) (A) (A) (A) (A) (A) (A) (A) (A) (A) (A)
                 (A) (A) (A) (A) (A) (A) (A) (A) (A) (A) (A) (A)
                 (A) (A) (A) (A) (A) (A) (A) (A) (A) (A) (A) (A)
                 (A) (A) (A) (A) (A) (A) (A) (A) (A) (A) (A) (A)
                 (A) (A) (A) (A) (A) (A) (A) (A) (A) (A) (A) (A)
                 (A) (A) (A) (A) (A) (A) (A) (A) (A) (A) (A) (A)
                 (A) (A) (A) (A) (A) (A) (A) (A) (A) (A) (A) (A)
                 (A) (A) (A) (A) (A) (A) (A) (A) (A) (A) (A) (A)
                 (A) (A) (A) (A) (A) (A) (A) (A) (A) (A) (A) (A)
                 (A) (A) (A) (A) (A) (A) (A) (A) (A) (A) (A) (A)
                 (A) (A) (A) (A) (A) (A) (A) (A) (A) (A) (A) (A)
                 (A) (A) (A) (A) (A) (A) (A) (A) (A) (A) (A) (A)
                 (A) (A) (A) (A) (A) (A) (A) (A) (A) (A) (A) (A)
                 (A) (A) (A) (A) (A) (A) (A) (A) (A) (A) (A) (A)
                 (A) (A) (A) (A) (A) (A) (A) (A) (A) (A) (A) (A)
                 (A) (A) (A) (A) (A) (A) (A) (A) (A) (A) (A) (A)
                 (A) (A) (A) (A) (A) (A) (A) (A) (A) (A) (A) (A)
                 (A) (A) (A) (A) (A) (A) (A) (A) (A) (A) (A) (A)
                 (A) (A) (A) (A) (A) (A) (A) (A) (A) (A) (A) (A)
                 (A) (A) (A) (A) (A) (A) (A) (A) (A) (A) (A) (A)
                 (A) (A) (A) (A) (A) (A) (A) (A) (A) (A) (A) (A)
                 (A) (A) (A) (A) (A) (A) (A) (A) (A) (A) (A) (A)
                 (A) (A) (A) (A) (A) (A) (A) (A) (A) (A) (A) (A)
                 (A) (A) (A) (A) (A) (A) (A) (A) (A) (A) (A) (A)
                 (A) (A) (A) (A) (A) (A) (A) (A) (A) (A) (A) (A)
                 (A) (A) (A) (A) (A) (A) (A) (A) (A) (A) (A) (A)
                 (A) (A) (A) (A) (A) (A) (A) (A) (A) (A) (A) (A)
                 (A) (A) (A) (A) (A) (A) (A) (A) (A) (A) (A) (A)
                 (A) (A) (A) (A) (A) (A) (A) (A) (A) (A) (A) (A)
                 (A) (A) (A) (A) (A) (A) (A) (A) (A) (A) (A) (A)
                 (A) (A) (A) (A) (A) (A) (A) (A) (A) (A) (A) (A)
                 (A) (A) (A) (A) (A) (A) (A) (A) (A) (A) (A) (A)
                 (A) (A) (A) (A) (A) (A) (A) (A) (A) (A) (A) (A)
                 (A) (A) (A) (A) (A) (A) (A) (A) (A) (A) (A) (A)
                 (A) (A) (A) (A) (A) (A) (A) (A) (A) (A) (A) (A)
                 (A) (A) (A) (A) (A) (A) (A) (A) (A) (A) (A) (A)
                 (A) (A) (A) (A) (A) (A) (A) (A) (A) (A) (A) (A)
                 (A) (A) (A) (A) (A) (A) (A) (A) (A) (A) (A) (A)
                 (A) (A) (A) (A) (A) (A) (A) (A) (A) (A) (A) (A)
                 (A) (A) (A) (A) (A) (A) (A) (A) (A) (A) (A) (A)
                 (A) (A) (A) (A) (A) (A) (A) (A) (A) (A) (A) (A)
                 (A) (A) (A) (A) (A) (A) (A) (A) (A) (A) (A) (A)
                 (A) (A) (A) (A) (A) (A) (A) (A) (A) (A) (A) (A)
                 (A) (A) (A) (A) (A) (A) (A) (A) (A) (A) (A) (A)
                 (A) (A) (A) (A) (A) (A) (A) (A) (A) (A) (A) (A)
                 (A) (A) (A) (A) (A) (A) (A) (A) (A) (A) (A) (A)
                 (A) (A) (A) (A) (A) (A) (A) (A) (A) (A) (A) (A)
                 (A) (A) (A) (A) (A) (A) (A) (A) (A) (A) (A) (A)
                 (A) (A) (A) (A) (A) (A) (A) (A) (A) (A) (A) (A)
                 (A) (A) (A) (A) (A) (A) (A) (A) (A) (A) (A) (A)
                 (A) (A) (A) (A) (A) (A) (A) (A) (A) (A) (A) (A)
                 (A) (A) (A) (A) (A) (A) (A) (A) (A) (A) (A) (A)
                 (A) (A) (A) (A) (A) (A) (A) (A) (A) (A) (A) (A)
                 (A) (A) (A) (A) (A) (A) (A) (A) (A) (A) (A) (A)
                 (A) (A) (A) (A) (A) (A) (A) (A) (A) (A) (A) (A)
                 (A) (A) (A) (A) (A) (A) (A) (A) (A) (A) (A) (A)
                 (A) (A) (A) (A) (A) (A) (A) (A) (A) (A) (A) (A)
                 (A) (A) (A) (A) (A) (A) (A) (A) (A) (A) (A) (A)
                 (A) (A) (A) (A) (A) (A) (A) (A) (A) (A) (A) (A)
                 (A) (A) (A) (A) (A) (A) (A) (A) (A) (A) (A) (A)
                 (A) (A) (A) (A) (A) (A) (A) (A) (A) (A) (A) (A)
                 (A) (A) (A) (A) (A) (A) (A) (A) (A) (A) (A) (A)
                 (A) (A) (A) (A) (A) (A) (A) (A) (A) (A) (A) (A)
                 (A) (A) (A) (A) (A) (A) (A) (A) (A) (A) (A) (A)
                 (A) (A) (A) (A) (A) (A) (A) (A) (A) (A) (A) (A)
                 (A) (A) (A) (A) (A) (A) (A) (A) (A) (A) (A) (A)
                 (A) (A) (A) (A) (A) (A) (A) (A) (A) (A) (A) (A)
                 (A) (A) (A) (A) (A) (A) (A) (A) (A) (A) (A) (A)
                 (A) (A) (A) (A) (A) (A) (A) (A) (A) (A) (A) (A)
                 (A) (A) (A) (A) (A) (A) (A) (A) (A) (A) (A) (A)
                 (A) (A) (A) (A) (A) (A) (A) (A) (A) (A) (A) (A)
                 (A) (A) (A) (A) (A) (A) (A) (A) (A) (A) (A) (A)
                 (A) (A) (A) (A) (A) (A) (A) (A) (A) (A) (A) (A)
                 (A) (A) (A) (A) (A) (A) (A) (A) (A) (A) (A) (A)
                 (A) (A) (A) (A) (A) (A) (A) (A) (A) (A) (A) (A)
                 (A) (A) (A) (A) (A) (A) (A) (A) (A) (A) (A) (A)
                 (A) (A) (A) (A) (A) (A) (A) (A) (A) (A) (A) (A)
                 (A) (A) (A) (A) (A) (A) (A) (A) (A) (A) (A) (A)
                 (A) (A) (A) (A) (A) (A) (A) (A) (A) (A) (A) (A)
                 (A) (A) (A) (A) (A) (A) (A) (A) (A) (A) (A) (A)
                 (A) (A) (A) (A) (A) (A) (A) (A) (A) (A) (A) (A)
                 (A) (A) (A) (A) (A) (A) (A) (A) (A) (A) (A) (A)
                 (A) (A) (A) (A) (A) (A) (A) (A) (A) (A) (A) (A)
                 (A) (A) (A) (A) (A) (A) (A) (A) (A) (A) (A) (A)
                 (A) (A) (A) (A) (A) (A) (A) (A) (A) (A) (A) (A)
                 (A) (A) (A) (A) (A) (A) (A) (A) (A) (A) (A) (A)
                 (A) (A) (A) (A) (A) (A) (A) (A) (A) (A) (A) (A)
                 (A) (A) (A) (A) (A) (A) (A) (A) (A) (A) (A) (A)
                 (A) (A) (A) (A) (A) (A) (A) (A) (A) (A) (A) (A)
                 (A) (A) (A) (A) (A) (A) (A) (A) (A) (A) (A) (A)
                 (A) (A) (A) (A) (A) (A) (A) (A) (A) (A) (A) (A)
                 (A) (A) (A) (A) (A) (A) (A) (A) (A) (A) (A) (A)
                 (A) (A) (A) (A) (A) (A) (A) (A) (A) (A) (A) (A)
                 (A) (A) (A) (A) (A) (A) (A) (A) (A) (A) (A) (A)
                 (A) (A) (A) (A) (A) (A) (A) (A) (A) (A) (A) (A)
                 (A) (A) (A) (A) (A) (A) (A) (A) (A) (A) (A) (A)
                 (A) (A) (A) (A) (A) (A) (A) (A) (A) (A) (A) (A)
                 (A) (A) (A) (A) (A) (A) (A) (A) (A) (A) (A) (A)
                 (A) (A) (A) (A) (A) (A) (A) (A) (A) (A) (A) (A)
                 (A) (A) (A) (A) (A) (A) (A) (A) (A) (A) (A) (A)
                 (A) (A) (A) (A) (A) (A) (A) (A) (A) (A) (A) (A)
                 (A) (A) (A) (A) (A) (A) (A) (A) (A) (A) (A) (A)
                 (A) (A) (A) (A) (A) (A) (A) (A) (A) (A) (A) (A)
                 (A) (A) (A) (A) (A) (A) (A) (A) (A) (A) (A) (A)
                 (A) (A) (A) (A) (A) (A) (A) (A) (A) (A) (A) (A)
                 (A) (A) (A) (A) (A) (A) (A) (A) (A) (A) (A) (A)
                 (A) (A) (A) (A) (A) (A) (A) (A) (A) (A) (A) (A)
                 (A) (A) (A) (A) (A) (A) (A) (A) (A) (A) (A) (A)
                 (A) (A) (A) (A) (A) (A) (A) (A) (A) (A) (A) (A)
                 (A) (A) (A) (A) (A) (A) (A) (A) (A) (A) (A) (A)
                 (A) (A) (A) (A) (A) (A) (A) (A) (A) (A) (A) (A)
                 (A) (A) (A) (A) (A) (A) (A) (A) (A) (A) (A) (A)
                 (A) (A) (A) (A) (A) (A) (A) (A) (A) (A) (A) (A)
                 (A) (A) (A) (A) (A) (A) (A) (A) (A) (A) (A) (A)
                 (A) (A) (A) (A) (A) (A) (A) (A) (A) (A) (A) (A)
                 (A) (A) (A) (A) (A) (A) (A) (A) (A) (A) (A) (A)
                 (A) (A) (A) (A) (A) (A) (A) (A) (A) (A) (A) (A)
                 (A) (A) (A) (A) (A) (A) (A) (A) (A) (A) (A) (A)
                 (A) (A) (A) (A) (A) (A) (A) (A) (A) (A) (A) (A)
                 (A) (A) (A) (A) (A) (A) (A) (A) (A) (A) (A) (A)
                 (A) (A) (A) (A) (A) (A) (A) (A) (A) (A) (A) (A)
                 (A) (A) (A) (A) (A) (A) (A) (A) (A) (A) (A) (A)
                 (A) (A) (A) (A) (A) (A) (A) (A) (A) (A) (A) (A)
                 (A) (A) (A) (A) (A) (A) (A) (A) (A) (A) (A) (A)
[...]
  Beta virt. eigenvalues --    5.46672   5.47034   5.47286   5.47630   5.48325
  Beta virt. eigenvalues --    5.48636   5.49058   5.49304   5.49415   5.49648
  Beta virt. eigenvalues --    5.49697   5.49806   5.50331   5.50500   5.50781
  Beta virt. eigenvalues --    5.51001   5.51115   5.51377   5.51732   5.51829
  Beta virt. eigenvalues --    5.52082   5.52504   5.52903   5.53226   5.53279
  Beta virt. eigenvalues --    5.53728   5.54147   5.54421   5.54751   5.54890
  Beta virt. eigenvalues --    5.55366   5.55822   5.56639   5.57109   5.57467
  Beta virt. eigenvalues --    5.57829   5.57956   5.58176   5.58409   5.59024
  Beta virt. eigenvalues --    5.59051   5.59066   5.59270   5.59649   5.59982
  Beta virt. eigenvalues --    5.60291   5.60452   5.60951   5.61198   5.61318
  Beta virt. eigenvalues --    5.61364   5.61518   5.61758   5.62060   5.62256
  Beta virt. eigenvalues --    5.62525   5.62705   5.62805   5.62952   5.63809
  Beta virt. eigenvalues --    5.64003   5.64149   5.64532   5.64564   5.64683
  Beta virt. eigenvalues --    5.64785   5.64937   5.65131   5.65218   5.65532
  Beta virt. eigenvalues --    5.65712   5.65953   5.66525   5.66621   5.66826
  Beta virt. eigenvalues --    5.66995   5.67187   5.67408   5.67659   5.68188
  Beta virt. eigenvalues --    5.68666   5.68967   5.69093   5.69591   5.69977
  Beta virt. eigenvalues --    5.70021   5.70114   5.71101   5.71284   5.71448
  Beta virt. eigenvalues --    5.71857   5.72503   5.72895   5.73214   5.74158
  Beta virt. eigenvalues --    5.74621   5.75055   5.76454   5.76600   5.77051
  Beta virt. eigenvalues --    5.77233   5.78609   5.79328   5.79713   5.80625
  Beta virt. eigenvalues --    5.81337   5.81824   5.82137   5.82644   5.83870
  Beta virt. eigenvalues --    5.85152   5.87698   5.87777   5.90065   5.90201
  Beta virt. eigenvalues --    5.91309   5.92408   5.93770   5.96564   5.98318
  Beta virt. eigenvalues --    6.00340   6.01473   6.02492   6.02527   6.03034
  Beta virt. eigenvalues --    6.04925   6.04994   6.05461   6.07367   6.10088
  Beta virt. eigenvalues --    6.14522   6.16058   6.18678   6.20671   6.25264
  Beta virt. eigenvalues --    6.26757   6.33401   6.40728   6.41855   6.43193
  Beta virt. eigenvalues --    6.43965   6.56023   6.61448   6.64350   6.70884
  Beta virt. eigenvalues --    6.74223   6.75801   6.76663   6.76901   6.81389
  Beta virt. eigenvalues --    6.81779   6.85363   6.85419   6.90070   6.93964
  Beta virt. eigenvalues --    6.96819   6.96859   6.97364   6.97997   7.00749
  Beta virt. eigenvalues --    7.01498   7.01881   7.03615   7.06487   7.13179
  Beta virt. eigenvalues --    7.19592   7.24040   7.26287   7.26337   7.29000
  Beta virt. eigenvalues --    7.34112   7.35000   7.35066   7.37991   7.38890
  Beta virt. eigenvalues --    7.48071   7.49723   7.52422   8.48999   8.54617
  Beta virt. eigenvalues --    8.59634   8.65274   8.82611   8.88944   8.92767
  Beta virt. eigenvalues --    8.96461   8.97191   9.03638  15.87531  22.88034
  Beta virt. eigenvalues --   22.90385  22.93713  22.96667  22.98512  23.13394
  Beta virt. eigenvalues --   23.15169  23.16331  23.17323  23.18824  23.19557
  Beta virt. eigenvalues --   23.22337  23.26568  23.27321  23.29581  23.29687
  Beta virt. eigenvalues --   23.30775  23.32326  23.33745  23.34250  23.36027
  Beta virt. eigenvalues --   23.36626  23.37801  23.39292  23.39468  23.39648
  Beta virt. eigenvalues --   23.40247  23.40436  23.44419  23.45688  23.46712
  Beta virt. eigenvalues --   23.47140  23.48172  23.48456  23.49677  23.49882
  Beta virt. eigenvalues --   23.50339  23.50780  23.51843  23.53147  23.56005
  Beta virt. eigenvalues --   23.58900  23.59723  23.60350  23.62257  23.63371
  Beta virt. eigenvalues --   23.68351  23.68555  23.68579  23.69333  23.70227
  Beta virt. eigenvalues --   23.70700  23.71294  23.74090  23.75629  23.78508
  Beta virt. eigenvalues --   23.88325  23.88708  24.09404  24.09443  24.13847
  Beta virt. eigenvalues --   31.87787  32.41676  33.14838  33.19530  33.30850
  Beta virt. eigenvalues --   33.32740  44.63597  44.70796  44.71299  57.46011
  Beta virt. eigenvalues --   57.63131
          Condensed to atoms (all electrons):
          Atomic-Atomic Spin Densities.
 Mulliken charges and spin densities:
               1          2
     1  C    0.045259  -0.126362
     2  N   -0.150102   0.036970
     3  B    0.379253   0.002808
     4  N   -0.150901   0.039940
     5  C    0.050091  -0.128192
     6  C    0.067910   0.434815
     7  C    0.051967   0.161385
     8  C    0.010803  -0.081119
     9  C    0.067795   0.193408
    10  C    0.064340   0.186189
    11  C    0.013774  -0.081945
    12  C    0.043173   0.156541
    13  C   -0.456594  -0.012100
    14  C   -0.415140   0.010384
    15  C   -0.302420  -0.004251
    16  C   -0.154239  -0.113979
    17  C   -0.154040   0.165983
    18  C    0.030040  -0.037319
    19  C   -0.138060   0.038861
    20  C   -0.208155  -0.024617
    21  C    0.204046   0.043026
    22  C   -0.169941  -0.023159
    23  C   -0.217261   0.051298
    24  O   -0.298820   0.005429
    25  C   -0.090674  -0.000462
    26  C   -0.196977  -0.000209
    27  C   -0.208777   0.000026
    28  C   -0.224400  -0.000010
    29  C   -0.197769  -0.000002
    30  C   -0.101651  -0.000001
    31  N   -0.380647   0.000000
    32  N    0.412712   0.000000
    33  N   -0.243494  -0.000000
    34  C   -0.239740  -0.011778
    35  C   -0.235202   0.010812
    36  C    0.258238  -0.005415
    37  C   -0.179969   0.008855
    38  C    0.202191  -0.005500
    39  C   -0.236116   0.001563
    40  O   -0.295637   0.000004
    41  C   -0.126533  -0.000191
    42  C   -0.090742  -0.000119
    43  C   -0.200093   0.000015
    44  C   -0.351724   0.000001
    45  C   -0.272305  -0.000016
    46  C   -0.168400   0.000001
    47  C   -0.159184  -0.000001
    48  C   -0.364197   0.000000
    49  O   -0.293799  -0.000056
    50  C   -0.180081   0.000443
    51  C   -0.065946  -0.000004
    52  C   -0.255639  -0.000046
    53  C   -0.224678   0.000007
    54  C   -0.364024  -0.000003
    55  C   -0.182954   0.000052
    56  C   -0.163382   0.000000
    57  C   -0.360244  -0.000004
    58  C   -0.465327  -0.012512
    59  C   -0.415408   0.009601
    60  C   -0.302561  -0.004155
    61  C   -0.159252  -0.118968
    62  C   -0.150318   0.166322
    63  C    0.018048  -0.039409
    64  C   -0.166559   0.042321
    65  C   -0.184460  -0.027541
    66  C    0.127330   0.044498
    67  C   -0.173242  -0.024152
    68  C   -0.209423   0.046701
    69  N   -0.211486   0.012171
    70  C   -0.291499  -0.000606
    71  C   -0.291184  -0.000718
    72  F   -0.368467   0.001235
    73  F   -0.368918   0.001162
    74  H    0.146737   0.005108
    75  H    0.120601   0.001048
    76  H    0.148381   0.008596
    77  H    0.126562  -0.000931
    78  H    0.116013  -0.002465
    79  H    0.120935  -0.000339
    80  H    0.110478   0.000530
    81  H    0.111503  -0.000115
    82  H    0.096125   0.003754
    83  H    0.116494  -0.010270
    84  H    0.131325  -0.001097
    85  H    0.153521   0.000430
    86  H    0.146533   0.000223
    87  H    0.143851  -0.001644
    88  H    0.135123   0.000482
    89  H    0.135890   0.000474
    90  H    0.107838  -0.000010
    91  H    0.107798  -0.000011
    92  H    0.109290  -0.000009
    93  H    0.109778  -0.000009
    94  H    0.110634   0.000002
    95  H    0.111710   0.000002
    96  H    0.111770   0.000000
    97  H    0.112234   0.000000
    98  H    0.146001   0.000000
    99  H    0.132809  -0.000000
   100  H    0.149109   0.000364
   101  H    0.147852  -0.000414
   102  H    0.155413   0.001072
   103  H    0.146389  -0.000143
   104  H    0.160434   0.000019
   105  H    0.101199   0.000028
   106  H    0.113290   0.000003
   107  H    0.107745  -0.000006
   108  H    0.121846  -0.000000
   109  H    0.106596   0.000001
   110  H    0.110234   0.000001
   111  H    0.123463  -0.000002
   112  H    0.123633   0.000015
   113  H    0.099425  -0.000003
   114  H    0.096173   0.000000
   115  H    0.091600   0.000000
   116  H    0.092505  -0.000000
   117  H    0.107637  -0.000000
   118  H    0.107483   0.000000
   119  H    0.118533   0.000000
   120  H    0.154401  -0.000104
   121  H    0.169873  -0.000119
   122  H    0.108694   0.000009
   123  H    0.124325  -0.000001
   124  H    0.127827   0.000015
   125  H    0.119957   0.000004
   126  H    0.109933   0.000002
   127  H    0.123388   0.000000
   128  H    0.108798   0.000006
   129  H    0.113223   0.000001
   130  H    0.103580  -0.000034
   131  H    0.106296  -0.000002
   132  H    0.091656   0.000000
   133  H    0.092429   0.000001
   134  H    0.118451   0.000000
   135  H    0.106947   0.000003
   136  H    0.106503   0.000000
   137  H    0.151687   0.008777
   138  H    0.145237   0.005240
   139  H    0.120495   0.001093
   140  H    0.126266  -0.000836
   141  H    0.115853  -0.002373
   142  H    0.110473   0.000575
   143  H    0.111567  -0.000128
   144  H    0.120681  -0.000297
   145  H    0.094593   0.005057
   146  H    0.114043  -0.010301
   147  H    0.126492  -0.001354
   148  H    0.149468   0.000357
   149  H    0.145050   0.000126
   150  H    0.142468  -0.001533
   151  H    0.150551   0.001169
   152  H    0.131247   0.000313
   153  H    0.128840   0.000085
   154  H    0.150022   0.001228
   155  H    0.128642   0.000093
   156  H    0.131331   0.000341
 Sum of Mulliken charges =  -1.00000   1.00000
 Mulliken charges and spin densities with hydrogens summed into heavy atoms:
               1          2
     1  C    0.045259  -0.126362
     2  N   -0.150102   0.036970
     3  B    0.379253   0.002808
     4  N   -0.150901   0.039940
     5  C    0.050091  -0.128192
     6  C    0.067910   0.434815
     7  C    0.051967   0.161385
     8  C    0.010803  -0.081119
     9  C    0.067795   0.193408
    10  C    0.064340   0.186189
    11  C    0.013774  -0.081945
    12  C    0.043173   0.156541
    13  C   -0.040875   0.002652
    14  C   -0.172565   0.006988
    15  C    0.040496  -0.004175
    16  C   -0.058114  -0.110224
    17  C   -0.037546   0.155713
    18  C    0.030040  -0.037319
    19  C   -0.006735   0.037764
    20  C   -0.054634  -0.024187
    21  C    0.204046   0.043026
    22  C   -0.023408  -0.022936
    23  C   -0.073410   0.049654
    24  O   -0.298820   0.005429
    25  C    0.180339   0.000494
    26  C    0.018659  -0.000230
    27  C    0.010291   0.000008
    28  C   -0.002057  -0.000006
    29  C    0.026236  -0.000002
    30  C    0.177159  -0.000001
    31  N   -0.380647   0.000000
    32  N    0.412712   0.000000
    33  N   -0.243494  -0.000000
    34  C   -0.239740  -0.011778
    35  C   -0.086093   0.011176
    36  C    0.258238  -0.005415
    37  C   -0.032116   0.008441
    38  C    0.202191  -0.005500
    39  C   -0.080703   0.002635
    40  O   -0.295637   0.000004
    41  C    0.180290  -0.000315
    42  C    0.010457  -0.000092
    43  C    0.020942   0.000012
    44  C   -0.013046   0.000002
    45  C   -0.025210  -0.000002
    46  C    0.027199  -0.000002
    47  C    0.024921  -0.000001
    48  C   -0.030545   0.000000
    49  O   -0.293799  -0.000056
    50  C    0.144193   0.000220
    51  C    0.042747   0.000004
    52  C   -0.003487  -0.000033
    53  C    0.005212   0.000012
    54  C   -0.018615   0.000003
    55  C    0.026921   0.000016
    56  C    0.020703   0.000001
    57  C   -0.028343  -0.000001
    58  C   -0.047908   0.002598
    59  C   -0.173289   0.006392
    60  C    0.040161  -0.004005
    61  C   -0.064658  -0.113911
    62  C   -0.036275   0.156020
    63  C    0.018048  -0.039409
    64  C   -0.040068   0.040967
    65  C   -0.034992  -0.027184
    66  C    0.127330   0.044498
    67  C   -0.028192  -0.024027
    68  C   -0.066955   0.045168
    69  N   -0.211486   0.012171
    70  C    0.119140   0.000961
    71  C    0.118811   0.000944
    72  F   -0.368467   0.001235
    73  F   -0.368918   0.001162
 Electronic spatial extent (au):  <R**2>=         138020.2504
 Charge=             -1.0000 electrons
 Dipole moment (field-independent basis, Debye):
    X=             -2.7592    Y=             -4.7700    Z=              1.5427  Tot=              5.7224
 Quadrupole moment (field-independent basis, Debye-Ang):
   XX=           -457.9076   YY=           -437.1597   ZZ=           -455.0122
   XY=             49.0411   XZ=              8.8306   YZ=             -8.7305
 Traceless Quadrupole moment (field-independent basis, Debye-Ang):
   XX=             -7.8811   YY=             12.8668   ZZ=             -4.9857
   XY=             49.0411   XZ=              8.8306   YZ=             -8.7305
 Octapole moment (field-independent basis, Debye-Ang**2):
  XXX=          -1145.8303  YYY=            487.7953  ZZZ=             46.2242  XYY=            -53.4781
  XXY=            725.4564  XXZ=            189.4607  XZZ=           -187.2946  YZZ=            -42.5632
  YYZ=             31.7449  XYZ=           -152.0133
 Hexadecapole moment (field-independent basis, Debye-Ang**3):
 XXXX=        -151031.8843 YYYY=         -33799.0523 ZZZZ=         -20599.7476 XXXY=          14420.8918
 XXXZ=           6330.2783 YYYX=           4285.6058 YYYZ=           -375.5985 ZZZX=            241.6105
 ZZZY=           -208.1238 XXYY=         -32070.1301 XXZZ=         -25892.5513 YYZZ=         -10215.1355
 XXYZ=          -2258.2951 YYXZ=            336.1872 ZZXY=            634.2069
 N-N= 1.073762255700D+04 E-N=-2.885732490069D+04  KE= 3.135355902788D+03
 Leave Link  601 at Thu Nov  6 23:58:21 2025, MaxMem= 30870077440 cpu:             262.4 elap:               4.8
 (Enter /public/software/gauss/g16/l9999.exe)
 1\1\GINC-CU280\SP\UM062X\def2TZVPP\C61H83B1F2N6O3(1-,2)\BAIDING\06-Nov
 -2025\0\\#p M062X/DEF2TZVPP scrf=(solvent=water) em=GD3\\Energy calcul
 ation for M100034618_reduced\\-1,2\C,0,2.534222,1.626024,0.101819\N,0,
 1.231669,2.123998,0.139833\B,0,-0.026505,1.240001,0.055801\N,0,0.38272
 5,-0.244863,0.032627\C,0,1.696635,-0.689617,0.174001\C,0,2.778964,0.22
 9625,0.164568\C,0,3.433864,2.729101,-0.036583\C,0,2.650144,3.89021,-0.
 084662\C,0,1.286321,3.512995,0.033825\C,0,-0.467042,-1.348045,0.106401
 \C,0,0.331801,-2.504053,0.310071\C,0,1.676105,-2.10906,0.345703\C,0,2.
 83683,-3.042813,0.547163\C,0,-0.178672,-3.918543,0.407247\C,0,-0.29165
 ,-4.627421,-0.953659\C,0,-1.897925,-1.395841,-0.002455\C,0,-2.814759,-
 0.458334,-0.380471\C,0,-4.260551,-0.656133,-0.430933\C,0,-5.073068,0.3
 80652,-0.947168\C,0,-6.453257,0.261774,-1.03141\C,0,-7.087346,-0.91152
 2,-0.596846\C,0,-6.311761,-1.955852,-0.074486\C,0,-4.926545,-1.820666,
 0.005113\O,0,-8.455163,-0.939938,-0.718221\C,0,-9.155845,-2.116695,-0.
 280001\C,0,-10.63991,-1.89129,-0.521749\C,0,-11.481884,-3.095035,-0.08
 4033\C,0,-12.982867,-2.888429,-0.316406\C,0,-13.823367,-4.092696,0.123
 948\C,0,-15.313034,-3.863123,-0.1171\N,0,-16.153512,-5.038598,0.252911
 \N,0,-16.272987,-5.251489,1.459597\N,0,-16.465118,-5.548541,2.548247\C
 ,0,4.18468,-0.276316,0.21601\C,0,4.915837,-0.203491,1.401238\C,0,6.238
 066,-0.677033,1.445195\C,0,6.83214,-1.222023,0.307626\C,0,6.08994,-1.2
 91138,-0.883701\C,0,4.774508,-0.825438,-0.939161\O,0,6.761304,-1.83630
 6,-1.947671\C,0,6.079404,-1.945652,-3.210683\C,0,7.023581,-2.610465,-4
 .213383\C,0,7.317317,-4.068609,-3.802232\C,0,8.520956,-4.696444,-4.510
 347\C,0,6.431986,-2.515401,-5.636013\C,0,6.490718,-1.122349,-6.278092\
 C,0,5.922624,-1.095182,-7.702183\C,0,5.990121,0.289165,-8.351151\O,0,6
 .867032,-0.561198,2.65694\C,0,8.217696,-1.043088,2.78258\C,0,8.681755,
 -0.806312,4.220521\C,0,7.784303,-1.512454,5.262008\C,0,10.170574,-1.18
 5489,4.374911\C,0,11.149817,-0.238985,3.671988\C,0,7.747752,-3.046033,
 5.203632\C,0,6.849826,-3.655783,6.287758\C,0,6.799601,-5.184536,6.2392
 1\C,0,4.933839,2.705181,-0.133981\C,0,3.164697,5.303154,-0.181372\C,0,
 3.4319,5.956094,1.185984\C,0,0.209072,4.463548,0.041412\C,0,-1.119085,
 4.331476,0.327691\C,0,-2.11071,5.39975,0.283249\C,0,-3.436846,5.125913
 ,0.679984\C,0,-4.435604,6.09222,0.675347\C,0,-4.170544,7.415796,0.2547
 75\C,0,-2.840302,7.702316,-0.137965\C,0,-1.852991,6.72616,-0.127741\N,
 0,-5.178264,8.385584,0.195599\C,0,-4.762904,9.787024,0.151523\C,0,-6.3
 88206,8.144196,0.980295\F,0,-0.873657,1.46005,1.173186\F,0,-0.743711,1
 .582876,-1.12003\H,0,3.548477,-2.666525,1.286949\H,0,2.485163,-4.01789
 9,0.895139\H,0,3.404387,-3.214646,-0.374993\H,0,0.485951,-4.501788,1.0
 54183\H,0,-1.157362,-3.935124,0.899512\H,0,-0.66205,-5.651622,-0.83362
 7\H,0,-0.979962,-4.094385,-1.618066\H,0,0.681741,-4.677284,-1.453401\H
 ,0,-2.284133,-2.383026,0.240353\H,0,-2.475599,0.517861,-0.702653\H,0,-
 4.600321,1.297706,-1.289558\H,0,-7.059308,1.068877,-1.431816\H,0,-6.77
 4801,-2.870792,0.275276\H,0,-4.358896,-2.645046,0.425656\H,0,-8.796721
 ,-2.989657,-0.840305\H,0,-8.955472,-2.289608,0.785302\H,0,-10.956898,-
 0.994532,0.025084\H,0,-10.800284,-1.690505,-1.588347\H,0,-11.150442,-3
 .989851,-0.627908\H,0,-11.304214,-3.296858,0.980918\H,0,-13.315309,-1.
 993406,0.226549\H,0,-13.162374,-2.689161,-1.381536\H,0,-13.505548,-4.9
 89625,-0.421319\H,0,-13.654547,-4.289496,1.190657\H,0,-15.664452,-2.98
 0463,0.427473\H,0,-15.510894,-3.703032,-1.177461\H,0,4.476746,0.21411,
 2.301005\H,0,7.848496,-1.594306,0.307103\H,0,4.200278,-0.873635,-1.855
 095\H,0,5.169328,-2.547859,-3.087173\H,0,5.784735,-0.944338,-3.54319\H
 ,0,7.969267,-2.048877,-4.191925\H,0,7.492032,-4.099991,-2.720872\H,0,6
 .418903,-4.674138,-3.986795\H,0,8.686113,-5.721712,-4.162163\H,0,8.388
 901,-4.738464,-5.596538\H,0,9.435962,-4.127059,-4.309486\H,0,6.969141,
 -3.215288,-6.28692\H,0,5.389917,-2.866217,-5.61145\H,0,5.943512,-0.394
 352,-5.664994\H,0,7.535153,-0.780364,-6.299708\H,0,6.469466,-1.817748,
 -8.323197\H,0,4.879549,-1.438924,-7.681644\H,0,5.421731,1.026696,-7.77
 2476\H,0,7.024417,0.646934,-8.415867\H,0,5.579482,0.276416,-9.366573\H
 ,0,8.251514,-2.109272,2.526703\H,0,8.855711,-0.504136,2.073567\H,0,8.5
 95647,0.273825,4.407166\H,0,8.126466,-1.204478,6.259252\H,0,6.76096,-1
 .131044,5.160844\H,0,10.403862,-1.201009,5.446874\H,0,10.331218,-2.209
 589,4.0145\H,0,12.185417,-0.530196,3.877998\H,0,11.022206,-0.240788,2.
 584675\H,0,11.019912,0.792335,4.020049\H,0,7.387719,-3.37666,4.220174\
 H,0,8.762092,-3.451905,5.312017\H,0,7.205609,-3.332554,7.275572\H,0,5.
 833274,-3.252717,6.183529\H,0,6.151393,-5.589804,7.023774\H,0,6.414986
 ,-5.538341,5.275447\H,0,7.796993,-5.618853,6.375557\H,0,5.415725,2.506
 061,0.830482\H,0,5.292979,1.939814,-0.827318\H,0,5.307634,3.670149,-0.
 487325\H,0,4.092275,5.313827,-0.764459\H,0,2.458077,5.925858,-0.74105\
 H,0,2.516464,6.000262,1.785458\H,0,4.175227,5.387318,1.754919\H,0,3.80
 8214,6.978255,1.06674\H,0,0.556147,5.464526,-0.204169\H,0,-1.500418,3.
 368504,0.64318\H,0,-3.687877,4.120607,1.010618\H,0,-5.428623,5.808549,
 1.001497\H,0,-2.569667,8.700405,-0.459794\H,0,-0.854705,7.010594,-0.44
 7704\H,0,-4.171734,10.087288,1.03026\H,0,-4.172158,9.994016,-0.743939\
 H,0,-5.653221,10.415747,0.10564\H,0,-6.188097,8.050001,2.058731\H,0,-7
 .076967,8.97666,0.830018\H,0,-6.89721,7.236396,0.647924\\Version=ES64L
 -G16RevA.03\State=2-A\HF=-3153.3371794\S2=0.79943\S2-1=0.\S2A=0.751898
 \RMSD=2.497e-09\Dipole=1.0855508,-1.8766633,-0.6069557\Quadrupole=-5.8
 594158,9.5661649,-3.7067492,-36.4608503,6.5653059,6.4909274\PG=C01 [X(
 C61H83B1F2N6O3)]\\@


 The earth never tires,
 The earth is rude, silent, incomprehensible at first,
 Nature is rude and incomprehensible at first,
 Be not discouraged, keep on,
 There are divine things well envelop'd,
 I swear to you there are divine things more beautiful than words can tell.
                                 -- Walt Whitman
 Job cpu time:       4 days  5 hours 39 minutes 15.1 seconds.
 Elapsed time:       0 days  1 hours 36 minutes 36.9 seconds.
 File lengths (MBytes):  RWF=  12519 Int=      0 D2E=      0 Chk=    940 Scr=      1
 Normal termination of Gaussian 16 at Thu Nov  6 23:58:24 2025.
