 Entering Gaussian System, Link 0=g16
 Input=M100034865_reduced_sp.gjf
 Output=M100034865_reduced_sp.log
 Initial command:
 /public/software/gauss/g16/l1.exe "/public/home/baiding/1101_v2_sp/tmp_M100034865_reduced_sp_1568608/Gau-4191376.inp" -scrdir="/public/home/baiding/1101_v2_sp/tmp_M100034865_reduced_sp_1568608/"
 Entering Link 1 = /public/software/gauss/g16/l1.exe PID=   4191377.
  
 Copyright (c) 1988,1990,1992,1993,1995,1998,2003,2009,2016,
            Gaussian, Inc.  All Rights Reserved.
  
 This is part of the Gaussian(R) 16 program.  It is based on
 the Gaussian(R) 09 system (copyright 2009, Gaussian, Inc.),
 the Gaussian(R) 03 system (copyright 2003, Gaussian, Inc.),
 the Gaussian(R) 98 system (copyright 1998, Gaussian, Inc.),
 the Gaussian(R) 94 system (copyright 1995, Gaussian, Inc.),
 the Gaussian 92(TM) system (copyright 1992, Gaussian, Inc.),
 the Gaussian 90(TM) system (copyright 1990, Gaussian, Inc.),
 the Gaussian 88(TM) system (copyright 1988, Gaussian, Inc.),
 the Gaussian 86(TM) system (copyright 1986, Carnegie Mellon
 University), and the Gaussian 82(TM) system (copyright 1983,
 Carnegie Mellon University). Gaussian is a federally registered
 trademark of Gaussian, Inc.
  
 This software contains proprietary and confidential information,
 including trade secrets, belonging to Gaussian, Inc.
  
 This software is provided under written license and may be
 used, copied, transmitted, or stored only in accord with that
 written license.
  
 The following legend is applicable only to US Government
 contracts under FAR:
  
                    RESTRICTED RIGHTS LEGEND
  
 Use, reproduction and disclosure by the US Government is
 subject to restrictions as set forth in subparagraphs (a)
 and (c) of the Commercial Computer Software - Restricted
 Rights clause in FAR 52.227-19.
  
 Gaussian, Inc.
 340 Quinnipiac St., Bldg. 40, Wallingford CT 06492
  
  
 ---------------------------------------------------------------
 Warning -- This program may not be used in any manner that
 competes with the business of Gaussian, Inc. or will provide
 assistance to any competitor of Gaussian, Inc.  The licensee
 of this program is prohibited from giving any competitor of
 Gaussian, Inc. access to this program.  By using this program,
 the user acknowledges that Gaussian, Inc. is engaged in the
 business of creating and licensing software in the field of
 computational chemistry and represents and warrants to the
 licensee that it is not a competitor of Gaussian, Inc. and that
 it will not use this program in any manner prohibited above.
 ---------------------------------------------------------------
  

 Cite this work as:
 Gaussian 16, Revision A.03,
 M. J. Frisch, G. W. Trucks, H. B. Schlegel, G. E. Scuseria, 
 M. A. Robb, J. R. Cheeseman, G. Scalmani, V. Barone, 
 G. A. Petersson, H. Nakatsuji, X. Li, M. Caricato, A. V. Marenich, 
 J. Bloino, B. G. Janesko, R. Gomperts, B. Mennucci, H. P. Hratchian, 
 J. V. Ortiz, A. F. Izmaylov, J. L. Sonnenberg, D. Williams-Young, 
 F. Ding, F. Lipparini, F. Egidi, J. Goings, B. Peng, A. Petrone, 
 T. Henderson, D. Ranasinghe, V. G. Zakrzewski, J. Gao, N. Rega, 
 G. Zheng, W. Liang, M. Hada, M. Ehara, K. Toyota, R. Fukuda, 
 J. Hasegawa, M. Ishida, T. Nakajima, Y. Honda, O. Kitao, H. Nakai, 
 T. Vreven, K. Throssell, J. A. Montgomery, Jr., J. E. Peralta, 
 F. Ogliaro, M. J. Bearpark, J. J. Heyd, E. N. Brothers, K. N. Kudin, 
 V. N. Staroverov, T. A. Keith, R. Kobayashi, J. Normand, 
 K. Raghavachari, A. P. Rendell, J. C. Burant, S. S. Iyengar, 
 J. Tomasi, M. Cossi, J. M. Millam, M. Klene, C. Adamo, R. Cammi, 
 J. W. Ochterski, R. L. Martin, K. Morokuma, O. Farkas, 
 J. B. Foresman, and D. J. Fox, Gaussian, Inc., Wallingford CT, 2016.
 
 ******************************************
 Gaussian 16:  ES64L-G16RevA.03 25-Dec-2016
                 7-Nov-2025 
 ******************************************
 %nprocshared=64
 Will use up to   64 processors via shared memory.
 %mem=230GB
 %chk=M100034865_reduced_sp.chk
 ----------------------------------------------
 #p M062X/DEF2TZVPP scrf=(solvent=water) em=GD3
 ----------------------------------------------
 1/38=1,172=1/1;
 2/12=2,17=6,18=5,40=1/2;
 3/5=44,7=202,11=2,25=1,30=1,70=2201,72=1,74=-55,124=31/1,2,3;
 4//1;
 5/5=2,38=5,53=1/2;
 6/7=2,8=2,9=2,10=2,28=1/1;
 99/5=1,9=1/99;
 Leave Link    1 at Fri Nov  7 01:19:00 2025, MaxMem= 30870077440 cpu:              19.3 elap:               0.3
 (Enter /public/software/gauss/g16/l101.exe)
 -----------------------------------------
 Energy calculation for M100034865_reduced
 -----------------------------------------
 Symbolic Z-matrix:
 Charge = -1 Multiplicity = 2
 C                    -6.60487  -6.00195  -1.78571 
 S                    -6.73811  -4.58112  -0.65101 
 C                    -5.05876  -3.99844  -0.50518 
 C                    -4.83244  -2.9029    0.34555 
 C                    -3.55627  -2.37981   0.51248 
 C                    -2.45175  -2.92909  -0.16869 
 C                    -1.06092  -2.4751   -0.00089 
 C                     0.03461  -3.33163   0.14155 
 C                     1.19132  -2.5607    0.33147 
 C                     2.48251  -3.16059   0.72558 
 C                     2.98265  -4.27631   0.0313 
 C                     4.161    -4.90437   0.43747 
 C                     4.86048  -4.4344    1.55085 
 C                     4.36706  -3.33398   2.25844 
 C                     3.18981  -2.70702   1.85422 
 C                     0.78409  -1.19618   0.19961 
 C                     1.52789   0.01759   0.10815 
 C                     2.99085   0.00178   0.10269 
 C                     3.72539   0.83802   0.97798 
 C                     5.10643   0.83145   0.9928 
 C                     5.80397   0.00118   0.09344 
 N                     7.21832   0.        0.08882 
 O                     7.83506  -0.7622   -0.70722 
 O                     7.84152   0.76146   0.88056 
 C                     5.0994   -0.82645  -0.80317 
 C                     3.71887  -0.8321   -0.78021 
 C                     0.8369    1.26116  -0.0258 
 C                     1.29568   2.56292  -0.3943 
 C                     2.61894   3.04405  -0.85035 
 C                     3.28195   2.45446  -1.9414 
 C                     4.49582   2.96474  -2.39947 
 C                     5.06803   4.08355  -1.7867 
 C                     4.41096   4.6904   -0.71468 
 C                     3.19733   4.17748  -0.25338 
 C                     0.17174   3.39965  -0.35809 
 C                    -0.9507    2.63555  -0.02427 
 C                    -2.31693   3.16287   0.09594 
 C                    -3.24772   2.71388   1.04883 
 C                    -4.50948   3.29558   1.16291 
 C                    -4.88268   4.3556    0.32615 
 S                    -6.46669   5.17244   0.38447 
 C                    -7.36577   4.28691   1.70051 
 C                    -3.95979   4.8193   -0.6272 
 C                    -2.70549   4.23416  -0.73632 
 N                    -0.54432   1.33346   0.16962 
 B                    -1.45849   0.09159   0.2963 
 F                    -2.51062   0.17615  -0.61918 
 F                    -1.98307   0.01333   1.61618 
 N                    -0.60604  -1.17612   0.04347 
 C                    -2.69063  -4.03383  -1.00665 
 C                    -3.96842  -4.56313  -1.17937 
 H                    -6.23843  -5.69454  -2.76715 
 H                    -5.967    -6.78416  -1.3693 
 H                    -7.62063  -6.38917  -1.89104 
 H                    -5.66095  -2.46062   0.89211 
 H                    -3.41008  -1.55428   1.1961 
 H                    -0.02304  -4.40995   0.19477 
 H                     2.44837  -4.64235  -0.84059 
 H                     4.5331   -5.75984  -0.11904 
 H                     5.77804  -4.92159   1.86706 
 H                     4.89647  -2.96818   3.13359 
 H                     2.80774  -1.86125   2.41684 
 H                     3.19024   1.47442   1.67409 
 H                     5.65731   1.44882   1.69051 
 H                     5.64521  -1.44047  -1.50782 
 H                     3.18047  -1.46008  -1.48062 
 H                     2.83831   1.59471  -2.4327 
 H                     4.99162   2.49351  -3.2433 
 H                     6.01355   4.47966  -2.145 
 H                     4.84353   5.56271  -0.23307 
 H                     2.69556   4.6495    0.58631 
 H                     0.16672   4.45931  -0.57207 
 H                    -2.98246   1.90442   1.71631 
 H                    -5.18993   2.91703   1.91682 
 H                    -6.8683    4.39708   2.66608 
 H                    -8.3495    4.75877   1.75111 
 H                    -7.48976   3.23033   1.45498 
 H                    -4.22676   5.63578  -1.29247 
 H                    -2.01932   4.60032  -1.49318 
 H                    -1.86254  -4.47828  -1.55006 
 H                    -4.0999   -5.40751  -1.84572 
 
 ITRead=  0  0  0  0  0  0  0  0  0  0  0  0  0  0  0  0  0  0  0  0
 ITRead=  0  0  0  0  0  0  0  0  0  0  0  0  0  0  0  0  0  0  0  0
 ITRead=  0  0  0  0  0  0  0  0  0  0  0  0  0  0  0  0  0  0  0  0
 ITRead=  0  0  0  0  0  0  0  0  0  0  0  0  0  0  0  0  0  0  0  0
 ITRead=  0
 MicOpt= -1 -1 -1 -1 -1 -1 -1 -1 -1 -1 -1 -1 -1 -1 -1 -1 -1 -1 -1 -1
 MicOpt= -1 -1 -1 -1 -1 -1 -1 -1 -1 -1 -1 -1 -1 -1 -1 -1 -1 -1 -1 -1
 MicOpt= -1 -1 -1 -1 -1 -1 -1 -1 -1 -1 -1 -1 -1 -1 -1 -1 -1 -1 -1 -1
 MicOpt= -1 -1 -1 -1 -1 -1 -1 -1 -1 -1 -1 -1 -1 -1 -1 -1 -1 -1 -1 -1
 MicOpt= -1
 NAtoms=     81 NQM=       81 NQMF=       0 NMMI=      0 NMMIF=      0
                NMic=       0 NMicF=      0.
                    Isotopes and Nuclear Properties:
 (Nuclear quadrupole moments (NQMom) in fm**2, nuclear magnetic moments (NMagM)
  in nuclear magnetons)

  Atom         1           2           3           4           5           6           7           8           9          10
 IAtWgt=          12          32          12          12          12          12          12          12          12          12
 AtmWgt=  12.0000000  31.9720718  12.0000000  12.0000000  12.0000000  12.0000000  12.0000000  12.0000000  12.0000000  12.0000000
 NucSpn=           0           0           0           0           0           0           0           0           0           0
 AtZEff=  -0.0000000  -0.0000000  -0.0000000  -0.0000000  -0.0000000  -0.0000000  -0.0000000  -0.0000000  -0.0000000  -0.0000000
 NQMom=    0.0000000   0.0000000   0.0000000   0.0000000   0.0000000   0.0000000   0.0000000   0.0000000   0.0000000   0.0000000
 NMagM=    0.0000000   0.0000000   0.0000000   0.0000000   0.0000000   0.0000000   0.0000000   0.0000000   0.0000000   0.0000000
 AtZNuc=   6.0000000  16.0000000   6.0000000   6.0000000   6.0000000   6.0000000   6.0000000   6.0000000   6.0000000   6.0000000

  Atom        11          12          13          14          15          16          17          18          19          20
 IAtWgt=          12          12          12          12          12          12          12          12          12          12
 AtmWgt=  12.0000000  12.0000000  12.0000000  12.0000000  12.0000000  12.0000000  12.0000000  12.0000000  12.0000000  12.0000000
 NucSpn=           0           0           0           0           0           0           0           0           0           0
 AtZEff=  -0.0000000  -0.0000000  -0.0000000  -0.0000000  -0.0000000  -0.0000000  -0.0000000  -0.0000000  -0.0000000  -0.0000000
 NQMom=    0.0000000   0.0000000   0.0000000   0.0000000   0.0000000   0.0000000   0.0000000   0.0000000   0.0000000   0.0000000
 NMagM=    0.0000000   0.0000000   0.0000000   0.0000000   0.0000000   0.0000000   0.0000000   0.0000000   0.0000000   0.0000000
 AtZNuc=   6.0000000   6.0000000   6.0000000   6.0000000   6.0000000   6.0000000   6.0000000   6.0000000   6.0000000   6.0000000

  Atom        21          22          23          24          25          26          27          28          29          30
 IAtWgt=          12          14          16          16          12          12          12          12          12          12
 AtmWgt=  12.0000000  14.0030740  15.9949146  15.9949146  12.0000000  12.0000000  12.0000000  12.0000000  12.0000000  12.0000000
 NucSpn=           0           2           0           0           0           0           0           0           0           0
 AtZEff=  -0.0000000  -0.0000000  -0.0000000  -0.0000000  -0.0000000  -0.0000000  -0.0000000  -0.0000000  -0.0000000  -0.0000000
 NQMom=    0.0000000   2.0440000   0.0000000   0.0000000   0.0000000   0.0000000   0.0000000   0.0000000   0.0000000   0.0000000
 NMagM=    0.0000000   0.4037610   0.0000000   0.0000000   0.0000000   0.0000000   0.0000000   0.0000000   0.0000000   0.0000000
 AtZNuc=   6.0000000   7.0000000   8.0000000   8.0000000   6.0000000   6.0000000   6.0000000   6.0000000   6.0000000   6.0000000

  Atom        31          32          33          34          35          36          37          38          39          40
 IAtWgt=          12          12          12          12          12          12          12          12          12          12
 AtmWgt=  12.0000000  12.0000000  12.0000000  12.0000000  12.0000000  12.0000000  12.0000000  12.0000000  12.0000000  12.0000000
 NucSpn=           0           0           0           0           0           0           0           0           0           0
 AtZEff=  -0.0000000  -0.0000000  -0.0000000  -0.0000000  -0.0000000  -0.0000000  -0.0000000  -0.0000000  -0.0000000  -0.0000000
 NQMom=    0.0000000   0.0000000   0.0000000   0.0000000   0.0000000   0.0000000   0.0000000   0.0000000   0.0000000   0.0000000
 NMagM=    0.0000000   0.0000000   0.0000000   0.0000000   0.0000000   0.0000000   0.0000000   0.0000000   0.0000000   0.0000000
 AtZNuc=   6.0000000   6.0000000   6.0000000   6.0000000   6.0000000   6.0000000   6.0000000   6.0000000   6.0000000   6.0000000

  Atom        41          42          43          44          45          46          47          48          49          50
 IAtWgt=          32          12          12          12          14          11          19          19          14          12
 AtmWgt=  31.9720718  12.0000000  12.0000000  12.0000000  14.0030740  11.0093053  18.9984033  18.9984033  14.0030740  12.0000000
 NucSpn=           0           0           0           0           2           3           1           1           2           0
 AtZEff=  -0.0000000  -0.0000000  -0.0000000  -0.0000000  -0.0000000  -0.0000000  -0.0000000  -0.0000000  -0.0000000  -0.0000000
 NQMom=    0.0000000   0.0000000   0.0000000   0.0000000   2.0440000   4.0590000   0.0000000   0.0000000   2.0440000   0.0000000
 NMagM=    0.0000000   0.0000000   0.0000000   0.0000000   0.4037610   2.6886370   2.6288670   2.6288670   0.4037610   0.0000000
 AtZNuc=  16.0000000   6.0000000   6.0000000   6.0000000   7.0000000   5.0000000   9.0000000   9.0000000   7.0000000   6.0000000

  Atom        51          52          53          54          55          56          57          58          59          60
 IAtWgt=          12           1           1           1           1           1           1           1           1           1
 AtmWgt=  12.0000000   1.0078250   1.0078250   1.0078250   1.0078250   1.0078250   1.0078250   1.0078250   1.0078250   1.0078250
 NucSpn=           0           1           1           1           1           1           1           1           1           1
 AtZEff=  -0.0000000  -0.0000000  -0.0000000  -0.0000000  -0.0000000  -0.0000000  -0.0000000  -0.0000000  -0.0000000  -0.0000000
 NQMom=    0.0000000   0.0000000   0.0000000   0.0000000   0.0000000   0.0000000   0.0000000   0.0000000   0.0000000   0.0000000
 NMagM=    0.0000000   2.7928460   2.7928460   2.7928460   2.7928460   2.7928460   2.7928460   2.7928460   2.7928460   2.7928460
 AtZNuc=   6.0000000   1.0000000   1.0000000   1.0000000   1.0000000   1.0000000   1.0000000   1.0000000   1.0000000   1.0000000

  Atom        61          62          63          64          65          66          67          68          69          70
 IAtWgt=           1           1           1           1           1           1           1           1           1           1
 AtmWgt=   1.0078250   1.0078250   1.0078250   1.0078250   1.0078250   1.0078250   1.0078250   1.0078250   1.0078250   1.0078250
 NucSpn=           1           1           1           1           1           1           1           1           1           1
 AtZEff=  -0.0000000  -0.0000000  -0.0000000  -0.0000000  -0.0000000  -0.0000000  -0.0000000  -0.0000000  -0.0000000  -0.0000000
 NQMom=    0.0000000   0.0000000   0.0000000   0.0000000   0.0000000   0.0000000   0.0000000   0.0000000   0.0000000   0.0000000
 NMagM=    2.7928460   2.7928460   2.7928460   2.7928460   2.7928460   2.7928460   2.7928460   2.7928460   2.7928460   2.7928460
 AtZNuc=   1.0000000   1.0000000   1.0000000   1.0000000   1.0000000   1.0000000   1.0000000   1.0000000   1.0000000   1.0000000

  Atom        71          72          73          74          75          76          77          78          79          80
 IAtWgt=           1           1           1           1           1           1           1           1           1           1
 AtmWgt=   1.0078250   1.0078250   1.0078250   1.0078250   1.0078250   1.0078250   1.0078250   1.0078250   1.0078250   1.0078250
 NucSpn=           1           1           1           1           1           1           1           1           1           1
 AtZEff=  -0.0000000  -0.0000000  -0.0000000  -0.0000000  -0.0000000  -0.0000000  -0.0000000  -0.0000000  -0.0000000  -0.0000000
 NQMom=    0.0000000   0.0000000   0.0000000   0.0000000   0.0000000   0.0000000   0.0000000   0.0000000   0.0000000   0.0000000
 NMagM=    2.7928460   2.7928460   2.7928460   2.7928460   2.7928460   2.7928460   2.7928460   2.7928460   2.7928460   2.7928460
 AtZNuc=   1.0000000   1.0000000   1.0000000   1.0000000   1.0000000   1.0000000   1.0000000   1.0000000   1.0000000   1.0000000

  Atom        81
 IAtWgt=           1
 AtmWgt=   1.0078250
 NucSpn=           1
 AtZEff=  -0.0000000
 NQMom=    0.0000000
 NMagM=    2.7928460
 AtZNuc=   1.0000000
 Leave Link  101 at Fri Nov  7 01:19:00 2025, MaxMem= 30870077440 cpu:               4.9 elap:               0.1
 (Enter /public/software/gauss/g16/l202.exe)
 Stoichiometry    C41H30BF2N3O2S2(1-,2)
 Framework group  C1[X(C41H30BF2N3O2S2)]
 Deg. of freedom   237
 Full point group                 C1      NOp   1
 Largest Abelian subgroup         C1      NOp   1
 Largest concise Abelian subgroup C1      NOp   1
                         Standard orientation:                         
 ---------------------------------------------------------------------
 Center     Atomic      Atomic             Coordinates (Angstroms)
 Number     Number       Type             X           Y           Z
 ---------------------------------------------------------------------
      1          6           0       -6.604875    6.001951    1.785706
      2         16           0       -6.738105    4.581117    0.651007
      3          6           0       -5.058758    3.998440    0.505182
      4          6           0       -4.832437    2.902898   -0.345549
      5          6           0       -3.556265    2.379807   -0.512475
      6          6           0       -2.451750    2.929085    0.168690
      7          6           0       -1.060917    2.475095    0.000888
      8          6           0        0.034608    3.331633   -0.141552
      9          6           0        1.191316    2.560700   -0.331468
     10          6           0        2.482510    3.160591   -0.725576
     11          6           0        2.982652    4.276309   -0.031303
     12          6           0        4.160997    4.904367   -0.437465
     13          6           0        4.860482    4.434400   -1.550847
     14          6           0        4.367059    3.333976   -2.258444
     15          6           0        3.189806    2.707015   -1.854222
     16          6           0        0.784087    1.196175   -0.199607
     17          6           0        1.527889   -0.017590   -0.108150
     18          6           0        2.990845   -0.001781   -0.102689
     19          6           0        3.725393   -0.838017   -0.977976
     20          6           0        5.106428   -0.831450   -0.992804
     21          6           0        5.803972   -0.001181   -0.093435
     22          7           0        7.218324   -0.000003   -0.088823
     23          8           0        7.835059    0.762196    0.707219
     24          8           0        7.841516   -0.761461   -0.880562
     25          6           0        5.099401    0.826453    0.803165
     26          6           0        3.718868    0.832098    0.780206
     27          6           0        0.836903   -1.261164    0.025803
     28          6           0        1.295677   -2.562921    0.394299
     29          6           0        2.618939   -3.044048    0.850345
     30          6           0        3.281949   -2.454458    1.941401
     31          6           0        4.495822   -2.964737    2.399469
     32          6           0        5.068034   -4.083552    1.786703
     33          6           0        4.410964   -4.690404    0.714682
     34          6           0        3.197327   -4.177482    0.253377
     35          6           0        0.171736   -3.399647    0.358091
     36          6           0       -0.950698   -2.635548    0.024265
     37          6           0       -2.316930   -3.162872   -0.095938
     38          6           0       -3.247717   -2.713883   -1.048835
     39          6           0       -4.509476   -3.295577   -1.162910
     40          6           0       -4.882680   -4.355602   -0.326145
     41         16           0       -6.466689   -5.172442   -0.384467
     42          6           0       -7.365766   -4.286912   -1.700506
     43          6           0       -3.959793   -4.819295    0.627199
     44          6           0       -2.705491   -4.234162    0.736321
     45          7           0       -0.544318   -1.333460   -0.169617
     46          5           0       -1.458485   -0.091590   -0.296299
     47          9           0       -2.510624   -0.176145    0.619181
     48          9           0       -1.983067   -0.013331   -1.616183
     49          7           0       -0.606039    1.176121   -0.043469
     50          6           0       -2.690632    4.033831    1.006651
     51          6           0       -3.968418    4.563131    1.179370
     52          1           0       -6.238434    5.694543    2.767149
     53          1           0       -5.966998    6.784161    1.369295
     54          1           0       -7.620627    6.389166    1.891044
     55          1           0       -5.660953    2.460620   -0.892107
     56          1           0       -3.410077    1.554284   -1.196097
     57          1           0       -0.023037    4.409952   -0.194771
     58          1           0        2.448370    4.642354    0.840590
     59          1           0        4.533098    5.759836    0.119042
     60          1           0        5.778038    4.921589   -1.867055
     61          1           0        4.896468    2.968176   -3.133588
     62          1           0        2.807742    1.861254   -2.416839
     63          1           0        3.190237   -1.474417   -1.674094
     64          1           0        5.657309   -1.448824   -1.690511
     65          1           0        5.645212    1.440474    1.507818
     66          1           0        3.180470    1.460075    1.480623
     67          1           0        2.838306   -1.594712    2.432695
     68          1           0        4.991618   -2.493509    3.243302
     69          1           0        6.013550   -4.479662    2.144998
     70          1           0        4.843525   -5.562709    0.233069
     71          1           0        2.695559   -4.649500   -0.586313
     72          1           0        0.166718   -4.459311    0.572071
     73          1           0       -2.982460   -1.904420   -1.716308
     74          1           0       -5.189931   -2.917027   -1.916819
     75          1           0       -6.868301   -4.397081   -2.666083
     76          1           0       -8.349503   -4.758769   -1.751105
     77          1           0       -7.489759   -3.230325   -1.454975
     78          1           0       -4.226759   -5.635781    1.292473
     79          1           0       -2.019319   -4.600316    1.493176
     80          1           0       -1.862536    4.478284    1.550063
     81          1           0       -4.099904    5.407513    1.845723
 ---------------------------------------------------------------------
 Rotational constants (GHZ):           0.0621470           0.0358630           0.0242635
 Leave Link  202 at Fri Nov  7 01:19:00 2025, MaxMem= 30870077440 cpu:               0.2 elap:               0.0
 (Enter /public/software/gauss/g16/l301.exe)
 Standard basis: def2TZVPP (5D, 7F)
 Ernie: Thresh=  0.10000D-02 Tol=  0.10000D-05 Strict=F.
 There are  2310 symmetry adapted cartesian basis functions of A   symmetry.
 There are  2023 symmetry adapted basis functions of A   symmetry.
  2023 basis functions,  3147 primitive gaussians,  2310 cartesian basis functions
   185 alpha electrons      184 beta electrons
       nuclear repulsion energy      6687.1037119832 Hartrees.
 IExCor= 4336 DFT=T Ex+Corr=M062X ExCW=0 ScaHFX=  0.540000
 ScaDFX=  1.000000  1.000000  1.000000  1.000000 ScalE2=  1.000000  1.000000
 IRadAn=      5 IRanWt=     -1 IRanGd=            0 ICorTp=0 IEmpDi=131
 NAtoms=   81 NActive=   81 NUniq=   81 SFac= 1.00D+00 NAtFMM=   60 NAOKFM=T Big=T
 Integral buffers will be    131072 words long.
 Raffenetti 2 integral format.
 Two-electron integral symmetry is turned on.
 R6Disp:  Grimme-D3 Dispersion energy=       -0.0086741267 Hartrees.
 Nuclear repulsion after empirical dispersion term =     6687.0950378565 Hartrees.
 ------------------------------------------------------------------------------
 Polarizable Continuum Model (PCM)
 =================================
 Model                : PCM.
 Atomic radii         : UFF (Universal Force Field).
 Polarization charges : Total charges.
 Charge compensation  : None.
 Solution method      : On-the-fly selection.
 Cavity type          : Scaled VdW (van der Waals Surface) (Alpha=1.100).
 Cavity algorithm     : GePol (No added spheres)
                        Default sphere list used, NSphG=   81.
                        Lebedev-Laikov grids with approx.  5.0 points / Ang**2.
                        Smoothing algorithm: York/Karplus (Gamma=1.0000).
                        Polarization charges: spherical gaussians, with
                                              point-specific exponents (IZeta= 3).
                        Self-potential: point-specific (ISelfS= 7).
                        Self-field    : sphere-specific E.n sum rule (ISelfD= 2).
 Solvent              : Water, Eps=  78.355300 Eps(inf)=   1.777849
 ------------------------------------------------------------------------------
 GePol: Number of generator spheres                  =      81
 GePol: Total number of spheres                      =      81
 GePol: Number of exposed spheres                    =      81 (100.00%)
 GePol: Number of points                             =    5940
 GePol: Average weight of points                     =       0.13
 GePol: Minimum weight of points                     =   0.43D-11
 GePol: Maximum weight of points                     =    0.20577
 GePol: Number of points with low weight             =     408
 GePol: Fraction of low-weight points (<1% of avg)   =       6.87%
 GePol: Cavity surface area                          =    751.563 Ang**2
 GePol: Cavity volume                                =    898.958 Ang**3
 Leave Link  301 at Fri Nov  7 01:19:00 2025, MaxMem= 30870077440 cpu:               5.8 elap:               0.1
 (Enter /public/software/gauss/g16/l302.exe)
 NPDir=0 NMtPBC=     1 NCelOv=     1 NCel=       1 NClECP=     1 NCelD=      1
         NCelK=      1 NCelE2=     1 NClLst=     1 CellRange=     0.0.
 One-electron integrals computed using PRISM.
 One-electron integral symmetry used in STVInt
   1 Symmetry operations used in ECPInt.
 ECPInt:  NShTT=  279378 NPrTT=  813413 LenC2=  184819 LenP2D=  357385.
 LDataN:  DoStor=T MaxTD1= 6 Len=  172
 NBasis=  2023 RedAO= T EigKep=  3.70D-06  NBF=  2023
 NBsUse=  2023 1.00D-06 EigRej= -1.00D+00 NBFU=  2023
 Precomputing XC quadrature grid using
 IXCGrd= 4 IRadAn=           5 IRanWt=          -1 IRanGd=           0 AccXCQ= 0.00D+00.
 Generated NRdTot=       0 NPtTot=           0 NUsed=           0 NTot=          32
 NSgBfM=  2086  2086  2086  2086  2086 MxSgAt=    81 MxSgA2=    81.
 Leave Link  302 at Fri Nov  7 01:19:12 2025, MaxMem= 30870077440 cpu:             740.3 elap:              11.6
 (Enter /public/software/gauss/g16/l303.exe)
 DipDrv:  MaxL=1.
 Leave Link  303 at Fri Nov  7 01:19:12 2025, MaxMem= 30870077440 cpu:              33.1 elap:               0.6
 (Enter /public/software/gauss/g16/l401.exe)
 ExpMin= 6.06D-02 ExpMax= 6.07D+04 ExpMxC= 2.07D+03 IAcc=3 IRadAn=         5 AccDes= 0.00D+00
 Harris functional with IExCor= 1009 and IRadAn=       5 diagonalized for initial guess.
 HarFok:  IExCor= 1009 AccDes= 0.00D+00 IRadAn=         5 IDoV= 1 UseB2=F ITyADJ=14
 ICtDFT=  3500011 ScaDFX=  1.000000  1.000000  1.000000  1.000000
 FoFCou: FMM=F IPFlag=           0 FMFlag=      100000 FMFlg1=        2001
         NFxFlg=           0 DoJE=T BraDBF=F KetDBF=T FulRan=T
         wScrn=  0.000000 ICntrl=       500 IOpCl=  0 I1Cent=   200000004 NGrid=           0
         NMat0=    1 NMatS0=      1 NMatT0=    0 NMatD0=    1 NMtDS0=    0 NMtDT0=    0
 Petite list used in FoFCou.
 Harris En= -2914.92334690562    
 JPrj=0 DoOrth=F DoCkMO=F.
 Initial guess <Sx>= 0.0000 <Sy>= 0.0000 <Sz>= 0.5000 <S**2>= 0.7500 S= 0.5000
 Leave Link  401 at Fri Nov  7 01:19:26 2025, MaxMem= 30870077440 cpu:             894.9 elap:              14.1
 (Enter /public/software/gauss/g16/l502.exe)
 Integral symmetry usage will be decided dynamically.
 UHF open shell SCF:
 Using DIIS extrapolation, IDIIS=  1040.
 NGot= 30870077440 LenX= 30859238087 LenY= 30853899677
 Requested convergence on RMS density matrix=1.00D-08 within 128 cycles.
 Requested convergence on MAX density matrix=1.00D-06.
 Requested convergence on             energy=1.00D-06.
 No special actions if energy rises.
 Fock matrices will be formed incrementally for  20 cycles.

 Cycle   1  Pass 1  IDiag  1:
 FoFJK:  IHMeth= 1 ICntrl=       0 DoSepK=F KAlg= 0 I1Cent=           0 FoldK=F
 IRaf= 630000000 NMat=       1 IRICut=       1 DoRegI=T DoRafI=F ISym2E= 0 IDoP0=0 IntGTp=1.
 FoFCou: FMM=T IPFlag=           0 FMFlag=      100000 FMFlg1=        2001
         NFxFlg=           0 DoJE=F BraDBF=F KetDBF=F FulRan=T
         wScrn=  0.000000 ICntrl=         0 IOpCl=  1 I1Cent=           0 NGrid=           0
         NMat0=    1 NMatS0=      1 NMatT0=    0 NMatD0=    1 NMtDS0=    0 NMtDT0=    0
 Symmetry not used in FoFCou.
 FMM levels:  10  Number of levels for PrismC:   9
 Inv3:  Mode=1 IEnd=   105850800.
 Iteration    1 A*A^-1 deviation from unit magnitude is 1.62D-14 for   1464.
 Iteration    1 A*A^-1 deviation from orthogonality  is 7.41D-15 for   4617    742.
 Iteration    1 A^-1*A deviation from unit magnitude is 1.61D-14 for    174.
 Iteration    1 A^-1*A deviation from orthogonality  is 2.47D-13 for   5580   5464.
 E= -2914.95454053144    
 DIIS: error= 2.26D-02 at cycle   1 NSaved=   1.
 NSaved= 1 IEnMin= 1 EnMin= -2914.95454053144     IErMin= 1 ErrMin= 2.26D-02
 ErrMax= 2.26D-02  0.00D+00 EMaxC= 1.00D-01 BMatC= 6.61D+00 BMatP= 6.61D+00
 IDIUse=3 WtCom= 7.74D-01 WtEn= 2.26D-01
 Coeff-Com:  0.100D+01
 Coeff-En:   0.100D+01
 Coeff:      0.100D+01
 Gap=     0.074 Goal=   None    Shift=    0.000
 Gap=     0.231 Goal=   None    Shift=    0.000
 GapD=    0.074 DampG=0.500 DampE=0.500 DampFc=0.2500 IDamp=-1.
 Damping current iteration by 2.50D-01
 RMSDP=1.63D-03 MaxDP=2.49D-01              OVMax= 6.54D-01

 Cycle   2  Pass 1  IDiag  1:
 RMSU=  4.08D-04    CP:  9.97D-01
 E= -2915.41152274018     Delta-E=       -0.456982208740 Rises=F Damp=T
 DIIS: error= 1.23D-02 at cycle   2 NSaved=   2.
 NSaved= 2 IEnMin= 2 EnMin= -2915.41152274018     IErMin= 2 ErrMin= 1.23D-02
 ErrMax= 1.23D-02  0.00D+00 EMaxC= 1.00D-01 BMatC= 2.27D+00 BMatP= 6.61D+00
 IDIUse=3 WtCom= 8.77D-01 WtEn= 1.23D-01
 Coeff-Com: -0.112D+01 0.212D+01
 Coeff-En:   0.000D+00 0.100D+01
 Coeff:     -0.980D+00 0.198D+01
 Gap=     0.047 Goal=   None    Shift=    0.000
 Gap=     0.219 Goal=   None    Shift=    0.000
 RMSDP=9.65D-04 MaxDP=1.39D-01 DE=-4.57D-01 OVMax= 5.94D-01

 Cycle   3  Pass 1  IDiag  1:
 RMSU=  7.74D-04    CP:  9.91D-01  2.42D+00
 E= -2916.22568317273     Delta-E=       -0.814160432554 Rises=F Damp=F
 DIIS: error= 1.06D-02 at cycle   3 NSaved=   3.
 NSaved= 3 IEnMin= 3 EnMin= -2916.22568317273     IErMin= 3 ErrMin= 1.06D-02
 ErrMax= 1.06D-02  0.00D+00 EMaxC= 1.00D-01 BMatC= 2.92D-01 BMatP= 2.27D+00
 IDIUse=3 WtCom= 8.94D-01 WtEn= 1.06D-01
 Coeff-Com: -0.510D+00 0.884D+00 0.626D+00
 Coeff-En:   0.000D+00 0.000D+00 0.100D+01
 Coeff:     -0.456D+00 0.790D+00 0.666D+00
 Gap=     0.076 Goal=   None    Shift=    0.000
 Gap=     0.144 Goal=   None    Shift=    0.000
 RMSDP=3.25D-04 MaxDP=7.97D-02 DE=-8.14D-01 OVMax= 1.71D-01

 Cycle   4  Pass 1  IDiag  1:
 RMSU=  2.97D-04    CP:  9.81D-01  2.24D+00  8.65D-01
 E= -2916.27056695246     Delta-E=       -0.044883779725 Rises=F Damp=F
 DIIS: error= 5.02D-03 at cycle   4 NSaved=   4.
 NSaved= 4 IEnMin= 4 EnMin= -2916.27056695246     IErMin= 4 ErrMin= 5.02D-03
 ErrMax= 5.02D-03  0.00D+00 EMaxC= 1.00D-01 BMatC= 8.37D-02 BMatP= 2.92D-01
 IDIUse=3 WtCom= 9.50D-01 WtEn= 5.02D-02
 Coeff-Com: -0.111D+00 0.178D+00 0.363D+00 0.569D+00
 Coeff-En:   0.000D+00 0.000D+00 0.227D+00 0.773D+00
 Coeff:     -0.105D+00 0.169D+00 0.356D+00 0.580D+00
 Gap=     0.092 Goal=   None    Shift=    0.000
 Gap=     0.146 Goal=   None    Shift=    0.000
 RMSDP=1.35D-04 MaxDP=3.72D-02 DE=-4.49D-02 OVMax= 9.10D-02

 Cycle   5  Pass 1  IDiag  1:
 RMSU=  9.82D-05    CP:  9.83D-01  2.29D+00  9.06D-01  7.18D-01
 E= -2916.28861223226     Delta-E=       -0.018045279805 Rises=F Damp=F
 DIIS: error= 6.78D-04 at cycle   5 NSaved=   5.
 NSaved= 5 IEnMin= 5 EnMin= -2916.28861223226     IErMin= 5 ErrMin= 6.78D-04
 ErrMax= 6.78D-04  0.00D+00 EMaxC= 1.00D-01 BMatC= 5.31D-03 BMatP= 8.37D-02
 IDIUse=3 WtCom= 9.93D-01 WtEn= 6.78D-03
 Coeff-Com: -0.190D-01 0.274D-01 0.125D+00 0.288D+00 0.579D+00
 Coeff-En:   0.000D+00 0.000D+00 0.000D+00 0.000D+00 0.100D+01
 Coeff:     -0.189D-01 0.272D-01 0.124D+00 0.286D+00 0.582D+00
 Gap=     0.095 Goal=   None    Shift=    0.000
 Gap=     0.146 Goal=   None    Shift=    0.000
 RMSDP=5.11D-05 MaxDP=1.59D-02 DE=-1.80D-02 OVMax= 1.46D-02

 Cycle   6  Pass 1  IDiag  1:
 RMSU=  4.08D-05    CP:  9.82D-01  2.27D+00  8.90D-01  8.06D-01  9.24D-01
 E= -2916.29007887669     Delta-E=       -0.001466644431 Rises=F Damp=F
 DIIS: error= 2.68D-04 at cycle   6 NSaved=   6.
 NSaved= 6 IEnMin= 6 EnMin= -2916.29007887669     IErMin= 6 ErrMin= 2.68D-04
 ErrMax= 2.68D-04  0.00D+00 EMaxC= 1.00D-01 BMatC= 6.32D-04 BMatP= 5.31D-03
 IDIUse=3 WtCom= 9.97D-01 WtEn= 2.68D-03
 Coeff-Com:  0.158D-02-0.391D-02 0.160D-01 0.698D-01 0.282D+00 0.634D+00
 Coeff-En:   0.000D+00 0.000D+00 0.000D+00 0.000D+00 0.000D+00 0.100D+01
 Coeff:      0.157D-02-0.389D-02 0.160D-01 0.696D-01 0.281D+00 0.635D+00
 Gap=     0.097 Goal=   None    Shift=    0.000
 Gap=     0.147 Goal=   None    Shift=    0.000
 RMSDP=2.41D-05 MaxDP=7.12D-03 DE=-1.47D-03 OVMax= 1.51D-02

 Cycle   7  Pass 1  IDiag  1:
 RMSU=  1.52D-05    CP:  9.82D-01  2.28D+00  8.99D-01  7.91D-01  1.09D+00
                    CP:  1.10D+00
 E= -2916.29034482856     Delta-E=       -0.000265951869 Rises=F Damp=F
 DIIS: error= 9.42D-05 at cycle   7 NSaved=   7.
 NSaved= 7 IEnMin= 7 EnMin= -2916.29034482856     IErMin= 7 ErrMin= 9.42D-05
 ErrMax= 9.42D-05  0.00D+00 EMaxC= 1.00D-01 BMatC= 1.16D-04 BMatP= 6.32D-04
 IDIUse=1 WtCom= 1.00D+00 WtEn= 0.00D+00
 Coeff-Com:  0.430D-02-0.695D-02-0.245D-01-0.348D-01-0.119D-01 0.254D+00
 Coeff-Com:  0.820D+00
 Coeff:      0.430D-02-0.695D-02-0.245D-01-0.348D-01-0.119D-01 0.254D+00
 Coeff:      0.820D+00
 Gap=     0.099 Goal=   None    Shift=    0.000
 Gap=     0.148 Goal=   None    Shift=    0.000
 RMSDP=1.68D-05 MaxDP=3.28D-03 DE=-2.66D-04 OVMax= 1.31D-02

 Cycle   8  Pass 1  IDiag  1:
 RMSU=  8.58D-06    CP:  9.82D-01  2.28D+00  9.00D-01  8.06D-01  1.17D+00
                    CP:  1.32D+00  1.45D+00
 E= -2916.29045221195     Delta-E=       -0.000107383388 Rises=F Damp=F
 DIIS: error= 8.19D-05 at cycle   8 NSaved=   8.
 NSaved= 8 IEnMin= 8 EnMin= -2916.29045221195     IErMin= 8 ErrMin= 8.19D-05
 ErrMax= 8.19D-05  0.00D+00 EMaxC= 1.00D-01 BMatC= 3.25D-05 BMatP= 1.16D-04
 IDIUse=1 WtCom= 1.00D+00 WtEn= 0.00D+00
 Coeff-Com: -0.246D-03 0.414D-03-0.120D-01-0.219D-01-0.581D-01-0.501D-01
 Coeff-Com:  0.269D+00 0.873D+00
 Coeff:     -0.246D-03 0.414D-03-0.120D-01-0.219D-01-0.581D-01-0.501D-01
 Coeff:      0.269D+00 0.873D+00
 Gap=     0.100 Goal=   None    Shift=    0.000
 Gap=     0.148 Goal=   None    Shift=    0.000
 RMSDP=1.06D-05 MaxDP=1.72D-03 DE=-1.07D-04 OVMax= 1.17D-02

 Cycle   9  Pass 1  IDiag  1:
 RMSU=  4.91D-06    CP:  9.82D-01  2.28D+00  9.01D-01  8.07D-01  1.21D+00
                    CP:  1.41D+00  1.79D+00  1.60D+00
 E= -2916.29050065661     Delta-E=       -0.000048444657 Rises=F Damp=F
 DIIS: error= 6.11D-05 at cycle   9 NSaved=   9.
 NSaved= 9 IEnMin= 9 EnMin= -2916.29050065661     IErMin= 9 ErrMin= 6.11D-05
 ErrMax= 6.11D-05  0.00D+00 EMaxC= 1.00D-01 BMatC= 1.49D-05 BMatP= 3.25D-05
 IDIUse=1 WtCom= 1.00D+00 WtEn= 0.00D+00
 Coeff-Com: -0.165D-02 0.250D-02 0.207D-02 0.639D-02-0.781D-02-0.837D-01
 Coeff-Com: -0.191D+00 0.268D+00 0.100D+01
 Coeff:     -0.165D-02 0.250D-02 0.207D-02 0.639D-02-0.781D-02-0.837D-01
 Coeff:     -0.191D+00 0.268D+00 0.100D+01
 Gap=     0.100 Goal=   None    Shift=    0.000
 Gap=     0.148 Goal=   None    Shift=    0.000
 RMSDP=9.85D-06 MaxDP=1.16D-03 DE=-4.84D-05 OVMax= 1.17D-02

 Cycle  10  Pass 1  IDiag  1:
 RMSU=  3.30D-06    CP:  9.82D-01  2.27D+00  9.01D-01  8.08D-01  1.23D+00
                    CP:  1.48D+00  2.00D+00  2.36D+00  1.93D+00
 E= -2916.29053294822     Delta-E=       -0.000032291615 Rises=F Damp=F
 DIIS: error= 4.72D-05 at cycle  10 NSaved=  10.
 NSaved=10 IEnMin=10 EnMin= -2916.29053294822     IErMin=10 ErrMin= 4.72D-05
 ErrMax= 4.72D-05  0.00D+00 EMaxC= 1.00D-01 BMatC= 6.97D-06 BMatP= 1.49D-05
 IDIUse=1 WtCom= 1.00D+00 WtEn= 0.00D+00
 Coeff-Com: -0.932D-03 0.132D-02 0.507D-02 0.140D-01 0.238D-01-0.882D-02
 Coeff-Com: -0.204D+00-0.223D+00 0.340D+00 0.105D+01
 Coeff:     -0.932D-03 0.132D-02 0.507D-02 0.140D-01 0.238D-01-0.882D-02
 Coeff:     -0.204D+00-0.223D+00 0.340D+00 0.105D+01
 Gap=     0.101 Goal=   None    Shift=    0.000
 Gap=     0.148 Goal=   None    Shift=    0.000
 RMSDP=9.56D-06 MaxDP=1.10D-03 DE=-3.23D-05 OVMax= 1.14D-02

 Cycle  11  Pass 1  IDiag  1:
 RMSU=  1.73D-06    CP:  9.82D-01  2.27D+00  9.00D-01  8.09D-01  1.24D+00
                    CP:  1.52D+00  2.14D+00  3.00D+00  3.00D+00  2.23D+00
 E= -2916.29055509464     Delta-E=       -0.000022146423 Rises=F Damp=F
 DIIS: error= 3.66D-05 at cycle  11 NSaved=  11.
 NSaved=11 IEnMin=11 EnMin= -2916.29055509464     IErMin=11 ErrMin= 3.66D-05
 ErrMax= 3.66D-05  0.00D+00 EMaxC= 1.00D-01 BMatC= 3.12D-06 BMatP= 6.97D-06
 IDIUse=1 WtCom= 1.00D+00 WtEn= 0.00D+00
 Coeff-Com:  0.286D-03-0.508D-03-0.106D-02 0.530D-03 0.780D-02 0.433D-01
 Coeff-Com:  0.352D-01-0.131D+00-0.490D+00 0.238D+00 0.130D+01
 Coeff:      0.286D-03-0.508D-03-0.106D-02 0.530D-03 0.780D-02 0.433D-01
 Coeff:      0.352D-01-0.131D+00-0.490D+00 0.238D+00 0.130D+01
 Gap=     0.101 Goal=   None    Shift=    0.000
 Gap=     0.148 Goal=   None    Shift=    0.000
 RMSDP=1.01D-05 MaxDP=1.67D-03 DE=-2.21D-05 OVMax= 1.21D-02

 Cycle  12  Pass 1  IDiag  1:
 RMSU=  8.09D-06    CP:  9.82D-01  2.27D+00  8.98D-01  8.09D-01  1.25D+00
                    CP:  1.55D+00  2.21D+00  3.00D+00  3.00D+00  3.00D+00
                    CP:  2.88D+00
 E= -2916.29056992902     Delta-E=       -0.000014834379 Rises=F Damp=F
 DIIS: error= 2.30D-05 at cycle  12 NSaved=  12.
 NSaved=12 IEnMin=12 EnMin= -2916.29056992902     IErMin=12 ErrMin= 2.30D-05
 ErrMax= 2.30D-05  0.00D+00 EMaxC= 1.00D-01 BMatC= 1.49D-06 BMatP= 3.12D-06
 IDIUse=1 WtCom= 1.00D+00 WtEn= 0.00D+00
 Coeff-Com:  0.430D-03-0.681D-03-0.333D-02-0.561D-02-0.707D-02 0.282D-01
 Coeff-Com:  0.997D-01 0.653D-01-0.402D+00-0.363D+00 0.653D+00 0.935D+00
 Coeff:      0.430D-03-0.681D-03-0.333D-02-0.561D-02-0.707D-02 0.282D-01
 Coeff:      0.997D-01 0.653D-01-0.402D+00-0.363D+00 0.653D+00 0.935D+00
 Gap=     0.101 Goal=   None    Shift=    0.000
 Gap=     0.147 Goal=   None    Shift=    0.000
 RMSDP=6.52D-06 MaxDP=1.27D-03 DE=-1.48D-05 OVMax= 7.53D-03

 Cycle  13  Pass 1  IDiag  1:
 RMSU=  2.96D-06    CP:  9.82D-01  2.27D+00  8.97D-01  8.10D-01  1.25D+00
                    CP:  1.57D+00  2.23D+00  3.00D+00  3.00D+00  3.00D+00
                    CP:  3.00D+00  1.68D+00
 E= -2916.29057541639     Delta-E=       -0.000005487365 Rises=F Damp=F
 DIIS: error= 1.61D-05 at cycle  13 NSaved=  13.
 NSaved=13 IEnMin=13 EnMin= -2916.29057541639     IErMin=13 ErrMin= 1.61D-05
 ErrMax= 1.61D-05  0.00D+00 EMaxC= 1.00D-01 BMatC= 4.27D-07 BMatP= 1.49D-06
 IDIUse=1 WtCom= 1.00D+00 WtEn= 0.00D+00
 Coeff-Com: -0.131D-03 0.197D-03-0.871D-03-0.168D-02-0.552D-02-0.620D-02
 Coeff-Com:  0.146D-01 0.878D-01 0.319D-01-0.212D+00-0.270D+00 0.271D+00
 Coeff-Com:  0.109D+01
 Coeff:     -0.131D-03 0.197D-03-0.871D-03-0.168D-02-0.552D-02-0.620D-02
 Coeff:      0.146D-01 0.878D-01 0.319D-01-0.212D+00-0.270D+00 0.271D+00
 Coeff:      0.109D+01
 Gap=     0.102 Goal=   None    Shift=    0.000
 Gap=     0.147 Goal=   None    Shift=    0.000
 RMSDP=4.14D-06 MaxDP=7.94D-04 DE=-5.49D-06 OVMax= 4.94D-03

 Cycle  14  Pass 1  IDiag  1:
 RMSU=  5.77D-07    CP:  9.82D-01  2.27D+00  8.96D-01  8.10D-01  1.25D+00
                    CP:  1.58D+00  2.24D+00  3.00D+00  3.00D+00  3.00D+00
                    CP:  3.00D+00  2.10D+00  1.72D+00
 E= -2916.29057740575     Delta-E=       -0.000001989367 Rises=F Damp=F
 DIIS: error= 8.09D-06 at cycle  14 NSaved=  14.
 NSaved=14 IEnMin=14 EnMin= -2916.29057740575     IErMin=14 ErrMin= 8.09D-06
 ErrMax= 8.09D-06  0.00D+00 EMaxC= 1.00D-01 BMatC= 1.52D-07 BMatP= 4.27D-07
 IDIUse=1 WtCom= 1.00D+00 WtEn= 0.00D+00
 Coeff-Com: -0.185D-03 0.280D-03 0.719D-03 0.152D-02 0.622D-03-0.123D-01
 Coeff-Com: -0.322D-01 0.129D-01 0.131D+00 0.751D-01-0.310D+00-0.276D+00
 Coeff-Com:  0.325D+00 0.108D+01
 Coeff:     -0.185D-03 0.280D-03 0.719D-03 0.152D-02 0.622D-03-0.123D-01
 Coeff:     -0.322D-01 0.129D-01 0.131D+00 0.751D-01-0.310D+00-0.276D+00
 Coeff:      0.325D+00 0.108D+01
 Gap=     0.102 Goal=   None    Shift=    0.000
 Gap=     0.147 Goal=   None    Shift=    0.000
 RMSDP=2.46D-06 MaxDP=4.61D-04 DE=-1.99D-06 OVMax= 2.96D-03

 Cycle  15  Pass 1  IDiag  1:
 RMSU=  3.37D-07    CP:  9.82D-01  2.27D+00  8.96D-01  8.10D-01  1.25D+00
                    CP:  1.59D+00  2.25D+00  3.00D+00  3.00D+00  3.00D+00
                    CP:  3.00D+00  2.34D+00  2.13D+00  1.84D+00
 E= -2916.29057798482     Delta-E=       -0.000000579066 Rises=F Damp=F
 DIIS: error= 3.08D-06 at cycle  15 NSaved=  15.
 NSaved=15 IEnMin=15 EnMin= -2916.29057798482     IErMin=15 ErrMin= 3.08D-06
 ErrMax= 3.08D-06  0.00D+00 EMaxC= 1.00D-01 BMatC= 4.29D-08 BMatP= 1.52D-07
 IDIUse=1 WtCom= 1.00D+00 WtEn= 0.00D+00
 Coeff-Com: -0.413D-04 0.635D-04 0.469D-03 0.110D-02 0.197D-02-0.257D-02
 Coeff-Com: -0.151D-01-0.207D-01 0.275D-01 0.107D+00-0.162D-01-0.194D+00
 Coeff-Com: -0.245D+00 0.420D+00 0.936D+00
 Coeff:     -0.413D-04 0.635D-04 0.469D-03 0.110D-02 0.197D-02-0.257D-02
 Coeff:     -0.151D-01-0.207D-01 0.275D-01 0.107D+00-0.162D-01-0.194D+00
 Coeff:     -0.245D+00 0.420D+00 0.936D+00
 Gap=     0.102 Goal=   None    Shift=    0.000
 Gap=     0.147 Goal=   None    Shift=    0.000
 RMSDP=7.94D-07 MaxDP=1.42D-04 DE=-5.79D-07 OVMax= 9.34D-04

 Cycle  16  Pass 1  IDiag  1:
 RMSU=  1.53D-07    CP:  9.82D-01  2.27D+00  8.96D-01  8.10D-01  1.25D+00
                    CP:  1.59D+00  2.25D+00  3.00D+00  3.00D+00  3.00D+00
                    CP:  3.00D+00  2.41D+00  2.25D+00  2.40D+00  1.68D+00
 E= -2916.29057808215     Delta-E=       -0.000000097327 Rises=F Damp=F
 DIIS: error= 1.30D-06 at cycle  16 NSaved=  16.
 NSaved=16 IEnMin=16 EnMin= -2916.29057808215     IErMin=16 ErrMin= 1.30D-06
 ErrMax= 1.30D-06  0.00D+00 EMaxC= 1.00D-01 BMatC= 1.51D-08 BMatP= 4.29D-08
 IDIUse=1 WtCom= 1.00D+00 WtEn= 0.00D+00
 Coeff-Com:  0.315D-04-0.473D-04 0.301D-05 0.758D-04 0.849D-03 0.263D-02
 Coeff-Com:  0.302D-02-0.151D-01-0.284D-01 0.275D-01 0.876D-01-0.647D-02
 Coeff-Com: -0.220D+00-0.141D+00 0.455D+00 0.835D+00
 Coeff:      0.315D-04-0.473D-04 0.301D-05 0.758D-04 0.849D-03 0.263D-02
 Coeff:      0.302D-02-0.151D-01-0.284D-01 0.275D-01 0.876D-01-0.647D-02
 Coeff:     -0.220D+00-0.141D+00 0.455D+00 0.835D+00
 Gap=     0.102 Goal=   None    Shift=    0.000
 Gap=     0.147 Goal=   None    Shift=    0.000
 RMSDP=4.09D-07 MaxDP=5.21D-05 DE=-9.73D-08 OVMax= 4.63D-04

 Cycle  17  Pass 1  IDiag  1:
 RMSU=  9.70D-08    CP:  9.82D-01  2.27D+00  8.96D-01  8.10D-01  1.25D+00
                    CP:  1.59D+00  2.25D+00  3.00D+00  3.00D+00  3.00D+00
                    CP:  3.00D+00  2.45D+00  2.31D+00  2.67D+00  2.13D+00
                    CP:  1.50D+00
 E= -2916.29057810495     Delta-E=       -0.000000022801 Rises=F Damp=F
 DIIS: error= 6.54D-07 at cycle  17 NSaved=  17.
 NSaved=17 IEnMin=17 EnMin= -2916.29057810495     IErMin=17 ErrMin= 6.54D-07
 ErrMax= 6.54D-07  0.00D+00 EMaxC= 1.00D-01 BMatC= 4.08D-09 BMatP= 1.51D-08
 IDIUse=1 WtCom= 1.00D+00 WtEn= 0.00D+00
 Coeff-Com:  0.253D-04-0.396D-04-0.118D-03-0.235D-03-0.264D-04 0.195D-02
 Coeff-Com:  0.522D-02-0.276D-02-0.196D-01-0.153D-01 0.481D-01 0.490D-01
 Coeff-Com: -0.409D-01-0.180D+00-0.411D-01 0.408D+00 0.788D+00
 Coeff:      0.253D-04-0.396D-04-0.118D-03-0.235D-03-0.264D-04 0.195D-02
 Coeff:      0.522D-02-0.276D-02-0.196D-01-0.153D-01 0.481D-01 0.490D-01
 Coeff:     -0.409D-01-0.180D+00-0.411D-01 0.408D+00 0.788D+00
 Gap=     0.102 Goal=   None    Shift=    0.000
 Gap=     0.147 Goal=   None    Shift=    0.000
 RMSDP=1.35D-07 MaxDP=1.69D-05 DE=-2.28D-08 OVMax= 9.60D-05

 Cycle  18  Pass 1  IDiag  1:
 RMSU=  4.35D-08    CP:  9.82D-01  2.27D+00  8.96D-01  8.10D-01  1.25D+00
                    CP:  1.59D+00  2.25D+00  3.00D+00  3.00D+00  3.00D+00
                    CP:  3.00D+00  2.45D+00  2.32D+00  2.78D+00  2.33D+00
                    CP:  1.87D+00  1.32D+00
 E= -2916.29057810857     Delta-E=       -0.000000003625 Rises=F Damp=F
 DIIS: error= 3.75D-07 at cycle  18 NSaved=  18.
 NSaved=18 IEnMin=18 EnMin= -2916.29057810857     IErMin=18 ErrMin= 3.75D-07
 ErrMax= 3.75D-07  0.00D+00 EMaxC= 1.00D-01 BMatC= 1.07D-09 BMatP= 4.08D-09
 IDIUse=1 WtCom= 1.00D+00 WtEn= 0.00D+00
 Coeff-Com: -0.108D-06-0.922D-06-0.556D-04-0.133D-03-0.240D-03 0.195D-03
 Coeff-Com:  0.175D-02 0.284D-02-0.973D-03-0.154D-01 0.397D-03 0.256D-01
 Coeff-Com:  0.431D-01-0.470D-01-0.149D+00-0.330D-01 0.385D+00 0.788D+00
 Coeff:     -0.108D-06-0.922D-06-0.556D-04-0.133D-03-0.240D-03 0.195D-03
 Coeff:      0.175D-02 0.284D-02-0.973D-03-0.154D-01 0.397D-03 0.256D-01
 Coeff:      0.431D-01-0.470D-01-0.149D+00-0.330D-01 0.385D+00 0.788D+00
 Gap=     0.102 Goal=   None    Shift=    0.000
 Gap=     0.147 Goal=   None    Shift=    0.000
 RMSDP=7.17D-08 MaxDP=1.13D-05 DE=-3.63D-09 OVMax= 4.23D-05

 Cycle  19  Pass 1  IDiag  1:
 RMSU=  2.38D-08    CP:  9.82D-01  2.27D+00  8.96D-01  8.10D-01  1.25D+00
                    CP:  1.59D+00  2.25D+00  3.00D+00  3.00D+00  3.00D+00
                    CP:  3.00D+00  2.45D+00  2.31D+00  2.81D+00  2.41D+00
                    CP:  2.04D+00  1.56D+00  1.29D+00
 E= -2916.29057810904     Delta-E=       -0.000000000466 Rises=F Damp=F
 DIIS: error= 1.81D-07 at cycle  19 NSaved=  19.
 NSaved=19 IEnMin=19 EnMin= -2916.29057810904     IErMin=19 ErrMin= 1.81D-07
 ErrMax= 1.81D-07  0.00D+00 EMaxC= 1.00D-01 BMatC= 2.40D-10 BMatP= 1.07D-09
 IDIUse=1 WtCom= 1.00D+00 WtEn= 0.00D+00
 Coeff-Com: -0.502D-05 0.742D-05 0.204D-05-0.100D-04-0.100D-03-0.357D-03
 Coeff-Com: -0.355D-03 0.181D-02 0.394D-02-0.391D-02-0.970D-02-0.353D-03
 Coeff-Com:  0.275D-01 0.179D-01-0.570D-01-0.108D+00 0.864D-02 0.374D+00
 Coeff-Com:  0.746D+00
 Coeff:     -0.502D-05 0.742D-05 0.204D-05-0.100D-04-0.100D-03-0.357D-03
 Coeff:     -0.355D-03 0.181D-02 0.394D-02-0.391D-02-0.970D-02-0.353D-03
 Coeff:      0.275D-01 0.179D-01-0.570D-01-0.108D+00 0.864D-02 0.374D+00
 Coeff:      0.746D+00
 Gap=     0.102 Goal=   None    Shift=    0.000
 Gap=     0.147 Goal=   None    Shift=    0.000
 RMSDP=2.52D-08 MaxDP=4.22D-06 DE=-4.66D-10 OVMax= 1.22D-05

 Cycle  20  Pass 1  IDiag  1:
 RMSU=  1.13D-08    CP:  9.82D-01  2.27D+00  8.96D-01  8.10D-01  1.25D+00
                    CP:  1.59D+00  2.25D+00  3.00D+00  3.00D+00  3.00D+00
                    CP:  3.00D+00  2.45D+00  2.31D+00  2.83D+00  2.43D+00
                    CP:  2.10D+00  1.64D+00  1.52D+00  1.29D+00
 E= -2916.29057810917     Delta-E=       -0.000000000127 Rises=F Damp=F
 DIIS: error= 8.80D-08 at cycle  20 NSaved=  20.
 NSaved=20 IEnMin=20 EnMin= -2916.29057810917     IErMin=20 ErrMin= 8.80D-08
 ErrMax= 8.80D-08  0.00D+00 EMaxC= 1.00D-01 BMatC= 6.85D-11 BMatP= 2.40D-10
 IDIUse=1 WtCom= 1.00D+00 WtEn= 0.00D+00
 Coeff-Com: -0.163D-05 0.269D-05 0.154D-04 0.280D-04 0.620D-05-0.254D-03
 Coeff-Com: -0.686D-03 0.232D-03 0.245D-02 0.184D-02-0.506D-02-0.739D-02
 Coeff-Com:  0.340D-02 0.226D-01 0.842D-02-0.547D-01-0.939D-01 0.731D-02
 Coeff-Com:  0.408D+00 0.708D+00
 Coeff:     -0.163D-05 0.269D-05 0.154D-04 0.280D-04 0.620D-05-0.254D-03
 Coeff:     -0.686D-03 0.232D-03 0.245D-02 0.184D-02-0.506D-02-0.739D-02
 Coeff:      0.340D-02 0.226D-01 0.842D-02-0.547D-01-0.939D-01 0.731D-02
 Coeff:      0.408D+00 0.708D+00
 Gap=     0.102 Goal=   None    Shift=    0.000
 Gap=     0.147 Goal=   None    Shift=    0.000
 RMSDP=1.46D-08 MaxDP=3.55D-06 DE=-1.27D-10 OVMax= 9.08D-06

 Cycle  21  Pass 1  IDiag  1:
 Restarting incremental Fock formation.
 E= -2916.29057810975     Delta-E=       -0.000000000584 Rises=F Damp=F
 DIIS: error= 2.31D-08 at cycle  21 NSaved=  20.
 NSaved=20 IEnMin=20 EnMin= -2916.29057810975     IErMin=20 ErrMin= 2.31D-08
 ErrMax= 2.31D-08  0.00D+00 EMaxC= 1.00D-01 BMatC= 9.07D-12 BMatP= 6.85D-11
 IDIUse=1 WtCom= 1.00D+00 WtEn= 0.00D+00
 Coeff-Com:  0.203D-06 0.545D-05 0.110D-04 0.166D-04-0.209D-04-0.178D-03
 Coeff-Com: -0.206D-03 0.183D-03 0.125D-02 0.391D-05-0.223D-02-0.354D-02
 Coeff-Com:  0.429D-02 0.133D-01 0.161D-02-0.313D-01-0.712D-01-0.226D-01
 Coeff-Com:  0.233D+00 0.878D+00
 Coeff:      0.203D-06 0.545D-05 0.110D-04 0.166D-04-0.209D-04-0.178D-03
 Coeff:     -0.206D-03 0.183D-03 0.125D-02 0.391D-05-0.223D-02-0.354D-02
 Coeff:      0.429D-02 0.133D-01 0.161D-02-0.313D-01-0.712D-01-0.226D-01
 Coeff:      0.233D+00 0.878D+00
 Gap=     0.102 Goal=   None    Shift=    0.000
 Gap=     0.147 Goal=   None    Shift=    0.000
 RMSDP=7.19D-09 MaxDP=1.87D-06 DE=-5.84D-10 OVMax= 3.77D-06

 Cycle  22  Pass 1  IDiag  1:
 RMSU=  7.19D-09    CP:  1.00D+00
 E= -2916.29057810954     Delta-E=        0.000000000207 Rises=F Damp=F
 DIIS: error= 1.25D-08 at cycle  22 NSaved=  20.
 NSaved=20 IEnMin=19 EnMin= -2916.29057810975     IErMin=20 ErrMin= 1.25D-08
 ErrMax= 1.25D-08  0.00D+00 EMaxC= 1.00D-01 BMatC= 2.21D-12 BMatP= 9.07D-12
 IDIUse=1 WtCom= 1.00D+00 WtEn= 0.00D+00
 Coeff-Com: -0.346D-06-0.538D-06 0.492D-05 0.427D-04 0.570D-04-0.103D-03
 Coeff-Com: -0.378D-03 0.379D-04 0.832D-03 0.780D-03-0.163D-02-0.315D-02
 Coeff-Com:  0.253D-02 0.111D-01 0.106D-01-0.258D-01-0.102D+00-0.645D-01
 Coeff-Com:  0.342D+00 0.830D+00
 Coeff:     -0.346D-06-0.538D-06 0.492D-05 0.427D-04 0.570D-04-0.103D-03
 Coeff:     -0.378D-03 0.379D-04 0.832D-03 0.780D-03-0.163D-02-0.315D-02
 Coeff:      0.253D-02 0.111D-01 0.106D-01-0.258D-01-0.102D+00-0.645D-01
 Coeff:      0.342D+00 0.830D+00
 Gap=     0.102 Goal=   None    Shift=    0.000
 Gap=     0.147 Goal=   None    Shift=    0.000
 RMSDP=3.58D-09 MaxDP=8.81D-07 DE= 2.07D-10 OVMax= 1.72D-06

 Error on total polarization charges =  0.02813
 SCF Done:  E(UM062X) =  -2916.29057811     A.U. after   22 cycles
            NFock= 22  Conv=0.36D-08     -V/T= 2.0043
 <Sx>= 0.0000 <Sy>= 0.0000 <Sz>= 0.5000 <S**2>= 0.7730 S= 0.5114
 <L.S>= 0.000000000000E+00
 KE= 2.903667855092D+03 PE=-2.024328654958D+04 EE= 7.736233078527D+03
 Annihilation of the first spin contaminant:
 S**2 before annihilation     0.7730,   after     0.7504
 Leave Link  502 at Fri Nov  7 02:10:08 2025, MaxMem= 30870077440 cpu:          192743.4 elap:            3042.0
 (Enter /public/software/gauss/g16/l601.exe)
 Copying SCF densities to generalized density rwf, IOpCl= 1 IROHF=0.

 **********************************************************************

            Population analysis using the SCF density.

 **********************************************************************

 Orbital symmetries:
 Alpha Orbitals:
       Occupied  (A) (A) (A) (A) (A) (A) (A) (A) (A) (A) (A) (A)
                 (A) (A) (A) (A) (A) (A) (A) (A) (A) (A) (A) (A)
                 (A) (A) (A) (A) (A) (A) (A) (A) (A) (A) (A) (A)
                 (A) (A) (A) (A) (A) (A) (A) (A) (A) (A) (A) (A)
                 (A) (A) (A) (A) (A) (A) (A) (A) (A) (A) (A) (A)
                 (A) (A) (A) (A) (A) (A) (A) (A) (A) (A) (A) (A)
                 (A) (A) (A) (A) (A) (A) (A) (A) (A) (A) (A) (A)
                 (A) (A) (A) (A) (A) (A) (A) (A) (A) (A) (A) (A)
                 (A) (A) (A) (A) (A) (A) (A) (A) (A) (A) (A) (A)
                 (A) (A) (A) (A) (A) (A) (A) (A) (A) (A) (A) (A)
                 (A) (A) (A) (A) (A) (A) (A) (A) (A) (A) (A) (A)
                 (A) (A) (A) (A) (A) (A) (A) (A) (A) (A) (A) (A)
                 (A) (A) (A) (A) (A) (A) (A) (A) (A) (A) (A) (A)
                 (A) (A) (A) (A) (A) (A) (A) (A) (A) (A) (A) (A)
                 (A) (A) (A) (A) (A) (A) (A) (A) (A) (A) (A) (A)
                 (A) (A) (A) (A) (A)
       Virtual   (A) (A) (A) (A) (A) (A) (A) (A) (A) (A) (A) (A)
                 (A) (A) (A) (A) (A) (A) (A) (A) (A) (A) (A) (A)
                 (A) (A) (A) (A) (A) (A) (A) (A) (A) (A) (A) (A)
                 (A) (A) (A) (A) (A) (A) (A) (A) (A) (A) (A) (A)
                 (A) (A) (A) (A) (A) (A) (A) (A) (A) (A) (A) (A)
                 (A) (A) (A) (A) (A) (A) (A) (A) (A) (A) (A) (A)
                 (A) (A) (A) (A) (A) (A) (A) (A) (A) (A) (A) (A)
                 (A) (A) (A) (A) (A) (A) (A) (A) (A) (A) (A) (A)
                 (A) (A) (A) (A) (A) (A) (A) (A) (A) (A) (A) (A)
                 (A) (A) (A) (A) (A) (A) (A) (A) (A) (A) (A) (A)
                 (A) (A) (A) (A) (A) (A) (A) (A) (A) (A) (A) (A)
                 (A) (A) (A) (A) (A) (A) (A) (A) (A) (A) (A) (A)
                 (A) (A) (A) (A) (A) (A) (A) (A) (A) (A) (A) (A)
                 (A) (A) (A) (A) (A) (A) (A) (A) (A) (A) (A) (A)
                 (A) (A) (A) (A) (A) (A) (A) (A) (A) (A) (A) (A)
                 (A) (A) (A) (A) (A) (A) (A) (A) (A) (A) (A) (A)
                 (A) (A) (A) (A) (A) (A) (A) (A) (A) (A) (A) (A)
                 (A) (A) (A) (A) (A) (A) (A) (A) (A) (A) (A) (A)
                 (A) (A) (A) (A) (A) (A) (A) (A) (A) (A) (A) (A)
                 (A) (A) (A) (A) (A) (A) (A) (A) (A) (A) (A) (A)
                 (A) (A) (A) (A) (A) (A) (A) (A) (A) (A) (A) (A)
                 (A) (A) (A) (A) (A) (A) (A) (A) (A) (A) (A) (A)
                 (A) (A) (A) (A) (A) (A) (A) (A) (A) (A) (A) (A)
                 (A) (A) (A) (A) (A) (A) (A) (A) (A) (A) (A) (A)
                 (A) (A) (A) (A) (A) (A) (A) (A) (A) (A) (A) (A)
                 (A) (A) (A) (A) (A) (A) (A) (A) (A) (A) (A) (A)
                 (A) (A) (A) (A) (A) (A) (A) (A) (A) (A) (A) (A)
                 (A) (A) (A) (A) (A) (A) (A) (A) (A) (A) (A) (A)
                 (A) (A) (A) (A) (A) (A) (A) (A) (A) (A) (A) (A)
                 (A) (A) (A) (A) (A) (A) (A) (A) (A) (A) (A) (A)
                 (A) (A) (A) (A) (A) (A) (A) (A) (A) (A) (A) (A)
                 (A) (A) (A) (A) (A) (A) (A) (A) (A) (A) (A) (A)
                 (A) (A) (A) (A) (A) (A) (A) (A) (A) (A) (A) (A)
                 (A) (A) (A) (A) (A) (A) (A) (A) (A) (A) (A) (A)
                 (A) (A) (A) (A) (A) (A) (A) (A) (A) (A) (A) (A)
                 (A) (A) (A) (A) (A) (A) (A) (A) (A) (A) (A) (A)
                 (A) (A) (A) (A) (A) (A) (A) (A) (A) (A) (A) (A)
                 (A) (A) (A) (A) (A) (A) (A) (A) (A) (A) (A) (A)
                 (A) (A) (A) (A) (A) (A) (A) (A) (A) (A) (A) (A)
                 (A) (A) (A) (A) (A) (A) (A) (A) (A) (A) (A) (A)
                 (A) (A) (A) (A) (A) (A) (A) (A) (A) (A) (A) (A)
                 (A) (A) (A) (A) (A) (A) (A) (A) (A) (A) (A) (A)
                 (A) (A) (A) (A) (A) (A) (A) (A) (A) (A) (A) (A)
                 (A) (A) (A) (A) (A) (A) (A) (A) (A) (A) (A) (A)
                 (A) (A) (A) (A) (A) (A) (A) (A) (A) (A) (A) (A)
                 (A) (A) (A) (A) (A) (A) (A) (A) (A) (A) (A) (A)
                 (A) (A) (A) (A) (A) (A) (A) (A) (A) (A) (A) (A)
                 (A) (A) (A) (A) (A) (A) (A) (A) (A) (A) (A) (A)
                 (A) (A) (A) (A) (A) (A) (A) (A) (A) (A) (A) (A)
                 (A) (A) (A) (A) (A) (A) (A) (A) (A) (A) (A) (A)
                 (A) (A) (A) (A) (A) (A) (A) (A) (A) (A) (A) (A)
                 (A) (A) (A) (A) (A) (A) (A) (A) (A) (A) (A) (A)
                 (A) (A) (A) (A) (A) (A) (A) (A) (A) (A) (A) (A)
                 (A) (A) (A) (A) (A) (A) (A) (A) (A) (A) (A) (A)
                 (A) (A) (A) (A) (A) (A) (A) (A) (A) (A) (A) (A)
                 (A) (A) (A) (A) (A) (A) (A) (A) (A) (A) (A) (A)
                 (A) (A) (A) (A) (A) (A) (A) (A) (A) (A) (A) (A)
                 (A) (A) (A) (A) (A) (A) (A) (A) (A) (A) (A) (A)
                 (A) (A) (A) (A) (A) (A) (A) (A) (A) (A) (A) (A)
                 (A) (A) (A) (A) (A) (A) (A) (A) (A) (A) (A) (A)
                 (A) (A) (A) (A) (A) (A) (A) (A) (A) (A) (A) (A)
                 (A) (A) (A) (A) (A) (A) (A) (A) (A) (A) (A) (A)
                 (A) (A) (A) (A) (A) (A) (A) (A) (A) (A) (A) (A)
                 (A) (A) (A) (A) (A) (A) (A) (A) (A) (A) (A) (A)
                 (A) (A) (A) (A) (A) (A) (A) (A) (A) (A) (A) (A)
                 (A) (A) (A) (A) (A) (A) (A) (A) (A) (A) (A) (A)
                 (A) (A) (A) (A) (A) (A) (A) (A) (A) (A) (A) (A)
                 (A) (A) (A) (A) (A) (A) (A) (A) (A) (A) (A) (A)
                 (A) (A) (A) (A) (A) (A) (A) (A) (A) (A) (A) (A)
                 (A) (A) (A) (A) (A) (A) (A) (A) (A) (A) (A) (A)
                 (A) (A) (A) (A) (A) (A) (A) (A) (A) (A) (A) (A)
                 (A) (A) (A) (A) (A) (A) (A) (A) (A) (A) (A) (A)
                 (A) (A) (A) (A) (A) (A) (A) (A) (A) (A) (A) (A)
                 (A) (A) (A) (A) (A) (A) (A) (A) (A) (A) (A) (A)
                 (A) (A) (A) (A) (A) (A) (A) (A) (A) (A) (A) (A)
                 (A) (A) (A) (A) (A) (A) (A) (A) (A) (A) (A) (A)
                 (A) (A) (A) (A) (A) (A) (A) (A) (A) (A) (A) (A)
                 (A) (A) (A) (A) (A) (A) (A) (A) (A) (A) (A) (A)
                 (A) (A) (A) (A) (A) (A) (A) (A) (A) (A) (A) (A)
                 (A) (A) (A) (A) (A) (A) (A) (A) (A) (A) (A) (A)
                 (A) (A) (A) (A) (A) (A) (A) (A) (A) (A) (A) (A)
                 (A) (A) (A) (A) (A) (A) (A) (A) (A) (A) (A) (A)
                 (A) (A) (A) (A) (A) (A) (A) (A) (A) (A) (A) (A)
                 (A) (A) (A) (A) (A) (A) (A) (A) (A) (A) (A) (A)
                 (A) (A) (A) (A) (A) (A) (A) (A) (A) (A) (A) (A)
                 (A) (A) (A) (A) (A) (A) (A) (A) (A) (A) (A) (A)
                 (A) (A) (A) (A) (A) (A) (A) (A) (A) (A) (A) (A)
                 (A) (A) (A) (A) (A) (A) (A) (A) (A) (A) (A) (A)
                 (A) (A) (A) (A) (A) (A) (A) (A) (A) (A) (A) (A)
                 (A) (A) (A) (A) (A) (A) (A) (A) (A) (A) (A) (A)
                 (A) (A) (A) (A) (A) (A) (A) (A) (A) (A) (A) (A)
                 (A) (A) (A) (A) (A) (A) (A) (A) (A) (A) (A) (A)
                 (A) (A) (A) (A) (A) (A) (A) (A) (A) (A) (A) (A)
                 (A) (A) (A) (A) (A) (A) (A) (A) (A) (A) (A) (A)
                 (A) (A) (A) (A) (A) (A) (A) (A) (A) (A) (A) (A)
                 (A) (A) (A) (A) (A) (A) (A) (A) (A) (A) (A) (A)
                 (A) (A) (A) (A) (A) (A) (A) (A) (A) (A) (A) (A)
                 (A) (A) (A) (A) (A) (A) (A) (A) (A) (A) (A) (A)
                 (A) (A) (A) (A) (A) (A) (A) (A) (A) (A) (A) (A)
                 (A) (A) (A) (A) (A) (A) (A) (A) (A) (A) (A) (A)
                 (A) (A) (A) (A) (A) (A) (A) (A) (A) (A) (A) (A)
                 (A) (A) (A) (A) (A) (A) (A) (A) (A) (A) (A) (A)
                 (A) (A) (A) (A) (A) (A) (A) (A) (A) (A) (A) (A)
                 (A) (A) (A) (A) (A) (A) (A) (A) (A) (A) (A) (A)
                 (A) (A) (A) (A) (A) (A) (A) (A) (A) (A) (A) (A)
                 (A) (A) (A) (A) (A) (A) (A) (A) (A) (A) (A) (A)
                 (A) (A) (A) (A) (A) (A) (A) (A) (A) (A) (A) (A)
                 (A) (A) (A) (A) (A) (A) (A) (A) (A) (A) (A) (A)
                 (A) (A) (A) (A) (A) (A) (A) (A) (A) (A) (A) (A)
                 (A) (A) (A) (A) (A) (A) (A) (A) (A) (A) (A) (A)
                 (A) (A) (A) (A) (A) (A) (A) (A) (A) (A) (A) (A)
                 (A) (A) (A) (A) (A) (A) (A) (A) (A) (A) (A) (A)
                 (A) (A) (A) (A) (A) (A) (A) (A) (A) (A) (A) (A)
                 (A) (A) (A) (A) (A) (A) (A) (A) (A) (A) (A) (A)
                 (A) (A) (A) (A) (A) (A) (A) (A) (A) (A) (A) (A)
                 (A) (A) (A) (A) (A) (A) (A) (A) (A) (A) (A) (A)
                 (A) (A) (A) (A) (A) (A) (A) (A) (A) (A) (A) (A)
                 (A) (A) (A) (A) (A) (A) (A) (A) (A) (A) (A) (A)
                 (A) (A) (A) (A) (A) (A) (A) (A) (A) (A) (A) (A)
                 (A) (A) (A) (A) (A) (A) (A) (A) (A) (A) (A) (A)
                 (A) (A) (A) (A) (A) (A) (A) (A) (A) (A) (A) (A)
                 (A) (A) (A) (A) (A) (A) (A) (A) (A) (A) (A) (A)
                 (A) (A) (A) (A) (A) (A) (A) (A) (A) (A) (A) (A)
                 (A) (A) (A) (A) (A) (A) (A) (A) (A) (A) (A) (A)
                 (A) (A) (A) (A) (A) (A) (A) (A) (A) (A) (A) (A)
                 (A) (A) (A) (A) (A) (A) (A) (A) (A) (A) (A) (A)
                 (A) (A) (A) (A) (A) (A) (A) (A) (A) (A) (A) (A)
                 (A) (A) (A) (A) (A) (A) (A) (A) (A) (A) (A) (A)
                 (A) (A) (A) (A) (A) (A) (A) (A) (A) (A) (A) (A)
                 (A) (A) (A) (A) (A) (A) (A) (A) (A) (A) (A) (A)
                 (A) (A) (A) (A) (A) (A) (A) (A) (A) (A) (A) (A)
                 (A) (A) (A) (A) (A) (A) (A) (A) (A) (A) (A) (A)
                 (A) (A) (A) (A) (A) (A) (A) (A) (A) (A) (A) (A)
                 (A) (A) (A) (A) (A) (A) (A) (A) (A) (A) (A) (A)
                 (A) (A) (A) (A) (A) (A) (A) (A) (A) (A) (A) (A)
                 (A) (A) (A) (A) (A) (A) (A) (A) (A) (A) (A) (A)
                 (A) (A) (A) (A) (A) (A) (A) (A) (A) (A) (A) (A)
                 (A) (A) (A) (A) (A) (A) (A) (A) (A) (A) (A) (A)
                 (A) (A) (A) (A) (A) (A) (A) (A) (A) (A) (A) (A)
                 (A) (A) (A) (A) (A) (A) (A) (A) (A) (A) (A) (A)
                 (A) (A) (A) (A) (A) (A) (A) (A) (A) (A) (A) (A)
                 (A) (A) (A) (A) (A) (A) (A) (A) (A) (A) (A) (A)
                 (A) (A) (A) (A) (A) (A) (A) (A) (A) (A) (A) (A)
                 (A) (A) (A) (A) (A) (A) (A) (A) (A) (A) (A) (A)
                 (A) (A) (A) (A) (A) (A) (A) (A) (A) (A) (A) (A)
                 (A) (A) (A) (A) (A) (A) (A) (A) (A) (A) (A) (A)
                 (A) (A) (A) (A) (A) (A) (A) (A) (A) (A) (A) (A)
                 (A) (A) (A) (A) (A) (A) (A) (A) (A) (A) (A) (A)
                 (A) (A) (A) (A) (A) (A) (A) (A) (A) (A) (A) (A)
                 (A) (A) (A) (A) (A) (A) (A) (A) (A) (A) (A) (A)
                 (A) (A) (A) (A) (A) (A) (A) (A) (A) (A) (A) (A)
                 (A) (A) (A) (A) (A) (A) (A) (A) (A) (A) (A) (A)
                 (A) (A) (A) (A) (A) (A) (A) (A) (A) (A) (A) (A)
                 (A) (A)
 Beta  Orbitals:
       Occupied  (A) (A) (A) (A) (A) (A) (A) (A) (A) (A) (A) (A)
                 (A) (A) (A) (A) (A) (A) (A) (A) (A) (A) (A) (A)
                 (A) (A) (A) (A) (A) (A) (A) (A) (A) (A) (A) (A)
                 (A) (A) (A) (A) (A) (A) (A) (A) (A) (A) (A) (A)
                 (A) (A) (A) (A) (A) (A) (A) (A) (A) (A) (A) (A)
                 (A) (A) (A) (A) (A) (A) (A) (A) (A) (A) (A) (A)
                 (A) (A) (A) (A) (A) (A) (A) (A) (A) (A) (A) (A)
                 (A) (A) (A) (A) (A) (A) (A) (A) (A) (A) (A) (A)
                 (A) (A) (A) (A) (A) (A) (A) (A) (A) (A) (A) (A)
                 (A) (A) (A) (A) (A) (A) (A) (A) (A) (A) (A) (A)
                 (A) (A) (A) (A) (A) (A) (A) (A) (A) (A) (A) (A)
                 (A) (A) (A) (A) (A) (A) (A) (A) (A) (A) (A) (A)
                 (A) (A) (A) (A) (A) (A) (A) (A) (A) (A) (A) (A)
                 (A) (A) (A) (A) (A) (A) (A) (A) (A) (A) (A) (A)
                 (A) (A) (A) (A) (A) (A) (A) (A) (A) (A) (A) (A)
                 (A) (A) (A) (A)
       Virtual   (A) (A) (A) (A) (A) (A) (A) (A) (A) (A) (A) (A)
                 (A) (A) (A) (A) (A) (A) (A) (A) (A) (A) (A) (A)
                 (A) (A) (A) (A) (A) (A) (A) (A) (A) (A) (A) (A)
                 (A) (A) (A) (A) (A) (A) (A) (A) (A) (A) (A) (A)
                 (A) (A) (A) (A) (A) (A) (A) (A) (A) (A) (A) (A)
                 (A) (A) (A) (A) (A) (A) (A) (A) (A) (A) (A) (A)
                 (A) (A) (A) (A) (A) (A) (A) (A) (A) (A) (A) (A)
                 (A) (A) (A) (A) (A) (A) (A) (A) (A) (A) (A) (A)
                 (A) (A) (A) (A) (A) (A) (A) (A) (A) (A) (A) (A)
                 (A) (A) (A) (A) (A) (A) (A) (A) (A) (A) (A) (A)
                 (A) (A) (A) (A) (A) (A) (A) (A) (A) (A) (A) (A)
                 (A) (A) (A) (A) (A) (A) (A) (A) (A) (A) (A) (A)
                 (A) (A) (A) (A) (A) (A) (A) (A) (A) (A) (A) (A)
                 (A) (A) (A) (A) (A) (A) (A) (A) (A) (A) (A) (A)
                 (A) (A) (A) (A) (A) (A) (A) (A) (A) (A) (A) (A)
                 (A) (A) (A) (A) (A) (A) (A) (A) (A) (A) (A) (A)
                 (A) (A) (A) (A) (A) (A) (A) (A) (A) (A) (A) (A)
                 (A) (A) (A) (A) (A) (A) (A) (A) (A) (A) (A) (A)
                 (A) (A) (A) (A) (A) (A) (A) (A) (A) (A) (A) (A)
                 (A) (A) (A) (A) (A) (A) (A) (A) (A) (A) (A) (A)
                 (A) (A) (A) (A) (A) (A) (A) (A) (A) (A) (A) (A)
                 (A) (A) (A) (A) (A) (A) (A) (A) (A) (A) (A) (A)
                 (A) (A) (A) (A) (A) (A) (A) (A) (A) (A) (A) (A)
                 (A) (A) (A) (A) (A) (A) (A) (A) (A) (A) (A) (A)
                 (A) (A) (A) (A) (A) (A) (A) (A) (A) (A) (A) (A)
                 (A) (A) (A) (A) (A) (A) (A) (A) (A) (A) (A) (A)
                 (A) (A) (A) (A) (A) (A) (A) (A) (A) (A) (A) (A)
                 (A) (A) (A) (A) (A) (A) (A) (A) (A) (A) (A) (A)
                 (A) (A) (A) (A) (A) (A) (A) (A) (A) (A) (A) (A)
                 (A) (A) (A) (A) (A) (A) (A) (A) (A) (A) (A) (A)
                 (A) (A) (A) (A) (A) (A) (A) (A) (A) (A) (A) (A)
                 (A) (A) (A) (A) (A) (A) (A) (A) (A) (A) (A) (A)
                 (A) (A) (A) (A) (A) (A) (A) (A) (A) (A) (A) (A)
                 (A) (A) (A) (A) (A) (A) (A) (A) (A) (A) (A) (A)
                 (A) (A) (A) (A) (A) (A) (A) (A) (A) (A) (A) (A)
                 (A) (A) (A) (A) (A) (A) (A) (A) (A) (A) (A) (A)
                 (A) (A) (A) (A) (A) (A) (A) (A) (A) (A) (A) (A)
                 (A) (A) (A) (A) (A) (A) (A) (A) (A) (A) (A) (A)
                 (A) (A) (A) (A) (A) (A) (A) (A) (A) (A) (A) (A)
                 (A) (A) (A) (A) (A) (A) (A) (A) (A) (A) (A) (A)
                 (A) (A) (A) (A) (A) (A) (A) (A) (A) (A) (A) (A)
                 (A) (A) (A) (A) (A) (A) (A) (A) (A) (A) (A) (A)
                 (A) (A) (A) (A) (A) (A) (A) (A) (A) (A) (A) (A)
                 (A) (A) (A) (A) (A) (A) (A) (A) (A) (A) (A) (A)
                 (A) (A) (A) (A) (A) (A) (A) (A) (A) (A) (A) (A)
                 (A) (A) (A) (A) (A) (A) (A) (A) (A) (A) (A) (A)
                 (A) (A) (A) (A) (A) (A) (A) (A) (A) (A) (A) (A)
                 (A) (A) (A) (A) (A) (A) (A) (A) (A) (A) (A) (A)
                 (A) (A) (A) (A) (A) (A) (A) (A) (A) (A) (A) (A)
                 (A) (A) (A) (A) (A) (A) (A) (A) (A) (A) (A) (A)
                 (A) (A) (A) (A) (A) (A) (A) (A) (A) (A) (A) (A)
                 (A) (A) (A) (A) (A) (A) (A) (A) (A) (A) (A) (A)
                 (A) (A) (A) (A) (A) (A) (A) (A) (A) (A) (A) (A)
                 (A) (A) (A) (A) (A) (A) (A) (A) (A) (A) (A) (A)
                 (A) (A) (A) (A) (A) (A) (A) (A) (A) (A) (A) (A)
                 (A) (A) (A) (A) (A) (A) (A) (A) (A) (A) (A) (A)
                 (A) (A) (A) (A) (A) (A) (A) (A) (A) (A) (A) (A)
                 (A) (A) (A) (A) (A) (A) (A) (A) (A) (A) (A) (A)
                 (A) (A) (A) (A) (A) (A) (A) (A) (A) (A) (A) (A)
                 (A) (A) (A) (A) (A) (A) (A) (A) (A) (A) (A) (A)
                 (A) (A) (A) (A) (A) (A) (A) (A) (A) (A) (A) (A)
                 (A) (A) (A) (A) (A) (A) (A) (A) (A) (A) (A) (A)
                 (A) (A) (A) (A) (A) (A) (A) (A) (A) (A) (A) (A)
                 (A) (A) (A) (A) (A) (A) (A) (A) (A) (A) (A) (A)
                 (A) (A) (A) (A) (A) (A) (A) (A) (A) (A) (A) (A)
                 (A) (A) (A) (A) (A) (A) (A) (A) (A) (A) (A) (A)
                 (A) (A) (A) (A) (A) (A) (A) (A) (A) (A) (A) (A)
                 (A) (A) (A) (A) (A) (A) (A) (A) (A) (A) (A) (A)
                 (A) (A) (A) (A) (A) (A) (A) (A) (A) (A) (A) (A)
                 (A) (A) (A) (A) (A) (A) (A) (A) (A) (A) (A) (A)
                 (A) (A) (A) (A) (A) (A) (A) (A) (A) (A) (A) (A)
                 (A) (A) (A) (A) (A) (A) (A) (A) (A) (A) (A) (A)
                 (A) (A) (A) (A) (A) (A) (A) (A) (A) (A) (A) (A)
                 (A) (A) (A) (A) (A) (A) (A) (A) (A) (A) (A) (A)
                 (A) (A) (A) (A) (A) (A) (A) (A) (A) (A) (A) (A)
                 (A) (A) (A) (A) (A) (A) (A) (A) (A) (A) (A) (A)
                 (A) (A) (A) (A) (A) (A) (A) (A) (A) (A) (A) (A)
                 (A) (A) (A) (A) (A) (A) (A) (A) (A) (A) (A) (A)
                 (A) (A) (A) (A) (A) (A) (A) (A) (A) (A) (A) (A)
                 (A) (A) (A) (A) (A) (A) (A) (A) (A) (A) (A) (A)
                 (A) (A) (A) (A) (A) (A) (A) (A) (A) (A) (A) (A)
                 (A) (A) (A) (A) (A) (A) (A) (A) (A) (A) (A) (A)
                 (A) (A) (A) (A) (A) (A) (A) (A) (A) (A) (A) (A)
                 (A) (A) (A) (A) (A) (A) (A) (A) (A) (A) (A) (A)
                 (A) (A) (A) (A) (A) (A) (A) (A) (A) (A) (A) (A)
                 (A) (A) (A) (A) (A) (A) (A) (A) (A) (A) (A) (A)
                 (A) (A) (A) (A) (A) (A) (A) (A) (A) (A) (A) (A)
                 (A) (A) (A) (A) (A) (A) (A) (A) (A) (A) (A) (A)
                 (A) (A) (A) (A) (A) (A) (A) (A) (A) (A) (A) (A)
                 (A) (A) (A) (A) (A) (A) (A) (A) (A) (A) (A) (A)
                 (A) (A) (A) (A) (A) (A) (A) (A) (A) (A) (A) (A)
                 (A) (A) (A) (A) (A) (A) (A) (A) (A) (A) (A) (A)
                 (A) (A) (A) (A) (A) (A) (A) (A) (A) (A) (A) (A)
                 (A) (A) (A) (A) (A) (A) (A) (A) (A) (A) (A) (A)
                 (A) (A) (A) (A) (A) (A) (A) (A) (A) (A) (A) (A)
                 (A) (A) (A) (A) (A) (A) (A) (A) (A) (A) (A) (A)
                 (A) (A) (A) (A) (A) (A) (A) (A) (A) (A) (A) (A)
                 (A) (A) (A) (A) (A) (A) (A) (A) (A) (A) (A) (A)
                 (A) (A) (A) (A) (A) (A) (A) (A) (A) (A) (A) (A)
                 (A) (A) (A) (A) (A) (A) (A) (A) (A) (A) (A) (A)
                 (A) (A) (A) (A) (A) (A) (A) (A) (A) (A) (A) (A)
                 (A) (A) (A) (A) (A) (A) (A) (A) (A) (A) (A) (A)
                 (A) (A) (A) (A) (A) (A) (A) (A) (A) (A) (A) (A)
                 (A) (A) (A) (A) (A) (A) (A) (A) (A) (A) (A) (A)
                 (A) (A) (A) (A) (A) (A) (A) (A) (A) (A) (A) (A)
                 (A) (A) (A) (A) (A) (A) (A) (A) (A) (A) (A) (A)
                 (A) (A) (A) (A) (A) (A) (A) (A) (A) (A) (A) (A)
                 (A) (A) (A) (A) (A) (A) (A) (A) (A) (A) (A) (A)
                 (A) (A) (A) (A) (A) (A) (A) (A) (A) (A) (A) (A)
                 (A) (A) (A) (A) (A) (A) (A) (A) (A) (A) (A) (A)
                 (A) (A) (A) (A) (A) (A) (A) (A) (A) (A) (A) (A)
                 (A) (A) (A) (A) (A) (A) (A) (A) (A) (A) (A) (A)
                 (A) (A) (A) (A) (A) (A) (A) (A) (A) (A) (A) (A)
                 (A) (A) (A) (A) (A) (A) (A) (A) (A) (A) (A) (A)
                 (A) (A) (A) (A) (A) (A) (A) (A) (A) (A) (A) (A)
                 (A) (A) (A) (A) (A) (A) (A) (A) (A) (A) (A) (A)
                 (A) (A) (A) (A) (A) (A) (A) (A) (A) (A) (A) (A)
                 (A) (A) (A) (A) (A) (A) (A) (A) (A) (A) (A) (A)
                 (A) (A) (A) (A) (A) (A) (A) (A) (A) (A) (A) (A)
                 (A) (A) (A) (A) (A) (A) (A) (A) (A) (A) (A) (A)
                 (A) (A) (A) (A) (A) (A) (A) (A) (A) (A) (A) (A)
                 (A) (A) (A) (A) (A) (A) (A) (A) (A) (A) (A) (A)
                 (A) (A) (A) (A) (A) (A) (A) (A) (A) (A) (A) (A)
                 (A) (A) (A) (A) (A) (A) (A) (A) (A) (A) (A) (A)
                 (A) (A) (A) (A) (A) (A) (A) (A) (A) (A) (A) (A)
                 (A) (A) (A) (A) (A) (A) (A) (A) (A) (A) (A) (A)
                 (A) (A) (A) (A) (A) (A) (A) (A) (A) (A) (A) (A)
                 (A) (A) (A) (A) (A) (A) (A) (A) (A) (A) (A) (A)
                 (A) (A) (A) (A) (A) (A) (A) (A) (A) (A) (A) (A)
                 (A) (A) (A) (A) (A) (A) (A) (A) (A) (A) (A) (A)
                 (A) (A) (A) (A) (A) (A) (A) (A) (A) (A) (A) (A)
                 (A) (A) (A) (A) (A) (A) (A) (A) (A) (A) (A) (A)
                 (A) (A) (A) (A) (A) (A) (A) (A) (A) (A) (A) (A)
                 (A) (A) (A) (A) (A) (A) (A) (A) (A) (A) (A) (A)
                 (A) (A) (A) (A) (A) (A) (A) (A) (A) (A) (A) (A)
                 (A) (A) (A) (A) (A) (A) (A) (A) (A) (A) (A) (A)
                 (A) (A) (A) (A) (A) (A) (A) (A) (A) (A) (A) (A)
                 (A) (A) (A) (A) (A) (A) (A) (A) (A) (A) (A) (A)
                 (A) (A) (A) (A) (A) (A) (A) (A) (A) (A) (A) (A)
                 (A) (A) (A) (A) (A) (A) (A) (A) (A) (A) (A) (A)
                 (A) (A) (A) (A) (A) (A) (A) (A) (A) (A) (A) (A)
                 (A) (A) (A) (A) (A) (A) (A) (A) (A) (A) (A) (A)
                 (A) (A) (A) (A) (A) (A) (A) (A) (A) (A) (A) (A)
                 (A) (A) (A) (A) (A) (A) (A) (A) (A) (A) (A) (A)
                 (A) (A) (A) (A) (A) (A) (A) (A) (A) (A) (A) (A)
                 (A) (A) (A) (A) (A) (A) (A) (A) (A) (A) (A) (A)
                 (A) (A) (A) (A) (A) (A) (A) (A) (A) (A) (A) (A)
                 (A) (A) (A) (A) (A) (A) (A) (A) (A) (A) (A) (A)
                 (A) (A) (A) (A) (A) (A) (A) (A) (A) (A) (A) (A)
                 (A) (A) (A) (A) (A) (A) (A) (A) (A) (A) (A) (A)
                 (A) (A) (A) (A) (A) (A) (A) (A) (A) (A) (A) (A)
                 (A) (A) (A) (A) (A) (A) (A) (A) (A) (A) (A) (A)
                 (A) (A) (A) (A) (A) (A) (A) (A) (A) (A) (A) (A)
                 (A) (A) (A)
 The electronic state is 2-A.
 Alpha  occ. eigenvalues --  -89.90965 -89.90959 -25.19607 -25.19357 -19.65757
 Alpha  occ. eigenvalues --  -19.65754 -14.99094 -14.76754 -14.76705 -10.60119
 Alpha  occ. eigenvalues --  -10.58243 -10.58227 -10.57847 -10.57812 -10.57772
 Alpha  occ. eigenvalues --  -10.57685 -10.57387 -10.56763 -10.56581 -10.56573
 Alpha  occ. eigenvalues --  -10.56565 -10.56558 -10.55905 -10.55885 -10.55821
 Alpha  occ. eigenvalues --  -10.55765 -10.55646 -10.55621 -10.55032 -10.55023
 Alpha  occ. eigenvalues --  -10.54950 -10.54942 -10.54922 -10.54916 -10.54706
 Alpha  occ. eigenvalues --  -10.54637 -10.54589 -10.54583 -10.54556 -10.54528
 Alpha  occ. eigenvalues --  -10.54511 -10.54494 -10.54417 -10.54403 -10.54373
 Alpha  occ. eigenvalues --  -10.54372 -10.54363 -10.54337 -10.52850 -10.52774
 Alpha  occ. eigenvalues --   -8.26736  -8.26730  -7.11940  -6.18711  -6.18705
 Alpha  occ. eigenvalues --   -6.18503  -6.18496  -6.18222  -6.18217  -1.33097
 Alpha  occ. eigenvalues --   -1.31326  -1.28189  -1.14846  -1.08600  -1.06735
 Alpha  occ. eigenvalues --   -0.99367  -0.97344  -0.97246  -0.96423  -0.96353
 Alpha  occ. eigenvalues --   -0.93627  -0.90665  -0.90300  -0.89404  -0.88826
 Alpha  occ. eigenvalues --   -0.88090  -0.86269  -0.85380  -0.84923  -0.84818
 Alpha  occ. eigenvalues --   -0.84347  -0.84294  -0.84230  -0.83124  -0.82604
 Alpha  occ. eigenvalues --   -0.79590  -0.79525  -0.75590  -0.73960  -0.72432
 Alpha  occ. eigenvalues --   -0.70886  -0.70588  -0.70023  -0.69878  -0.69148
 Alpha  occ. eigenvalues --   -0.69051  -0.68956  -0.67655  -0.67459  -0.67104
 Alpha  occ. eigenvalues --   -0.65512  -0.64283  -0.63807  -0.63431  -0.62854
 Alpha  occ. eigenvalues --   -0.61246  -0.61002  -0.60460  -0.59947  -0.59826
 Alpha  occ. eigenvalues --   -0.58066  -0.57452  -0.57283  -0.56046  -0.55061
 Alpha  occ. eigenvalues --   -0.54740  -0.54083  -0.53628  -0.53294  -0.53141
 Alpha  occ. eigenvalues --   -0.52675  -0.52453  -0.52278  -0.51972  -0.51668
 Alpha  occ. eigenvalues --   -0.51244  -0.51038  -0.50861  -0.50556  -0.50403
 Alpha  occ. eigenvalues --   -0.50168  -0.50093  -0.49986  -0.49362  -0.48908
 Alpha  occ. eigenvalues --   -0.48687  -0.48607  -0.48518  -0.47939  -0.47379
 Alpha  occ. eigenvalues --   -0.47200  -0.46860  -0.46525  -0.46154  -0.46019
 Alpha  occ. eigenvalues --   -0.45544  -0.45325  -0.45111  -0.44876  -0.44481
 Alpha  occ. eigenvalues --   -0.44022  -0.43276  -0.42907  -0.42313  -0.41658
 Alpha  occ. eigenvalues --   -0.41610  -0.41021  -0.40503  -0.40380  -0.40261
 Alpha  occ. eigenvalues --   -0.40169  -0.39903  -0.39887  -0.39860  -0.38458
 Alpha  occ. eigenvalues --   -0.37840  -0.37757  -0.37736  -0.37374  -0.35711
 Alpha  occ. eigenvalues --   -0.35054  -0.33617  -0.33152  -0.32191  -0.31681
 Alpha  occ. eigenvalues --   -0.31626  -0.31524  -0.31138  -0.30929  -0.28922
 Alpha  occ. eigenvalues --   -0.28125  -0.28040  -0.26658  -0.24135  -0.18023
 Alpha virt. eigenvalues --   -0.07858  -0.00203  -0.00047   0.00363   0.01311
 Alpha virt. eigenvalues --    0.01322   0.01406   0.01546   0.01849   0.02096
 Alpha virt. eigenvalues --    0.03871   0.05650   0.05712   0.06052   0.07418
 Alpha virt. eigenvalues --    0.07832   0.07972   0.08360   0.08415   0.08781
 Alpha virt. eigenvalues --    0.09071   0.09583   0.09883   0.10080   0.10280
 Alpha virt. eigenvalues --    0.10624   0.10763   0.10950   0.11260   0.11672
 Alpha virt. eigenvalues --    0.11909   0.12471   0.12661   0.12795   0.13168
 Alpha virt. eigenvalues --    0.13185   0.13473   0.13619   0.13746   0.13997
 Alpha virt. eigenvalues --    0.14006   0.14165   0.14279   0.14479   0.14647
 Alpha virt. eigenvalues --    0.15019   0.15239   0.15331   0.15721   0.16260
 Alpha virt. eigenvalues --    0.16542   0.16888   0.17090   0.17656   0.17705
 Alpha virt. eigenvalues --    0.18058   0.18226   0.18352   0.18541   0.18838
 Alpha virt. eigenvalues --    0.19088   0.19439   0.19658   0.20266   0.20611
 Alpha virt. eigenvalues --    0.20803   0.21075   0.21434   0.21659   0.22017
 Alpha virt. eigenvalues --    0.22141   0.22413   0.22539   0.22784   0.23001
 Alpha virt. eigenvalues --    0.23175   0.23448   0.23739   0.24034   0.24102
 Alpha virt. eigenvalues --    0.24402   0.24548   0.24733   0.24855   0.25038
 Alpha virt. eigenvalues --    0.25059   0.25211   0.25337   0.25568   0.25584
 Alpha virt. eigenvalues --    0.25851   0.26085   0.26381   0.26578   0.26702
 Alpha virt. eigenvalues --    0.26865   0.27196   0.27413   0.27646   0.27793
 Alpha virt. eigenvalues --    0.27890   0.28131   0.28402   0.28816   0.28924
 Alpha virt. eigenvalues --    0.29304   0.29565   0.29654   0.29924   0.30073
 Alpha virt. eigenvalues --    0.30202   0.30400   0.30759   0.30964   0.31266
[...]
              Bcc     0.3899    52.327    18.672    17.454 -0.0058  0.1380  0.9904
 
              Baa    -0.0241    -3.232    -1.153    -1.078 -0.0075 -0.1775  0.9841
    18 C(13)  Bbb     0.0098     1.311     0.468     0.437  1.0000  0.0013  0.0078
              Bcc     0.0143     1.920     0.685     0.641 -0.0027  0.9841  0.1775
 
              Baa    -0.0246    -3.299    -1.177    -1.101  0.3412  0.4838  0.8059
    19 C(13)  Bbb    -0.0164    -2.202    -0.786    -0.734  0.9047  0.0638 -0.4213
              Bcc     0.0410     5.501     1.963     1.835 -0.2552  0.8728 -0.4160
 
              Baa    -0.0113    -1.518    -0.542    -0.506 -0.4113  0.7902 -0.4544
    20 C(13)  Bbb    -0.0002    -0.026    -0.009    -0.009  0.1249  0.5427  0.8306
              Bcc     0.0115     1.544     0.551     0.515  0.9029  0.2848 -0.3219
 
              Baa    -0.0416    -5.584    -1.992    -1.863 -0.0035  0.7021  0.7120
    21 C(13)  Bbb    -0.0319    -4.278    -1.526    -1.427  1.0000  0.0009  0.0041
              Bcc     0.0735     9.862     3.519     3.290  0.0023  0.7121 -0.7021
 
              Baa    -0.0336    -1.295    -0.462    -0.432 -0.0045  0.6885  0.7252
    22 N(14)  Bbb    -0.0292    -1.127    -0.402    -0.376  1.0000  0.0070 -0.0005
              Bcc     0.0628     2.422     0.864     0.808 -0.0054  0.7252 -0.6885
 
              Baa    -0.1093     7.906     2.821     2.637  0.5310  0.5801  0.6177
    23 O(17)  Bbb    -0.1040     7.523     2.684     2.509  0.8466 -0.3321 -0.4158
              Bcc     0.2132   -15.429    -5.505    -5.146 -0.0360  0.7438 -0.6675
 
              Baa    -0.1082     7.828     2.793     2.611 -0.5304  0.5797  0.6186
    24 O(17)  Bbb    -0.1029     7.445     2.657     2.484  0.8470  0.3314  0.4158
              Bcc     0.2111   -15.274    -5.450    -5.095  0.0360  0.7444 -0.6667
 
              Baa    -0.0122    -1.640    -0.585    -0.547  0.3409  0.8078 -0.4809
    25 C(13)  Bbb     0.0011     0.143     0.051     0.048 -0.1022  0.5403  0.8352
              Bcc     0.0112     1.498     0.534     0.500  0.9345 -0.2356  0.2668
 
              Baa    -0.0244    -3.275    -1.169    -1.092 -0.3334  0.4595  0.8232
    26 C(13)  Bbb    -0.0168    -2.254    -0.804    -0.752  0.9128 -0.0611  0.4038
              Bcc     0.0412     5.529     1.973     1.844  0.2359  0.8861 -0.3990
 
              Baa    -0.0622    -8.346    -2.978    -2.784 -0.1677  0.2032  0.9647
    27 C(13)  Bbb     0.0261     3.496     1.247     1.166  0.8524 -0.4618  0.2454
              Bcc     0.0361     4.850     1.731     1.618  0.4953  0.8634 -0.0958
 
              Baa    -0.0770   -10.329    -3.686    -3.445  0.9757  0.1189  0.1839
    28 C(13)  Bbb    -0.0747   -10.018    -3.575    -3.342 -0.0629  0.9566 -0.2847
              Bcc     0.1516    20.347     7.260     6.787 -0.2097  0.2662  0.9408
 
              Baa    -0.0076    -1.020    -0.364    -0.340 -0.4691 -0.4297  0.7716
    29 C(13)  Bbb     0.0026     0.349     0.125     0.116  0.4214  0.6589  0.6231
              Bcc     0.0050     0.670     0.239     0.224  0.7761 -0.6174  0.1280
 
              Baa    -0.0068    -0.917    -0.327    -0.306 -0.4072  0.5897  0.6974
    30 C(13)  Bbb    -0.0032    -0.428    -0.153    -0.143  0.5998 -0.4032  0.6911
              Bcc     0.0100     1.344     0.480     0.448  0.6888  0.6998 -0.1895
 
              Baa    -0.0042    -0.565    -0.202    -0.188  0.5932  0.5518 -0.5862
    31 C(13)  Bbb     0.0009     0.127     0.045     0.042  0.0058  0.7252  0.6885
              Bcc     0.0033     0.438     0.156     0.146  0.8050 -0.4119  0.4270
 
              Baa    -0.0062    -0.837    -0.299    -0.279  0.1865  0.6776  0.7114
    32 C(13)  Bbb    -0.0046    -0.611    -0.218    -0.204  0.8610 -0.4615  0.2138
              Bcc     0.0108     1.449     0.517     0.483 -0.4732 -0.5726  0.6695
 
              Baa    -0.0044    -0.588    -0.210    -0.196 -0.5412 -0.5057  0.6718
    33 C(13)  Bbb     0.0012     0.156     0.056     0.052  0.3211  0.6141  0.7210
              Bcc     0.0032     0.432     0.154     0.144  0.7772 -0.6059  0.1699
 
              Baa    -0.0067    -0.898    -0.321    -0.300  0.3649  0.3627  0.8575
    34 C(13)  Bbb    -0.0039    -0.525    -0.187    -0.175  0.9263 -0.2344 -0.2950
              Bcc     0.0106     1.423     0.508     0.475  0.0940  0.9020 -0.4215
 
              Baa    -0.0202    -2.717    -0.969    -0.906 -0.1767  0.0918  0.9800
    35 C(13)  Bbb     0.0095     1.280     0.457     0.427  0.7454  0.6627  0.0723
              Bcc     0.0107     1.436     0.513     0.479 -0.6428  0.7433 -0.1855
 
              Baa    -0.0732    -9.820    -3.504    -3.276  0.2081  0.9722 -0.1077
    36 C(13)  Bbb    -0.0703    -9.432    -3.366    -3.146  0.9644 -0.1855  0.1885
              Bcc     0.1435    19.252     6.870     6.422 -0.1633  0.1430  0.9762
 
              Baa    -0.0173    -2.321    -0.828    -0.774 -0.3334  0.6322  0.6994
    37 C(13)  Bbb     0.0068     0.909     0.324     0.303 -0.0772  0.7211 -0.6885
              Bcc     0.0105     1.412     0.504     0.471  0.9396  0.2835  0.1916
 
              Baa    -0.0128    -1.717    -0.613    -0.573 -0.1274 -0.6079  0.7837
    38 C(13)  Bbb    -0.0107    -1.440    -0.514    -0.480  0.8364  0.3588  0.4143
              Bcc     0.0235     3.157     1.126     1.053 -0.5331  0.7083  0.4627
 
              Baa    -0.0092    -1.231    -0.439    -0.411 -0.3622  0.6493  0.6688
    39 C(13)  Bbb     0.0037     0.494     0.176     0.165  0.3239 -0.5851  0.7435
              Bcc     0.0055     0.737     0.263     0.246  0.8740  0.4859  0.0016
 
              Baa    -0.0132    -1.773    -0.633    -0.591  0.2636 -0.6239  0.7357
    40 C(13)  Bbb    -0.0111    -1.495    -0.534    -0.499  0.8905  0.4505  0.0630
              Bcc     0.0244     3.268     1.166     1.090 -0.3708  0.6386  0.6743
 
              Baa    -0.0174    -0.712    -0.254    -0.238  0.8186  0.5697 -0.0730
    41 S(33)  Bbb    -0.0110    -0.452    -0.161    -0.151  0.4300 -0.5236  0.7355
              Bcc     0.0284     1.164     0.415     0.388 -0.3808  0.6335  0.6736
 
              Baa    -0.0002    -0.033    -0.012    -0.011 -0.3776  0.5611  0.7366
    42 C(13)  Bbb    -0.0001    -0.015    -0.005    -0.005 -0.0225  0.7897 -0.6131
              Bcc     0.0004     0.047     0.017     0.016  0.9257  0.2481  0.2856
 
              Baa    -0.0097    -1.306    -0.466    -0.436 -0.3532  0.6548  0.6682
    43 C(13)  Bbb     0.0037     0.491     0.175     0.164  0.2412 -0.6264  0.7413
              Bcc     0.0061     0.815     0.291     0.272  0.9039  0.4229  0.0633
 
              Baa    -0.0118    -1.580    -0.564    -0.527  0.5041 -0.4305  0.7487
    44 C(13)  Bbb    -0.0089    -1.193    -0.426    -0.398  0.8496  0.4032 -0.3401
              Bcc     0.0207     2.773     0.990     0.925 -0.1554  0.8075  0.5690
 
              Baa    -0.0321    -1.239    -0.442    -0.413  0.2039  0.9771  0.0615
    45 N(14)  Bbb    -0.0253    -0.976    -0.348    -0.326  0.8986 -0.2117  0.3842
              Bcc     0.0574     2.215     0.790     0.739 -0.3884  0.0231  0.9212
 
              Baa    -0.0028    -0.482    -0.172    -0.161 -0.1162  0.2543  0.9601
    46 B(11)  Bbb     0.0008     0.134     0.048     0.045  0.9800 -0.1277  0.1524
              Bcc     0.0020     0.348     0.124     0.116  0.1614  0.9587 -0.2344
 
              Baa    -0.0038    -1.895    -0.676    -0.632  0.3050  0.1576  0.9392
    47 F(19)  Bbb    -0.0020    -0.999    -0.356    -0.333  0.0084  0.9857 -0.1681
              Bcc     0.0058     2.894     1.032     0.965  0.9523 -0.0592 -0.2993
 
              Baa    -0.0111    -5.596    -1.997    -1.867 -0.3370  0.7963  0.5023
    48 F(19)  Bbb    -0.0091    -4.551    -1.624    -1.518 -0.2828 -0.5945  0.7528
              Bcc     0.0202    10.147     3.621     3.385  0.8980  0.1116  0.4255
 
              Baa    -0.0355    -1.367    -0.488    -0.456 -0.3516  0.9144  0.2005
    49 N(14)  Bbb    -0.0291    -1.122    -0.400    -0.374  0.8589  0.4003 -0.3194
              Bcc     0.0646     2.490     0.888     0.830  0.3723 -0.0599  0.9262
 
              Baa    -0.0126    -1.687    -0.602    -0.563  0.6076  0.5388  0.5835
    50 C(13)  Bbb    -0.0094    -1.264    -0.451    -0.422  0.7920 -0.3559 -0.4961
              Bcc     0.0220     2.950     1.053     0.984 -0.0596  0.7635 -0.6430
 
              Baa    -0.0090    -1.210    -0.432    -0.404 -0.1515 -0.6166  0.7725
    51 C(13)  Bbb     0.0032     0.426     0.152     0.142  0.3744  0.6875  0.6222
              Bcc     0.0058     0.784     0.280     0.262  0.9148 -0.3835 -0.1267
 
              Baa    -0.0003    -0.136    -0.049    -0.045  0.2302  0.7657 -0.6006
    52 H(1)   Bbb    -0.0001    -0.070    -0.025    -0.023  0.7528  0.2510  0.6085
              Bcc     0.0004     0.206     0.073     0.069  0.6166 -0.5923 -0.5186
 
              Baa    -0.0003    -0.143    -0.051    -0.048 -0.1448 -0.3945  0.9074
    53 H(1)   Bbb    -0.0001    -0.072    -0.026    -0.024  0.8119  0.4767  0.3369
              Bcc     0.0004     0.215     0.077     0.072 -0.5655  0.7855  0.2513
 
              Baa    -0.0002    -0.093    -0.033    -0.031  0.0668 -0.4034  0.9126
    54 H(1)   Bbb    -0.0002    -0.084    -0.030    -0.028  0.7526  0.6209  0.2193
              Bcc     0.0003     0.178     0.063     0.059 -0.6551  0.6721  0.3451
 
              Baa    -0.0006    -0.328    -0.117    -0.110 -0.1826 -0.5730  0.7989
    55 H(1)   Bbb    -0.0003    -0.151    -0.054    -0.050  0.4613  0.6677  0.5843
              Bcc     0.0009     0.479     0.171     0.160  0.8683 -0.4752 -0.1424
 
              Baa    -0.0014    -0.727    -0.259    -0.243 -0.1979 -0.4361  0.8779
    56 H(1)   Bbb     0.0002     0.123     0.044     0.041  0.9124 -0.4093  0.0024
              Bcc     0.0011     0.604     0.216     0.202  0.3582  0.8015  0.4789
 
              Baa    -0.0022    -1.187    -0.424    -0.396  0.1598  0.0344  0.9866
    57 H(1)   Bbb    -0.0000    -0.019    -0.007    -0.006  0.8413 -0.5275 -0.1179
              Bcc     0.0023     1.207     0.431     0.402  0.5164  0.8488 -0.1132
 
              Baa    -0.0015    -0.791    -0.282    -0.264  0.3733 -0.3973  0.8384
    58 H(1)   Bbb    -0.0006    -0.300    -0.107    -0.100  0.9236  0.0744 -0.3759
              Bcc     0.0020     1.090     0.389     0.364  0.0869  0.9147  0.3947
 
              Baa    -0.0006    -0.310    -0.111    -0.103  0.5061 -0.2574  0.8232
    59 H(1)   Bbb    -0.0001    -0.061    -0.022    -0.020  0.6395 -0.5285 -0.5584
              Bcc     0.0007     0.371     0.132     0.124  0.5788  0.8090 -0.1028
 
              Baa    -0.0016    -0.827    -0.295    -0.276 -0.0494  0.5544  0.8308
    60 H(1)   Bbb    -0.0001    -0.076    -0.027    -0.025  0.6726 -0.5965  0.4381
              Bcc     0.0017     0.903     0.322     0.301  0.7384  0.5804 -0.3434
 
              Baa    -0.0007    -0.366    -0.131    -0.122 -0.1254  0.7091  0.6939
    61 H(1)   Bbb    -0.0003    -0.175    -0.062    -0.058  0.7949 -0.3467  0.4980
              Bcc     0.0010     0.541     0.193     0.180  0.5937  0.6140 -0.5201
 
              Baa    -0.0017    -0.886    -0.316    -0.295  0.7897  0.1078  0.6039
    62 H(1)   Bbb    -0.0002    -0.123    -0.044    -0.041 -0.3933  0.8445  0.3636
              Bcc     0.0019     1.008     0.360     0.336 -0.4708 -0.5247  0.7093
 
              Baa    -0.0028    -1.516    -0.541    -0.506  0.0741 -0.5819  0.8099
    63 H(1)   Bbb     0.0005     0.242     0.086     0.081  0.9956  0.0892 -0.0270
              Bcc     0.0024     1.274     0.455     0.425 -0.0566  0.8084  0.5860
 
              Baa    -0.0020    -1.064    -0.380    -0.355  0.0282 -0.5695  0.8215
    64 H(1)   Bbb    -0.0002    -0.109    -0.039    -0.036 -0.0145  0.8215  0.5700
              Bcc     0.0022     1.173     0.419     0.391  0.9995  0.0280 -0.0149
 
              Baa    -0.0020    -1.070    -0.382    -0.357 -0.0141 -0.5436  0.8392
    65 H(1)   Bbb    -0.0003    -0.152    -0.054    -0.051  0.0771  0.8362  0.5430
              Bcc     0.0023     1.221     0.436     0.407  0.9969 -0.0723 -0.0301
 
              Baa    -0.0028    -1.480    -0.528    -0.494 -0.0893 -0.5855  0.8058
    66 H(1)   Bbb     0.0006     0.343     0.122     0.114  0.9951 -0.0185  0.0969
              Bcc     0.0021     1.137     0.406     0.379 -0.0418  0.8105  0.5843
 
              Baa    -0.0017    -0.932    -0.333    -0.311  0.7735 -0.2192 -0.5947
    67 H(1)   Bbb    -0.0003    -0.181    -0.065    -0.060  0.4087  0.8896  0.2037
              Bcc     0.0021     1.113     0.397     0.371  0.4844 -0.4007  0.7777
 
              Baa    -0.0007    -0.379    -0.135    -0.126  0.0526  0.7897  0.6113
    68 H(1)   Bbb    -0.0003    -0.146    -0.052    -0.049  0.8104  0.3240 -0.4882
              Bcc     0.0010     0.525     0.187     0.175  0.5835 -0.5210  0.6229
 
              Baa    -0.0012    -0.655    -0.234    -0.219 -0.0030  0.5956  0.8033
    69 H(1)   Bbb    -0.0001    -0.054    -0.019    -0.018  0.6904  0.5824 -0.4292
              Bcc     0.0013     0.709     0.253     0.236  0.7235 -0.5533  0.4129
 
              Baa    -0.0005    -0.287    -0.103    -0.096 -0.4196 -0.1485  0.8955
    70 H(1)   Bbb    -0.0002    -0.089    -0.032    -0.030  0.7115  0.5587  0.4261
              Bcc     0.0007     0.377     0.134     0.126 -0.5636  0.8159 -0.1288
 
              Baa    -0.0015    -0.793    -0.283    -0.264 -0.2597 -0.3259  0.9090
    71 H(1)   Bbb    -0.0006    -0.323    -0.115    -0.108  0.9406  0.1277  0.3145
              Bcc     0.0021     1.116     0.398     0.372 -0.2186  0.9367  0.2734
 
              Baa    -0.0022    -1.165    -0.416    -0.389 -0.1394  0.2683  0.9532
    72 H(1)   Bbb     0.0001     0.049     0.017     0.016  0.8175  0.5744 -0.0421
              Bcc     0.0021     1.116     0.398     0.372 -0.5589  0.7733 -0.2994
 
              Baa    -0.0013    -0.690    -0.246    -0.230 -0.3816  0.5164  0.7666
    73 H(1)   Bbb     0.0001     0.048     0.017     0.016  0.9241  0.1964  0.3277
              Bcc     0.0012     0.642     0.229     0.214  0.0186  0.8335 -0.5522
 
              Baa    -0.0006    -0.337    -0.120    -0.112 -0.3904  0.6226  0.6782
    74 H(1)   Bbb    -0.0003    -0.167    -0.060    -0.056  0.3322 -0.5918  0.7345
              Bcc     0.0009     0.504     0.180     0.168  0.8586  0.5120  0.0242
 
              Baa    -0.0003    -0.139    -0.050    -0.046 -0.5405  0.6622  0.5189
    75 H(1)   Bbb    -0.0001    -0.059    -0.021    -0.020  0.2331  0.7105 -0.6639
              Bcc     0.0004     0.198     0.071     0.066  0.8084  0.2379  0.5384
 
              Baa    -0.0002    -0.098    -0.035    -0.033 -0.4108  0.2811  0.8673
    76 H(1)   Bbb    -0.0001    -0.073    -0.026    -0.024 -0.0405  0.9447 -0.3253
              Bcc     0.0003     0.171     0.061     0.057  0.9108  0.1688  0.3767
 
              Baa    -0.0003    -0.151    -0.054    -0.050 -0.2890  0.3872  0.8755
    77 H(1)   Bbb    -0.0001    -0.048    -0.017    -0.016  0.0622  0.9202 -0.3864
              Bcc     0.0004     0.199     0.071     0.066  0.9553  0.0572  0.2900
 
              Baa    -0.0006    -0.340    -0.121    -0.113 -0.3927  0.6105  0.6877
    78 H(1)   Bbb    -0.0002    -0.107    -0.038    -0.036  0.2162 -0.6656  0.7143
              Bcc     0.0008     0.447     0.159     0.149  0.8939  0.4292  0.1294
 
              Baa    -0.0018    -0.955    -0.341    -0.319 -0.1495  0.5444  0.8254
    79 H(1)   Bbb     0.0001     0.077     0.027     0.026  0.9857  0.1475  0.0813
              Bcc     0.0016     0.879     0.313     0.293 -0.0775  0.8258 -0.5586
 
              Baa    -0.0020    -1.093    -0.390    -0.365  0.1190 -0.4801  0.8691
    80 H(1)   Bbb     0.0003     0.174     0.062     0.058  0.9765 -0.1019 -0.1900
              Bcc     0.0017     0.920     0.328     0.307  0.1798  0.8713  0.4567
 
              Baa    -0.0007    -0.354    -0.126    -0.118 -0.1972 -0.5842  0.7873
    81 H(1)   Bbb    -0.0002    -0.121    -0.043    -0.040  0.3977  0.6864  0.6089
              Bcc     0.0009     0.476     0.170     0.159  0.8961 -0.4331 -0.0970
 

 ---------------------------------------------------------------------------------

 No NMR shielding tensors so no spin-rotation constants.
 Leave Link  601 at Fri Nov  7 02:10:13 2025, MaxMem= 30870077440 cpu:             249.3 elap:               4.5
 (Enter /public/software/gauss/g16/l9999.exe)
 1\1\GINC-CU015\SP\UM062X\def2TZVPP\C41H30B1F2N3O2S2(1-,2)\BAIDING\07-N
 ov-2025\0\\#p M062X/DEF2TZVPP scrf=(solvent=water) em=GD3\\Energy calc
 ulation for M100034865_reduced\\-1,2\C,0,-6.604875,-6.001951,-1.785706
 \S,0,-6.738105,-4.581117,-0.651007\C,0,-5.058758,-3.99844,-0.505182\C,
 0,-4.832437,-2.902898,0.345549\C,0,-3.556265,-2.379807,0.512475\C,0,-2
 .45175,-2.929085,-0.16869\C,0,-1.060917,-2.475095,-0.000888\C,0,0.0346
 08,-3.331633,0.141552\C,0,1.191316,-2.5607,0.331468\C,0,2.48251,-3.160
 591,0.725576\C,0,2.982652,-4.276309,0.031303\C,0,4.160997,-4.904367,0.
 437465\C,0,4.860482,-4.4344,1.550847\C,0,4.367059,-3.333976,2.258444\C
 ,0,3.189806,-2.707015,1.854222\C,0,0.784087,-1.196175,0.199607\C,0,1.5
 27889,0.01759,0.10815\C,0,2.990845,0.001781,0.102689\C,0,3.725393,0.83
 8017,0.977976\C,0,5.106428,0.83145,0.992804\C,0,5.803972,0.001181,0.09
 3435\N,0,7.218324,0.000003,0.088823\O,0,7.835059,-0.762196,-0.707219\O
 ,0,7.841516,0.761461,0.880562\C,0,5.099401,-0.826453,-0.803165\C,0,3.7
 18868,-0.832098,-0.780206\C,0,0.836903,1.261164,-0.025803\C,0,1.295677
 ,2.562921,-0.394299\C,0,2.618939,3.044048,-0.850345\C,0,3.281949,2.454
 458,-1.941401\C,0,4.495822,2.964737,-2.399469\C,0,5.068034,4.083552,-1
 .786703\C,0,4.410964,4.690404,-0.714682\C,0,3.197327,4.177482,-0.25337
 7\C,0,0.171736,3.399647,-0.358091\C,0,-0.950698,2.635548,-0.024265\C,0
 ,-2.31693,3.162872,0.095938\C,0,-3.247717,2.713883,1.048835\C,0,-4.509
 476,3.295577,1.16291\C,0,-4.88268,4.355602,0.326145\S,0,-6.466689,5.17
 2442,0.384467\C,0,-7.365766,4.286912,1.700506\C,0,-3.959793,4.819295,-
 0.627199\C,0,-2.705491,4.234162,-0.736321\N,0,-0.544318,1.33346,0.1696
 17\B,0,-1.458485,0.09159,0.296299\F,0,-2.510624,0.176145,-0.619181\F,0
 ,-1.983067,0.013331,1.616183\N,0,-0.606039,-1.176121,0.043469\C,0,-2.6
 90632,-4.033831,-1.006651\C,0,-3.968418,-4.563131,-1.17937\H,0,-6.2384
 34,-5.694543,-2.767149\H,0,-5.966998,-6.784161,-1.369295\H,0,-7.620627
 ,-6.389166,-1.891044\H,0,-5.660953,-2.46062,0.892107\H,0,-3.410077,-1.
 554284,1.196097\H,0,-0.023037,-4.409952,0.194771\H,0,2.44837,-4.642354
 ,-0.84059\H,0,4.533098,-5.759836,-0.119042\H,0,5.778038,-4.921589,1.86
 7055\H,0,4.896468,-2.968176,3.133588\H,0,2.807742,-1.861254,2.416839\H
 ,0,3.190237,1.474417,1.674094\H,0,5.657309,1.448824,1.690511\H,0,5.645
 212,-1.440474,-1.507818\H,0,3.18047,-1.460075,-1.480623\H,0,2.838306,1
 .594712,-2.432695\H,0,4.991618,2.493509,-3.243302\H,0,6.01355,4.479662
 ,-2.144998\H,0,4.843525,5.562709,-0.233069\H,0,2.695559,4.6495,0.58631
 3\H,0,0.166718,4.459311,-0.572071\H,0,-2.98246,1.90442,1.716308\H,0,-5
 .189931,2.917027,1.916819\H,0,-6.868301,4.397081,2.666083\H,0,-8.34950
 3,4.758769,1.751105\H,0,-7.489759,3.230325,1.454975\H,0,-4.226759,5.63
 5781,-1.292473\H,0,-2.019319,4.600316,-1.493176\H,0,-1.862536,-4.47828
 4,-1.550063\H,0,-4.099904,-5.407513,-1.845723\\Version=ES64L-G16RevA.0
 3\State=2-A\HF=-2916.2905781\S2=0.772977\S2-1=0.\S2A=0.75045\RMSD=3.57
 6e-09\Dipole=-3.1335717,-1.1178152,-0.4320886\Quadrupole=-61.0971798,3
 1.7801113,29.3170685,8.2863873,-4.5859723,16.0802575\PG=C01 [X(C41H30B
 1F2N3O2S2)]\\@


 WHEN ALL ELSE FAILS, LOOK AT THE SCHRODINGER EQUATION.
     -- RUSSELL T. PACK, APRIL 1978
 Job cpu time:       2 days  6 hours  5 minutes 17.7 seconds.
 Elapsed time:       0 days  0 hours 51 minutes 13.9 seconds.
 File lengths (MBytes):  RWF=   4351 Int=      0 D2E=      0 Chk=    285 Scr=      1
 Normal termination of Gaussian 16 at Fri Nov  7 02:10:14 2025.
