 Entering Gaussian System, Link 0=g16
 Input=M100034731_sp.gjf
 Output=M100034731_sp.log
 Initial command:
 /work/home/accqbws0vm/apprepo/gaussian/16-hy/scripts/../app/g16/l1.exe "/work/home/accqbws0vm/1009_first_energy/tmp_M100034731_sp_25803945/Gau-61741.inp" -scrdir="/work/home/accqbws0vm/1009_first_energy/tmp_M100034731_sp_25803945/"
 Entering Link 1 = /work/home/accqbws0vm/apprepo/gaussian/16-hy/scripts/../app/g16/l1.exe PID=     61742.
  
 Copyright (c) 1988,1990,1992,1993,1995,1998,2003,2009,2016,
            Gaussian, Inc.  All Rights Reserved.
  
 This is part of the Gaussian(R) 16 program.  It is based on
 the Gaussian(R) 09 system (copyright 2009, Gaussian, Inc.),
 the Gaussian(R) 03 system (copyright 2003, Gaussian, Inc.),
 the Gaussian(R) 98 system (copyright 1998, Gaussian, Inc.),
 the Gaussian(R) 94 system (copyright 1995, Gaussian, Inc.),
 the Gaussian 92(TM) system (copyright 1992, Gaussian, Inc.),
 the Gaussian 90(TM) system (copyright 1990, Gaussian, Inc.),
 the Gaussian 88(TM) system (copyright 1988, Gaussian, Inc.),
 the Gaussian 86(TM) system (copyright 1986, Carnegie Mellon
 University), and the Gaussian 82(TM) system (copyright 1983,
 Carnegie Mellon University). Gaussian is a federally registered
 trademark of Gaussian, Inc.
  
 This software contains proprietary and confidential information,
 including trade secrets, belonging to Gaussian, Inc.
  
 This software is provided under written license and may be
 used, copied, transmitted, or stored only in accord with that
 written license.
  
 The following legend is applicable only to US Government
 contracts under FAR:
  
                    RESTRICTED RIGHTS LEGEND
  
 Use, reproduction and disclosure by the US Government is
 subject to restrictions as set forth in subparagraphs (a)
 and (c) of the Commercial Computer Software - Restricted
 Rights clause in FAR 52.227-19.
  
 Gaussian, Inc.
 340 Quinnipiac St., Bldg. 40, Wallingford CT 06492
  
  
 ---------------------------------------------------------------
 Warning -- This program may not be used in any manner that
 competes with the business of Gaussian, Inc. or will provide
 assistance to any competitor of Gaussian, Inc.  The licensee
 of this program is prohibited from giving any competitor of
 Gaussian, Inc. access to this program.  By using this program,
 the user acknowledges that Gaussian, Inc. is engaged in the
 business of creating and licensing software in the field of
 computational chemistry and represents and warrants to the
 licensee that it is not a competitor of Gaussian, Inc. and that
 it will not use this program in any manner prohibited above.
 ---------------------------------------------------------------
  

 Cite this work as:
 Gaussian 16, Revision A.03,
 M. J. Frisch, G. W. Trucks, H. B. Schlegel, G. E. Scuseria, 
 M. A. Robb, J. R. Cheeseman, G. Scalmani, V. Barone, 
 G. A. Petersson, H. Nakatsuji, X. Li, M. Caricato, A. V. Marenich, 
 J. Bloino, B. G. Janesko, R. Gomperts, B. Mennucci, H. P. Hratchian, 
 J. V. Ortiz, A. F. Izmaylov, J. L. Sonnenberg, D. Williams-Young, 
 F. Ding, F. Lipparini, F. Egidi, J. Goings, B. Peng, A. Petrone, 
 T. Henderson, D. Ranasinghe, V. G. Zakrzewski, J. Gao, N. Rega, 
 G. Zheng, W. Liang, M. Hada, M. Ehara, K. Toyota, R. Fukuda, 
 J. Hasegawa, M. Ishida, T. Nakajima, Y. Honda, O. Kitao, H. Nakai, 
 T. Vreven, K. Throssell, J. A. Montgomery, Jr., J. E. Peralta, 
 F. Ogliaro, M. J. Bearpark, J. J. Heyd, E. N. Brothers, K. N. Kudin, 
 V. N. Staroverov, T. A. Keith, R. Kobayashi, J. Normand, 
 K. Raghavachari, A. P. Rendell, J. C. Burant, S. S. Iyengar, 
 J. Tomasi, M. Cossi, J. M. Millam, M. Klene, C. Adamo, R. Cammi, 
 J. W. Ochterski, R. L. Martin, K. Morokuma, O. Farkas, 
 J. B. Foresman, and D. J. Fox, Gaussian, Inc., Wallingford CT, 2016.
 
 ******************************************
 Gaussian 16:  ES64L-G16RevA.03 25-Dec-2016
                 9-Oct-2025 
 ******************************************
 %nprocshared=64
 Will use up to   64 processors via shared memory.
 %mem=230GB
 %chk=M100034731_sp.chk
 ----------------------------------------------
 #p M062X/DEF2TZVPP scrf=(solvent=water) em=GD3
 ----------------------------------------------
 1/38=1,172=1/1;
 2/12=2,17=6,18=5,40=1/2;
 3/5=44,7=202,11=2,25=1,30=1,70=2201,72=1,74=-55,124=31/1,2,3;
 4//1;
 5/5=2,38=5,53=1/2;
 6/7=2,8=2,9=2,10=2,28=1/1;
 99/5=1,9=1/99;
 Leave Link    1 at Thu Oct  9 08:59:00 2025, MaxMem= 30870077440 cpu:               6.6 elap:               0.1
 (Enter /work/home/accqbws0vm/apprepo/gaussian/16-hy/scripts/../app/g16/l101.exe)
 ---------------------------------
 Energy calculation for M100034731
 ---------------------------------
 Symbolic Z-matrix:
 Charge =  0 Multiplicity = 1
 C                     3.61335   5.87673   1.2551 
 C                     2.66451   5.03575   2.126 
 C                     1.59963   4.3238    1.33554 
 C                     1.77335   3.07665   0.65589 
 C                     3.0093    2.33605   0.69757 
 C                     3.46097   1.35418  -0.12789 
 C                     4.73365   0.65989  -0.01097 
 C                     5.65463   0.85387   1.04304 
 C                     6.85548   0.16516   1.09146 
 C                     7.19729  -0.76678   0.08792 
 C                     6.28601  -0.97477  -0.96484 
 C                     5.08955  -0.27368  -1.00763 
 N                     8.41844  -1.46779   0.13994 
 C                     8.99043  -1.83902   1.39288 
 C                     10.36285  -1.65698   1.62326 
 C                     10.92528  -2.03657   2.84134 
 C                     10.12962  -2.58669   3.84947 
 C                     8.76213  -2.76292   3.62331 
 C                     8.19383  -2.40217   2.40224 
 C                     9.09857  -1.82883  -1.06153 
 C                     9.267    -0.89266  -2.09373 
 C                     9.93667  -1.25223  -3.26257 
 C                     10.4618  -2.53841  -3.41258 
 C                     10.30292  -3.46788  -2.38177 
 C                     9.62027  -3.12231  -1.21595 
 N                     0.60634   2.75176   0.01834 
 C                    -0.32301   3.77143   0.2629 
 C                     0.3097    4.77304   1.07628 
 C                    -0.26481   6.06796   1.56947 
 C                    -1.63985   3.68219  -0.21865 
 C                    -2.08353   2.55461  -0.93433 
 C                    -3.34951   2.21796  -1.51594 
 C                    -4.59968   3.04524  -1.57171 
 C                    -3.21522   0.94091  -2.06978 
 C                    -4.24023   0.21438  -2.89984 
 C                    -4.29914   0.72028  -4.35186 
 C                    -1.88236   0.50892  -1.82111 
 C                    -1.18908  -0.69026  -2.28496 
 C                    -1.55147  -1.99389  -2.21812 
 C                    -2.64849  -2.66515  -1.52055 
 C                    -2.95868  -3.99361  -1.87605 
 C                    -3.97363  -4.70375  -1.24843 
 C                    -4.71156  -4.11911  -0.20302 
 C                    -4.3891   -2.80338   0.1855 
 C                    -3.38651  -2.0958   -0.4615 
 N                    -5.73896  -4.8344    0.45057 
 C                    -6.90625  -4.16077   0.91468 
 C                    -7.43655  -4.45535   2.18076 
 C                    -8.58839  -3.80849   2.62683 
 C                    -9.21856  -2.84993   1.82933 
 C                    -8.68794  -2.55051   0.57193 
 C                    -7.54664  -3.20472   0.11 
 C                    -5.62644  -6.24274   0.64586 
 C                    -4.42831  -6.80353   1.11576 
 C                    -4.32569  -8.18121   1.30407 
 C                    -5.41585  -9.01632   1.04599 
 C                    -6.61195  -8.45841   0.58786 
 C                    -6.71849  -7.0836    0.38033 
 N                    -1.21237   1.4933   -1.15915 
 B                     0.28122   1.45043  -0.76206 
 F                     1.05144   1.38432  -1.94656 
 F                     0.54476   0.32521   0.02406 
 C                    -2.60398   4.79375   0.04592 
 C                    -2.69662   5.87275  -0.84581 
 C                    -3.59518   6.90801  -0.61161 
 C                    -4.39845   6.84816   0.52706 
 C                    -4.331     5.78705   1.43022 
 C                    -3.42862   4.75896   1.18068 
 N                    -5.34143   7.93334   0.78279 
 O                    -5.39505   8.86896  -0.02223 
 O                    -6.04803   7.87341   1.79438 
 H                     4.13049   5.25247   0.51918 
 H                     3.06289   6.65058   0.7099 
 H                     4.37081   6.37069   1.87283 
 H                     3.25135   4.30891   2.69836 
 H                     2.1897    5.68409   2.86864 
 H                     3.66907   2.67357   1.49145 
 H                     2.85856   1.05958  -0.97877 
 H                     5.43526   1.56246   1.83546 
 H                     7.54475   0.34967   1.90777 
 H                     6.51614  -1.69366  -1.74304 
 H                     4.3993   -0.45811  -1.82636 
 H                     10.98291  -1.21787   0.84872 
 H                     11.98863  -1.88882   3.00547 
 H                     10.56979  -2.87552   4.79881 
 H                     8.13342  -3.19803   4.39459 
 H                     7.1346   -2.55786   2.22616 
 H                     8.87629   0.11269  -1.97607 
 H                     10.06059  -0.51713  -4.05234 
 H                     10.98916  -2.81228  -4.32106 
 H                     10.70082  -4.47285  -2.48745 
 H                     9.48872  -3.85159  -0.42343 
 H                    -0.56956   6.71784   0.74388 
 H                    -1.14671   5.91458   2.19822 
 H                     0.47459   6.61128   2.1609 
 H                    -4.44193   3.99134  -2.09905 
 H                    -5.39068   2.50226  -2.09264 
 H                    -4.97088   3.29491  -0.57322 
 H                    -4.02053  -0.85473  -2.90698 
 H                    -5.22942   0.32008  -2.43965 
 H                    -4.5514    1.78471  -4.3953 
 H                    -3.3335    0.58468  -4.85042 
 H                    -5.05476   0.17014  -4.92296 
 H                    -0.22733  -0.48469  -2.74929 
 H                    -0.88633  -2.68178  -2.7381 
 H                    -2.4017   -4.46928  -2.67878 
 H                    -4.19821  -5.71542  -1.56748 
 H                    -4.92045  -2.34284   1.01105 
 H                    -3.15083  -1.09502  -0.11701 
 H                    -6.94437  -5.18865   2.81099 
 H                    -8.98583  -4.04744   3.60894 
 H                    -10.11155  -2.34369   2.18245 
 H                    -9.17188  -1.81394  -0.06278 
 H                    -7.15035  -2.97928  -0.87451 
 H                    -3.58315  -6.15902   1.33379 
 H                    -3.39244  -8.6       1.669 
 H                    -5.33439  -10.08765   1.20104 
 H                    -7.46563  -9.09585   0.3771 
 H                    -7.64576  -6.65793   0.01132 
 H                    -2.06254   5.90169  -1.7252 
 H                    -3.67371   7.74512  -1.29315 
 H                    -4.96981   5.77073   2.30381 
 H                    -3.36171   3.92509   1.87083 
 
 ITRead=  0  0  0  0  0  0  0  0  0  0  0  0  0  0  0  0  0  0  0  0
 ITRead=  0  0  0  0  0  0  0  0  0  0  0  0  0  0  0  0  0  0  0  0
 ITRead=  0  0  0  0  0  0  0  0  0  0  0  0  0  0  0  0  0  0  0  0
 ITRead=  0  0  0  0  0  0  0  0  0  0  0  0  0  0  0  0  0  0  0  0
 ITRead=  0  0  0  0  0  0  0  0  0  0  0  0  0  0  0  0  0  0  0  0
 ITRead=  0  0  0  0  0  0  0  0  0  0  0  0  0  0  0  0  0  0  0  0
 ITRead=  0  0  0
 MicOpt= -1 -1 -1 -1 -1 -1 -1 -1 -1 -1 -1 -1 -1 -1 -1 -1 -1 -1 -1 -1
 MicOpt= -1 -1 -1 -1 -1 -1 -1 -1 -1 -1 -1 -1 -1 -1 -1 -1 -1 -1 -1 -1
 MicOpt= -1 -1 -1 -1 -1 -1 -1 -1 -1 -1 -1 -1 -1 -1 -1 -1 -1 -1 -1 -1
 MicOpt= -1 -1 -1 -1 -1 -1 -1 -1 -1 -1 -1 -1 -1 -1 -1 -1 -1 -1 -1 -1
 MicOpt= -1 -1 -1 -1 -1 -1 -1 -1 -1 -1 -1 -1 -1 -1 -1 -1 -1 -1 -1 -1
 MicOpt= -1 -1 -1 -1 -1 -1 -1 -1 -1 -1 -1 -1 -1 -1 -1 -1 -1 -1 -1 -1
 MicOpt= -1 -1 -1
 NAtoms=    123 NQM=      123 NQMF=       0 NMMI=      0 NMMIF=      0
                NMic=       0 NMicF=      0.
                    Isotopes and Nuclear Properties:
 (Nuclear quadrupole moments (NQMom) in fm**2, nuclear magnetic moments (NMagM)
  in nuclear magnetons)

  Atom         1           2           3           4           5           6           7           8           9          10
 IAtWgt=          12          12          12          12          12          12          12          12          12          12
 AtmWgt=  12.0000000  12.0000000  12.0000000  12.0000000  12.0000000  12.0000000  12.0000000  12.0000000  12.0000000  12.0000000
 NucSpn=           0           0           0           0           0           0           0           0           0           0
 AtZEff=  -0.0000000  -0.0000000  -0.0000000  -0.0000000  -0.0000000  -0.0000000  -0.0000000  -0.0000000  -0.0000000  -0.0000000
 NQMom=    0.0000000   0.0000000   0.0000000   0.0000000   0.0000000   0.0000000   0.0000000   0.0000000   0.0000000   0.0000000
 NMagM=    0.0000000   0.0000000   0.0000000   0.0000000   0.0000000   0.0000000   0.0000000   0.0000000   0.0000000   0.0000000
 AtZNuc=   6.0000000   6.0000000   6.0000000   6.0000000   6.0000000   6.0000000   6.0000000   6.0000000   6.0000000   6.0000000

  Atom        11          12          13          14          15          16          17          18          19          20
 IAtWgt=          12          12          14          12          12          12          12          12          12          12
 AtmWgt=  12.0000000  12.0000000  14.0030740  12.0000000  12.0000000  12.0000000  12.0000000  12.0000000  12.0000000  12.0000000
 NucSpn=           0           0           2           0           0           0           0           0           0           0
 AtZEff=  -0.0000000  -0.0000000  -0.0000000  -0.0000000  -0.0000000  -0.0000000  -0.0000000  -0.0000000  -0.0000000  -0.0000000
 NQMom=    0.0000000   0.0000000   2.0440000   0.0000000   0.0000000   0.0000000   0.0000000   0.0000000   0.0000000   0.0000000
 NMagM=    0.0000000   0.0000000   0.4037610   0.0000000   0.0000000   0.0000000   0.0000000   0.0000000   0.0000000   0.0000000
 AtZNuc=   6.0000000   6.0000000   7.0000000   6.0000000   6.0000000   6.0000000   6.0000000   6.0000000   6.0000000   6.0000000

  Atom        21          22          23          24          25          26          27          28          29          30
 IAtWgt=          12          12          12          12          12          14          12          12          12          12
 AtmWgt=  12.0000000  12.0000000  12.0000000  12.0000000  12.0000000  14.0030740  12.0000000  12.0000000  12.0000000  12.0000000
 NucSpn=           0           0           0           0           0           2           0           0           0           0
 AtZEff=  -0.0000000  -0.0000000  -0.0000000  -0.0000000  -0.0000000  -0.0000000  -0.0000000  -0.0000000  -0.0000000  -0.0000000
 NQMom=    0.0000000   0.0000000   0.0000000   0.0000000   0.0000000   2.0440000   0.0000000   0.0000000   0.0000000   0.0000000
 NMagM=    0.0000000   0.0000000   0.0000000   0.0000000   0.0000000   0.4037610   0.0000000   0.0000000   0.0000000   0.0000000
 AtZNuc=   6.0000000   6.0000000   6.0000000   6.0000000   6.0000000   7.0000000   6.0000000   6.0000000   6.0000000   6.0000000

  Atom        31          32          33          34          35          36          37          38          39          40
 IAtWgt=          12          12          12          12          12          12          12          12          12          12
 AtmWgt=  12.0000000  12.0000000  12.0000000  12.0000000  12.0000000  12.0000000  12.0000000  12.0000000  12.0000000  12.0000000
 NucSpn=           0           0           0           0           0           0           0           0           0           0
 AtZEff=  -0.0000000  -0.0000000  -0.0000000  -0.0000000  -0.0000000  -0.0000000  -0.0000000  -0.0000000  -0.0000000  -0.0000000
 NQMom=    0.0000000   0.0000000   0.0000000   0.0000000   0.0000000   0.0000000   0.0000000   0.0000000   0.0000000   0.0000000
 NMagM=    0.0000000   0.0000000   0.0000000   0.0000000   0.0000000   0.0000000   0.0000000   0.0000000   0.0000000   0.0000000
 AtZNuc=   6.0000000   6.0000000   6.0000000   6.0000000   6.0000000   6.0000000   6.0000000   6.0000000   6.0000000   6.0000000

  Atom        41          42          43          44          45          46          47          48          49          50
 IAtWgt=          12          12          12          12          12          14          12          12          12          12
 AtmWgt=  12.0000000  12.0000000  12.0000000  12.0000000  12.0000000  14.0030740  12.0000000  12.0000000  12.0000000  12.0000000
 NucSpn=           0           0           0           0           0           2           0           0           0           0
 AtZEff=  -0.0000000  -0.0000000  -0.0000000  -0.0000000  -0.0000000  -0.0000000  -0.0000000  -0.0000000  -0.0000000  -0.0000000
 NQMom=    0.0000000   0.0000000   0.0000000   0.0000000   0.0000000   2.0440000   0.0000000   0.0000000   0.0000000   0.0000000
 NMagM=    0.0000000   0.0000000   0.0000000   0.0000000   0.0000000   0.4037610   0.0000000   0.0000000   0.0000000   0.0000000
 AtZNuc=   6.0000000   6.0000000   6.0000000   6.0000000   6.0000000   7.0000000   6.0000000   6.0000000   6.0000000   6.0000000

  Atom        51          52          53          54          55          56          57          58          59          60
 IAtWgt=          12          12          12          12          12          12          12          12          14          11
 AtmWgt=  12.0000000  12.0000000  12.0000000  12.0000000  12.0000000  12.0000000  12.0000000  12.0000000  14.0030740  11.0093053
 NucSpn=           0           0           0           0           0           0           0           0           2           3
 AtZEff=  -0.0000000  -0.0000000  -0.0000000  -0.0000000  -0.0000000  -0.0000000  -0.0000000  -0.0000000  -0.0000000  -0.0000000
 NQMom=    0.0000000   0.0000000   0.0000000   0.0000000   0.0000000   0.0000000   0.0000000   0.0000000   2.0440000   4.0590000
 NMagM=    0.0000000   0.0000000   0.0000000   0.0000000   0.0000000   0.0000000   0.0000000   0.0000000   0.4037610   2.6886370
 AtZNuc=   6.0000000   6.0000000   6.0000000   6.0000000   6.0000000   6.0000000   6.0000000   6.0000000   7.0000000   5.0000000

  Atom        61          62          63          64          65          66          67          68          69          70
 IAtWgt=          19          19          12          12          12          12          12          12          14          16
 AtmWgt=  18.9984032  18.9984032  12.0000000  12.0000000  12.0000000  12.0000000  12.0000000  12.0000000  14.0030740  15.9949146
 NucSpn=           1           1           0           0           0           0           0           0           2           0
 AtZEff=  -0.0000000  -0.0000000  -0.0000000  -0.0000000  -0.0000000  -0.0000000  -0.0000000  -0.0000000  -0.0000000  -0.0000000
 NQMom=    0.0000000   0.0000000   0.0000000   0.0000000   0.0000000   0.0000000   0.0000000   0.0000000   2.0440000   0.0000000
 NMagM=    2.6288670   2.6288670   0.0000000   0.0000000   0.0000000   0.0000000   0.0000000   0.0000000   0.4037610   0.0000000
 AtZNuc=   9.0000000   9.0000000   6.0000000   6.0000000   6.0000000   6.0000000   6.0000000   6.0000000   7.0000000   8.0000000

  Atom        71          72          73          74          75          76          77          78          79          80
 IAtWgt=          16           1           1           1           1           1           1           1           1           1
 AtmWgt=  15.9949146   1.0078250   1.0078250   1.0078250   1.0078250   1.0078250   1.0078250   1.0078250   1.0078250   1.0078250
 NucSpn=           0           1           1           1           1           1           1           1           1           1
 AtZEff=  -0.0000000  -0.0000000  -0.0000000  -0.0000000  -0.0000000  -0.0000000  -0.0000000  -0.0000000  -0.0000000  -0.0000000
 NQMom=    0.0000000   0.0000000   0.0000000   0.0000000   0.0000000   0.0000000   0.0000000   0.0000000   0.0000000   0.0000000
 NMagM=    0.0000000   2.7928460   2.7928460   2.7928460   2.7928460   2.7928460   2.7928460   2.7928460   2.7928460   2.7928460
 AtZNuc=   8.0000000   1.0000000   1.0000000   1.0000000   1.0000000   1.0000000   1.0000000   1.0000000   1.0000000   1.0000000

  Atom        81          82          83          84          85          86          87          88          89          90
 IAtWgt=           1           1           1           1           1           1           1           1           1           1
 AtmWgt=   1.0078250   1.0078250   1.0078250   1.0078250   1.0078250   1.0078250   1.0078250   1.0078250   1.0078250   1.0078250
 NucSpn=           1           1           1           1           1           1           1           1           1           1
 AtZEff=  -0.0000000  -0.0000000  -0.0000000  -0.0000000  -0.0000000  -0.0000000  -0.0000000  -0.0000000  -0.0000000  -0.0000000
 NQMom=    0.0000000   0.0000000   0.0000000   0.0000000   0.0000000   0.0000000   0.0000000   0.0000000   0.0000000   0.0000000
 NMagM=    2.7928460   2.7928460   2.7928460   2.7928460   2.7928460   2.7928460   2.7928460   2.7928460   2.7928460   2.7928460
 AtZNuc=   1.0000000   1.0000000   1.0000000   1.0000000   1.0000000   1.0000000   1.0000000   1.0000000   1.0000000   1.0000000

  Atom        91          92          93          94          95          96          97          98          99         100
 IAtWgt=           1           1           1           1           1           1           1           1           1           1
 AtmWgt=   1.0078250   1.0078250   1.0078250   1.0078250   1.0078250   1.0078250   1.0078250   1.0078250   1.0078250   1.0078250
 NucSpn=           1           1           1           1           1           1           1           1           1           1
 AtZEff=  -0.0000000  -0.0000000  -0.0000000  -0.0000000  -0.0000000  -0.0000000  -0.0000000  -0.0000000  -0.0000000  -0.0000000
 NQMom=    0.0000000   0.0000000   0.0000000   0.0000000   0.0000000   0.0000000   0.0000000   0.0000000   0.0000000   0.0000000
 NMagM=    2.7928460   2.7928460   2.7928460   2.7928460   2.7928460   2.7928460   2.7928460   2.7928460   2.7928460   2.7928460
 AtZNuc=   1.0000000   1.0000000   1.0000000   1.0000000   1.0000000   1.0000000   1.0000000   1.0000000   1.0000000   1.0000000

  Atom       101         102         103         104         105         106         107         108         109         110
 IAtWgt=           1           1           1           1           1           1           1           1           1           1
 AtmWgt=   1.0078250   1.0078250   1.0078250   1.0078250   1.0078250   1.0078250   1.0078250   1.0078250   1.0078250   1.0078250
 NucSpn=           1           1           1           1           1           1           1           1           1           1
 AtZEff=  -0.0000000  -0.0000000  -0.0000000  -0.0000000  -0.0000000  -0.0000000  -0.0000000  -0.0000000  -0.0000000  -0.0000000
 NQMom=    0.0000000   0.0000000   0.0000000   0.0000000   0.0000000   0.0000000   0.0000000   0.0000000   0.0000000   0.0000000
 NMagM=    2.7928460   2.7928460   2.7928460   2.7928460   2.7928460   2.7928460   2.7928460   2.7928460   2.7928460   2.7928460
 AtZNuc=   1.0000000   1.0000000   1.0000000   1.0000000   1.0000000   1.0000000   1.0000000   1.0000000   1.0000000   1.0000000

  Atom       111         112         113         114         115         116         117         118         119         120
 IAtWgt=           1           1           1           1           1           1           1           1           1           1
 AtmWgt=   1.0078250   1.0078250   1.0078250   1.0078250   1.0078250   1.0078250   1.0078250   1.0078250   1.0078250   1.0078250
 NucSpn=           1           1           1           1           1           1           1           1           1           1
 AtZEff=  -0.0000000  -0.0000000  -0.0000000  -0.0000000  -0.0000000  -0.0000000  -0.0000000  -0.0000000  -0.0000000  -0.0000000
 NQMom=    0.0000000   0.0000000   0.0000000   0.0000000   0.0000000   0.0000000   0.0000000   0.0000000   0.0000000   0.0000000
 NMagM=    2.7928460   2.7928460   2.7928460   2.7928460   2.7928460   2.7928460   2.7928460   2.7928460   2.7928460   2.7928460
 AtZNuc=   1.0000000   1.0000000   1.0000000   1.0000000   1.0000000   1.0000000   1.0000000   1.0000000   1.0000000   1.0000000

  Atom       121         122         123
 IAtWgt=           1           1           1
 AtmWgt=   1.0078250   1.0078250   1.0078250
 NucSpn=           1           1           1
 AtZEff=  -0.0000000  -0.0000000  -0.0000000
 NQMom=    0.0000000   0.0000000   0.0000000
 NMagM=    2.7928460   2.7928460   2.7928460
 AtZNuc=   1.0000000   1.0000000   1.0000000
 Leave Link  101 at Thu Oct  9 08:59:01 2025, MaxMem= 30870077440 cpu:               8.4 elap:               0.2
 (Enter /work/home/accqbws0vm/apprepo/gaussian/16-hy/scripts/../app/g16/l202.exe)
 Stoichiometry    C61H52BF2N5O2
 Framework group  C1[X(C61H52BF2N5O2)]
 Deg. of freedom   363
 Full point group                 C1      NOp   1
 Largest Abelian subgroup         C1      NOp   1
 Largest concise Abelian subgroup C1      NOp   1
                         Standard orientation:                         
 ---------------------------------------------------------------------
 Center     Atomic      Atomic             Coordinates (Angstroms)
 Number     Number       Type             X           Y           Z
 ---------------------------------------------------------------------
      1          6           0       -3.613352    5.876728   -1.255100
      2          6           0       -2.664509    5.035751   -2.126004
      3          6           0       -1.599626    4.323801   -1.335536
      4          6           0       -1.773345    3.076647   -0.655893
      5          6           0       -3.009304    2.336054   -0.697570
      6          6           0       -3.460973    1.354177    0.127886
      7          6           0       -4.733652    0.659889    0.010966
      8          6           0       -5.654628    0.853868   -1.043045
      9          6           0       -6.855475    0.165157   -1.091458
     10          6           0       -7.197289   -0.766784   -0.087924
     11          6           0       -6.286010   -0.974768    0.964839
     12          6           0       -5.089548   -0.273679    1.007633
     13          7           0       -8.418444   -1.467787   -0.139941
     14          6           0       -8.990429   -1.839015   -1.392882
     15          6           0      -10.362847   -1.656983   -1.623256
     16          6           0      -10.925277   -2.036569   -2.841338
     17          6           0      -10.129622   -2.586689   -3.849468
     18          6           0       -8.762131   -2.762921   -3.623310
     19          6           0       -8.193830   -2.402165   -2.402243
     20          6           0       -9.098570   -1.828834    1.061533
     21          6           0       -9.267001   -0.892661    2.093727
     22          6           0       -9.936671   -1.252226    3.262568
     23          6           0      -10.461801   -2.538412    3.412577
     24          6           0      -10.302921   -3.467882    2.381770
     25          6           0       -9.620272   -3.122312    1.215946
     26          7           0       -0.606338    2.751762   -0.018338
     27          6           0        0.323005    3.771427   -0.262899
     28          6           0       -0.309699    4.773044   -1.076284
     29          6           0        0.264813    6.067959   -1.569467
     30          6           0        1.639852    3.682188    0.218646
     31          6           0        2.083526    2.554611    0.934328
     32          6           0        3.349511    2.217960    1.515942
     33          6           0        4.599682    3.045241    1.571714
     34          6           0        3.215218    0.940910    2.069779
     35          6           0        4.240229    0.214379    2.899837
     36          6           0        4.299136    0.720278    4.351857
     37          6           0        1.882357    0.508924    1.821107
     38          6           0        1.189083   -0.690262    2.284964
     39          6           0        1.551472   -1.993891    2.218120
     40          6           0        2.648486   -2.665149    1.520546
     41          6           0        2.958679   -3.993609    1.876045
     42          6           0        3.973631   -4.703753    1.248428
     43          6           0        4.711561   -4.119109    0.203022
     44          6           0        4.389095   -2.803380   -0.185499
     45          6           0        3.386514   -2.095801    0.461495
     46          7           0        5.738955   -4.834395   -0.450573
     47          6           0        6.906250   -4.160769   -0.914682
     48          6           0        7.436552   -4.455353   -2.180756
     49          6           0        8.588394   -3.808492   -2.626831
     50          6           0        9.218562   -2.849929   -1.829326
     51          6           0        8.687944   -2.550508   -0.571925
     52          6           0        7.546636   -3.204723   -0.109998
     53          6           0        5.626444   -6.242736   -0.645857
     54          6           0        4.428306   -6.803530   -1.115756
     55          6           0        4.325689   -8.181213   -1.304071
     56          6           0        5.415849   -9.016317   -1.045994
     57          6           0        6.611949   -8.458406   -0.587860
     58          6           0        6.718486   -7.083601   -0.380328
     59          7           0        1.212373    1.493304    1.159147
     60          5           0       -0.281217    1.450427    0.762063
     61          9           0       -1.051436    1.384321    1.946556
     62          9           0       -0.544755    0.325211   -0.024063
     63          6           0        2.603977    4.793749   -0.045921
     64          6           0        2.696620    5.872752    0.845810
     65          6           0        3.595180    6.908006    0.611609
     66          6           0        4.398445    6.848156   -0.527061
     67          6           0        4.331004    5.787052   -1.430222
     68          6           0        3.428617    4.758960   -1.180677
     69          7           0        5.341426    7.933335   -0.782788
     70          8           0        5.395053    8.868957    0.022227
     71          8           0        6.048032    7.873406   -1.794378
     72          1           0       -4.130487    5.252472   -0.519177
     73          1           0       -3.062893    6.650580   -0.709901
     74          1           0       -4.370808    6.370686   -1.872832
     75          1           0       -3.251346    4.308905   -2.698357
     76          1           0       -2.189703    5.684088   -2.868638
     77          1           0       -3.669066    2.673571   -1.491445
     78          1           0       -2.858559    1.059582    0.978767
     79          1           0       -5.435261    1.562460   -1.835461
     80          1           0       -7.544750    0.349673   -1.907767
     81          1           0       -6.516142   -1.693659    1.743042
     82          1           0       -4.399299   -0.458114    1.826357
     83          1           0      -10.982907   -1.217866   -0.848722
     84          1           0      -11.988630   -1.888823   -3.005468
     85          1           0      -10.569790   -2.875521   -4.798805
     86          1           0       -8.133421   -3.198034   -4.394592
     87          1           0       -7.134596   -2.557864   -2.226155
     88          1           0       -8.876291    0.112692    1.976069
     89          1           0      -10.060590   -0.517132    4.052345
     90          1           0      -10.989155   -2.812283    4.321056
     91          1           0      -10.700817   -4.472853    2.487449
     92          1           0       -9.488719   -3.851592    0.423430
     93          1           0        0.569564    6.717835   -0.743881
     94          1           0        1.146706    5.914579   -2.198225
     95          1           0       -0.474592    6.611282   -2.160901
     96          1           0        4.441928    3.991344    2.099055
     97          1           0        5.390680    2.502263    2.092642
     98          1           0        4.970876    3.294913    0.573219
     99          1           0        4.020535   -0.854730    2.906977
    100          1           0        5.229417    0.320075    2.439650
    101          1           0        4.551400    1.784709    4.395296
    102          1           0        3.333498    0.584680    4.850421
    103          1           0        5.054755    0.170139    4.922957
    104          1           0        0.227329   -0.484690    2.749287
    105          1           0        0.886325   -2.681778    2.738100
    106          1           0        2.401703   -4.469282    2.678784
    107          1           0        4.198213   -5.715423    1.567482
    108          1           0        4.920446   -2.342836   -1.011046
    109          1           0        3.150830   -1.095015    0.117012
    110          1           0        6.944368   -5.188647   -2.810994
    111          1           0        8.985831   -4.047436   -3.608938
    112          1           0       10.111547   -2.343688   -2.182448
    113          1           0        9.171883   -1.813941    0.062783
    114          1           0        7.150351   -2.979282    0.874506
    115          1           0        3.583149   -6.159021   -1.333794
    116          1           0        3.392440   -8.600000   -1.668998
    117          1           0        5.334393  -10.087647   -1.201044
    118          1           0        7.465631   -9.095851   -0.377102
    119          1           0        7.645756   -6.657931   -0.011319
    120          1           0        2.062536    5.901694    1.725204
    121          1           0        3.673706    7.745115    1.293152
    122          1           0        4.969806    5.770731   -2.303810
    123          1           0        3.361711    3.925085   -1.870834
 ---------------------------------------------------------------------
 Rotational constants (GHZ):           0.0262209           0.0146570           0.0104357
 Leave Link  202 at Thu Oct  9 08:59:01 2025, MaxMem= 30870077440 cpu:               4.9 elap:               0.1
 (Enter /work/home/accqbws0vm/apprepo/gaussian/16-hy/scripts/../app/g16/l301.exe)
 Standard basis: def2TZVPP (5D, 7F)
 Ernie: Thresh=  0.10000D-02 Tol=  0.10000D-05 Strict=F.
 There are  3336 symmetry adapted cartesian basis functions of A   symmetry.
 There are  2929 symmetry adapted basis functions of A   symmetry.
  2929 basis functions,  4505 primitive gaussians,  3336 cartesian basis functions
   246 alpha electrons      246 beta electrons
       nuclear repulsion energy      9791.8513133539 Hartrees.
 IExCor= 4336 DFT=T Ex+Corr=M062X ExCW=0 ScaHFX=  0.540000
 ScaDFX=  1.000000  1.000000  1.000000  1.000000 ScalE2=  1.000000  1.000000
 IRadAn=      5 IRanWt=     -1 IRanGd=            0 ICorTp=0 IEmpDi=131
 NAtoms=  123 NActive=  123 NUniq=  123 SFac= 1.00D+00 NAtFMM=   60 NAOKFM=T Big=T
 Integral buffers will be    131072 words long.
 Raffenetti 2 integral format.
 Two-electron integral symmetry is turned on.
 R6Disp:  Grimme-D3 Dispersion energy=       -0.0121253281 Hartrees.
 Nuclear repulsion after empirical dispersion term =     9791.8391880259 Hartrees.
 ------------------------------------------------------------------------------
 Polarizable Continuum Model (PCM)
 =================================
 Model                : PCM.
 Atomic radii         : UFF (Universal Force Field).
 Polarization charges : Total charges.
 Charge compensation  : None.
 Solution method      : On-the-fly selection.
 Cavity type          : Scaled VdW (van der Waals Surface) (Alpha=1.100).
 Cavity algorithm     : GePol (No added spheres)
                        Default sphere list used, NSphG=  123.
                        Lebedev-Laikov grids with approx.  5.0 points / Ang**2.
                        Smoothing algorithm: York/Karplus (Gamma=1.0000).
                        Polarization charges: spherical gaussians, with
                                              point-specific exponents (IZeta= 3).
                        Self-potential: point-specific (ISelfS= 7).
                        Self-field    : sphere-specific E.n sum rule (ISelfD= 2).
 Solvent              : Water, Eps=  78.355300 Eps(inf)=   1.777849
 ------------------------------------------------------------------------------
 GePol: Number of generator spheres                  =     123
 GePol: Total number of spheres                      =     123
 GePol: Number of exposed spheres                    =     123 (100.00%)
 GePol: Number of points                             =    8546
 GePol: Average weight of points                     =       0.13
 GePol: Minimum weight of points                     =   0.39D-11
 GePol: Maximum weight of points                     =    0.20577
 GePol: Number of points with low weight             =     661
 GePol: Fraction of low-weight points (<1% of avg)   =       7.73%
 GePol: Cavity surface area                          =   1074.039 Ang**2
 GePol: Cavity volume                                =   1270.047 Ang**3
 Leave Link  301 at Thu Oct  9 08:59:01 2025, MaxMem= 30870077440 cpu:               9.1 elap:               0.2
 (Enter /work/home/accqbws0vm/apprepo/gaussian/16-hy/scripts/../app/g16/l302.exe)
 NPDir=0 NMtPBC=     1 NCelOv=     1 NCel=       1 NClECP=     1 NCelD=      1
         NCelK=      1 NCelE2=     1 NClLst=     1 CellRange=     0.0.
 One-electron integrals computed using PRISM.
 One-electron integral symmetry used in STVInt
   1 Symmetry operations used in ECPInt.
 ECPInt:  NShTT=  597871 NPrTT= 1688084 LenC2=  295080 LenP2D=  545179.
 LDataN:  DoStor=T MaxTD1= 6 Len=  172
 Number of processors reduced to  55 by ecpmxn.
 NBasis=  2929 RedAO= T EigKep=  3.10D-06  NBF=  2929
 NBsUse=  2929 1.00D-06 EigRej= -1.00D+00 NBFU=  2929
 Precomputing XC quadrature grid using
 IXCGrd= 4 IRadAn=           5 IRanWt=          -1 IRanGd=           0 AccXCQ= 0.00D+00.
 Generated NRdTot=       0 NPtTot=           0 NUsed=           0 NTot=          32
 NSgBfM=  2575  2565  2575  2575  2575 MxSgAt=   123 MxSgA2=   123.
 Leave Link  302 at Thu Oct  9 08:59:34 2025, MaxMem= 30870077440 cpu:            2096.6 elap:              33.1
 (Enter /work/home/accqbws0vm/apprepo/gaussian/16-hy/scripts/../app/g16/l303.exe)
 DipDrv:  MaxL=1.
 Leave Link  303 at Thu Oct  9 08:59:36 2025, MaxMem= 30870077440 cpu:              67.3 elap:               1.3
 (Enter /work/home/accqbws0vm/apprepo/gaussian/16-hy/scripts/../app/g16/l401.exe)
 ExpMin= 6.06D-02 ExpMax= 3.55D+04 ExpMxC= 1.21D+03 IAcc=3 IRadAn=         5 AccDes= 0.00D+00
 Harris functional with IExCor= 1009 and IRadAn=       5 diagonalized for initial guess.
 HarFok:  IExCor= 1009 AccDes= 0.00D+00 IRadAn=         5 IDoV= 1 UseB2=F ITyADJ=14
 ICtDFT=  3500011 ScaDFX=  1.000000  1.000000  1.000000  1.000000
 FoFCou: FMM=F IPFlag=           0 FMFlag=      100000 FMFlg1=        2001
         NFxFlg=           0 DoJE=T BraDBF=F KetDBF=T FulRan=T
         wScrn=  0.000000 ICntrl=       500 IOpCl=  0 I1Cent=   200000004 NGrid=           0
         NMat0=    1 NMatS0=      1 NMatT0=    0 NMatD0=    1 NMtDS0=    0 NMtDT0=    0
 Petite list used in FoFCou.
 Harris En= -3003.17128977586    
 JPrj=0 DoOrth=F DoCkMO=F.
 Leave Link  401 at Thu Oct  9 09:00:02 2025, MaxMem= 30870077440 cpu:            1676.0 elap:              26.4
 (Enter /work/home/accqbws0vm/apprepo/gaussian/16-hy/scripts/../app/g16/l502.exe)
 Integral symmetry usage will be decided dynamically.
 Closed shell SCF:
 Using DIIS extrapolation, IDIIS=  1040.
 NGot= 30870077440 LenX= 30847578121 LenY= 30836445889
 Requested convergence on RMS density matrix=1.00D-08 within 128 cycles.
 Requested convergence on MAX density matrix=1.00D-06.
 Requested convergence on             energy=1.00D-06.
 No special actions if energy rises.
 Fock matrices will be formed incrementally for  20 cycles.

 Cycle   1  Pass 1  IDiag  1:
 FoFJK:  IHMeth= 1 ICntrl=       0 DoSepK=F KAlg= 0 I1Cent=           0 FoldK=F
 IRaf= 440000000 NMat=       1 IRICut=       1 DoRegI=T DoRafI=F ISym2E= 0 IDoP0=0 IntGTp=1.
 FoFCou: FMM=T IPFlag=           0 FMFlag=      100000 FMFlg1=        2001
         NFxFlg=           0 DoJE=F BraDBF=F KetDBF=F FulRan=T
         wScrn=  0.000000 ICntrl=         0 IOpCl=  0 I1Cent=           0 NGrid=           0
         NMat0=    1 NMatS0=      1 NMatT0=    0 NMatD0=    1 NMtDS0=    0 NMtDT0=    0
 Symmetry not used in FoFCou.
 FMM levels:  10  Number of levels for PrismC:   9
 Inv3:  Mode=1 IEnd=   219102348.
 Iteration    1 A*A^-1 deviation from unit magnitude is 4.22D-15 for   4468.
 Iteration    1 A*A^-1 deviation from orthogonality  is 2.55D-15 for   6527   3416.
 Iteration    1 A^-1*A deviation from unit magnitude is 4.00D-15 for   4468.
 Iteration    1 A^-1*A deviation from orthogonality  is 2.10D-14 for   7520   7495.
 E= -3002.84019140015    
 DIIS: error= 2.88D-02 at cycle   1 NSaved=   1.
 NSaved= 1 IEnMin= 1 EnMin= -3002.84019140015     IErMin= 1 ErrMin= 2.88D-02
 ErrMax= 2.88D-02  0.00D+00 EMaxC= 1.00D-01 BMatC= 2.15D+00 BMatP= 2.15D+00
 IDIUse=3 WtCom= 7.12D-01 WtEn= 2.88D-01
 Coeff-Com:  0.100D+01
 Coeff-En:   0.100D+01
 Coeff:      0.100D+01
 Gap=     0.131 Goal=   None    Shift=    0.000
 GapD=    0.131 DampG=1.000 DampE=0.500 DampFc=0.5000 IDamp=-1.
 Damping current iteration by 5.00D-01
 RMSDP=1.02D-03 MaxDP=9.20D-02              OVMax= 2.62D-01

 Cycle   2  Pass 1  IDiag  1:
 RMSU=  5.04D-04    CP:  9.78D-01
 E= -3003.69807305312     Delta-E=       -0.857881652968 Rises=F Damp=T
 DIIS: error= 4.96D-03 at cycle   2 NSaved=   2.
 NSaved= 2 IEnMin= 2 EnMin= -3003.69807305312     IErMin= 2 ErrMin= 4.96D-03
 ErrMax= 4.96D-03  0.00D+00 EMaxC= 1.00D-01 BMatC= 2.13D-01 BMatP= 2.15D+00
 IDIUse=3 WtCom= 9.50D-01 WtEn= 4.96D-02
 Coeff-Com: -0.857D-01 0.109D+01
 Coeff-En:   0.000D+00 0.100D+01
 Coeff:     -0.814D-01 0.108D+01
 Gap=     0.164 Goal=   None    Shift=    0.000
 RMSDP=5.01D-04 MaxDP=5.23D-02 DE=-8.58D-01 OVMax= 2.18D-01

 Cycle   3  Pass 1  IDiag  1:
 RMSU=  4.62D-04    CP:  9.62D-01  1.38D+00
 E= -3004.47777787385     Delta-E=       -0.779704820734 Rises=F Damp=F
 DIIS: error= 1.25D-02 at cycle   3 NSaved=   3.
 NSaved= 3 IEnMin= 3 EnMin= -3004.47777787385     IErMin= 2 ErrMin= 4.96D-03
 ErrMax= 1.25D-02  0.00D+00 EMaxC= 1.00D-01 BMatC= 1.31D-01 BMatP= 2.13D-01
 IDIUse=3 WtCom= 8.75D-01 WtEn= 1.25D-01
 Coeff-Com: -0.122D+00 0.515D+00 0.607D+00
 Coeff-En:   0.000D+00 0.000D+00 0.100D+01
 Coeff:     -0.107D+00 0.451D+00 0.656D+00
 Gap=     0.137 Goal=   None    Shift=    0.000
 RMSDP=1.61D-04 MaxDP=3.08D-02 DE=-7.80D-01 OVMax= 7.68D-02

 Cycle   4  Pass 1  IDiag  1:
 RMSU=  1.48D-04    CP:  9.64D-01  1.43D+00  8.79D-01
 E= -3004.56690133174     Delta-E=       -0.089123457888 Rises=F Damp=F
 DIIS: error= 4.67D-03 at cycle   4 NSaved=   4.
 NSaved= 4 IEnMin= 4 EnMin= -3004.56690133174     IErMin= 4 ErrMin= 4.67D-03
 ErrMax= 4.67D-03  0.00D+00 EMaxC= 1.00D-01 BMatC= 2.65D-02 BMatP= 1.31D-01
 IDIUse=3 WtCom= 9.53D-01 WtEn= 4.67D-02
 Coeff-Com: -0.352D-01 0.986D-01 0.349D+00 0.588D+00
 Coeff-En:   0.000D+00 0.000D+00 0.173D+00 0.827D+00
 Coeff:     -0.335D-01 0.940D-01 0.341D+00 0.599D+00
 Gap=     0.130 Goal=   None    Shift=    0.000
 RMSDP=6.10D-05 MaxDP=7.76D-03 DE=-8.91D-02 OVMax= 2.53D-02

 Cycle   5  Pass 1  IDiag  1:
 RMSU=  3.97D-05    CP:  9.63D-01  1.42D+00  9.18D-01  7.19D-01
 E= -3004.58972518716     Delta-E=       -0.022823855425 Rises=F Damp=F
 DIIS: error= 2.80D-04 at cycle   5 NSaved=   5.
 NSaved= 5 IEnMin= 5 EnMin= -3004.58972518716     IErMin= 5 ErrMin= 2.80D-04
 ErrMax= 2.80D-04  0.00D+00 EMaxC= 1.00D-01 BMatC= 5.70D-04 BMatP= 2.65D-02
 IDIUse=3 WtCom= 9.97D-01 WtEn= 2.80D-03
 Coeff-Com: -0.754D-02 0.141D-01 0.109D+00 0.241D+00 0.643D+00
 Coeff-En:   0.000D+00 0.000D+00 0.000D+00 0.000D+00 0.100D+01
 Coeff:     -0.752D-02 0.141D-01 0.109D+00 0.241D+00 0.644D+00
 Gap=     0.131 Goal=   None    Shift=    0.000
 RMSDP=1.27D-05 MaxDP=1.41D-03 DE=-2.28D-02 OVMax= 8.18D-03

 Cycle   6  Pass 1  IDiag  1:
 RMSU=  1.19D-05    CP:  9.62D-01  1.42D+00  9.17D-01  7.36D-01  9.15D-01
 E= -3004.59025361593     Delta-E=       -0.000528428764 Rises=F Damp=F
 DIIS: error= 2.15D-04 at cycle   6 NSaved=   6.
 NSaved= 6 IEnMin= 6 EnMin= -3004.59025361593     IErMin= 6 ErrMin= 2.15D-04
 ErrMax= 2.15D-04  0.00D+00 EMaxC= 1.00D-01 BMatC= 7.48D-05 BMatP= 5.70D-04
 IDIUse=3 WtCom= 9.98D-01 WtEn= 2.15D-03
 Coeff-Com: -0.498D-03-0.128D-02 0.211D-01 0.555D-01 0.302D+00 0.623D+00
 Coeff-En:   0.000D+00 0.000D+00 0.000D+00 0.000D+00 0.000D+00 0.100D+01
 Coeff:     -0.497D-03-0.128D-02 0.211D-01 0.554D-01 0.302D+00 0.624D+00
 Gap=     0.131 Goal=   None    Shift=    0.000
 RMSDP=5.34D-06 MaxDP=1.28D-03 DE=-5.28D-04 OVMax= 1.81D-03

 Cycle   7  Pass 1  IDiag  1:
 RMSU=  4.25D-06    CP:  9.63D-01  1.42D+00  9.20D-01  7.29D-01  9.83D-01
                    CP:  9.45D-01
 E= -3004.59033079226     Delta-E=       -0.000077176328 Rises=F Damp=F
 DIIS: error= 6.64D-05 at cycle   7 NSaved=   7.
 NSaved= 7 IEnMin= 7 EnMin= -3004.59033079226     IErMin= 7 ErrMin= 6.64D-05
 ErrMax= 6.64D-05  0.00D+00 EMaxC= 1.00D-01 BMatC= 7.55D-06 BMatP= 7.48D-05
 IDIUse=1 WtCom= 1.00D+00 WtEn= 0.00D+00
 Coeff-Com:  0.988D-03-0.276D-02-0.756D-02-0.152D-01 0.360D-01 0.248D+00
 Coeff-Com:  0.741D+00
 Coeff:      0.988D-03-0.276D-02-0.756D-02-0.152D-01 0.360D-01 0.248D+00
 Coeff:      0.741D+00
 Gap=     0.131 Goal=   None    Shift=    0.000
 RMSDP=2.29D-06 MaxDP=4.84D-04 DE=-7.72D-05 OVMax= 1.73D-03

 Cycle   8  Pass 1  IDiag  1:
 RMSU=  1.62D-06    CP:  9.63D-01  1.42D+00  9.20D-01  7.33D-01  1.01D+00
                    CP:  1.00D+00  1.19D+00
 E= -3004.59034031387     Delta-E=       -0.000009521618 Rises=F Damp=F
 DIIS: error= 2.60D-05 at cycle   8 NSaved=   8.
 NSaved= 8 IEnMin= 8 EnMin= -3004.59034031387     IErMin= 8 ErrMin= 2.60D-05
 ErrMax= 2.60D-05  0.00D+00 EMaxC= 1.00D-01 BMatC= 1.60D-06 BMatP= 7.55D-06
 IDIUse=1 WtCom= 1.00D+00 WtEn= 0.00D+00
 Coeff-Com:  0.566D-03-0.122D-02-0.688D-02-0.166D-01-0.280D-01 0.164D-01
 Coeff-Com:  0.356D+00 0.680D+00
 Coeff:      0.566D-03-0.122D-02-0.688D-02-0.166D-01-0.280D-01 0.164D-01
 Coeff:      0.356D+00 0.680D+00
 Gap=     0.131 Goal=   None    Shift=    0.000
 RMSDP=9.56D-07 MaxDP=1.67D-04 DE=-9.52D-06 OVMax= 7.07D-04

 Cycle   9  Pass 1  IDiag  1:
 RMSU=  6.72D-07    CP:  9.63D-01  1.42D+00  9.21D-01  7.33D-01  1.02D+00
                    CP:  1.04D+00  1.28D+00  1.04D+00
 E= -3004.59034254855     Delta-E=       -0.000002234672 Rises=F Damp=F
 DIIS: error= 7.90D-06 at cycle   9 NSaved=   9.
 NSaved= 9 IEnMin= 9 EnMin= -3004.59034254855     IErMin= 9 ErrMin= 7.90D-06
 ErrMax= 7.90D-06  0.00D+00 EMaxC= 1.00D-01 BMatC= 1.09D-07 BMatP= 1.60D-06
 IDIUse=1 WtCom= 1.00D+00 WtEn= 0.00D+00
 Coeff-Com:  0.373D-04-0.543D-05-0.960D-03-0.317D-02-0.108D-01-0.239D-01
 Coeff-Com:  0.239D-01 0.193D+00 0.822D+00
 Coeff:      0.373D-04-0.543D-05-0.960D-03-0.317D-02-0.108D-01-0.239D-01
 Coeff:      0.239D-01 0.193D+00 0.822D+00
 Gap=     0.132 Goal=   None    Shift=    0.000
 RMSDP=3.77D-07 MaxDP=9.80D-05 DE=-2.23D-06 OVMax= 3.60D-04

 Cycle  10  Pass 1  IDiag  1:
 RMSU=  2.59D-07    CP:  9.63D-01  1.42D+00  9.21D-01  7.33D-01  1.02D+00
                    CP:  1.04D+00  1.32D+00  1.13D+00  1.16D+00
 E= -3004.59034280152     Delta-E=       -0.000000252972 Rises=F Damp=F
 DIIS: error= 2.71D-06 at cycle  10 NSaved=  10.
 NSaved=10 IEnMin=10 EnMin= -3004.59034280152     IErMin=10 ErrMin= 2.71D-06
 ErrMax= 2.71D-06  0.00D+00 EMaxC= 1.00D-01 BMatC= 3.25D-08 BMatP= 1.09D-07
 IDIUse=1 WtCom= 1.00D+00 WtEn= 0.00D+00
 Coeff-Com: -0.820D-04 0.210D-03 0.761D-03 0.142D-02 0.808D-04-0.151D-01
 Coeff-Com: -0.535D-01-0.412D-01 0.380D+00 0.727D+00
 Coeff:     -0.820D-04 0.210D-03 0.761D-03 0.142D-02 0.808D-04-0.151D-01
 Coeff:     -0.535D-01-0.412D-01 0.380D+00 0.727D+00
 Gap=     0.132 Goal=   None    Shift=    0.000
 RMSDP=1.65D-07 MaxDP=2.46D-05 DE=-2.53D-07 OVMax= 1.61D-04

 Cycle  11  Pass 1  IDiag  1:
 RMSU=  1.01D-07    CP:  9.63D-01  1.42D+00  9.21D-01  7.33D-01  1.02D+00
                    CP:  1.04D+00  1.33D+00  1.16D+00  1.29D+00  1.10D+00
 E= -3004.59034286113     Delta-E=       -0.000000059614 Rises=F Damp=F
 DIIS: error= 1.12D-06 at cycle  11 NSaved=  11.
 NSaved=11 IEnMin=11 EnMin= -3004.59034286113     IErMin=11 ErrMin= 1.12D-06
 ErrMax= 1.12D-06  0.00D+00 EMaxC= 1.00D-01 BMatC= 3.72D-09 BMatP= 3.25D-08
 IDIUse=1 WtCom= 1.00D+00 WtEn= 0.00D+00
 Coeff-Com: -0.375D-04 0.856D-04 0.437D-03 0.998D-03 0.147D-02-0.344D-02
 Coeff-Com: -0.254D-01-0.429D-01 0.554D-01 0.304D+00 0.709D+00
 Coeff:     -0.375D-04 0.856D-04 0.437D-03 0.998D-03 0.147D-02-0.344D-02
 Coeff:     -0.254D-01-0.429D-01 0.554D-01 0.304D+00 0.709D+00
 Gap=     0.132 Goal=   None    Shift=    0.000
 RMSDP=6.92D-08 MaxDP=1.33D-05 DE=-5.96D-08 OVMax= 4.58D-05

 Cycle  12  Pass 1  IDiag  1:
 RMSU=  4.63D-08    CP:  9.63D-01  1.42D+00  9.21D-01  7.33D-01  1.02D+00
                    CP:  1.05D+00  1.34D+00  1.17D+00  1.34D+00  1.22D+00
                    CP:  9.79D-01
 E= -3004.59034286802     Delta-E=       -0.000000006883 Rises=F Damp=F
 DIIS: error= 4.07D-07 at cycle  12 NSaved=  12.
 NSaved=12 IEnMin=12 EnMin= -3004.59034286802     IErMin=12 ErrMin= 4.07D-07
 ErrMax= 4.07D-07  0.00D+00 EMaxC= 1.00D-01 BMatC= 5.71D-10 BMatP= 3.72D-09
 IDIUse=1 WtCom= 1.00D+00 WtEn= 0.00D+00
 Coeff-Com: -0.192D-05 0.125D-05 0.599D-04 0.197D-03 0.629D-03 0.971D-03
 Coeff-Com: -0.189D-02-0.112D-01-0.360D-01 0.163D-01 0.297D+00 0.734D+00
 Coeff:     -0.192D-05 0.125D-05 0.599D-04 0.197D-03 0.629D-03 0.971D-03
 Coeff:     -0.189D-02-0.112D-01-0.360D-01 0.163D-01 0.297D+00 0.734D+00
 Gap=     0.132 Goal=   None    Shift=    0.000
 RMSDP=2.33D-08 MaxDP=3.25D-06 DE=-6.88D-09 OVMax= 1.95D-05

 Cycle  13  Pass 1  IDiag  1:
 RMSU=  1.53D-08    CP:  9.63D-01  1.42D+00  9.21D-01  7.33D-01  1.02D+00
                    CP:  1.05D+00  1.34D+00  1.17D+00  1.35D+00  1.25D+00
                    CP:  1.11D+00  1.07D+00
 E= -3004.59034286879     Delta-E=       -0.000000000771 Rises=F Damp=F
 DIIS: error= 1.41D-07 at cycle  13 NSaved=  13.
 NSaved=13 IEnMin=13 EnMin= -3004.59034286879     IErMin=13 ErrMin= 1.41D-07
 ErrMax= 1.41D-07  0.00D+00 EMaxC= 1.00D-01 BMatC= 1.44D-10 BMatP= 5.71D-10
 IDIUse=1 WtCom= 1.00D+00 WtEn= 0.00D+00
 Coeff-Com:  0.440D-05-0.114D-04-0.349D-04-0.470D-04 0.999D-04 0.989D-03
 Coeff-Com:  0.276D-02 0.654D-03-0.259D-01-0.362D-01 0.290D-01 0.371D+00
 Coeff-Com:  0.658D+00
 Coeff:      0.440D-05-0.114D-04-0.349D-04-0.470D-04 0.999D-04 0.989D-03
 Coeff:      0.276D-02 0.654D-03-0.259D-01-0.362D-01 0.290D-01 0.371D+00
 Coeff:      0.658D+00
 Gap=     0.132 Goal=   None    Shift=    0.000
 RMSDP=1.11D-08 MaxDP=2.10D-06 DE=-7.71D-10 OVMax= 7.08D-06

 Cycle  14  Pass 1  IDiag  1:
 RMSU=  6.69D-09    CP:  9.63D-01  1.42D+00  9.21D-01  7.33D-01  1.02D+00
                    CP:  1.05D+00  1.34D+00  1.17D+00  1.35D+00  1.27D+00
                    CP:  1.13D+00  1.20D+00  9.70D-01
 E= -3004.59034286884     Delta-E=       -0.000000000051 Rises=F Damp=F
 DIIS: error= 4.79D-08 at cycle  14 NSaved=  14.
 NSaved=14 IEnMin=14 EnMin= -3004.59034286884     IErMin=14 ErrMin= 4.79D-08
 ErrMax= 4.79D-08  0.00D+00 EMaxC= 1.00D-01 BMatC= 1.98D-11 BMatP= 1.44D-10
 IDIUse=1 WtCom= 1.00D+00 WtEn= 0.00D+00
 Coeff-Com:  0.189D-05-0.449D-05-0.237D-04-0.486D-04-0.524D-04 0.255D-03
 Coeff-Com:  0.145D-02 0.216D-02-0.461D-02-0.176D-01-0.462D-01 0.370D-01
 Coeff-Com:  0.298D+00 0.729D+00
 Coeff:      0.189D-05-0.449D-05-0.237D-04-0.486D-04-0.524D-04 0.255D-03
 Coeff:      0.145D-02 0.216D-02-0.461D-02-0.176D-01-0.462D-01 0.370D-01
 Coeff:      0.298D+00 0.729D+00
 Gap=     0.132 Goal=   None    Shift=    0.000
 RMSDP=4.37D-09 MaxDP=4.99D-07 DE=-5.09D-11 OVMax= 2.85D-06

 Error on total polarization charges =  0.03067
 SCF Done:  E(RM062X) =  -3004.59034287     A.U. after   14 cycles
            NFock= 14  Conv=0.44D-08     -V/T= 2.0056
 KE= 2.987904164074D+03 PE=-2.657339303069D+04 EE= 1.078905933572D+04
 Leave Link  502 at Thu Oct  9 09:42:02 2025, MaxMem= 30870077440 cpu:          158008.8 elap:            2519.9
 (Enter /work/home/accqbws0vm/apprepo/gaussian/16-hy/scripts/../app/g16/l601.exe)
 Copying SCF densities to generalized density rwf, IOpCl= 0 IROHF=0.
 Hyperfine terms turned off by default for NAtoms > 100.

 **********************************************************************

            Population analysis using the SCF density.

 **********************************************************************

 Orbital symmetries:
       Occupied  (A) (A) (A) (A) (A) (A) (A) (A) (A) (A) (A) (A)
                 (A) (A) (A) (A) (A) (A) (A) (A) (A) (A) (A) (A)
                 (A) (A) (A) (A) (A) (A) (A) (A) (A) (A) (A) (A)
                 (A) (A) (A) (A) (A) (A) (A) (A) (A) (A) (A) (A)
                 (A) (A) (A) (A) (A) (A) (A) (A) (A) (A) (A) (A)
                 (A) (A) (A) (A) (A) (A) (A) (A) (A) (A) (A) (A)
                 (A) (A) (A) (A) (A) (A) (A) (A) (A) (A) (A) (A)
                 (A) (A) (A) (A) (A) (A) (A) (A) (A) (A) (A) (A)
                 (A) (A) (A) (A) (A) (A) (A) (A) (A) (A) (A) (A)
                 (A) (A) (A) (A) (A) (A) (A) (A) (A) (A) (A) (A)
                 (A) (A) (A) (A) (A) (A) (A) (A) (A) (A) (A) (A)
                 (A) (A) (A) (A) (A) (A) (A) (A) (A) (A) (A) (A)
                 (A) (A) (A) (A) (A) (A) (A) (A) (A) (A) (A) (A)
                 (A) (A) (A) (A) (A) (A) (A) (A) (A) (A) (A) (A)
                 (A) (A) (A) (A) (A) (A) (A) (A) (A) (A) (A) (A)
                 (A) (A) (A) (A) (A) (A) (A) (A) (A) (A) (A) (A)
                 (A) (A) (A) (A) (A) (A) (A) (A) (A) (A) (A) (A)
                 (A) (A) (A) (A) (A) (A) (A) (A) (A) (A) (A) (A)
                 (A) (A) (A) (A) (A) (A) (A) (A) (A) (A) (A) (A)
                 (A) (A) (A) (A) (A) (A) (A) (A) (A) (A) (A) (A)
                 (A) (A) (A) (A) (A) (A)
       Virtual   (A) (A) (A) (A) (A) (A) (A) (A) (A) (A) (A) (A)
                 (A) (A) (A) (A) (A) (A) (A) (A) (A) (A) (A) (A)
                 (A) (A) (A) (A) (A) (A) (A) (A) (A) (A) (A) (A)
                 (A) (A) (A) (A) (A) (A) (A) (A) (A) (A) (A) (A)
                 (A) (A) (A) (A) (A) (A) (A) (A) (A) (A) (A) (A)
                 (A) (A) (A) (A) (A) (A) (A) (A) (A) (A) (A) (A)
                 (A) (A) (A) (A) (A) (A) (A) (A) (A) (A) (A) (A)
                 (A) (A) (A) (A) (A) (A) (A) (A) (A) (A) (A) (A)
                 (A) (A) (A) (A) (A) (A) (A) (A) (A) (A) (A) (A)
                 (A) (A) (A) (A) (A) (A) (A) (A) (A) (A) (A) (A)
                 (A) (A) (A) (A) (A) (A) (A) (A) (A) (A) (A) (A)
                 (A) (A) (A) (A) (A) (A) (A) (A) (A) (A) (A) (A)
                 (A) (A) (A) (A) (A) (A) (A) (A) (A) (A) (A) (A)
                 (A) (A) (A) (A) (A) (A) (A) (A) (A) (A) (A) (A)
                 (A) (A) (A) (A) (A) (A) (A) (A) (A) (A) (A) (A)
                 (A) (A) (A) (A) (A) (A) (A) (A) (A) (A) (A) (A)
                 (A) (A) (A) (A) (A) (A) (A) (A) (A) (A) (A) (A)
                 (A) (A) (A) (A) (A) (A) (A) (A) (A) (A) (A) (A)
                 (A) (A) (A) (A) (A) (A) (A) (A) (A) (A) (A) (A)
                 (A) (A) (A) (A) (A) (A) (A) (A) (A) (A) (A) (A)
                 (A) (A) (A) (A) (A) (A) (A) (A) (A) (A) (A) (A)
                 (A) (A) (A) (A) (A) (A) (A) (A) (A) (A) (A) (A)
                 (A) (A) (A) (A) (A) (A) (A) (A) (A) (A) (A) (A)
                 (A) (A) (A) (A) (A) (A) (A) (A) (A) (A) (A) (A)
                 (A) (A) (A) (A) (A) (A) (A) (A) (A) (A) (A) (A)
                 (A) (A) (A) (A) (A) (A) (A) (A) (A) (A) (A) (A)
                 (A) (A) (A) (A) (A) (A) (A) (A) (A) (A) (A) (A)
                 (A) (A) (A) (A) (A) (A) (A) (A) (A) (A) (A) (A)
                 (A) (A) (A) (A) (A) (A) (A) (A) (A) (A) (A) (A)
                 (A) (A) (A) (A) (A) (A) (A) (A) (A) (A) (A) (A)
                 (A) (A) (A) (A) (A) (A) (A) (A) (A) (A) (A) (A)
                 (A) (A) (A) (A) (A) (A) (A) (A) (A) (A) (A) (A)
                 (A) (A) (A) (A) (A) (A) (A) (A) (A) (A) (A) (A)
                 (A) (A) (A) (A) (A) (A) (A) (A) (A) (A) (A) (A)
                 (A) (A) (A) (A) (A) (A) (A) (A) (A) (A) (A) (A)
                 (A) (A) (A) (A) (A) (A) (A) (A) (A) (A) (A) (A)
                 (A) (A) (A) (A) (A) (A) (A) (A) (A) (A) (A) (A)
                 (A) (A) (A) (A) (A) (A) (A) (A) (A) (A) (A) (A)
                 (A) (A) (A) (A) (A) (A) (A) (A) (A) (A) (A) (A)
                 (A) (A) (A) (A) (A) (A) (A) (A) (A) (A) (A) (A)
                 (A) (A) (A) (A) (A) (A) (A) (A) (A) (A) (A) (A)
                 (A) (A) (A) (A) (A) (A) (A) (A) (A) (A) (A) (A)
                 (A) (A) (A) (A) (A) (A) (A) (A) (A) (A) (A) (A)
                 (A) (A) (A) (A) (A) (A) (A) (A) (A) (A) (A) (A)
                 (A) (A) (A) (A) (A) (A) (A) (A) (A) (A) (A) (A)
                 (A) (A) (A) (A) (A) (A) (A) (A) (A) (A) (A) (A)
                 (A) (A) (A) (A) (A) (A) (A) (A) (A) (A) (A) (A)
                 (A) (A) (A) (A) (A) (A) (A) (A) (A) (A) (A) (A)
                 (A) (A) (A) (A) (A) (A) (A) (A) (A) (A) (A) (A)
                 (A) (A) (A) (A) (A) (A) (A) (A) (A) (A) (A) (A)
                 (A) (A) (A) (A) (A) (A) (A) (A) (A) (A) (A) (A)
                 (A) (A) (A) (A) (A) (A) (A) (A) (A) (A) (A) (A)
                 (A) (A) (A) (A) (A) (A) (A) (A) (A) (A) (A) (A)
                 (A) (A) (A) (A) (A) (A) (A) (A) (A) (A) (A) (A)
                 (A) (A) (A) (A) (A) (A) (A) (A) (A) (A) (A) (A)
                 (A) (A) (A) (A) (A) (A) (A) (A) (A) (A) (A) (A)
                 (A) (A) (A) (A) (A) (A) (A) (A) (A) (A) (A) (A)
                 (A) (A) (A) (A) (A) (A) (A) (A) (A) (A) (A) (A)
                 (A) (A) (A) (A) (A) (A) (A) (A) (A) (A) (A) (A)
                 (A) (A) (A) (A) (A) (A) (A) (A) (A) (A) (A) (A)
                 (A) (A) (A) (A) (A) (A) (A) (A) (A) (A) (A) (A)
                 (A) (A) (A) (A) (A) (A) (A) (A) (A) (A) (A) (A)
                 (A) (A) (A) (A) (A) (A) (A) (A) (A) (A) (A) (A)
                 (A) (A) (A) (A) (A) (A) (A) (A) (A) (A) (A) (A)
                 (A) (A) (A) (A) (A) (A) (A) (A) (A) (A) (A) (A)
                 (A) (A) (A) (A) (A) (A) (A) (A) (A) (A) (A) (A)
                 (A) (A) (A) (A) (A) (A) (A) (A) (A) (A) (A) (A)
                 (A) (A) (A) (A) (A) (A) (A) (A) (A) (A) (A) (A)
                 (A) (A) (A) (A) (A) (A) (A) (A) (A) (A) (A) (A)
                 (A) (A) (A) (A) (A) (A) (A) (A) (A) (A) (A) (A)
                 (A) (A) (A) (A) (A) (A) (A) (A) (A) (A) (A) (A)
                 (A) (A) (A) (A) (A) (A) (A) (A) (A) (A) (A) (A)
                 (A) (A) (A) (A) (A) (A) (A) (A) (A) (A) (A) (A)
                 (A) (A) (A) (A) (A) (A) (A) (A) (A) (A) (A) (A)
                 (A) (A) (A) (A) (A) (A) (A) (A) (A) (A) (A) (A)
                 (A) (A) (A) (A) (A) (A) (A) (A) (A) (A) (A) (A)
                 (A) (A) (A) (A) (A) (A) (A) (A) (A) (A) (A) (A)
                 (A) (A) (A) (A) (A) (A) (A) (A) (A) (A) (A) (A)
                 (A) (A) (A) (A) (A) (A) (A) (A) (A) (A) (A) (A)
                 (A) (A) (A) (A) (A) (A) (A) (A) (A) (A) (A) (A)
                 (A) (A) (A) (A) (A) (A) (A) (A) (A) (A) (A) (A)
                 (A) (A) (A) (A) (A) (A) (A) (A) (A) (A) (A) (A)
                 (A) (A) (A) (A) (A) (A) (A) (A) (A) (A) (A) (A)
                 (A) (A) (A) (A) (A) (A) (A) (A) (A) (A) (A) (A)
                 (A) (A) (A) (A) (A) (A) (A) (A) (A) (A) (A) (A)
                 (A) (A) (A) (A) (A) (A) (A) (A) (A) (A) (A) (A)
                 (A) (A) (A) (A) (A) (A) (A) (A) (A) (A) (A) (A)
                 (A) (A) (A) (A) (A) (A) (A) (A) (A) (A) (A) (A)
                 (A) (A) (A) (A) (A) (A) (A) (A) (A) (A) (A) (A)
                 (A) (A) (A) (A) (A) (A) (A) (A) (A) (A) (A) (A)
                 (A) (A) (A) (A) (A) (A) (A) (A) (A) (A) (A) (A)
                 (A) (A) (A) (A) (A) (A) (A) (A) (A) (A) (A) (A)
                 (A) (A) (A) (A) (A) (A) (A) (A) (A) (A) (A) (A)
                 (A) (A) (A) (A) (A) (A) (A) (A) (A) (A) (A) (A)
                 (A) (A) (A) (A) (A) (A) (A) (A) (A) (A) (A) (A)
                 (A) (A) (A) (A) (A) (A) (A) (A) (A) (A) (A) (A)
                 (A) (A) (A) (A) (A) (A) (A) (A) (A) (A) (A) (A)
                 (A) (A) (A) (A) (A) (A) (A) (A) (A) (A) (A) (A)
                 (A) (A) (A) (A) (A) (A) (A) (A) (A) (A) (A) (A)
                 (A) (A) (A) (A) (A) (A) (A) (A) (A) (A) (A) (A)
                 (A) (A) (A) (A) (A) (A) (A) (A) (A) (A) (A) (A)
                 (A) (A) (A) (A) (A) (A) (A) (A) (A) (A) (A) (A)
                 (A) (A) (A) (A) (A) (A) (A) (A) (A) (A) (A) (A)
                 (A) (A) (A) (A) (A) (A) (A) (A) (A) (A) (A) (A)
                 (A) (A) (A) (A) (A) (A) (A) (A) (A) (A) (A) (A)
                 (A) (A) (A) (A) (A) (A) (A) (A) (A) (A) (A) (A)
                 (A) (A) (A) (A) (A) (A) (A) (A) (A) (A) (A) (A)
                 (A) (A) (A) (A) (A) (A) (A) (A) (A) (A) (A) (A)
                 (A) (A) (A) (A) (A) (A) (A) (A) (A) (A) (A) (A)
                 (A) (A) (A) (A) (A) (A) (A) (A) (A) (A) (A) (A)
                 (A) (A) (A) (A) (A) (A) (A) (A) (A) (A) (A) (A)
                 (A) (A) (A) (A) (A) (A) (A) (A) (A) (A) (A) (A)
                 (A) (A) (A) (A) (A) (A) (A) (A) (A) (A) (A) (A)
                 (A) (A) (A) (A) (A) (A) (A) (A) (A) (A) (A) (A)
                 (A) (A) (A) (A) (A) (A) (A) (A) (A) (A) (A) (A)
                 (A) (A) (A) (A) (A) (A) (A) (A) (A) (A) (A) (A)
                 (A) (A) (A) (A) (A) (A) (A) (A) (A) (A) (A) (A)
                 (A) (A) (A) (A) (A) (A) (A) (A) (A) (A) (A) (A)
                 (A) (A) (A) (A) (A) (A) (A) (A) (A) (A) (A) (A)
                 (A) (A) (A) (A) (A) (A) (A) (A) (A) (A) (A) (A)
                 (A) (A) (A) (A) (A) (A) (A) (A) (A) (A) (A) (A)
                 (A) (A) (A) (A) (A) (A) (A) (A) (A) (A) (A) (A)
                 (A) (A) (A) (A) (A) (A) (A) (A) (A) (A) (A) (A)
                 (A) (A) (A) (A) (A) (A) (A) (A) (A) (A) (A) (A)
                 (A) (A) (A) (A) (A) (A) (A) (A) (A) (A) (A) (A)
                 (A) (A) (A) (A) (A) (A) (A) (A) (A) (A) (A) (A)
                 (A) (A) (A) (A) (A) (A) (A) (A) (A) (A) (A) (A)
                 (A) (A) (A) (A) (A) (A) (A) (A) (A) (A) (A) (A)
                 (A) (A) (A) (A) (A) (A) (A) (A) (A) (A) (A) (A)
                 (A) (A) (A) (A) (A) (A) (A) (A) (A) (A) (A) (A)
                 (A) (A) (A) (A) (A) (A) (A) (A) (A) (A) (A) (A)
                 (A) (A) (A) (A) (A) (A) (A) (A) (A) (A) (A) (A)
                 (A) (A) (A) (A) (A) (A) (A) (A) (A) (A) (A) (A)
                 (A) (A) (A) (A) (A) (A) (A) (A) (A) (A) (A) (A)
                 (A) (A) (A) (A) (A) (A) (A) (A) (A) (A) (A) (A)
                 (A) (A) (A) (A) (A) (A) (A) (A) (A) (A) (A) (A)
                 (A) (A) (A) (A) (A) (A) (A) (A) (A) (A) (A) (A)
                 (A) (A) (A) (A) (A) (A) (A) (A) (A) (A) (A) (A)
                 (A) (A) (A) (A) (A) (A) (A) (A) (A) (A) (A) (A)
                 (A) (A) (A) (A) (A) (A) (A) (A) (A) (A) (A) (A)
                 (A) (A) (A) (A) (A) (A) (A) (A) (A) (A) (A) (A)
                 (A) (A) (A) (A) (A) (A) (A) (A) (A) (A) (A) (A)
                 (A) (A) (A) (A) (A) (A) (A) (A) (A) (A) (A) (A)
                 (A) (A) (A) (A) (A) (A) (A) (A) (A) (A) (A) (A)
                 (A) (A) (A) (A) (A) (A) (A) (A) (A) (A) (A) (A)
                 (A) (A) (A) (A) (A) (A) (A) (A) (A) (A) (A) (A)
                 (A) (A) (A) (A) (A) (A) (A) (A) (A) (A) (A) (A)
                 (A) (A) (A) (A) (A) (A) (A) (A) (A) (A) (A) (A)
                 (A) (A) (A) (A) (A) (A) (A) (A) (A) (A) (A) (A)
                 (A) (A) (A) (A) (A) (A) (A) (A) (A) (A) (A) (A)
                 (A) (A) (A) (A) (A) (A) (A) (A) (A) (A) (A) (A)
                 (A) (A) (A) (A) (A) (A) (A) (A) (A) (A) (A) (A)
                 (A) (A) (A) (A) (A) (A) (A) (A) (A) (A) (A) (A)
                 (A) (A) (A) (A) (A) (A) (A) (A) (A) (A) (A) (A)
                 (A) (A) (A) (A) (A) (A) (A) (A) (A) (A) (A) (A)
                 (A) (A) (A) (A) (A) (A) (A) (A) (A) (A) (A) (A)
                 (A) (A) (A) (A) (A) (A) (A) (A) (A) (A) (A) (A)
                 (A) (A) (A) (A) (A) (A) (A) (A) (A) (A) (A) (A)
                 (A) (A) (A) (A) (A) (A) (A) (A) (A) (A) (A) (A)
                 (A) (A) (A) (A) (A) (A) (A) (A) (A) (A) (A) (A)
                 (A) (A) (A) (A) (A) (A) (A) (A) (A) (A) (A) (A)
                 (A) (A) (A) (A) (A) (A) (A) (A) (A) (A) (A) (A)
                 (A) (A) (A) (A) (A) (A) (A) (A) (A) (A) (A) (A)
                 (A) (A) (A) (A) (A) (A) (A) (A) (A) (A) (A) (A)
                 (A) (A) (A) (A) (A) (A) (A) (A) (A) (A) (A) (A)
                 (A) (A) (A) (A) (A) (A) (A) (A) (A) (A) (A) (A)
                 (A) (A) (A) (A) (A) (A) (A) (A) (A) (A) (A) (A)
                 (A) (A) (A) (A) (A) (A) (A) (A) (A) (A) (A) (A)
                 (A) (A) (A) (A) (A) (A) (A) (A) (A) (A) (A) (A)
                 (A) (A) (A) (A) (A) (A) (A) (A) (A) (A) (A) (A)
                 (A) (A) (A) (A) (A) (A) (A) (A) (A) (A) (A) (A)
                 (A) (A) (A) (A) (A) (A) (A) (A) (A) (A) (A) (A)
                 (A) (A) (A) (A) (A) (A) (A) (A) (A) (A) (A) (A)
                 (A) (A) (A) (A) (A) (A) (A) (A) (A) (A) (A) (A)
                 (A) (A) (A) (A) (A) (A) (A) (A) (A) (A) (A) (A)
                 (A) (A) (A) (A) (A) (A) (A) (A) (A) (A) (A) (A)
                 (A) (A) (A) (A) (A) (A) (A) (A) (A) (A) (A) (A)
                 (A) (A) (A) (A) (A) (A) (A) (A) (A) (A) (A) (A)
                 (A) (A) (A) (A) (A) (A) (A) (A) (A) (A) (A) (A)
                 (A) (A) (A) (A) (A) (A) (A) (A) (A) (A) (A) (A)
                 (A) (A) (A) (A) (A) (A) (A) (A) (A) (A) (A) (A)
                 (A) (A) (A) (A) (A) (A) (A) (A) (A) (A) (A) (A)
                 (A) (A) (A) (A) (A) (A) (A) (A) (A) (A) (A) (A)
                 (A) (A) (A) (A) (A) (A) (A) (A) (A) (A) (A) (A)
                 (A) (A) (A) (A) (A) (A) (A) (A) (A) (A) (A) (A)
                 (A) (A) (A) (A) (A) (A) (A) (A) (A) (A) (A) (A)
                 (A) (A) (A) (A) (A) (A) (A) (A) (A) (A) (A) (A)
                 (A) (A) (A) (A) (A) (A) (A) (A) (A) (A) (A) (A)
                 (A) (A) (A) (A) (A) (A) (A) (A) (A) (A) (A) (A)
                 (A) (A) (A) (A) (A) (A) (A) (A) (A) (A) (A) (A)
                 (A) (A) (A) (A) (A) (A) (A) (A) (A) (A) (A) (A)
                 (A) (A) (A) (A) (A) (A) (A) (A) (A) (A) (A) (A)
                 (A) (A) (A) (A) (A) (A) (A) (A) (A) (A) (A) (A)
                 (A) (A) (A) (A) (A) (A) (A) (A) (A) (A) (A) (A)
                 (A) (A) (A) (A) (A) (A) (A) (A) (A) (A) (A) (A)
                 (A) (A) (A) (A) (A) (A) (A) (A) (A) (A) (A) (A)
                 (A) (A) (A) (A) (A) (A) (A) (A) (A) (A) (A) (A)
                 (A) (A) (A) (A) (A) (A) (A) (A) (A) (A) (A) (A)
                 (A) (A) (A) (A) (A) (A) (A) (A) (A) (A) (A) (A)
                 (A) (A) (A) (A) (A) (A) (A) (A) (A) (A) (A) (A)
                 (A) (A) (A) (A) (A) (A) (A) (A) (A) (A) (A) (A)
                 (A) (A) (A) (A) (A) (A) (A) (A) (A) (A) (A) (A)
                 (A) (A) (A) (A) (A) (A) (A) (A) (A) (A) (A) (A)
                 (A) (A) (A) (A) (A) (A) (A) (A) (A) (A) (A) (A)
                 (A) (A) (A) (A) (A) (A) (A) (A) (A) (A) (A) (A)
                 (A) (A) (A) (A) (A) (A) (A) (A) (A) (A) (A) (A)
                 (A) (A) (A) (A) (A) (A) (A) (A) (A) (A) (A) (A)
                 (A) (A) (A) (A) (A) (A) (A) (A) (A) (A) (A) (A)
                 (A) (A) (A) (A) (A) (A) (A) (A) (A) (A) (A) (A)
                 (A) (A) (A) (A) (A) (A) (A) (A) (A) (A) (A) (A)
                 (A) (A) (A) (A) (A) (A) (A) (A) (A) (A) (A) (A)
                 (A) (A) (A) (A) (A) (A) (A) (A) (A) (A) (A) (A)
                 (A) (A) (A) (A) (A) (A) (A) (A) (A) (A) (A) (A)
                 (A) (A) (A) (A) (A) (A) (A) (A) (A) (A) (A) (A)
                 (A) (A) (A) (A) (A) (A) (A) (A) (A) (A) (A) (A)
                 (A) (A) (A) (A) (A) (A) (A) (A) (A) (A) (A) (A)
                 (A) (A) (A) (A) (A) (A) (A) (A) (A) (A) (A) (A)
                 (A) (A) (A) (A) (A) (A) (A) (A) (A) (A) (A) (A)
                 (A) (A) (A) (A) (A) (A) (A) (A) (A) (A) (A) (A)
                 (A) (A) (A) (A) (A) (A) (A) (A) (A) (A) (A) (A)
                 (A) (A) (A) (A) (A) (A) (A) (A) (A) (A) (A) (A)
                 (A) (A) (A) (A) (A) (A) (A) (A) (A) (A) (A) (A)
                 (A) (A) (A) (A) (A) (A) (A) (A) (A) (A) (A) (A)
                 (A) (A) (A) (A) (A) (A) (A)
 The electronic state is 1-A.
 Alpha  occ. eigenvalues --  -25.20369 -25.20334 -19.68044 -19.68041 -15.01519
 Alpha  occ. eigenvalues --  -14.79017 -14.78860 -14.78517 -14.78186 -10.62141
 Alpha  occ. eigenvalues --  -10.60508 -10.60420 -10.60178 -10.60065 -10.59988
 Alpha  occ. eigenvalues --  -10.59514 -10.59502 -10.59488 -10.59463 -10.59304
 Alpha  occ. eigenvalues --  -10.59228 -10.58833 -10.58223 -10.58217 -10.57493
 Alpha  occ. eigenvalues --  -10.57489 -10.56813 -10.56563 -10.56169 -10.56123
 Alpha  occ. eigenvalues --  -10.55897 -10.55874 -10.55652 -10.55601 -10.55565
 Alpha  occ. eigenvalues --  -10.55516 -10.55441 -10.55425 -10.55154 -10.55131
 Alpha  occ. eigenvalues --  -10.55129 -10.55122 -10.55119 -10.55092 -10.55092
 Alpha  occ. eigenvalues --  -10.55086 -10.55081 -10.55047 -10.55035 -10.55020
 Alpha  occ. eigenvalues --  -10.55013 -10.55003 -10.54996 -10.54995 -10.54977
 Alpha  occ. eigenvalues --  -10.54963 -10.54957 -10.54952 -10.54936 -10.54871
 Alpha  occ. eigenvalues --  -10.54687 -10.54673 -10.54635 -10.54613 -10.54519
 Alpha  occ. eigenvalues --  -10.54145 -10.54059 -10.53989 -10.52949 -10.52799
 Alpha  occ. eigenvalues --   -7.13128  -1.37038  -1.32246  -1.29058  -1.18552
 Alpha  occ. eigenvalues --   -1.10462  -1.08737  -1.08603  -1.08534  -1.01167
 Alpha  occ. eigenvalues --   -0.97488  -0.97400  -0.96844  -0.96792  -0.95553
 Alpha  occ. eigenvalues --   -0.95068  -0.94965  -0.92875  -0.91728  -0.91250
 Alpha  occ. eigenvalues --   -0.91021  -0.89221  -0.87906  -0.87381  -0.86391
 Alpha  occ. eigenvalues --   -0.86310  -0.85767  -0.85534  -0.85392  -0.85082
 Alpha  occ. eigenvalues --   -0.84996  -0.84837  -0.84775  -0.84652  -0.84533
 Alpha  occ. eigenvalues --   -0.82146  -0.81810  -0.80450  -0.80108  -0.79978
 Alpha  occ. eigenvalues --   -0.78474  -0.75470  -0.73498  -0.73254  -0.72773
 Alpha  occ. eigenvalues --   -0.72146  -0.71980  -0.71538  -0.71246  -0.70138
 Alpha  occ. eigenvalues --   -0.69952  -0.69745  -0.69562  -0.69156  -0.69014
 Alpha  occ. eigenvalues --   -0.68785  -0.68129  -0.66607  -0.66224  -0.66014
 Alpha  occ. eigenvalues --   -0.65755  -0.64854  -0.64158  -0.63509  -0.63174
 Alpha  occ. eigenvalues --   -0.62207  -0.62055  -0.61758  -0.61696  -0.61625
 Alpha  occ. eigenvalues --   -0.61037  -0.60177  -0.59091  -0.58517  -0.58313
 Alpha  occ. eigenvalues --   -0.58081  -0.57191  -0.57121  -0.56389  -0.56157
 Alpha  occ. eigenvalues --   -0.55810  -0.55577  -0.55354  -0.54631  -0.54477
 Alpha  occ. eigenvalues --   -0.54112  -0.53825  -0.53686  -0.53308  -0.52662
 Alpha  occ. eigenvalues --   -0.52603  -0.52487  -0.52292  -0.52104  -0.51924
 Alpha  occ. eigenvalues --   -0.51730  -0.51598  -0.51453  -0.51238  -0.50798
 Alpha  occ. eigenvalues --   -0.50703  -0.50533  -0.49891  -0.49801  -0.49693
 Alpha  occ. eigenvalues --   -0.49668  -0.49611  -0.49475  -0.49383  -0.49347
 Alpha  occ. eigenvalues --   -0.49318  -0.49203  -0.48711  -0.48011  -0.47822
 Alpha  occ. eigenvalues --   -0.47631  -0.47438  -0.46733  -0.46638  -0.46374
 Alpha  occ. eigenvalues --   -0.46349  -0.46031  -0.45648  -0.45410  -0.45225
 Alpha  occ. eigenvalues --   -0.45133  -0.44936  -0.44886  -0.44641  -0.44403
 Alpha  occ. eigenvalues --   -0.44053  -0.43838  -0.43572  -0.43437  -0.43253
 Alpha  occ. eigenvalues --   -0.42956  -0.42657  -0.42321  -0.42269  -0.42204
 Alpha  occ. eigenvalues --   -0.42007  -0.41816  -0.41514  -0.41278  -0.41146
 Alpha  occ. eigenvalues --   -0.40812  -0.40732  -0.40578  -0.40426  -0.40238
 Alpha  occ. eigenvalues --   -0.40148  -0.39876  -0.39833  -0.39619  -0.39163
 Alpha  occ. eigenvalues --   -0.38950  -0.37364  -0.36013  -0.34413  -0.34103
 Alpha  occ. eigenvalues --   -0.33964  -0.32630  -0.32571  -0.32545  -0.32509
 Alpha  occ. eigenvalues --   -0.31709  -0.31454  -0.31444  -0.31364  -0.31068
 Alpha  occ. eigenvalues --   -0.30912  -0.30096  -0.29628  -0.25827  -0.24203
 Alpha  occ. eigenvalues --   -0.22659
 Alpha virt. eigenvalues --   -0.09500  -0.07565  -0.03296  -0.01996  -0.01056
 Alpha virt. eigenvalues --   -0.00566  -0.00537   0.00102   0.00114   0.01955
 Alpha virt. eigenvalues --    0.01966   0.02008   0.02129   0.02182   0.02557
 Alpha virt. eigenvalues --    0.03034   0.04710   0.05635   0.05955   0.06184
 Alpha virt. eigenvalues --    0.06898   0.07113   0.07416   0.07565   0.07939
 Alpha virt. eigenvalues --    0.08421   0.08636   0.08841   0.08937   0.08974
 Alpha virt. eigenvalues --    0.09195   0.09319   0.09639   0.09767   0.09815
 Alpha virt. eigenvalues --    0.10324   0.10421   0.10486   0.10708   0.10722
 Alpha virt. eigenvalues --    0.11058   0.11107   0.11374   0.11538   0.11618
 Alpha virt. eigenvalues --    0.11763   0.11872   0.12221   0.12546   0.12658
 Alpha virt. eigenvalues --    0.12902   0.12997   0.13276   0.13347   0.13469
 Alpha virt. eigenvalues --    0.13633   0.13826   0.13929   0.13985   0.14114
 Alpha virt. eigenvalues --    0.14399   0.14567   0.14688   0.14952   0.15023
 Alpha virt. eigenvalues --    0.15140   0.15346   0.15618   0.15761   0.16276
 Alpha virt. eigenvalues --    0.16554   0.16614   0.16866   0.16909   0.17031
 Alpha virt. eigenvalues --    0.17159   0.17221   0.17445   0.17633   0.17894
 Alpha virt. eigenvalues --    0.18224   0.18289   0.18308   0.18394   0.18584
 Alpha virt. eigenvalues --    0.18676   0.18927   0.19062   0.19416   0.19613
 Alpha virt. eigenvalues --    0.19839   0.19979   0.20083   0.20167   0.20407
 Alpha virt. eigenvalues --    0.20619   0.20757   0.21107   0.21262   0.21321
 Alpha virt. eigenvalues --    0.21561   0.21580   0.21869   0.21912   0.22106
 Alpha virt. eigenvalues --    0.22246   0.22512   0.22565   0.22627   0.22689
 Alpha virt. eigenvalues --    0.22798   0.22860   0.22951   0.22994   0.23140
 Alpha virt. eigenvalues --    0.23224   0.23436   0.23702   0.23776   0.23834
 Alpha virt. eigenvalues --    0.23904   0.24249   0.24347   0.24430   0.24711
 Alpha virt. eigenvalues --    0.24996   0.25118   0.25285   0.25450   0.25605
 Alpha virt. eigenvalues --    0.25661   0.25944   0.26141   0.26165   0.26315
 Alpha virt. eigenvalues --    0.26396   0.26571   0.26637   0.26801   0.26854
 Alpha virt. eigenvalues --    0.26992   0.27025   0.27178   0.27366   0.27483
 Alpha virt. eigenvalues --    0.27714   0.28015   0.28112   0.28185   0.28384
 Alpha virt. eigenvalues --    0.28485   0.28756   0.28873   0.28936   0.29118
 Alpha virt. eigenvalues --    0.29219   0.29610   0.29688   0.29754   0.29829
 Alpha virt. eigenvalues --    0.29930   0.30212   0.30419   0.30661   0.30709
 Alpha virt. eigenvalues --    0.30883   0.30962   0.31115   0.31232   0.31443
 Alpha virt. eigenvalues --    0.31524   0.31757   0.32044   0.32081   0.32083
 Alpha virt. eigenvalues --    0.32256   0.32479   0.32532   0.32806   0.32948
 Alpha virt. eigenvalues --    0.33130   0.33165   0.33352   0.33480   0.33537
 Alpha virt. eigenvalues --    0.33586   0.33725   0.34014   0.34169   0.34367
 Alpha virt. eigenvalues --    0.34483   0.34502   0.34878   0.34975   0.35088
 Alpha virt. eigenvalues --    0.35253   0.35295   0.35376   0.35637   0.35814
 Alpha virt. eigenvalues --    0.35827   0.36040   0.36095   0.36304   0.36388
 Alpha virt. eigenvalues --    0.36650   0.36917   0.37165   0.37393   0.37482
 Alpha virt. eigenvalues --    0.37600   0.37785   0.38124   0.38176   0.38234
 Alpha virt. eigenvalues --    0.38563   0.38572   0.38687   0.38830   0.38973
 Alpha virt. eigenvalues --    0.39195   0.39269   0.39446   0.39610   0.39684
 Alpha virt. eigenvalues --    0.39744   0.39909   0.40070   0.40208   0.40311
 Alpha virt. eigenvalues --    0.40539   0.40618   0.40753   0.40918   0.41078
 Alpha virt. eigenvalues --    0.41147   0.41288   0.41380   0.41580   0.41634
 Alpha virt. eigenvalues --    0.41691   0.41732   0.41801   0.41813   0.41911
 Alpha virt. eigenvalues --    0.42017   0.42094   0.42178   0.42250   0.42613
 Alpha virt. eigenvalues --    0.42718   0.42771   0.42876   0.43047   0.43197
 Alpha virt. eigenvalues --    0.43250   0.43427   0.43550   0.43770   0.43865
 Alpha virt. eigenvalues --    0.43961   0.44092   0.44137   0.44228   0.44365
 Alpha virt. eigenvalues --    0.44504   0.44573   0.44665   0.44706   0.44779
 Alpha virt. eigenvalues --    0.44991   0.45009   0.45142   0.45400   0.45453
 Alpha virt. eigenvalues --    0.45549   0.45744   0.46009   0.46176   0.46431
 Alpha virt. eigenvalues --    0.46661   0.46764   0.46939   0.47146   0.47253
 Alpha virt. eigenvalues --    0.47304   0.47533   0.47594   0.47807   0.47909
 Alpha virt. eigenvalues --    0.48052   0.48120   0.48251   0.48384   0.48485
 Alpha virt. eigenvalues --    0.48704   0.48898   0.49019   0.49109   0.49232
 Alpha virt. eigenvalues --    0.49407   0.49492   0.49592   0.49679   0.50071
 Alpha virt. eigenvalues --    0.50232   0.50264   0.50511   0.50593   0.50823
 Alpha virt. eigenvalues --    0.50954   0.51079   0.51152   0.51380   0.51562
 Alpha virt. eigenvalues --    0.51624   0.51741   0.51847   0.51982   0.52217
 Alpha virt. eigenvalues --    0.52235   0.52259   0.52360   0.52410   0.52472
 Alpha virt. eigenvalues --    0.52727   0.52786   0.52876   0.52899   0.53177
 Alpha virt. eigenvalues --    0.53518   0.53576   0.53839   0.53889   0.54124
 Alpha virt. eigenvalues --    0.54177   0.54522   0.54759   0.54883   0.54904
 Alpha virt. eigenvalues --    0.55115   0.55199   0.55310   0.55399   0.55803
 Alpha virt. eigenvalues --    0.55977   0.56034   0.56231   0.56379   0.56506
 Alpha virt. eigenvalues --    0.56548   0.56693   0.56914   0.57073   0.57213
 Alpha virt. eigenvalues --    0.57431   0.57648   0.57823   0.57975   0.58186
 Alpha virt. eigenvalues --    0.58348   0.58383   0.58566   0.58648   0.58749
 Alpha virt. eigenvalues --    0.58802   0.58960   0.59169   0.59328   0.59363
 Alpha virt. eigenvalues --    0.59674   0.59869   0.60199   0.60271   0.60447
 Alpha virt. eigenvalues --    0.60769   0.60970   0.61284   0.61566   0.61909
 Alpha virt. eigenvalues --    0.61999   0.62188   0.62371   0.62476   0.62676
 Alpha virt. eigenvalues --    0.62903   0.63157   0.63418   0.63678   0.63898
 Alpha virt. eigenvalues --    0.64010   0.64092   0.64284   0.64706   0.64937
 Alpha virt. eigenvalues --    0.65065   0.65253   0.65358   0.65629   0.65731
 Alpha virt. eigenvalues --    0.65932   0.66108   0.66241   0.66437   0.66691
 Alpha virt. eigenvalues --    0.66964   0.67131   0.67397   0.67600   0.67728
 Alpha virt. eigenvalues --    0.67852   0.68024   0.68086   0.68265   0.68368
 Alpha virt. eigenvalues --    0.68389   0.68620   0.68696   0.68948   0.69035
 Alpha virt. eigenvalues --    0.69292   0.69604   0.69730   0.69824   0.69890
 Alpha virt. eigenvalues --    0.69977   0.70173   0.70289   0.70375   0.70689
 Alpha virt. eigenvalues --    0.70753   0.70766   0.70830   0.70884   0.71015
 Alpha virt. eigenvalues --    0.71118   0.71339   0.71531   0.71723   0.71898
[...]
 Alpha virt. eigenvalues --    4.33414   4.33654   4.33987   4.34355   4.34733
 Alpha virt. eigenvalues --    4.35001   4.35102   4.35896   4.36337   4.36536
 Alpha virt. eigenvalues --    4.36735   4.37025   4.37215   4.37361   4.37713
 Alpha virt. eigenvalues --    4.38191   4.38395   4.38592   4.38835   4.39197
 Alpha virt. eigenvalues --    4.39258   4.39997   4.40504   4.41146   4.41550
 Alpha virt. eigenvalues --    4.42328   4.42722   4.42929   4.43267   4.43859
 Alpha virt. eigenvalues --    4.44070   4.44271   4.44370   4.44927   4.45093
 Alpha virt. eigenvalues --    4.45581   4.46113   4.46436   4.46510   4.46749
 Alpha virt. eigenvalues --    4.47689   4.47828   4.48106   4.48464   4.48920
 Alpha virt. eigenvalues --    4.49200   4.49377   4.50031   4.50231   4.50481
 Alpha virt. eigenvalues --    4.51032   4.51669   4.51809   4.52116   4.52170
 Alpha virt. eigenvalues --    4.52670   4.53053   4.53132   4.53286   4.53480
 Alpha virt. eigenvalues --    4.54270   4.54411   4.54816   4.55193   4.55555
 Alpha virt. eigenvalues --    4.55861   4.56592   4.56791   4.56942   4.57069
 Alpha virt. eigenvalues --    4.57197   4.57929   4.58105   4.58818   4.59006
 Alpha virt. eigenvalues --    4.59368   4.59583   4.60100   4.60356   4.60458
 Alpha virt. eigenvalues --    4.61127   4.61469   4.61644   4.61688   4.61770
 Alpha virt. eigenvalues --    4.61819   4.62066   4.62474   4.62514   4.62755
 Alpha virt. eigenvalues --    4.63054   4.63275   4.63375   4.63689   4.63764
 Alpha virt. eigenvalues --    4.63822   4.64398   4.64410   4.64736   4.64771
 Alpha virt. eigenvalues --    4.65224   4.65474   4.65895   4.66201   4.66484
 Alpha virt. eigenvalues --    4.66523   4.67336   4.67606   4.68562   4.68821
 Alpha virt. eigenvalues --    4.68939   4.69009   4.69379   4.69557   4.69951
 Alpha virt. eigenvalues --    4.70264   4.70594   4.70659   4.70738   4.70924
 Alpha virt. eigenvalues --    4.71064   4.71323   4.71375   4.71430   4.71739
 Alpha virt. eigenvalues --    4.71824   4.71853   4.72042   4.72435   4.72638
 Alpha virt. eigenvalues --    4.72877   4.72996   4.73278   4.73786   4.73927
 Alpha virt. eigenvalues --    4.74278   4.74366   4.74907   4.75221   4.75741
 Alpha virt. eigenvalues --    4.76000   4.76541   4.77007   4.77294   4.77569
 Alpha virt. eigenvalues --    4.78008   4.78353   4.78596   4.78922   4.79378
 Alpha virt. eigenvalues --    4.79420   4.79633   4.80079   4.80750   4.81069
 Alpha virt. eigenvalues --    4.81261   4.81866   4.82130   4.82276   4.82853
 Alpha virt. eigenvalues --    4.83375   4.83561   4.84015   4.84290   4.84742
 Alpha virt. eigenvalues --    4.84920   4.85313   4.85839   4.86629   4.87200
 Alpha virt. eigenvalues --    4.87373   4.87679   4.88250   4.88533   4.89075
 Alpha virt. eigenvalues --    4.89176   4.89400   4.89603   4.89840   4.90110
 Alpha virt. eigenvalues --    4.90498   4.90932   4.91023   4.91178   4.91722
 Alpha virt. eigenvalues --    4.92151   4.93010   4.93116   4.93242   4.93426
 Alpha virt. eigenvalues --    4.93722   4.94025   4.94152   4.94351   4.94622
 Alpha virt. eigenvalues --    4.94913   4.95205   4.95668   4.95845   4.96031
 Alpha virt. eigenvalues --    4.96126   4.96347   4.96620   4.96916   4.97654
 Alpha virt. eigenvalues --    4.98091   4.98531   4.98823   4.99091   4.99597
 Alpha virt. eigenvalues --    5.00004   5.00284   5.00565   5.01604   5.01755
 Alpha virt. eigenvalues --    5.02291   5.02410   5.02910   5.03261   5.03846
 Alpha virt. eigenvalues --    5.03944   5.04371   5.04490   5.05117   5.05631
 Alpha virt. eigenvalues --    5.05888   5.06299   5.06995   5.07348   5.07885
 Alpha virt. eigenvalues --    5.08232   5.08664   5.08881   5.09329   5.10555
 Alpha virt. eigenvalues --    5.10900   5.11495   5.11533   5.11907   5.11963
 Alpha virt. eigenvalues --    5.12084   5.12358   5.13006   5.13915   5.13997
 Alpha virt. eigenvalues --    5.14004   5.14281   5.14467   5.14614   5.14878
 Alpha virt. eigenvalues --    5.15473   5.16232   5.17048   5.17808   5.18174
 Alpha virt. eigenvalues --    5.18656   5.18846   5.19001   5.19230   5.19480
 Alpha virt. eigenvalues --    5.20274   5.20505   5.21504   5.22140   5.22338
 Alpha virt. eigenvalues --    5.22826   5.23075   5.23157   5.23669   5.24029
 Alpha virt. eigenvalues --    5.24310   5.25434   5.26306   5.26441   5.26661
 Alpha virt. eigenvalues --    5.26934   5.27230   5.27329   5.27612   5.27781
 Alpha virt. eigenvalues --    5.28166   5.28286   5.28584   5.28684   5.28920
 Alpha virt. eigenvalues --    5.28953   5.29064   5.29386   5.29690   5.29712
 Alpha virt. eigenvalues --    5.29786   5.29923   5.30245   5.30602   5.30703
 Alpha virt. eigenvalues --    5.30964   5.31169   5.31709   5.32044   5.32223
 Alpha virt. eigenvalues --    5.32549   5.32780   5.33522   5.34056   5.34223
 Alpha virt. eigenvalues --    5.34319   5.34512   5.34682   5.35562   5.35920
 Alpha virt. eigenvalues --    5.36234   5.36796   5.37387   5.37771   5.38089
 Alpha virt. eigenvalues --    5.38378   5.38559   5.38888   5.38975   5.39159
 Alpha virt. eigenvalues --    5.39365   5.39445   5.39714   5.40186   5.40496
 Alpha virt. eigenvalues --    5.40926   5.41377   5.41520   5.41905   5.42004
 Alpha virt. eigenvalues --    5.42217   5.42400   5.42539   5.42946   5.43439
 Alpha virt. eigenvalues --    5.43851   5.44539   5.45096   5.46209   5.46748
 Alpha virt. eigenvalues --    5.47031   5.48625   5.48838   5.49478   5.49563
 Alpha virt. eigenvalues --    5.49840   5.51079   5.51221   5.51674   5.51962
 Alpha virt. eigenvalues --    5.52193   5.53273   5.53988   5.54157   5.54645
 Alpha virt. eigenvalues --    5.55037   5.56569   5.57473   5.57577   5.57816
 Alpha virt. eigenvalues --    5.58097   5.58322   5.58632   5.58926   5.59113
 Alpha virt. eigenvalues --    5.59550   5.60003   5.60164   5.60354   5.60626
 Alpha virt. eigenvalues --    5.61003   5.61831   5.62104   5.62273   5.63131
 Alpha virt. eigenvalues --    5.63572   5.64022   5.64655   5.64870   5.65235
 Alpha virt. eigenvalues --    5.65971   5.66704   5.67109   5.67615   5.68058
 Alpha virt. eigenvalues --    5.68486   5.68828   5.69016   5.70146   5.70804
 Alpha virt. eigenvalues --    5.71387   5.71581   5.72067   5.72898   5.73254
 Alpha virt. eigenvalues --    5.73816   5.74450   5.74719   5.74803   5.75523
 Alpha virt. eigenvalues --    5.75993   5.76514   5.78598   5.79008   5.80129
 Alpha virt. eigenvalues --    5.82848   5.83819   5.85478   5.88810   5.89495
 Alpha virt. eigenvalues --    5.90849   5.91163   5.91777   5.93183   5.94554
 Alpha virt. eigenvalues --    5.95777   5.95832   5.99186   5.99777   6.00426
 Alpha virt. eigenvalues --    6.00793   6.00836   6.00883   6.02440   6.02564
 Alpha virt. eigenvalues --    6.03523   6.05288   6.07076   6.07145   6.09080
 Alpha virt. eigenvalues --    6.12444   6.12634   6.13381   6.15159   6.15225
 Alpha virt. eigenvalues --    6.15469   6.16700   6.17616   6.17714   6.22269
 Alpha virt. eigenvalues --    6.24065   6.25285   6.28107   6.30790   6.36216
 Alpha virt. eigenvalues --    6.38491   6.40876   6.43238   6.57385   6.60697
 Alpha virt. eigenvalues --    6.61491   6.61494   6.68179   6.68902   6.75513
 Alpha virt. eigenvalues --    6.80772   6.83113   6.87417   6.94337   6.95182
 Alpha virt. eigenvalues --    6.97615   6.99087   6.99738   7.01392   7.05387
 Alpha virt. eigenvalues --    7.08455   7.11797   7.17754   7.20711   7.22452
 Alpha virt. eigenvalues --    7.24851   7.27612   7.32965   7.33550   7.34867
 Alpha virt. eigenvalues --    7.45536   7.51008   8.46711   8.49773   8.57325
 Alpha virt. eigenvalues --    8.61859   8.82693   8.88228   8.91205   8.93378
 Alpha virt. eigenvalues --    8.93817   9.00954  15.87837  22.83506  22.83734
 Alpha virt. eigenvalues --   22.86303  22.86562  22.88327  22.91998  22.95346
 Alpha virt. eigenvalues --   22.95626  23.00598  23.09356  23.13713  23.15259
 Alpha virt. eigenvalues --   23.15678  23.15892  23.16819  23.16857  23.17932
 Alpha virt. eigenvalues --   23.19057  23.20614  23.25594  23.25618  23.26027
 Alpha virt. eigenvalues --   23.26060  23.26115  23.26987  23.27206  23.27211
 Alpha virt. eigenvalues --   23.27248  23.28342  23.29997  23.30503  23.31959
 Alpha virt. eigenvalues --   23.34316  23.34525  23.35526  23.36158  23.36454
 Alpha virt. eigenvalues --   23.38535  23.38786  23.39060  23.40035  23.40861
 Alpha virt. eigenvalues --   23.45483  23.50250  23.54006  23.57872  23.58172
 Alpha virt. eigenvalues --   23.60435  23.70223  23.70870  23.73777  23.80555
 Alpha virt. eigenvalues --   23.87071  23.88676  24.06635  24.06675  24.07334
 Alpha virt. eigenvalues --   24.07362  24.09773  24.11938  24.19978  32.59632
 Alpha virt. eigenvalues --   33.14116  33.30085  33.44285  33.44428  44.20414
 Alpha virt. eigenvalues --   44.25138  57.41504  57.59662
          Condensed to atoms (all electrons):
 Mulliken charges:
               1
     1  C   -0.301331
     2  C   -0.416068
     3  C    0.027869
     4  C    0.147285
     5  C   -0.192839
     6  C   -0.085827
     7  C    0.017960
     8  C   -0.158283
     9  C   -0.164114
    10  C    0.027064
    11  C   -0.162528
    12  C   -0.123801
    13  N   -0.102931
    14  C    0.002149
    15  C   -0.151943
    16  C   -0.144498
    17  C   -0.166854
    18  C   -0.143302
    19  C   -0.164445
    20  C    0.000301
    21  C   -0.163779
    22  C   -0.142718
    23  C   -0.166032
    24  C   -0.144122
    25  C   -0.151030
    26  N   -0.100736
    27  C    0.087015
    28  C    0.095290
    29  C   -0.457266
    30  C    0.128723
    31  C    0.050640
    32  C    0.158904
    33  C   -0.469580
    34  C   -0.025388
    35  C   -0.346264
    36  C   -0.319572
    37  C    0.116131
    38  C   -0.272069
    39  C   -0.057602
    40  C   -0.035141
    41  C   -0.108743
    42  C   -0.166004
    43  C    0.023163
    44  C   -0.131921
    45  C   -0.208833
    46  N   -0.105737
    47  C    0.004637
    48  C   -0.154034
    49  C   -0.145074
    50  C   -0.168366
    51  C   -0.142920
    52  C   -0.159987
    53  C    0.001831
    54  C   -0.164175
    55  C   -0.143282
    56  C   -0.167159
    57  C   -0.144619
    58  C   -0.153608
    59  N   -0.083577
    60  B    0.360190
    61  F   -0.356715
    62  F   -0.338998
    63  C   -0.244149
    64  C   -0.172021
    65  C   -0.044029
    66  C   -0.028518
    67  C   -0.040969
    68  C   -0.187311
    69  N    0.493717
    70  O   -0.367364
    71  O   -0.367326
    72  H    0.116739
    73  H    0.116009
    74  H    0.126346
    75  H    0.130116
    76  H    0.128481
    77  H    0.123459
    78  H    0.134912
    79  H    0.149882
    80  H    0.173944
    81  H    0.174608
    82  H    0.143251
    83  H    0.171562
    84  H    0.158232
    85  H    0.157946
    86  H    0.157975
    87  H    0.176165
    88  H    0.175697
    89  H    0.157922
    90  H    0.158131
    91  H    0.158293
    92  H    0.171509
    93  H    0.170342
    94  H    0.167294
    95  H    0.129252
    96  H    0.172263
    97  H    0.133548
    98  H    0.169451
    99  H    0.119180
   100  H    0.140002
   101  H    0.117414
   102  H    0.117803
   103  H    0.125650
   104  H    0.159630
   105  H    0.125282
   106  H    0.141273
   107  H    0.173824
   108  H    0.173268
   109  H    0.190629
   110  H    0.171915
   111  H    0.157607
   112  H    0.157522
   113  H    0.156995
   114  H    0.170990
   115  H    0.175160
   116  H    0.157679
   117  H    0.157767
   118  H    0.157861
   119  H    0.171546
   120  H    0.180644
   121  H    0.198349
   122  H    0.198481
   123  H    0.182831
 Sum of Mulliken charges =  -0.00000
 Mulliken charges with hydrogens summed into heavy atoms:
               1
     1  C    0.057763
     2  C   -0.157471
     3  C    0.027869
     4  C    0.147285
     5  C   -0.069380
     6  C    0.049085
     7  C    0.017960
     8  C   -0.008401
     9  C    0.009829
    10  C    0.027064
    11  C    0.012080
    12  C    0.019450
    13  N   -0.102931
    14  C    0.002149
    15  C    0.019619
    16  C    0.013734
    17  C   -0.008908
    18  C    0.014673
    19  C    0.011720
    20  C    0.000301
    21  C    0.011918
    22  C    0.015204
    23  C   -0.007901
    24  C    0.014171
    25  C    0.020479
    26  N   -0.100736
    27  C    0.087015
    28  C    0.095290
    29  C    0.009623
    30  C    0.128723
    31  C    0.050640
    32  C    0.158904
    33  C    0.005682
    34  C   -0.025388
    35  C   -0.087081
    36  C    0.041295
    37  C    0.116131
    38  C   -0.112439
    39  C    0.067680
    40  C   -0.035141
    41  C    0.032530
    42  C    0.007820
    43  C    0.023163
    44  C    0.041347
    45  C   -0.018204
    46  N   -0.105737
    47  C    0.004637
    48  C    0.017882
    49  C    0.012534
    50  C   -0.010844
    51  C    0.014075
    52  C    0.011004
    53  C    0.001831
    54  C    0.010985
    55  C    0.014397
    56  C   -0.009391
    57  C    0.013242
    58  C    0.017938
    59  N   -0.083577
    60  B    0.360190
    61  F   -0.356715
    62  F   -0.338998
    63  C   -0.244149
    64  C    0.008623
    65  C    0.154320
    66  C   -0.028518
    67  C    0.157512
    68  C   -0.004480
    69  N    0.493717
    70  O   -0.367364
    71  O   -0.367326
 Electronic spatial extent (au):  <R**2>=          98076.9222
 Charge=              0.0000 electrons
 Dipole moment (field-independent basis, Debye):
    X=             -1.8438    Y=             -2.6183    Z=             -1.0959  Tot=              3.3847
 Quadrupole moment (field-independent basis, Debye-Ang):
   XX=           -366.4568   YY=           -412.1887   ZZ=           -392.3465
   XY=            -35.7545   XZ=             11.1950   YZ=              0.9974
 Traceless Quadrupole moment (field-independent basis, Debye-Ang):
   XX=             23.8739   YY=            -21.8580   ZZ=             -2.0159
   XY=            -35.7545   XZ=             11.1950   YZ=              0.9974
 Octapole moment (field-independent basis, Debye-Ang**2):
  XXX=           -368.0102  YYY=           -588.8966  ZZZ=            -18.7743  XYY=           -374.2316
  XXY=           -421.0713  XXZ=              9.9617  XZZ=            -87.6573  YZZ=              0.4752
  YYZ=             26.2906  XYZ=            102.5723
 Hexadecapole moment (field-independent basis, Debye-Ang**3):
 XXXX=         -79602.4545 YYYY=         -46463.4562 ZZZZ=          -7487.8240 XXXY=           -936.0144
 XXXZ=            -95.0977 YYYX=          -5009.9825 YYYZ=            746.9029 ZZZX=            -70.6428
 ZZZY=             25.9049 XXYY=         -23570.9125 XXZZ=         -14030.1581 YYZZ=          -8423.3097
 XXYZ=            506.2415 YYXZ=            521.2961 ZZXY=            342.0311
 N-N= 9.791839188026D+03 E-N=-2.657339300478D+04  KE= 2.987904164074D+03
 Leave Link  601 at Thu Oct  9 09:42:06 2025, MaxMem= 30870077440 cpu:             134.1 elap:               2.8
 (Enter /work/home/accqbws0vm/apprepo/gaussian/16-hy/scripts/../app/g16/l9999.exe)
 1\1\GINC-G03R4N36\SP\RM062X\def2TZVPP\C61H52B1F2N5O2\ACCQBWS0VM\09-Oct
 -2025\0\\#p M062X/DEF2TZVPP scrf=(solvent=water) em=GD3\\Energy calcul
 ation for M100034731\\0,1\C,0,3.613352,5.876728,1.2551\C,0,2.664509,5.
 035751,2.126004\C,0,1.599626,4.323801,1.335536\C,0,1.773345,3.076647,0
 .655893\C,0,3.009304,2.336054,0.69757\C,0,3.460973,1.354177,-0.127886\
 C,0,4.733652,0.659889,-0.010966\C,0,5.654628,0.853868,1.043045\C,0,6.8
 55475,0.165157,1.091458\C,0,7.197289,-0.766784,0.087924\C,0,6.28601,-0
 .974768,-0.964839\C,0,5.089548,-0.273679,-1.007633\N,0,8.418444,-1.467
 787,0.139941\C,0,8.990429,-1.839015,1.392882\C,0,10.362847,-1.656983,1
 .623256\C,0,10.925277,-2.036569,2.841338\C,0,10.129622,-2.586689,3.849
 468\C,0,8.762131,-2.762921,3.62331\C,0,8.19383,-2.402165,2.402243\C,0,
 9.09857,-1.828834,-1.061533\C,0,9.267001,-0.892661,-2.093727\C,0,9.936
 671,-1.252226,-3.262568\C,0,10.461801,-2.538412,-3.412577\C,0,10.30292
 1,-3.467882,-2.38177\C,0,9.620272,-3.122312,-1.215946\N,0,0.606338,2.7
 51762,0.018338\C,0,-0.323005,3.771427,0.262899\C,0,0.309699,4.773044,1
 .076284\C,0,-0.264813,6.067959,1.569467\C,0,-1.639852,3.682188,-0.2186
 46\C,0,-2.083526,2.554611,-0.934328\C,0,-3.349511,2.21796,-1.515942\C,
 0,-4.599682,3.045241,-1.571714\C,0,-3.215218,0.94091,-2.069779\C,0,-4.
 240229,0.214379,-2.899837\C,0,-4.299136,0.720278,-4.351857\C,0,-1.8823
 57,0.508924,-1.821107\C,0,-1.189083,-0.690262,-2.284964\C,0,-1.551472,
 -1.993891,-2.21812\C,0,-2.648486,-2.665149,-1.520546\C,0,-2.958679,-3.
 993609,-1.876045\C,0,-3.973631,-4.703753,-1.248428\C,0,-4.711561,-4.11
 9109,-0.203022\C,0,-4.389095,-2.80338,0.185499\C,0,-3.386514,-2.095801
 ,-0.461495\N,0,-5.738955,-4.834395,0.450573\C,0,-6.90625,-4.160769,0.9
 14682\C,0,-7.436552,-4.455353,2.180756\C,0,-8.588394,-3.808492,2.62683
 1\C,0,-9.218562,-2.849929,1.829326\C,0,-8.687944,-2.550508,0.571925\C,
 0,-7.546636,-3.204723,0.109998\C,0,-5.626444,-6.242736,0.645857\C,0,-4
 .428306,-6.80353,1.115756\C,0,-4.325689,-8.181213,1.304071\C,0,-5.4158
 49,-9.016317,1.045994\C,0,-6.611949,-8.458406,0.58786\C,0,-6.718486,-7
 .083601,0.380328\N,0,-1.212373,1.493304,-1.159147\B,0,0.281217,1.45042
 7,-0.762063\F,0,1.051436,1.384321,-1.946556\F,0,0.544755,0.325211,0.02
 4063\C,0,-2.603977,4.793749,0.045921\C,0,-2.69662,5.872752,-0.84581\C,
 0,-3.59518,6.908006,-0.611609\C,0,-4.398445,6.848156,0.527061\C,0,-4.3
 31004,5.787052,1.430222\C,0,-3.428617,4.75896,1.180677\N,0,-5.341426,7
 .933335,0.782788\O,0,-5.395053,8.868957,-0.022227\O,0,-6.048032,7.8734
 06,1.794378\H,0,4.130487,5.252472,0.519177\H,0,3.062893,6.65058,0.7099
 01\H,0,4.370808,6.370686,1.872832\H,0,3.251346,4.308905,2.698357\H,0,2
 .189703,5.684088,2.868638\H,0,3.669066,2.673571,1.491445\H,0,2.858559,
 1.059582,-0.978767\H,0,5.435261,1.56246,1.835461\H,0,7.54475,0.349673,
 1.907767\H,0,6.516142,-1.693659,-1.743042\H,0,4.399299,-0.458114,-1.82
 6357\H,0,10.982907,-1.217866,0.848722\H,0,11.98863,-1.888823,3.005468\
 H,0,10.56979,-2.875521,4.798805\H,0,8.133421,-3.198034,4.394592\H,0,7.
 134596,-2.557864,2.226155\H,0,8.876291,0.112692,-1.976069\H,0,10.06059
 ,-0.517132,-4.052345\H,0,10.989155,-2.812283,-4.321056\H,0,10.700817,-
 4.472853,-2.487449\H,0,9.488719,-3.851592,-0.42343\H,0,-0.569564,6.717
 835,0.743881\H,0,-1.146706,5.914579,2.198225\H,0,0.474592,6.611282,2.1
 60901\H,0,-4.441928,3.991344,-2.099055\H,0,-5.39068,2.502263,-2.092642
 \H,0,-4.970876,3.294913,-0.573219\H,0,-4.020535,-0.85473,-2.906977\H,0
 ,-5.229417,0.320075,-2.43965\H,0,-4.5514,1.784709,-4.395296\H,0,-3.333
 498,0.58468,-4.850421\H,0,-5.054755,0.170139,-4.922957\H,0,-0.227329,-
 0.48469,-2.749287\H,0,-0.886325,-2.681778,-2.7381\H,0,-2.401703,-4.469
 282,-2.678784\H,0,-4.198213,-5.715423,-1.567482\H,0,-4.920446,-2.34283
 6,1.011046\H,0,-3.15083,-1.095015,-0.117012\H,0,-6.944368,-5.188647,2.
 810994\H,0,-8.985831,-4.047436,3.608938\H,0,-10.111547,-2.343688,2.182
 448\H,0,-9.171883,-1.813941,-0.062783\H,0,-7.150351,-2.979282,-0.87450
 6\H,0,-3.583149,-6.159021,1.333794\H,0,-3.39244,-8.6,1.668998\H,0,-5.3
 34393,-10.087647,1.201044\H,0,-7.465631,-9.095851,0.377102\H,0,-7.6457
 56,-6.657931,0.011319\H,0,-2.062536,5.901694,-1.725204\H,0,-3.673706,7
 .745115,-1.293152\H,0,-4.969806,5.770731,2.30381\H,0,-3.361711,3.92508
 5,1.870834\\Version=ES64L-G16RevA.03\State=1-A\HF=-3004.5903429\RMSD=4
 .365e-09\Dipole=0.7254232,-1.0301185,0.4311452\Quadrupole=17.7496387,-
 16.2508943,-1.4987444,26.5826263,8.323238,-0.74157\PG=C01 [X(C61H52B1F
 2N5O2)]\\@


 THE WORLD IS MADE UP OF THE WILLS, THE WON'TS, AND THE CANT'S:
 THE WILLS DO EVERYTHING,
 THE WON'TS DO NOTHING,
 THE CAN'TS CAN'T DO ANYTHING.

                               -- FROM WALT DISNEY'S "BLACK HOLE"
 Job cpu time:       1 days 21 hours  0 minutes 24.2 seconds.
 Elapsed time:       0 days  0 hours 43 minutes  4.3 seconds.
 File lengths (MBytes):  RWF=   5626 Int=      0 D2E=      0 Chk=    496 Scr=      1
 Normal termination of Gaussian 16 at Thu Oct  9 09:42:06 2025.
