 Entering Gaussian System, Link 0=g16
 Input=M100023564_sp.gjf
 Output=M100023564_sp.log
 Initial command:
 /public/software/gauss/g16/l1.exe "/public/home/baiding/1101_v2_sp/tmp_M100023564_sp_1568608/Gau-4097523.inp" -scrdir="/public/home/baiding/1101_v2_sp/tmp_M100023564_sp_1568608/"
 Entering Link 1 = /public/software/gauss/g16/l1.exe PID=   4097524.
  
 Copyright (c) 1988,1990,1992,1993,1995,1998,2003,2009,2016,
            Gaussian, Inc.  All Rights Reserved.
  
 This is part of the Gaussian(R) 16 program.  It is based on
 the Gaussian(R) 09 system (copyright 2009, Gaussian, Inc.),
 the Gaussian(R) 03 system (copyright 2003, Gaussian, Inc.),
 the Gaussian(R) 98 system (copyright 1998, Gaussian, Inc.),
 the Gaussian(R) 94 system (copyright 1995, Gaussian, Inc.),
 the Gaussian 92(TM) system (copyright 1992, Gaussian, Inc.),
 the Gaussian 90(TM) system (copyright 1990, Gaussian, Inc.),
 the Gaussian 88(TM) system (copyright 1988, Gaussian, Inc.),
 the Gaussian 86(TM) system (copyright 1986, Carnegie Mellon
 University), and the Gaussian 82(TM) system (copyright 1983,
 Carnegie Mellon University). Gaussian is a federally registered
 trademark of Gaussian, Inc.
  
 This software contains proprietary and confidential information,
 including trade secrets, belonging to Gaussian, Inc.
  
 This software is provided under written license and may be
 used, copied, transmitted, or stored only in accord with that
 written license.
  
 The following legend is applicable only to US Government
 contracts under FAR:
  
                    RESTRICTED RIGHTS LEGEND
  
 Use, reproduction and disclosure by the US Government is
 subject to restrictions as set forth in subparagraphs (a)
 and (c) of the Commercial Computer Software - Restricted
 Rights clause in FAR 52.227-19.
  
 Gaussian, Inc.
 340 Quinnipiac St., Bldg. 40, Wallingford CT 06492
  
  
 ---------------------------------------------------------------
 Warning -- This program may not be used in any manner that
 competes with the business of Gaussian, Inc. or will provide
 assistance to any competitor of Gaussian, Inc.  The licensee
 of this program is prohibited from giving any competitor of
 Gaussian, Inc. access to this program.  By using this program,
 the user acknowledges that Gaussian, Inc. is engaged in the
 business of creating and licensing software in the field of
 computational chemistry and represents and warrants to the
 licensee that it is not a competitor of Gaussian, Inc. and that
 it will not use this program in any manner prohibited above.
 ---------------------------------------------------------------
  

 Cite this work as:
 Gaussian 16, Revision A.03,
 M. J. Frisch, G. W. Trucks, H. B. Schlegel, G. E. Scuseria, 
 M. A. Robb, J. R. Cheeseman, G. Scalmani, V. Barone, 
 G. A. Petersson, H. Nakatsuji, X. Li, M. Caricato, A. V. Marenich, 
 J. Bloino, B. G. Janesko, R. Gomperts, B. Mennucci, H. P. Hratchian, 
 J. V. Ortiz, A. F. Izmaylov, J. L. Sonnenberg, D. Williams-Young, 
 F. Ding, F. Lipparini, F. Egidi, J. Goings, B. Peng, A. Petrone, 
 T. Henderson, D. Ranasinghe, V. G. Zakrzewski, J. Gao, N. Rega, 
 G. Zheng, W. Liang, M. Hada, M. Ehara, K. Toyota, R. Fukuda, 
 J. Hasegawa, M. Ishida, T. Nakajima, Y. Honda, O. Kitao, H. Nakai, 
 T. Vreven, K. Throssell, J. A. Montgomery, Jr., J. E. Peralta, 
 F. Ogliaro, M. J. Bearpark, J. J. Heyd, E. N. Brothers, K. N. Kudin, 
 V. N. Staroverov, T. A. Keith, R. Kobayashi, J. Normand, 
 K. Raghavachari, A. P. Rendell, J. C. Burant, S. S. Iyengar, 
 J. Tomasi, M. Cossi, J. M. Millam, M. Klene, C. Adamo, R. Cammi, 
 J. W. Ochterski, R. L. Martin, K. Morokuma, O. Farkas, 
 J. B. Foresman, and D. J. Fox, Gaussian, Inc., Wallingford CT, 2016.
 
 ******************************************
 Gaussian 16:  ES64L-G16RevA.03 25-Dec-2016
                 5-Nov-2025 
 ******************************************
 %nprocshared=64
 Will use up to   64 processors via shared memory.
 %mem=230GB
 %chk=M100023564_sp.chk
 ----------------------------------------------
 #p M062X/DEF2TZVPP scrf=(solvent=water) em=GD3
 ----------------------------------------------
 1/38=1,172=1/1;
 2/12=2,17=6,18=5,40=1/2;
 3/5=44,7=202,11=2,25=1,30=1,70=2201,72=1,74=-55,124=31/1,2,3;
 4//1;
 5/5=2,38=5,53=1/2;
 6/7=2,8=2,9=2,10=2,28=1/1;
 99/5=1,9=1/99;
 Leave Link    1 at Wed Nov  5 21:35:17 2025, MaxMem= 30870077440 cpu:               9.9 elap:               0.2
 (Enter /public/software/gauss/g16/l101.exe)
 ---------------------------------
 Energy calculation for M100023564
 ---------------------------------
 Symbolic Z-matrix:
 Charge =  0 Multiplicity = 1
 C                     2.31285  -2.84201   0.00654 
 C                     2.24597  -1.35431   0.00512 
 C                     3.32361  -0.43629   0.00642 
 C                     2.78803   0.8402    0.00367 
 C                     1.37345   0.69969   0.0011 
 N                     1.07851  -0.66781   0.00227 
 B                    -0.34752  -1.28755  -0.00691 
 F                    -0.53708  -2.08359   1.12787 
 F                    -0.5313   -2.06168  -1.15802 
 N                    -1.35309  -0.09846   0.00169 
 C                    -2.70412  -0.19079   0.00454 
 C                    -3.4269   -1.49161   0.00593 
 C                    -3.2582    1.11305   0.0064 
 C                    -2.2092    2.01426   0.00398 
 C                    -1.00442   1.252     0.00094 
 C                     0.34082   1.64873  -0.00045 
 C                     0.62022   3.11066  -0.00346 
 O                     1.73694   3.60667  -0.00338 
 H                     1.81035  -3.25291   0.88842 
 H                     1.80568  -3.25456  -0.87193 
 H                     3.35231  -3.17335   0.0041 
 H                     4.36864  -0.71317   0.00923 
 H                     3.31678   1.77968   0.00392 
 H                    -3.1619   -2.08019   0.89052 
 H                    -4.50507  -1.3259   -0.00165 
 H                    -3.15035  -2.08856  -0.86942 
 H                    -4.31647   1.33319   0.00918 
 H                    -2.28326   3.09177   0.00484 
 H                    -0.26981   3.75804  -0.0064 
 
 ITRead=  0  0  0  0  0  0  0  0  0  0  0  0  0  0  0  0  0  0  0  0
 ITRead=  0  0  0  0  0  0  0  0  0
 MicOpt= -1 -1 -1 -1 -1 -1 -1 -1 -1 -1 -1 -1 -1 -1 -1 -1 -1 -1 -1 -1
 MicOpt= -1 -1 -1 -1 -1 -1 -1 -1 -1
 NAtoms=     29 NQM=       29 NQMF=       0 NMMI=      0 NMMIF=      0
                NMic=       0 NMicF=      0.
                    Isotopes and Nuclear Properties:
 (Nuclear quadrupole moments (NQMom) in fm**2, nuclear magnetic moments (NMagM)
  in nuclear magnetons)

  Atom         1           2           3           4           5           6           7           8           9          10
 IAtWgt=          12          12          12          12          12          14          11          19          19          14
 AtmWgt=  12.0000000  12.0000000  12.0000000  12.0000000  12.0000000  14.0030740  11.0093053  18.9984033  18.9984033  14.0030740
 NucSpn=           0           0           0           0           0           2           3           1           1           2
 AtZEff=  -0.0000000  -0.0000000  -0.0000000  -0.0000000  -0.0000000  -0.0000000  -0.0000000  -0.0000000  -0.0000000  -0.0000000
 NQMom=    0.0000000   0.0000000   0.0000000   0.0000000   0.0000000   2.0440000   4.0590000   0.0000000   0.0000000   2.0440000
 NMagM=    0.0000000   0.0000000   0.0000000   0.0000000   0.0000000   0.4037610   2.6886370   2.6288670   2.6288670   0.4037610
 AtZNuc=   6.0000000   6.0000000   6.0000000   6.0000000   6.0000000   7.0000000   5.0000000   9.0000000   9.0000000   7.0000000

  Atom        11          12          13          14          15          16          17          18          19          20
 IAtWgt=          12          12          12          12          12          12          12          16           1           1
 AtmWgt=  12.0000000  12.0000000  12.0000000  12.0000000  12.0000000  12.0000000  12.0000000  15.9949146   1.0078250   1.0078250
 NucSpn=           0           0           0           0           0           0           0           0           1           1
 AtZEff=  -0.0000000  -0.0000000  -0.0000000  -0.0000000  -0.0000000  -0.0000000  -0.0000000  -0.0000000  -0.0000000  -0.0000000
 NQMom=    0.0000000   0.0000000   0.0000000   0.0000000   0.0000000   0.0000000   0.0000000   0.0000000   0.0000000   0.0000000
 NMagM=    0.0000000   0.0000000   0.0000000   0.0000000   0.0000000   0.0000000   0.0000000   0.0000000   2.7928460   2.7928460
 AtZNuc=   6.0000000   6.0000000   6.0000000   6.0000000   6.0000000   6.0000000   6.0000000   8.0000000   1.0000000   1.0000000

  Atom        21          22          23          24          25          26          27          28          29
 IAtWgt=           1           1           1           1           1           1           1           1           1
 AtmWgt=   1.0078250   1.0078250   1.0078250   1.0078250   1.0078250   1.0078250   1.0078250   1.0078250   1.0078250
 NucSpn=           1           1           1           1           1           1           1           1           1
 AtZEff=  -0.0000000  -0.0000000  -0.0000000  -0.0000000  -0.0000000  -0.0000000  -0.0000000  -0.0000000  -0.0000000
 NQMom=    0.0000000   0.0000000   0.0000000   0.0000000   0.0000000   0.0000000   0.0000000   0.0000000   0.0000000
 NMagM=    2.7928460   2.7928460   2.7928460   2.7928460   2.7928460   2.7928460   2.7928460   2.7928460   2.7928460
 AtZNuc=   1.0000000   1.0000000   1.0000000   1.0000000   1.0000000   1.0000000   1.0000000   1.0000000   1.0000000
 Leave Link  101 at Wed Nov  5 21:35:17 2025, MaxMem= 30870077440 cpu:               5.2 elap:               0.1
 (Enter /public/software/gauss/g16/l202.exe)
                          Input orientation:                          
 ---------------------------------------------------------------------
 Center     Atomic      Atomic             Coordinates (Angstroms)
 Number     Number       Type             X           Y           Z
 ---------------------------------------------------------------------
      1          6           0        2.312854   -2.842005    0.006538
      2          6           0        2.245967   -1.354311    0.005118
      3          6           0        3.323614   -0.436285    0.006422
      4          6           0        2.788025    0.840198    0.003669
      5          6           0        1.373451    0.699689    0.001100
      6          7           0        1.078510   -0.667814    0.002273
      7          5           0       -0.347524   -1.287545   -0.006906
      8          9           0       -0.537079   -2.083585    1.127873
      9          9           0       -0.531300   -2.061678   -1.158019
     10          7           0       -1.353086   -0.098456    0.001688
     11          6           0       -2.704124   -0.190788    0.004541
     12          6           0       -3.426896   -1.491607    0.005927
     13          6           0       -3.258201    1.113051    0.006395
     14          6           0       -2.209198    2.014261    0.003977
     15          6           0       -1.004423    1.252002    0.000936
     16          6           0        0.340824    1.648734   -0.000450
     17          6           0        0.620222    3.110657   -0.003455
     18          8           0        1.736935    3.606670   -0.003376
     19          1           0        1.810346   -3.252908    0.888422
     20          1           0        1.805676   -3.254562   -0.871928
     21          1           0        3.352313   -3.173349    0.004104
     22          1           0        4.368639   -0.713171    0.009228
     23          1           0        3.316779    1.779680    0.003923
     24          1           0       -3.161899   -2.080194    0.890524
     25          1           0       -4.505069   -1.325898   -0.001651
     26          1           0       -3.150348   -2.088557   -0.869424
     27          1           0       -4.316468    1.333192    0.009182
     28          1           0       -2.283260    3.091768    0.004838
     29          1           0       -0.269812    3.758037   -0.006404
 ---------------------------------------------------------------------
                    Distance matrix (angstroms):
                    1          2          3          4          5
     1  C    0.000000
     2  C    1.489198   0.000000
     3  C    2.609430   1.415661   0.000000
     4  C    3.712737   2.260464   1.384295   0.000000
     5  C    3.664165   2.231640   2.256901   1.421538   0.000000
     6  N    2.500146   1.354342   2.257015   2.279593   1.398948
     7  B    3.081256   2.594378   3.768564   3.789336   2.628862
     8  F    3.155109   3.088327   4.344675   4.568223   3.558982
     9  F    3.170854   3.092971   4.342601   4.559421   3.549194
    10  N    4.578886   3.811872   4.688888   4.246160   2.840958
    11  C    5.674418   5.084996   6.032736   5.588080   4.173677
    12  C    5.896465   5.674524   6.832502   6.637964   5.276849
    13  C    6.832212   6.031894   6.761711   6.052380   4.650064
    14  C    6.635682   5.585318   6.051214   5.133290   3.816213
    15  C    5.269274   4.166284   4.645670   3.814741   2.441175
    16  C    4.904660   3.556386   3.639284   2.577313   1.402500
    17  C    6.188642   4.751743   4.459734   3.139173   2.525894
    18  O    6.474349   4.987035   4.343171   2.959427   2.929621
    19  H    1.095023   2.138846   3.316816   4.300251   4.074462
    20  H    1.095050   2.138696   3.319385   4.301016   4.072480
    21  H    1.090995   2.129061   2.737215   4.053021   4.349290
    22  H    2.959425   2.217389   1.081088   2.216151   3.311705
    23  H    4.729466   3.311879   2.215977   1.078057   2.223266
    24  H    5.597741   5.527736   6.748774   6.687062   5.393350
    25  H    6.984463   6.751099   7.879071   7.607971   6.217717
    26  H    5.584046   5.515810   6.738642   6.678635   5.384876
    27  H    7.834551   7.091420   7.842315   7.121579   5.725082
    28  H    7.505593   6.346772   6.624515   5.548649   4.369621
    29  H    7.087375   5.697840   5.523152   4.226612   3.471867
                    6          7          8          9         10
     6  N    0.000000
     7  B    1.554903   0.000000
     8  F    2.425183   1.399048   0.000000
     9  F    2.425000   1.399327   2.286004   0.000000
    10  N    2.497364   1.557293   2.423819   2.423735   0.000000
    11  C    3.812595   2.599340   3.088793   3.094017   1.354192
    12  C    4.580102   3.086153   3.155985   3.172417   2.498315
    13  C    4.688130   3.772940   4.345193   4.344048   2.257706
    14  C    4.242942   3.790498   4.566341   4.558383   2.279585
    15  C    2.832720   2.623143   3.551695   3.542245   1.394741
    16  C    2.431169   3.015891   3.996753   3.983431   2.433518
    17  C    3.806167   4.503413   5.440533   5.423290   3.767277
    18  O    4.324901   5.319617   6.231361   6.213554   4.824543
    19  H    2.829055   3.052977   2.633450   3.330204   4.554576
    20  H    2.825644   3.041988   3.295283   2.639371   4.549944
    21  H    3.383473   4.152731   4.192590   4.203426   5.621010
    22  H    3.290449   4.751038   5.214928   5.214436   5.754656
    23  H    3.316637   4.778609   5.571382   5.560023   5.033392
    24  H    4.556849   3.058493   2.635531   3.334205   2.826503
    25  H    5.622228   4.157725   4.194623   4.203498   3.382547
    26  H    4.545504   3.039964   3.289133   2.635037   2.819484
    27  H    5.754117   4.756158   5.216284   5.216800   3.291095
    28  H    5.043408   4.788068   5.576256   5.565933   3.323065
    29  H    4.626684   5.046180   5.956724   5.938323   4.005757
                   11         12         13         14         15
    11  C    0.000000
    12  C    1.488130   0.000000
    13  C    1.416687   2.610115   0.000000
    14  C    2.259910   3.711321   1.382965   0.000000
    15  C    2.229493   3.660026   2.258064   1.425669   0.000000
    16  C    3.557467   4.904844   3.638679   2.576090   1.402529
    17  C    4.685177   6.128628   4.362647   3.034429   2.468621
    18  O    5.843266   7.256560   5.582975   4.255324   3.613796
    19  H    5.526144   5.595506   6.747573   6.684463   5.385608
    20  H    5.522065   5.590926   6.744653   6.681835   5.382162
    21  H    6.751007   6.984693   7.878587   7.605373   6.210064
    22  H    7.092029   7.834305   7.842435   7.120874   5.721168
    23  H    6.335141   7.495230   6.608688   5.530954   4.353302
    24  H    2.136441   1.095066   3.314781   4.296297   4.068120
    25  H    2.128830   1.090859   2.739200   4.053112   4.347424
    26  H    2.136459   1.095019   3.320992   4.299036   4.064708
    27  H    2.218601   2.961560   1.080925   2.214604   3.313050
    28  H    3.309426   4.723900   2.205863   1.080050   2.240575
    29  H    4.638881   6.125855   3.990812   2.608080   2.611497
                   16         17         18         19         20
    16  C    0.000000
    17  C    1.488385   0.000000
    18  O    2.404714   1.221915   0.000000
    19  H    5.193812   6.535044   6.917695   0.000000
    20  H    5.191106   6.532653   6.916329   1.760357   0.000000
    21  H    5.685206   6.852234   6.969803   1.779329   1.779358
    22  H    4.669259   5.354666   5.058364   3.710540   3.715358
    23  H    2.978838   3.007154   2.415337   5.327159   5.328615
    24  H    5.193054   6.484487   7.558972   5.108667   5.400202
    25  H    5.686046   6.778763   7.955680   6.662587   6.656022
    26  H    5.187556   6.480658   7.554547   5.390197   5.091340
    27  H    4.667979   5.246947   6.466262   7.703455   7.700941
    28  H    2.994694   2.903555   4.053043   7.602187   7.600265
    29  H    2.195921   1.100577   2.012450   7.367572   7.364328
                   21         22         23         24         25
    21  H    0.000000
    22  H    2.661845   0.000000
    23  H    4.953156   2.705687   0.000000
    24  H    6.664509   7.704183   7.593284   0.000000
    25  H    8.071652   8.894844   8.415816   1.780181   0.000000
    26  H    6.650145   7.694081   7.586153   1.760006   1.780435
    27  H    8.894894   8.922930   7.646296   3.709582   2.665792
    28  H    8.426825   7.663246   5.751696   5.320304   4.944922
    29  H    7.820742   6.442606   4.096052   6.576746   6.616934
                   26         27         28         29
    26  H    0.000000
    27  H    3.720235   0.000000
    28  H    5.324654   2.688223   0.000000
    29  H    6.574569   4.717578   2.120852   0.000000
 Stoichiometry    C12H11BF2N2O
 Framework group  C1[X(C12H11BF2N2O)]
 Deg. of freedom    81
 Full point group                 C1      NOp   1
 Largest Abelian subgroup         C1      NOp   1
 Largest concise Abelian subgroup C1      NOp   1
                         Standard orientation:                         
 ---------------------------------------------------------------------
 Center     Atomic      Atomic             Coordinates (Angstroms)
 Number     Number       Type             X           Y           Z
 ---------------------------------------------------------------------
      1          6           0       -2.312854   -2.842005   -0.006538
      2          6           0       -2.245967   -1.354311   -0.005118
      3          6           0       -3.323614   -0.436285   -0.006422
      4          6           0       -2.788025    0.840198   -0.003669
      5          6           0       -1.373451    0.699689   -0.001100
      6          7           0       -1.078510   -0.667814   -0.002273
      7          5           0        0.347524   -1.287545    0.006906
      8          9           0        0.537079   -2.083585   -1.127873
      9          9           0        0.531300   -2.061678    1.158019
     10          7           0        1.353086   -0.098456   -0.001688
     11          6           0        2.704124   -0.190788   -0.004541
     12          6           0        3.426896   -1.491607   -0.005927
     13          6           0        3.258201    1.113051   -0.006395
     14          6           0        2.209198    2.014261   -0.003977
     15          6           0        1.004423    1.252002   -0.000936
     16          6           0       -0.340824    1.648734    0.000450
     17          6           0       -0.620222    3.110657    0.003455
     18          8           0       -1.736935    3.606670    0.003376
     19          1           0       -1.810346   -3.252908   -0.888422
     20          1           0       -1.805676   -3.254562    0.871928
     21          1           0       -3.352313   -3.173349   -0.004104
     22          1           0       -4.368639   -0.713170   -0.009228
     23          1           0       -3.316779    1.779680   -0.003923
     24          1           0        3.161899   -2.080194   -0.890524
     25          1           0        4.505069   -1.325898    0.001651
     26          1           0        3.150348   -2.088557    0.869424
     27          1           0        4.316468    1.333192   -0.009182
     28          1           0        2.283260    3.091768   -0.004838
     29          1           0        0.269812    3.758037    0.006404
 ---------------------------------------------------------------------
 Rotational constants (GHZ):           0.5540682           0.4698235           0.2684959
 Leave Link  202 at Wed Nov  5 21:35:17 2025, MaxMem= 30870077440 cpu:               0.2 elap:               0.0
 (Enter /public/software/gauss/g16/l301.exe)
 Standard basis: def2TZVPP (5D, 7F)
 Ernie: Thresh=  0.10000D-02 Tol=  0.10000D-05 Strict=F.
 There are   813 symmetry adapted cartesian basis functions of A   symmetry.
 There are   712 symmetry adapted basis functions of A   symmetry.
   712 basis functions,  1105 primitive gaussians,   813 cartesian basis functions
    64 alpha electrons       64 beta electrons
       nuclear repulsion energy      1324.5594206692 Hartrees.
 IExCor= 4336 DFT=T Ex+Corr=M062X ExCW=0 ScaHFX=  0.540000
 ScaDFX=  1.000000  1.000000  1.000000  1.000000 ScalE2=  1.000000  1.000000
 IRadAn=      5 IRanWt=     -1 IRanGd=            0 ICorTp=0 IEmpDi=131
 NAtoms=   29 NActive=   29 NUniq=   29 SFac= 1.00D+00 NAtFMM=   60 NAOKFM=F Big=F
 Integral buffers will be    131072 words long.
 Raffenetti 2 integral format.
 Two-electron integral symmetry is turned on.
 R6Disp:  Grimme-D3 Dispersion energy=       -0.0015320656 Hartrees.
 Nuclear repulsion after empirical dispersion term =     1324.5578886037 Hartrees.
 ------------------------------------------------------------------------------
 Polarizable Continuum Model (PCM)
 =================================
 Model                : PCM.
 Atomic radii         : UFF (Universal Force Field).
 Polarization charges : Total charges.
 Charge compensation  : None.
 Solution method      : On-the-fly selection.
 Cavity type          : Scaled VdW (van der Waals Surface) (Alpha=1.100).
 Cavity algorithm     : GePol (No added spheres)
                        Default sphere list used, NSphG=   29.
                        Lebedev-Laikov grids with approx.  5.0 points / Ang**2.
                        Smoothing algorithm: York/Karplus (Gamma=1.0000).
                        Polarization charges: spherical gaussians, with
                                              point-specific exponents (IZeta= 3).
                        Self-potential: point-specific (ISelfS= 7).
                        Self-field    : sphere-specific E.n sum rule (ISelfD= 2).
 Solvent              : Water, Eps=  78.355300 Eps(inf)=   1.777849
 ------------------------------------------------------------------------------
 GePol: Number of generator spheres                  =      29
 GePol: Total number of spheres                      =      29
 GePol: Number of exposed spheres                    =      29 (100.00%)
 GePol: Number of points                             =    2274
 GePol: Average weight of points                     =       0.13
 GePol: Minimum weight of points                     =   0.35D-09
 GePol: Maximum weight of points                     =    0.20577
 GePol: Number of points with low weight             =     154
 GePol: Fraction of low-weight points (<1% of avg)   =       6.77%
 GePol: Cavity surface area                          =    286.700 Ang**2
 GePol: Cavity volume                                =    316.548 Ang**3
 Leave Link  301 at Wed Nov  5 21:35:18 2025, MaxMem= 30870077440 cpu:               3.8 elap:               0.1
 (Enter /public/software/gauss/g16/l302.exe)
 NPDir=0 NMtPBC=     1 NCelOv=     1 NCel=       1 NClECP=     1 NCelD=      1
         NCelK=      1 NCelE2=     1 NClLst=     1 CellRange=     0.0.
 One-electron integrals computed using PRISM.
 One-electron integral symmetry used in STVInt
   1 Symmetry operations used in ECPInt.
 ECPInt:  NShTT=   34980 NPrTT=  101005 LenC2=   31575 LenP2D=   67778.
 LDataN:  DoStor=T MaxTD1= 6 Len=  172
 NBasis=   712 RedAO= T EigKep=  1.12D-05  NBF=   712
 NBsUse=   712 1.00D-06 EigRej= -1.00D+00 NBFU=   712
 Precomputing XC quadrature grid using
 IXCGrd= 4 IRadAn=           5 IRanWt=          -1 IRanGd=           0 AccXCQ= 0.00D+00.
 Generated NRdTot=       0 NPtTot=           0 NUsed=           0 NTot=          32
 NSgBfM=   804   804   804   804   804 MxSgAt=    29 MxSgA2=    29.
 Leave Link  302 at Wed Nov  5 21:35:19 2025, MaxMem= 30870077440 cpu:              69.4 elap:               1.1
 (Enter /public/software/gauss/g16/l303.exe)
 DipDrv:  MaxL=1.
 Leave Link  303 at Wed Nov  5 21:35:19 2025, MaxMem= 30870077440 cpu:               6.6 elap:               0.1
 (Enter /public/software/gauss/g16/l401.exe)
 ExpMin= 6.06D-02 ExpMax= 3.55D+04 ExpMxC= 1.21D+03 IAcc=3 IRadAn=         5 AccDes= 0.00D+00
 Harris functional with IExCor= 1009 and IRadAn=       5 diagonalized for initial guess.
 HarFok:  IExCor= 1009 AccDes= 0.00D+00 IRadAn=         5 IDoV= 1 UseB2=F ITyADJ=14
 ICtDFT=  3500011 ScaDFX=  1.000000  1.000000  1.000000  1.000000
 FoFCou: FMM=F IPFlag=           0 FMFlag=      100000 FMFlg1=           0
         NFxFlg=           0 DoJE=T BraDBF=F KetDBF=T FulRan=T
         wScrn=  0.000000 ICntrl=       500 IOpCl=  0 I1Cent=   200000004 NGrid=           0
         NMat0=    1 NMatS0=      1 NMatT0=    0 NMatD0=    1 NMtDS0=    0 NMtDT0=    0
 Petite list used in FoFCou.
 Harris En= -872.865026540266    
 JPrj=0 DoOrth=F DoCkMO=F.
 Leave Link  401 at Wed Nov  5 21:35:21 2025, MaxMem= 30870077440 cpu:             127.3 elap:               2.0
 (Enter /public/software/gauss/g16/l502.exe)
 Integral symmetry usage will be decided dynamically.
 Closed shell SCF:
 Using DIIS extrapolation, IDIIS=  1040.
 NGot= 30870077440 LenX= 30868696545 LenY= 30868034763
 Requested convergence on RMS density matrix=1.00D-08 within 128 cycles.
 Requested convergence on MAX density matrix=1.00D-06.
 Requested convergence on             energy=1.00D-06.
 No special actions if energy rises.
 Fock matrices will be formed incrementally for  20 cycles.

 Cycle   1  Pass 1  IDiag  1:
 FoFJK:  IHMeth= 1 ICntrl=       0 DoSepK=F KAlg= 0 I1Cent=           0 FoldK=F
 IRaf= 840000000 NMat=       1 IRICut=       1 DoRegI=T DoRafI=F ISym2E= 0 IDoP0=0 IntGTp=1.
 FoFCou: FMM=F IPFlag=           0 FMFlag=      100000 FMFlg1=           0
         NFxFlg=           0 DoJE=F BraDBF=F KetDBF=F FulRan=T
         wScrn=  0.000000 ICntrl=         0 IOpCl=  0 I1Cent=           0 NGrid=           0
         NMat0=    1 NMatS0=      1 NMatT0=    0 NMatD0=    1 NMtDS0=    0 NMtDT0=    0
 Symmetry not used in FoFCou.
 Inv3:  Mode=1 IEnd=    15513228.
 Iteration    1 A*A^-1 deviation from unit magnitude is 7.99D-15 for    739.
 Iteration    1 A*A^-1 deviation from orthogonality  is 4.52D-15 for   1453    722.
 Iteration    1 A^-1*A deviation from unit magnitude is 6.66D-15 for    739.
 Iteration    1 A^-1*A deviation from orthogonality  is 4.83D-14 for   2252   2243.
 E= -872.982139990895    
 DIIS: error= 2.37D-02 at cycle   1 NSaved=   1.
 NSaved= 1 IEnMin= 1 EnMin= -872.982139990895     IErMin= 1 ErrMin= 2.37D-02
 ErrMax= 2.37D-02  0.00D+00 EMaxC= 1.00D-01 BMatC= 5.37D-01 BMatP= 5.37D-01
 IDIUse=3 WtCom= 7.63D-01 WtEn= 2.37D-01
 Coeff-Com:  0.100D+01
 Coeff-En:   0.100D+01
 Coeff:      0.100D+01
 Gap=     0.148 Goal=   None    Shift=    0.000
 GapD=    0.148 DampG=1.000 DampE=0.500 DampFc=0.5000 IDamp=-1.
 Damping current iteration by 5.00D-01
 RMSDP=2.17D-03 MaxDP=1.97D-01              OVMax= 1.59D-01

 Cycle   2  Pass 1  IDiag  1:
 RMSU=  1.08D-03    CP:  9.88D-01
 E= -873.171567694534     Delta-E=       -0.189427703639 Rises=F Damp=T
 DIIS: error= 6.04D-03 at cycle   2 NSaved=   2.
 NSaved= 2 IEnMin= 2 EnMin= -873.171567694534     IErMin= 2 ErrMin= 6.04D-03
 ErrMax= 6.04D-03  0.00D+00 EMaxC= 1.00D-01 BMatC= 5.35D-02 BMatP= 5.37D-01
 IDIUse=3 WtCom= 9.40D-01 WtEn= 6.04D-02
 Coeff-Com: -0.979D-01 0.110D+01
 Coeff-En:   0.000D+00 0.100D+01
 Coeff:     -0.920D-01 0.109D+01
 Gap=     0.152 Goal=   None    Shift=    0.000
 RMSDP=7.93D-04 MaxDP=6.95D-02 DE=-1.89D-01 OVMax= 1.22D-01

 Cycle   3  Pass 1  IDiag  1:
 RMSU=  7.82D-04    CP:  9.67D-01  9.57D-01
 E= -873.339080180994     Delta-E=       -0.167512486460 Rises=F Damp=F
 DIIS: error= 7.04D-03 at cycle   3 NSaved=   3.
 NSaved= 3 IEnMin= 3 EnMin= -873.339080180994     IErMin= 2 ErrMin= 6.04D-03
 ErrMax= 7.04D-03  0.00D+00 EMaxC= 1.00D-01 BMatC= 2.94D-02 BMatP= 5.35D-02
 IDIUse=3 WtCom= 9.30D-01 WtEn= 7.04D-02
 Coeff-Com: -0.122D+00 0.500D+00 0.622D+00
 Coeff-En:   0.000D+00 0.000D+00 0.100D+01
 Coeff:     -0.113D+00 0.465D+00 0.649D+00
 Gap=     0.151 Goal=   None    Shift=    0.000
 RMSDP=3.24D-04 MaxDP=3.79D-02 DE=-1.68D-01 OVMax= 5.18D-02

 Cycle   4  Pass 1  IDiag  1:
 RMSU=  2.39D-04    CP:  9.71D-01  1.12D+00  8.45D-01
 E= -873.357315852002     Delta-E=       -0.018235671008 Rises=F Damp=F
 DIIS: error= 2.95D-03 at cycle   4 NSaved=   4.
 NSaved= 4 IEnMin= 4 EnMin= -873.357315852002     IErMin= 4 ErrMin= 2.95D-03
 ErrMax= 2.95D-03  0.00D+00 EMaxC= 1.00D-01 BMatC= 6.19D-03 BMatP= 2.94D-02
 IDIUse=3 WtCom= 9.71D-01 WtEn= 2.95D-02
 Coeff-Com: -0.396D-01 0.990D-01 0.353D+00 0.588D+00
 Coeff-En:   0.000D+00 0.000D+00 0.179D+00 0.821D+00
 Coeff:     -0.385D-01 0.961D-01 0.348D+00 0.595D+00
 Gap=     0.151 Goal=   None    Shift=    0.000
 RMSDP=1.31D-04 MaxDP=1.55D-02 DE=-1.82D-02 OVMax= 1.76D-02

 Cycle   5  Pass 1  IDiag  1:
 RMSU=  5.48D-05    CP:  9.69D-01  1.06D+00  9.20D-01  6.87D-01
 E= -873.362169326073     Delta-E=       -0.004853474071 Rises=F Damp=F
 DIIS: error= 4.87D-04 at cycle   5 NSaved=   5.
 NSaved= 5 IEnMin= 5 EnMin= -873.362169326073     IErMin= 5 ErrMin= 4.87D-04
 ErrMax= 4.87D-04  0.00D+00 EMaxC= 1.00D-01 BMatC= 1.47D-04 BMatP= 6.19D-03
 IDIUse=3 WtCom= 9.95D-01 WtEn= 4.87D-03
 Coeff-Com: -0.117D-01 0.221D-01 0.129D+00 0.260D+00 0.601D+00
 Coeff-En:   0.000D+00 0.000D+00 0.000D+00 0.000D+00 0.100D+01
 Coeff:     -0.116D-01 0.220D-01 0.128D+00 0.259D+00 0.603D+00
 Gap=     0.152 Goal=   None    Shift=    0.000
 RMSDP=1.71D-05 MaxDP=9.57D-04 DE=-4.85D-03 OVMax= 3.16D-03

 Cycle   6  Pass 1  IDiag  1:
 RMSU=  1.51D-05    CP:  9.69D-01  1.06D+00  9.19D-01  7.01D-01  9.05D-01
 E= -873.362275297603     Delta-E=       -0.000105971530 Rises=F Damp=F
 DIIS: error= 1.19D-04 at cycle   6 NSaved=   6.
 NSaved= 6 IEnMin= 6 EnMin= -873.362275297603     IErMin= 6 ErrMin= 1.19D-04
 ErrMax= 1.19D-04  0.00D+00 EMaxC= 1.00D-01 BMatC= 1.07D-05 BMatP= 1.47D-04
 IDIUse=3 WtCom= 9.99D-01 WtEn= 1.19D-03
 Coeff-Com: -0.226D-03-0.136D-02 0.123D-01 0.328D-01 0.228D+00 0.729D+00
 Coeff-En:   0.000D+00 0.000D+00 0.000D+00 0.000D+00 0.000D+00 0.100D+01
 Coeff:     -0.225D-03-0.136D-02 0.123D-01 0.328D-01 0.227D+00 0.729D+00
 Gap=     0.152 Goal=   None    Shift=    0.000
 RMSDP=7.21D-06 MaxDP=5.01D-04 DE=-1.06D-04 OVMax= 1.12D-03

 Cycle   7  Pass 1  IDiag  1:
 RMSU=  5.46D-06    CP:  9.69D-01  1.06D+00  9.22D-01  7.01D-01  9.58D-01
                    CP:  9.47D-01
 E= -873.362285195526     Delta-E=       -0.000009897923 Rises=F Damp=F
 DIIS: error= 4.72D-05 at cycle   7 NSaved=   7.
 NSaved= 7 IEnMin= 7 EnMin= -873.362285195526     IErMin= 7 ErrMin= 4.72D-05
 ErrMax= 4.72D-05  0.00D+00 EMaxC= 1.00D-01 BMatC= 1.30D-06 BMatP= 1.07D-05
 IDIUse=1 WtCom= 1.00D+00 WtEn= 0.00D+00
 Coeff-Com:  0.130D-02-0.325D-02-0.100D-01-0.187D-01 0.218D-01 0.274D+00
 Coeff-Com:  0.735D+00
 Coeff:      0.130D-02-0.325D-02-0.100D-01-0.187D-01 0.218D-01 0.274D+00
 Coeff:      0.735D+00
 Gap=     0.152 Goal=   None    Shift=    0.000
 RMSDP=4.04D-06 MaxDP=4.43D-04 DE=-9.90D-06 OVMax= 5.67D-04

 Cycle   8  Pass 1  IDiag  1:
 RMSU=  2.44D-06    CP:  9.69D-01  1.06D+00  9.24D-01  7.05D-01  9.81D-01
                    CP:  1.00D+00  1.24D+00
 E= -873.362286628842     Delta-E=       -0.000001433316 Rises=F Damp=F
 DIIS: error= 1.93D-05 at cycle   8 NSaved=   8.
 NSaved= 8 IEnMin= 8 EnMin= -873.362286628842     IErMin= 8 ErrMin= 1.93D-05
 ErrMax= 1.93D-05  0.00D+00 EMaxC= 1.00D-01 BMatC= 2.62D-07 BMatP= 1.30D-06
 IDIUse=1 WtCom= 1.00D+00 WtEn= 0.00D+00
 Coeff-Com:  0.620D-03-0.126D-02-0.573D-02-0.131D-01-0.214D-01 0.973D-02
 Coeff-Com:  0.329D+00 0.703D+00
 Coeff:      0.620D-03-0.126D-02-0.573D-02-0.131D-01-0.214D-01 0.973D-02
 Coeff:      0.329D+00 0.703D+00
 Gap=     0.152 Goal=   None    Shift=    0.000
 RMSDP=1.45D-06 MaxDP=1.42D-04 DE=-1.43D-06 OVMax= 2.72D-04

 Cycle   9  Pass 1  IDiag  1:
 RMSU=  7.32D-07    CP:  9.69D-01  1.06D+00  9.25D-01  7.06D-01  9.91D-01
                    CP:  1.02D+00  1.32D+00  1.04D+00
 E= -873.362286940863     Delta-E=       -0.000000312020 Rises=F Damp=F
 DIIS: error= 5.55D-06 at cycle   9 NSaved=   9.
 NSaved= 9 IEnMin= 9 EnMin= -873.362286940863     IErMin= 9 ErrMin= 5.55D-06
 ErrMax= 5.55D-06  0.00D+00 EMaxC= 1.00D-01 BMatC= 2.32D-08 BMatP= 2.62D-07
 IDIUse=1 WtCom= 1.00D+00 WtEn= 0.00D+00
 Coeff-Com:  0.586D-04-0.619D-04-0.546D-03-0.224D-02-0.926D-02-0.292D-01
 Coeff-Com:  0.142D-01 0.223D+00 0.805D+00
 Coeff:      0.586D-04-0.619D-04-0.546D-03-0.224D-02-0.926D-02-0.292D-01
 Coeff:      0.142D-01 0.223D+00 0.805D+00
 Gap=     0.152 Goal=   None    Shift=    0.000
 RMSDP=5.07D-07 MaxDP=3.87D-05 DE=-3.12D-07 OVMax= 1.20D-04

 Cycle  10  Pass 1  IDiag  1:
 RMSU=  2.85D-07    CP:  9.69D-01  1.06D+00  9.25D-01  7.05D-01  9.93D-01
                    CP:  1.02D+00  1.36D+00  1.14D+00  1.16D+00
 E= -873.362286979660     Delta-E=       -0.000000038797 Rises=F Damp=F
 DIIS: error= 2.64D-06 at cycle  10 NSaved=  10.
 NSaved=10 IEnMin=10 EnMin= -873.362286979660     IErMin=10 ErrMin= 2.64D-06
 ErrMax= 2.64D-06  0.00D+00 EMaxC= 1.00D-01 BMatC= 3.46D-09 BMatP= 2.32D-08
 IDIUse=1 WtCom= 1.00D+00 WtEn= 0.00D+00
 Coeff-Com: -0.638D-04 0.155D-03 0.627D-03 0.101D-02-0.469D-03-0.124D-01
 Coeff-Com: -0.396D-01-0.187D-01 0.280D+00 0.789D+00
 Coeff:     -0.638D-04 0.155D-03 0.627D-03 0.101D-02-0.469D-03-0.124D-01
 Coeff:     -0.396D-01-0.187D-01 0.280D+00 0.789D+00
 Gap=     0.152 Goal=   None    Shift=    0.000
 RMSDP=3.00D-07 MaxDP=3.15D-05 DE=-3.88D-08 OVMax= 8.18D-05

 Cycle  11  Pass 1  IDiag  1:
 RMSU=  1.20D-07    CP:  9.69D-01  1.06D+00  9.25D-01  7.05D-01  9.94D-01
                    CP:  1.02D+00  1.38D+00  1.19D+00  1.29D+00  1.15D+00
 E= -873.362286986757     Delta-E=       -0.000000007097 Rises=F Damp=F
 DIIS: error= 1.48D-06 at cycle  11 NSaved=  11.
 NSaved=11 IEnMin=11 EnMin= -873.362286986757     IErMin=11 ErrMin= 1.48D-06
 ErrMax= 1.48D-06  0.00D+00 EMaxC= 1.00D-01 BMatC= 9.62D-10 BMatP= 3.46D-09
 IDIUse=1 WtCom= 1.00D+00 WtEn= 0.00D+00
 Coeff-Com: -0.364D-04 0.752D-04 0.375D-03 0.813D-03 0.127D-02-0.105D-02
 Coeff-Com: -0.200D-01-0.438D-01 0.540D-02 0.387D+00 0.670D+00
 Coeff:     -0.364D-04 0.752D-04 0.375D-03 0.813D-03 0.127D-02-0.105D-02
 Coeff:     -0.200D-01-0.438D-01 0.540D-02 0.387D+00 0.670D+00
 Gap=     0.152 Goal=   None    Shift=    0.000
 RMSDP=7.66D-08 MaxDP=6.45D-06 DE=-7.10D-09 OVMax= 3.84D-05

 Cycle  12  Pass 1  IDiag  1:
 RMSU=  5.39D-08    CP:  9.69D-01  1.06D+00  9.25D-01  7.05D-01  9.93D-01
                    CP:  1.02D+00  1.38D+00  1.19D+00  1.34D+00  1.27D+00
                    CP:  1.13D+00
 E= -873.362286988687     Delta-E=       -0.000000001930 Rises=F Damp=F
 DIIS: error= 6.40D-07 at cycle  12 NSaved=  12.
 NSaved=12 IEnMin=12 EnMin= -873.362286988687     IErMin=12 ErrMin= 6.40D-07
 ErrMax= 6.40D-07  0.00D+00 EMaxC= 1.00D-01 BMatC= 1.25D-10 BMatP= 9.62D-10
 IDIUse=1 WtCom= 1.00D+00 WtEn= 0.00D+00
 Coeff-Com:  0.516D-05-0.152D-04-0.366D-04-0.135D-05 0.427D-03 0.238D-02
 Coeff-Com:  0.324D-02-0.694D-02-0.623D-01-0.870D-01 0.145D+00 0.101D+01
 Coeff:      0.516D-05-0.152D-04-0.366D-04-0.135D-05 0.427D-03 0.238D-02
 Coeff:      0.324D-02-0.694D-02-0.623D-01-0.870D-01 0.145D+00 0.101D+01
 Gap=     0.152 Goal=   None    Shift=    0.000
 RMSDP=5.86D-08 MaxDP=3.56D-06 DE=-1.93D-09 OVMax= 3.35D-05

 Cycle  13  Pass 1  IDiag  1:
 RMSU=  2.47D-08    CP:  9.69D-01  1.06D+00  9.25D-01  7.05D-01  9.94D-01
                    CP:  1.02D+00  1.38D+00  1.20D+00  1.36D+00  1.35D+00
                    CP:  1.37D+00  1.46D+00
 E= -873.362286989280     Delta-E=       -0.000000000593 Rises=F Damp=F
 DIIS: error= 2.73D-07 at cycle  13 NSaved=  13.
 NSaved=13 IEnMin=13 EnMin= -873.362286989280     IErMin=13 ErrMin= 2.73D-07
 ErrMax= 2.73D-07  0.00D+00 EMaxC= 1.00D-01 BMatC= 2.45D-11 BMatP= 1.25D-10
 IDIUse=1 WtCom= 1.00D+00 WtEn= 0.00D+00
 Coeff-Com:  0.890D-05-0.192D-04-0.904D-04-0.175D-03-0.149D-03 0.980D-03
 Coeff-Com:  0.518D-02 0.761D-02-0.189D-01-0.105D+00-0.106D+00 0.303D+00
 Coeff-Com:  0.913D+00
 Coeff:      0.890D-05-0.192D-04-0.904D-04-0.175D-03-0.149D-03 0.980D-03
 Coeff:      0.518D-02 0.761D-02-0.189D-01-0.105D+00-0.106D+00 0.303D+00
 Coeff:      0.913D+00
 Gap=     0.152 Goal=   None    Shift=    0.000
 RMSDP=2.58D-08 MaxDP=1.42D-06 DE=-5.93D-10 OVMax= 1.65D-05

 Cycle  14  Pass 1  IDiag  1:
 RMSU=  9.55D-09    CP:  9.69D-01  1.06D+00  9.25D-01  7.05D-01  9.94D-01
                    CP:  1.02D+00  1.38D+00  1.20D+00  1.37D+00  1.39D+00
                    CP:  1.47D+00  1.74D+00  1.41D+00
 E= -873.362286989430     Delta-E=       -0.000000000150 Rises=F Damp=F
 DIIS: error= 1.12D-07 at cycle  14 NSaved=  14.
 NSaved=14 IEnMin=14 EnMin= -873.362286989430     IErMin=14 ErrMin= 1.12D-07
 ErrMax= 1.12D-07  0.00D+00 EMaxC= 1.00D-01 BMatC= 3.96D-12 BMatP= 2.45D-11
 IDIUse=1 WtCom= 1.00D+00 WtEn= 0.00D+00
 Coeff-Com:  0.936D-06-0.162D-05-0.162D-04-0.418D-04-0.111D-03-0.176D-03
 Coeff-Com:  0.576D-03 0.285D-02 0.638D-02-0.102D-01-0.672D-01-0.100D+00
 Coeff-Com:  0.236D+00 0.932D+00
 Coeff:      0.936D-06-0.162D-05-0.162D-04-0.418D-04-0.111D-03-0.176D-03
 Coeff:      0.576D-03 0.285D-02 0.638D-02-0.102D-01-0.672D-01-0.100D+00
 Coeff:      0.236D+00 0.932D+00
 Gap=     0.152 Goal=   None    Shift=    0.000
 RMSDP=1.09D-08 MaxDP=5.29D-07 DE=-1.50D-10 OVMax= 6.20D-06

 Cycle  15  Pass 1  IDiag  1:
 RMSU=  4.01D-09    CP:  9.69D-01  1.06D+00  9.25D-01  7.05D-01  9.94D-01
                    CP:  1.02D+00  1.38D+00  1.20D+00  1.37D+00  1.39D+00
                    CP:  1.50D+00  1.87D+00  1.61D+00  1.25D+00
 E= -873.362286989421     Delta-E=        0.000000000010 Rises=F Damp=F
 DIIS: error= 2.66D-08 at cycle  15 NSaved=  15.
 NSaved=15 IEnMin=14 EnMin= -873.362286989430     IErMin=15 ErrMin= 2.66D-08
 ErrMax= 2.66D-08  0.00D+00 EMaxC= 1.00D-01 BMatC= 9.38D-13 BMatP= 3.96D-12
 IDIUse=1 WtCom= 1.00D+00 WtEn= 0.00D+00
 Coeff-Com: -0.582D-06 0.143D-05 0.236D-05-0.226D-06-0.347D-04-0.184D-03
 Coeff-Com: -0.287D-03 0.497D-03 0.525D-02 0.975D-02-0.184D-01-0.695D-01
 Coeff-Com: -0.141D-01 0.427D+00 0.660D+00
 Coeff:     -0.582D-06 0.143D-05 0.236D-05-0.226D-06-0.347D-04-0.184D-03
 Coeff:     -0.287D-03 0.497D-03 0.525D-02 0.975D-02-0.184D-01-0.695D-01
 Coeff:     -0.141D-01 0.427D+00 0.660D+00
 Gap=     0.152 Goal=   None    Shift=    0.000
 RMSDP=3.55D-09 MaxDP=3.27D-07 DE= 9.55D-12 OVMax= 8.80D-07

 Error on total polarization charges =  0.01451
 SCF Done:  E(RM062X) =  -873.362286989     A.U. after   15 cycles
            NFock= 15  Conv=0.36D-08     -V/T= 2.0051
 KE= 8.689102367992D+02 PE=-4.692862619828D+03 EE= 1.626032207436D+03
 Leave Link  502 at Wed Nov  5 21:38:05 2025, MaxMem= 30870077440 cpu:           10344.8 elap:             164.2
 (Enter /public/software/gauss/g16/l601.exe)
 Copying SCF densities to generalized density rwf, IOpCl= 0 IROHF=0.

 **********************************************************************

            Population analysis using the SCF density.

 **********************************************************************

 Orbital symmetries:
       Occupied  (A) (A) (A) (A) (A) (A) (A) (A) (A) (A) (A) (A)
                 (A) (A) (A) (A) (A) (A) (A) (A) (A) (A) (A) (A)
                 (A) (A) (A) (A) (A) (A) (A) (A) (A) (A) (A) (A)
                 (A) (A) (A) (A) (A) (A) (A) (A) (A) (A) (A) (A)
                 (A) (A) (A) (A) (A) (A) (A) (A) (A) (A) (A) (A)
                 (A) (A) (A) (A)
       Virtual   (A) (A) (A) (A) (A) (A) (A) (A) (A) (A) (A) (A)
                 (A) (A) (A) (A) (A) (A) (A) (A) (A) (A) (A) (A)
                 (A) (A) (A) (A) (A) (A) (A) (A) (A) (A) (A) (A)
                 (A) (A) (A) (A) (A) (A) (A) (A) (A) (A) (A) (A)
                 (A) (A) (A) (A) (A) (A) (A) (A) (A) (A) (A) (A)
                 (A) (A) (A) (A) (A) (A) (A) (A) (A) (A) (A) (A)
                 (A) (A) (A) (A) (A) (A) (A) (A) (A) (A) (A) (A)
                 (A) (A) (A) (A) (A) (A) (A) (A) (A) (A) (A) (A)
                 (A) (A) (A) (A) (A) (A) (A) (A) (A) (A) (A) (A)
                 (A) (A) (A) (A) (A) (A) (A) (A) (A) (A) (A) (A)
                 (A) (A) (A) (A) (A) (A) (A) (A) (A) (A) (A) (A)
                 (A) (A) (A) (A) (A) (A) (A) (A) (A) (A) (A) (A)
                 (A) (A) (A) (A) (A) (A) (A) (A) (A) (A) (A) (A)
                 (A) (A) (A) (A) (A) (A) (A) (A) (A) (A) (A) (A)
                 (A) (A) (A) (A) (A) (A) (A) (A) (A) (A) (A) (A)
                 (A) (A) (A) (A) (A) (A) (A) (A) (A) (A) (A) (A)
                 (A) (A) (A) (A) (A) (A) (A) (A) (A) (A) (A) (A)
                 (A) (A) (A) (A) (A) (A) (A) (A) (A) (A) (A) (A)
                 (A) (A) (A) (A) (A) (A) (A) (A) (A) (A) (A) (A)
                 (A) (A) (A) (A) (A) (A) (A) (A) (A) (A) (A) (A)
                 (A) (A) (A) (A) (A) (A) (A) (A) (A) (A) (A) (A)
                 (A) (A) (A) (A) (A) (A) (A) (A) (A) (A) (A) (A)
                 (A) (A) (A) (A) (A) (A) (A) (A) (A) (A) (A) (A)
                 (A) (A) (A) (A) (A) (A) (A) (A) (A) (A) (A) (A)
                 (A) (A) (A) (A) (A) (A) (A) (A) (A) (A) (A) (A)
                 (A) (A) (A) (A) (A) (A) (A) (A) (A) (A) (A) (A)
                 (A) (A) (A) (A) (A) (A) (A) (A) (A) (A) (A) (A)
                 (A) (A) (A) (A) (A) (A) (A) (A) (A) (A) (A) (A)
                 (A) (A) (A) (A) (A) (A) (A) (A) (A) (A) (A) (A)
                 (A) (A) (A) (A) (A) (A) (A) (A) (A) (A) (A) (A)
                 (A) (A) (A) (A) (A) (A) (A) (A) (A) (A) (A) (A)
                 (A) (A) (A) (A) (A) (A) (A) (A) (A) (A) (A) (A)
                 (A) (A) (A) (A) (A) (A) (A) (A) (A) (A) (A) (A)
                 (A) (A) (A) (A) (A) (A) (A) (A) (A) (A) (A) (A)
                 (A) (A) (A) (A) (A) (A) (A) (A) (A) (A) (A) (A)
                 (A) (A) (A) (A) (A) (A) (A) (A) (A) (A) (A) (A)
                 (A) (A) (A) (A) (A) (A) (A) (A) (A) (A) (A) (A)
                 (A) (A) (A) (A) (A) (A) (A) (A) (A) (A) (A) (A)
                 (A) (A) (A) (A) (A) (A) (A) (A) (A) (A) (A) (A)
                 (A) (A) (A) (A) (A) (A) (A) (A) (A) (A) (A) (A)
                 (A) (A) (A) (A) (A) (A) (A) (A) (A) (A) (A) (A)
                 (A) (A) (A) (A) (A) (A) (A) (A) (A) (A) (A) (A)
                 (A) (A) (A) (A) (A) (A) (A) (A) (A) (A) (A) (A)
                 (A) (A) (A) (A) (A) (A) (A) (A) (A) (A) (A) (A)
                 (A) (A) (A) (A) (A) (A) (A) (A) (A) (A) (A) (A)
                 (A) (A) (A) (A) (A) (A) (A) (A) (A) (A) (A) (A)
                 (A) (A) (A) (A) (A) (A) (A) (A) (A) (A) (A) (A)
                 (A) (A) (A) (A) (A) (A) (A) (A) (A) (A) (A) (A)
                 (A) (A) (A) (A) (A) (A) (A) (A) (A) (A) (A) (A)
                 (A) (A) (A) (A) (A) (A) (A) (A) (A) (A) (A) (A)
                 (A) (A) (A) (A) (A) (A) (A) (A) (A) (A) (A) (A)
                 (A) (A) (A) (A) (A) (A) (A) (A) (A) (A) (A) (A)
                 (A) (A) (A) (A) (A) (A) (A) (A) (A) (A) (A) (A)
                 (A) (A) (A) (A) (A) (A) (A) (A) (A) (A) (A) (A)
 The electronic state is 1-A.
 Alpha  occ. eigenvalues --  -25.20848 -25.20836 -19.65578 -14.79362 -14.79018
 Alpha  occ. eigenvalues --  -10.66004 -10.61527 -10.61029 -10.60897 -10.60310
 Alpha  occ. eigenvalues --  -10.59664 -10.57133 -10.56253 -10.55291 -10.54811
 Alpha  occ. eigenvalues --  -10.54798 -10.54636  -7.13774  -1.32786  -1.29565
 Alpha  occ. eigenvalues --   -1.19362  -1.11598  -1.09662  -0.94504  -0.90464
 Alpha  occ. eigenvalues --   -0.89052  -0.87453  -0.85360  -0.78475  -0.75841
 Alpha  occ. eigenvalues --   -0.71414  -0.70465  -0.67663  -0.66008  -0.63966
 Alpha  occ. eigenvalues --   -0.62550  -0.61020  -0.58859  -0.57587  -0.55812
 Alpha  occ. eigenvalues --   -0.54820  -0.54310  -0.53706  -0.53412  -0.52496
 Alpha  occ. eigenvalues --   -0.50947  -0.50015  -0.49187  -0.48486  -0.48453
 Alpha  occ. eigenvalues --   -0.47745  -0.47366  -0.46575  -0.46363  -0.46102
 Alpha  occ. eigenvalues --   -0.46058  -0.45419  -0.44565  -0.41825  -0.36221
 Alpha  occ. eigenvalues --   -0.36194  -0.33846  -0.32813  -0.26381
 Alpha virt. eigenvalues --   -0.11186   0.00463   0.04692   0.06162   0.06745
 Alpha virt. eigenvalues --    0.08867   0.08994   0.09327   0.09592   0.10840
 Alpha virt. eigenvalues --    0.11369   0.12377   0.12379   0.14090   0.14707
 Alpha virt. eigenvalues --    0.15559   0.15836   0.16023   0.16726   0.16941
 Alpha virt. eigenvalues --    0.17258   0.17735   0.18109   0.19364   0.20469
 Alpha virt. eigenvalues --    0.20959   0.21792   0.22059   0.23025   0.23108
 Alpha virt. eigenvalues --    0.23697   0.23756   0.25111   0.25458   0.26147
 Alpha virt. eigenvalues --    0.26747   0.27432   0.29170   0.29224   0.29600
 Alpha virt. eigenvalues --    0.31093   0.31873   0.32021   0.32298   0.32931
 Alpha virt. eigenvalues --    0.33070   0.33492   0.35358   0.35900   0.36943
 Alpha virt. eigenvalues --    0.37469   0.37822   0.38134   0.38645   0.38819
 Alpha virt. eigenvalues --    0.38961   0.40123   0.40292   0.40602   0.41914
 Alpha virt. eigenvalues --    0.42411   0.43168   0.43491   0.43555   0.43850
 Alpha virt. eigenvalues --    0.44503   0.44946   0.45861   0.45885   0.47581
 Alpha virt. eigenvalues --    0.48126   0.48289   0.48854   0.49337   0.49724
 Alpha virt. eigenvalues --    0.49920   0.50394   0.50624   0.51782   0.52888
 Alpha virt. eigenvalues --    0.53596   0.54172   0.54459   0.55465   0.55766
 Alpha virt. eigenvalues --    0.56322   0.57802   0.59247   0.59442   0.59832
 Alpha virt. eigenvalues --    0.59958   0.60535   0.61058   0.62389   0.62841
 Alpha virt. eigenvalues --    0.64067   0.65387   0.65545   0.66013   0.66982
 Alpha virt. eigenvalues --    0.67414   0.68011   0.69709   0.69940   0.70346
 Alpha virt. eigenvalues --    0.71256   0.71989   0.72752   0.73655   0.73677
 Alpha virt. eigenvalues --    0.74604   0.75154   0.75447   0.77062   0.77970
 Alpha virt. eigenvalues --    0.79517   0.80102   0.80554   0.80884   0.81812
 Alpha virt. eigenvalues --    0.82244   0.82554   0.82892   0.84958   0.85471
 Alpha virt. eigenvalues --    0.85620   0.87382   0.88507   0.89307   0.89906
 Alpha virt. eigenvalues --    0.91169   0.91532   0.91765   0.92453   0.93136
 Alpha virt. eigenvalues --    0.93852   0.94097   0.94439   0.94949   0.97344
 Alpha virt. eigenvalues --    0.98720   0.99375   1.00155   1.00467   1.01167
 Alpha virt. eigenvalues --    1.01923   1.03146   1.03271   1.03641   1.05203
 Alpha virt. eigenvalues --    1.05821   1.05860   1.06150   1.06760   1.07619
 Alpha virt. eigenvalues --    1.10295   1.10525   1.11043   1.11340   1.11509
 Alpha virt. eigenvalues --    1.13014   1.13327   1.13799   1.15644   1.15982
 Alpha virt. eigenvalues --    1.17347   1.18171   1.18314   1.19313   1.20672
 Alpha virt. eigenvalues --    1.21035   1.22020   1.22967   1.23045   1.25467
 Alpha virt. eigenvalues --    1.25789   1.26125   1.27256   1.28283   1.30678
 Alpha virt. eigenvalues --    1.31154   1.31766   1.33611   1.34329   1.35669
 Alpha virt. eigenvalues --    1.36352   1.36779   1.39322   1.39912   1.40911
 Alpha virt. eigenvalues --    1.41185   1.42203   1.43069   1.43168   1.43523
 Alpha virt. eigenvalues --    1.44074   1.46265   1.47365   1.47663   1.47918
 Alpha virt. eigenvalues --    1.48180   1.49007   1.49185   1.49391   1.50492
 Alpha virt. eigenvalues --    1.52155   1.52460   1.53955   1.54301   1.55455
 Alpha virt. eigenvalues --    1.55480   1.55678   1.56741   1.57887   1.58046
 Alpha virt. eigenvalues --    1.59279   1.59770   1.59815   1.61583   1.62547
 Alpha virt. eigenvalues --    1.63773   1.63985   1.65444   1.66319   1.66943
 Alpha virt. eigenvalues --    1.67889   1.67926   1.68523   1.70946   1.71871
 Alpha virt. eigenvalues --    1.72849   1.73794   1.77981   1.80207   1.81239
 Alpha virt. eigenvalues --    1.81646   1.82074   1.83385   1.84972   1.85715
 Alpha virt. eigenvalues --    1.86821   1.86987   1.87073   1.88138   1.91367
 Alpha virt. eigenvalues --    1.92426   1.92560   1.95291   1.96050   1.96397
 Alpha virt. eigenvalues --    1.98044   1.98112   1.99484   2.00478   2.01317
 Alpha virt. eigenvalues --    2.04814   2.05202   2.07188   2.07329   2.11561
 Alpha virt. eigenvalues --    2.11914   2.12269   2.13564   2.13875   2.15881
 Alpha virt. eigenvalues --    2.17304   2.18835   2.20195   2.21464   2.22147
 Alpha virt. eigenvalues --    2.24530   2.25236   2.27775   2.28057   2.28360
 Alpha virt. eigenvalues --    2.31144   2.31870   2.33001   2.35285   2.36495
 Alpha virt. eigenvalues --    2.37186   2.39766   2.40545   2.41812   2.42494
 Alpha virt. eigenvalues --    2.44356   2.46244   2.47120   2.48353   2.49143
 Alpha virt. eigenvalues --    2.50443   2.50642   2.52495   2.53941   2.55290
 Alpha virt. eigenvalues --    2.56097   2.57620   2.58298   2.59454   2.60028
 Alpha virt. eigenvalues --    2.60787   2.62894   2.64351   2.65644   2.65971
 Alpha virt. eigenvalues --    2.67594   2.68323   2.68972   2.69613   2.71029
 Alpha virt. eigenvalues --    2.71212   2.73811   2.74772   2.75945   2.76180
 Alpha virt. eigenvalues --    2.76620   2.76826   2.77330   2.78202   2.78467
 Alpha virt. eigenvalues --    2.79630   2.81420   2.82459   2.82715   2.83935
 Alpha virt. eigenvalues --    2.84332   2.84479   2.85124   2.87303   2.87910
 Alpha virt. eigenvalues --    2.88364   2.91345   2.91406   2.91573   2.92587
 Alpha virt. eigenvalues --    2.93687   2.95106   2.95244   2.96268   2.96616
 Alpha virt. eigenvalues --    2.97324   2.97933   2.98754   2.98899   2.99362
 Alpha virt. eigenvalues --    3.00089   3.00369   3.02077   3.02544   3.02680
 Alpha virt. eigenvalues --    3.03326   3.03969   3.05448   3.05700   3.05957
 Alpha virt. eigenvalues --    3.06752   3.07117   3.07861   3.08652   3.09053
 Alpha virt. eigenvalues --    3.10195   3.11413   3.11442   3.11810   3.12643
 Alpha virt. eigenvalues --    3.15704   3.16094   3.16286   3.17165   3.18058
 Alpha virt. eigenvalues --    3.18328   3.19058   3.19749   3.20002   3.21399
 Alpha virt. eigenvalues --    3.21667   3.22559   3.23722   3.24230   3.25915
 Alpha virt. eigenvalues --    3.26190   3.26958   3.28541   3.29588   3.29957
 Alpha virt. eigenvalues --    3.30866   3.31546   3.31575   3.32028   3.32692
 Alpha virt. eigenvalues --    3.34590   3.36721   3.36748   3.37999   3.38124
 Alpha virt. eigenvalues --    3.39963   3.40176   3.40763   3.42053   3.42705
 Alpha virt. eigenvalues --    3.42975   3.43628   3.45383   3.46629   3.47151
 Alpha virt. eigenvalues --    3.47330   3.48271   3.48796   3.49500   3.50218
 Alpha virt. eigenvalues --    3.51121   3.52662   3.53483   3.53580   3.54363
 Alpha virt. eigenvalues --    3.55067   3.56617   3.57969   3.58275   3.58881
 Alpha virt. eigenvalues --    3.60196   3.60912   3.61285   3.63719   3.63849
 Alpha virt. eigenvalues --    3.64299   3.66105   3.66503   3.67756   3.69440
 Alpha virt. eigenvalues --    3.73328   3.73480   3.74204   3.75327   3.75523
 Alpha virt. eigenvalues --    3.76389   3.77308   3.77393   3.79449   3.79800
 Alpha virt. eigenvalues --    3.79945   3.83018   3.84342   3.84432   3.85676
 Alpha virt. eigenvalues --    3.86108   3.86390   3.87162   3.87484   3.88458
 Alpha virt. eigenvalues --    3.88519   3.89893   3.90539   3.91340   3.91821
 Alpha virt. eigenvalues --    3.92948   3.93468   3.94143   3.94725   3.95702
 Alpha virt. eigenvalues --    3.97442   3.99151   3.99305   3.99479   4.01086
 Alpha virt. eigenvalues --    4.02010   4.03977   4.04124   4.04320   4.05191
 Alpha virt. eigenvalues --    4.09394   4.09628   4.09976   4.10677   4.12898
 Alpha virt. eigenvalues --    4.13036   4.13758   4.13940   4.14727   4.15576
 Alpha virt. eigenvalues --    4.15832   4.16557   4.17240   4.19237   4.19460
 Alpha virt. eigenvalues --    4.19724   4.20655   4.21315   4.23472   4.26749
 Alpha virt. eigenvalues --    4.30186   4.31243   4.31736   4.31990   4.33366
 Alpha virt. eigenvalues --    4.33490   4.35935   4.37848   4.38279   4.39328
 Alpha virt. eigenvalues --    4.39745   4.40829   4.42319   4.42939   4.43801
 Alpha virt. eigenvalues --    4.46328   4.47719   4.48044   4.49385   4.52321
 Alpha virt. eigenvalues --    4.55701   4.55984   4.59154   4.62062   4.62286
 Alpha virt. eigenvalues --    4.63666   4.64436   4.64888   4.65539   4.68493
 Alpha virt. eigenvalues --    4.68977   4.70070   4.71967   4.73551   4.76621
 Alpha virt. eigenvalues --    4.77486   4.79084   4.80513   4.84584   4.85842
 Alpha virt. eigenvalues --    4.86263   4.88960   4.90419   4.95441   4.96258
 Alpha virt. eigenvalues --    4.97125   4.97507   4.98384   5.01024   5.01901
 Alpha virt. eigenvalues --    5.02168   5.05752   5.06106   5.07562   5.12127
 Alpha virt. eigenvalues --    5.12794   5.14440   5.15628   5.16445   5.16582
 Alpha virt. eigenvalues --    5.16707   5.17097   5.17909   5.19649   5.20371
 Alpha virt. eigenvalues --    5.21520   5.21636   5.23277   5.24929   5.25015
 Alpha virt. eigenvalues --    5.25286   5.25801   5.30284   5.32428   5.35198
 Alpha virt. eigenvalues --    5.36803   5.37397   5.37820   5.39583   5.40557
 Alpha virt. eigenvalues --    5.41691   5.42703   5.45419   5.48194   5.49934
 Alpha virt. eigenvalues --    5.53387   5.53651   5.54716   5.56032   5.56754
 Alpha virt. eigenvalues --    5.57792   5.58073   5.60493   5.64468   5.68550
 Alpha virt. eigenvalues --    5.69248   5.74701   5.76552   5.80129   5.85789
 Alpha virt. eigenvalues --    5.87070   5.88094   5.96331   5.99183   6.01229
 Alpha virt. eigenvalues --    6.02484   6.05338   6.27011   6.31674   6.35056
 Alpha virt. eigenvalues --    6.44821   6.57705   6.76326   6.81099   6.93466
 Alpha virt. eigenvalues --    6.93523   6.96641   6.97381   6.98627   6.99071
 Alpha virt. eigenvalues --    7.03417   7.05089   7.08744   7.11463   7.17050
 Alpha virt. eigenvalues --    7.21181   7.23885   7.25652   7.33056   7.34618
 Alpha virt. eigenvalues --    8.42409   8.44490   8.55244   8.57730   8.81305
 Alpha virt. eigenvalues --    8.87490   8.89433   8.89725   8.91667   8.98756
 Alpha virt. eigenvalues --   15.85892  22.89609  22.91362  23.12457  23.29470
 Alpha virt. eigenvalues --   23.30604  23.42358  23.48923  23.55449  23.69371
 Alpha virt. eigenvalues --   23.69614  23.77162  23.96018  33.10430  33.20751
 Alpha virt. eigenvalues --   44.05874  57.25478  57.52414
          Condensed to atoms (all electrons):
               1          2          3          4          5          6
     1  C    5.012983   0.261757  -0.053242   0.014754   0.005806  -0.051696
     2  C    0.261757   5.075459   0.506514  -0.056560  -0.136600   0.454991
     3  C   -0.053242   0.506514   4.969336   0.521113  -0.099217  -0.105911
     4  C    0.014754  -0.056560   0.521113   5.057914   0.485560  -0.103639
     5  C    0.005806  -0.136600  -0.099217   0.485560   5.391543   0.366753
     6  N   -0.051696   0.454991  -0.105911  -0.103639   0.366753   6.333894
     7  B   -0.015344  -0.025143   0.001402   0.000384  -0.049444   0.353434
     8  F   -0.009690  -0.001518   0.000484  -0.000363  -0.005624  -0.035106
     9  F   -0.010315  -0.001247   0.000535  -0.000380  -0.005610  -0.035484
    10  N   -0.001126   0.000019  -0.000520  -0.001068  -0.013410  -0.032348
    11  C   -0.000345  -0.001264   0.000182  -0.000496  -0.008923   0.000629
    12  C   -0.000011  -0.000320   0.000012  -0.000035   0.000238  -0.000998
    13  C    0.000012   0.000174  -0.000061   0.000403   0.004058  -0.001091
    14  C   -0.000025  -0.000232   0.000173  -0.001037   0.012024   0.000548
    15  C    0.000279  -0.004378   0.000243   0.008191  -0.121042  -0.017396
    16  C   -0.003204  -0.022494   0.033101  -0.130660   0.175248  -0.034499
    17  C    0.000006   0.000578   0.000154  -0.015744  -0.065376   0.002945
    18  O    0.000003   0.000806  -0.000599   0.002184  -0.030611  -0.000020
    19  H    0.418618  -0.044202   0.004612  -0.001167   0.000408  -0.005956
    20  H    0.418960  -0.044420   0.004716  -0.001114   0.000339  -0.006275
    21  H    0.421716  -0.026636  -0.018923   0.002297  -0.001128   0.006227
    22  H   -0.002074  -0.018174   0.404810  -0.008876   0.002019   0.003649
    23  H   -0.000088   0.001458  -0.001787   0.393064  -0.016223   0.003970
    24  H   -0.000015   0.000003   0.000002   0.000000  -0.000089   0.000009
    25  H    0.000001   0.000003  -0.000000   0.000000   0.000005   0.000024
    26  H   -0.000016   0.000004   0.000002   0.000001  -0.000068  -0.000034
    27  H    0.000000   0.000001  -0.000000   0.000001   0.000100   0.000003
    28  H   -0.000000   0.000002   0.000000  -0.000023   0.000266   0.000040
    29  H    0.000001   0.000161  -0.000138   0.002032   0.026089  -0.000288
               7          8          9         10         11         12
     1  C   -0.015344  -0.009690  -0.010315  -0.001126  -0.000345  -0.000011
     2  C   -0.025143  -0.001518  -0.001247   0.000019  -0.001264  -0.000320
     3  C    0.001402   0.000484   0.000535  -0.000520   0.000182   0.000012
     4  C    0.000384  -0.000363  -0.000380  -0.001068  -0.000496  -0.000035
     5  C   -0.049444  -0.005624  -0.005610  -0.013410  -0.008923   0.000238
     6  N    0.353434  -0.035106  -0.035484  -0.032348   0.000629  -0.000998
     7  B    3.364395   0.357867   0.358903   0.353188  -0.026661  -0.015820
     8  F    0.357867   9.116315  -0.032435  -0.035019  -0.001475  -0.009537
     9  F    0.358903  -0.032435   9.115793  -0.035580  -0.001017  -0.010480
    10  N    0.353188  -0.035019  -0.035580   6.322480   0.450759  -0.053126
    11  C   -0.026661  -0.001475  -0.001017   0.450759   5.060732   0.262060
    12  C   -0.015820  -0.009537  -0.010480  -0.053126   0.262060   5.010214
    13  C    0.003464   0.000433   0.000506  -0.094504   0.506007  -0.050971
    14  C   -0.004352  -0.000348  -0.000365  -0.110565  -0.069559   0.012432
    15  C   -0.046683  -0.005632  -0.005625   0.370275  -0.125273   0.008208
    16  C   -0.004131   0.004964   0.005002  -0.028622   0.000445  -0.001910
    17  C    0.006051   0.000087   0.000093   0.002804  -0.001734  -0.000060
    18  O    0.000328  -0.000000  -0.000000  -0.000108   0.000031  -0.000000
    19  H   -0.003136   0.004717  -0.001023   0.000004   0.000004  -0.000015
    20  H   -0.002869  -0.001195   0.004752  -0.000029   0.000004  -0.000016
    21  H    0.003343   0.000237   0.000211   0.000025   0.000003   0.000001
    22  H    0.000210   0.000010   0.000011   0.000007   0.000001   0.000000
    23  H    0.000449   0.000004   0.000004  -0.000000  -0.000008  -0.000000
    24  H   -0.003014   0.004710  -0.000967  -0.005833  -0.043185   0.417831
    25  H    0.003286   0.000238   0.000211   0.006080  -0.026333   0.421059
    26  H   -0.002749  -0.001196   0.004835  -0.006272  -0.043686   0.418755
    27  H    0.000258   0.000010   0.000011   0.003810  -0.016991  -0.002007
    28  H    0.000350   0.000004   0.000004   0.003400  -0.001117  -0.000191
    29  H    0.000338   0.000000   0.000000  -0.000147  -0.001019  -0.000013
              13         14         15         16         17         18
     1  C    0.000012  -0.000025   0.000279  -0.003204   0.000006   0.000003
     2  C    0.000174  -0.000232  -0.004378  -0.022494   0.000578   0.000806
     3  C   -0.000061   0.000173   0.000243   0.033101   0.000154  -0.000599
     4  C    0.000403  -0.001037   0.008191  -0.130660  -0.015744   0.002184
     5  C    0.004058   0.012024  -0.121042   0.175248  -0.065376  -0.030611
     6  N   -0.001091   0.000548  -0.017396  -0.034499   0.002945  -0.000020
     7  B    0.003464  -0.004352  -0.046683  -0.004131   0.006051   0.000328
     8  F    0.000433  -0.000348  -0.005632   0.004964   0.000087  -0.000000
     9  F    0.000506  -0.000365  -0.005625   0.005002   0.000093  -0.000000
    10  N   -0.094504  -0.110565   0.370275  -0.028622   0.002804  -0.000108
    11  C    0.506007  -0.069559  -0.125273   0.000445  -0.001734   0.000031
    12  C   -0.050971   0.012432   0.008208  -0.001910  -0.000060  -0.000000
    13  C    4.977873   0.523903  -0.114577   0.010912   0.004662  -0.000062
    14  C    0.523903   4.987559   0.491003  -0.024842  -0.046501  -0.000997
    15  C   -0.114577   0.491003   5.126867   0.384125  -0.033943   0.002746
    16  C    0.010912  -0.024842   0.384125   5.740706   0.157953  -0.112510
    17  C    0.004662  -0.046501  -0.033943   0.157953   4.711508   0.607226
    18  O   -0.000062  -0.000997   0.002746  -0.112510   0.607226   7.888797
    19  H    0.000002   0.000001  -0.000082   0.000091  -0.000001  -0.000000
    20  H    0.000001   0.000002  -0.000065   0.000054  -0.000001  -0.000000
    21  H   -0.000000  -0.000000  -0.000002   0.000029   0.000001   0.000000
    22  H   -0.000000   0.000000   0.000071   0.000285  -0.000056  -0.000052
    23  H    0.000008   0.000002  -0.000222  -0.007122  -0.005318   0.018384
    24  H    0.004448  -0.001093   0.000254   0.000063   0.000002  -0.000000
    25  H   -0.018234   0.002090  -0.000870   0.000027   0.000001   0.000000
    26  H    0.004674  -0.001031   0.000173   0.000014   0.000002  -0.000000
    27  H    0.403667  -0.007532   0.000583   0.000012   0.000022  -0.000000
    28  H    0.001793   0.392302  -0.019203   0.011861  -0.009145   0.000111
    29  H    0.003480  -0.014362  -0.001071  -0.138154   0.507043  -0.040280
              19         20         21         22         23         24
     1  C    0.418618   0.418960   0.421716  -0.002074  -0.000088  -0.000015
     2  C   -0.044202  -0.044420  -0.026636  -0.018174   0.001458   0.000003
     3  C    0.004612   0.004716  -0.018923   0.404810  -0.001787   0.000002
     4  C   -0.001167  -0.001114   0.002297  -0.008876   0.393064   0.000000
     5  C    0.000408   0.000339  -0.001128   0.002019  -0.016223  -0.000089
     6  N   -0.005956  -0.006275   0.006227   0.003649   0.003970   0.000009
     7  B   -0.003136  -0.002869   0.003343   0.000210   0.000449  -0.003014
     8  F    0.004717  -0.001195   0.000237   0.000010   0.000004   0.004710
     9  F   -0.001023   0.004752   0.000211   0.000011   0.000004  -0.000967
    10  N    0.000004  -0.000029   0.000025   0.000007  -0.000000  -0.005833
    11  C    0.000004   0.000004   0.000003   0.000001  -0.000008  -0.043185
    12  C   -0.000015  -0.000016   0.000001   0.000000  -0.000000   0.417831
    13  C    0.000002   0.000001  -0.000000  -0.000000   0.000008   0.004448
    14  C    0.000001   0.000002  -0.000000   0.000000   0.000002  -0.001093
    15  C   -0.000082  -0.000065  -0.000002   0.000071  -0.000222   0.000254
    16  C    0.000091   0.000054   0.000029   0.000285  -0.007122   0.000063
    17  C   -0.000001  -0.000001   0.000001  -0.000056  -0.005318   0.000002
    18  O   -0.000000  -0.000000   0.000000  -0.000052   0.018384  -0.000000
    19  H    0.512187  -0.027236  -0.018245   0.000008   0.000002  -0.000037
    20  H   -0.027236   0.512788  -0.018353   0.000002   0.000003   0.000018
    21  H   -0.018245  -0.018353   0.509587   0.000561   0.000005   0.000000
    22  H    0.000008   0.000002   0.000561   0.439010   0.000148   0.000000
    23  H    0.000002   0.000003   0.000005   0.000148   0.409699   0.000000
    24  H   -0.000037   0.000018   0.000000   0.000000   0.000000   0.509127
    25  H    0.000000   0.000000  -0.000000  -0.000000   0.000000  -0.017896
    26  H    0.000018  -0.000039   0.000000   0.000000   0.000000  -0.026539
    27  H    0.000000   0.000000  -0.000000  -0.000000   0.000000   0.000007
    28  H    0.000000   0.000000  -0.000000   0.000000  -0.000001   0.000005
    29  H   -0.000000  -0.000000   0.000000  -0.000002   0.000642   0.000000
              25         26         27         28         29
     1  C    0.000001  -0.000016   0.000000  -0.000000   0.000001
     2  C    0.000003   0.000004   0.000001   0.000002   0.000161
     3  C   -0.000000   0.000002  -0.000000   0.000000  -0.000138
     4  C    0.000000   0.000001   0.000001  -0.000023   0.002032
     5  C    0.000005  -0.000068   0.000100   0.000266   0.026089
     6  N    0.000024  -0.000034   0.000003   0.000040  -0.000288
     7  B    0.003286  -0.002749   0.000258   0.000350   0.000338
     8  F    0.000238  -0.001196   0.000010   0.000004   0.000000
     9  F    0.000211   0.004835   0.000011   0.000004   0.000000
    10  N    0.006080  -0.006272   0.003810   0.003400  -0.000147
    11  C   -0.026333  -0.043686  -0.016991  -0.001117  -0.001019
    12  C    0.421059   0.418755  -0.002007  -0.000191  -0.000013
    13  C   -0.018234   0.004674   0.403667   0.001793   0.003480
    14  C    0.002090  -0.001031  -0.007532   0.392302  -0.014362
    15  C   -0.000870   0.000173   0.000583  -0.019203  -0.001071
    16  C    0.000027   0.000014   0.000012   0.011861  -0.138154
    17  C    0.000001   0.000002   0.000022  -0.009145   0.507043
    18  O    0.000000  -0.000000  -0.000000   0.000111  -0.040280
    19  H    0.000000   0.000018   0.000000   0.000000  -0.000000
    20  H    0.000000  -0.000039   0.000000   0.000000  -0.000000
    21  H   -0.000000   0.000000  -0.000000  -0.000000   0.000000
    22  H   -0.000000   0.000000  -0.000000   0.000000  -0.000002
    23  H    0.000000   0.000000   0.000000  -0.000001   0.000642
    24  H   -0.017896  -0.026539   0.000007   0.000005   0.000000
    25  H    0.507463  -0.018078   0.000598  -0.000002   0.000000
    26  H   -0.018078   0.509584  -0.000001   0.000005   0.000000
    27  H    0.000598  -0.000001   0.435369   0.000460   0.000047
    28  H   -0.000002   0.000005   0.000460   0.432828  -0.003885
    29  H    0.000000   0.000000   0.000047  -0.003885   0.558794
 Mulliken charges:
               1
     1  C   -0.407708
     2  C    0.081256
     3  C   -0.166993
     4  C   -0.166735
     5  C    0.082907
     6  N   -0.096376
     7  B    0.391694
     8  F   -0.350940
     9  F   -0.350345
    10  N   -0.094573
    11  C    0.088228
    12  C   -0.405299
    13  C   -0.170981
    14  C   -0.139200
    15  C    0.103047
    16  C   -0.016745
    17  C    0.176741
    18  O   -0.335377
    19  H    0.160430
    20  H    0.159974
    21  H    0.139043
    22  H    0.178431
    23  H    0.202924
    24  H    0.162191
    25  H    0.140326
    26  H    0.161641
    27  H    0.181572
    28  H    0.190137
    29  H    0.100729
 Sum of Mulliken charges =  -0.00000
 Mulliken charges with hydrogens summed into heavy atoms:
               1
     1  C    0.051740
     2  C    0.081256
     3  C    0.011438
     4  C    0.036189
     5  C    0.082907
     6  N   -0.096376
     7  B    0.391694
     8  F   -0.350940
     9  F   -0.350345
    10  N   -0.094573
    11  C    0.088228
    12  C    0.058859
    13  C    0.010591
    14  C    0.050937
    15  C    0.103047
    16  C   -0.016745
    17  C    0.277470
    18  O   -0.335377
 Electronic spatial extent (au):  <R**2>=           3979.3007
 Charge=             -0.0000 electrons
 Dipole moment (field-independent basis, Debye):
    X=              2.3933    Y=              1.5486    Z=             -0.0537  Tot=              2.8511
 Quadrupole moment (field-independent basis, Debye-Ang):
   XX=            -81.0208   YY=           -103.9698   ZZ=           -109.4619
   XY=             15.6182   XZ=             -0.0128   YZ=              0.0667
 Traceless Quadrupole moment (field-independent basis, Debye-Ang):
   XX=             17.1300   YY=             -5.8190   ZZ=            -11.3111
   XY=             15.6182   XZ=             -0.0128   YZ=              0.0667
 Octapole moment (field-independent basis, Debye-Ang**2):
  XXX=             33.3843  YYY=            -29.8297  ZZZ=             -0.0159  XYY=             29.7513
  XXY=            -37.9531  XXZ=             -0.2180  XZZ=             -0.3872  YZZ=             -1.4196
  YYZ=             -0.0644  XYZ=              0.0001
 Hexadecapole moment (field-independent basis, Debye-Ang**3):
 XXXX=          -2415.4864 YYYY=          -2251.5170 ZZZZ=           -210.6476 XXXY=             34.2316
 XXXZ=              0.0190 YYYX=            193.0125 YYYZ=             -0.2919 ZZZX=             -0.1576
 ZZZY=              0.4098 XXYY=           -807.1880 XXZZ=           -549.6686 YYZZ=           -412.4352
 XXYZ=             -0.0424 YYXZ=              0.1877 ZZXY=            -17.0211
 N-N= 1.324557888604D+03 E-N=-4.692862619209D+03  KE= 8.689102367992D+02
 No NMR shielding tensors so no spin-rotation constants.
 Leave Link  601 at Wed Nov  5 21:38:06 2025, MaxMem= 30870077440 cpu:              71.0 elap:               1.3
 (Enter /public/software/gauss/g16/l9999.exe)
 1\1\GINC-CU015\SP\RM062X\def2TZVPP\C12H11B1F2N2O1\BAIDING\05-Nov-2025\
 0\\#p M062X/DEF2TZVPP scrf=(solvent=water) em=GD3\\Energy calculation 
 for M100023564\\0,1\C,0,2.312854,-2.842005,0.006538\C,0,2.245967,-1.35
 4311,0.005118\C,0,3.323614,-0.436285,0.006422\C,0,2.788025,0.840198,0.
 003669\C,0,1.373451,0.699689,0.0011\N,0,1.07851,-0.667814,0.002273\B,0
 ,-0.347524,-1.287545,-0.006906\F,0,-0.537079,-2.083585,1.127873\F,0,-0
 .5313,-2.061678,-1.158019\N,0,-1.353086,-0.098456,0.001688\C,0,-2.7041
 24,-0.190788,0.004541\C,0,-3.426896,-1.491607,0.005927\C,0,-3.258201,1
 .113051,0.006395\C,0,-2.209198,2.014261,0.003977\C,0,-1.004423,1.25200
 2,0.000936\C,0,0.340824,1.648734,-0.00045\C,0,0.620222,3.110657,-0.003
 455\O,0,1.736935,3.60667,-0.003376\H,0,1.810346,-3.252908,0.888422\H,0
 ,1.805676,-3.254562,-0.871928\H,0,3.352313,-3.173349,0.004104\H,0,4.36
 8639,-0.713171,0.009228\H,0,3.316779,1.77968,0.003923\H,0,-3.161899,-2
 .080194,0.890524\H,0,-4.505069,-1.325898,-0.001651\H,0,-3.150348,-2.08
 8557,-0.869424\H,0,-4.316468,1.333192,0.009182\H,0,-2.28326,3.091768,0
 .004838\H,0,-0.269812,3.758037,-0.006404\\Version=ES64L-G16RevA.03\Sta
 te=1-A\HF=-873.362287\RMSD=3.553e-09\Dipole=-0.9415881,0.6092795,0.021
 1429\Quadrupole=12.7357404,-4.3262517,-8.4094887,-11.6117337,-0.009529
 ,-0.0496047\PG=C01 [X(C12H11B1F2N2O1)]\\@


 VIRTUE IS LEARNED AT YOUR MOTHER'S KNEE,
 VICES ARE PICKED UP AT SOME OTHER JOINT.
 Job cpu time:       0 days  2 hours 57 minutes 36.9 seconds.
 Elapsed time:       0 days  0 hours  2 minutes 49.5 seconds.
 File lengths (MBytes):  RWF=    352 Int=      0 D2E=      0 Chk=     31 Scr=      1
 Normal termination of Gaussian 16 at Wed Nov  5 21:38:07 2025.
