 Entering Gaussian System, Link 0=g16
 Input=M100033388_sp.gjf
 Output=M100033388_sp.log
 Initial command:
 /public/software/gauss/g16/l1.exe "/public/home/baiding/1101_v2_sp/tmp_M100033388_sp_1568608/Gau-4147561.inp" -scrdir="/public/home/baiding/1101_v2_sp/tmp_M100033388_sp_1568608/"
 Entering Link 1 = /public/software/gauss/g16/l1.exe PID=   4147562.
  
 Copyright (c) 1988,1990,1992,1993,1995,1998,2003,2009,2016,
            Gaussian, Inc.  All Rights Reserved.
  
 This is part of the Gaussian(R) 16 program.  It is based on
 the Gaussian(R) 09 system (copyright 2009, Gaussian, Inc.),
 the Gaussian(R) 03 system (copyright 2003, Gaussian, Inc.),
 the Gaussian(R) 98 system (copyright 1998, Gaussian, Inc.),
 the Gaussian(R) 94 system (copyright 1995, Gaussian, Inc.),
 the Gaussian 92(TM) system (copyright 1992, Gaussian, Inc.),
 the Gaussian 90(TM) system (copyright 1990, Gaussian, Inc.),
 the Gaussian 88(TM) system (copyright 1988, Gaussian, Inc.),
 the Gaussian 86(TM) system (copyright 1986, Carnegie Mellon
 University), and the Gaussian 82(TM) system (copyright 1983,
 Carnegie Mellon University). Gaussian is a federally registered
 trademark of Gaussian, Inc.
  
 This software contains proprietary and confidential information,
 including trade secrets, belonging to Gaussian, Inc.
  
 This software is provided under written license and may be
 used, copied, transmitted, or stored only in accord with that
 written license.
  
 The following legend is applicable only to US Government
 contracts under FAR:
  
                    RESTRICTED RIGHTS LEGEND
  
 Use, reproduction and disclosure by the US Government is
 subject to restrictions as set forth in subparagraphs (a)
 and (c) of the Commercial Computer Software - Restricted
 Rights clause in FAR 52.227-19.
  
 Gaussian, Inc.
 340 Quinnipiac St., Bldg. 40, Wallingford CT 06492
  
  
 ---------------------------------------------------------------
 Warning -- This program may not be used in any manner that
 competes with the business of Gaussian, Inc. or will provide
 assistance to any competitor of Gaussian, Inc.  The licensee
 of this program is prohibited from giving any competitor of
 Gaussian, Inc. access to this program.  By using this program,
 the user acknowledges that Gaussian, Inc. is engaged in the
 business of creating and licensing software in the field of
 computational chemistry and represents and warrants to the
 licensee that it is not a competitor of Gaussian, Inc. and that
 it will not use this program in any manner prohibited above.
 ---------------------------------------------------------------
  

 Cite this work as:
 Gaussian 16, Revision A.03,
 M. J. Frisch, G. W. Trucks, H. B. Schlegel, G. E. Scuseria, 
 M. A. Robb, J. R. Cheeseman, G. Scalmani, V. Barone, 
 G. A. Petersson, H. Nakatsuji, X. Li, M. Caricato, A. V. Marenich, 
 J. Bloino, B. G. Janesko, R. Gomperts, B. Mennucci, H. P. Hratchian, 
 J. V. Ortiz, A. F. Izmaylov, J. L. Sonnenberg, D. Williams-Young, 
 F. Ding, F. Lipparini, F. Egidi, J. Goings, B. Peng, A. Petrone, 
 T. Henderson, D. Ranasinghe, V. G. Zakrzewski, J. Gao, N. Rega, 
 G. Zheng, W. Liang, M. Hada, M. Ehara, K. Toyota, R. Fukuda, 
 J. Hasegawa, M. Ishida, T. Nakajima, Y. Honda, O. Kitao, H. Nakai, 
 T. Vreven, K. Throssell, J. A. Montgomery, Jr., J. E. Peralta, 
 F. Ogliaro, M. J. Bearpark, J. J. Heyd, E. N. Brothers, K. N. Kudin, 
 V. N. Staroverov, T. A. Keith, R. Kobayashi, J. Normand, 
 K. Raghavachari, A. P. Rendell, J. C. Burant, S. S. Iyengar, 
 J. Tomasi, M. Cossi, J. M. Millam, M. Klene, C. Adamo, R. Cammi, 
 J. W. Ochterski, R. L. Martin, K. Morokuma, O. Farkas, 
 J. B. Foresman, and D. J. Fox, Gaussian, Inc., Wallingford CT, 2016.
 
 ******************************************
 Gaussian 16:  ES64L-G16RevA.03 25-Dec-2016
                 6-Nov-2025 
 ******************************************
 %nprocshared=64
 Will use up to   64 processors via shared memory.
 %mem=230GB
 %chk=M100033388_sp.chk
 ----------------------------------------------
 #p M062X/DEF2TZVPP scrf=(solvent=water) em=GD3
 ----------------------------------------------
 1/38=1,172=1/1;
 2/12=2,17=6,18=5,40=1/2;
 3/5=44,7=202,11=2,25=1,30=1,70=2201,72=1,74=-55,124=31/1,2,3;
 4//1;
 5/5=2,38=5,53=1/2;
 6/7=2,8=2,9=2,10=2,28=1/1;
 99/5=1,9=1/99;
 Leave Link    1 at Thu Nov  6 11:48:48 2025, MaxMem= 30870077440 cpu:              11.7 elap:               0.2
 (Enter /public/software/gauss/g16/l101.exe)
 ---------------------------------
 Energy calculation for M100033388
 ---------------------------------
 Symbolic Z-matrix:
 Charge =  0 Multiplicity = 1
 C                     0.28624   2.576     1.71766 
 C                    -1.06258   2.37203   1.10263 
 C                    -1.98448   3.37452   0.81977 
 I                    -1.76169   5.40347   1.27595 
 C                    -3.14195   2.8032    0.21849 
 C                    -4.31803   3.5483   -0.17049 
 C                    -5.58649   3.08572  -0.2751 
 C                    -6.75553   3.87594  -0.64756 
 C                    -6.69549   5.22722  -1.08496 
 C                    -7.83164   5.93193  -1.42431 
 C                    -9.10441   5.33453  -1.35064 
 O                    -10.16982   6.06912  -1.69563 
 C                    -9.17085   3.98622  -0.91685 
 C                    -8.01166   3.27631  -0.57652 
 N                    -10.43409   3.31191  -0.81445 
 O                    -10.47256   2.14053  -0.434 
 O                    -11.47845   3.93877  -1.11735 
 N                    -2.92723   1.46166   0.09953 
 C                    -1.67251   1.15594   0.64514 
 C                    -1.16353  -0.15913   0.62128 
 C                    -1.83971  -1.17579  -0.08562 
 C                    -1.58908  -2.5787   -0.21649 
 C                    -0.52034  -3.41142   0.41927 
 C                    -2.58998  -3.05551  -1.07134 
 I                    -2.73181  -5.00175  -1.81525 
 C                    -3.4417   -1.98314  -1.43148 
 C                    -4.5736   -1.95832  -2.3665 
 C                    -5.71574  -2.66606  -2.28279 
 C                    -6.18298  -3.50325  -1.16789 
 C                    -6.97612  -4.64649  -1.43768 
 C                    -7.44139  -5.46699  -0.42774 
 C                    -7.15695  -5.17905   0.91798 
 O                    -7.63163  -6.01154   1.85716 
 C                    -6.394    -4.01506   1.19302 
 C                    -5.92261  -3.18827   0.16218 
 N                    -6.0983   -3.63745   2.54689 
 O                    -6.50686  -4.36924   3.48082 
 O                    -5.45182  -2.61185   2.76809 
 N                    -2.97217  -0.85875  -0.83674 
 B                    -3.81142   0.43218  -0.66006 
 F                    -4.95495   0.10574   0.10327 
 F                    -4.19677   0.93205  -1.90135 
 C                     0.10253  -0.47508   1.33291 
 C                     0.14613  -0.49239   2.73733 
 C                     1.32375  -0.80081   3.40555 
 C                     2.49735  -1.07769   2.68419 
 O                     3.60236  -1.34152   3.44356 
 C                     4.85624  -1.67383   2.80824 
 C                     4.91948  -3.15024   2.41564 
 C                     6.31219  -3.61263   1.93513 
 C                     6.5699   -3.52618   0.41917 
 C                     6.54955  -2.12994  -0.22164 
 C                     7.64233  -1.20815   0.32903 
 N                     7.63121   0.11254  -0.31042 
 N                     6.86868   1.09711   0.20103 
 N                     6.97487   2.14149  -0.59067 
 C                     7.81196   1.82377  -1.61319 
 C                     8.2443    0.52153  -1.45646 
 C                     9.144    -0.33591  -2.29023 
 O                     10.31676  -0.7844   -1.5931 
 C                     11.34685   0.10473  -1.3452 
 C                     12.37755  -0.38373  -0.53696 
 C                     13.49034   0.4034   -0.23979 
 C                     13.57243   1.70349  -0.75156 
 O                     14.61326   2.5854   -0.51814 
 C                     15.68996   2.1697    0.33101 
 C                     16.60426   1.22468  -0.31842 
 C                     17.36734   0.45659  -0.85611 
 C                     12.54186   2.1927   -1.55941 
 C                     11.43091   1.40421  -1.85867 
 C                     2.46901  -1.05484   1.28238 
 C                     1.27439  -0.76475   0.62244 
 H                     1.05136   1.97236   1.22605 
 H                     0.57293   3.62718   1.64125 
 H                     0.29162   2.30641   2.77895 
 H                    -4.12447   4.60637  -0.32043 
 H                    -5.79621   2.04814  -0.04058 
 H                    -5.73596   5.72673  -1.16687 
 H                    -7.77434   6.96144  -1.76038 
 H                    -10.96277   5.4907   -1.58516 
 H                    -8.1103    2.24742  -0.25273 
 H                     0.41811  -3.36937  -0.14446 
 H                    -0.30445  -3.08281   1.4373 
 H                    -0.83708  -4.45683   0.45215 
 H                    -4.44774  -1.2974   -3.22073 
 H                    -6.39621  -2.60645  -3.13036 
 H                    -7.21664  -4.88853  -2.46874 
 H                    -8.03726  -6.34662  -0.64528 
 H                    -7.34939  -5.6487    2.73008 
 H                    -5.3924   -2.28309   0.42793 
 H                    -0.75193  -0.27255   3.30649 
 H                     1.35824  -0.82651   4.49005 
 H                     5.03796  -0.99288   1.97222 
 H                     5.60526  -1.46321   3.57661 
 H                     4.63848  -3.72326   3.30687 
 H                     4.16602  -3.37215   1.65049 
 H                     7.08986  -3.06863   2.48737 
 H                     6.43452  -4.66445   2.21764 
 H                     7.54293  -3.99051   0.21078 
 H                     5.82211  -4.14276  -0.09522 
 H                     6.6933   -2.23736  -1.30329 
 H                     5.57274  -1.65314  -0.08199 
 H                     7.51537  -1.02854   1.39756 
 H                     8.63318  -1.6389    0.17299 
 H                     8.05852   2.527    -2.39488 
 H                     8.63445  -1.25932  -2.57614 
 H                     9.40711   0.20015  -3.20657 
 H                     12.30519  -1.39369  -0.14585 
 H                     14.27407  -0.01428   0.38041 
 H                     16.22549   3.09131   0.57582 
 H                     15.30507   1.7507    1.26864 
 H                     18.04145  -0.22411  -1.33076 
 H                     12.61483   3.20246  -1.95083 
 H                     10.65267   1.8181   -2.48718 
 H                     3.35714  -1.2653    0.69926 
 H                     1.2599   -0.75482  -0.46317 
 
 ITRead=  0  0  0  0  0  0  0  0  0  0  0  0  0  0  0  0  0  0  0  0
 ITRead=  0  0  0  0  0  0  0  0  0  0  0  0  0  0  0  0  0  0  0  0
 ITRead=  0  0  0  0  0  0  0  0  0  0  0  0  0  0  0  0  0  0  0  0
 ITRead=  0  0  0  0  0  0  0  0  0  0  0  0  0  0  0  0  0  0  0  0
 ITRead=  0  0  0  0  0  0  0  0  0  0  0  0  0  0  0  0  0  0  0  0
 ITRead=  0  0  0  0  0  0  0  0  0  0  0  0  0  0  0  0
 MicOpt= -1 -1 -1 -1 -1 -1 -1 -1 -1 -1 -1 -1 -1 -1 -1 -1 -1 -1 -1 -1
 MicOpt= -1 -1 -1 -1 -1 -1 -1 -1 -1 -1 -1 -1 -1 -1 -1 -1 -1 -1 -1 -1
 MicOpt= -1 -1 -1 -1 -1 -1 -1 -1 -1 -1 -1 -1 -1 -1 -1 -1 -1 -1 -1 -1
 MicOpt= -1 -1 -1 -1 -1 -1 -1 -1 -1 -1 -1 -1 -1 -1 -1 -1 -1 -1 -1 -1
 MicOpt= -1 -1 -1 -1 -1 -1 -1 -1 -1 -1 -1 -1 -1 -1 -1 -1 -1 -1 -1 -1
 MicOpt= -1 -1 -1 -1 -1 -1 -1 -1 -1 -1 -1 -1 -1 -1 -1 -1
 NAtoms=    116 NQM=      116 NQMF=       0 NMMI=      0 NMMIF=      0
                NMic=       0 NMicF=      0.
                    Isotopes and Nuclear Properties:
 (Nuclear quadrupole moments (NQMom) in fm**2, nuclear magnetic moments (NMagM)
  in nuclear magnetons)

  Atom         1           2           3           4           5           6           7           8           9          10
 IAtWgt=          12          12          12         127          12          12          12          12          12          12
 AtmWgt=  12.0000000  12.0000000  12.0000000 126.9004000  12.0000000  12.0000000  12.0000000  12.0000000  12.0000000  12.0000000
 NucSpn=           0           0           0           5           0           0           0           0           0           0
 AtZEff=  -0.0000000  -0.0000000  -0.0000000  -0.0000000  -0.0000000  -0.0000000  -0.0000000  -0.0000000  -0.0000000  -0.0000000
 NQMom=    0.0000000   0.0000000   0.0000000 -71.0000000   0.0000000   0.0000000   0.0000000   0.0000000   0.0000000   0.0000000
 NMagM=    0.0000000   0.0000000   0.0000000   2.8132800   0.0000000   0.0000000   0.0000000   0.0000000   0.0000000   0.0000000
 AtZNuc=   6.0000000   6.0000000   6.0000000  53.0000000   6.0000000   6.0000000   6.0000000   6.0000000   6.0000000   6.0000000

  Atom        11          12          13          14          15          16          17          18          19          20
 IAtWgt=          12          16          12          12          14          16          16          14          12          12
 AtmWgt=  12.0000000  15.9949146  12.0000000  12.0000000  14.0030740  15.9949146  15.9949146  14.0030740  12.0000000  12.0000000
 NucSpn=           0           0           0           0           2           0           0           2           0           0
 AtZEff=  -0.0000000  -0.0000000  -0.0000000  -0.0000000  -0.0000000  -0.0000000  -0.0000000  -0.0000000  -0.0000000  -0.0000000
 NQMom=    0.0000000   0.0000000   0.0000000   0.0000000   2.0440000   0.0000000   0.0000000   2.0440000   0.0000000   0.0000000
 NMagM=    0.0000000   0.0000000   0.0000000   0.0000000   0.4037610   0.0000000   0.0000000   0.4037610   0.0000000   0.0000000
 AtZNuc=   6.0000000   8.0000000   6.0000000   6.0000000   7.0000000   8.0000000   8.0000000   7.0000000   6.0000000   6.0000000

  Atom        21          22          23          24          25          26          27          28          29          30
 IAtWgt=          12          12          12          12         127          12          12          12          12          12
 AtmWgt=  12.0000000  12.0000000  12.0000000  12.0000000 126.9004000  12.0000000  12.0000000  12.0000000  12.0000000  12.0000000
 NucSpn=           0           0           0           0           5           0           0           0           0           0
 AtZEff=  -0.0000000  -0.0000000  -0.0000000  -0.0000000  -0.0000000  -0.0000000  -0.0000000  -0.0000000  -0.0000000  -0.0000000
 NQMom=    0.0000000   0.0000000   0.0000000   0.0000000 -71.0000000   0.0000000   0.0000000   0.0000000   0.0000000   0.0000000
 NMagM=    0.0000000   0.0000000   0.0000000   0.0000000   2.8132800   0.0000000   0.0000000   0.0000000   0.0000000   0.0000000
 AtZNuc=   6.0000000   6.0000000   6.0000000   6.0000000  53.0000000   6.0000000   6.0000000   6.0000000   6.0000000   6.0000000

  Atom        31          32          33          34          35          36          37          38          39          40
 IAtWgt=          12          12          16          12          12          14          16          16          14          11
 AtmWgt=  12.0000000  12.0000000  15.9949146  12.0000000  12.0000000  14.0030740  15.9949146  15.9949146  14.0030740  11.0093053
 NucSpn=           0           0           0           0           0           2           0           0           2           3
 AtZEff=  -0.0000000  -0.0000000  -0.0000000  -0.0000000  -0.0000000  -0.0000000  -0.0000000  -0.0000000  -0.0000000  -0.0000000
 NQMom=    0.0000000   0.0000000   0.0000000   0.0000000   0.0000000   2.0440000   0.0000000   0.0000000   2.0440000   4.0590000
 NMagM=    0.0000000   0.0000000   0.0000000   0.0000000   0.0000000   0.4037610   0.0000000   0.0000000   0.4037610   2.6886370
 AtZNuc=   6.0000000   6.0000000   8.0000000   6.0000000   6.0000000   7.0000000   8.0000000   8.0000000   7.0000000   5.0000000

  Atom        41          42          43          44          45          46          47          48          49          50
 IAtWgt=          19          19          12          12          12          12          16          12          12          12
 AtmWgt=  18.9984033  18.9984033  12.0000000  12.0000000  12.0000000  12.0000000  15.9949146  12.0000000  12.0000000  12.0000000
 NucSpn=           1           1           0           0           0           0           0           0           0           0
 AtZEff=  -0.0000000  -0.0000000  -0.0000000  -0.0000000  -0.0000000  -0.0000000  -0.0000000  -0.0000000  -0.0000000  -0.0000000
 NQMom=    0.0000000   0.0000000   0.0000000   0.0000000   0.0000000   0.0000000   0.0000000   0.0000000   0.0000000   0.0000000
 NMagM=    2.6288670   2.6288670   0.0000000   0.0000000   0.0000000   0.0000000   0.0000000   0.0000000   0.0000000   0.0000000
 AtZNuc=   9.0000000   9.0000000   6.0000000   6.0000000   6.0000000   6.0000000   8.0000000   6.0000000   6.0000000   6.0000000

  Atom        51          52          53          54          55          56          57          58          59          60
 IAtWgt=          12          12          12          14          14          14          12          12          12          16
 AtmWgt=  12.0000000  12.0000000  12.0000000  14.0030740  14.0030740  14.0030740  12.0000000  12.0000000  12.0000000  15.9949146
 NucSpn=           0           0           0           2           2           2           0           0           0           0
 AtZEff=  -0.0000000  -0.0000000  -0.0000000  -0.0000000  -0.0000000  -0.0000000  -0.0000000  -0.0000000  -0.0000000  -0.0000000
 NQMom=    0.0000000   0.0000000   0.0000000   2.0440000   2.0440000   2.0440000   0.0000000   0.0000000   0.0000000   0.0000000
 NMagM=    0.0000000   0.0000000   0.0000000   0.4037610   0.4037610   0.4037610   0.0000000   0.0000000   0.0000000   0.0000000
 AtZNuc=   6.0000000   6.0000000   6.0000000   7.0000000   7.0000000   7.0000000   6.0000000   6.0000000   6.0000000   8.0000000

  Atom        61          62          63          64          65          66          67          68          69          70
 IAtWgt=          12          12          12          12          16          12          12          12          12          12
 AtmWgt=  12.0000000  12.0000000  12.0000000  12.0000000  15.9949146  12.0000000  12.0000000  12.0000000  12.0000000  12.0000000
 NucSpn=           0           0           0           0           0           0           0           0           0           0
 AtZEff=  -0.0000000  -0.0000000  -0.0000000  -0.0000000  -0.0000000  -0.0000000  -0.0000000  -0.0000000  -0.0000000  -0.0000000
 NQMom=    0.0000000   0.0000000   0.0000000   0.0000000   0.0000000   0.0000000   0.0000000   0.0000000   0.0000000   0.0000000
 NMagM=    0.0000000   0.0000000   0.0000000   0.0000000   0.0000000   0.0000000   0.0000000   0.0000000   0.0000000   0.0000000
 AtZNuc=   6.0000000   6.0000000   6.0000000   6.0000000   8.0000000   6.0000000   6.0000000   6.0000000   6.0000000   6.0000000

  Atom        71          72          73          74          75          76          77          78          79          80
 IAtWgt=          12          12           1           1           1           1           1           1           1           1
 AtmWgt=  12.0000000  12.0000000   1.0078250   1.0078250   1.0078250   1.0078250   1.0078250   1.0078250   1.0078250   1.0078250
 NucSpn=           0           0           1           1           1           1           1           1           1           1
 AtZEff=  -0.0000000  -0.0000000  -0.0000000  -0.0000000  -0.0000000  -0.0000000  -0.0000000  -0.0000000  -0.0000000  -0.0000000
 NQMom=    0.0000000   0.0000000   0.0000000   0.0000000   0.0000000   0.0000000   0.0000000   0.0000000   0.0000000   0.0000000
 NMagM=    0.0000000   0.0000000   2.7928460   2.7928460   2.7928460   2.7928460   2.7928460   2.7928460   2.7928460   2.7928460
 AtZNuc=   6.0000000   6.0000000   1.0000000   1.0000000   1.0000000   1.0000000   1.0000000   1.0000000   1.0000000   1.0000000

  Atom        81          82          83          84          85          86          87          88          89          90
 IAtWgt=           1           1           1           1           1           1           1           1           1           1
 AtmWgt=   1.0078250   1.0078250   1.0078250   1.0078250   1.0078250   1.0078250   1.0078250   1.0078250   1.0078250   1.0078250
 NucSpn=           1           1           1           1           1           1           1           1           1           1
 AtZEff=  -0.0000000  -0.0000000  -0.0000000  -0.0000000  -0.0000000  -0.0000000  -0.0000000  -0.0000000  -0.0000000  -0.0000000
 NQMom=    0.0000000   0.0000000   0.0000000   0.0000000   0.0000000   0.0000000   0.0000000   0.0000000   0.0000000   0.0000000
 NMagM=    2.7928460   2.7928460   2.7928460   2.7928460   2.7928460   2.7928460   2.7928460   2.7928460   2.7928460   2.7928460
 AtZNuc=   1.0000000   1.0000000   1.0000000   1.0000000   1.0000000   1.0000000   1.0000000   1.0000000   1.0000000   1.0000000

  Atom        91          92          93          94          95          96          97          98          99         100
 IAtWgt=           1           1           1           1           1           1           1           1           1           1
 AtmWgt=   1.0078250   1.0078250   1.0078250   1.0078250   1.0078250   1.0078250   1.0078250   1.0078250   1.0078250   1.0078250
 NucSpn=           1           1           1           1           1           1           1           1           1           1
 AtZEff=  -0.0000000  -0.0000000  -0.0000000  -0.0000000  -0.0000000  -0.0000000  -0.0000000  -0.0000000  -0.0000000  -0.0000000
 NQMom=    0.0000000   0.0000000   0.0000000   0.0000000   0.0000000   0.0000000   0.0000000   0.0000000   0.0000000   0.0000000
 NMagM=    2.7928460   2.7928460   2.7928460   2.7928460   2.7928460   2.7928460   2.7928460   2.7928460   2.7928460   2.7928460
 AtZNuc=   1.0000000   1.0000000   1.0000000   1.0000000   1.0000000   1.0000000   1.0000000   1.0000000   1.0000000   1.0000000

  Atom       101         102         103         104         105         106         107         108         109         110
 IAtWgt=           1           1           1           1           1           1           1           1           1           1
 AtmWgt=   1.0078250   1.0078250   1.0078250   1.0078250   1.0078250   1.0078250   1.0078250   1.0078250   1.0078250   1.0078250
 NucSpn=           1           1           1           1           1           1           1           1           1           1
 AtZEff=  -0.0000000  -0.0000000  -0.0000000  -0.0000000  -0.0000000  -0.0000000  -0.0000000  -0.0000000  -0.0000000  -0.0000000
 NQMom=    0.0000000   0.0000000   0.0000000   0.0000000   0.0000000   0.0000000   0.0000000   0.0000000   0.0000000   0.0000000
 NMagM=    2.7928460   2.7928460   2.7928460   2.7928460   2.7928460   2.7928460   2.7928460   2.7928460   2.7928460   2.7928460
 AtZNuc=   1.0000000   1.0000000   1.0000000   1.0000000   1.0000000   1.0000000   1.0000000   1.0000000   1.0000000   1.0000000

  Atom       111         112         113         114         115         116
 IAtWgt=           1           1           1           1           1           1
 AtmWgt=   1.0078250   1.0078250   1.0078250   1.0078250   1.0078250   1.0078250
 NucSpn=           1           1           1           1           1           1
 AtZEff=  -0.0000000  -0.0000000  -0.0000000  -0.0000000  -0.0000000  -0.0000000
 NQMom=    0.0000000   0.0000000   0.0000000   0.0000000   0.0000000   0.0000000
 NMagM=    2.7928460   2.7928460   2.7928460   2.7928460   2.7928460   2.7928460
 AtZNuc=   1.0000000   1.0000000   1.0000000   1.0000000   1.0000000   1.0000000
 Leave Link  101 at Thu Nov  6 11:48:49 2025, MaxMem= 30870077440 cpu:               4.6 elap:               0.1
 (Enter /public/software/gauss/g16/l202.exe)
 Stoichiometry    C51H44BF2I2N7O9
 Framework group  C1[X(C51H44BF2I2N7O9)]
 Deg. of freedom   342
 Full point group                 C1      NOp   1
 Largest Abelian subgroup         C1      NOp   1
 Largest concise Abelian subgroup C1      NOp   1
                         Standard orientation:                         
 ---------------------------------------------------------------------
 Center     Atomic      Atomic             Coordinates (Angstroms)
 Number     Number       Type             X           Y           Z
 ---------------------------------------------------------------------
      1          6           0        0.286235    2.576001    1.717655
      2          6           0       -1.062584    2.372025    1.102629
      3          6           0       -1.984484    3.374517    0.819772
      4         53           0       -1.761689    5.403467    1.275951
      5          6           0       -3.141953    2.803201    0.218489
      6          6           0       -4.318025    3.548300   -0.170491
      7          6           0       -5.586494    3.085722   -0.275103
      8          6           0       -6.755531    3.875943   -0.647563
      9          6           0       -6.695489    5.227217   -1.084965
     10          6           0       -7.831643    5.931930   -1.424310
     11          6           0       -9.104407    5.334529   -1.350641
     12          8           0      -10.169821    6.069116   -1.695626
     13          6           0       -9.170855    3.986215   -0.916851
     14          6           0       -8.011657    3.276308   -0.576524
     15          7           0      -10.434087    3.311913   -0.814449
     16          8           0      -10.472562    2.140528   -0.433995
     17          8           0      -11.478452    3.938771   -1.117345
     18          7           0       -2.927227    1.461655    0.099531
     19          6           0       -1.672505    1.155937    0.645144
     20          6           0       -1.163527   -0.159132    0.621275
     21          6           0       -1.839711   -1.175790   -0.085615
     22          6           0       -1.589077   -2.578704   -0.216488
     23          6           0       -0.520337   -3.411416    0.419265
     24          6           0       -2.589978   -3.055510   -1.071342
     25         53           0       -2.731814   -5.001748   -1.815250
     26          6           0       -3.441700   -1.983135   -1.431481
     27          6           0       -4.573600   -1.958315   -2.366502
     28          6           0       -5.715740   -2.666055   -2.282789
     29          6           0       -6.182983   -3.503252   -1.167892
     30          6           0       -6.976123   -4.646487   -1.437676
     31          6           0       -7.441392   -5.466989   -0.427744
     32          6           0       -7.156954   -5.179054    0.917981
     33          8           0       -7.631631   -6.011545    1.857155
     34          6           0       -6.394005   -4.015065    1.193024
     35          6           0       -5.922613   -3.188271    0.162183
     36          7           0       -6.098298   -3.637447    2.546888
     37          8           0       -6.506861   -4.369237    3.480821
     38          8           0       -5.451823   -2.611846    2.768085
     39          7           0       -2.972174   -0.858746   -0.836739
     40          5           0       -3.811420    0.432179   -0.660064
     41          9           0       -4.954949    0.105744    0.103267
     42          9           0       -4.196775    0.932053   -1.901345
     43          6           0        0.102532   -0.475077    1.332910
     44          6           0        0.146132   -0.492385    2.737331
     45          6           0        1.323750   -0.800813    3.405549
     46          6           0        2.497351   -1.077686    2.684191
     47          8           0        3.602362   -1.341520    3.443563
     48          6           0        4.856237   -1.673827    2.808243
     49          6           0        4.919483   -3.150241    2.415644
     50          6           0        6.312187   -3.612633    1.935133
     51          6           0        6.569904   -3.526184    0.419173
     52          6           0        6.549555   -2.129942   -0.221643
     53          6           0        7.642325   -1.208147    0.329033
     54          7           0        7.631206    0.112542   -0.310417
     55          7           0        6.868677    1.097106    0.201030
     56          7           0        6.974866    2.141493   -0.590674
     57          6           0        7.811960    1.823767   -1.613185
     58          6           0        8.244300    0.521529   -1.456463
     59          6           0        9.144002   -0.335910   -2.290229
     60          8           0       10.316762   -0.784400   -1.593100
     61          6           0       11.346846    0.104731   -1.345204
     62          6           0       12.377548   -0.383727   -0.536962
     63          6           0       13.490342    0.403401   -0.239786
     64          6           0       13.572433    1.703485   -0.751555
     65          8           0       14.613255    2.585395   -0.518140
     66          6           0       15.689958    2.169702    0.331014
     67          6           0       16.604261    1.224680   -0.318422
     68          6           0       17.367337    0.456586   -0.856112
     69          6           0       12.541864    2.192702   -1.559410
     70          6           0       11.430914    1.404209   -1.858667
     71          6           0        2.469006   -1.054843    1.282376
     72          6           0        1.274393   -0.764745    0.622441
     73          1           0        1.051356    1.972359    1.226051
     74          1           0        0.572930    3.627181    1.641252
     75          1           0        0.291618    2.306412    2.778949
     76          1           0       -4.124470    4.606370   -0.320428
     77          1           0       -5.796212    2.048139   -0.040584
     78          1           0       -5.735960    5.726727   -1.166866
     79          1           0       -7.774342    6.961440   -1.760383
     80          1           0      -10.962771    5.490703   -1.585157
     81          1           0       -8.110304    2.247416   -0.252729
     82          1           0        0.418112   -3.369370   -0.144460
     83          1           0       -0.304453   -3.082814    1.437304
     84          1           0       -0.837081   -4.456825    0.452145
     85          1           0       -4.447739   -1.297398   -3.220727
     86          1           0       -6.396206   -2.606452   -3.130360
     87          1           0       -7.216642   -4.888528   -2.468740
     88          1           0       -8.037260   -6.346622   -0.645279
     89          1           0       -7.349393   -5.648695    2.730081
     90          1           0       -5.392398   -2.283085    0.427931
     91          1           0       -0.751931   -0.272549    3.306487
     92          1           0        1.358240   -0.826512    4.490054
     93          1           0        5.037961   -0.992877    1.972224
     94          1           0        5.605259   -1.463205    3.576611
     95          1           0        4.638483   -3.723261    3.306872
     96          1           0        4.166024   -3.372147    1.650493
     97          1           0        7.089860   -3.068631    2.487374
     98          1           0        6.434515   -4.664449    2.217639
     99          1           0        7.542932   -3.990509    0.210776
    100          1           0        5.822110   -4.142765   -0.095221
    101          1           0        6.693302   -2.237362   -1.303292
    102          1           0        5.572738   -1.653142   -0.081989
    103          1           0        7.515367   -1.028536    1.397563
    104          1           0        8.633176   -1.638900    0.172985
    105          1           0        8.058516    2.526997   -2.394877
    106          1           0        8.634449   -1.259316   -2.576143
    107          1           0        9.407112    0.200153   -3.206574
    108          1           0       12.305191   -1.393690   -0.145849
    109          1           0       14.274070   -0.014282    0.380407
    110          1           0       16.225495    3.091307    0.575819
    111          1           0       15.305073    1.750699    1.268642
    112          1           0       18.041450   -0.224112   -1.330763
    113          1           0       12.614828    3.202462   -1.950834
    114          1           0       10.652667    1.818101   -2.487176
    115          1           0        3.357143   -1.265303    0.699259
    116          1           0        1.259900   -0.754822   -0.463171
 ---------------------------------------------------------------------
 Rotational constants (GHZ):           0.0285084           0.0082163           0.0068719
 Leave Link  202 at Thu Nov  6 11:48:49 2025, MaxMem= 30870077440 cpu:               0.2 elap:               0.0
 (Enter /public/software/gauss/g16/l301.exe)
 Standard basis: def2TZVPP (5D, 7F)
 Ernie: Thresh=  0.10000D-02 Tol=  0.10000D-05 Strict=F.
 There are  3298 symmetry adapted cartesian basis functions of A   symmetry.
 There are  2886 symmetry adapted basis functions of A   symmetry.
  2886 basis functions,  4536 primitive gaussians,  3298 cartesian basis functions
   272 alpha electrons      272 beta electrons
       nuclear repulsion energy     11331.0593731354 Hartrees.
 IExCor= 4336 DFT=T Ex+Corr=M062X ExCW=0 ScaHFX=  0.540000
 ScaDFX=  1.000000  1.000000  1.000000  1.000000 ScalE2=  1.000000  1.000000
 IRadAn=      5 IRanWt=     -1 IRanGd=            0 ICorTp=0 IEmpDi=131
 NAtoms=  116 NActive=  116 NUniq=  116 SFac= 1.00D+00 NAtFMM=   60 NAOKFM=T Big=T
 Integral buffers will be    131072 words long.
 Raffenetti 2 integral format.
 Two-electron integral symmetry is turned on.
 R6Disp:  Grimme-D3 Dispersion energy=       -0.0118072100 Hartrees.
 Nuclear repulsion after empirical dispersion term =    11331.0475659255 Hartrees.
 ------------------------------------------------------------------------------
 Polarizable Continuum Model (PCM)
 =================================
 Model                : PCM.
 Atomic radii         : UFF (Universal Force Field).
 Polarization charges : Total charges.
 Charge compensation  : None.
 Solution method      : On-the-fly selection.
 Cavity type          : Scaled VdW (van der Waals Surface) (Alpha=1.100).
 Cavity algorithm     : GePol (No added spheres)
                        Default sphere list used, NSphG=  116.
                        Lebedev-Laikov grids with approx.  5.0 points / Ang**2.
                        Smoothing algorithm: York/Karplus (Gamma=1.0000).
                        Polarization charges: spherical gaussians, with
                                              point-specific exponents (IZeta= 3).
                        Self-potential: point-specific (ISelfS= 7).
                        Self-field    : sphere-specific E.n sum rule (ISelfD= 2).
 Solvent              : Water, Eps=  78.355300 Eps(inf)=   1.777849
 ------------------------------------------------------------------------------
 GePol: Number of generator spheres                  =     116
 GePol: Total number of spheres                      =     116
 GePol: Number of exposed spheres                    =     116 (100.00%)
 GePol: Number of points                             =    8433
 GePol: Average weight of points                     =       0.13
 GePol: Minimum weight of points                     =   0.75D-11
 GePol: Maximum weight of points                     =    0.20577
 GePol: Number of points with low weight             =     563
 GePol: Fraction of low-weight points (<1% of avg)   =       6.68%
 GePol: Cavity surface area                          =   1098.372 Ang**2
 GePol: Cavity volume                                =   1302.846 Ang**3
 Leave Link  301 at Thu Nov  6 11:48:49 2025, MaxMem= 30870077440 cpu:               5.3 elap:               0.1
 (Enter /public/software/gauss/g16/l302.exe)
 NPDir=0 NMtPBC=     1 NCelOv=     1 NCel=       1 NClECP=     1 NCelD=      1
         NCelK=      1 NCelE2=     1 NClLst=     1 CellRange=     0.0.
 One-electron integrals computed using PRISM.
 One-electron integral symmetry used in STVInt
   1 Symmetry operations used in ECPInt.
 ECPInt:  NShTT=  568711 NPrTT= 1647947 LenC2=  268050 LenP2D=  504281.
 LDataN:  DoStor=T MaxTD1= 7 Len=  274
 Number of processors reduced to  34 by ecpmxn.
 NBasis=  2886 RedAO= T EigKep=  4.39D-06  NBF=  2886
 NBsUse=  2886 1.00D-06 EigRej= -1.00D+00 NBFU=  2886
 Precomputing XC quadrature grid using
 IXCGrd= 4 IRadAn=           5 IRanWt=          -1 IRanGd=           0 AccXCQ= 0.00D+00.
 Defaulting to unpruned grid for atomic number  53.
 Defaulting to unpruned grid for atomic number  53.
 Generated NRdTot=       0 NPtTot=           0 NUsed=           0 NTot=          32
 NSgBfM=  2401  2401  2401  2401  2401 MxSgAt=   116 MxSgA2=   116.
 Leave Link  302 at Thu Nov  6 11:49:20 2025, MaxMem= 30870077440 cpu:            1961.9 elap:              31.1
 (Enter /public/software/gauss/g16/l303.exe)
 DipDrv:  MaxL=1.
 Leave Link  303 at Thu Nov  6 11:49:21 2025, MaxMem= 30870077440 cpu:              58.7 elap:               1.0
 (Enter /public/software/gauss/g16/l401.exe)
 ExpMin= 6.06D-02 ExpMax= 3.55D+04 ExpMxC= 1.21D+03 IAcc=3 IRadAn=         5 AccDes= 0.00D+00
 Harris functional with IExCor= 1009 and IRadAn=       5 diagonalized for initial guess.
 HarFok:  IExCor= 1009 AccDes= 0.00D+00 IRadAn=         5 IDoV= 1 UseB2=F ITyADJ=14
 ICtDFT=  3500011 ScaDFX=  1.000000  1.000000  1.000000  1.000000
 Defaulting to unpruned grid for atomic number  53.
 FoFCou: FMM=F IPFlag=           0 FMFlag=      100000 FMFlg1=        2001
         NFxFlg=           0 DoJE=T BraDBF=F KetDBF=T FulRan=T
         wScrn=  0.000000 ICntrl=       500 IOpCl=  0 I1Cent=   200000004 NGrid=           0
         NMat0=    1 NMatS0=      1 NMatT0=    0 NMatD0=    1 NMtDS0=    0 NMtDT0=    0
 Petite list used in FoFCou.
 Harris En= -3848.80594189036    
 JPrj=0 DoOrth=F DoCkMO=F.
 Leave Link  401 at Thu Nov  6 11:49:46 2025, MaxMem= 30870077440 cpu:            1598.1 elap:              25.1
 (Enter /public/software/gauss/g16/l502.exe)
 Integral symmetry usage will be decided dynamically.
 Closed shell SCF:
 Using DIIS extrapolation, IDIIS=  1040.
 NGot= 30870077440 LenX= 30848085252 LenY= 30837205150
 Requested convergence on RMS density matrix=1.00D-08 within 128 cycles.
 Requested convergence on MAX density matrix=1.00D-06.
 Requested convergence on             energy=1.00D-06.
 No special actions if energy rises.
 Fock matrices will be formed incrementally for  20 cycles.

 Cycle   1  Pass 1  IDiag  1:
 FoFJK:  IHMeth= 1 ICntrl=       0 DoSepK=F KAlg= 0 I1Cent=           0 FoldK=F
 IRaf= 430000000 NMat=       1 IRICut=       1 DoRegI=T DoRafI=F ISym2E= 0 IDoP0=0 IntGTp=1.
 FoFCou: FMM=T IPFlag=           0 FMFlag=      100000 FMFlg1=        2001
         NFxFlg=           0 DoJE=F BraDBF=F KetDBF=F FulRan=T
         wScrn=  0.000000 ICntrl=         0 IOpCl=  0 I1Cent=           0 NGrid=           0
         NMat0=    1 NMatS0=      1 NMatT0=    0 NMatD0=    1 NMtDS0=    0 NMtDT0=    0
 Symmetry not used in FoFCou.
 FMM levels:  10  Number of levels for PrismC:   9
 Defaulting to unpruned grid for atomic number  53.
 Defaulting to unpruned grid for atomic number  53.
 Defaulting to unpruned grid for atomic number  53.
 Defaulting to unpruned grid for atomic number  53.
 Defaulting to unpruned grid for atomic number  53.
 Defaulting to unpruned grid for atomic number  53.
 Defaulting to unpruned grid for atomic number  53.
 Defaulting to unpruned grid for atomic number  53.
 Defaulting to unpruned grid for atomic number  53.
 Defaulting to unpruned grid for atomic number  53.
 Defaulting to unpruned grid for atomic number  53.
 Defaulting to unpruned grid for atomic number  53.
 Defaulting to unpruned grid for atomic number  53.
 Defaulting to unpruned grid for atomic number  53.
 Defaulting to unpruned grid for atomic number  53.
 Defaulting to unpruned grid for atomic number  53.
 Defaulting to unpruned grid for atomic number  53.
 Defaulting to unpruned grid for atomic number  53.
 Defaulting to unpruned grid for atomic number  53.
 Defaulting to unpruned grid for atomic number  53.
 Defaulting to unpruned grid for atomic number  53.
 Defaulting to unpruned grid for atomic number  53.
 Defaulting to unpruned grid for atomic number  53.
 Defaulting to unpruned grid for atomic number  53.
 Defaulting to unpruned grid for atomic number  53.
 Defaulting to unpruned grid for atomic number  53.
 Defaulting to unpruned grid for atomic number  53.
 Defaulting to unpruned grid for atomic number  53.
 Defaulting to unpruned grid for atomic number  53.
 Defaulting to unpruned grid for atomic number  53.
 Defaulting to unpruned grid for atomic number  53.
 Defaulting to unpruned grid for atomic number  53.
 Defaulting to unpruned grid for atomic number  53.
 Defaulting to unpruned grid for atomic number  53.
 Defaulting to unpruned grid for atomic number  53.
 Defaulting to unpruned grid for atomic number  53.
 Defaulting to unpruned grid for atomic number  53.
 Defaulting to unpruned grid for atomic number  53.
 Defaulting to unpruned grid for atomic number  53.
 Defaulting to unpruned grid for atomic number  53.
 Defaulting to unpruned grid for atomic number  53.
 Defaulting to unpruned grid for atomic number  53.
 Defaulting to unpruned grid for atomic number  53.
 Defaulting to unpruned grid for atomic number  53.
 Defaulting to unpruned grid for atomic number  53.
 Defaulting to unpruned grid for atomic number  53.
 Defaulting to unpruned grid for atomic number  53.
 Defaulting to unpruned grid for atomic number  53.
 Defaulting to unpruned grid for atomic number  53.
 Defaulting to unpruned grid for atomic number  53.
 Defaulting to unpruned grid for atomic number  53.
 Defaulting to unpruned grid for atomic number  53.
 Defaulting to unpruned grid for atomic number  53.
 Defaulting to unpruned grid for atomic number  53.
 Defaulting to unpruned grid for atomic number  53.
 Defaulting to unpruned grid for atomic number  53.
 Defaulting to unpruned grid for atomic number  53.
 Defaulting to unpruned grid for atomic number  53.
 Defaulting to unpruned grid for atomic number  53.
 Defaulting to unpruned grid for atomic number  53.
 Defaulting to unpruned grid for atomic number  53.
 Defaulting to unpruned grid for atomic number  53.
 Defaulting to unpruned grid for atomic number  53.
 Defaulting to unpruned grid for atomic number  53.
 Inv3:  Mode=1 IEnd=   213346467.
 Iteration    1 A*A^-1 deviation from unit magnitude is 1.05D-14 for   8405.
 Iteration    1 A*A^-1 deviation from orthogonality  is 5.83D-15 for   6200   1667.
 Iteration    1 A^-1*A deviation from unit magnitude is 1.05D-14 for   8405.
 Iteration    1 A^-1*A deviation from orthogonality  is 3.90D-15 for   8429   8281.
 E= -3848.15967156676    
 DIIS: error= 2.01D-02 at cycle   1 NSaved=   1.
 NSaved= 1 IEnMin= 1 EnMin= -3848.15967156676     IErMin= 1 ErrMin= 2.01D-02
 ErrMax= 2.01D-02  0.00D+00 EMaxC= 1.00D-01 BMatC= 2.33D+00 BMatP= 2.33D+00
 IDIUse=3 WtCom= 7.99D-01 WtEn= 2.01D-01
 Coeff-Com:  0.100D+01
 Coeff-En:   0.100D+01
 Coeff:      0.100D+01
 Gap=     0.265 Goal=   None    Shift=    0.000
 GapD=    0.265 DampG=1.000 DampE=0.500 DampFc=0.5000 IDamp=-1.
 Damping current iteration by 5.00D-01
 RMSDP=1.34D-03 MaxDP=2.56D-01              OVMax= 2.60D-01

 Cycle   2  Pass 1  IDiag  1:
 RMSU=  6.69D-04    CP:  1.00D+00
 E= -3848.98282004506     Delta-E=       -0.823148478301 Rises=F Damp=T
 DIIS: error= 3.96D-03 at cycle   2 NSaved=   2.
 NSaved= 2 IEnMin= 2 EnMin= -3848.98282004506     IErMin= 2 ErrMin= 3.96D-03
 ErrMax= 3.96D-03  0.00D+00 EMaxC= 1.00D-01 BMatC= 2.34D-01 BMatP= 2.33D+00
 IDIUse=3 WtCom= 9.60D-01 WtEn= 3.96D-02
 Coeff-Com: -0.491D-01 0.105D+01
 Coeff-En:   0.000D+00 0.100D+01
 Coeff:     -0.472D-01 0.105D+01
 Gap=     0.188 Goal=   None    Shift=    0.000
 RMSDP=6.14D-04 MaxDP=1.43D-01 DE=-8.23D-01 OVMax= 2.03D-01

 Cycle   3  Pass 1  IDiag  1:
 RMSU=  5.51D-04    CP:  9.99D-01  1.40D+00
 E= -3849.78561910735     Delta-E=       -0.802799062296 Rises=F Damp=F
 DIIS: error= 8.58D-03 at cycle   3 NSaved=   3.
 NSaved= 3 IEnMin= 3 EnMin= -3849.78561910735     IErMin= 2 ErrMin= 3.96D-03
 ErrMax= 8.58D-03  0.00D+00 EMaxC= 1.00D-01 BMatC= 1.36D-01 BMatP= 2.34D-01
 IDIUse=3 WtCom= 9.14D-01 WtEn= 8.58D-02
 Coeff-Com: -0.111D+00 0.481D+00 0.629D+00
 Coeff-En:   0.000D+00 0.000D+00 0.100D+01
 Coeff:     -0.101D+00 0.440D+00 0.661D+00
 Gap=     0.144 Goal=   None    Shift=    0.000
 RMSDP=1.74D-04 MaxDP=3.09D-02 DE=-8.03D-01 OVMax= 7.63D-02

 Cycle   4  Pass 1  IDiag  1:
 RMSU=  1.71D-04    CP:  9.97D-01  1.36D+00  9.61D-01
 E= -3849.87182981980     Delta-E=       -0.086210712450 Rises=F Damp=F
 DIIS: error= 3.03D-03 at cycle   4 NSaved=   4.
 NSaved= 4 IEnMin= 4 EnMin= -3849.87182981980     IErMin= 4 ErrMin= 3.03D-03
 ErrMax= 3.03D-03  0.00D+00 EMaxC= 1.00D-01 BMatC= 2.38D-02 BMatP= 1.36D-01
 IDIUse=3 WtCom= 9.70D-01 WtEn= 3.03D-02
 Coeff-Com: -0.371D-01 0.954D-01 0.340D+00 0.602D+00
 Coeff-En:   0.000D+00 0.000D+00 0.127D+00 0.873D+00
 Coeff:     -0.360D-01 0.925D-01 0.333D+00 0.610D+00
 Gap=     0.147 Goal=   None    Shift=    0.000
 RMSDP=6.37D-05 MaxDP=9.75D-03 DE=-8.62D-02 OVMax= 1.85D-02

 Cycle   5  Pass 1  IDiag  1:
 RMSU=  4.76D-05    CP:  9.97D-01  1.39D+00  9.73D-01  7.73D-01
 E= -3849.88943019522     Delta-E=       -0.017600375420 Rises=F Damp=F
 DIIS: error= 7.80D-04 at cycle   5 NSaved=   5.
 NSaved= 5 IEnMin= 5 EnMin= -3849.88943019522     IErMin= 5 ErrMin= 7.80D-04
 ErrMax= 7.80D-04  0.00D+00 EMaxC= 1.00D-01 BMatC= 1.04D-03 BMatP= 2.38D-02
 IDIUse=3 WtCom= 9.92D-01 WtEn= 7.80D-03
 Coeff-Com: -0.118D-01 0.217D-01 0.129D+00 0.291D+00 0.570D+00
 Coeff-En:   0.000D+00 0.000D+00 0.000D+00 0.000D+00 0.100D+01
 Coeff:     -0.117D-01 0.216D-01 0.128D+00 0.289D+00 0.573D+00
 Gap=     0.148 Goal=   None    Shift=    0.000
 RMSDP=2.22D-05 MaxDP=8.89D-03 DE=-1.76D-02 OVMax= 8.82D-03

 Cycle   6  Pass 1  IDiag  1:
 RMSU=  2.03D-05    CP:  9.98D-01  1.40D+00  9.83D-01  7.88D-01  9.49D-01
 E= -3849.89015881685     Delta-E=       -0.000728621621 Rises=F Damp=F
 DIIS: error= 3.58D-04 at cycle   6 NSaved=   6.
 NSaved= 6 IEnMin= 6 EnMin= -3849.89015881685     IErMin= 6 ErrMin= 3.58D-04
 ErrMax= 3.58D-04  0.00D+00 EMaxC= 1.00D-01 BMatC= 1.59D-04 BMatP= 1.04D-03
 IDIUse=3 WtCom= 9.96D-01 WtEn= 3.58D-03
 Coeff-Com: -0.188D-02 0.591D-03 0.292D-01 0.821D-01 0.308D+00 0.582D+00
 Coeff-En:   0.000D+00 0.000D+00 0.000D+00 0.000D+00 0.220D-01 0.978D+00
 Coeff:     -0.188D-02 0.589D-03 0.290D-01 0.818D-01 0.307D+00 0.583D+00
 Gap=     0.148 Goal=   None    Shift=    0.000
 RMSDP=7.02D-06 MaxDP=2.42D-03 DE=-7.29D-04 OVMax= 3.58D-03

 Cycle   7  Pass 1  IDiag  1:
 RMSU=  5.32D-06    CP:  9.98D-01  1.40D+00  9.87D-01  7.95D-01  1.03D+00
                    CP:  1.04D+00
 E= -3849.89027969631     Delta-E=       -0.000120879466 Rises=F Damp=F
 DIIS: error= 9.88D-05 at cycle   7 NSaved=   7.
 NSaved= 7 IEnMin= 7 EnMin= -3849.89027969631     IErMin= 7 ErrMin= 9.88D-05
 ErrMax= 9.88D-05  0.00D+00 EMaxC= 1.00D-01 BMatC= 1.83D-05 BMatP= 1.59D-04
 IDIUse=1 WtCom= 1.00D+00 WtEn= 0.00D+00
 Coeff-Com:  0.130D-02-0.380D-02-0.938D-02-0.137D-01 0.450D-01 0.275D+00
 Coeff-Com:  0.705D+00
 Coeff:      0.130D-02-0.380D-02-0.938D-02-0.137D-01 0.450D-01 0.275D+00
 Coeff:      0.705D+00
 Gap=     0.149 Goal=   None    Shift=    0.000
 RMSDP=4.99D-06 MaxDP=3.28D-03 DE=-1.21D-04 OVMax= 1.27D-03

 Cycle   8  Pass 1  IDiag  1:
 RMSU=  2.90D-06    CP:  9.98D-01  1.40D+00  9.90D-01  8.02D-01  1.07D+00
                    CP:  1.18D+00  1.17D+00
 E= -3849.89029892240     Delta-E=       -0.000019226085 Rises=F Damp=F
 DIIS: error= 1.77D-05 at cycle   8 NSaved=   8.
 NSaved= 8 IEnMin= 8 EnMin= -3849.89029892240     IErMin= 8 ErrMin= 1.77D-05
 ErrMax= 1.77D-05  0.00D+00 EMaxC= 1.00D-01 BMatC= 1.81D-06 BMatP= 1.83D-05
 IDIUse=1 WtCom= 1.00D+00 WtEn= 0.00D+00
 Coeff-Com:  0.712D-03-0.148D-02-0.710D-02-0.160D-01-0.236D-01 0.229D-01
 Coeff-Com:  0.271D+00 0.753D+00
 Coeff:      0.712D-03-0.148D-02-0.710D-02-0.160D-01-0.236D-01 0.229D-01
 Coeff:      0.271D+00 0.753D+00
 Gap=     0.149 Goal=   None    Shift=    0.000
 RMSDP=1.96D-06 MaxDP=1.16D-03 DE=-1.92D-05 OVMax= 6.13D-04

 Cycle   9  Pass 1  IDiag  1:
 RMSU=  1.00D-06    CP:  9.98D-01  1.40D+00  9.90D-01  8.03D-01  1.09D+00
                    CP:  1.24D+00  1.27D+00  1.14D+00
 E= -3849.89030159108     Delta-E=       -0.000002668679 Rises=F Damp=F
 DIIS: error= 6.73D-06 at cycle   9 NSaved=   9.
 NSaved= 9 IEnMin= 9 EnMin= -3849.89030159108     IErMin= 9 ErrMin= 6.73D-06
 ErrMax= 6.73D-06  0.00D+00 EMaxC= 1.00D-01 BMatC= 2.69D-07 BMatP= 1.81D-06
 IDIUse=1 WtCom= 1.00D+00 WtEn= 0.00D+00
 Coeff-Com:  0.151D-03-0.205D-03-0.187D-02-0.525D-02-0.143D-01-0.198D-01
 Coeff-Com:  0.355D-01 0.312D+00 0.694D+00
 Coeff:      0.151D-03-0.205D-03-0.187D-02-0.525D-02-0.143D-01-0.198D-01
 Coeff:      0.355D-01 0.312D+00 0.694D+00
 Gap=     0.149 Goal=   None    Shift=    0.000
 RMSDP=6.98D-07 MaxDP=4.27D-04 DE=-2.67D-06 OVMax= 2.32D-04

 Cycle  10  Pass 1  IDiag  1:
 RMSU=  3.72D-07    CP:  9.98D-01  1.40D+00  9.91D-01  8.03D-01  1.09D+00
                    CP:  1.25D+00  1.32D+00  1.27D+00  1.05D+00
 E= -3849.89030197840     Delta-E=       -0.000000387323 Rises=F Damp=F
 DIIS: error= 1.62D-06 at cycle  10 NSaved=  10.
 NSaved=10 IEnMin=10 EnMin= -3849.89030197840     IErMin=10 ErrMin= 1.62D-06
 ErrMax= 1.62D-06  0.00D+00 EMaxC= 1.00D-01 BMatC= 4.33D-08 BMatP= 2.69D-07
 IDIUse=1 WtCom= 1.00D+00 WtEn= 0.00D+00
 Coeff-Com: -0.696D-04 0.191D-03 0.572D-03 0.808D-03-0.134D-02-0.122D-01
 Coeff-Com: -0.373D-01-0.137D-01 0.282D+00 0.781D+00
 Coeff:     -0.696D-04 0.191D-03 0.572D-03 0.808D-03-0.134D-02-0.122D-01
 Coeff:     -0.373D-01-0.137D-01 0.282D+00 0.781D+00
 Gap=     0.149 Goal=   None    Shift=    0.000
 RMSDP=4.18D-07 MaxDP=2.87D-04 DE=-3.87D-07 OVMax= 1.36D-04

 Cycle  11  Pass 1  IDiag  1:
 RMSU=  1.58D-07    CP:  9.98D-01  1.40D+00  9.91D-01  8.04D-01  1.09D+00
                    CP:  1.26D+00  1.35D+00  1.35D+00  1.20D+00  1.08D+00
 E= -3849.89030205397     Delta-E=       -0.000000075575 Rises=F Damp=F
 DIIS: error= 9.05D-07 at cycle  11 NSaved=  11.
 NSaved=11 IEnMin=11 EnMin= -3849.89030205397     IErMin=11 ErrMin= 9.05D-07
 ErrMax= 9.05D-07  0.00D+00 EMaxC= 1.00D-01 BMatC= 9.04D-09 BMatP= 4.33D-08
 IDIUse=1 WtCom= 1.00D+00 WtEn= 0.00D+00
 Coeff-Com: -0.490D-04 0.109D-03 0.504D-03 0.105D-02 0.119D-02-0.319D-02
 Coeff-Com: -0.220D-01-0.453D-01 0.378D-01 0.380D+00 0.650D+00
 Coeff:     -0.490D-04 0.109D-03 0.504D-03 0.105D-02 0.119D-02-0.319D-02
 Coeff:     -0.220D-01-0.453D-01 0.378D-01 0.380D+00 0.650D+00
 Gap=     0.149 Goal=   None    Shift=    0.000
 RMSDP=8.11D-08 MaxDP=2.46D-05 DE=-7.56D-08 OVMax= 5.05D-05

 Cycle  12  Pass 1  IDiag  1:
 RMSU=  5.58D-08    CP:  9.98D-01  1.40D+00  9.91D-01  8.04D-01  1.09D+00
                    CP:  1.26D+00  1.35D+00  1.35D+00  1.23D+00  1.18D+00
                    CP:  1.01D+00
 E= -3849.89030206764     Delta-E=       -0.000000013662 Rises=F Damp=F
 DIIS: error= 3.26D-07 at cycle  12 NSaved=  12.
 NSaved=12 IEnMin=12 EnMin= -3849.89030206764     IErMin=12 ErrMin= 3.26D-07
 ErrMax= 3.26D-07  0.00D+00 EMaxC= 1.00D-01 BMatC= 1.35D-09 BMatP= 9.04D-09
 IDIUse=1 WtCom= 1.00D+00 WtEn= 0.00D+00
 Coeff-Com: -0.107D-04 0.190D-04 0.143D-03 0.367D-03 0.786D-03 0.455D-03
 Coeff-Com: -0.457D-02-0.190D-01-0.309D-01 0.474D-01 0.301D+00 0.704D+00
 Coeff:     -0.107D-04 0.190D-04 0.143D-03 0.367D-03 0.786D-03 0.455D-03
 Coeff:     -0.457D-02-0.190D-01-0.309D-01 0.474D-01 0.301D+00 0.704D+00
 Gap=     0.149 Goal=   None    Shift=    0.000
 RMSDP=5.84D-08 MaxDP=4.10D-05 DE=-1.37D-08 OVMax= 2.86D-05

 Cycle  13  Pass 1  IDiag  1:
 RMSU=  2.67D-08    CP:  9.98D-01  1.40D+00  9.91D-01  8.04D-01  1.09D+00
                    CP:  1.26D+00  1.35D+00  1.37D+00  1.25D+00  1.22D+00
                    CP:  1.15D+00  1.12D+00
 E= -3849.89030206943     Delta-E=       -0.000000001792 Rises=F Damp=F
 DIIS: error= 1.30D-07 at cycle  13 NSaved=  13.
 NSaved=13 IEnMin=13 EnMin= -3849.89030206943     IErMin=13 ErrMin= 1.30D-07
 ErrMax= 1.30D-07  0.00D+00 EMaxC= 1.00D-01 BMatC= 2.14D-10 BMatP= 1.35D-09
 IDIUse=1 WtCom= 1.00D+00 WtEn= 0.00D+00
 Coeff-Com:  0.399D-05-0.107D-04-0.255D-04-0.246D-04 0.134D-03 0.726D-03
 Coeff-Com:  0.183D-02 0.201D-03-0.197D-01-0.435D-01 0.256D-01 0.308D+00
 Coeff-Com:  0.727D+00
 Coeff:      0.399D-05-0.107D-04-0.255D-04-0.246D-04 0.134D-03 0.726D-03
 Coeff:      0.183D-02 0.201D-03-0.197D-01-0.435D-01 0.256D-01 0.308D+00
 Coeff:      0.727D+00
 Gap=     0.149 Goal=   None    Shift=    0.000
 RMSDP=1.99D-08 MaxDP=3.49D-06 DE=-1.79D-09 OVMax= 1.83D-05

 Cycle  14  Pass 1  IDiag  1:
 RMSU=  1.24D-08    CP:  9.98D-01  1.40D+00  9.91D-01  8.04D-01  1.09D+00
                    CP:  1.26D+00  1.35D+00  1.37D+00  1.25D+00  1.23D+00
                    CP:  1.20D+00  1.33D+00  1.18D+00
 E= -3849.89030207018     Delta-E=       -0.000000000749 Rises=F Damp=F
 DIIS: error= 7.16D-08 at cycle  14 NSaved=  14.
 NSaved=14 IEnMin=14 EnMin= -3849.89030207018     IErMin=14 ErrMin= 7.16D-08
 ErrMax= 7.16D-08  0.00D+00 EMaxC= 1.00D-01 BMatC= 4.75D-11 BMatP= 2.14D-10
 IDIUse=1 WtCom= 1.00D+00 WtEn= 0.00D+00
 Coeff-Com:  0.349D-05-0.773D-05-0.368D-04-0.767D-04-0.837D-04 0.210D-03
 Coeff-Com:  0.158D-02 0.359D-02-0.285D-02-0.287D-01-0.496D-01-0.145D-01
 Coeff-Com:  0.316D+00 0.774D+00
 Coeff:      0.349D-05-0.773D-05-0.368D-04-0.767D-04-0.837D-04 0.210D-03
 Coeff:      0.158D-02 0.359D-02-0.285D-02-0.287D-01-0.496D-01-0.145D-01
 Coeff:      0.316D+00 0.774D+00
 Gap=     0.149 Goal=   None    Shift=    0.000
 RMSDP=1.35D-08 MaxDP=5.72D-06 DE=-7.49D-10 OVMax= 1.23D-05

 Cycle  15  Pass 1  IDiag  1:
 RMSU=  5.30D-09    CP:  9.98D-01  1.40D+00  9.91D-01  8.04D-01  1.09D+00
                    CP:  1.26D+00  1.35D+00  1.37D+00  1.25D+00  1.23D+00
                    CP:  1.23D+00  1.42D+00  1.44D+00  1.31D+00
 E= -3849.89030207141     Delta-E=       -0.000000001237 Rises=F Damp=F
 DIIS: error= 2.87D-08 at cycle  15 NSaved=  15.
 NSaved=15 IEnMin=15 EnMin= -3849.89030207141     IErMin=15 ErrMin= 2.87D-08
 ErrMax= 2.87D-08  0.00D+00 EMaxC= 1.00D-01 BMatC= 1.16D-11 BMatP= 4.75D-11
 IDIUse=1 WtCom= 1.00D+00 WtEn= 0.00D+00
 Coeff-Com:  0.653D-06-0.113D-05-0.109D-04-0.288D-04-0.647D-04-0.551D-04
 Coeff-Com:  0.335D-03 0.166D-02 0.337D-02-0.297D-02-0.278D-01-0.756D-01
 Coeff-Com: -0.179D-01 0.358D+00 0.761D+00
 Coeff:      0.653D-06-0.113D-05-0.109D-04-0.288D-04-0.647D-04-0.551D-04
 Coeff:      0.335D-03 0.166D-02 0.337D-02-0.297D-02-0.278D-01-0.756D-01
 Coeff:     -0.179D-01 0.358D+00 0.761D+00
 Gap=     0.149 Goal=   None    Shift=    0.000
 RMSDP=6.94D-09 MaxDP=1.37D-06 DE=-1.24D-09 OVMax= 6.82D-06

 Cycle  16  Pass 1  IDiag  1:
 RMSU=  2.51D-09    CP:  9.98D-01  1.40D+00  9.91D-01  8.04D-01  1.09D+00
                    CP:  1.26D+00  1.35D+00  1.37D+00  1.25D+00  1.23D+00
                    CP:  1.24D+00  1.48D+00  1.54D+00  1.62D+00  1.35D+00
 E= -3849.89030207036     Delta-E=        0.000000001050 Rises=F Damp=F
 DIIS: error= 1.56D-08 at cycle  16 NSaved=  16.
 NSaved=16 IEnMin=15 EnMin= -3849.89030207141     IErMin=16 ErrMin= 1.56D-08
 ErrMax= 1.56D-08  0.00D+00 EMaxC= 1.00D-01 BMatC= 2.25D-12 BMatP= 1.16D-11
 IDIUse=1 WtCom= 1.00D+00 WtEn= 0.00D+00
 Coeff-Com: -0.689D-06 0.164D-05 0.537D-05 0.857D-05-0.808D-05-0.833D-04
 Coeff-Com: -0.312D-03-0.341D-03 0.223D-02 0.655D-02 0.236D-02-0.270D-01
 Coeff-Com: -0.960D-01-0.726D-01 0.305D+00 0.880D+00
 Coeff:     -0.689D-06 0.164D-05 0.537D-05 0.857D-05-0.808D-05-0.833D-04
 Coeff:     -0.312D-03-0.341D-03 0.223D-02 0.655D-02 0.236D-02-0.270D-01
 Coeff:     -0.960D-01-0.726D-01 0.305D+00 0.880D+00
 Gap=     0.149 Goal=   None    Shift=    0.000
 RMSDP=4.34D-09 MaxDP=9.35D-07 DE= 1.05D-09 OVMax= 4.49D-06

 Cycle  17  Pass 1  IDiag  1:
 RMSU=  1.20D-09    CP:  9.98D-01  1.40D+00  9.91D-01  8.04D-01  1.09D+00
                    CP:  1.26D+00  1.35D+00  1.37D+00  1.25D+00  1.23D+00
                    CP:  1.24D+00  1.50D+00  1.61D+00  1.82D+00  1.70D+00
                    CP:  1.31D+00
 E= -3849.89030206889     Delta-E=        0.000000001470 Rises=F Damp=F
 DIIS: error= 5.02D-09 at cycle  17 NSaved=  17.
 NSaved=17 IEnMin=15 EnMin= -3849.89030207141     IErMin=17 ErrMin= 5.02D-09
 ErrMax= 5.02D-09  0.00D+00 EMaxC= 1.00D-01 BMatC= 4.24D-13 BMatP= 2.25D-12
 IDIUse=1 WtCom= 1.00D+00 WtEn= 0.00D+00
 Coeff-Com: -0.346D-06 0.778D-06 0.378D-05 0.779D-05 0.599D-05-0.224D-04
 Coeff-Com: -0.174D-03-0.407D-03 0.389D-03 0.304D-02 0.531D-02 0.142D-02
 Coeff-Com: -0.359D-01-0.870D-01 0.835D-02 0.368D+00 0.737D+00
 Coeff:     -0.346D-06 0.778D-06 0.378D-05 0.779D-05 0.599D-05-0.224D-04
 Coeff:     -0.174D-03-0.407D-03 0.389D-03 0.304D-02 0.531D-02 0.142D-02
 Coeff:     -0.359D-01-0.870D-01 0.835D-02 0.368D+00 0.737D+00
 Gap=     0.149 Goal=   None    Shift=    0.000
 RMSDP=1.32D-09 MaxDP=2.64D-07 DE= 1.47D-09 OVMax= 1.33D-06

 Cycle  18  Pass 1  IDiag  1:
 RMSU=  4.63D-10    CP:  9.98D-01  1.40D+00  9.91D-01  8.04D-01  1.09D+00
                    CP:  1.26D+00  1.35D+00  1.37D+00  1.25D+00  1.23D+00
                    CP:  1.24D+00  1.51D+00  1.63D+00  1.88D+00  1.81D+00
                    CP:  1.49D+00  1.23D+00
 E= -3849.89030206979     Delta-E=       -0.000000000891 Rises=F Damp=F
 DIIS: error= 2.77D-09 at cycle  18 NSaved=  18.
 NSaved=18 IEnMin=15 EnMin= -3849.89030207141     IErMin=18 ErrMin= 2.77D-09
 ErrMax= 2.77D-09  0.00D+00 EMaxC= 1.00D-01 BMatC= 6.69D-14 BMatP= 4.24D-13
 IDIUse=1 WtCom= 1.00D+00 WtEn= 0.00D+00
 Coeff-Com:  0.246D-07-0.646D-07 0.263D-06 0.103D-05 0.334D-05 0.889D-05
 Coeff-Com:  0.177D-05-0.852D-04-0.282D-03-0.247D-03 0.135D-02 0.615D-02
 Coeff-Com:  0.648D-02-0.188D-01-0.609D-01-0.463D-01 0.269D+00 0.843D+00
 Coeff:      0.246D-07-0.646D-07 0.263D-06 0.103D-05 0.334D-05 0.889D-05
 Coeff:      0.177D-05-0.852D-04-0.282D-03-0.247D-03 0.135D-02 0.615D-02
 Coeff:      0.648D-02-0.188D-01-0.609D-01-0.463D-01 0.269D+00 0.843D+00
 Gap=     0.149 Goal=   None    Shift=    0.000
 RMSDP=6.75D-10 MaxDP=1.21D-07 DE=-8.91D-10 OVMax= 6.14D-07

 Error on total polarization charges =  0.03117
 SCF Done:  E(RM062X) =  -3849.89030207     A.U. after   18 cycles
            NFock= 18  Conv=0.68D-09     -V/T= 2.1113
 KE= 3.464183887793D+03 PE=-3.151562233953D+04 EE= 1.287050058374D+04
 Leave Link  502 at Thu Nov  6 12:30:37 2025, MaxMem= 30870077440 cpu:          154064.9 elap:            2450.4
 (Enter /public/software/gauss/g16/l601.exe)
 Copying SCF densities to generalized density rwf, IOpCl= 0 IROHF=0.
 Hyperfine terms turned off by default for NAtoms > 100.

 **********************************************************************

            Population analysis using the SCF density.

 **********************************************************************

 Orbital symmetries:
       Occupied  (A) (A) (A) (A) (A) (A) (A) (A) (A) (A) (A) (A)
                 (A) (A) (A) (A) (A) (A) (A) (A) (A) (A) (A) (A)
                 (A) (A) (A) (A) (A) (A) (A) (A) (A) (A) (A) (A)
                 (A) (A) (A) (A) (A) (A) (A) (A) (A) (A) (A) (A)
                 (A) (A) (A) (A) (A) (A) (A) (A) (A) (A) (A) (A)
                 (A) (A) (A) (A) (A) (A) (A) (A) (A) (A) (A) (A)
                 (A) (A) (A) (A) (A) (A) (A) (A) (A) (A) (A) (A)
                 (A) (A) (A) (A) (A) (A) (A) (A) (A) (A) (A) (A)
                 (A) (A) (A) (A) (A) (A) (A) (A) (A) (A) (A) (A)
                 (A) (A) (A) (A) (A) (A) (A) (A) (A) (A) (A) (A)
                 (A) (A) (A) (A) (A) (A) (A) (A) (A) (A) (A) (A)
                 (A) (A) (A) (A) (A) (A) (A) (A) (A) (A) (A) (A)
                 (A) (A) (A) (A) (A) (A) (A) (A) (A) (A) (A) (A)
                 (A) (A) (A) (A) (A) (A) (A) (A) (A) (A) (A) (A)
                 (A) (A) (A) (A) (A) (A) (A) (A) (A) (A) (A) (A)
                 (A) (A) (A) (A) (A) (A) (A) (A) (A) (A) (A) (A)
                 (A) (A) (A) (A) (A) (A) (A) (A) (A) (A) (A) (A)
                 (A) (A) (A) (A) (A) (A) (A) (A) (A) (A) (A) (A)
                 (A) (A) (A) (A) (A) (A) (A) (A) (A) (A) (A) (A)
                 (A) (A) (A) (A) (A) (A) (A) (A) (A) (A) (A) (A)
                 (A) (A) (A) (A) (A) (A) (A) (A) (A) (A) (A) (A)
                 (A) (A) (A) (A) (A) (A) (A) (A) (A) (A) (A) (A)
                 (A) (A) (A) (A) (A) (A) (A) (A)
       Virtual   (A) (A) (A) (A) (A) (A) (A) (A) (A) (A) (A) (A)
                 (A) (A) (A) (A) (A) (A) (A) (A) (A) (A) (A) (A)
                 (A) (A) (A) (A) (A) (A) (A) (A) (A) (A) (A) (A)
                 (A) (A) (A) (A) (A) (A) (A) (A) (A) (A) (A) (A)
                 (A) (A) (A) (A) (A) (A) (A) (A) (A) (A) (A) (A)
                 (A) (A) (A) (A) (A) (A) (A) (A) (A) (A) (A) (A)
                 (A) (A) (A) (A) (A) (A) (A) (A) (A) (A) (A) (A)
                 (A) (A) (A) (A) (A) (A) (A) (A) (A) (A) (A) (A)
                 (A) (A) (A) (A) (A) (A) (A) (A) (A) (A) (A) (A)
                 (A) (A) (A) (A) (A) (A) (A) (A) (A) (A) (A) (A)
                 (A) (A) (A) (A) (A) (A) (A) (A) (A) (A) (A) (A)
                 (A) (A) (A) (A) (A) (A) (A) (A) (A) (A) (A) (A)
                 (A) (A) (A) (A) (A) (A) (A) (A) (A) (A) (A) (A)
                 (A) (A) (A) (A) (A) (A) (A) (A) (A) (A) (A) (A)
                 (A) (A) (A) (A) (A) (A) (A) (A) (A) (A) (A) (A)
                 (A) (A) (A) (A) (A) (A) (A) (A) (A) (A) (A) (A)
                 (A) (A) (A) (A) (A) (A) (A) (A) (A) (A) (A) (A)
                 (A) (A) (A) (A) (A) (A) (A) (A) (A) (A) (A) (A)
                 (A) (A) (A) (A) (A) (A) (A) (A) (A) (A) (A) (A)
                 (A) (A) (A) (A) (A) (A) (A) (A) (A) (A) (A) (A)
                 (A) (A) (A) (A) (A) (A) (A) (A) (A) (A) (A) (A)
                 (A) (A) (A) (A) (A) (A) (A) (A) (A) (A) (A) (A)
                 (A) (A) (A) (A) (A) (A) (A) (A) (A) (A) (A) (A)
                 (A) (A) (A) (A) (A) (A) (A) (A) (A) (A) (A) (A)
                 (A) (A) (A) (A) (A) (A) (A) (A) (A) (A) (A) (A)
                 (A) (A) (A) (A) (A) (A) (A) (A) (A) (A) (A) (A)
                 (A) (A) (A) (A) (A) (A) (A) (A) (A) (A) (A) (A)
                 (A) (A) (A) (A) (A) (A) (A) (A) (A) (A) (A) (A)
                 (A) (A) (A) (A) (A) (A) (A) (A) (A) (A) (A) (A)
                 (A) (A) (A) (A) (A) (A) (A) (A) (A) (A) (A) (A)
                 (A) (A) (A) (A) (A) (A) (A) (A) (A) (A) (A) (A)
                 (A) (A) (A) (A) (A) (A) (A) (A) (A) (A) (A) (A)
                 (A) (A) (A) (A) (A) (A) (A) (A) (A) (A) (A) (A)
                 (A) (A) (A) (A) (A) (A) (A) (A) (A) (A) (A) (A)
                 (A) (A) (A) (A) (A) (A) (A) (A) (A) (A) (A) (A)
                 (A) (A) (A) (A) (A) (A) (A) (A) (A) (A) (A) (A)
                 (A) (A) (A) (A) (A) (A) (A) (A) (A) (A) (A) (A)
                 (A) (A) (A) (A) (A) (A) (A) (A) (A) (A) (A) (A)
                 (A) (A) (A) (A) (A) (A) (A) (A) (A) (A) (A) (A)
                 (A) (A) (A) (A) (A) (A) (A) (A) (A) (A) (A) (A)
                 (A) (A) (A) (A) (A) (A) (A) (A) (A) (A) (A) (A)
                 (A) (A) (A) (A) (A) (A) (A) (A) (A) (A) (A) (A)
                 (A) (A) (A) (A) (A) (A) (A) (A) (A) (A) (A) (A)
                 (A) (A) (A) (A) (A) (A) (A) (A) (A) (A) (A) (A)
                 (A) (A) (A) (A) (A) (A) (A) (A) (A) (A) (A) (A)
                 (A) (A) (A) (A) (A) (A) (A) (A) (A) (A) (A) (A)
                 (A) (A) (A) (A) (A) (A) (A) (A) (A) (A) (A) (A)
                 (A) (A) (A) (A) (A) (A) (A) (A) (A) (A) (A) (A)
                 (A) (A) (A) (A) (A) (A) (A) (A) (A) (A) (A) (A)
                 (A) (A) (A) (A) (A) (A) (A) (A) (A) (A) (A) (A)
                 (A) (A) (A) (A) (A) (A) (A) (A) (A) (A) (A) (A)
                 (A) (A) (A) (A) (A) (A) (A) (A) (A) (A) (A) (A)
                 (A) (A) (A) (A) (A) (A) (A) (A) (A) (A) (A) (A)
                 (A) (A) (A) (A) (A) (A) (A) (A) (A) (A) (A) (A)
                 (A) (A) (A) (A) (A) (A) (A) (A) (A) (A) (A) (A)
                 (A) (A) (A) (A) (A) (A) (A) (A) (A) (A) (A) (A)
                 (A) (A) (A) (A) (A) (A) (A) (A) (A) (A) (A) (A)
                 (A) (A) (A) (A) (A) (A) (A) (A) (A) (A) (A) (A)
                 (A) (A) (A) (A) (A) (A) (A) (A) (A) (A) (A) (A)
                 (A) (A) (A) (A) (A) (A) (A) (A) (A) (A) (A) (A)
                 (A) (A) (A) (A) (A) (A) (A) (A) (A) (A) (A) (A)
                 (A) (A) (A) (A) (A) (A) (A) (A) (A) (A) (A) (A)
                 (A) (A) (A) (A) (A) (A) (A) (A) (A) (A) (A) (A)
                 (A) (A) (A) (A) (A) (A) (A) (A) (A) (A) (A) (A)
                 (A) (A) (A) (A) (A) (A) (A) (A) (A) (A) (A) (A)
                 (A) (A) (A) (A) (A) (A) (A) (A) (A) (A) (A) (A)
                 (A) (A) (A) (A) (A) (A) (A) (A) (A) (A) (A) (A)
                 (A) (A) (A) (A) (A) (A) (A) (A) (A) (A) (A) (A)
                 (A) (A) (A) (A) (A) (A) (A) (A) (A) (A) (A) (A)
                 (A) (A) (A) (A) (A) (A) (A) (A) (A) (A) (A) (A)
                 (A) (A) (A) (A) (A) (A) (A) (A) (A) (A) (A) (A)
                 (A) (A) (A) (A) (A) (A) (A) (A) (A) (A) (A) (A)
                 (A) (A) (A) (A) (A) (A) (A) (A) (A) (A) (A) (A)
                 (A) (A) (A) (A) (A) (A) (A) (A) (A) (A) (A) (A)
                 (A) (A) (A) (A) (A) (A) (A) (A) (A) (A) (A) (A)
                 (A) (A) (A) (A) (A) (A) (A) (A) (A) (A) (A) (A)
                 (A) (A) (A) (A) (A) (A) (A) (A) (A) (A) (A) (A)
                 (A) (A) (A) (A) (A) (A) (A) (A) (A) (A) (A) (A)
                 (A) (A) (A) (A) (A) (A) (A) (A) (A) (A) (A) (A)
                 (A) (A) (A) (A) (A) (A) (A) (A) (A) (A) (A) (A)
                 (A) (A) (A) (A) (A) (A) (A) (A) (A) (A) (A) (A)
                 (A) (A) (A) (A) (A) (A) (A) (A) (A) (A) (A) (A)
                 (A) (A) (A) (A) (A) (A) (A) (A) (A) (A) (A) (A)
                 (A) (A) (A) (A) (A) (A) (A) (A) (A) (A) (A) (A)
                 (A) (A) (A) (A) (A) (A) (A) (A) (A) (A) (A) (A)
                 (A) (A) (A) (A) (A) (A) (A) (A) (A) (A) (A) (A)
                 (A) (A) (A) (A) (A) (A) (A) (A) (A) (A) (A) (A)
                 (A) (A) (A) (A) (A) (A) (A) (A) (A) (A) (A) (A)
                 (A) (A) (A) (A) (A) (A) (A) (A) (A) (A) (A) (A)
                 (A) (A) (A) (A) (A) (A) (A) (A) (A) (A) (A) (A)
                 (A) (A) (A) (A) (A) (A) (A) (A) (A) (A) (A) (A)
                 (A) (A) (A) (A) (A) (A) (A) (A) (A) (A) (A) (A)
                 (A) (A) (A) (A) (A) (A) (A) (A) (A) (A) (A) (A)
                 (A) (A) (A) (A) (A) (A) (A) (A) (A) (A) (A) (A)
                 (A) (A) (A) (A) (A) (A) (A) (A) (A) (A) (A) (A)
                 (A) (A) (A) (A) (A) (A) (A) (A) (A) (A) (A) (A)
                 (A) (A) (A) (A) (A) (A) (A) (A) (A) (A) (A) (A)
                 (A) (A) (A) (A) (A) (A) (A) (A) (A) (A) (A) (A)
                 (A) (A) (A) (A) (A) (A) (A) (A) (A) (A) (A) (A)
                 (A) (A) (A) (A) (A) (A) (A) (A) (A) (A) (A) (A)
                 (A) (A) (A) (A) (A) (A) (A) (A) (A) (A) (A) (A)
                 (A) (A) (A) (A) (A) (A) (A) (A) (A) (A) (A) (A)
                 (A) (A) (A) (A) (A) (A) (A) (A) (A) (A) (A) (A)
                 (A) (A) (A) (A) (A) (A) (A) (A) (A) (A) (A) (A)
                 (A) (A) (A) (A) (A) (A) (A) (A) (A) (A) (A) (A)
                 (A) (A) (A) (A) (A) (A) (A) (A) (A) (A) (A) (A)
                 (A) (A) (A) (A) (A) (A) (A) (A) (A) (A) (A) (A)
                 (A) (A) (A) (A) (A) (A) (A) (A) (A) (A) (A) (A)
                 (A) (A) (A) (A) (A) (A) (A) (A) (A) (A) (A) (A)
                 (A) (A) (A) (A) (A) (A) (A) (A) (A) (A) (A) (A)
                 (A) (A) (A) (A) (A) (A) (A) (A) (A) (A) (A) (A)
                 (A) (A) (A) (A) (A) (A) (A) (A) (A) (A) (A) (A)
                 (A) (A) (A) (A) (A) (A) (A) (A) (A) (A) (A) (A)
                 (A) (A) (A) (A) (A) (A) (A) (A) (A) (A) (A) (A)
                 (A) (A) (A) (A) (A) (A) (A) (A) (A) (A) (A) (A)
                 (A) (A) (A) (A) (A) (A) (A) (A) (A) (A) (A) (A)
                 (A) (A) (A) (A) (A) (A) (A) (A) (A) (A) (A) (A)
                 (A) (A) (A) (A) (A) (A) (A) (A) (A) (A) (A) (A)
                 (A) (A) (A) (A) (A) (A) (A) (A) (A) (A) (A) (A)
                 (A) (A) (A) (A) (A) (A) (A) (A) (A) (A) (A) (A)
                 (A) (A) (A) (A) (A) (A) (A) (A) (A) (A) (A) (A)
                 (A) (A) (A) (A) (A) (A) (A) (A) (A) (A) (A) (A)
                 (A) (A) (A) (A) (A) (A) (A) (A) (A) (A) (A) (A)
                 (A) (A) (A) (A) (A) (A) (A) (A) (A) (A) (A) (A)
                 (A) (A) (A) (A) (A) (A) (A) (A) (A) (A) (A) (A)
                 (A) (A) (A) (A) (A) (A) (A) (A) (A) (A) (A) (A)
                 (A) (A) (A) (A) (A) (A) (A) (A) (A) (A) (A) (A)
                 (A) (A) (A) (A) (A) (A) (A) (A) (A) (A) (A) (A)
                 (A) (A) (A) (A) (A) (A) (A) (A) (A) (A) (A) (A)
                 (A) (A) (A) (A) (A) (A) (A) (A) (A) (A) (A) (A)
                 (A) (A) (A) (A) (A) (A) (A) (A) (A) (A) (A) (A)
                 (A) (A) (A) (A) (A) (A) (A) (A) (A) (A) (A) (A)
                 (A) (A) (A) (A) (A) (A) (A) (A) (A) (A) (A) (A)
                 (A) (A) (A) (A) (A) (A) (A) (A) (A) (A) (A) (A)
                 (A) (A) (A) (A) (A) (A) (A) (A) (A) (A) (A) (A)
                 (A) (A) (A) (A) (A) (A) (A) (A) (A) (A) (A) (A)
                 (A) (A) (A) (A) (A) (A) (A) (A) (A) (A) (A) (A)
                 (A) (A) (A) (A) (A) (A) (A) (A) (A) (A) (A) (A)
                 (A) (A) (A) (A) (A) (A) (A) (A) (A) (A) (A) (A)
                 (A) (A) (A) (A) (A) (A) (A) (A) (A) (A) (A) (A)
                 (A) (A) (A) (A) (A) (A) (A) (A) (A) (A) (A) (A)
                 (A) (A) (A) (A) (A) (A) (A) (A) (A) (A) (A) (A)
                 (A) (A) (A) (A) (A) (A) (A) (A) (A) (A) (A) (A)
                 (A) (A) (A) (A) (A) (A) (A) (A) (A) (A) (A) (A)
                 (A) (A) (A) (A) (A) (A) (A) (A) (A) (A) (A) (A)
                 (A) (A) (A) (A) (A) (A) (A) (A) (A) (A) (A) (A)
                 (A) (A) (A) (A) (A) (A) (A) (A) (A) (A) (A) (A)
                 (A) (A) (A) (A) (A) (A) (A) (A) (A) (A) (A) (A)
                 (A) (A) (A) (A) (A) (A) (A) (A) (A) (A) (A) (A)
                 (A) (A) (A) (A) (A) (A) (A) (A) (A) (A) (A) (A)
                 (A) (A) (A) (A) (A) (A) (A) (A) (A) (A) (A) (A)
                 (A) (A) (A) (A) (A) (A) (A) (A) (A) (A) (A) (A)
                 (A) (A) (A) (A) (A) (A) (A) (A) (A) (A) (A) (A)
                 (A) (A) (A) (A) (A) (A) (A) (A) (A) (A) (A) (A)
                 (A) (A) (A) (A) (A) (A) (A) (A) (A) (A) (A) (A)
                 (A) (A) (A) (A) (A) (A) (A) (A) (A) (A) (A) (A)
                 (A) (A) (A) (A) (A) (A) (A) (A) (A) (A) (A) (A)
                 (A) (A) (A) (A) (A) (A) (A) (A) (A) (A) (A) (A)
                 (A) (A) (A) (A) (A) (A) (A) (A) (A) (A) (A) (A)
                 (A) (A) (A) (A) (A) (A) (A) (A) (A) (A) (A) (A)
                 (A) (A) (A) (A) (A) (A) (A) (A) (A) (A) (A) (A)
                 (A) (A) (A) (A) (A) (A) (A) (A) (A) (A) (A) (A)
                 (A) (A) (A) (A) (A) (A) (A) (A) (A) (A) (A) (A)
                 (A) (A) (A) (A) (A) (A) (A) (A) (A) (A) (A) (A)
                 (A) (A) (A) (A) (A) (A) (A) (A) (A) (A) (A) (A)
                 (A) (A) (A) (A) (A) (A) (A) (A) (A) (A) (A) (A)
                 (A) (A) (A) (A) (A) (A) (A) (A) (A) (A) (A) (A)
                 (A) (A) (A) (A) (A) (A) (A) (A) (A) (A) (A) (A)
                 (A) (A) (A) (A) (A) (A) (A) (A) (A) (A) (A) (A)
                 (A) (A) (A) (A) (A) (A) (A) (A) (A) (A) (A) (A)
                 (A) (A) (A) (A) (A) (A) (A) (A) (A) (A) (A) (A)
                 (A) (A) (A) (A) (A) (A) (A) (A) (A) (A) (A) (A)
                 (A) (A) (A) (A) (A) (A) (A) (A) (A) (A) (A) (A)
                 (A) (A) (A) (A) (A) (A) (A) (A) (A) (A) (A) (A)
                 (A) (A) (A) (A) (A) (A) (A) (A) (A) (A) (A) (A)
                 (A) (A) (A) (A) (A) (A) (A) (A) (A) (A) (A) (A)
                 (A) (A) (A) (A) (A) (A) (A) (A) (A) (A) (A) (A)
                 (A) (A) (A) (A) (A) (A) (A) (A) (A) (A) (A) (A)
                 (A) (A) (A) (A) (A) (A) (A) (A) (A) (A) (A) (A)
                 (A) (A) (A) (A) (A) (A) (A) (A) (A) (A) (A) (A)
                 (A) (A) (A) (A) (A) (A) (A) (A) (A) (A) (A) (A)
                 (A) (A) (A) (A) (A) (A) (A) (A) (A) (A) (A) (A)
                 (A) (A) (A) (A) (A) (A) (A) (A) (A) (A) (A) (A)
                 (A) (A) (A) (A) (A) (A) (A) (A) (A) (A) (A) (A)
                 (A) (A) (A) (A) (A) (A) (A) (A) (A) (A) (A) (A)
                 (A) (A) (A) (A) (A) (A) (A) (A) (A) (A) (A) (A)
                 (A) (A) (A) (A) (A) (A) (A) (A) (A) (A) (A) (A)
                 (A) (A) (A) (A) (A) (A) (A) (A) (A) (A) (A) (A)
                 (A) (A) (A) (A) (A) (A) (A) (A) (A) (A) (A) (A)
                 (A) (A) (A) (A) (A) (A) (A) (A) (A) (A) (A) (A)
                 (A) (A) (A) (A) (A) (A) (A) (A) (A) (A) (A) (A)
                 (A) (A) (A) (A) (A) (A) (A) (A) (A) (A) (A) (A)
                 (A) (A) (A) (A) (A) (A) (A) (A) (A) (A) (A) (A)
                 (A) (A) (A) (A) (A) (A) (A) (A) (A) (A) (A) (A)
                 (A) (A) (A) (A) (A) (A) (A) (A) (A) (A) (A) (A)
                 (A) (A) (A) (A) (A) (A) (A) (A) (A) (A) (A) (A)
                 (A) (A) (A) (A) (A) (A) (A) (A) (A) (A) (A) (A)
                 (A) (A) (A) (A) (A) (A) (A) (A) (A) (A) (A) (A)
                 (A) (A) (A) (A) (A) (A) (A) (A) (A) (A) (A) (A)
                 (A) (A) (A) (A) (A) (A) (A) (A) (A) (A) (A) (A)
                 (A) (A) (A) (A) (A) (A) (A) (A) (A) (A) (A) (A)
                 (A) (A) (A) (A) (A) (A) (A) (A) (A) (A) (A) (A)
                 (A) (A) (A) (A) (A) (A) (A) (A) (A) (A) (A) (A)
                 (A) (A) (A) (A) (A) (A) (A) (A) (A) (A) (A) (A)
                 (A) (A) (A) (A) (A) (A) (A) (A) (A) (A) (A) (A)
                 (A) (A) (A) (A) (A) (A) (A) (A) (A) (A) (A) (A)
                 (A) (A) (A) (A) (A) (A) (A) (A) (A) (A) (A) (A)
                 (A) (A) (A) (A) (A) (A) (A) (A) (A) (A) (A) (A)
                 (A) (A) (A) (A) (A) (A) (A) (A) (A) (A) (A) (A)
                 (A) (A) (A) (A) (A) (A) (A) (A) (A) (A) (A) (A)
                 (A) (A) (A) (A) (A) (A) (A) (A) (A) (A) (A) (A)
                 (A) (A) (A) (A) (A) (A) (A) (A) (A) (A) (A) (A)
                 (A) (A) (A) (A) (A) (A) (A) (A) (A) (A) (A) (A)
                 (A) (A) (A) (A) (A) (A) (A) (A) (A) (A) (A) (A)
                 (A) (A) (A) (A) (A) (A) (A) (A) (A) (A) (A) (A)
                 (A) (A) (A) (A) (A) (A) (A) (A) (A) (A) (A) (A)
                 (A) (A) (A) (A) (A) (A) (A) (A) (A) (A) (A) (A)
                 (A) (A) (A) (A) (A) (A) (A) (A) (A) (A)
 The electronic state is 1-A.
 Alpha  occ. eigenvalues --  -25.21134 -25.21052 -19.68867 -19.68814 -19.68761
 Alpha  occ. eigenvalues --  -19.68704 -19.67779 -19.67508 -19.66917 -19.66891
 Alpha  occ. eigenvalues --  -19.66664 -15.02394 -15.02279 -14.85202 -14.82291
 Alpha  occ. eigenvalues --  -14.79792 -14.79398 -14.78545 -10.65634 -10.65325
 Alpha  occ. eigenvalues --  -10.62721 -10.62279 -10.62273 -10.62189 -10.62130
 Alpha  occ. eigenvalues --  -10.62068 -10.61781 -10.61378 -10.61169 -10.61142
 Alpha  occ. eigenvalues --  -10.60182 -10.59905 -10.59864 -10.59843 -10.59429
 Alpha  occ. eigenvalues --  -10.59423 -10.59372 -10.58471 -10.58455 -10.58404
 Alpha  occ. eigenvalues --  -10.58174 -10.58171 -10.57908 -10.57884 -10.57687
 Alpha  occ. eigenvalues --  -10.57237 -10.57209 -10.57109 -10.56903 -10.56898
 Alpha  occ. eigenvalues --  -10.56746 -10.56645 -10.56645 -10.56432 -10.56305
 Alpha  occ. eigenvalues --  -10.55802 -10.55759 -10.55620 -10.55571 -10.55408
 Alpha  occ. eigenvalues --  -10.55281 -10.55264 -10.55141 -10.54991 -10.54413
 Alpha  occ. eigenvalues --  -10.54395 -10.54135 -10.54123 -10.54066  -7.14084
 Alpha  occ. eigenvalues --   -7.11592  -7.11403  -5.10962  -5.10776  -5.09884
 Alpha  occ. eigenvalues --   -5.09878  -5.09702  -5.09682  -2.07812  -2.07627
 Alpha  occ. eigenvalues --   -2.07345  -2.07342  -2.07161  -2.07149  -2.06447
 Alpha  occ. eigenvalues --   -2.06446  -2.06255  -2.06254  -1.37575  -1.37467
 Alpha  occ. eigenvalues --   -1.33009  -1.29835  -1.22192  -1.21877  -1.21583
 Alpha  occ. eigenvalues --   -1.19576  -1.19460  -1.19448  -1.18658  -1.18523
 Alpha  occ. eigenvalues --   -1.11808  -1.09989  -1.03211  -1.00760  -1.00546
 Alpha  occ. eigenvalues --   -0.98579  -0.96843  -0.94874  -0.94320  -0.93547
 Alpha  occ. eigenvalues --   -0.92963  -0.92849  -0.92057  -0.91832  -0.91247
 Alpha  occ. eigenvalues --   -0.90701  -0.89477  -0.88353  -0.87669  -0.86672
 Alpha  occ. eigenvalues --   -0.86114  -0.85953  -0.85495  -0.84539  -0.83858
 Alpha  occ. eigenvalues --   -0.82793  -0.82058  -0.81560  -0.81267  -0.81132
 Alpha  occ. eigenvalues --   -0.79871  -0.79623  -0.78576  -0.78335  -0.77641
 Alpha  occ. eigenvalues --   -0.76476  -0.74281  -0.73090  -0.72740  -0.72516
 Alpha  occ. eigenvalues --   -0.72159  -0.71775  -0.71103  -0.70926  -0.70149
 Alpha  occ. eigenvalues --   -0.69452  -0.68503  -0.68149  -0.67178  -0.66660
 Alpha  occ. eigenvalues --   -0.66375  -0.65563  -0.65351  -0.65260  -0.64619
 Alpha  occ. eigenvalues --   -0.64238  -0.64126  -0.63642  -0.63597  -0.63168
 Alpha  occ. eigenvalues --   -0.62646  -0.62443  -0.62270  -0.61727  -0.61196
 Alpha  occ. eigenvalues --   -0.60712  -0.60551  -0.59959  -0.59262  -0.59246
 Alpha  occ. eigenvalues --   -0.59171  -0.59100  -0.58584  -0.57785  -0.57626
 Alpha  occ. eigenvalues --   -0.56979  -0.56925  -0.56523  -0.55897  -0.55624
 Alpha  occ. eigenvalues --   -0.55143  -0.54809  -0.54431  -0.53967  -0.53809
 Alpha  occ. eigenvalues --   -0.53424  -0.53299  -0.53116  -0.53084  -0.52922
 Alpha  occ. eigenvalues --   -0.52787  -0.52582  -0.52319  -0.52031  -0.51793
 Alpha  occ. eigenvalues --   -0.51562  -0.51260  -0.50506  -0.50326  -0.50123
 Alpha  occ. eigenvalues --   -0.50053  -0.49952  -0.49614  -0.49590  -0.49223
 Alpha  occ. eigenvalues --   -0.49033  -0.48864  -0.48727  -0.48408  -0.48197
 Alpha  occ. eigenvalues --   -0.48025  -0.47771  -0.47544  -0.47390  -0.47132
 Alpha  occ. eigenvalues --   -0.46915  -0.46257  -0.46104  -0.45695  -0.45555
 Alpha  occ. eigenvalues --   -0.45410  -0.45210  -0.45029  -0.44874  -0.44460
 Alpha  occ. eigenvalues --   -0.44316  -0.44039  -0.43742  -0.43326  -0.43234
 Alpha  occ. eigenvalues --   -0.42897  -0.42611  -0.42359  -0.42248  -0.42063
 Alpha  occ. eigenvalues --   -0.41657  -0.41536  -0.41428  -0.40975  -0.40727
 Alpha  occ. eigenvalues --   -0.40593  -0.40403  -0.40303  -0.40252  -0.40200
 Alpha  occ. eigenvalues --   -0.39521  -0.39362  -0.38415  -0.38183  -0.38122
 Alpha  occ. eigenvalues --   -0.37398  -0.36747  -0.36693  -0.35841  -0.35812
 Alpha  occ. eigenvalues --   -0.35286  -0.35025  -0.34895  -0.34626  -0.34441
 Alpha  occ. eigenvalues --   -0.33093  -0.32837  -0.32735  -0.32602  -0.31945
 Alpha  occ. eigenvalues --   -0.30882  -0.30349  -0.29691  -0.29286  -0.28547
 Alpha  occ. eigenvalues --   -0.27321  -0.25109
 Alpha virt. eigenvalues --   -0.10221  -0.08087  -0.07975  -0.03406  -0.02286
 Alpha virt. eigenvalues --    0.00018   0.00099   0.00318   0.00607   0.01210
 Alpha virt. eigenvalues --    0.01321   0.01478   0.01792   0.03370   0.03998
 Alpha virt. eigenvalues --    0.04375   0.04799   0.05110   0.05913   0.06149
 Alpha virt. eigenvalues --    0.06317   0.06559   0.07064   0.07212   0.07579
 Alpha virt. eigenvalues --    0.07628   0.08071   0.08115   0.08281   0.08490
 Alpha virt. eigenvalues --    0.08627   0.08910   0.09162   0.09191   0.09477
 Alpha virt. eigenvalues --    0.09733   0.10000   0.10134   0.10289   0.10459
 Alpha virt. eigenvalues --    0.10787   0.10869   0.11146   0.11420   0.11598
 Alpha virt. eigenvalues --    0.11718   0.11799   0.11901   0.12172   0.12413
 Alpha virt. eigenvalues --    0.12676   0.12880   0.12992   0.13352   0.13407
 Alpha virt. eigenvalues --    0.13517   0.13778   0.14036   0.14131   0.14224
[...]
 Alpha virt. eigenvalues --    4.41219   4.41362   4.42213   4.42699   4.42755
 Alpha virt. eigenvalues --    4.43606   4.44007   4.44176   4.45023   4.45685
 Alpha virt. eigenvalues --    4.45996   4.46337   4.46576   4.47494   4.47781
 Alpha virt. eigenvalues --    4.47987   4.48730   4.49090   4.49490   4.49703
 Alpha virt. eigenvalues --    4.49983   4.50180   4.50417   4.50624   4.50842
 Alpha virt. eigenvalues --    4.50893   4.51558   4.51990   4.52451   4.52784
 Alpha virt. eigenvalues --    4.53126   4.53284   4.53471   4.53795   4.54021
 Alpha virt. eigenvalues --    4.54230   4.54456   4.54786   4.55093   4.55525
 Alpha virt. eigenvalues --    4.55655   4.56072   4.56371   4.56762   4.57171
 Alpha virt. eigenvalues --    4.57257   4.57363   4.57957   4.58371   4.58564
 Alpha virt. eigenvalues --    4.58790   4.59338   4.59620   4.60110   4.60366
 Alpha virt. eigenvalues --    4.60678   4.60892   4.61105   4.61424   4.61521
 Alpha virt. eigenvalues --    4.62058   4.62206   4.62453   4.62782   4.63201
 Alpha virt. eigenvalues --    4.63495   4.63906   4.63959   4.64451   4.64620
 Alpha virt. eigenvalues --    4.65139   4.65335   4.65763   4.66184   4.66267
 Alpha virt. eigenvalues --    4.66482   4.67296   4.67428   4.67816   4.68109
 Alpha virt. eigenvalues --    4.68445   4.68515   4.68758   4.68869   4.69486
 Alpha virt. eigenvalues --    4.69597   4.69773   4.70089   4.70674   4.70915
 Alpha virt. eigenvalues --    4.71022   4.71250   4.71657   4.71840   4.71876
 Alpha virt. eigenvalues --    4.72022   4.72249   4.72883   4.73071   4.73216
 Alpha virt. eigenvalues --    4.73714   4.74135   4.74454   4.75577   4.76004
 Alpha virt. eigenvalues --    4.76631   4.76703   4.77009   4.77240   4.77595
 Alpha virt. eigenvalues --    4.77868   4.78016   4.78348   4.78449   4.78627
 Alpha virt. eigenvalues --    4.78851   4.79135   4.79692   4.79980   4.80508
 Alpha virt. eigenvalues --    4.80963   4.81841   4.81993   4.82355   4.82418
 Alpha virt. eigenvalues --    4.82590   4.82784   4.83584   4.83933   4.83950
 Alpha virt. eigenvalues --    4.84584   4.84695   4.84744   4.84911   4.85256
 Alpha virt. eigenvalues --    4.85572   4.85605   4.85839   4.86383   4.86675
 Alpha virt. eigenvalues --    4.87059   4.87431   4.87556   4.87864   4.88523
 Alpha virt. eigenvalues --    4.88869   4.89130   4.89226   4.89699   4.89961
 Alpha virt. eigenvalues --    4.90641   4.90827   4.91452   4.92142   4.92672
 Alpha virt. eigenvalues --    4.93205   4.93628   4.93980   4.94001   4.94449
 Alpha virt. eigenvalues --    4.94572   4.94606   4.94755   4.95333   4.95478
 Alpha virt. eigenvalues --    4.95639   4.95970   4.96107   4.96464   4.96517
 Alpha virt. eigenvalues --    4.96985   4.97176   4.97818   4.98345   4.98780
 Alpha virt. eigenvalues --    4.99489   4.99947   5.00244   5.00694   5.01113
 Alpha virt. eigenvalues --    5.01494   5.01586   5.01848   5.02005   5.02215
 Alpha virt. eigenvalues --    5.02893   5.03239   5.03489   5.04456   5.04823
 Alpha virt. eigenvalues --    5.04954   5.05332   5.05643   5.05867   5.06556
 Alpha virt. eigenvalues --    5.06918   5.07061   5.07227   5.07994   5.08186
 Alpha virt. eigenvalues --    5.09342   5.09605   5.09767   5.10727   5.10865
 Alpha virt. eigenvalues --    5.11166   5.11288   5.11690   5.12038   5.12404
 Alpha virt. eigenvalues --    5.12693   5.13206   5.13846   5.14409   5.14466
 Alpha virt. eigenvalues --    5.14696   5.14783   5.15114   5.15329   5.15688
 Alpha virt. eigenvalues --    5.16019   5.16222   5.16249   5.16752   5.16864
 Alpha virt. eigenvalues --    5.17082   5.17550   5.17940   5.19090   5.19769
 Alpha virt. eigenvalues --    5.20083   5.20976   5.21440   5.21545   5.22668
 Alpha virt. eigenvalues --    5.23006   5.23307   5.23574   5.23699   5.24451
 Alpha virt. eigenvalues --    5.24777   5.25178   5.25654   5.25920   5.26266
 Alpha virt. eigenvalues --    5.26436   5.26502   5.26816   5.27403   5.27749
 Alpha virt. eigenvalues --    5.28023   5.28369   5.28809   5.28877   5.29405
 Alpha virt. eigenvalues --    5.29781   5.30084   5.30298   5.30414   5.30927
 Alpha virt. eigenvalues --    5.31384   5.31738   5.32423   5.32507   5.32790
 Alpha virt. eigenvalues --    5.33216   5.33946   5.34042   5.34230   5.34682
 Alpha virt. eigenvalues --    5.34882   5.35055   5.35797   5.36213   5.36707
 Alpha virt. eigenvalues --    5.37410   5.37777   5.37926   5.38463   5.39164
 Alpha virt. eigenvalues --    5.39255   5.39528   5.39911   5.40513   5.40920
 Alpha virt. eigenvalues --    5.41417   5.41627   5.42102   5.42659   5.42771
 Alpha virt. eigenvalues --    5.43005   5.43479   5.43585   5.43847   5.44132
 Alpha virt. eigenvalues --    5.44570   5.44940   5.45311   5.45484   5.45764
 Alpha virt. eigenvalues --    5.46261   5.47574   5.48178   5.48376   5.48621
 Alpha virt. eigenvalues --    5.49040   5.49124   5.49790   5.50009   5.50736
 Alpha virt. eigenvalues --    5.51290   5.51486   5.51918   5.52234   5.52808
 Alpha virt. eigenvalues --    5.52942   5.53730   5.54029   5.54127   5.54778
 Alpha virt. eigenvalues --    5.54910   5.55258   5.55607   5.56133   5.56595
 Alpha virt. eigenvalues --    5.56931   5.57118   5.57759   5.57811   5.57913
 Alpha virt. eigenvalues --    5.59568   5.59591   5.59714   5.59785   5.60080
 Alpha virt. eigenvalues --    5.60218   5.60555   5.61355   5.61558   5.62148
 Alpha virt. eigenvalues --    5.62693   5.63428   5.64165   5.64375   5.64803
 Alpha virt. eigenvalues --    5.65354   5.65726   5.66619   5.66980   5.67153
 Alpha virt. eigenvalues --    5.67394   5.67826   5.68048   5.68836   5.69906
 Alpha virt. eigenvalues --    5.70519   5.70741   5.71407   5.71643   5.72880
 Alpha virt. eigenvalues --    5.73460   5.74424   5.74752   5.75741   5.75750
 Alpha virt. eigenvalues --    5.76103   5.76969   5.77658   5.80116   5.80799
 Alpha virt. eigenvalues --    5.81962   5.82283   5.82866   5.84563   5.86112
 Alpha virt. eigenvalues --    5.86311   5.86366   5.86624   5.87990   5.89914
 Alpha virt. eigenvalues --    5.90457   5.91559   5.92410   5.92746   5.93705
 Alpha virt. eigenvalues --    5.94020   5.96151   5.96364   5.97077   5.97455
 Alpha virt. eigenvalues --    5.99130   5.99465   6.00092   6.00985   6.03107
 Alpha virt. eigenvalues --    6.04570   6.05656   6.08110   6.10103   6.12157
 Alpha virt. eigenvalues --    6.13228   6.15251   6.17282   6.19415   6.19756
 Alpha virt. eigenvalues --    6.20038   6.22290   6.22473   6.22748   6.23024
 Alpha virt. eigenvalues --    6.26883   6.27052   6.27793   6.27957   6.31171
 Alpha virt. eigenvalues --    6.31560   6.36745   6.41865   6.42314   6.42621
 Alpha virt. eigenvalues --    6.43274   6.43716   6.43948   6.45472   6.47601
 Alpha virt. eigenvalues --    6.50625   6.57169   6.57443   6.57694   6.58116
 Alpha virt. eigenvalues --    6.58136   6.70343   6.70891   6.72596   6.73581
 Alpha virt. eigenvalues --    6.74024   6.74195   6.74637   6.75008   6.76492
 Alpha virt. eigenvalues --    6.80056   6.80131   6.80418   6.80656   6.81578
 Alpha virt. eigenvalues --    6.82181   6.82386   6.84446   6.84456   6.84579
 Alpha virt. eigenvalues --    6.87526   6.88093   6.91698   6.93744   6.93805
 Alpha virt. eigenvalues --    6.94138   6.94606   6.95739   6.96484   6.97935
 Alpha virt. eigenvalues --    6.98197   6.99050   6.99650   7.00581   7.04616
 Alpha virt. eigenvalues --    7.06453   7.06593   7.10272   7.13505   7.13736
 Alpha virt. eigenvalues --    7.16498   7.22769   7.23682   7.23956   7.24459
 Alpha virt. eigenvalues --    7.27264   7.27281   7.27862   7.28485   7.29797
 Alpha virt. eigenvalues --    7.32200   7.33520   7.34569   7.41898   7.41933
 Alpha virt. eigenvalues --    7.43647   7.44048   7.44104   7.49319   7.49636
 Alpha virt. eigenvalues --    7.51131   7.51289   7.60025   7.60364   8.46187
 Alpha virt. eigenvalues --    8.48658   8.54855   8.60224   8.84143   8.87921
 Alpha virt. eigenvalues --    8.93086   8.93968   8.95034   8.99817  15.85452
 Alpha virt. eigenvalues --   22.74412  22.74956  22.76213  22.84926  22.88172
 Alpha virt. eigenvalues --   22.95203  23.01180  23.04990  23.05975  23.09432
 Alpha virt. eigenvalues --   23.11623  23.14733  23.14893  23.16503  23.18269
 Alpha virt. eigenvalues --   23.18333  23.19248  23.20627  23.22268  23.22842
 Alpha virt. eigenvalues --   23.24286  23.25990  23.26987  23.29290  23.32289
 Alpha virt. eigenvalues --   23.33205  23.34466  23.35432  23.36010  23.38012
 Alpha virt. eigenvalues --   23.38801  23.39359  23.39614  23.44178  23.49210
 Alpha virt. eigenvalues --   23.49426  23.54306  23.54919  23.55957  23.59642
 Alpha virt. eigenvalues --   23.60003  23.61682  23.63683  23.71377  23.76378
 Alpha virt. eigenvalues --   23.77245  23.82252  23.99488  24.03985  24.04792
 Alpha virt. eigenvalues --   24.14183  32.04673  32.32383  32.56774  32.56885
 Alpha virt. eigenvalues --   33.09521  33.14588  33.24830  34.47778  34.51524
 Alpha virt. eigenvalues --   34.60245  34.62157  34.89120  34.91594  42.91584
 Alpha virt. eigenvalues --   42.92595  44.22454  44.23202  44.24433  44.25621
 Alpha virt. eigenvalues --   44.29484  44.30426  44.54493  44.62612  44.64689
 Alpha virt. eigenvalues --   57.44875  57.58466 117.58887 117.59284
          Condensed to atoms (all electrons):
 Mulliken charges:
               1
     1  C   -0.429454
     2  C    0.033866
     3  C   -0.041460
     4  I   -0.049471
     5  C    0.080090
     6  C   -0.138772
     7  C   -0.096779
     8  C    0.004173
     9  C   -0.123832
    10  C   -0.156399
    11  C    0.241961
    12  O   -0.343622
    13  C   -0.103967
    14  C   -0.006900
    15  N    0.507351
    16  O   -0.359480
    17  O   -0.400836
    18  N   -0.077599
    19  C    0.075100
    20  C    0.171668
    21  C    0.110728
    22  C    0.053811
    23  C   -0.433390
    24  C   -0.042533
    25  I   -0.036528
    26  C    0.022943
    27  C   -0.222653
    28  C   -0.083084
    29  C   -0.041464
    30  C   -0.092429
    31  C   -0.154111
    32  C    0.231539
    33  O   -0.348860
    34  C   -0.043316
    35  C   -0.089514
    36  N    0.513086
    37  O   -0.404162
    38  O   -0.362488
    39  N   -0.097866
    40  B    0.389223
    41  F   -0.351120
    42  F   -0.330531
    43  C   -0.284361
    44  C   -0.124025
    45  C   -0.159540
    46  C    0.253257
    47  O   -0.301739
    48  C   -0.133414
    49  C   -0.231451
    50  C   -0.255453
    51  C   -0.229331
    52  C   -0.204121
    53  C   -0.308503
    54  N    0.128934
    55  N   -0.163903
    56  N   -0.229530
    57  C   -0.109365
    58  C   -0.017534
    59  C   -0.171599
    60  O   -0.309017
    61  C    0.212649
    62  C   -0.196571
    63  C   -0.153696
    64  C    0.193898
    65  O   -0.298671
    66  C   -0.182565
    67  C   -0.382525
    68  C    0.067144
    69  C   -0.213141
    70  C   -0.158327
    71  C   -0.124503
    72  C   -0.200648
    73  H    0.160814
    74  H    0.133304
    75  H    0.173888
    76  H    0.119780
    77  H    0.137372
    78  H    0.162936
    79  H    0.168463
    80  H    0.274737
    81  H    0.175243
    82  H    0.170311
    83  H    0.161937
    84  H    0.137451
    85  H    0.166637
    86  H    0.153507
    87  H    0.156521
    88  H    0.167331
    89  H    0.273649
    90  H    0.191969
    91  H    0.174186
    92  H    0.164426
    93  H    0.123633
    94  H    0.166560
    95  H    0.134455
    96  H    0.142069
    97  H    0.122125
    98  H    0.132522
    99  H    0.132987
   100  H    0.129127
   101  H    0.149286
   102  H    0.118092
   103  H    0.185388
   104  H    0.201568
   105  H    0.174209
   106  H    0.182329
   107  H    0.185068
   108  H    0.158633
   109  H    0.152981
   110  H    0.170509
   111  H    0.194512
   112  H    0.290232
   113  H    0.159065
   114  H    0.145427
   115  H    0.159958
   116  H    0.179531
 Sum of Mulliken charges =  -0.00000
 Mulliken charges with hydrogens summed into heavy atoms:
               1
     1  C    0.038552
     2  C    0.033866
     3  C   -0.041460
     4  I   -0.049471
     5  C    0.080090
     6  C   -0.018991
     7  C    0.040593
     8  C    0.004173
     9  C    0.039104
    10  C    0.012064
    11  C    0.241961
    12  O   -0.068885
    13  C   -0.103967
    14  C    0.168343
    15  N    0.507351
    16  O   -0.359480
    17  O   -0.400836
    18  N   -0.077599
    19  C    0.075100
    20  C    0.171668
    21  C    0.110728
    22  C    0.053811
    23  C    0.036309
    24  C   -0.042533
    25  I   -0.036528
    26  C    0.022943
    27  C   -0.056016
    28  C    0.070424
    29  C   -0.041464
    30  C    0.064091
    31  C    0.013220
    32  C    0.231539
    33  O   -0.075211
    34  C   -0.043316
    35  C    0.102456
    36  N    0.513086
    37  O   -0.404162
    38  O   -0.362488
    39  N   -0.097866
    40  B    0.389223
    41  F   -0.351120
    42  F   -0.330531
    43  C   -0.284361
    44  C    0.050162
    45  C    0.004887
    46  C    0.253257
    47  O   -0.301739
    48  C    0.156779
    49  C    0.045073
    50  C   -0.000806
    51  C    0.032783
    52  C    0.063257
    53  C    0.078453
    54  N    0.128934
    55  N   -0.163903
    56  N   -0.229530
    57  C    0.064845
    58  C   -0.017534
    59  C    0.195799
    60  O   -0.309017
    61  C    0.212649
    62  C   -0.037938
    63  C   -0.000716
    64  C    0.193898
    65  O   -0.298671
    66  C    0.182456
    67  C   -0.382525
    68  C    0.357376
    69  C   -0.054076
    70  C   -0.012900
    71  C    0.035455
    72  C   -0.021118
 Electronic spatial extent (au):  <R**2>=         133821.5630
 Charge=             -0.0000 electrons
 Dipole moment (field-independent basis, Debye):
    X=             14.2855    Y=             -5.6906    Z=             -4.2896  Tot=             15.9643
 Quadrupole moment (field-independent basis, Debye-Ang):
   XX=           -458.4533   YY=           -427.8587   ZZ=           -454.6212
   XY=            -39.3918   XZ=             27.6207   YZ=             12.6943
 Traceless Quadrupole moment (field-independent basis, Debye-Ang):
   XX=            -11.4756   YY=             19.1190   ZZ=             -7.6435
   XY=            -39.3918   XZ=             27.6207   YZ=             12.6943
 Octapole moment (field-independent basis, Debye-Ang**2):
  XXX=           1709.2911  YYY=             75.4828  ZZZ=            -81.1796  XYY=           -187.1914
  XXY=           -537.7625  XXZ=            -43.8849  XZZ=             12.0690  YZZ=             17.8183
  YYZ=            -88.5824  XYZ=           -124.1012
 Hexadecapole moment (field-independent basis, Debye-Ang**3):
 XXXX=        -140812.6117 YYYY=         -28285.0388 ZZZZ=          -6913.7503 XXXY=          -1244.0134
 XXXZ=           3458.9959 YYYX=           -353.3624 YYYZ=            912.2969 ZZZX=            275.9867
 ZZZY=            805.2019 XXYY=         -28749.9472 XXZZ=         -25153.3999 YYZZ=          -6055.7179
 XXYZ=           1648.8983 YYXZ=            761.3841 ZZXY=            124.0960
 N-N= 1.133104756593D+04 E-N=-3.151562233912D+04  KE= 3.464183887793D+03
 Leave Link  601 at Thu Nov  6 12:30:39 2025, MaxMem= 30870077440 cpu:             116.5 elap:               2.4
 (Enter /public/software/gauss/g16/l9999.exe)
 1\1\GINC-CU015\SP\RM062X\def2TZVPP\C51H44B1F2I2N7O9\BAIDING\06-Nov-202
 5\0\\#p M062X/DEF2TZVPP scrf=(solvent=water) em=GD3\\Energy calculatio
 n for M100033388\\0,1\C,0,0.286235,2.576001,1.717655\C,0,-1.062584,2.3
 72025,1.102629\C,0,-1.984484,3.374517,0.819772\I,0,-1.761689,5.403467,
 1.275951\C,0,-3.141953,2.803201,0.218489\C,0,-4.318025,3.5483,-0.17049
 1\C,0,-5.586494,3.085722,-0.275103\C,0,-6.755531,3.875943,-0.647563\C,
 0,-6.695489,5.227217,-1.084965\C,0,-7.831643,5.93193,-1.42431\C,0,-9.1
 04407,5.334529,-1.350641\O,0,-10.169821,6.069116,-1.695626\C,0,-9.1708
 55,3.986215,-0.916851\C,0,-8.011657,3.276308,-0.576524\N,0,-10.434087,
 3.311913,-0.814449\O,0,-10.472562,2.140528,-0.433995\O,0,-11.478452,3.
 938771,-1.117345\N,0,-2.927227,1.461655,0.099531\C,0,-1.672505,1.15593
 7,0.645144\C,0,-1.163527,-0.159132,0.621275\C,0,-1.839711,-1.17579,-0.
 085615\C,0,-1.589077,-2.578704,-0.216488\C,0,-0.520337,-3.411416,0.419
 265\C,0,-2.589978,-3.05551,-1.071342\I,0,-2.731814,-5.001748,-1.81525\
 C,0,-3.4417,-1.983135,-1.431481\C,0,-4.5736,-1.958315,-2.366502\C,0,-5
 .71574,-2.666055,-2.282789\C,0,-6.182983,-3.503252,-1.167892\C,0,-6.97
 6123,-4.646487,-1.437676\C,0,-7.441392,-5.466989,-0.427744\C,0,-7.1569
 54,-5.179054,0.917981\O,0,-7.631631,-6.011545,1.857155\C,0,-6.394005,-
 4.015065,1.193024\C,0,-5.922613,-3.188271,0.162183\N,0,-6.098298,-3.63
 7447,2.546888\O,0,-6.506861,-4.369237,3.480821\O,0,-5.451823,-2.611846
 ,2.768085\N,0,-2.972174,-0.858746,-0.836739\B,0,-3.81142,0.432179,-0.6
 60064\F,0,-4.954949,0.105744,0.103267\F,0,-4.196775,0.932053,-1.901345
 \C,0,0.102532,-0.475077,1.33291\C,0,0.146132,-0.492385,2.737331\C,0,1.
 32375,-0.800813,3.405549\C,0,2.497351,-1.077686,2.684191\O,0,3.602362,
 -1.34152,3.443563\C,0,4.856237,-1.673827,2.808243\C,0,4.919483,-3.1502
 41,2.415644\C,0,6.312187,-3.612633,1.935133\C,0,6.569904,-3.526184,0.4
 19173\C,0,6.549555,-2.129942,-0.221643\C,0,7.642325,-1.208147,0.329033
 \N,0,7.631206,0.112542,-0.310417\N,0,6.868677,1.097106,0.20103\N,0,6.9
 74866,2.141493,-0.590674\C,0,7.81196,1.823767,-1.613185\C,0,8.2443,0.5
 21529,-1.456463\C,0,9.144002,-0.33591,-2.290229\O,0,10.316762,-0.7844,
 -1.5931\C,0,11.346846,0.104731,-1.345204\C,0,12.377548,-0.383727,-0.53
 6962\C,0,13.490342,0.403401,-0.239786\C,0,13.572433,1.703485,-0.751555
 \O,0,14.613255,2.585395,-0.51814\C,0,15.689958,2.169702,0.331014\C,0,1
 6.604261,1.22468,-0.318422\C,0,17.367337,0.456586,-0.856112\C,0,12.541
 864,2.192702,-1.55941\C,0,11.430914,1.404209,-1.858667\C,0,2.469006,-1
 .054843,1.282376\C,0,1.274393,-0.764745,0.622441\H,0,1.051356,1.972359
 ,1.226051\H,0,0.57293,3.627181,1.641252\H,0,0.291618,2.306412,2.778949
 \H,0,-4.12447,4.60637,-0.320428\H,0,-5.796212,2.048139,-0.040584\H,0,-
 5.73596,5.726727,-1.166866\H,0,-7.774342,6.96144,-1.760383\H,0,-10.962
 771,5.490703,-1.585157\H,0,-8.110304,2.247416,-0.252729\H,0,0.418112,-
 3.36937,-0.14446\H,0,-0.304453,-3.082814,1.437304\H,0,-0.837081,-4.456
 825,0.452145\H,0,-4.447739,-1.297398,-3.220727\H,0,-6.396206,-2.606452
 ,-3.13036\H,0,-7.216642,-4.888528,-2.46874\H,0,-8.03726,-6.346622,-0.6
 45279\H,0,-7.349393,-5.648695,2.730081\H,0,-5.392398,-2.283085,0.42793
 1\H,0,-0.751931,-0.272549,3.306487\H,0,1.35824,-0.826512,4.490054\H,0,
 5.037961,-0.992877,1.972224\H,0,5.605259,-1.463205,3.576611\H,0,4.6384
 83,-3.723261,3.306872\H,0,4.166024,-3.372147,1.650493\H,0,7.08986,-3.0
 68631,2.487374\H,0,6.434515,-4.664449,2.217639\H,0,7.542932,-3.990509,
 0.210776\H,0,5.82211,-4.142765,-0.095221\H,0,6.693302,-2.237362,-1.303
 292\H,0,5.572738,-1.653142,-0.081989\H,0,7.515367,-1.028536,1.397563\H
 ,0,8.633176,-1.6389,0.172985\H,0,8.058516,2.526997,-2.394877\H,0,8.634
 449,-1.259316,-2.576143\H,0,9.407112,0.200153,-3.206574\H,0,12.305191,
 -1.39369,-0.145849\H,0,14.27407,-0.014282,0.380407\H,0,16.225495,3.091
 307,0.575819\H,0,15.305073,1.750699,1.268642\H,0,18.04145,-0.224112,-1
 .330763\H,0,12.614828,3.202462,-1.950834\H,0,10.652667,1.818101,-2.487
 176\H,0,3.357143,-1.265303,0.699259\H,0,1.2599,-0.754822,-0.463171\\Ve
 rsion=ES64L-G16RevA.03\State=1-A\HF=-3849.8903021\RMSD=6.755e-10\Dipol
 e=5.6203462,-2.2388609,-1.6876671\Quadrupole=-8.5318043,14.2145344,-5.
 6827302,-29.2868077,20.5353081,9.4379308\PG=C01 [X(C51H44B1F2I2N7O9)]\
 \@


 IF YOU DON'T HAVE THE LAW - ARGUE THE FACTS.
 IF YOU DON'T HAVE THE FACTS - ARGUE THE LAW.
 IF YOU DON'T HAVE EITHER - POUND THE TABLE.
 Job cpu time:       1 days 19 hours 51 minutes 14.6 seconds.
 Elapsed time:       0 days  0 hours 41 minutes 51.3 seconds.
 File lengths (MBytes):  RWF=   5561 Int=      0 D2E=      0 Chk=    482 Scr=      1
 Normal termination of Gaussian 16 at Thu Nov  6 12:30:41 2025.
