 Entering Gaussian System, Link 0=g16
 Input=M100032410_reduced_sp.gjf
 Output=M100032410_reduced_sp.log
 Initial command:
 /public/software/gauss/g16/l1.exe "/public/home/baiding/1101_v2_sp/tmp_M100032410_reduced_sp_1568608/Gau-4125308.inp" -scrdir="/public/home/baiding/1101_v2_sp/tmp_M100032410_reduced_sp_1568608/"
 Entering Link 1 = /public/software/gauss/g16/l1.exe PID=   4125309.
  
 Copyright (c) 1988,1990,1992,1993,1995,1998,2003,2009,2016,
            Gaussian, Inc.  All Rights Reserved.
  
 This is part of the Gaussian(R) 16 program.  It is based on
 the Gaussian(R) 09 system (copyright 2009, Gaussian, Inc.),
 the Gaussian(R) 03 system (copyright 2003, Gaussian, Inc.),
 the Gaussian(R) 98 system (copyright 1998, Gaussian, Inc.),
 the Gaussian(R) 94 system (copyright 1995, Gaussian, Inc.),
 the Gaussian 92(TM) system (copyright 1992, Gaussian, Inc.),
 the Gaussian 90(TM) system (copyright 1990, Gaussian, Inc.),
 the Gaussian 88(TM) system (copyright 1988, Gaussian, Inc.),
 the Gaussian 86(TM) system (copyright 1986, Carnegie Mellon
 University), and the Gaussian 82(TM) system (copyright 1983,
 Carnegie Mellon University). Gaussian is a federally registered
 trademark of Gaussian, Inc.
  
 This software contains proprietary and confidential information,
 including trade secrets, belonging to Gaussian, Inc.
  
 This software is provided under written license and may be
 used, copied, transmitted, or stored only in accord with that
 written license.
  
 The following legend is applicable only to US Government
 contracts under FAR:
  
                    RESTRICTED RIGHTS LEGEND
  
 Use, reproduction and disclosure by the US Government is
 subject to restrictions as set forth in subparagraphs (a)
 and (c) of the Commercial Computer Software - Restricted
 Rights clause in FAR 52.227-19.
  
 Gaussian, Inc.
 340 Quinnipiac St., Bldg. 40, Wallingford CT 06492
  
  
 ---------------------------------------------------------------
 Warning -- This program may not be used in any manner that
 competes with the business of Gaussian, Inc. or will provide
 assistance to any competitor of Gaussian, Inc.  The licensee
 of this program is prohibited from giving any competitor of
 Gaussian, Inc. access to this program.  By using this program,
 the user acknowledges that Gaussian, Inc. is engaged in the
 business of creating and licensing software in the field of
 computational chemistry and represents and warrants to the
 licensee that it is not a competitor of Gaussian, Inc. and that
 it will not use this program in any manner prohibited above.
 ---------------------------------------------------------------
  

 Cite this work as:
 Gaussian 16, Revision A.03,
 M. J. Frisch, G. W. Trucks, H. B. Schlegel, G. E. Scuseria, 
 M. A. Robb, J. R. Cheeseman, G. Scalmani, V. Barone, 
 G. A. Petersson, H. Nakatsuji, X. Li, M. Caricato, A. V. Marenich, 
 J. Bloino, B. G. Janesko, R. Gomperts, B. Mennucci, H. P. Hratchian, 
 J. V. Ortiz, A. F. Izmaylov, J. L. Sonnenberg, D. Williams-Young, 
 F. Ding, F. Lipparini, F. Egidi, J. Goings, B. Peng, A. Petrone, 
 T. Henderson, D. Ranasinghe, V. G. Zakrzewski, J. Gao, N. Rega, 
 G. Zheng, W. Liang, M. Hada, M. Ehara, K. Toyota, R. Fukuda, 
 J. Hasegawa, M. Ishida, T. Nakajima, Y. Honda, O. Kitao, H. Nakai, 
 T. Vreven, K. Throssell, J. A. Montgomery, Jr., J. E. Peralta, 
 F. Ogliaro, M. J. Bearpark, J. J. Heyd, E. N. Brothers, K. N. Kudin, 
 V. N. Staroverov, T. A. Keith, R. Kobayashi, J. Normand, 
 K. Raghavachari, A. P. Rendell, J. C. Burant, S. S. Iyengar, 
 J. Tomasi, M. Cossi, J. M. Millam, M. Klene, C. Adamo, R. Cammi, 
 J. W. Ochterski, R. L. Martin, K. Morokuma, O. Farkas, 
 J. B. Foresman, and D. J. Fox, Gaussian, Inc., Wallingford CT, 2016.
 
 ******************************************
 Gaussian 16:  ES64L-G16RevA.03 25-Dec-2016
                 6-Nov-2025 
 ******************************************
 %nprocshared=64
 Will use up to   64 processors via shared memory.
 %mem=230GB
 %chk=M100032410_reduced_sp.chk
 ----------------------------------------------
 #p M062X/DEF2TZVPP scrf=(solvent=water) em=GD3
 ----------------------------------------------
 1/38=1,172=1/1;
 2/12=2,17=6,18=5,40=1/2;
 3/5=44,7=202,11=2,25=1,30=1,70=2201,72=1,74=-55,124=31/1,2,3;
 4//1;
 5/5=2,38=5,53=1/2;
 6/7=2,8=2,9=2,10=2,28=1/1;
 99/5=1,9=1/99;
 Leave Link    1 at Thu Nov  6 05:39:20 2025, MaxMem= 30870077440 cpu:               9.8 elap:               0.2
 (Enter /public/software/gauss/g16/l101.exe)
 -----------------------------------------
 Energy calculation for M100032410_reduced
 -----------------------------------------
 Symbolic Z-matrix:
 Charge = -1 Multiplicity = 2
 C                    -5.18461   3.63118   0.43579 
 C                    -4.10121   2.60938   0.26854 
 C                    -4.29611   1.19849   0.1764 
 C                    -5.48869   0.47512   0.24149 
 C                    -5.47971  -0.94004   0.16323 
 C                    -6.5091   -1.89732   0.19022 
 C                    -5.89815  -3.1679    0.07165 
 C                    -4.52888  -2.95676  -0.02346 
 N                    -4.26889  -1.6088    0.03235 
 B                    -2.87346  -0.95733  -0.02462 
 F                    -2.22486  -1.36916  -1.21765 
 F                    -2.08539  -1.40645   1.05983 
 N                    -3.05097   0.57734   0.01676 
 C                    -2.07516   1.57463   0.01793 
 C                    -0.65323   1.4651   -0.10986 
 C                     0.1468    0.38924  -0.37678 
 C                     1.60094   0.40886  -0.46182 
 C                     2.40778   1.53961  -0.20869 
 C                     3.7927    1.4974   -0.30595 
 C                     4.47355   0.31105  -0.67124 
 N                     5.86416   0.28999  -0.81809 
 C                     6.62634   1.45848  -0.38106 
 C                     6.56983  -0.98405  -0.80797 
 C                     6.59165  -1.7371    0.54915 
 C                     7.37166  -1.06433   1.58313 
 N                     8.00171  -0.53412   2.406 
 C                     3.67411  -0.83062  -0.91421 
 C                     2.29025  -0.77238  -0.81229 
 C                    -2.73155   2.81953   0.17678 
 H                    -5.76753   3.465     1.35055 
 H                    -4.76334   4.63916   0.49003 
 H                    -5.89759   3.61373  -0.3983 
 H                    -6.42827   1.00226   0.35989 
 H                    -7.56542  -1.68      0.28232 
 H                    -6.39263  -4.13071   0.05526 
 H                    -3.72513  -3.67274  -0.12687 
 H                    -0.16892   2.4317    0.02264 
 H                    -0.31049  -0.57345  -0.5723 
 H                     1.94805   2.47946   0.08305 
 H                     4.34935   2.40074  -0.08956 
 H                     6.49328   1.68803   0.68477 
 H                     7.68583   1.27503  -0.5631 
 H                     6.34016   2.34418  -0.95654 
 H                     6.12573  -1.6625   -1.53915 
 H                     7.59567  -0.80387  -1.13439 
 H                     5.57311  -1.87929   0.9245 
 H                     7.02604  -2.73156   0.39718 
 H                     4.12913  -1.77447  -1.19005 
 H                     1.71673  -1.67497  -1.01011 
 H                    -2.22154   3.7751    0.20856 
 
 ITRead=  0  0  0  0  0  0  0  0  0  0  0  0  0  0  0  0  0  0  0  0
 ITRead=  0  0  0  0  0  0  0  0  0  0  0  0  0  0  0  0  0  0  0  0
 ITRead=  0  0  0  0  0  0  0  0  0  0
 MicOpt= -1 -1 -1 -1 -1 -1 -1 -1 -1 -1 -1 -1 -1 -1 -1 -1 -1 -1 -1 -1
 MicOpt= -1 -1 -1 -1 -1 -1 -1 -1 -1 -1 -1 -1 -1 -1 -1 -1 -1 -1 -1 -1
 MicOpt= -1 -1 -1 -1 -1 -1 -1 -1 -1 -1
 NAtoms=     50 NQM=       50 NQMF=       0 NMMI=      0 NMMIF=      0
                NMic=       0 NMicF=      0.
                    Isotopes and Nuclear Properties:
 (Nuclear quadrupole moments (NQMom) in fm**2, nuclear magnetic moments (NMagM)
  in nuclear magnetons)

  Atom         1           2           3           4           5           6           7           8           9          10
 IAtWgt=          12          12          12          12          12          12          12          12          14          11
 AtmWgt=  12.0000000  12.0000000  12.0000000  12.0000000  12.0000000  12.0000000  12.0000000  12.0000000  14.0030740  11.0093053
 NucSpn=           0           0           0           0           0           0           0           0           2           3
 AtZEff=  -0.0000000  -0.0000000  -0.0000000  -0.0000000  -0.0000000  -0.0000000  -0.0000000  -0.0000000  -0.0000000  -0.0000000
 NQMom=    0.0000000   0.0000000   0.0000000   0.0000000   0.0000000   0.0000000   0.0000000   0.0000000   2.0440000   4.0590000
 NMagM=    0.0000000   0.0000000   0.0000000   0.0000000   0.0000000   0.0000000   0.0000000   0.0000000   0.4037610   2.6886370
 AtZNuc=   6.0000000   6.0000000   6.0000000   6.0000000   6.0000000   6.0000000   6.0000000   6.0000000   7.0000000   5.0000000

  Atom        11          12          13          14          15          16          17          18          19          20
 IAtWgt=          19          19          14          12          12          12          12          12          12          12
 AtmWgt=  18.9984033  18.9984033  14.0030740  12.0000000  12.0000000  12.0000000  12.0000000  12.0000000  12.0000000  12.0000000
 NucSpn=           1           1           2           0           0           0           0           0           0           0
 AtZEff=  -0.0000000  -0.0000000  -0.0000000  -0.0000000  -0.0000000  -0.0000000  -0.0000000  -0.0000000  -0.0000000  -0.0000000
 NQMom=    0.0000000   0.0000000   2.0440000   0.0000000   0.0000000   0.0000000   0.0000000   0.0000000   0.0000000   0.0000000
 NMagM=    2.6288670   2.6288670   0.4037610   0.0000000   0.0000000   0.0000000   0.0000000   0.0000000   0.0000000   0.0000000
 AtZNuc=   9.0000000   9.0000000   7.0000000   6.0000000   6.0000000   6.0000000   6.0000000   6.0000000   6.0000000   6.0000000

  Atom        21          22          23          24          25          26          27          28          29          30
 IAtWgt=          14          12          12          12          12          14          12          12          12           1
 AtmWgt=  14.0030740  12.0000000  12.0000000  12.0000000  12.0000000  14.0030740  12.0000000  12.0000000  12.0000000   1.0078250
 NucSpn=           2           0           0           0           0           2           0           0           0           1
 AtZEff=  -0.0000000  -0.0000000  -0.0000000  -0.0000000  -0.0000000  -0.0000000  -0.0000000  -0.0000000  -0.0000000  -0.0000000
 NQMom=    2.0440000   0.0000000   0.0000000   0.0000000   0.0000000   2.0440000   0.0000000   0.0000000   0.0000000   0.0000000
 NMagM=    0.4037610   0.0000000   0.0000000   0.0000000   0.0000000   0.4037610   0.0000000   0.0000000   0.0000000   2.7928460
 AtZNuc=   7.0000000   6.0000000   6.0000000   6.0000000   6.0000000   7.0000000   6.0000000   6.0000000   6.0000000   1.0000000

  Atom        31          32          33          34          35          36          37          38          39          40
 IAtWgt=           1           1           1           1           1           1           1           1           1           1
 AtmWgt=   1.0078250   1.0078250   1.0078250   1.0078250   1.0078250   1.0078250   1.0078250   1.0078250   1.0078250   1.0078250
 NucSpn=           1           1           1           1           1           1           1           1           1           1
 AtZEff=  -0.0000000  -0.0000000  -0.0000000  -0.0000000  -0.0000000  -0.0000000  -0.0000000  -0.0000000  -0.0000000  -0.0000000
 NQMom=    0.0000000   0.0000000   0.0000000   0.0000000   0.0000000   0.0000000   0.0000000   0.0000000   0.0000000   0.0000000
 NMagM=    2.7928460   2.7928460   2.7928460   2.7928460   2.7928460   2.7928460   2.7928460   2.7928460   2.7928460   2.7928460
 AtZNuc=   1.0000000   1.0000000   1.0000000   1.0000000   1.0000000   1.0000000   1.0000000   1.0000000   1.0000000   1.0000000

  Atom        41          42          43          44          45          46          47          48          49          50
 IAtWgt=           1           1           1           1           1           1           1           1           1           1
 AtmWgt=   1.0078250   1.0078250   1.0078250   1.0078250   1.0078250   1.0078250   1.0078250   1.0078250   1.0078250   1.0078250
 NucSpn=           1           1           1           1           1           1           1           1           1           1
 AtZEff=  -0.0000000  -0.0000000  -0.0000000  -0.0000000  -0.0000000  -0.0000000  -0.0000000  -0.0000000  -0.0000000  -0.0000000
 NQMom=    0.0000000   0.0000000   0.0000000   0.0000000   0.0000000   0.0000000   0.0000000   0.0000000   0.0000000   0.0000000
 NMagM=    2.7928460   2.7928460   2.7928460   2.7928460   2.7928460   2.7928460   2.7928460   2.7928460   2.7928460   2.7928460
 AtZNuc=   1.0000000   1.0000000   1.0000000   1.0000000   1.0000000   1.0000000   1.0000000   1.0000000   1.0000000   1.0000000
 Leave Link  101 at Thu Nov  6 05:39:20 2025, MaxMem= 30870077440 cpu:               3.6 elap:               0.1
 (Enter /public/software/gauss/g16/l202.exe)
                          Input orientation:                          
 ---------------------------------------------------------------------
 Center     Atomic      Atomic             Coordinates (Angstroms)
 Number     Number       Type             X           Y           Z
 ---------------------------------------------------------------------
      1          6           0       -5.184608    3.631176    0.435785
      2          6           0       -4.101211    2.609383    0.268540
      3          6           0       -4.296108    1.198490    0.176395
      4          6           0       -5.488693    0.475119    0.241492
      5          6           0       -5.479711   -0.940035    0.163228
      6          6           0       -6.509101   -1.897321    0.190222
      7          6           0       -5.898150   -3.167899    0.071647
      8          6           0       -4.528876   -2.956755   -0.023458
      9          7           0       -4.268888   -1.608799    0.032352
     10          5           0       -2.873460   -0.957327   -0.024618
     11          9           0       -2.224864   -1.369155   -1.217650
     12          9           0       -2.085391   -1.406452    1.059833
     13          7           0       -3.050966    0.577343    0.016762
     14          6           0       -2.075155    1.574629    0.017931
     15          6           0       -0.653232    1.465100   -0.109856
     16          6           0        0.146802    0.389241   -0.376779
     17          6           0        1.600935    0.408859   -0.461817
     18          6           0        2.407782    1.539612   -0.208687
     19          6           0        3.792698    1.497395   -0.305946
     20          6           0        4.473553    0.311048   -0.671238
     21          7           0        5.864159    0.289989   -0.818090
     22          6           0        6.626335    1.458477   -0.381063
     23          6           0        6.569833   -0.984046   -0.807967
     24          6           0        6.591654   -1.737102    0.549146
     25          6           0        7.371660   -1.064333    1.583126
     26          7           0        8.001708   -0.534118    2.405996
     27          6           0        3.674109   -0.830620   -0.914205
     28          6           0        2.290246   -0.772384   -0.812293
     29          6           0       -2.731547    2.819529    0.176783
     30          1           0       -5.767532    3.464996    1.350546
     31          1           0       -4.763339    4.639158    0.490029
     32          1           0       -5.897593    3.613725   -0.398297
     33          1           0       -6.428268    1.002257    0.359893
     34          1           0       -7.565424   -1.679995    0.282323
     35          1           0       -6.392633   -4.130711    0.055261
     36          1           0       -3.725134   -3.672737   -0.126867
     37          1           0       -0.168916    2.431703    0.022639
     38          1           0       -0.310494   -0.573446   -0.572301
     39          1           0        1.948049    2.479456    0.083054
     40          1           0        4.349352    2.400739   -0.089556
     41          1           0        6.493283    1.688029    0.684774
     42          1           0        7.685832    1.275030   -0.563104
     43          1           0        6.340157    2.344175   -0.956542
     44          1           0        6.125727   -1.662504   -1.539146
     45          1           0        7.595672   -0.803870   -1.134394
     46          1           0        5.573113   -1.879288    0.924498
     47          1           0        7.026039   -2.731555    0.397180
     48          1           0        4.129126   -1.774474   -1.190049
     49          1           0        1.716731   -1.674966   -1.010113
     50          1           0       -2.221535    3.775097    0.208563
 ---------------------------------------------------------------------
                    Distance matrix (angstroms):
                    1          2          3          4          5
     1  C    0.000000
     2  C    1.498593   0.000000
     3  C    2.602821   1.427268   0.000000
     4  C    3.176620   2.545765   1.396339   0.000000
     5  C    4.588828   3.809163   2.444254   1.417345   0.000000
     6  C    5.690243   5.110230   3.805466   2.583086   1.405976
     7  C    6.846105   6.053490   4.652189   3.669889   2.268668
     8  C    6.636394   5.590175   4.166555   3.573403   2.237431
     9  N    5.334664   4.228115   2.811114   2.423712   1.389412
    10  B    5.158269   3.783482   2.590730   2.993687   2.613069
    11  F    6.041295   4.643081   3.581370   4.022813   3.561600
    12  F    5.947460   4.562522   3.528945   3.973972   3.541589
    13  N    3.748854   2.301216   1.400602   2.450197   2.867523
    14  C    3.751358   2.288760   2.258146   3.593208   4.235050
    15  C    5.052027   3.652551   3.663819   4.948251   5.399458
    16  C    6.292403   4.836433   4.549762   5.669959   5.806568
    17  C    7.565224   6.155501   5.983807   7.124736   7.235036
    18  C    7.901542   6.613558   6.723600   7.980609   8.276443
    19  C    9.257171   7.992518   8.108685   9.353553   9.598894
    20  C   10.272722   8.927043   8.855111  10.005316  10.066231
    21  N   11.610813  10.289264  10.249166  11.403694  11.452481
    22  C   12.036870  10.808645  10.939749  12.170804  12.353358
    23  C   12.689132  11.311179  11.126595  12.191742  12.088700
    24  C   12.942627  11.545910  11.282730  12.285087  12.103805
    25  C   13.454518  12.118213  11.968127  13.021466  12.930170
    26  N   13.968190  12.685857  12.617818  13.700166  13.672726
    27  C   10.010343   8.584178   8.296448   9.327247   9.217660
    28  C    8.764844   7.311311   6.945639   7.948498   7.832750
    29  C    2.596798   1.388726   2.252913   3.619710   4.656921
    30  H    1.097362   2.163200   2.946314   3.201112   4.571309
    31  H    1.093818   2.146499   3.486383   4.234044   5.634482
    32  H    1.097427   2.163415   2.954384   3.229145   4.607241
    33  H    2.909238   2.829557   2.149020   1.083833   2.170469
    34  H    5.822403   5.513595   4.357215   2.993158   2.216286
    35  H    7.864541   7.122146   5.728043   4.697389   3.320466
    36  H    7.469524   6.305776   4.913943   4.522227   3.260423
    37  H    5.173644   3.943980   4.310240   5.672402   6.292291
    38  H    6.515525   5.020652   4.425542   5.345605   5.234137
    39  H    7.233649   6.053498   6.374879   7.703739   8.177467
    40  H    9.627375   8.460720   8.732704  10.030191  10.384370
    41  H   11.841071  10.642624  10.812449  12.051365  12.269120
    42  H   13.122402  11.891447  12.004982  13.223288  13.370325
    43  H   11.679690  10.516336  10.757615  12.035379  12.318653
    44  H   12.643064  11.229738  10.942715  11.942984  11.751861
    45  H   13.618761  12.265219  12.130212  13.218528  13.140320
    46  H   12.096802  10.685083  10.365032  11.330193  11.118752
    47  H   13.769014  12.343333  11.986868  12.919966  12.635587
    48  H   10.890823   9.438439   9.038266   9.980602   9.739476
    49  H    8.824638   7.337510   6.768957   7.622829   7.328413
    50  H    2.975255   2.212616   3.308140   4.643841   5.731513
                    6          7          8          9         10
     6  C    0.000000
     7  C    1.414811   0.000000
     8  C    2.255959   1.388718   0.000000
     9  N    2.264227   2.255401   1.373934   0.000000
    10  B    3.761334   3.747619   2.595788   1.541065   0.000000
    11  F    4.540457   4.288449   3.042210   2.407897   1.419015
    12  F    4.535018   4.314665   3.089915   2.421636   1.413789
    13  N    4.255907   4.704924   3.830886   2.502557   1.545455
    14  C    5.634181   6.091777   5.153242   3.866120   2.655165
    15  C    6.759225   7.000485   5.880551   4.747847   3.287070
    16  C    7.060517   7.028213   5.760424   4.863936   3.325544
    17  C    8.456731   8.325506   7.006718   6.226554   4.698704
    18  C    9.564645   9.551322   8.268546   7.385697   5.844664
    19  C   10.858054  10.761974   9.442873   8.645927   7.109323
    20  C   11.235555  10.964815   9.599056   8.978370   7.483682
    21  N   12.605498  12.292296  10.917324  10.344433   8.861793
    22  C   13.569356  13.359305  12.002537  11.326296   9.808632
    23  C   13.148725  12.688323  11.299928  10.889184   9.475766
    24  C   13.106650  12.580556  11.201858  10.873588   9.514496
    25  C   13.975320  13.520259  12.156691  11.756007  10.371055
    26  N   14.742169  14.338481  12.991803  12.544188  11.151514
    27  C   10.298319   9.902672   8.520730   8.036960   6.608939
    28  C    8.927431   8.577276   7.203760   6.665977   5.226710
    29  C    6.043076   6.774048   6.052763   4.689815   3.784883
    30  H    5.536309   6.756326   6.682892   5.452244   5.461105
    31  H    6.772232   7.900189   7.616859   6.284180   5.929346
    32  H    5.576013   6.797887   6.721986   5.487522   5.493590
    33  H    2.905663   4.213587   4.407769   3.404089   4.077313
    34  H    1.082373   2.244559   3.308208   3.306766   4.757204
    35  H    2.240493   1.082492   2.204078   3.297098   4.739338
    36  H    3.317095   2.239703   1.081353   2.140294   2.847675
    37  H    7.678963   8.011371   6.931584   5.756346   4.336164
    38  H    6.384106   6.194171   4.876078   4.135994   2.648795
    39  H    9.523185   9.667243   8.456612   7.440881   5.921995
    40  H   11.681507  11.663919  10.369669   9.506067   7.965541
    41  H   13.496715  13.323047  11.981803  11.274709   9.758946
    42  H   14.564595  14.306191  12.938250  12.312042  10.806111
    43  H   13.579720  13.461660  12.128742  11.364671   9.831538
    44  H   12.754792  12.224340  10.839417  10.512874   9.152947
    45  H   14.208971  13.752323  12.364213  11.948933  10.528907
    46  H   12.104519  11.574876  10.203418   9.886054   8.549586
    47  H   13.562404  12.935650  11.564762  11.356454  10.066076
    48  H   10.728099  10.201950   8.815879   8.488130   7.145780
    49  H    8.315922   7.834888   6.451672   6.076080   4.749322
    50  H    7.110547   7.857572   7.120076   5.762729   4.782804
                   11         12         13         14         15
    11  F    0.000000
    12  F    2.282054   0.000000
    13  N    2.448484   2.440446   0.000000
    14  C    3.196082   3.157928   1.395273   0.000000
    15  C    3.424943   3.415415   2.559936   1.431849   0.000000
    16  C    3.069824   3.204848   3.227379   2.549124   1.367031
    17  C    4.285949   4.381754   4.679488   3.886234   2.514118
    18  C    5.562404   5.520601   5.547497   4.488798   3.063515
    19  C    6.727508   6.696985   6.912769   5.877292   4.450369
    20  C    6.927513   6.997582   7.560598   6.705011   5.284970
    21  N    8.267085   8.342653   8.958739   8.085910   6.660245
    22  C    9.329475   9.283220   9.725473   8.711407   7.284620
    23  C    8.812653   8.864536   9.781507   9.053438   7.658873
    24  C    8.999330   8.698347   9.930771   9.293187   7.948381
    25  C   10.001527   9.477695  10.666758   9.932586   8.582722
    26  N   10.881676  10.213848  11.362455  10.568483   9.232246
    27  C    5.931271   6.115574   6.933664   6.301439   4.964191
    28  C    4.572381   4.801364   5.571144   5.025382   3.763484
    29  C    4.443675   4.365342   2.270470   1.416284   2.497205
    30  H    6.520364   6.113402   4.182971   4.356948   5.682290
    31  H    6.742392   6.636677   4.433345   4.103724   5.227570
    32  H    6.244147   6.470024   4.182723   4.352263   5.674778
    33  H    5.077484   5.015214   3.421178   4.403878   5.812566
    34  H    5.555909   5.541670   5.054347   6.387921   7.604198
    35  H    5.159146   5.194525   5.773560   7.154922   8.017549
    36  H    2.957551   3.038595   4.305614   5.502567   5.986171
    37  H    4.495749   4.413625   3.427083   2.090059   1.089237
    38  H    2.171276   2.551082   3.030099   2.841941   2.118253
    39  H    5.823817   5.685333   5.349073   4.124212   2.798713
    40  H    7.661920   7.564504   7.622387   6.478295   5.089369
    41  H    9.432480   9.127438   9.631851   8.595096   7.194012
    42  H   10.278231  10.261631  10.775057   9.782854   8.353535
    43  H    9.338982   9.440489   9.605322   8.506425   7.099094
    44  H    8.361925   8.616421   9.573372   8.953099   7.601254
    45  H    9.837144   9.944884  10.797398  10.025468   8.616398
    46  H    8.102930   7.674280   9.012977   8.440818   7.142982
    47  H    9.489100   9.231098  10.613178  10.075653   8.765854
    48  H    6.366964   6.619489   7.651219   7.153238   5.876445
    49  H    3.958884   4.337385   5.371992   5.098543   4.035741
    50  H    5.338298   5.252775   3.309135   2.213555   2.810169
                   16         17         18         19         20
    16  C    0.000000
    17  C    1.456750   0.000000
    18  C    2.542369   1.411977   0.000000
    19  C    3.811244   2.452148   1.388969   0.000000
    20  C    4.337464   2.881902   2.447597   1.415776   0.000000
    21  N    5.735223   4.279736   3.725516   2.451749   1.398497
    22  C    6.567163   5.134478   4.222853   2.834900   2.456678
    23  C    6.582338   5.172036   4.904147   3.757932   2.467864
    24  C    6.849437   5.525800   5.368049   4.362030   3.189139
    25  C    7.625790   6.297091   5.884829   4.789573   3.920823
    26  N    8.384270   7.076966   6.513749   5.403466   4.757263
    27  C    3.770780   2.457440   2.778370   2.409086   1.414761
    28  C    2.476570   1.411849   2.392380   2.768690   2.441424
    29  C    3.807575   4.998954   5.310318   6.674342   7.676267
    30  H    6.886455   8.180400   8.542486   9.900173  10.904807
    31  H    6.551537   7.701001   7.843492   9.149318  10.266511
    32  H    6.850728   8.154945   8.562543   9.919129  10.887738
    33  H    6.644548   8.092925   8.870615  10.254592  10.972270
    34  H    8.012152   9.430758  10.491511  11.808844  12.239710
    35  H    7.961208   9.207182  10.472322  11.642466  11.761421
    36  H    5.617296   6.718529   8.049095   9.125795   9.131558
    37  H    2.104962   2.731111   2.736551   4.083538   5.150841
    38  H    1.083566   2.151904   3.462117   4.603858   4.866130
    39  H    2.797309   2.169042   1.086174   2.125675   3.413081
    40  H    4.667981   3.414668   2.127305   1.082921   2.172691
    41  H    6.564417   5.185173   4.184689   2.882885   2.795381
    42  H    7.593175   6.147071   5.296549   3.907949   3.355546
    43  H    6.520394   5.142998   4.082913   2.762220   2.774746
    44  H    6.427153   5.091652   5.083973   4.116888   2.716220
    45  H    7.581765   6.153043   5.767412   4.521588   3.347414
    46  H    6.023653   4.789121   4.795029   4.010718   2.924547
    47  H    7.593568   6.327071   6.319671   5.369627   4.112680
    48  H    4.604560   3.418920   3.861251   3.405870   2.176510
    49  H    2.669595   2.157861   3.384279   3.856081   3.414551
    50  H    4.173208   5.137338   5.157719   6.451639   7.589327
                   21         22         23         24         25
    21  N    0.000000
    22  C    1.461940   0.000000
    23  C    1.456449   2.480193   0.000000
    24  C    2.551016   3.328396   1.552200   0.000000
    25  C    3.142067   3.283004   2.523232   1.459501   0.000000
    26  N    3.955123   3.691854   3.547148   2.623607   1.164132
    27  C    2.461975   3.773572   2.901731   3.387503   4.468016
    28  C    3.728475   4.895341   4.284820   4.613709   5.625303
    29  C    9.015237   9.472783  10.097157  10.383815  10.914989
    30  H   12.250710  12.674089  13.291491  13.433300  13.899902
    31  H   11.557256  11.857496  12.717940  13.022905  13.452987
    32  H   12.229565  12.708035  13.294512  13.620216  14.208566
    33  H   12.369266  13.083570  13.200755  13.306325  14.007323
    34  H   13.617836  14.549780  14.194315  14.159707  15.006252
    35  H   13.058877  14.174729  13.366832  13.212305  14.184245
    36  H   10.398823  11.556249  10.662050  10.518545  11.526781
    37  H    6.456916   6.876451   7.600525   7.959991   8.456812
    38  H    6.239573   7.230828   6.896596   7.088821   7.993893
    39  H    4.576215   4.810838   5.843856   6.289648   6.650129
    40  H    2.698271   2.481428   4.111377   4.749483   4.892743
    41  H    2.146838   1.098365   3.061719   3.429226   3.025571
    42  H    2.086580   1.090562   2.531568   3.392236   3.190239
    43  H    2.113155   1.094319   3.339443   4.357427   4.373996
    44  H    2.097753   3.366346   1.091860   2.140938   3.414490
    45  H    2.072369   2.573973   1.091496   2.171009   2.739149
    46  H    2.797693   3.735564   2.190056   1.094775   2.081517
    47  H    3.457828   4.280396   2.171242   1.095774   2.074982
    48  H    2.722260   4.164431   2.593803   3.015002   4.325370
    49  H    4.593373   5.858189   4.906203   5.118596   6.251079
    50  H    8.864448   9.165107  10.048429  10.400607  10.832308
                   26         27         28         29         30
    26  N    0.000000
    27  C    5.462578   0.000000
    28  C    6.560103   1.388832   0.000000
    29  C   11.463817   7.452937   6.252881   0.000000
    30  H   14.377025  10.617250   9.357406   3.318366   0.000000
    31  H   13.906119  10.152875   8.985204   2.745424   1.768488
    32  H   14.773599  10.565786   9.297852   3.314410   1.759968
    33  H   14.655074  10.346052   8.974177   4.123318   2.735516
    34  H   15.753051  11.334912   9.957719   6.604788   5.553778
    35  H   15.021934  10.638128   9.350048   7.856472   7.730671
    36  H   12.401014   7.965320   6.713170   6.574872   7.569767
    37  H    9.013078   5.127306   4.124411   2.596391   5.845984
    38  H    8.829751   4.007505   2.619355   4.234962   7.055892
    39  H    7.150138   3.863989   3.390163   4.692873   7.880864
    40  H    5.308566   3.402599   3.851101   7.098271  10.274136
    41  H    3.189967   4.104640   5.095131   9.307837  12.406790
    42  H    3.491182   4.544332   5.776361  10.557211  13.764120
    43  H    4.727789   4.145953   5.112292   9.154573  12.376390
    44  H    4.511841   2.663271   4.003941  10.073943  13.269935
    45  H    3.573792   3.927831   5.315288  11.022688  14.246872
    46  H    3.146807   2.843721   3.875422   9.571068  12.544047
    47  H    3.133050   4.070469   5.265825  11.228250  14.247161
    48  H    5.428344   1.083509   2.127995   8.369106  11.482618
    49  H    7.243775   2.133881   1.087523   6.434002   9.381157
    50  H   11.309852   7.565174   6.486748   1.083620   3.738233
                   31         32         33         34         35
    31  H    0.000000
    32  H    1.768380   0.000000
    33  H    4.001996   2.770602   0.000000
    34  H    6.915672   5.591813   2.914381   0.000000
    35  H    8.930522   7.773485   5.142123   2.726354   0.000000
    36  H    8.399168   7.608271   5.422125   4.345835   2.712648
    37  H    5.118597   5.864478   6.429350   8.466512   9.044390
    38  H    6.937407   6.984150   6.385842   7.388426   7.073923
    39  H    7.062059   7.941811   8.510079  10.384937  10.642465
    40  H    9.401467  10.323107  10.877263  12.599705  12.572631
    41  H   11.638669  12.586308  12.943814  14.462116  14.152768
    42  H   12.938636  13.784270  14.146878  15.557883  15.093296
    43  H   11.430098  12.316084  12.906061  14.529071  14.320329
    44  H   12.743636  13.179543  12.973438  13.811795  12.858597
    45  H   13.601855  14.217074  14.218505  15.252328  14.427606
    46  H   12.227884  12.786715  12.355372  13.155731  12.206701
    47  H   13.904153  14.419280  13.962848  14.629756  13.495751
    48  H   11.092036  11.410287  11.025930  11.787252  10.854034
    49  H    9.171145   9.290990   8.682479   9.371703   8.539759
    50  H    2.699369   3.729306   5.040649   7.636794   8.939987
                   36         37         38         39         40
    36  H    0.000000
    37  H    7.066345   0.000000
    38  H    4.632902   3.066744   0.000000
    39  H    8.371293   2.118365   3.853663   0.000000
    40  H   10.103753   4.519767   5.549143   2.408785   0.000000
    41  H   11.567740   6.736198   7.279141   4.652696   2.388301
    42  H   12.445113   7.961033   8.207203   5.898332   3.552966
    43  H   11.755921   6.582894   7.272641   4.515493   2.172135
    44  H   10.152587   7.669696   6.598922   6.102488   4.665486
    45  H   11.722037   8.490965   7.929471   6.645153   4.679722
    46  H    9.527813   7.236635   6.209868   5.731297   4.565581
    47  H   10.805007   8.863797   7.708570   7.282808   5.808787
    48  H    8.150040   6.134794   4.640507   4.947101   4.323423
    49  H    5.863882   4.635404   2.348333   4.302063   4.938572
    50  H    7.605495   2.460187   4.813694   4.368051   6.719694
                   41         42         43         44         45
    41  H    0.000000
    42  H    1.774807   0.000000
    43  H    1.774230   1.763152   0.000000
    44  H    4.038191   3.466366   4.054489   0.000000
    45  H    3.276308   2.157852   3.393838   1.749804   0.000000
    46  H    3.691874   4.077532   4.686609   2.534151   3.079985
    47  H    4.460859   4.172553   5.297738   2.388052   2.527087
    48  H    4.592725   4.726806   4.680433   2.029981   3.600293
    49  H    6.082584   6.673265   6.126372   4.440639   5.944426
    50  H    8.973889  10.247035   8.758286  10.114286  10.915495
                   46         47         48         49         50
    46  H    0.000000
    47  H    1.765054   0.000000
    48  H    2.562693   3.439099   0.000000
    49  H    4.319276   5.593354   2.421142   0.000000
    50  H    9.656147  11.308834   8.548962   6.833615   0.000000
 Stoichiometry    C22H21BF2N4(1-,2)
 Framework group  C1[X(C22H21BF2N4)]
 Deg. of freedom   144
 Full point group                 C1      NOp   1
 Largest Abelian subgroup         C1      NOp   1
 Largest concise Abelian subgroup C1      NOp   1
                         Standard orientation:                         
 ---------------------------------------------------------------------
 Center     Atomic      Atomic             Coordinates (Angstroms)
 Number     Number       Type             X           Y           Z
 ---------------------------------------------------------------------
      1          6           0       -5.184608    3.631176    0.435785
      2          6           0       -4.101211    2.609383    0.268540
      3          6           0       -4.296108    1.198490    0.176395
      4          6           0       -5.488693    0.475119    0.241492
      5          6           0       -5.479711   -0.940035    0.163228
      6          6           0       -6.509101   -1.897321    0.190222
      7          6           0       -5.898150   -3.167899    0.071647
      8          6           0       -4.528876   -2.956755   -0.023458
      9          7           0       -4.268888   -1.608799    0.032352
     10          5           0       -2.873460   -0.957327   -0.024618
     11          9           0       -2.224864   -1.369155   -1.217650
     12          9           0       -2.085391   -1.406452    1.059833
     13          7           0       -3.050966    0.577343    0.016762
     14          6           0       -2.075155    1.574629    0.017931
     15          6           0       -0.653232    1.465100   -0.109856
     16          6           0        0.146802    0.389241   -0.376779
     17          6           0        1.600935    0.408859   -0.461817
     18          6           0        2.407782    1.539612   -0.208687
     19          6           0        3.792698    1.497395   -0.305946
     20          6           0        4.473553    0.311048   -0.671238
     21          7           0        5.864159    0.289989   -0.818090
     22          6           0        6.626335    1.458477   -0.381063
     23          6           0        6.569833   -0.984046   -0.807967
     24          6           0        6.591654   -1.737102    0.549146
     25          6           0        7.371660   -1.064333    1.583126
     26          7           0        8.001708   -0.534118    2.405996
     27          6           0        3.674109   -0.830620   -0.914205
     28          6           0        2.290246   -0.772384   -0.812293
     29          6           0       -2.731547    2.819529    0.176783
     30          1           0       -5.767532    3.464996    1.350546
     31          1           0       -4.763339    4.639158    0.490029
     32          1           0       -5.897593    3.613725   -0.398297
     33          1           0       -6.428268    1.002257    0.359893
     34          1           0       -7.565424   -1.679995    0.282323
     35          1           0       -6.392633   -4.130711    0.055261
     36          1           0       -3.725134   -3.672737   -0.126867
     37          1           0       -0.168916    2.431703    0.022639
     38          1           0       -0.310494   -0.573446   -0.572301
     39          1           0        1.948049    2.479456    0.083054
     40          1           0        4.349352    2.400739   -0.089556
     41          1           0        6.493283    1.688029    0.684774
     42          1           0        7.685832    1.275030   -0.563104
     43          1           0        6.340157    2.344175   -0.956542
     44          1           0        6.125727   -1.662504   -1.539146
     45          1           0        7.595672   -0.803870   -1.134394
     46          1           0        5.573113   -1.879288    0.924498
     47          1           0        7.026039   -2.731555    0.397180
     48          1           0        4.129126   -1.774474   -1.190049
     49          1           0        1.716731   -1.674966   -1.010113
     50          1           0       -2.221535    3.775097    0.208563
 ---------------------------------------------------------------------
 Rotational constants (GHZ):           0.3727329           0.0586552           0.0531255
 Leave Link  202 at Thu Nov  6 05:39:20 2025, MaxMem= 30870077440 cpu:               0.3 elap:               0.0
 (Enter /public/software/gauss/g16/l301.exe)
 Standard basis: def2TZVPP (5D, 7F)
 Ernie: Thresh=  0.10000D-02 Tol=  0.10000D-05 Strict=F.
 There are  1359 symmetry adapted cartesian basis functions of A   symmetry.
 There are  1193 symmetry adapted basis functions of A   symmetry.
  1193 basis functions,  1836 primitive gaussians,  1359 cartesian basis functions
   103 alpha electrons      102 beta electrons
       nuclear repulsion energy      2479.3743547565 Hartrees.
 IExCor= 4336 DFT=T Ex+Corr=M062X ExCW=0 ScaHFX=  0.540000
 ScaDFX=  1.000000  1.000000  1.000000  1.000000 ScalE2=  1.000000  1.000000
 IRadAn=      5 IRanWt=     -1 IRanGd=            0 ICorTp=0 IEmpDi=131
 NAtoms=   50 NActive=   50 NUniq=   50 SFac= 1.00D+00 NAtFMM=   60 NAOKFM=F Big=F
 Integral buffers will be    131072 words long.
 Raffenetti 2 integral format.
 Two-electron integral symmetry is turned on.
 R6Disp:  Grimme-D3 Dispersion energy=       -0.0030854499 Hartrees.
 Nuclear repulsion after empirical dispersion term =     2479.3712693066 Hartrees.
 ------------------------------------------------------------------------------
 Polarizable Continuum Model (PCM)
 =================================
 Model                : PCM.
 Atomic radii         : UFF (Universal Force Field).
 Polarization charges : Total charges.
 Charge compensation  : None.
 Solution method      : On-the-fly selection.
 Cavity type          : Scaled VdW (van der Waals Surface) (Alpha=1.100).
 Cavity algorithm     : GePol (No added spheres)
                        Default sphere list used, NSphG=   50.
                        Lebedev-Laikov grids with approx.  5.0 points / Ang**2.
                        Smoothing algorithm: York/Karplus (Gamma=1.0000).
                        Polarization charges: spherical gaussians, with
                                              point-specific exponents (IZeta= 3).
                        Self-potential: point-specific (ISelfS= 7).
                        Self-field    : sphere-specific E.n sum rule (ISelfD= 2).
 Solvent              : Water, Eps=  78.355300 Eps(inf)=   1.777849
 ------------------------------------------------------------------------------
 GePol: Number of generator spheres                  =      50
 GePol: Total number of spheres                      =      50
 GePol: Number of exposed spheres                    =      50 (100.00%)
 GePol: Number of points                             =    3702
 GePol: Average weight of points                     =       0.13
 GePol: Minimum weight of points                     =   0.31D-11
 GePol: Maximum weight of points                     =    0.20577
 GePol: Number of points with low weight             =     220
 GePol: Fraction of low-weight points (<1% of avg)   =       5.94%
 GePol: Cavity surface area                          =    477.720 Ang**2
 GePol: Cavity volume                                =    533.287 Ang**3
 Leave Link  301 at Thu Nov  6 05:39:20 2025, MaxMem= 30870077440 cpu:               3.4 elap:               0.1
 (Enter /public/software/gauss/g16/l302.exe)
 NPDir=0 NMtPBC=     1 NCelOv=     1 NCel=       1 NClECP=     1 NCelD=      1
         NCelK=      1 NCelE2=     1 NClLst=     1 CellRange=     0.0.
 One-electron integrals computed using PRISM.
 One-electron integral symmetry used in STVInt
   1 Symmetry operations used in ECPInt.
 ECPInt:  NShTT=   99235 NPrTT=  280827 LenC2=   70355 LenP2D=  140246.
 LDataN:  DoStor=T MaxTD1= 6 Len=  172
 NBasis=  1193 RedAO= T EigKep=  6.74D-06  NBF=  1193
 NBsUse=  1193 1.00D-06 EigRej= -1.00D+00 NBFU=  1193
 Precomputing XC quadrature grid using
 IXCGrd= 4 IRadAn=           5 IRanWt=          -1 IRanGd=           0 AccXCQ= 0.00D+00.
 Generated NRdTot=       0 NPtTot=           0 NUsed=           0 NTot=          32
 NSgBfM=  1273  1273  1273  1273  1273 MxSgAt=    50 MxSgA2=    50.
 Leave Link  302 at Thu Nov  6 05:39:23 2025, MaxMem= 30870077440 cpu:             213.0 elap:               3.4
 (Enter /public/software/gauss/g16/l303.exe)
 DipDrv:  MaxL=1.
 Leave Link  303 at Thu Nov  6 05:39:23 2025, MaxMem= 30870077440 cpu:              12.9 elap:               0.2
 (Enter /public/software/gauss/g16/l401.exe)
 ExpMin= 6.06D-02 ExpMax= 3.55D+04 ExpMxC= 1.21D+03 IAcc=3 IRadAn=         5 AccDes= 0.00D+00
 Harris functional with IExCor= 1009 and IRadAn=       5 diagonalized for initial guess.
 HarFok:  IExCor= 1009 AccDes= 0.00D+00 IRadAn=         5 IDoV= 1 UseB2=F ITyADJ=14
 ICtDFT=  3500011 ScaDFX=  1.000000  1.000000  1.000000  1.000000
 FoFCou: FMM=F IPFlag=           0 FMFlag=      100000 FMFlg1=           0
         NFxFlg=           0 DoJE=T BraDBF=F KetDBF=T FulRan=T
         wScrn=  0.000000 ICntrl=       500 IOpCl=  0 I1Cent=   200000004 NGrid=           0
         NMat0=    1 NMatS0=      1 NMatT0=    0 NMatD0=    1 NMtDS0=    0 NMtDT0=    0
 Petite list used in FoFCou.
 Harris En= -1294.20734428793    
 JPrj=0 DoOrth=F DoCkMO=F.
 Initial guess <Sx>= 0.0000 <Sy>= 0.0000 <Sz>= 0.5000 <S**2>= 0.7500 S= 0.5000
 Leave Link  401 at Thu Nov  6 05:39:29 2025, MaxMem= 30870077440 cpu:             328.0 elap:               5.2
 (Enter /public/software/gauss/g16/l502.exe)
 Integral symmetry usage will be decided dynamically.
 UHF open shell SCF:
 Using DIIS extrapolation, IDIIS=  1040.
 NGot= 30870077440 LenX= 30866285188 LenY= 30864436948
 Requested convergence on RMS density matrix=1.00D-08 within 128 cycles.
 Requested convergence on MAX density matrix=1.00D-06.
 Requested convergence on             energy=1.00D-06.
 No special actions if energy rises.
 Fock matrices will be formed incrementally for  20 cycles.

 Cycle   1  Pass 1  IDiag  1:
 FoFJK:  IHMeth= 1 ICntrl=       0 DoSepK=F KAlg= 0 I1Cent=           0 FoldK=F
 IRaf= 620000000 NMat=       1 IRICut=       1 DoRegI=T DoRafI=F ISym2E= 0 IDoP0=0 IntGTp=1.
 FoFCou: FMM=F IPFlag=           0 FMFlag=      100000 FMFlg1=           0
         NFxFlg=           0 DoJE=F BraDBF=F KetDBF=F FulRan=T
         wScrn=  0.000000 ICntrl=         0 IOpCl=  1 I1Cent=           0 NGrid=           0
         NMat0=    1 NMatS0=      1 NMatT0=    0 NMatD0=    1 NMtDS0=    0 NMtDT0=    0
 Symmetry not used in FoFCou.
 Inv3:  Mode=1 IEnd=    41114412.
 Iteration    1 A*A^-1 deviation from unit magnitude is 5.55D-15 for   3681.
 Iteration    1 A*A^-1 deviation from orthogonality  is 3.26D-15 for   2470   1880.
 Iteration    1 A^-1*A deviation from unit magnitude is 5.44D-15 for   3683.
 Iteration    1 A^-1*A deviation from orthogonality  is 1.67D-15 for   2308    236.
 E= -1294.11748113947    
 DIIS: error= 1.99D-02 at cycle   1 NSaved=   1.
 NSaved= 1 IEnMin= 1 EnMin= -1294.11748113947     IErMin= 1 ErrMin= 1.99D-02
 ErrMax= 1.99D-02  0.00D+00 EMaxC= 1.00D-01 BMatC= 3.46D+00 BMatP= 3.46D+00
 IDIUse=3 WtCom= 8.01D-01 WtEn= 1.99D-01
 Coeff-Com:  0.100D+01
 Coeff-En:   0.100D+01
 Coeff:      0.100D+01
 Gap=     0.153 Goal=   None    Shift=    0.000
 Gap=     0.171 Goal=   None    Shift=    0.000
 GapD=    0.153 DampG=1.000 DampE=0.500 DampFc=0.5000 IDamp=-1.
 Damping current iteration by 5.00D-01
 RMSDP=1.50D-03 MaxDP=1.77D-01              OVMax= 1.81D-01

 Cycle   2  Pass 1  IDiag  1:
 RMSU=  7.41D-04    CP:  9.73D-01
 E= -1294.48449433487     Delta-E=       -0.367013195407 Rises=F Damp=T
 DIIS: error= 4.18D-03 at cycle   2 NSaved=   2.
 NSaved= 2 IEnMin= 2 EnMin= -1294.48449433487     IErMin= 2 ErrMin= 4.18D-03
 ErrMax= 4.18D-03  0.00D+00 EMaxC= 1.00D-01 BMatC= 3.20D-01 BMatP= 3.46D+00
 IDIUse=3 WtCom= 9.58D-01 WtEn= 4.18D-02
 Coeff-Com: -0.172D+00 0.117D+01
 Coeff-En:   0.000D+00 0.100D+01
 Coeff:     -0.164D+00 0.116D+01
 Gap=     0.175 Goal=   None    Shift=    0.000
 Gap=     0.152 Goal=   None    Shift=    0.000
 RMSDP=6.45D-04 MaxDP=4.17D-02 DE=-3.67D-01 OVMax= 8.94D-02

 Cycle   3  Pass 1  IDiag  1:
 RMSU=  5.74D-04    CP:  9.61D-01  1.39D+00
 E= -1294.79784588137     Delta-E=       -0.313351546494 Rises=F Damp=F
 DIIS: error= 5.55D-03 at cycle   3 NSaved=   3.
 NSaved= 3 IEnMin= 3 EnMin= -1294.79784588137     IErMin= 2 ErrMin= 4.18D-03
 ErrMax= 5.55D-03  0.00D+00 EMaxC= 1.00D-01 BMatC= 1.21D-01 BMatP= 3.20D-01
 IDIUse=3 WtCom= 9.45D-01 WtEn= 5.55D-02
 Coeff-Com: -0.128D+00 0.483D+00 0.645D+00
 Coeff-En:   0.000D+00 0.000D+00 0.100D+01
 Coeff:     -0.121D+00 0.457D+00 0.665D+00
 Gap=     0.154 Goal=   None    Shift=    0.000
 Gap=     0.153 Goal=   None    Shift=    0.000
 RMSDP=1.62D-04 MaxDP=1.90D-02 DE=-3.13D-01 OVMax= 4.86D-02

 Cycle   4  Pass 1  IDiag  1:
 RMSU=  1.56D-04    CP:  9.60D-01  1.42D+00  9.39D-01
 E= -1294.81596280008     Delta-E=       -0.018116918709 Rises=F Damp=F
 DIIS: error= 3.59D-03 at cycle   4 NSaved=   4.
 NSaved= 4 IEnMin= 4 EnMin= -1294.81596280008     IErMin= 4 ErrMin= 3.59D-03
 ErrMax= 3.59D-03  0.00D+00 EMaxC= 1.00D-01 BMatC= 3.53D-02 BMatP= 1.21D-01
 IDIUse=3 WtCom= 9.64D-01 WtEn= 3.59D-02
 Coeff-Com: -0.441D-01 0.114D+00 0.383D+00 0.547D+00
 Coeff-En:   0.000D+00 0.000D+00 0.232D+00 0.768D+00
 Coeff:     -0.426D-01 0.110D+00 0.377D+00 0.555D+00
 Gap=     0.155 Goal=   None    Shift=    0.000
 Gap=     0.154 Goal=   None    Shift=    0.000
 RMSDP=6.95D-05 MaxDP=1.07D-02 DE=-1.81D-02 OVMax= 2.16D-02

 Cycle   5  Pass 1  IDiag  1:
 RMSU=  5.14D-05    CP:  9.59D-01  1.42D+00  9.58D-01  7.10D-01
 E= -1294.82350806767     Delta-E=       -0.007545267590 Rises=F Damp=F
 DIIS: error= 8.26D-04 at cycle   5 NSaved=   5.
 NSaved= 5 IEnMin= 5 EnMin= -1294.82350806767     IErMin= 5 ErrMin= 8.26D-04
 ErrMax= 8.26D-04  0.00D+00 EMaxC= 1.00D-01 BMatC= 1.55D-03 BMatP= 3.53D-02
 IDIUse=3 WtCom= 9.92D-01 WtEn= 8.26D-03
 Coeff-Com: -0.130D-01 0.259D-01 0.144D+00 0.267D+00 0.576D+00
 Coeff-En:   0.000D+00 0.000D+00 0.000D+00 0.000D+00 0.100D+01
 Coeff:     -0.129D-01 0.257D-01 0.143D+00 0.265D+00 0.579D+00
 Gap=     0.156 Goal=   None    Shift=    0.000
 Gap=     0.156 Goal=   None    Shift=    0.000
 RMSDP=1.80D-05 MaxDP=2.63D-03 DE=-7.55D-03 OVMax= 6.09D-03

 Cycle   6  Pass 1  IDiag  1:
 RMSU=  1.75D-05    CP:  9.59D-01  1.42D+00  9.57D-01  7.27D-01  1.00D+00
 E= -1294.82388483089     Delta-E=       -0.000376763218 Rises=F Damp=F
 DIIS: error= 2.13D-04 at cycle   6 NSaved=   6.
 NSaved= 6 IEnMin= 6 EnMin= -1294.82388483089     IErMin= 6 ErrMin= 2.13D-04
 ErrMax= 2.13D-04  0.00D+00 EMaxC= 1.00D-01 BMatC= 2.06D-04 BMatP= 1.55D-03
 IDIUse=3 WtCom= 9.98D-01 WtEn= 2.13D-03
 Coeff-Com:  0.848D-03-0.452D-02 0.650D-02 0.307D-01 0.250D+00 0.716D+00
 Coeff-En:   0.000D+00 0.000D+00 0.000D+00 0.000D+00 0.000D+00 0.100D+01
 Coeff:      0.846D-03-0.451D-02 0.648D-02 0.306D-01 0.249D+00 0.717D+00
 Gap=     0.158 Goal=   None    Shift=    0.000
 Gap=     0.158 Goal=   None    Shift=    0.000
 RMSDP=1.12D-05 MaxDP=1.11D-03 DE=-3.77D-04 OVMax= 5.39D-03

 Cycle   7  Pass 1  IDiag  1:
 RMSU=  8.34D-06    CP:  9.59D-01  1.42D+00  9.59D-01  7.44D-01  1.12D+00
                    CP:  1.17D+00
 E= -1294.82399158382     Delta-E=       -0.000106752931 Rises=F Damp=F
 DIIS: error= 8.40D-05 at cycle   7 NSaved=   7.
 NSaved= 7 IEnMin= 7 EnMin= -1294.82399158382     IErMin= 7 ErrMin= 8.40D-05
 ErrMax= 8.40D-05  0.00D+00 EMaxC= 1.00D-01 BMatC= 4.97D-05 BMatP= 2.06D-04
 IDIUse=1 WtCom= 1.00D+00 WtEn= 0.00D+00
 Coeff-Com:  0.415D-02-0.933D-02-0.406D-01-0.710D-01-0.907D-01 0.234D+00
 Coeff-Com:  0.973D+00
 Coeff:      0.415D-02-0.933D-02-0.406D-01-0.710D-01-0.907D-01 0.234D+00
 Coeff:      0.973D+00
 Gap=     0.159 Goal=   None    Shift=    0.000
 Gap=     0.159 Goal=   None    Shift=    0.000
 RMSDP=1.03D-05 MaxDP=1.10D-03 DE=-1.07D-04 OVMax= 5.33D-03

 Cycle   8  Pass 1  IDiag  1:
 RMSU=  4.56D-06    CP:  9.59D-01  1.42D+00  9.62D-01  7.54D-01  1.23D+00
                    CP:  1.49D+00  1.55D+00
 E= -1294.82404221435     Delta-E=       -0.000050630533 Rises=F Damp=F
 DIIS: error= 5.05D-05 at cycle   8 NSaved=   8.
 NSaved= 8 IEnMin= 8 EnMin= -1294.82404221435     IErMin= 8 ErrMin= 5.05D-05
 ErrMax= 5.05D-05  0.00D+00 EMaxC= 1.00D-01 BMatC= 1.47D-05 BMatP= 4.97D-05
 IDIUse=1 WtCom= 1.00D+00 WtEn= 0.00D+00
 Coeff-Com:  0.152D-02-0.266D-02-0.191D-01-0.398D-01-0.115D+00-0.107D+00
 Coeff-Com:  0.447D+00 0.835D+00
 Coeff:      0.152D-02-0.266D-02-0.191D-01-0.398D-01-0.115D+00-0.107D+00
 Coeff:      0.447D+00 0.835D+00
 Gap=     0.159 Goal=   None    Shift=    0.000
 Gap=     0.160 Goal=   None    Shift=    0.000
 RMSDP=5.40D-06 MaxDP=5.49D-04 DE=-5.06D-05 OVMax= 2.90D-03

 Cycle   9  Pass 1  IDiag  1:
 RMSU=  2.35D-06    CP:  9.59D-01  1.42D+00  9.63D-01  7.59D-01  1.27D+00
                    CP:  1.64D+00  1.89D+00  1.37D+00
 E= -1294.82405507206     Delta-E=       -0.000012857714 Rises=F Damp=F
 DIIS: error= 1.53D-05 at cycle   9 NSaved=   9.
 NSaved= 9 IEnMin= 9 EnMin= -1294.82405507206     IErMin= 9 ErrMin= 1.53D-05
 ErrMax= 1.53D-05  0.00D+00 EMaxC= 1.00D-01 BMatC= 1.69D-06 BMatP= 1.47D-05
 IDIUse=1 WtCom= 1.00D+00 WtEn= 0.00D+00
 Coeff-Com: -0.613D-03 0.154D-02 0.464D-02 0.662D-02-0.919D-02-0.757D-01
 Coeff-Com: -0.945D-01 0.180D+00 0.987D+00
 Coeff:     -0.613D-03 0.154D-02 0.464D-02 0.662D-02-0.919D-02-0.757D-01
 Coeff:     -0.945D-01 0.180D+00 0.987D+00
 Gap=     0.160 Goal=   None    Shift=    0.000
 Gap=     0.160 Goal=   None    Shift=    0.000
 RMSDP=2.30D-06 MaxDP=2.40D-04 DE=-1.29D-05 OVMax= 1.39D-03

 Cycle  10  Pass 1  IDiag  1:
 RMSU=  1.13D-06    CP:  9.59D-01  1.42D+00  9.63D-01  7.60D-01  1.27D+00
                    CP:  1.68D+00  2.04D+00  1.64D+00  1.28D+00
 E= -1294.82405691423     Delta-E=       -0.000001842163 Rises=F Damp=F
 DIIS: error= 6.67D-06 at cycle  10 NSaved=  10.
 NSaved=10 IEnMin=10 EnMin= -1294.82405691423     IErMin=10 ErrMin= 6.67D-06
 ErrMax= 6.67D-06  0.00D+00 EMaxC= 1.00D-01 BMatC= 3.10D-07 BMatP= 1.69D-06
 IDIUse=1 WtCom= 1.00D+00 WtEn= 0.00D+00
 Coeff-Com: -0.376D-03 0.814D-03 0.370D-02 0.697D-02 0.967D-02-0.139D-01
 Coeff-Com: -0.776D-01-0.467D-01 0.318D+00 0.800D+00
 Coeff:     -0.376D-03 0.814D-03 0.370D-02 0.697D-02 0.967D-02-0.139D-01
 Coeff:     -0.776D-01-0.467D-01 0.318D+00 0.800D+00
 Gap=     0.160 Goal=   None    Shift=    0.000
 Gap=     0.160 Goal=   None    Shift=    0.000
 RMSDP=6.87D-07 MaxDP=4.72D-05 DE=-1.84D-06 OVMax= 3.84D-04

 Cycle  11  Pass 1  IDiag  1:
 RMSU=  3.98D-07    CP:  9.59D-01  1.42D+00  9.63D-01  7.60D-01  1.27D+00
                    CP:  1.69D+00  2.06D+00  1.68D+00  1.43D+00  1.25D+00
 E= -1294.82405716462     Delta-E=       -0.000000250396 Rises=F Damp=F
 DIIS: error= 3.93D-06 at cycle  11 NSaved=  11.
 NSaved=11 IEnMin=11 EnMin= -1294.82405716462     IErMin=11 ErrMin= 3.93D-06
 ErrMax= 3.93D-06  0.00D+00 EMaxC= 1.00D-01 BMatC= 7.85D-08 BMatP= 3.10D-07
 IDIUse=1 WtCom= 1.00D+00 WtEn= 0.00D+00
 Coeff-Com: -0.310D-04 0.343D-04 0.599D-03 0.156D-02 0.532D-02 0.841D-02
 Coeff-Com: -0.110D-01-0.513D-01-0.616D-01 0.301D+00 0.807D+00
 Coeff:     -0.310D-04 0.343D-04 0.599D-03 0.156D-02 0.532D-02 0.841D-02
 Coeff:     -0.110D-01-0.513D-01-0.616D-01 0.301D+00 0.807D+00
 Gap=     0.160 Goal=   None    Shift=    0.000
 Gap=     0.160 Goal=   None    Shift=    0.000
 RMSDP=3.81D-07 MaxDP=2.74D-05 DE=-2.50D-07 OVMax= 2.43D-04

 Cycle  12  Pass 1  IDiag  1:
 RMSU=  1.99D-07    CP:  9.59D-01  1.42D+00  9.63D-01  7.60D-01  1.27D+00
                    CP:  1.69D+00  2.07D+00  1.70D+00  1.49D+00  1.45D+00
                    CP:  1.42D+00
 E= -1294.82405724025     Delta-E=       -0.000000075625 Rises=F Damp=F
 DIIS: error= 2.27D-06 at cycle  12 NSaved=  12.
 NSaved=12 IEnMin=12 EnMin= -1294.82405724025     IErMin=12 ErrMin= 2.27D-06
 ErrMax= 2.27D-06  0.00D+00 EMaxC= 1.00D-01 BMatC= 1.76D-08 BMatP= 7.85D-08
 IDIUse=1 WtCom= 1.00D+00 WtEn= 0.00D+00
 Coeff-Com:  0.911D-04-0.205D-03-0.813D-03-0.146D-02-0.137D-02 0.546D-02
 Coeff-Com:  0.166D-01-0.667D-03-0.948D-01-0.119D+00 0.241D+00 0.956D+00
 Coeff:      0.911D-04-0.205D-03-0.813D-03-0.146D-02-0.137D-02 0.546D-02
 Coeff:      0.166D-01-0.667D-03-0.948D-01-0.119D+00 0.241D+00 0.956D+00
 Gap=     0.160 Goal=   None    Shift=    0.000
 Gap=     0.160 Goal=   None    Shift=    0.000
 RMSDP=2.56D-07 MaxDP=1.92D-05 DE=-7.56D-08 OVMax= 1.75D-04

 Cycle  13  Pass 1  IDiag  1:
 RMSU=  1.07D-07    CP:  9.59D-01  1.42D+00  9.63D-01  7.60D-01  1.27D+00
                    CP:  1.69D+00  2.07D+00  1.70D+00  1.51D+00  1.58D+00
                    CP:  1.80D+00  1.43D+00
 E= -1294.82405726780     Delta-E=       -0.000000027556 Rises=F Damp=F
 DIIS: error= 1.10D-06 at cycle  13 NSaved=  13.
 NSaved=13 IEnMin=13 EnMin= -1294.82405726780     IErMin=13 ErrMin= 1.10D-06
 ErrMax= 1.10D-06  0.00D+00 EMaxC= 1.00D-01 BMatC= 4.50D-09 BMatP= 1.76D-08
 IDIUse=1 WtCom= 1.00D+00 WtEn= 0.00D+00
 Coeff-Com:  0.255D-04-0.500D-04-0.300D-03-0.677D-03-0.143D-02-0.341D-03
 Coeff-Com:  0.583D-02 0.104D-01-0.781D-02-0.997D-01-0.123D+00 0.235D+00
 Coeff-Com:  0.981D+00
 Coeff:      0.255D-04-0.500D-04-0.300D-03-0.677D-03-0.143D-02-0.341D-03
 Coeff:      0.583D-02 0.104D-01-0.781D-02-0.997D-01-0.123D+00 0.235D+00
 Coeff:      0.981D+00
 Gap=     0.160 Goal=   None    Shift=    0.000
 Gap=     0.160 Goal=   None    Shift=    0.000
 RMSDP=1.45D-07 MaxDP=9.53D-06 DE=-2.76D-08 OVMax= 9.01D-05

 Cycle  14  Pass 1  IDiag  1:
 RMSU=  5.31D-08    CP:  9.59D-01  1.42D+00  9.63D-01  7.60D-01  1.27D+00
                    CP:  1.69D+00  2.07D+00  1.70D+00  1.52D+00  1.63D+00
                    CP:  2.00D+00  1.76D+00  1.53D+00
 E= -1294.82405727562     Delta-E=       -0.000000007816 Rises=F Damp=F
 DIIS: error= 7.52D-07 at cycle  14 NSaved=  14.
 NSaved=14 IEnMin=14 EnMin= -1294.82405727562     IErMin=14 ErrMin= 7.52D-07
 ErrMax= 7.52D-07  0.00D+00 EMaxC= 1.00D-01 BMatC= 1.55D-09 BMatP= 4.50D-09
 IDIUse=1 WtCom= 1.00D+00 WtEn= 0.00D+00
 Coeff-Com: -0.172D-04 0.407D-04 0.129D-03 0.167D-03-0.188D-03-0.172D-02
 Coeff-Com: -0.286D-02 0.398D-02 0.265D-01-0.340D-02-0.121D+00-0.194D+00
 Coeff-Com:  0.391D+00 0.901D+00
 Coeff:     -0.172D-04 0.407D-04 0.129D-03 0.167D-03-0.188D-03-0.172D-02
 Coeff:     -0.286D-02 0.398D-02 0.265D-01-0.340D-02-0.121D+00-0.194D+00
 Coeff:      0.391D+00 0.901D+00
 Gap=     0.160 Goal=   None    Shift=    0.000
 Gap=     0.160 Goal=   None    Shift=    0.000
 RMSDP=8.15D-08 MaxDP=5.97D-06 DE=-7.82D-09 OVMax= 4.27D-05

 Cycle  15  Pass 1  IDiag  1:
 RMSU=  2.37D-08    CP:  9.59D-01  1.42D+00  9.63D-01  7.60D-01  1.27D+00
                    CP:  1.69D+00  2.07D+00  1.70D+00  1.53D+00  1.64D+00
                    CP:  2.09D+00  1.93D+00  1.94D+00  1.58D+00
 E= -1294.82405727775     Delta-E=       -0.000000002127 Rises=F Damp=F
 DIIS: error= 3.33D-07 at cycle  15 NSaved=  15.
 NSaved=15 IEnMin=15 EnMin= -1294.82405727775     IErMin=15 ErrMin= 3.33D-07
 ErrMax= 3.33D-07  0.00D+00 EMaxC= 1.00D-01 BMatC= 3.74D-10 BMatP= 1.55D-09
 IDIUse=1 WtCom= 1.00D+00 WtEn= 0.00D+00
 Coeff-Com: -0.122D-04 0.268D-04 0.126D-03 0.237D-03 0.286D-03-0.502D-03
 Coeff-Com: -0.264D-02-0.167D-02 0.111D-01 0.293D-01-0.329D-02-0.134D+00
 Coeff-Com: -0.140D+00 0.297D+00 0.944D+00
 Coeff:     -0.122D-04 0.268D-04 0.126D-03 0.237D-03 0.286D-03-0.502D-03
 Coeff:     -0.264D-02-0.167D-02 0.111D-01 0.293D-01-0.329D-02-0.134D+00
 Coeff:     -0.140D+00 0.297D+00 0.944D+00
 Gap=     0.160 Goal=   None    Shift=    0.000
 Gap=     0.160 Goal=   None    Shift=    0.000
 RMSDP=4.14D-08 MaxDP=3.50D-06 DE=-2.13D-09 OVMax= 1.91D-05

 Cycle  16  Pass 1  IDiag  1:
 RMSU=  1.43D-08    CP:  9.59D-01  1.42D+00  9.63D-01  7.60D-01  1.27D+00
                    CP:  1.69D+00  2.07D+00  1.71D+00  1.53D+00  1.65D+00
                    CP:  2.13D+00  1.99D+00  2.15D+00  1.98D+00  1.41D+00
 E= -1294.82405727843     Delta-E=       -0.000000000684 Rises=F Damp=F
 DIIS: error= 1.32D-07 at cycle  16 NSaved=  16.
 NSaved=16 IEnMin=16 EnMin= -1294.82405727843     IErMin=16 ErrMin= 1.32D-07
 ErrMax= 1.32D-07  0.00D+00 EMaxC= 1.00D-01 BMatC= 9.84D-11 BMatP= 3.74D-10
 IDIUse=1 WtCom= 1.00D+00 WtEn= 0.00D+00
 Coeff-Com: -0.670D-06 0.109D-05 0.217D-04 0.569D-04 0.152D-03 0.200D-03
 Coeff-Com: -0.385D-03-0.149D-02-0.155D-02 0.120D-01 0.240D-01-0.112D-01
 Coeff-Com: -0.136D+00-0.902D-01 0.391D+00 0.813D+00
 Coeff:     -0.670D-06 0.109D-05 0.217D-04 0.569D-04 0.152D-03 0.200D-03
 Coeff:     -0.385D-03-0.149D-02-0.155D-02 0.120D-01 0.240D-01-0.112D-01
 Coeff:     -0.136D+00-0.902D-01 0.391D+00 0.813D+00
 Gap=     0.160 Goal=   None    Shift=    0.000
 Gap=     0.160 Goal=   None    Shift=    0.000
 RMSDP=1.68D-08 MaxDP=1.44D-06 DE=-6.84D-10 OVMax= 8.71D-06

 Cycle  17  Pass 1  IDiag  1:
 RMSU=  6.09D-09    CP:  9.59D-01  1.42D+00  9.63D-01  7.60D-01  1.27D+00
                    CP:  1.69D+00  2.07D+00  1.71D+00  1.53D+00  1.65D+00
                    CP:  2.13D+00  2.01D+00  2.22D+00  2.12D+00  1.72D+00
                    CP:  1.39D+00
 E= -1294.82405727847     Delta-E=       -0.000000000036 Rises=F Damp=F
 DIIS: error= 7.02D-08 at cycle  17 NSaved=  17.
 NSaved=17 IEnMin=17 EnMin= -1294.82405727847     IErMin=17 ErrMin= 7.02D-08
 ErrMax= 7.02D-08  0.00D+00 EMaxC= 1.00D-01 BMatC= 2.30D-11 BMatP= 9.84D-11
 IDIUse=1 WtCom= 1.00D+00 WtEn= 0.00D+00
 Coeff-Com:  0.248D-05-0.558D-05-0.205D-04-0.318D-04-0.135D-04 0.160D-03
 Coeff-Com:  0.448D-03-0.136D-03-0.294D-02-0.208D-02 0.953D-02 0.271D-01
 Coeff-Com: -0.123D-01-0.112D+00-0.797D-01 0.305D+00 0.868D+00
 Coeff:      0.248D-05-0.558D-05-0.205D-04-0.318D-04-0.135D-04 0.160D-03
 Coeff:      0.448D-03-0.136D-03-0.294D-02-0.208D-02 0.953D-02 0.271D-01
 Coeff:     -0.123D-01-0.112D+00-0.797D-01 0.305D+00 0.868D+00
 Gap=     0.160 Goal=   None    Shift=    0.000
 Gap=     0.160 Goal=   None    Shift=    0.000
 RMSDP=8.27D-09 MaxDP=6.50D-07 DE=-3.59D-11 OVMax= 4.72D-06

 Error on total polarization charges =  0.02439
 SCF Done:  E(UM062X) =  -1294.82405728     A.U. after   17 cycles
            NFock= 17  Conv=0.83D-08     -V/T= 2.0054
 <Sx>= 0.0000 <Sy>= 0.0000 <Sz>= 0.5000 <S**2>= 0.7902 S= 0.5199
 <L.S>= 0.000000000000E+00
 KE= 1.287817328227D+03 PE=-8.002660685000D+03 EE= 2.940648030188D+03
 Annihilation of the first spin contaminant:
 S**2 before annihilation     0.7902,   after     0.7511
 Leave Link  502 at Thu Nov  6 05:52:27 2025, MaxMem= 30870077440 cpu:           49153.9 elap:             777.9
 (Enter /public/software/gauss/g16/l601.exe)
 Copying SCF densities to generalized density rwf, IOpCl= 1 IROHF=0.

 **********************************************************************

            Population analysis using the SCF density.

 **********************************************************************

 Orbital symmetries:
 Alpha Orbitals:
       Occupied  (A) (A) (A) (A) (A) (A) (A) (A) (A) (A) (A) (A)
                 (A) (A) (A) (A) (A) (A) (A) (A) (A) (A) (A) (A)
                 (A) (A) (A) (A) (A) (A) (A) (A) (A) (A) (A) (A)
                 (A) (A) (A) (A) (A) (A) (A) (A) (A) (A) (A) (A)
                 (A) (A) (A) (A) (A) (A) (A) (A) (A) (A) (A) (A)
                 (A) (A) (A) (A) (A) (A) (A) (A) (A) (A) (A) (A)
                 (A) (A) (A) (A) (A) (A) (A) (A) (A) (A) (A) (A)
                 (A) (A) (A) (A) (A) (A) (A) (A) (A) (A) (A) (A)
                 (A) (A) (A) (A) (A) (A) (A)
       Virtual   (A) (A) (A) (A) (A) (A) (A) (A) (A) (A) (A) (A)
                 (A) (A) (A) (A) (A) (A) (A) (A) (A) (A) (A) (A)
                 (A) (A) (A) (A) (A) (A) (A) (A) (A) (A) (A) (A)
                 (A) (A) (A) (A) (A) (A) (A) (A) (A) (A) (A) (A)
                 (A) (A) (A) (A) (A) (A) (A) (A) (A) (A) (A) (A)
                 (A) (A) (A) (A) (A) (A) (A) (A) (A) (A) (A) (A)
                 (A) (A) (A) (A) (A) (A) (A) (A) (A) (A) (A) (A)
                 (A) (A) (A) (A) (A) (A) (A) (A) (A) (A) (A) (A)
                 (A) (A) (A) (A) (A) (A) (A) (A) (A) (A) (A) (A)
                 (A) (A) (A) (A) (A) (A) (A) (A) (A) (A) (A) (A)
                 (A) (A) (A) (A) (A) (A) (A) (A) (A) (A) (A) (A)
                 (A) (A) (A) (A) (A) (A) (A) (A) (A) (A) (A) (A)
                 (A) (A) (A) (A) (A) (A) (A) (A) (A) (A) (A) (A)
                 (A) (A) (A) (A) (A) (A) (A) (A) (A) (A) (A) (A)
                 (A) (A) (A) (A) (A) (A) (A) (A) (A) (A) (A) (A)
                 (A) (A) (A) (A) (A) (A) (A) (A) (A) (A) (A) (A)
                 (A) (A) (A) (A) (A) (A) (A) (A) (A) (A) (A) (A)
                 (A) (A) (A) (A) (A) (A) (A) (A) (A) (A) (A) (A)
                 (A) (A) (A) (A) (A) (A) (A) (A) (A) (A) (A) (A)
                 (A) (A) (A) (A) (A) (A) (A) (A) (A) (A) (A) (A)
                 (A) (A) (A) (A) (A) (A) (A) (A) (A) (A) (A) (A)
                 (A) (A) (A) (A) (A) (A) (A) (A) (A) (A) (A) (A)
                 (A) (A) (A) (A) (A) (A) (A) (A) (A) (A) (A) (A)
                 (A) (A) (A) (A) (A) (A) (A) (A) (A) (A) (A) (A)
                 (A) (A) (A) (A) (A) (A) (A) (A) (A) (A) (A) (A)
                 (A) (A) (A) (A) (A) (A) (A) (A) (A) (A) (A) (A)
                 (A) (A) (A) (A) (A) (A) (A) (A) (A) (A) (A) (A)
                 (A) (A) (A) (A) (A) (A) (A) (A) (A) (A) (A) (A)
                 (A) (A) (A) (A) (A) (A) (A) (A) (A) (A) (A) (A)
                 (A) (A) (A) (A) (A) (A) (A) (A) (A) (A) (A) (A)
                 (A) (A) (A) (A) (A) (A) (A) (A) (A) (A) (A) (A)
                 (A) (A) (A) (A) (A) (A) (A) (A) (A) (A) (A) (A)
                 (A) (A) (A) (A) (A) (A) (A) (A) (A) (A) (A) (A)
                 (A) (A) (A) (A) (A) (A) (A) (A) (A) (A) (A) (A)
                 (A) (A) (A) (A) (A) (A) (A) (A) (A) (A) (A) (A)
                 (A) (A) (A) (A) (A) (A) (A) (A) (A) (A) (A) (A)
                 (A) (A) (A) (A) (A) (A) (A) (A) (A) (A) (A) (A)
                 (A) (A) (A) (A) (A) (A) (A) (A) (A) (A) (A) (A)
                 (A) (A) (A) (A) (A) (A) (A) (A) (A) (A) (A) (A)
                 (A) (A) (A) (A) (A) (A) (A) (A) (A) (A) (A) (A)
                 (A) (A) (A) (A) (A) (A) (A) (A) (A) (A) (A) (A)
                 (A) (A) (A) (A) (A) (A) (A) (A) (A) (A) (A) (A)
                 (A) (A) (A) (A) (A) (A) (A) (A) (A) (A) (A) (A)
                 (A) (A) (A) (A) (A) (A) (A) (A) (A) (A) (A) (A)
                 (A) (A) (A) (A) (A) (A) (A) (A) (A) (A) (A) (A)
                 (A) (A) (A) (A) (A) (A) (A) (A) (A) (A) (A) (A)
                 (A) (A) (A) (A) (A) (A) (A) (A) (A) (A) (A) (A)
                 (A) (A) (A) (A) (A) (A) (A) (A) (A) (A) (A) (A)
                 (A) (A) (A) (A) (A) (A) (A) (A) (A) (A) (A) (A)
                 (A) (A) (A) (A) (A) (A) (A) (A) (A) (A) (A) (A)
                 (A) (A) (A) (A) (A) (A) (A) (A) (A) (A) (A) (A)
                 (A) (A) (A) (A) (A) (A) (A) (A) (A) (A) (A) (A)
                 (A) (A) (A) (A) (A) (A) (A) (A) (A) (A) (A) (A)
                 (A) (A) (A) (A) (A) (A) (A) (A) (A) (A) (A) (A)
                 (A) (A) (A) (A) (A) (A) (A) (A) (A) (A) (A) (A)
                 (A) (A) (A) (A) (A) (A) (A) (A) (A) (A) (A) (A)
                 (A) (A) (A) (A) (A) (A) (A) (A) (A) (A) (A) (A)
                 (A) (A) (A) (A) (A) (A) (A) (A) (A) (A) (A) (A)
                 (A) (A) (A) (A) (A) (A) (A) (A) (A) (A) (A) (A)
                 (A) (A) (A) (A) (A) (A) (A) (A) (A) (A) (A) (A)
                 (A) (A) (A) (A) (A) (A) (A) (A) (A) (A) (A) (A)
                 (A) (A) (A) (A) (A) (A) (A) (A) (A) (A) (A) (A)
                 (A) (A) (A) (A) (A) (A) (A) (A) (A) (A) (A) (A)
                 (A) (A) (A) (A) (A) (A) (A) (A) (A) (A) (A) (A)
                 (A) (A) (A) (A) (A) (A) (A) (A) (A) (A) (A) (A)
                 (A) (A) (A) (A) (A) (A) (A) (A) (A) (A) (A) (A)
                 (A) (A) (A) (A) (A) (A) (A) (A) (A) (A) (A) (A)
                 (A) (A) (A) (A) (A) (A) (A) (A) (A) (A) (A) (A)
                 (A) (A) (A) (A) (A) (A) (A) (A) (A) (A) (A) (A)
                 (A) (A) (A) (A) (A) (A) (A) (A) (A) (A) (A) (A)
                 (A) (A) (A) (A) (A) (A) (A) (A) (A) (A) (A) (A)
                 (A) (A) (A) (A) (A) (A) (A) (A) (A) (A) (A) (A)
                 (A) (A) (A) (A) (A) (A) (A) (A) (A) (A) (A) (A)
                 (A) (A) (A) (A) (A) (A) (A) (A) (A) (A) (A) (A)
                 (A) (A) (A) (A) (A) (A) (A) (A) (A) (A) (A) (A)
                 (A) (A) (A) (A) (A) (A) (A) (A) (A) (A) (A) (A)
                 (A) (A) (A) (A) (A) (A) (A) (A) (A) (A) (A) (A)
                 (A) (A) (A) (A) (A) (A) (A) (A) (A) (A) (A) (A)
                 (A) (A) (A) (A) (A) (A) (A) (A) (A) (A) (A) (A)
                 (A) (A) (A) (A) (A) (A) (A) (A) (A) (A) (A) (A)
                 (A) (A) (A) (A) (A) (A) (A) (A) (A) (A) (A) (A)
                 (A) (A) (A) (A) (A) (A) (A) (A) (A) (A) (A) (A)
                 (A) (A) (A) (A) (A) (A) (A) (A) (A) (A) (A) (A)
                 (A) (A) (A) (A) (A) (A) (A) (A) (A) (A) (A) (A)
                 (A) (A) (A) (A) (A) (A) (A) (A) (A) (A) (A) (A)
                 (A) (A) (A) (A) (A) (A) (A) (A) (A) (A) (A) (A)
                 (A) (A) (A) (A) (A) (A) (A) (A) (A) (A) (A) (A)
                 (A) (A) (A) (A) (A) (A) (A) (A) (A) (A) (A) (A)
                 (A) (A) (A) (A) (A) (A) (A) (A) (A) (A) (A) (A)
                 (A) (A) (A) (A) (A) (A) (A) (A) (A) (A) (A) (A)
                 (A) (A) (A) (A) (A) (A) (A) (A) (A) (A)
 Beta  Orbitals:
       Occupied  (A) (A) (A) (A) (A) (A) (A) (A) (A) (A) (A) (A)
                 (A) (A) (A) (A) (A) (A) (A) (A) (A) (A) (A) (A)
                 (A) (A) (A) (A) (A) (A) (A) (A) (A) (A) (A) (A)
                 (A) (A) (A) (A) (A) (A) (A) (A) (A) (A) (A) (A)
                 (A) (A) (A) (A) (A) (A) (A) (A) (A) (A) (A) (A)
                 (A) (A) (A) (A) (A) (A) (A) (A) (A) (A) (A) (A)
                 (A) (A) (A) (A) (A) (A) (A) (A) (A) (A) (A) (A)
                 (A) (A) (A) (A) (A) (A) (A) (A) (A) (A) (A) (A)
                 (A) (A) (A) (A) (A) (A)
       Virtual   (A) (A) (A) (A) (A) (A) (A) (A) (A) (A) (A) (A)
                 (A) (A) (A) (A) (A) (A) (A) (A) (A) (A) (A) (A)
                 (A) (A) (A) (A) (A) (A) (A) (A) (A) (A) (A) (A)
                 (A) (A) (A) (A) (A) (A) (A) (A) (A) (A) (A) (A)
                 (A) (A) (A) (A) (A) (A) (A) (A) (A) (A) (A) (A)
                 (A) (A) (A) (A) (A) (A) (A) (A) (A) (A) (A) (A)
                 (A) (A) (A) (A) (A) (A) (A) (A) (A) (A) (A) (A)
                 (A) (A) (A) (A) (A) (A) (A) (A) (A) (A) (A) (A)
                 (A) (A) (A) (A) (A) (A) (A) (A) (A) (A) (A) (A)
                 (A) (A) (A) (A) (A) (A) (A) (A) (A) (A) (A) (A)
                 (A) (A) (A) (A) (A) (A) (A) (A) (A) (A) (A) (A)
                 (A) (A) (A) (A) (A) (A) (A) (A) (A) (A) (A) (A)
                 (A) (A) (A) (A) (A) (A) (A) (A) (A) (A) (A) (A)
                 (A) (A) (A) (A) (A) (A) (A) (A) (A) (A) (A) (A)
                 (A) (A) (A) (A) (A) (A) (A) (A) (A) (A) (A) (A)
                 (A) (A) (A) (A) (A) (A) (A) (A) (A) (A) (A) (A)
                 (A) (A) (A) (A) (A) (A) (A) (A) (A) (A) (A) (A)
                 (A) (A) (A) (A) (A) (A) (A) (A) (A) (A) (A) (A)
                 (A) (A) (A) (A) (A) (A) (A) (A) (A) (A) (A) (A)
                 (A) (A) (A) (A) (A) (A) (A) (A) (A) (A) (A) (A)
                 (A) (A) (A) (A) (A) (A) (A) (A) (A) (A) (A) (A)
                 (A) (A) (A) (A) (A) (A) (A) (A) (A) (A) (A) (A)
                 (A) (A) (A) (A) (A) (A) (A) (A) (A) (A) (A) (A)
                 (A) (A) (A) (A) (A) (A) (A) (A) (A) (A) (A) (A)
                 (A) (A) (A) (A) (A) (A) (A) (A) (A) (A) (A) (A)
                 (A) (A) (A) (A) (A) (A) (A) (A) (A) (A) (A) (A)
                 (A) (A) (A) (A) (A) (A) (A) (A) (A) (A) (A) (A)
                 (A) (A) (A) (A) (A) (A) (A) (A) (A) (A) (A) (A)
                 (A) (A) (A) (A) (A) (A) (A) (A) (A) (A) (A) (A)
                 (A) (A) (A) (A) (A) (A) (A) (A) (A) (A) (A) (A)
                 (A) (A) (A) (A) (A) (A) (A) (A) (A) (A) (A) (A)
                 (A) (A) (A) (A) (A) (A) (A) (A) (A) (A) (A) (A)
                 (A) (A) (A) (A) (A) (A) (A) (A) (A) (A) (A) (A)
                 (A) (A) (A) (A) (A) (A) (A) (A) (A) (A) (A) (A)
                 (A) (A) (A) (A) (A) (A) (A) (A) (A) (A) (A) (A)
                 (A) (A) (A) (A) (A) (A) (A) (A) (A) (A) (A) (A)
                 (A) (A) (A) (A) (A) (A) (A) (A) (A) (A) (A) (A)
                 (A) (A) (A) (A) (A) (A) (A) (A) (A) (A) (A) (A)
                 (A) (A) (A) (A) (A) (A) (A) (A) (A) (A) (A) (A)
                 (A) (A) (A) (A) (A) (A) (A) (A) (A) (A) (A) (A)
                 (A) (A) (A) (A) (A) (A) (A) (A) (A) (A) (A) (A)
                 (A) (A) (A) (A) (A) (A) (A) (A) (A) (A) (A) (A)
                 (A) (A) (A) (A) (A) (A) (A) (A) (A) (A) (A) (A)
                 (A) (A) (A) (A) (A) (A) (A) (A) (A) (A) (A) (A)
                 (A) (A) (A) (A) (A) (A) (A) (A) (A) (A) (A) (A)
                 (A) (A) (A) (A) (A) (A) (A) (A) (A) (A) (A) (A)
                 (A) (A) (A) (A) (A) (A) (A) (A) (A) (A) (A) (A)
                 (A) (A) (A) (A) (A) (A) (A) (A) (A) (A) (A) (A)
                 (A) (A) (A) (A) (A) (A) (A) (A) (A) (A) (A) (A)
                 (A) (A) (A) (A) (A) (A) (A) (A) (A) (A) (A) (A)
                 (A) (A) (A) (A) (A) (A) (A) (A) (A) (A) (A) (A)
                 (A) (A) (A) (A) (A) (A) (A) (A) (A) (A) (A) (A)
                 (A) (A) (A) (A) (A) (A) (A) (A) (A) (A) (A) (A)
                 (A) (A) (A) (A) (A) (A) (A) (A) (A) (A) (A) (A)
                 (A) (A) (A) (A) (A) (A) (A) (A) (A) (A) (A) (A)
                 (A) (A) (A) (A) (A) (A) (A) (A) (A) (A) (A) (A)
                 (A) (A) (A) (A) (A) (A) (A) (A) (A) (A) (A) (A)
                 (A) (A) (A) (A) (A) (A) (A) (A) (A) (A) (A) (A)
                 (A) (A) (A) (A) (A) (A) (A) (A) (A) (A) (A) (A)
                 (A) (A) (A) (A) (A) (A) (A) (A) (A) (A) (A) (A)
                 (A) (A) (A) (A) (A) (A) (A) (A) (A) (A) (A) (A)
                 (A) (A) (A) (A) (A) (A) (A) (A) (A) (A) (A) (A)
                 (A) (A) (A) (A) (A) (A) (A) (A) (A) (A) (A) (A)
                 (A) (A) (A) (A) (A) (A) (A) (A) (A) (A) (A) (A)
                 (A) (A) (A) (A) (A) (A) (A) (A) (A) (A) (A) (A)
                 (A) (A) (A) (A) (A) (A) (A) (A) (A) (A) (A) (A)
                 (A) (A) (A) (A) (A) (A) (A) (A) (A) (A) (A) (A)
                 (A) (A) (A) (A) (A) (A) (A) (A) (A) (A) (A) (A)
                 (A) (A) (A) (A) (A) (A) (A) (A) (A) (A) (A) (A)
                 (A) (A) (A) (A) (A) (A) (A) (A) (A) (A) (A) (A)
                 (A) (A) (A) (A) (A) (A) (A) (A) (A) (A) (A) (A)
                 (A) (A) (A) (A) (A) (A) (A) (A) (A) (A) (A) (A)
                 (A) (A) (A) (A) (A) (A) (A) (A) (A) (A) (A) (A)
                 (A) (A) (A) (A) (A) (A) (A) (A) (A) (A) (A) (A)
                 (A) (A) (A) (A) (A) (A) (A) (A) (A) (A) (A) (A)
                 (A) (A) (A) (A) (A) (A) (A) (A) (A) (A) (A) (A)
                 (A) (A) (A) (A) (A) (A) (A) (A) (A) (A) (A) (A)
                 (A) (A) (A) (A) (A) (A) (A) (A) (A) (A) (A) (A)
                 (A) (A) (A) (A) (A) (A) (A) (A) (A) (A) (A) (A)
                 (A) (A) (A) (A) (A) (A) (A) (A) (A) (A) (A) (A)
                 (A) (A) (A) (A) (A) (A) (A) (A) (A) (A) (A) (A)
                 (A) (A) (A) (A) (A) (A) (A) (A) (A) (A) (A) (A)
                 (A) (A) (A) (A) (A) (A) (A) (A) (A) (A) (A) (A)
                 (A) (A) (A) (A) (A) (A) (A) (A) (A) (A) (A) (A)
                 (A) (A) (A) (A) (A) (A) (A) (A) (A) (A) (A) (A)
                 (A) (A) (A) (A) (A) (A) (A) (A) (A) (A) (A) (A)
                 (A) (A) (A) (A) (A) (A) (A) (A) (A) (A) (A) (A)
                 (A) (A) (A) (A) (A) (A) (A) (A) (A) (A) (A) (A)
                 (A) (A) (A) (A) (A) (A) (A) (A) (A) (A) (A) (A)
                 (A) (A) (A) (A) (A) (A) (A) (A) (A) (A) (A) (A)
                 (A) (A) (A) (A) (A) (A) (A) (A) (A) (A) (A)
 The electronic state is 2-A.
 Alpha  occ. eigenvalues --  -25.18516 -25.18509 -14.77299 -14.76268 -14.75166
 Alpha  occ. eigenvalues --  -14.75105 -10.59339 -10.59122 -10.58874 -10.58519
 Alpha  occ. eigenvalues --  -10.56625 -10.56586 -10.56059 -10.55603 -10.55084
 Alpha  occ. eigenvalues --  -10.54425 -10.54315 -10.54284 -10.54060 -10.54026
 Alpha  occ. eigenvalues --  -10.53804 -10.53323 -10.53179 -10.53154 -10.52976
 Alpha  occ. eigenvalues --  -10.52298 -10.51873 -10.51787  -7.10685  -1.30237
 Alpha  occ. eigenvalues --   -1.26983  -1.06977  -1.06458  -1.04976  -1.02221
 Alpha  occ. eigenvalues --   -0.95608  -0.90218  -0.89285  -0.88380  -0.87101
 Alpha  occ. eigenvalues --   -0.85207  -0.84382  -0.83470  -0.80100  -0.79156
 Alpha  occ. eigenvalues --   -0.77631  -0.75343  -0.71809  -0.69226  -0.67269
 Alpha  occ. eigenvalues --   -0.67023  -0.64759  -0.64535  -0.62031  -0.61640
 Alpha  occ. eigenvalues --   -0.60774  -0.59164  -0.57846  -0.57448  -0.56683
 Alpha  occ. eigenvalues --   -0.56131  -0.55569  -0.54290  -0.53788  -0.52433
 Alpha  occ. eigenvalues --   -0.51226  -0.51210  -0.50489  -0.49875  -0.49431
 Alpha  occ. eigenvalues --   -0.48890  -0.48838  -0.48684  -0.48138  -0.47053
 Alpha  occ. eigenvalues --   -0.46866  -0.46331  -0.46042  -0.45678  -0.45276
 Alpha  occ. eigenvalues --   -0.45105  -0.44977  -0.44545  -0.44001  -0.43879
 Alpha  occ. eigenvalues --   -0.43614  -0.42284  -0.41811  -0.41600  -0.41202
 Alpha  occ. eigenvalues --   -0.40719  -0.40025  -0.38953  -0.38517  -0.38323
 Alpha  occ. eigenvalues --   -0.35592  -0.31803  -0.31255  -0.30400  -0.29225
 Alpha  occ. eigenvalues --   -0.26763  -0.22954  -0.16921
 Alpha virt. eigenvalues --   -0.00951   0.01774   0.04857   0.06037   0.06561
 Alpha virt. eigenvalues --    0.07094   0.07642   0.07962   0.08569   0.09091
 Alpha virt. eigenvalues --    0.09658   0.10129   0.10373   0.10485   0.10796
 Alpha virt. eigenvalues --    0.11449   0.12216   0.12419   0.12847   0.12945
 Alpha virt. eigenvalues --    0.13083   0.13425   0.13736   0.14307   0.14807
 Alpha virt. eigenvalues --    0.15240   0.15378   0.15666   0.15937   0.16492
 Alpha virt. eigenvalues --    0.16595   0.16746   0.17638   0.17967   0.18149
 Alpha virt. eigenvalues --    0.18790   0.19213   0.20082   0.20859   0.21331
 Alpha virt. eigenvalues --    0.21614   0.21957   0.22466   0.22893   0.23113
 Alpha virt. eigenvalues --    0.23518   0.23812   0.24036   0.24413   0.24564
 Alpha virt. eigenvalues --    0.24674   0.25495   0.25888   0.26081   0.26231
 Alpha virt. eigenvalues --    0.26727   0.27236   0.27716   0.27834   0.28347
 Alpha virt. eigenvalues --    0.28601   0.28987   0.29483   0.29674   0.30142
 Alpha virt. eigenvalues --    0.30687   0.30945   0.31240   0.31412   0.32236
 Alpha virt. eigenvalues --    0.32374   0.32698   0.33055   0.33421   0.34360
 Alpha virt. eigenvalues --    0.34459   0.34871   0.35529   0.35632   0.35947
 Alpha virt. eigenvalues --    0.36189   0.36702   0.37277   0.37509   0.37720
 Alpha virt. eigenvalues --    0.37866   0.38407   0.38673   0.38874   0.39063
 Alpha virt. eigenvalues --    0.39632   0.39955   0.40173   0.40314   0.40857
 Alpha virt. eigenvalues --    0.40974   0.41205   0.41750   0.42008   0.42109
 Alpha virt. eigenvalues --    0.42500   0.42732   0.43017   0.43338   0.43902
 Alpha virt. eigenvalues --    0.44026   0.44645   0.45059   0.45229   0.45330
 Alpha virt. eigenvalues --    0.45562   0.45973   0.46239   0.46783   0.46920
 Alpha virt. eigenvalues --    0.47122   0.47559   0.47661   0.48425   0.48709
 Alpha virt. eigenvalues --    0.49084   0.49495   0.49832   0.50162   0.50266
 Alpha virt. eigenvalues --    0.50541   0.51014   0.51366   0.51691   0.52054
 Alpha virt. eigenvalues --    0.52543   0.52684   0.53211   0.53636   0.53778
 Alpha virt. eigenvalues --    0.54492   0.54785   0.55200   0.55654   0.55965
 Alpha virt. eigenvalues --    0.56650   0.56739   0.57289   0.57855   0.58037
 Alpha virt. eigenvalues --    0.58278   0.58755   0.59139   0.59809   0.60029
 Alpha virt. eigenvalues --    0.60380   0.60736   0.60919   0.61841   0.62723
 Alpha virt. eigenvalues --    0.63529   0.63841   0.64196   0.64875   0.65285
 Alpha virt. eigenvalues --    0.65922   0.66281   0.66478   0.67142   0.67345
 Alpha virt. eigenvalues --    0.67598   0.67854   0.68209   0.68668   0.69301
 Alpha virt. eigenvalues --    0.69493   0.70217   0.70324   0.70721   0.70906
 Alpha virt. eigenvalues --    0.71385   0.71825   0.72381   0.72746   0.72911
 Alpha virt. eigenvalues --    0.73260   0.73663   0.74329   0.75174   0.75554
 Alpha virt. eigenvalues --    0.75721   0.76043   0.76958   0.77232   0.77661
 Alpha virt. eigenvalues --    0.78180   0.78785   0.79075   0.79702   0.80136
 Alpha virt. eigenvalues --    0.80813   0.81116   0.81410   0.81488   0.81917
 Alpha virt. eigenvalues --    0.82194   0.82533   0.83088   0.83446   0.83886
 Alpha virt. eigenvalues --    0.84148   0.84673   0.85711   0.86076   0.86354
 Alpha virt. eigenvalues --    0.86868   0.87059   0.87658   0.88070   0.88599
 Alpha virt. eigenvalues --    0.89020   0.89574   0.89934   0.90544   0.91622
 Alpha virt. eigenvalues --    0.92093   0.92814   0.92974   0.93397   0.94128
 Alpha virt. eigenvalues --    0.94420   0.94807   0.95098   0.95390   0.96062
[...]
    30   Atom       -0.000026      0.001770     -0.001745
    31   Atom       -0.001875      0.003692     -0.001817
    32   Atom        0.000475      0.002134     -0.002610
    33   Atom        0.016417     -0.014615     -0.001802
    34   Atom        0.012739     -0.010394     -0.002345
    35   Atom        0.001650      0.000712     -0.002362
    36   Atom        0.002396     -0.001287     -0.001109
    37   Atom        0.006725     -0.003818     -0.002907
    38   Atom       -0.006581      0.008258     -0.001676
    39   Atom       -0.001463      0.002472     -0.001009
    40   Atom        0.001005     -0.000119     -0.000886
    41   Atom        0.000324     -0.000113     -0.000212
    42   Atom        0.000648     -0.000253     -0.000394
    43   Atom        0.000169      0.000381     -0.000550
    44   Atom       -0.000002      0.000419     -0.000417
    45   Atom        0.000611     -0.000208     -0.000403
    46   Atom        0.000255      0.000068     -0.000322
    47   Atom        0.000093      0.000141     -0.000234
    48   Atom        0.001411     -0.000437     -0.000974
    49   Atom       -0.000541      0.001940     -0.001398
    50   Atom        0.002224      0.000429     -0.002653
 --------------------------------------------------------
                        XY            XZ            YZ
 --------------------------------------------------------
     1   Atom       -0.001068     -0.000026      0.000352
     2   Atom       -0.001645      0.025703     -0.025584
     3   Atom        0.007461     -0.015975      0.011299
     4   Atom       -0.007093      0.063218     -0.037732
     5   Atom        0.000969     -0.008194      0.006488
     6   Atom        0.000034      0.019663     -0.015717
     7   Atom        0.000535     -0.002665      0.001885
     8   Atom       -0.002430      0.016301     -0.011951
     9   Atom       -0.003417      0.007339     -0.006444
    10   Atom        0.000478     -0.000399      0.000536
    11   Atom       -0.012826     -0.006705      0.005643
    12   Atom       -0.011035      0.005299     -0.007358
    13   Atom       -0.006743      0.013116     -0.007560
    14   Atom       -0.004856      0.031180     -0.027582
    15   Atom       -0.005112     -0.012620      0.021835
    16   Atom       -0.001910      0.019606     -0.071349
    17   Atom        0.001823     -0.002802      0.012499
    18   Atom       -0.000863      0.003662     -0.018511
    19   Atom       -0.000335     -0.001679      0.006264
    20   Atom       -0.001022      0.003329     -0.017684
    21   Atom        0.000742     -0.004307     -0.011456
    22   Atom        0.000780      0.000219      0.000393
    23   Atom       -0.000942     -0.000160      0.000228
    24   Atom       -0.000049     -0.000329     -0.001452
    25   Atom       -0.000138      0.000265     -0.000087
    26   Atom        0.000037      0.000062     -0.000287
    27   Atom        0.001024     -0.001858      0.007044
    28   Atom       -0.001380      0.004459     -0.017165
    29   Atom       -0.000201     -0.008572      0.009002
    30   Atom       -0.001805     -0.001835      0.002011
    31   Atom       -0.001342     -0.000127      0.000545
    32   Atom       -0.002295      0.001137     -0.001111
    33   Atom       -0.026048     -0.003192      0.001803
    34   Atom       -0.002634     -0.001378     -0.000259
    35   Atom        0.000935     -0.000252      0.000098
    36   Atom       -0.010504     -0.000842      0.000788
    37   Atom       -0.002469     -0.001170      0.000355
    38   Atom        0.010030      0.002403      0.001713
    39   Atom       -0.001486     -0.000313      0.000969
    40   Atom       -0.000547     -0.000299      0.000247
    41   Atom        0.000422      0.000303      0.000357
    42   Atom        0.000496      0.000124      0.000053
    43   Atom        0.000550     -0.000089     -0.000008
    44   Atom       -0.000410     -0.000210      0.000333
    45   Atom       -0.000576     -0.000163      0.000060
    46   Atom       -0.000361      0.000105     -0.000406
    47   Atom       -0.000308      0.000015     -0.000090
    48   Atom        0.000628     -0.000003      0.000112
    49   Atom        0.001273      0.000215      0.000795
    50   Atom       -0.003377     -0.000754      0.000428
 --------------------------------------------------------


 ---------------------------------------------------------------------------------
              Anisotropic Spin Dipole Couplings in Principal Axis System
 ---------------------------------------------------------------------------------

       Atom             a.u.   MegaHertz   Gauss  10(-4) cm-1        Axes

              Baa    -0.0015    -0.201    -0.072    -0.067  0.9030  0.2727 -0.3321
     1 C(13)  Bbb    -0.0013    -0.173    -0.062    -0.058  0.3427  0.0094  0.9394
              Bcc     0.0028     0.374     0.133     0.125 -0.2593  0.9621  0.0850
 
              Baa    -0.1092   -14.647    -5.226    -4.886  0.9851 -0.1463 -0.0907
     2 C(13)  Bbb    -0.1064   -14.273    -5.093    -4.761  0.1526  0.9860  0.0670
              Bcc     0.2155    28.920    10.319     9.647  0.0796 -0.0799  0.9936
 
              Baa    -0.1145   -15.370    -5.484    -5.127  0.0933 -0.0720  0.9930
     3 C(13)  Bbb     0.0489     6.565     2.343     2.190 -0.4142  0.9042  0.1045
              Bcc     0.0656     8.805     3.142     2.937  0.9054  0.4211 -0.0546
 
              Baa    -0.2346   -31.476   -11.232   -10.499  0.5527  0.8333 -0.0051
     4 C(13)  Bbb    -0.2268   -30.432   -10.859   -10.151  0.8282 -0.5500 -0.1075
              Bcc     0.4613    61.909    22.091    20.650  0.0924 -0.0552  0.9942
 
              Baa    -0.0761   -10.207    -3.642    -3.405  0.0773 -0.0540  0.9955
     5 C(13)  Bbb     0.0308     4.134     1.475     1.379  0.9964 -0.0321 -0.0791
              Bcc     0.0453     6.073     2.167     2.026  0.0363  0.9980  0.0513
 
              Baa    -0.0895   -12.015    -4.287    -4.008 -0.6149  0.7831  0.0925
     6 C(13)  Bbb    -0.0871   -11.682    -4.168    -3.897  0.7851  0.6190 -0.0218
              Bcc     0.1766    23.696     8.455     7.904  0.0744 -0.0592  0.9955
 
              Baa    -0.0247    -3.314    -1.182    -1.105  0.0718 -0.0526  0.9960
     7 C(13)  Bbb     0.0117     1.568     0.560     0.523 -0.3145  0.9465  0.0726
              Bcc     0.0130     1.745     0.623     0.582  0.9466  0.3184 -0.0514
 
              Baa    -0.0729    -9.782    -3.490    -3.263  0.4774  0.8786  0.0128
     8 C(13)  Bbb    -0.0693    -9.301    -3.319    -3.103  0.8753 -0.4742 -0.0951
              Bcc     0.1422    19.083     6.809     6.365  0.0775 -0.0566  0.9954
 
              Baa    -0.0451    -1.740    -0.621    -0.580  0.4491  0.8933  0.0194
     9 N(14)  Bbb    -0.0376    -1.449    -0.517    -0.483  0.8913 -0.4464 -0.0789
              Bcc     0.0827     3.189     1.138     1.064  0.0618 -0.0527  0.9967
 
              Baa    -0.0021    -0.363    -0.130    -0.121  0.1437 -0.2091  0.9673
    10 B(11)  Bbb     0.0006     0.101     0.036     0.034 -0.4570  0.8529  0.2522
              Bcc     0.0015     0.263     0.094     0.088  0.8778  0.4783 -0.0270
 
              Baa    -0.0106    -5.333    -1.903    -1.779  0.6315  0.2667  0.7281
    11 F(19)  Bbb    -0.0086    -4.310    -1.538    -1.438  0.4148  0.6771 -0.6078
              Bcc     0.0192     9.643     3.441     3.217 -0.6551  0.6858  0.3169
 
              Baa    -0.0112    -5.621    -2.006    -1.875 -0.0594  0.3713  0.9266
    12 F(19)  Bbb    -0.0070    -3.523    -1.257    -1.175  0.7866  0.5889 -0.1855
              Bcc     0.0182     9.144     3.263     3.050 -0.6146  0.7179 -0.3270
 
              Baa    -0.0591    -2.281    -0.814    -0.761  0.5042  0.8636 -0.0005
    13 N(14)  Bbb    -0.0452    -1.743    -0.622    -0.581  0.8591 -0.5017 -0.1018
              Bcc     0.1043     4.023     1.436     1.342  0.0882 -0.0509  0.9948
 
              Baa    -0.1177   -15.801    -5.638    -5.271  0.6171  0.7869  0.0072
    14 C(13)  Bbb    -0.1130   -15.160    -5.410    -5.057  0.7816 -0.6118 -0.1218
              Bcc     0.2307    30.961    11.048    10.327  0.0915 -0.0808  0.9925
 
              Baa    -0.0914   -12.266    -4.377    -4.092  0.0821 -0.1636  0.9831
    15 C(13)  Bbb     0.0371     4.983     1.778     1.662  0.4710  0.8757  0.1064
              Bcc     0.0543     7.283     2.599     2.429  0.8783 -0.4543 -0.1490
 
              Baa    -0.1085   -14.557    -5.194    -4.856 -0.5157  0.8256  0.2292
    16 C(13)  Bbb    -0.1024   -13.744    -4.904    -4.584  0.8545  0.5150  0.0677
              Bcc     0.2109    28.300    10.098     9.440  0.0621 -0.2307  0.9710
 
              Baa    -0.0361    -4.848    -1.730    -1.617  0.0555 -0.2542  0.9655
    17 C(13)  Bbb     0.0148     1.991     0.711     0.664 -0.1650  0.9514  0.2600
              Bcc     0.0213     2.857     1.019     0.953  0.9847  0.1737 -0.0109
 
              Baa    -0.0244    -3.277    -1.169    -1.093 -0.2124  0.9392  0.2699
    18 C(13)  Bbb    -0.0237    -3.187    -1.137    -1.063  0.9758  0.2186  0.0071
              Bcc     0.0482     6.463     2.306     2.156  0.0523 -0.2649  0.9629
 
              Baa    -0.0171    -2.289    -0.817    -0.764  0.0583 -0.2603  0.9638
    19 C(13)  Bbb     0.0074     0.999     0.357     0.333  0.3798  0.8986  0.2197
              Bcc     0.0096     1.290     0.460     0.430  0.9232 -0.3533 -0.1513
 
              Baa    -0.0251    -3.368    -1.202    -1.124  0.1045  0.9646  0.2421
    20 C(13)  Bbb    -0.0235    -3.158    -1.127    -1.053  0.9934 -0.0895 -0.0725
              Bcc     0.0486     6.526     2.329     2.177  0.0483 -0.2480  0.9675
 
              Baa    -0.0244    -0.941    -0.336    -0.314  0.9977 -0.0401  0.0547
    21 N(14)  Bbb    -0.0235    -0.906    -0.323    -0.302  0.0306  0.9858  0.1651
              Bcc     0.0479     1.847     0.659     0.616 -0.0606 -0.1630  0.9848
 
              Baa    -0.0010    -0.128    -0.046    -0.043  0.0240 -0.3117  0.9499
    22 C(13)  Bbb    -0.0003    -0.045    -0.016    -0.015 -0.6856  0.6864  0.2425
              Bcc     0.0013     0.173     0.062     0.058  0.7276  0.6570  0.1973
 
              Baa    -0.0011    -0.143    -0.051    -0.048  0.0456 -0.1026  0.9937
    23 C(13)  Bbb    -0.0004    -0.060    -0.021    -0.020  0.7816  0.6231  0.0285
              Bcc     0.0015     0.203     0.072     0.068 -0.6221  0.7754  0.1086
 
              Baa    -0.0013    -0.171    -0.061    -0.057  0.3771  0.7237  0.5779
    24 C(13)  Bbb    -0.0006    -0.080    -0.029    -0.027  0.9216 -0.3552 -0.1565
              Bcc     0.0019     0.251     0.090     0.084 -0.0920 -0.5916  0.8009
 
              Baa    -0.0003    -0.034    -0.012    -0.011  0.1523  0.9666  0.2062
    25 C(13)  Bbb    -0.0002    -0.026    -0.009    -0.009 -0.5221 -0.0984  0.8472
              Bcc     0.0005     0.061     0.022     0.020  0.8392 -0.2367  0.4896
 
              Baa    -0.0004    -0.014    -0.005    -0.005 -0.1522  0.6447  0.7491
    26 N(14)  Bbb     0.0001     0.005     0.002     0.002  0.9830  0.1772  0.0472
              Bcc     0.0002     0.009     0.003     0.003 -0.1023  0.7436 -0.6607
 
              Baa    -0.0208    -2.786    -0.994    -0.929  0.0639 -0.2427  0.9680
    27 C(13)  Bbb     0.0092     1.238     0.442     0.413 -0.2418  0.9373  0.2510
              Bcc     0.0115     1.548     0.552     0.516  0.9682  0.2501 -0.0012
 
              Baa    -0.0236    -3.170    -1.131    -1.057  0.1007  0.9628  0.2506
    28 C(13)  Bbb    -0.0218    -2.930    -1.045    -0.977  0.9925 -0.0796 -0.0929
              Bcc     0.0455     6.100     2.177     2.035  0.0695 -0.2580  0.9636
 
              Baa    -0.0823   -11.042    -3.940    -3.683  0.0687 -0.0735  0.9949
    29 C(13)  Bbb     0.0398     5.344     1.907     1.783  0.3350  0.9411  0.0463
              Bcc     0.0425     5.698     2.033     1.901  0.9397 -0.3301 -0.0893
 
              Baa    -0.0031    -1.641    -0.586    -0.547  0.4054 -0.2175  0.8879
    30 H(1)   Bbb    -0.0010    -0.557    -0.199    -0.186  0.7574  0.6237 -0.1931
              Bcc     0.0041     2.198     0.784     0.733 -0.5118  0.7508  0.4176
 
              Baa    -0.0022    -1.164    -0.415    -0.388  0.9750  0.2221  0.0069
    31 H(1)   Bbb    -0.0019    -0.998    -0.356    -0.333  0.0143 -0.0940  0.9955
              Bcc     0.0041     2.162     0.771     0.721 -0.2217  0.9705  0.0949
 
              Baa    -0.0030    -1.609    -0.574    -0.537 -0.2504  0.0962  0.9634
    32 H(1)   Bbb    -0.0011    -0.583    -0.208    -0.194  0.7827  0.6057  0.1430
              Bcc     0.0041     2.192     0.782     0.731 -0.5698  0.7898 -0.2270
 
              Baa    -0.0294   -15.696    -5.601    -5.236  0.4941  0.8694  0.0004
    33 H(1)   Bbb    -0.0022    -1.176    -0.420    -0.392  0.0946 -0.0542  0.9940
              Bcc     0.0316    16.872     6.020     5.628  0.8642 -0.4911 -0.1090
 
              Baa    -0.0107    -5.715    -2.039    -1.906  0.1144  0.9922  0.0495
    34 H(1)   Bbb    -0.0024    -1.302    -0.465    -0.434  0.0801 -0.0589  0.9950
              Bcc     0.0132     7.017     2.504     2.341  0.9902 -0.1098 -0.0862
 
              Baa    -0.0024    -1.273    -0.454    -0.425  0.0748 -0.0540  0.9957
    35 H(1)   Bbb     0.0002     0.082     0.029     0.027 -0.5176  0.8514  0.0850
              Bcc     0.0022     1.191     0.425     0.397  0.8523  0.5218 -0.0357
 
              Baa    -0.0101    -5.394    -1.925    -1.799  0.6429  0.7660 -0.0070
    36 H(1)   Bbb    -0.0012    -0.648    -0.231    -0.216  0.0751 -0.0540  0.9957
              Bcc     0.0113     6.043     2.156     2.016  0.7623 -0.6406 -0.0922
 
              Baa    -0.0044    -2.334    -0.833    -0.778  0.2097  0.9753 -0.0691
    37 H(1)   Bbb    -0.0030    -1.624    -0.580    -0.542  0.1294  0.0424  0.9907
              Bcc     0.0074     3.958     1.412     1.320  0.9692 -0.2167 -0.1173
 
              Baa    -0.0118    -6.311    -2.252    -2.105  0.8908 -0.4331 -0.1377
    38 H(1)   Bbb    -0.0019    -1.029    -0.367    -0.343  0.0481 -0.2115  0.9762
              Bcc     0.0138     7.341     2.619     2.449  0.4519  0.8762  0.1676
 
              Baa    -0.0020    -1.046    -0.373    -0.349  0.9470  0.3208 -0.0154
    39 H(1)   Bbb    -0.0013    -0.669    -0.239    -0.223  0.0893 -0.2171  0.9720
              Bcc     0.0032     1.716     0.612     0.572 -0.3085  0.9219  0.2343
 
              Baa    -0.0010    -0.517    -0.185    -0.173  0.0842 -0.2272  0.9702
    40 H(1)   Bbb    -0.0003    -0.171    -0.061    -0.057  0.4091  0.8957  0.1743
              Bcc     0.0013     0.688     0.246     0.230  0.9086 -0.3823 -0.1683
 
              Baa    -0.0005    -0.282    -0.100    -0.094 -0.1001  0.7058 -0.7013
    41 H(1)   Bbb    -0.0003    -0.137    -0.049    -0.046  0.6551 -0.4838 -0.5804
              Bcc     0.0008     0.418     0.149     0.140  0.7489  0.5175  0.4139
 
              Baa    -0.0005    -0.252    -0.090    -0.084 -0.4070  0.9130  0.0282
    42 H(1)   Bbb    -0.0004    -0.218    -0.078    -0.073 -0.0846 -0.0684  0.9941
              Bcc     0.0009     0.470     0.168     0.157  0.9095  0.4022  0.1050
 
              Baa    -0.0006    -0.303    -0.108    -0.101  0.1953 -0.1045  0.9752
    43 H(1)   Bbb    -0.0003    -0.144    -0.052    -0.048  0.7450 -0.6308 -0.2168
              Bcc     0.0008     0.447     0.160     0.149  0.6378  0.7689 -0.0454
 
              Baa    -0.0005    -0.291    -0.104    -0.097  0.1748 -0.2544  0.9512
    44 H(1)   Bbb    -0.0003    -0.135    -0.048    -0.045  0.8498  0.5269 -0.0152
              Bcc     0.0008     0.425     0.152     0.142 -0.4973  0.8109  0.3083
 
              Baa    -0.0005    -0.272    -0.097    -0.091  0.4706  0.8473  0.2462
    45 H(1)   Bbb    -0.0004    -0.224    -0.080    -0.075 -0.0027 -0.2776  0.9607
              Bcc     0.0009     0.497     0.177     0.166  0.8823 -0.4528 -0.1284
 
              Baa    -0.0006    -0.317    -0.113    -0.106  0.1449  0.5744  0.8057
    46 H(1)   Bbb    -0.0001    -0.033    -0.012    -0.011  0.7224  0.4949 -0.4828
              Bcc     0.0007     0.350     0.125     0.117  0.6761 -0.6520  0.3432
 
              Baa    -0.0003    -0.146    -0.052    -0.049  0.3210  0.4230  0.8474
    47 H(1)   Bbb    -0.0002    -0.086    -0.031    -0.029  0.6716  0.5292 -0.5186
              Bcc     0.0004     0.232     0.083     0.077 -0.6678  0.7355 -0.1142
 
              Baa    -0.0010    -0.536    -0.191    -0.179  0.0709 -0.2675  0.9609
    48 H(1)   Bbb    -0.0006    -0.320    -0.114    -0.107 -0.2861  0.9174  0.2765
              Bcc     0.0016     0.856     0.306     0.286  0.9556  0.2945  0.0115
 
              Baa    -0.0016    -0.846    -0.302    -0.282  0.1177 -0.2586  0.9588
    49 H(1)   Bbb    -0.0011    -0.563    -0.201    -0.188  0.9193 -0.3367 -0.2037
              Bcc     0.0026     1.409     0.503     0.470  0.3755  0.9054  0.1981
 
              Baa    -0.0028    -1.480    -0.528    -0.494  0.2052  0.0861  0.9749
    50 H(1)   Bbb    -0.0021    -1.144    -0.408    -0.382  0.5793  0.7922 -0.1919
              Bcc     0.0049     2.624     0.936     0.875  0.7889 -0.6042 -0.1127
 

 ---------------------------------------------------------------------------------

 No NMR shielding tensors so no spin-rotation constants.
 Leave Link  601 at Thu Nov  6 05:52:30 2025, MaxMem= 30870077440 cpu:             175.7 elap:               3.1
 (Enter /public/software/gauss/g16/l9999.exe)
 1\1\GINC-CU015\SP\UM062X\def2TZVPP\C22H21B1F2N4(1-,2)\BAIDING\06-Nov-2
 025\0\\#p M062X/DEF2TZVPP scrf=(solvent=water) em=GD3\\Energy calculat
 ion for M100032410_reduced\\-1,2\C,0,-5.184608,3.631176,0.435785\C,0,-
 4.101211,2.609383,0.26854\C,0,-4.296108,1.19849,0.176395\C,0,-5.488693
 ,0.475119,0.241492\C,0,-5.479711,-0.940035,0.163228\C,0,-6.509101,-1.8
 97321,0.190222\C,0,-5.89815,-3.167899,0.071647\C,0,-4.528876,-2.956755
 ,-0.023458\N,0,-4.268888,-1.608799,0.032352\B,0,-2.87346,-0.957327,-0.
 024618\F,0,-2.224864,-1.369155,-1.21765\F,0,-2.085391,-1.406452,1.0598
 33\N,0,-3.050966,0.577343,0.016762\C,0,-2.075155,1.574629,0.017931\C,0
 ,-0.653232,1.4651,-0.109856\C,0,0.146802,0.389241,-0.376779\C,0,1.6009
 35,0.408859,-0.461817\C,0,2.407782,1.539612,-0.208687\C,0,3.792698,1.4
 97395,-0.305946\C,0,4.473553,0.311048,-0.671238\N,0,5.864159,0.289989,
 -0.81809\C,0,6.626335,1.458477,-0.381063\C,0,6.569833,-0.984046,-0.807
 967\C,0,6.591654,-1.737102,0.549146\C,0,7.37166,-1.064333,1.583126\N,0
 ,8.001708,-0.534118,2.405996\C,0,3.674109,-0.83062,-0.914205\C,0,2.290
 246,-0.772384,-0.812293\C,0,-2.731547,2.819529,0.176783\H,0,-5.767532,
 3.464996,1.350546\H,0,-4.763339,4.639158,0.490029\H,0,-5.897593,3.6137
 25,-0.398297\H,0,-6.428268,1.002257,0.359893\H,0,-7.565424,-1.679995,0
 .282323\H,0,-6.392633,-4.130711,0.055261\H,0,-3.725134,-3.672737,-0.12
 6867\H,0,-0.168916,2.431703,0.022639\H,0,-0.310494,-0.573446,-0.572301
 \H,0,1.948049,2.479456,0.083054\H,0,4.349352,2.400739,-0.089556\H,0,6.
 493283,1.688029,0.684774\H,0,7.685832,1.27503,-0.563104\H,0,6.340157,2
 .344175,-0.956542\H,0,6.125727,-1.662504,-1.539146\H,0,7.595672,-0.803
 87,-1.134394\H,0,5.573113,-1.879288,0.924498\H,0,7.026039,-2.731555,0.
 39718\H,0,4.129126,-1.774474,-1.190049\H,0,1.716731,-1.674966,-1.01011
 3\H,0,-2.221535,3.775097,0.208563\\Version=ES64L-G16RevA.03\State=2-A\
 HF=-1294.8240573\S2=0.790211\S2-1=0.\S2A=0.751075\RMSD=8.270e-09\Dipol
 e=5.2659938,1.0037834,-1.258065\Quadrupole=-26.8622583,26.0621795,0.80
 00788,-22.7685047,-23.7665386,3.1537026\PG=C01 [X(C22H21B1F2N4)]\\@


  DISAPPOINTMENT IS THE NURSE OF WISDOM.               
                              SIR BOYLE ROCHE                 
 Job cpu time:       0 days 13 hours 51 minutes 54.7 seconds.
 Elapsed time:       0 days  0 hours 13 minutes 10.4 seconds.
 File lengths (MBytes):  RWF=   1543 Int=      0 D2E=      0 Chk=    101 Scr=      1
 Normal termination of Gaussian 16 at Thu Nov  6 05:52:30 2025.
