 Entering Gaussian System, Link 0=g16
 Input=M100036283_sp.gjf
 Output=M100036283_sp.log
 Initial command:
 /public/software/gauss/g16/l1.exe "/public/home/baiding/1101_v2_sp/tmp_M100036283_sp_1568608/Gau-47366.inp" -scrdir="/public/home/baiding/1101_v2_sp/tmp_M100036283_sp_1568608/"
 Entering Link 1 = /public/software/gauss/g16/l1.exe PID=     47367.
  
 Copyright (c) 1988,1990,1992,1993,1995,1998,2003,2009,2016,
            Gaussian, Inc.  All Rights Reserved.
  
 This is part of the Gaussian(R) 16 program.  It is based on
 the Gaussian(R) 09 system (copyright 2009, Gaussian, Inc.),
 the Gaussian(R) 03 system (copyright 2003, Gaussian, Inc.),
 the Gaussian(R) 98 system (copyright 1998, Gaussian, Inc.),
 the Gaussian(R) 94 system (copyright 1995, Gaussian, Inc.),
 the Gaussian 92(TM) system (copyright 1992, Gaussian, Inc.),
 the Gaussian 90(TM) system (copyright 1990, Gaussian, Inc.),
 the Gaussian 88(TM) system (copyright 1988, Gaussian, Inc.),
 the Gaussian 86(TM) system (copyright 1986, Carnegie Mellon
 University), and the Gaussian 82(TM) system (copyright 1983,
 Carnegie Mellon University). Gaussian is a federally registered
 trademark of Gaussian, Inc.
  
 This software contains proprietary and confidential information,
 including trade secrets, belonging to Gaussian, Inc.
  
 This software is provided under written license and may be
 used, copied, transmitted, or stored only in accord with that
 written license.
  
 The following legend is applicable only to US Government
 contracts under FAR:
  
                    RESTRICTED RIGHTS LEGEND
  
 Use, reproduction and disclosure by the US Government is
 subject to restrictions as set forth in subparagraphs (a)
 and (c) of the Commercial Computer Software - Restricted
 Rights clause in FAR 52.227-19.
  
 Gaussian, Inc.
 340 Quinnipiac St., Bldg. 40, Wallingford CT 06492
  
  
 ---------------------------------------------------------------
 Warning -- This program may not be used in any manner that
 competes with the business of Gaussian, Inc. or will provide
 assistance to any competitor of Gaussian, Inc.  The licensee
 of this program is prohibited from giving any competitor of
 Gaussian, Inc. access to this program.  By using this program,
 the user acknowledges that Gaussian, Inc. is engaged in the
 business of creating and licensing software in the field of
 computational chemistry and represents and warrants to the
 licensee that it is not a competitor of Gaussian, Inc. and that
 it will not use this program in any manner prohibited above.
 ---------------------------------------------------------------
  

 Cite this work as:
 Gaussian 16, Revision A.03,
 M. J. Frisch, G. W. Trucks, H. B. Schlegel, G. E. Scuseria, 
 M. A. Robb, J. R. Cheeseman, G. Scalmani, V. Barone, 
 G. A. Petersson, H. Nakatsuji, X. Li, M. Caricato, A. V. Marenich, 
 J. Bloino, B. G. Janesko, R. Gomperts, B. Mennucci, H. P. Hratchian, 
 J. V. Ortiz, A. F. Izmaylov, J. L. Sonnenberg, D. Williams-Young, 
 F. Ding, F. Lipparini, F. Egidi, J. Goings, B. Peng, A. Petrone, 
 T. Henderson, D. Ranasinghe, V. G. Zakrzewski, J. Gao, N. Rega, 
 G. Zheng, W. Liang, M. Hada, M. Ehara, K. Toyota, R. Fukuda, 
 J. Hasegawa, M. Ishida, T. Nakajima, Y. Honda, O. Kitao, H. Nakai, 
 T. Vreven, K. Throssell, J. A. Montgomery, Jr., J. E. Peralta, 
 F. Ogliaro, M. J. Bearpark, J. J. Heyd, E. N. Brothers, K. N. Kudin, 
 V. N. Staroverov, T. A. Keith, R. Kobayashi, J. Normand, 
 K. Raghavachari, A. P. Rendell, J. C. Burant, S. S. Iyengar, 
 J. Tomasi, M. Cossi, J. M. Millam, M. Klene, C. Adamo, R. Cammi, 
 J. W. Ochterski, R. L. Martin, K. Morokuma, O. Farkas, 
 J. B. Foresman, and D. J. Fox, Gaussian, Inc., Wallingford CT, 2016.
 
 ******************************************
 Gaussian 16:  ES64L-G16RevA.03 25-Dec-2016
                 7-Nov-2025 
 ******************************************
 %nprocshared=64
 Will use up to   64 processors via shared memory.
 %mem=230GB
 %chk=M100036283_sp.chk
 ----------------------------------------------
 #p M062X/DEF2TZVPP scrf=(solvent=water) em=GD3
 ----------------------------------------------
 1/38=1,172=1/1;
 2/12=2,17=6,18=5,40=1/2;
 3/5=44,7=202,11=2,25=1,30=1,70=2201,72=1,74=-55,124=31/1,2,3;
 4//1;
 5/5=2,38=5,53=1/2;
 6/7=2,8=2,9=2,10=2,28=1/1;
 99/5=1,9=1/99;
 Leave Link    1 at Fri Nov  7 17:51:50 2025, MaxMem= 30870077440 cpu:              20.4 elap:               0.3
 (Enter /public/software/gauss/g16/l101.exe)
 ---------------------------------
 Energy calculation for M100036283
 ---------------------------------
 Symbolic Z-matrix:
 Charge =  0 Multiplicity = 1
 C                    -4.57961   3.1053    0.1005 
 C                    -3.17615   2.58226   0.07142 
 C                    -2.04525   3.38017   0.09279 
 C                    -0.90019   2.54571   0.06737 
 C                     0.49172   2.92034   0.08431 
 C                     0.92282   4.20111  -0.02464 
 C                     2.31151   4.64668  -0.00465 
 C                     2.57458   6.02537  -0.14931 
 C                     3.8715    6.51858  -0.14102 
 C                     4.94915   5.62969   0.01482 
 C                     6.28881   6.12462   0.0253 
 N                     7.38357   6.5285    0.03388 
 C                     4.70817   4.24948   0.16103 
 C                     3.40841   3.77009   0.15087 
 N                    -1.31227   1.24562   0.03791 
 C                    -2.70788   1.22211   0.03389 
 C                    -3.40358  -0.00003   0.02258 
 C                    -4.89812   0.00003   0.00987 
 C                    -5.59236   0.0003   -1.20771 
 C                    -6.98854   0.00035  -1.22007 
 C                    -7.70119   0.00015  -0.01878 
 C                    -7.01313  -0.00011   1.19675 
 C                    -5.61714  -0.00018   1.21285 
 C                    -2.70792  -1.22217   0.03417 
 C                    -3.17619  -2.58234   0.07163 
 C                    -4.57966  -3.10538   0.1006 
 C                    -2.04531  -3.38025   0.09292 
 C                    -0.90024  -2.54577   0.06749 
 C                     0.49167  -2.9204    0.0843 
 C                     0.9228   -4.20115  -0.02465 
 C                     2.31151  -4.64667  -0.00488 
 C                     2.57451  -6.02554  -0.14788 
 C                     3.87143  -6.51874  -0.13959 
 C                     4.94917  -5.62965   0.0145 
 C                     6.28883  -6.12458   0.02496 
 N                     7.38359  -6.52846   0.03352 
 C                     4.70826  -4.24924   0.15892 
 C                     3.4085   -3.76986   0.14879 
 N                    -1.31231  -1.2457    0.03809 
 B                    -0.41598  -0.00004  -0.18722 
 F                     0.65003   0.00001   0.7279 
 F                     0.09734  -0.0002   -1.49046 
 H                    -5.12477   2.76449   0.98578 
 H                    -4.56184   4.19814   0.1112 
 H                    -5.15476   2.78141  -0.77191 
 H                    -2.03329   4.46016   0.14205 
 H                     1.20442   2.11224   0.19989 
 H                     0.19016   4.99579  -0.14535 
 H                     1.74271   6.71258  -0.26973 
 H                     4.05854   7.58089  -0.25359 
 H                     5.54304   3.56771   0.281 
 H                     3.24447   2.70427   0.26457 
 H                    -5.0385    0.00047  -2.14153 
 H                    -7.51769   0.00056  -2.16824 
 H                    -8.78696   0.0002   -0.02987 
 H                    -7.56153  -0.00026   2.13392 
 H                    -5.08239  -0.00038   2.15773 
 H                    -5.125    -2.76435   0.98569 
 H                    -5.15462  -2.7817   -0.77202 
 H                    -4.5619   -4.19821   0.11154 
 H                    -2.03331  -4.46023   0.14219 
 H                     1.20437  -2.11231   0.19986 
 H                     0.19015  -4.99589  -0.14504 
 H                     1.74258  -6.71292  -0.26697 
 H                     4.05842  -7.58121  -0.25083 
 H                     5.54321  -3.5673    0.27743 
 H                     3.24463  -2.70386   0.26093 
 
 ITRead=  0  0  0  0  0  0  0  0  0  0  0  0  0  0  0  0  0  0  0  0
 ITRead=  0  0  0  0  0  0  0  0  0  0  0  0  0  0  0  0  0  0  0  0
 ITRead=  0  0  0  0  0  0  0  0  0  0  0  0  0  0  0  0  0  0  0  0
 ITRead=  0  0  0  0  0  0  0
 MicOpt= -1 -1 -1 -1 -1 -1 -1 -1 -1 -1 -1 -1 -1 -1 -1 -1 -1 -1 -1 -1
 MicOpt= -1 -1 -1 -1 -1 -1 -1 -1 -1 -1 -1 -1 -1 -1 -1 -1 -1 -1 -1 -1
 MicOpt= -1 -1 -1 -1 -1 -1 -1 -1 -1 -1 -1 -1 -1 -1 -1 -1 -1 -1 -1 -1
 MicOpt= -1 -1 -1 -1 -1 -1 -1
 NAtoms=     67 NQM=       67 NQMF=       0 NMMI=      0 NMMIF=      0
                NMic=       0 NMicF=      0.
                    Isotopes and Nuclear Properties:
 (Nuclear quadrupole moments (NQMom) in fm**2, nuclear magnetic moments (NMagM)
  in nuclear magnetons)

  Atom         1           2           3           4           5           6           7           8           9          10
 IAtWgt=          12          12          12          12          12          12          12          12          12          12
 AtmWgt=  12.0000000  12.0000000  12.0000000  12.0000000  12.0000000  12.0000000  12.0000000  12.0000000  12.0000000  12.0000000
 NucSpn=           0           0           0           0           0           0           0           0           0           0
 AtZEff=  -0.0000000  -0.0000000  -0.0000000  -0.0000000  -0.0000000  -0.0000000  -0.0000000  -0.0000000  -0.0000000  -0.0000000
 NQMom=    0.0000000   0.0000000   0.0000000   0.0000000   0.0000000   0.0000000   0.0000000   0.0000000   0.0000000   0.0000000
 NMagM=    0.0000000   0.0000000   0.0000000   0.0000000   0.0000000   0.0000000   0.0000000   0.0000000   0.0000000   0.0000000
 AtZNuc=   6.0000000   6.0000000   6.0000000   6.0000000   6.0000000   6.0000000   6.0000000   6.0000000   6.0000000   6.0000000

  Atom        11          12          13          14          15          16          17          18          19          20
 IAtWgt=          12          14          12          12          14          12          12          12          12          12
 AtmWgt=  12.0000000  14.0030740  12.0000000  12.0000000  14.0030740  12.0000000  12.0000000  12.0000000  12.0000000  12.0000000
 NucSpn=           0           2           0           0           2           0           0           0           0           0
 AtZEff=  -0.0000000  -0.0000000  -0.0000000  -0.0000000  -0.0000000  -0.0000000  -0.0000000  -0.0000000  -0.0000000  -0.0000000
 NQMom=    0.0000000   2.0440000   0.0000000   0.0000000   2.0440000   0.0000000   0.0000000   0.0000000   0.0000000   0.0000000
 NMagM=    0.0000000   0.4037610   0.0000000   0.0000000   0.4037610   0.0000000   0.0000000   0.0000000   0.0000000   0.0000000
 AtZNuc=   6.0000000   7.0000000   6.0000000   6.0000000   7.0000000   6.0000000   6.0000000   6.0000000   6.0000000   6.0000000

  Atom        21          22          23          24          25          26          27          28          29          30
 IAtWgt=          12          12          12          12          12          12          12          12          12          12
 AtmWgt=  12.0000000  12.0000000  12.0000000  12.0000000  12.0000000  12.0000000  12.0000000  12.0000000  12.0000000  12.0000000
 NucSpn=           0           0           0           0           0           0           0           0           0           0
 AtZEff=  -0.0000000  -0.0000000  -0.0000000  -0.0000000  -0.0000000  -0.0000000  -0.0000000  -0.0000000  -0.0000000  -0.0000000
 NQMom=    0.0000000   0.0000000   0.0000000   0.0000000   0.0000000   0.0000000   0.0000000   0.0000000   0.0000000   0.0000000
 NMagM=    0.0000000   0.0000000   0.0000000   0.0000000   0.0000000   0.0000000   0.0000000   0.0000000   0.0000000   0.0000000
 AtZNuc=   6.0000000   6.0000000   6.0000000   6.0000000   6.0000000   6.0000000   6.0000000   6.0000000   6.0000000   6.0000000

  Atom        31          32          33          34          35          36          37          38          39          40
 IAtWgt=          12          12          12          12          12          14          12          12          14          11
 AtmWgt=  12.0000000  12.0000000  12.0000000  12.0000000  12.0000000  14.0030740  12.0000000  12.0000000  14.0030740  11.0093053
 NucSpn=           0           0           0           0           0           2           0           0           2           3
 AtZEff=  -0.0000000  -0.0000000  -0.0000000  -0.0000000  -0.0000000  -0.0000000  -0.0000000  -0.0000000  -0.0000000  -0.0000000
 NQMom=    0.0000000   0.0000000   0.0000000   0.0000000   0.0000000   2.0440000   0.0000000   0.0000000   2.0440000   4.0590000
 NMagM=    0.0000000   0.0000000   0.0000000   0.0000000   0.0000000   0.4037610   0.0000000   0.0000000   0.4037610   2.6886370
 AtZNuc=   6.0000000   6.0000000   6.0000000   6.0000000   6.0000000   7.0000000   6.0000000   6.0000000   7.0000000   5.0000000

  Atom        41          42          43          44          45          46          47          48          49          50
 IAtWgt=          19          19           1           1           1           1           1           1           1           1
 AtmWgt=  18.9984033  18.9984033   1.0078250   1.0078250   1.0078250   1.0078250   1.0078250   1.0078250   1.0078250   1.0078250
 NucSpn=           1           1           1           1           1           1           1           1           1           1
 AtZEff=  -0.0000000  -0.0000000  -0.0000000  -0.0000000  -0.0000000  -0.0000000  -0.0000000  -0.0000000  -0.0000000  -0.0000000
 NQMom=    0.0000000   0.0000000   0.0000000   0.0000000   0.0000000   0.0000000   0.0000000   0.0000000   0.0000000   0.0000000
 NMagM=    2.6288670   2.6288670   2.7928460   2.7928460   2.7928460   2.7928460   2.7928460   2.7928460   2.7928460   2.7928460
 AtZNuc=   9.0000000   9.0000000   1.0000000   1.0000000   1.0000000   1.0000000   1.0000000   1.0000000   1.0000000   1.0000000

  Atom        51          52          53          54          55          56          57          58          59          60
 IAtWgt=           1           1           1           1           1           1           1           1           1           1
 AtmWgt=   1.0078250   1.0078250   1.0078250   1.0078250   1.0078250   1.0078250   1.0078250   1.0078250   1.0078250   1.0078250
 NucSpn=           1           1           1           1           1           1           1           1           1           1
 AtZEff=  -0.0000000  -0.0000000  -0.0000000  -0.0000000  -0.0000000  -0.0000000  -0.0000000  -0.0000000  -0.0000000  -0.0000000
 NQMom=    0.0000000   0.0000000   0.0000000   0.0000000   0.0000000   0.0000000   0.0000000   0.0000000   0.0000000   0.0000000
 NMagM=    2.7928460   2.7928460   2.7928460   2.7928460   2.7928460   2.7928460   2.7928460   2.7928460   2.7928460   2.7928460
 AtZNuc=   1.0000000   1.0000000   1.0000000   1.0000000   1.0000000   1.0000000   1.0000000   1.0000000   1.0000000   1.0000000

  Atom        61          62          63          64          65          66          67
 IAtWgt=           1           1           1           1           1           1           1
 AtmWgt=   1.0078250   1.0078250   1.0078250   1.0078250   1.0078250   1.0078250   1.0078250
 NucSpn=           1           1           1           1           1           1           1
 AtZEff=  -0.0000000  -0.0000000  -0.0000000  -0.0000000  -0.0000000  -0.0000000  -0.0000000
 NQMom=    0.0000000   0.0000000   0.0000000   0.0000000   0.0000000   0.0000000   0.0000000
 NMagM=    2.7928460   2.7928460   2.7928460   2.7928460   2.7928460   2.7928460   2.7928460
 AtZNuc=   1.0000000   1.0000000   1.0000000   1.0000000   1.0000000   1.0000000   1.0000000
 Leave Link  101 at Fri Nov  7 17:51:51 2025, MaxMem= 30870077440 cpu:               4.3 elap:               0.1
 (Enter /public/software/gauss/g16/l202.exe)
 Stoichiometry    C35H25BF2N4
 Framework group  C1[X(C35H25BF2N4)]
 Deg. of freedom   195
 Full point group                 C1      NOp   1
 Largest Abelian subgroup         C1      NOp   1
 Largest concise Abelian subgroup C1      NOp   1
                         Standard orientation:                         
 ---------------------------------------------------------------------
 Center     Atomic      Atomic             Coordinates (Angstroms)
 Number     Number       Type             X           Y           Z
 ---------------------------------------------------------------------
      1          6           0       -4.579610   -3.105306   -0.100498
      2          6           0       -3.176146   -2.582259   -0.071420
      3          6           0       -2.045251   -3.380174   -0.092791
      4          6           0       -0.900191   -2.545713   -0.067367
      5          6           0        0.491720   -2.920343   -0.084308
      6          6           0        0.922822   -4.201107    0.024636
      7          6           0        2.311511   -4.646684    0.004647
      8          6           0        2.574580   -6.025370    0.149309
      9          6           0        3.871499   -6.518575    0.141019
     10          6           0        4.949154   -5.629693   -0.014821
     11          6           0        6.288814   -6.124621   -0.025296
     12          7           0        7.383573   -6.528503   -0.033876
     13          6           0        4.708168   -4.249480   -0.161030
     14          6           0        3.408413   -3.770086   -0.150867
     15          7           0       -1.312266   -1.245616   -0.037906
     16          6           0       -2.707884   -1.222107   -0.033885
     17          6           0       -3.403580    0.000033   -0.022575
     18          6           0       -4.898115   -0.000026   -0.009866
     19          6           0       -5.592360   -0.000303    1.207705
     20          6           0       -6.988541   -0.000355    1.220065
     21          6           0       -7.701185   -0.000152    0.018782
     22          6           0       -7.013134    0.000105   -1.196746
     23          6           0       -5.617140    0.000179   -1.212847
     24          6           0       -2.707921    1.222168   -0.034173
     25          6           0       -3.176191    2.582339   -0.071633
     26          6           0       -4.579661    3.105375   -0.100599
     27          6           0       -2.045308    3.380252   -0.092922
     28          6           0       -0.900244    2.545773   -0.067488
     29          6           0        0.491667    2.920395   -0.084297
     30          6           0        0.922800    4.201148    0.024646
     31          6           0        2.311510    4.646674    0.004878
     32          6           0        2.574504    6.025543    0.147883
     33          6           0        3.871428    6.518738    0.139588
     34          6           0        4.949164    5.629655   -0.014503
     35          6           0        6.288828    6.124580   -0.024955
     36          7           0        7.383587    6.528460   -0.033516
     37          6           0        4.708262    4.249238   -0.158921
     38          6           0        3.408502    3.769855   -0.148789
     39          7           0       -1.312310    1.245695   -0.038093
     40          5           0       -0.415977    0.000038    0.187220
     41          9           0        0.650030   -0.000006   -0.727903
     42          9           0        0.097340    0.000195    1.490457
     43          1           0       -5.124771   -2.764489   -0.985784
     44          1           0       -4.561835   -4.198137   -0.111203
     45          1           0       -5.154760   -2.781411    0.771912
     46          1           0       -2.033290   -4.460156   -0.142048
     47          1           0        1.204416   -2.112242   -0.199885
     48          1           0        0.190163   -4.995792    0.145347
     49          1           0        1.742713   -6.712581    0.269734
     50          1           0        4.058546   -7.580894    0.253594
     51          1           0        5.543044   -3.567712   -0.280995
     52          1           0        3.244474   -2.704266   -0.264572
     53          1           0       -5.038495   -0.000475    2.141529
     54          1           0       -7.517692   -0.000560    2.168239
     55          1           0       -8.786957   -0.000196    0.029868
     56          1           0       -7.561525    0.000254   -2.133921
     57          1           0       -5.082389    0.000376   -2.157733
     58          1           0       -5.125000    2.764349   -0.985685
     59          1           0       -5.154624    2.781699    0.772022
     60          1           0       -4.561896    4.198205   -0.111541
     61          1           0       -2.033311    4.460232   -0.142190
     62          1           0        1.204374    2.112308   -0.199864
     63          1           0        0.190144    4.995885    0.145038
     64          1           0        1.742579    6.712918    0.266967
     65          1           0        4.058420    7.581206    0.250831
     66          1           0        5.543205    3.567297   -0.277433
     67          1           0        3.244627    2.703858   -0.260934
 ---------------------------------------------------------------------
 Rotational constants (GHZ):           0.0621717           0.0538272           0.0293475
 Leave Link  202 at Fri Nov  7 17:51:51 2025, MaxMem= 30870077440 cpu:               1.1 elap:               0.0
 (Enter /public/software/gauss/g16/l301.exe)
 Standard basis: def2TZVPP (5D, 7F)
 Ernie: Thresh=  0.10000D-02 Tol=  0.10000D-05 Strict=F.
 There are  1887 symmetry adapted cartesian basis functions of A   symmetry.
 There are  1652 symmetry adapted basis functions of A   symmetry.
  1652 basis functions,  2567 primitive gaussians,  1887 cartesian basis functions
   143 alpha electrons      143 beta electrons
       nuclear repulsion energy      4225.0092415835 Hartrees.
 IExCor= 4336 DFT=T Ex+Corr=M062X ExCW=0 ScaHFX=  0.540000
 ScaDFX=  1.000000  1.000000  1.000000  1.000000 ScalE2=  1.000000  1.000000
 IRadAn=      5 IRanWt=     -1 IRanGd=            0 ICorTp=0 IEmpDi=131
 NAtoms=   67 NActive=   67 NUniq=   67 SFac= 1.00D+00 NAtFMM=   60 NAOKFM=T Big=T
 Integral buffers will be    131072 words long.
 Raffenetti 2 integral format.
 Two-electron integral symmetry is turned on.
 R6Disp:  Grimme-D3 Dispersion energy=       -0.0052538535 Hartrees.
 Nuclear repulsion after empirical dispersion term =     4225.0039877300 Hartrees.
 ------------------------------------------------------------------------------
 Polarizable Continuum Model (PCM)
 =================================
 Model                : PCM.
 Atomic radii         : UFF (Universal Force Field).
 Polarization charges : Total charges.
 Charge compensation  : None.
 Solution method      : On-the-fly selection.
 Cavity type          : Scaled VdW (van der Waals Surface) (Alpha=1.100).
 Cavity algorithm     : GePol (No added spheres)
                        Default sphere list used, NSphG=   67.
                        Lebedev-Laikov grids with approx.  5.0 points / Ang**2.
                        Smoothing algorithm: York/Karplus (Gamma=1.0000).
                        Polarization charges: spherical gaussians, with
                                              point-specific exponents (IZeta= 3).
                        Self-potential: point-specific (ISelfS= 7).
                        Self-field    : sphere-specific E.n sum rule (ISelfD= 2).
 Solvent              : Water, Eps=  78.355300 Eps(inf)=   1.777849
 ------------------------------------------------------------------------------
 GePol: Number of generator spheres                  =      67
 GePol: Total number of spheres                      =      67
 GePol: Number of exposed spheres                    =      67 (100.00%)
 GePol: Number of points                             =    5115
 GePol: Average weight of points                     =       0.13
 GePol: Minimum weight of points                     =   0.25D-10
 GePol: Maximum weight of points                     =    0.20577
 GePol: Number of points with low weight             =     347
 GePol: Fraction of low-weight points (<1% of avg)   =       6.78%
 GePol: Cavity surface area                          =    649.693 Ang**2
 GePol: Cavity volume                                =    743.422 Ang**3
 Leave Link  301 at Fri Nov  7 17:51:51 2025, MaxMem= 30870077440 cpu:               3.9 elap:               0.1
 (Enter /public/software/gauss/g16/l302.exe)
 NPDir=0 NMtPBC=     1 NCelOv=     1 NCel=       1 NClECP=     1 NCelD=      1
         NCelK=      1 NCelE2=     1 NClLst=     1 CellRange=     0.0.
 One-electron integrals computed using PRISM.
 One-electron integral symmetry used in STVInt
   1 Symmetry operations used in ECPInt.
 ECPInt:  NShTT=  187578 NPrTT=  542319 LenC2=  123050 LenP2D=  239884.
 LDataN:  DoStor=T MaxTD1= 6 Len=  172
 NBasis=  1652 RedAO= T EigKep=  3.67D-06  NBF=  1652
 NBsUse=  1652 1.00D-06 EigRej= -1.00D+00 NBFU=  1652
 Precomputing XC quadrature grid using
 IXCGrd= 4 IRadAn=           5 IRanWt=          -1 IRanGd=           0 AccXCQ= 0.00D+00.
 Generated NRdTot=       0 NPtTot=           0 NUsed=           0 NTot=          32
 NSgBfM=  1721  1716  1718  1718  1721 MxSgAt=    67 MxSgA2=    67.
 Leave Link  302 at Fri Nov  7 17:51:58 2025, MaxMem= 30870077440 cpu:             449.6 elap:               7.1
 (Enter /public/software/gauss/g16/l303.exe)
 DipDrv:  MaxL=1.
 Leave Link  303 at Fri Nov  7 17:51:58 2025, MaxMem= 30870077440 cpu:              22.8 elap:               0.4
 (Enter /public/software/gauss/g16/l401.exe)
 ExpMin= 6.06D-02 ExpMax= 3.55D+04 ExpMxC= 1.21D+03 IAcc=3 IRadAn=         5 AccDes= 0.00D+00
 Harris functional with IExCor= 1009 and IRadAn=       5 diagonalized for initial guess.
 HarFok:  IExCor= 1009 AccDes= 0.00D+00 IRadAn=         5 IDoV= 1 UseB2=F ITyADJ=14
 ICtDFT=  3500011 ScaDFX=  1.000000  1.000000  1.000000  1.000000
 FoFCou: FMM=F IPFlag=           0 FMFlag=      100000 FMFlg1=        2001
         NFxFlg=           0 DoJE=T BraDBF=F KetDBF=T FulRan=T
         wScrn=  0.000000 ICntrl=       500 IOpCl=  0 I1Cent=   200000004 NGrid=           0
         NMat0=    1 NMatS0=      1 NMatT0=    0 NMatD0=    1 NMtDS0=    0 NMtDT0=    0
 Petite list used in FoFCou.
 Harris En= -1791.50955456487    
 JPrj=0 DoOrth=F DoCkMO=F.
 Leave Link  401 at Fri Nov  7 17:52:07 2025, MaxMem= 30870077440 cpu:             530.6 elap:               8.4
 (Enter /public/software/gauss/g16/l502.exe)
 Integral symmetry usage will be decided dynamically.
 Closed shell SCF:
 Using DIIS extrapolation, IDIIS=  1040.
 NGot= 30870077440 LenX= 30862819299 LenY= 30859256643
 Requested convergence on RMS density matrix=1.00D-08 within 128 cycles.
 Requested convergence on MAX density matrix=1.00D-06.
 Requested convergence on             energy=1.00D-06.
 No special actions if energy rises.
 Fock matrices will be formed incrementally for  20 cycles.

 Cycle   1  Pass 1  IDiag  1:
 FoFJK:  IHMeth= 1 ICntrl=       0 DoSepK=F KAlg= 0 I1Cent=           0 FoldK=F
 IRaf= 620000000 NMat=       1 IRICut=       1 DoRegI=T DoRafI=F ISym2E= 0 IDoP0=0 IntGTp=1.
 FoFCou: FMM=T IPFlag=           0 FMFlag=      100000 FMFlg1=        2001
         NFxFlg=           0 DoJE=F BraDBF=F KetDBF=F FulRan=T
         wScrn=  0.000000 ICntrl=         0 IOpCl=  0 I1Cent=           0 NGrid=           0
         NMat0=    1 NMatS0=      1 NMatT0=    0 NMatD0=    1 NMtDS0=    0 NMtDT0=    0
 Symmetry not used in FoFCou.
 FMM levels:  10  Number of levels for PrismC:   9
 Inv3:  Mode=1 IEnd=    78489675.
 Iteration    1 A*A^-1 deviation from unit magnitude is 9.44D-15 for   5098.
 Iteration    1 A*A^-1 deviation from orthogonality  is 5.40D-15 for   5098   1667.
 Iteration    1 A^-1*A deviation from unit magnitude is 9.44D-15 for   5098.
 Iteration    1 A^-1*A deviation from orthogonality  is 2.66D-15 for   5115   5101.
 E= -1791.63185202014    
 DIIS: error= 1.83D-02 at cycle   1 NSaved=   1.
 NSaved= 1 IEnMin= 1 EnMin= -1791.63185202014     IErMin= 1 ErrMin= 1.83D-02
 ErrMax= 1.83D-02  0.00D+00 EMaxC= 1.00D-01 BMatC= 1.09D+00 BMatP= 1.09D+00
 IDIUse=3 WtCom= 8.17D-01 WtEn= 1.83D-01
 Coeff-Com:  0.100D+01
 Coeff-En:   0.100D+01
 Coeff:      0.100D+01
 Gap=     0.131 Goal=   None    Shift=    0.000
 GapD=    0.131 DampG=1.000 DampE=0.500 DampFc=0.5000 IDamp=-1.
 Damping current iteration by 5.00D-01
 RMSDP=1.35D-03 MaxDP=9.52D-02              OVMax= 1.57D-01

 Cycle   2  Pass 1  IDiag  1:
 RMSU=  6.68D-04    CP:  9.74D-01
 E= -1792.06885403584     Delta-E=       -0.437002015702 Rises=F Damp=T
 DIIS: error= 4.87D-03 at cycle   2 NSaved=   2.
 NSaved= 2 IEnMin= 2 EnMin= -1792.06885403584     IErMin= 2 ErrMin= 4.87D-03
 ErrMax= 4.87D-03  0.00D+00 EMaxC= 1.00D-01 BMatC= 1.12D-01 BMatP= 1.09D+00
 IDIUse=3 WtCom= 9.51D-01 WtEn= 4.87D-02
 Coeff-Com: -0.179D+00 0.118D+01
 Coeff-En:   0.000D+00 0.100D+01
 Coeff:     -0.171D+00 0.117D+01
 Gap=     0.141 Goal=   None    Shift=    0.000
 RMSDP=6.51D-04 MaxDP=4.80D-02 DE=-4.37D-01 OVMax= 1.22D-01

 Cycle   3  Pass 1  IDiag  1:
 RMSU=  5.91D-04    CP:  9.51D-01  1.39D+00
 E= -1792.42844985336     Delta-E=       -0.359595817522 Rises=F Damp=F
 DIIS: error= 5.62D-03 at cycle   3 NSaved=   3.
 NSaved= 3 IEnMin= 3 EnMin= -1792.42844985336     IErMin= 2 ErrMin= 4.87D-03
 ErrMax= 5.62D-03  0.00D+00 EMaxC= 1.00D-01 BMatC= 6.03D-02 BMatP= 1.12D-01
 IDIUse=3 WtCom= 9.44D-01 WtEn= 5.62D-02
 Coeff-Com: -0.156D+00 0.560D+00 0.596D+00
 Coeff-En:   0.000D+00 0.000D+00 0.100D+01
 Coeff:     -0.147D+00 0.528D+00 0.619D+00
 Gap=     0.134 Goal=   None    Shift=    0.000
 RMSDP=1.85D-04 MaxDP=2.36D-02 DE=-3.60D-01 OVMax= 5.55D-02

 Cycle   4  Pass 1  IDiag  1:
 RMSU=  1.64D-04    CP:  9.53D-01  1.47D+00  8.96D-01
 E= -1792.47021615776     Delta-E=       -0.041766304399 Rises=F Damp=F
 DIIS: error= 2.63D-03 at cycle   4 NSaved=   4.
 NSaved= 4 IEnMin= 4 EnMin= -1792.47021615776     IErMin= 4 ErrMin= 2.63D-03
 ErrMax= 2.63D-03  0.00D+00 EMaxC= 1.00D-01 BMatC= 1.30D-02 BMatP= 6.03D-02
 IDIUse=3 WtCom= 9.74D-01 WtEn= 2.63D-02
 Coeff-Com: -0.554D-01 0.145D+00 0.356D+00 0.555D+00
 Coeff-En:   0.000D+00 0.000D+00 0.182D+00 0.818D+00
 Coeff:     -0.540D-01 0.141D+00 0.351D+00 0.562D+00
 Gap=     0.136 Goal=   None    Shift=    0.000
 RMSDP=7.26D-05 MaxDP=9.12D-03 DE=-4.18D-02 OVMax= 1.91D-02

 Cycle   5  Pass 1  IDiag  1:
 RMSU=  5.58D-05    CP:  9.52D-01  1.45D+00  9.12D-01  7.39D-01
 E= -1792.48136781961     Delta-E=       -0.011151661854 Rises=F Damp=F
 DIIS: error= 5.25D-04 at cycle   5 NSaved=   5.
 NSaved= 5 IEnMin= 5 EnMin= -1792.48136781961     IErMin= 5 ErrMin= 5.25D-04
 ErrMax= 5.25D-04  0.00D+00 EMaxC= 1.00D-01 BMatC= 5.20D-04 BMatP= 1.30D-02
 IDIUse=3 WtCom= 9.95D-01 WtEn= 5.25D-03
 Coeff-Com: -0.168D-01 0.351D-01 0.134D+00 0.269D+00 0.578D+00
 Coeff-En:   0.000D+00 0.000D+00 0.000D+00 0.000D+00 0.100D+01
 Coeff:     -0.168D-01 0.349D-01 0.133D+00 0.268D+00 0.580D+00
 Gap=     0.137 Goal=   None    Shift=    0.000
 RMSDP=1.98D-05 MaxDP=2.29D-03 DE=-1.12D-02 OVMax= 4.48D-03

 Cycle   6  Pass 1  IDiag  1:
 RMSU=  1.68D-05    CP:  9.52D-01  1.46D+00  9.12D-01  7.38D-01  8.29D-01
 E= -1792.48179356330     Delta-E=       -0.000425743689 Rises=F Damp=F
 DIIS: error= 1.32D-04 at cycle   6 NSaved=   6.
 NSaved= 6 IEnMin= 6 EnMin= -1792.48179356330     IErMin= 6 ErrMin= 1.32D-04
 ErrMax= 1.32D-04  0.00D+00 EMaxC= 1.00D-01 BMatC= 4.61D-05 BMatP= 5.20D-04
 IDIUse=3 WtCom= 9.99D-01 WtEn= 1.32D-03
 Coeff-Com: -0.342D-02 0.527D-02 0.343D-01 0.789D-01 0.279D+00 0.607D+00
 Coeff-En:   0.000D+00 0.000D+00 0.000D+00 0.000D+00 0.000D+00 0.100D+01
 Coeff:     -0.342D-02 0.526D-02 0.342D-01 0.788D-01 0.278D+00 0.607D+00
 Gap=     0.137 Goal=   None    Shift=    0.000
 RMSDP=6.13D-06 MaxDP=6.94D-04 DE=-4.26D-04 OVMax= 2.56D-03

 Cycle   7  Pass 1  IDiag  1:
 RMSU=  5.25D-06    CP:  9.52D-01  1.46D+00  9.12D-01  7.45D-01  8.80D-01
                    CP:  9.74D-01
 E= -1792.48183636773     Delta-E=       -0.000042804425 Rises=F Damp=F
 DIIS: error= 4.47D-05 at cycle   7 NSaved=   7.
 NSaved= 7 IEnMin= 7 EnMin= -1792.48183636773     IErMin= 7 ErrMin= 4.47D-05
 ErrMax= 4.47D-05  0.00D+00 EMaxC= 1.00D-01 BMatC= 6.24D-06 BMatP= 4.61D-05
 IDIUse=1 WtCom= 1.00D+00 WtEn= 0.00D+00
 Coeff-Com:  0.123D-02-0.335D-02-0.735D-02-0.110D-01 0.321D-01 0.283D+00
 Coeff-Com:  0.706D+00
 Coeff:      0.123D-02-0.335D-02-0.735D-02-0.110D-01 0.321D-01 0.283D+00
 Coeff:      0.706D+00
 Gap=     0.138 Goal=   None    Shift=    0.000
 RMSDP=3.05D-06 MaxDP=3.92D-04 DE=-4.28D-05 OVMax= 1.53D-03

 Cycle   8  Pass 1  IDiag  1:
 RMSU=  2.20D-06    CP:  9.52D-01  1.46D+00  9.12D-01  7.46D-01  9.06D-01
                    CP:  1.04D+00  1.21D+00
 E= -1792.48184454020     Delta-E=       -0.000008172470 Rises=F Damp=F
 DIIS: error= 1.83D-05 at cycle   8 NSaved=   8.
 NSaved= 8 IEnMin= 8 EnMin= -1792.48184454020     IErMin= 8 ErrMin= 1.83D-05
 ErrMax= 1.83D-05  0.00D+00 EMaxC= 1.00D-01 BMatC= 7.49D-07 BMatP= 6.24D-06
 IDIUse=1 WtCom= 1.00D+00 WtEn= 0.00D+00
 Coeff-Com:  0.106D-02-0.230D-02-0.853D-02-0.173D-01-0.306D-01 0.209D-01
 Coeff-Com:  0.287D+00 0.750D+00
 Coeff:      0.106D-02-0.230D-02-0.853D-02-0.173D-01-0.306D-01 0.209D-01
 Coeff:      0.287D+00 0.750D+00
 Gap=     0.138 Goal=   None    Shift=    0.000
 RMSDP=1.41D-06 MaxDP=1.17D-04 DE=-8.17D-06 OVMax= 7.29D-04

 Cycle   9  Pass 1  IDiag  1:
 RMSU=  1.02D-06    CP:  9.52D-01  1.46D+00  9.13D-01  7.48D-01  9.14D-01
                    CP:  1.06D+00  1.32D+00  1.06D+00
 E= -1792.48184591887     Delta-E=       -0.000001378668 Rises=F Damp=F
 DIIS: error= 9.09D-06 at cycle   9 NSaved=   9.
 NSaved= 9 IEnMin= 9 EnMin= -1792.48184591887     IErMin= 9 ErrMin= 9.09D-06
 ErrMax= 9.09D-06  0.00D+00 EMaxC= 1.00D-01 BMatC= 8.32D-08 BMatP= 7.49D-07
 IDIUse=1 WtCom= 1.00D+00 WtEn= 0.00D+00
 Coeff-Com:  0.196D-03-0.353D-03-0.196D-02-0.461D-02-0.140D-01-0.248D-01
 Coeff-Com:  0.143D-01 0.250D+00 0.781D+00
 Coeff:      0.196D-03-0.353D-03-0.196D-02-0.461D-02-0.140D-01-0.248D-01
 Coeff:      0.143D-01 0.250D+00 0.781D+00
 Gap=     0.138 Goal=   None    Shift=    0.000
 RMSDP=5.04D-07 MaxDP=5.38D-05 DE=-1.38D-06 OVMax= 3.31D-04

 Cycle  10  Pass 1  IDiag  1:
 RMSU=  4.18D-07    CP:  9.52D-01  1.46D+00  9.13D-01  7.48D-01  9.17D-01
                    CP:  1.07D+00  1.34D+00  1.16D+00  1.05D+00
 E= -1792.48184609621     Delta-E=       -0.000000177348 Rises=F Damp=F
 DIIS: error= 4.43D-06 at cycle  10 NSaved=  10.
 NSaved=10 IEnMin=10 EnMin= -1792.48184609621     IErMin=10 ErrMin= 4.43D-06
 ErrMax= 4.43D-06  0.00D+00 EMaxC= 1.00D-01 BMatC= 2.91D-08 BMatP= 8.32D-08
 IDIUse=1 WtCom= 1.00D+00 WtEn= 0.00D+00
 Coeff-Com: -0.905D-04 0.231D-03 0.485D-03 0.702D-03-0.175D-02-0.154D-01
 Coeff-Com: -0.416D-01-0.112D-01 0.407D+00 0.662D+00
 Coeff:     -0.905D-04 0.231D-03 0.485D-03 0.702D-03-0.175D-02-0.154D-01
 Coeff:     -0.416D-01-0.112D-01 0.407D+00 0.662D+00
 Gap=     0.138 Goal=   None    Shift=    0.000
 RMSDP=2.43D-07 MaxDP=3.54D-05 DE=-1.77D-07 OVMax= 1.38D-04

 Cycle  11  Pass 1  IDiag  1:
 RMSU=  1.73D-07    CP:  9.52D-01  1.46D+00  9.13D-01  7.48D-01  9.16D-01
                    CP:  1.07D+00  1.36D+00  1.20D+00  1.14D+00  1.03D+00
 E= -1792.48184614028     Delta-E=       -0.000000044066 Rises=F Damp=F
 DIIS: error= 1.57D-06 at cycle  11 NSaved=  11.
 NSaved=11 IEnMin=11 EnMin= -1792.48184614028     IErMin=11 ErrMin= 1.57D-06
 ErrMax= 1.57D-06  0.00D+00 EMaxC= 1.00D-01 BMatC= 3.31D-09 BMatP= 2.91D-08
 IDIUse=1 WtCom= 1.00D+00 WtEn= 0.00D+00
 Coeff-Com: -0.765D-04 0.171D-03 0.558D-03 0.114D-02 0.143D-02-0.350D-02
 Coeff-Com: -0.226D-01-0.487D-01 0.677D-01 0.298D+00 0.706D+00
 Coeff:     -0.765D-04 0.171D-03 0.558D-03 0.114D-02 0.143D-02-0.350D-02
 Coeff:     -0.226D-01-0.487D-01 0.677D-01 0.298D+00 0.706D+00
 Gap=     0.138 Goal=   None    Shift=    0.000
 RMSDP=7.88D-08 MaxDP=7.44D-06 DE=-4.41D-08 OVMax= 4.59D-05

 Cycle  12  Pass 1  IDiag  1:
 RMSU=  5.37D-08    CP:  9.52D-01  1.46D+00  9.13D-01  7.48D-01  9.16D-01
                    CP:  1.07D+00  1.36D+00  1.20D+00  1.18D+00  1.12D+00
                    CP:  9.82D-01
 E= -1792.48184614541     Delta-E=       -0.000000005133 Rises=F Damp=F
 DIIS: error= 4.12D-07 at cycle  12 NSaved=  12.
 NSaved=12 IEnMin=12 EnMin= -1792.48184614541     IErMin=12 ErrMin= 4.12D-07
 ErrMax= 4.12D-07  0.00D+00 EMaxC= 1.00D-01 BMatC= 3.80D-10 BMatP= 3.31D-09
 IDIUse=1 WtCom= 1.00D+00 WtEn= 0.00D+00
 Coeff-Com: -0.193D-04 0.406D-04 0.161D-03 0.375D-03 0.711D-03 0.295D-03
 Coeff-Com: -0.422D-02-0.183D-01-0.176D-01 0.353D-01 0.294D+00 0.710D+00
 Coeff:     -0.193D-04 0.406D-04 0.161D-03 0.375D-03 0.711D-03 0.295D-03
 Coeff:     -0.422D-02-0.183D-01-0.176D-01 0.353D-01 0.294D+00 0.710D+00
 Gap=     0.138 Goal=   None    Shift=    0.000
 RMSDP=2.80D-08 MaxDP=4.07D-06 DE=-5.13D-09 OVMax= 1.13D-05

 Cycle  13  Pass 1  IDiag  1:
 RMSU=  1.89D-08    CP:  9.52D-01  1.46D+00  9.13D-01  7.48D-01  9.16D-01
                    CP:  1.07D+00  1.36D+00  1.20D+00  1.18D+00  1.14D+00
                    CP:  1.07D+00  1.08D+00
 E= -1792.48184614562     Delta-E=       -0.000000000210 Rises=F Damp=F
 DIIS: error= 1.25D-07 at cycle  13 NSaved=  13.
 NSaved=13 IEnMin=13 EnMin= -1792.48184614562     IErMin=13 ErrMin= 1.25D-07
 ErrMax= 1.25D-07  0.00D+00 EMaxC= 1.00D-01 BMatC= 3.86D-11 BMatP= 3.80D-10
 IDIUse=1 WtCom= 1.00D+00 WtEn= 0.00D+00
 Coeff-Com:  0.164D-05-0.444D-05-0.301D-05 0.156D-04 0.113D-03 0.578D-03
 Coeff-Com:  0.114D-02-0.131D-02-0.142D-01-0.245D-01 0.417D-01 0.282D+00
 Coeff-Com:  0.715D+00
 Coeff:      0.164D-05-0.444D-05-0.301D-05 0.156D-04 0.113D-03 0.578D-03
 Coeff:      0.114D-02-0.131D-02-0.142D-01-0.245D-01 0.417D-01 0.282D+00
 Coeff:      0.715D+00
 Gap=     0.138 Goal=   None    Shift=    0.000
 RMSDP=9.03D-09 MaxDP=9.48D-07 DE=-2.10D-10 OVMax= 3.19D-06

 Error on total polarization charges =  0.02530
 SCF Done:  E(RM062X) =  -1792.48184615     A.U. after   13 cycles
            NFock= 13  Conv=0.90D-08     -V/T= 2.0055
 KE= 1.782684750779D+03 PE=-1.262062808875D+04 EE= 4.820457504097D+03
 Leave Link  502 at Fri Nov  7 18:03:29 2025, MaxMem= 30870077440 cpu:           42792.1 elap:             682.8
 (Enter /public/software/gauss/g16/l601.exe)
 Copying SCF densities to generalized density rwf, IOpCl= 0 IROHF=0.

 **********************************************************************

            Population analysis using the SCF density.

 **********************************************************************

 Orbital symmetries:
       Occupied  (A) (A) (A) (A) (A) (A) (A) (A) (A) (A) (A) (A)
                 (A) (A) (A) (A) (A) (A) (A) (A) (A) (A) (A) (A)
                 (A) (A) (A) (A) (A) (A) (A) (A) (A) (A) (A) (A)
                 (A) (A) (A) (A) (A) (A) (A) (A) (A) (A) (A) (A)
                 (A) (A) (A) (A) (A) (A) (A) (A) (A) (A) (A) (A)
                 (A) (A) (A) (A) (A) (A) (A) (A) (A) (A) (A) (A)
                 (A) (A) (A) (A) (A) (A) (A) (A) (A) (A) (A) (A)
                 (A) (A) (A) (A) (A) (A) (A) (A) (A) (A) (A) (A)
                 (A) (A) (A) (A) (A) (A) (A) (A) (A) (A) (A) (A)
                 (A) (A) (A) (A) (A) (A) (A) (A) (A) (A) (A) (A)
                 (A) (A) (A) (A) (A) (A) (A) (A) (A) (A) (A) (A)
                 (A) (A) (A) (A) (A) (A) (A) (A) (A) (A) (A)
       Virtual   (A) (A) (A) (A) (A) (A) (A) (A) (A) (A) (A) (A)
                 (A) (A) (A) (A) (A) (A) (A) (A) (A) (A) (A) (A)
                 (A) (A) (A) (A) (A) (A) (A) (A) (A) (A) (A) (A)
                 (A) (A) (A) (A) (A) (A) (A) (A) (A) (A) (A) (A)
                 (A) (A) (A) (A) (A) (A) (A) (A) (A) (A) (A) (A)
                 (A) (A) (A) (A) (A) (A) (A) (A) (A) (A) (A) (A)
                 (A) (A) (A) (A) (A) (A) (A) (A) (A) (A) (A) (A)
                 (A) (A) (A) (A) (A) (A) (A) (A) (A) (A) (A) (A)
                 (A) (A) (A) (A) (A) (A) (A) (A) (A) (A) (A) (A)
                 (A) (A) (A) (A) (A) (A) (A) (A) (A) (A) (A) (A)
                 (A) (A) (A) (A) (A) (A) (A) (A) (A) (A) (A) (A)
                 (A) (A) (A) (A) (A) (A) (A) (A) (A) (A) (A) (A)
                 (A) (A) (A) (A) (A) (A) (A) (A) (A) (A) (A) (A)
                 (A) (A) (A) (A) (A) (A) (A) (A) (A) (A) (A) (A)
                 (A) (A) (A) (A) (A) (A) (A) (A) (A) (A) (A) (A)
                 (A) (A) (A) (A) (A) (A) (A) (A) (A) (A) (A) (A)
                 (A) (A) (A) (A) (A) (A) (A) (A) (A) (A) (A) (A)
                 (A) (A) (A) (A) (A) (A) (A) (A) (A) (A) (A) (A)
                 (A) (A) (A) (A) (A) (A) (A) (A) (A) (A) (A) (A)
                 (A) (A) (A) (A) (A) (A) (A) (A) (A) (A) (A) (A)
                 (A) (A) (A) (A) (A) (A) (A) (A) (A) (A) (A) (A)
                 (A) (A) (A) (A) (A) (A) (A) (A) (A) (A) (A) (A)
                 (A) (A) (A) (A) (A) (A) (A) (A) (A) (A) (A) (A)
                 (A) (A) (A) (A) (A) (A) (A) (A) (A) (A) (A) (A)
                 (A) (A) (A) (A) (A) (A) (A) (A) (A) (A) (A) (A)
                 (A) (A) (A) (A) (A) (A) (A) (A) (A) (A) (A) (A)
                 (A) (A) (A) (A) (A) (A) (A) (A) (A) (A) (A) (A)
                 (A) (A) (A) (A) (A) (A) (A) (A) (A) (A) (A) (A)
                 (A) (A) (A) (A) (A) (A) (A) (A) (A) (A) (A) (A)
                 (A) (A) (A) (A) (A) (A) (A) (A) (A) (A) (A) (A)
                 (A) (A) (A) (A) (A) (A) (A) (A) (A) (A) (A) (A)
                 (A) (A) (A) (A) (A) (A) (A) (A) (A) (A) (A) (A)
                 (A) (A) (A) (A) (A) (A) (A) (A) (A) (A) (A) (A)
                 (A) (A) (A) (A) (A) (A) (A) (A) (A) (A) (A) (A)
                 (A) (A) (A) (A) (A) (A) (A) (A) (A) (A) (A) (A)
                 (A) (A) (A) (A) (A) (A) (A) (A) (A) (A) (A) (A)
                 (A) (A) (A) (A) (A) (A) (A) (A) (A) (A) (A) (A)
                 (A) (A) (A) (A) (A) (A) (A) (A) (A) (A) (A) (A)
                 (A) (A) (A) (A) (A) (A) (A) (A) (A) (A) (A) (A)
                 (A) (A) (A) (A) (A) (A) (A) (A) (A) (A) (A) (A)
                 (A) (A) (A) (A) (A) (A) (A) (A) (A) (A) (A) (A)
                 (A) (A) (A) (A) (A) (A) (A) (A) (A) (A) (A) (A)
                 (A) (A) (A) (A) (A) (A) (A) (A) (A) (A) (A) (A)
                 (A) (A) (A) (A) (A) (A) (A) (A) (A) (A) (A) (A)
                 (A) (A) (A) (A) (A) (A) (A) (A) (A) (A) (A) (A)
                 (A) (A) (A) (A) (A) (A) (A) (A) (A) (A) (A) (A)
                 (A) (A) (A) (A) (A) (A) (A) (A) (A) (A) (A) (A)
                 (A) (A) (A) (A) (A) (A) (A) (A) (A) (A) (A) (A)
                 (A) (A) (A) (A) (A) (A) (A) (A) (A) (A) (A) (A)
                 (A) (A) (A) (A) (A) (A) (A) (A) (A) (A) (A) (A)
                 (A) (A) (A) (A) (A) (A) (A) (A) (A) (A) (A) (A)
                 (A) (A) (A) (A) (A) (A) (A) (A) (A) (A) (A) (A)
                 (A) (A) (A) (A) (A) (A) (A) (A) (A) (A) (A) (A)
                 (A) (A) (A) (A) (A) (A) (A) (A) (A) (A) (A) (A)
                 (A) (A) (A) (A) (A) (A) (A) (A) (A) (A) (A) (A)
                 (A) (A) (A) (A) (A) (A) (A) (A) (A) (A) (A) (A)
                 (A) (A) (A) (A) (A) (A) (A) (A) (A) (A) (A) (A)
                 (A) (A) (A) (A) (A) (A) (A) (A) (A) (A) (A) (A)
                 (A) (A) (A) (A) (A) (A) (A) (A) (A) (A) (A) (A)
                 (A) (A) (A) (A) (A) (A) (A) (A) (A) (A) (A) (A)
                 (A) (A) (A) (A) (A) (A) (A) (A) (A) (A) (A) (A)
                 (A) (A) (A) (A) (A) (A) (A) (A) (A) (A) (A) (A)
                 (A) (A) (A) (A) (A) (A) (A) (A) (A) (A) (A) (A)
                 (A) (A) (A) (A) (A) (A) (A) (A) (A) (A) (A) (A)
                 (A) (A) (A) (A) (A) (A) (A) (A) (A) (A) (A) (A)
                 (A) (A) (A) (A) (A) (A) (A) (A) (A) (A) (A) (A)
                 (A) (A) (A) (A) (A) (A) (A) (A) (A) (A) (A) (A)
                 (A) (A) (A) (A) (A) (A) (A) (A) (A) (A) (A) (A)
                 (A) (A) (A) (A) (A) (A) (A) (A) (A) (A) (A) (A)
                 (A) (A) (A) (A) (A) (A) (A) (A) (A) (A) (A) (A)
                 (A) (A) (A) (A) (A) (A) (A) (A) (A) (A) (A) (A)
                 (A) (A) (A) (A) (A) (A) (A) (A) (A) (A) (A) (A)
                 (A) (A) (A) (A) (A) (A) (A) (A) (A) (A) (A) (A)
                 (A) (A) (A) (A) (A) (A) (A) (A) (A) (A) (A) (A)
                 (A) (A) (A) (A) (A) (A) (A) (A) (A) (A) (A) (A)
                 (A) (A) (A) (A) (A) (A) (A) (A) (A) (A) (A) (A)
                 (A) (A) (A) (A) (A) (A) (A) (A) (A) (A) (A) (A)
                 (A) (A) (A) (A) (A) (A) (A) (A) (A) (A) (A) (A)
                 (A) (A) (A) (A) (A) (A) (A) (A) (A) (A) (A) (A)
                 (A) (A) (A) (A) (A) (A) (A) (A) (A) (A) (A) (A)
                 (A) (A) (A) (A) (A) (A) (A) (A) (A) (A) (A) (A)
                 (A) (A) (A) (A) (A) (A) (A) (A) (A) (A) (A) (A)
                 (A) (A) (A) (A) (A) (A) (A) (A) (A) (A) (A) (A)
                 (A) (A) (A) (A) (A) (A) (A) (A) (A) (A) (A) (A)
                 (A) (A) (A) (A) (A) (A) (A) (A) (A) (A) (A) (A)
                 (A) (A) (A) (A) (A) (A) (A) (A) (A) (A) (A) (A)
                 (A) (A) (A) (A) (A) (A) (A) (A) (A) (A) (A) (A)
                 (A) (A) (A) (A) (A) (A) (A) (A) (A) (A) (A) (A)
                 (A) (A) (A) (A) (A) (A) (A) (A) (A) (A) (A) (A)
                 (A) (A) (A) (A) (A) (A) (A) (A) (A) (A) (A) (A)
                 (A) (A) (A) (A) (A) (A) (A) (A) (A) (A) (A) (A)
                 (A) (A) (A) (A) (A) (A) (A) (A) (A) (A) (A) (A)
                 (A) (A) (A) (A) (A) (A) (A) (A) (A) (A) (A) (A)
                 (A) (A) (A) (A) (A) (A) (A) (A) (A) (A) (A) (A)
                 (A) (A) (A) (A) (A) (A) (A) (A) (A) (A) (A) (A)
                 (A) (A) (A) (A) (A) (A) (A) (A) (A) (A) (A) (A)
                 (A) (A) (A) (A) (A) (A) (A) (A) (A) (A) (A) (A)
                 (A) (A) (A) (A) (A) (A) (A) (A) (A) (A) (A) (A)
                 (A) (A) (A) (A) (A) (A) (A) (A) (A) (A) (A) (A)
                 (A) (A) (A) (A) (A) (A) (A) (A) (A) (A) (A) (A)
                 (A) (A) (A) (A) (A) (A) (A) (A) (A) (A) (A) (A)
                 (A) (A) (A) (A) (A) (A) (A) (A) (A) (A) (A) (A)
                 (A) (A) (A) (A) (A) (A) (A) (A) (A) (A) (A) (A)
                 (A) (A) (A) (A) (A) (A) (A) (A) (A) (A) (A) (A)
                 (A) (A) (A) (A) (A) (A) (A) (A) (A) (A) (A) (A)
                 (A) (A) (A) (A) (A) (A) (A) (A) (A) (A) (A) (A)
                 (A) (A) (A) (A) (A) (A) (A) (A) (A) (A) (A) (A)
                 (A) (A) (A) (A) (A) (A) (A) (A) (A) (A) (A) (A)
                 (A) (A) (A) (A) (A) (A) (A) (A) (A) (A) (A) (A)
                 (A) (A) (A) (A) (A) (A) (A) (A) (A) (A) (A) (A)
                 (A) (A) (A) (A) (A) (A) (A) (A) (A) (A) (A) (A)
                 (A) (A) (A) (A) (A) (A) (A) (A) (A) (A) (A) (A)
                 (A) (A) (A) (A) (A) (A) (A) (A) (A) (A) (A) (A)
                 (A) (A) (A) (A) (A) (A) (A) (A) (A) (A) (A) (A)
                 (A) (A) (A) (A) (A) (A) (A) (A) (A) (A) (A) (A)
                 (A) (A) (A) (A) (A) (A) (A) (A) (A) (A) (A) (A)
                 (A) (A) (A) (A) (A) (A) (A) (A) (A) (A) (A) (A)
                 (A) (A) (A) (A) (A) (A) (A) (A) (A) (A) (A) (A)
                 (A) (A) (A) (A) (A) (A) (A) (A) (A) (A) (A) (A)
                 (A) (A) (A) (A) (A) (A) (A) (A) (A) (A) (A) (A)
                 (A) (A) (A) (A) (A) (A) (A) (A) (A) (A) (A) (A)
                 (A) (A) (A) (A) (A) (A) (A) (A) (A) (A) (A) (A)
                 (A) (A) (A) (A) (A) (A) (A) (A) (A) (A) (A) (A)
                 (A) (A) (A) (A) (A) (A) (A) (A) (A) (A) (A) (A)
                 (A) (A) (A) (A) (A) (A) (A) (A) (A) (A) (A) (A)
                 (A) (A) (A) (A) (A) (A) (A) (A) (A)
 The electronic state is 1-A.
 Alpha  occ. eigenvalues --  -25.21020 -25.20756 -14.78980 -14.78980 -14.77016
 Alpha  occ. eigenvalues --  -14.77016 -10.60832 -10.60832 -10.60589 -10.59864
 Alpha  occ. eigenvalues --  -10.59864 -10.59796 -10.59795 -10.59375 -10.59372
 Alpha  occ. eigenvalues --  -10.58243 -10.58242 -10.57550 -10.57550 -10.57539
 Alpha  occ. eigenvalues --  -10.57539 -10.57378 -10.57378 -10.57261 -10.57177
 Alpha  occ. eigenvalues --  -10.57177 -10.56812 -10.56812 -10.56740 -10.56740
 Alpha  occ. eigenvalues --  -10.56671 -10.56671 -10.55782 -10.55779 -10.55523
 Alpha  occ. eigenvalues --  -10.55489 -10.55404 -10.54681 -10.54680 -10.54079
 Alpha  occ. eigenvalues --  -10.54079  -7.13647  -1.32843  -1.29588  -1.11120
 Alpha  occ. eigenvalues --   -1.09230  -1.03023  -1.03022  -0.99184  -0.99165
 Alpha  occ. eigenvalues --   -0.98267  -0.94240  -0.93096  -0.92180  -0.91353
 Alpha  occ. eigenvalues --   -0.90744  -0.88091  -0.87630  -0.87058  -0.87042
 Alpha  occ. eigenvalues --   -0.85418  -0.84199  -0.82066  -0.81214  -0.79693
 Alpha  occ. eigenvalues --   -0.77938  -0.75438  -0.72993  -0.71953  -0.71917
 Alpha  occ. eigenvalues --   -0.70512  -0.70059  -0.69013  -0.68983  -0.66880
 Alpha  occ. eigenvalues --   -0.65186  -0.64574  -0.64513  -0.64272  -0.63171
 Alpha  occ. eigenvalues --   -0.61454  -0.61058  -0.59390  -0.59126  -0.58610
 Alpha  occ. eigenvalues --   -0.57654  -0.56171  -0.55550  -0.55502  -0.53953
 Alpha  occ. eigenvalues --   -0.53912  -0.53826  -0.53272  -0.52996  -0.52171
 Alpha  occ. eigenvalues --   -0.52165  -0.51729  -0.51269  -0.51129  -0.50768
 Alpha  occ. eigenvalues --   -0.50502  -0.49755  -0.49715  -0.49112  -0.49024
 Alpha  occ. eigenvalues --   -0.48966  -0.48959  -0.48453  -0.48195  -0.48094
 Alpha  occ. eigenvalues --   -0.47699  -0.46965  -0.46899  -0.46714  -0.46398
 Alpha  occ. eigenvalues --   -0.45858  -0.44883  -0.44661  -0.44207  -0.44110
 Alpha  occ. eigenvalues --   -0.44003  -0.43920  -0.43633  -0.43463  -0.42534
 Alpha  occ. eigenvalues --   -0.42528  -0.41789  -0.41263  -0.40917  -0.40788
 Alpha  occ. eigenvalues --   -0.40416  -0.39860  -0.38464  -0.35490  -0.33542
 Alpha  occ. eigenvalues --   -0.33540  -0.32508  -0.32340  -0.32087  -0.31752
 Alpha  occ. eigenvalues --   -0.31369  -0.29361  -0.24215
 Alpha virt. eigenvalues --   -0.10412  -0.05888  -0.03927  -0.00235  -0.00228
 Alpha virt. eigenvalues --    0.00237   0.00377   0.02079   0.02448   0.05768
 Alpha virt. eigenvalues --    0.06003   0.06108   0.06605   0.06787   0.07440
 Alpha virt. eigenvalues --    0.07688   0.08633   0.08796   0.08865   0.08991
 Alpha virt. eigenvalues --    0.09561   0.09734   0.09921   0.10380   0.11255
 Alpha virt. eigenvalues --    0.11256   0.11701   0.11779   0.12061   0.12309
 Alpha virt. eigenvalues --    0.13004   0.13145   0.13382   0.13393   0.13637
 Alpha virt. eigenvalues --    0.13846   0.14054   0.14432   0.14593   0.15295
 Alpha virt. eigenvalues --    0.15343   0.15669   0.15872   0.16435   0.16476
 Alpha virt. eigenvalues --    0.17309   0.17572   0.17589   0.17862   0.18003
 Alpha virt. eigenvalues --    0.18143   0.18359   0.18372   0.19293   0.19662
 Alpha virt. eigenvalues --    0.19697   0.20317   0.20749   0.21146   0.21157
 Alpha virt. eigenvalues --    0.21253   0.21706   0.21831   0.22297   0.22433
 Alpha virt. eigenvalues --    0.22557   0.22933   0.23269   0.23471   0.23958
 Alpha virt. eigenvalues --    0.24156   0.24288   0.24317   0.25314   0.25539
 Alpha virt. eigenvalues --    0.25600   0.26056   0.26208   0.26276   0.26452
 Alpha virt. eigenvalues --    0.26611   0.26667   0.27059   0.27143   0.27219
 Alpha virt. eigenvalues --    0.27514   0.27720   0.28006   0.28080   0.28481
 Alpha virt. eigenvalues --    0.28537   0.28732   0.29007   0.29446   0.30094
 Alpha virt. eigenvalues --    0.30135   0.30479   0.30749   0.31023   0.31304
 Alpha virt. eigenvalues --    0.31336   0.31462   0.31919   0.32216   0.32407
 Alpha virt. eigenvalues --    0.32531   0.33066   0.33377   0.33703   0.33888
 Alpha virt. eigenvalues --    0.34172   0.34247   0.34322   0.34528   0.34722
 Alpha virt. eigenvalues --    0.34938   0.35415   0.35684   0.35859   0.36133
 Alpha virt. eigenvalues --    0.36167   0.36491   0.36533   0.36810   0.37010
 Alpha virt. eigenvalues --    0.37206   0.37428   0.37859   0.38173   0.38721
 Alpha virt. eigenvalues --    0.38882   0.39019   0.39079   0.39185   0.39826
 Alpha virt. eigenvalues --    0.39874   0.40021   0.40286   0.40555   0.40795
 Alpha virt. eigenvalues --    0.41001   0.41177   0.41197   0.41608   0.41956
 Alpha virt. eigenvalues --    0.42094   0.42375   0.42598   0.43090   0.43160
 Alpha virt. eigenvalues --    0.43483   0.43698   0.44118   0.44259   0.44543
 Alpha virt. eigenvalues --    0.44803   0.45135   0.45300   0.45544   0.45558
 Alpha virt. eigenvalues --    0.45686   0.45812   0.46248   0.46394   0.46827
 Alpha virt. eigenvalues --    0.47354   0.47608   0.47868   0.48165   0.48380
 Alpha virt. eigenvalues --    0.48676   0.49285   0.49525   0.49896   0.50081
 Alpha virt. eigenvalues --    0.50096   0.50247   0.50255   0.50629   0.51149
 Alpha virt. eigenvalues --    0.51309   0.51373   0.51531   0.52006   0.52078
 Alpha virt. eigenvalues --    0.52138   0.52287   0.52329   0.52540   0.52898
 Alpha virt. eigenvalues --    0.53281   0.53358   0.53404   0.53810   0.54006
 Alpha virt. eigenvalues --    0.54882   0.55142   0.55531   0.55560   0.55849
 Alpha virt. eigenvalues --    0.56125   0.56357   0.57120   0.57625   0.57639
 Alpha virt. eigenvalues --    0.58297   0.58722   0.59186   0.59271   0.59291
 Alpha virt. eigenvalues --    0.59993   0.60083   0.61021   0.61136   0.61568
 Alpha virt. eigenvalues --    0.61676   0.61737   0.62196   0.62260   0.62922
 Alpha virt. eigenvalues --    0.62924   0.63425   0.64004   0.64362   0.64499
 Alpha virt. eigenvalues --    0.64579   0.64811   0.65316   0.65532   0.65693
 Alpha virt. eigenvalues --    0.65705   0.65956   0.66248   0.66384   0.66654
 Alpha virt. eigenvalues --    0.67046   0.67548   0.67551   0.67885   0.67908
 Alpha virt. eigenvalues --    0.68255   0.68469   0.68896   0.68926   0.69066
 Alpha virt. eigenvalues --    0.69080   0.69559   0.69884   0.70063   0.70260
 Alpha virt. eigenvalues --    0.70440   0.70639   0.71357   0.71588   0.71777
 Alpha virt. eigenvalues --    0.72071   0.72452   0.72800   0.72957   0.73240
 Alpha virt. eigenvalues --    0.73655   0.73795   0.73860   0.74428   0.74481
 Alpha virt. eigenvalues --    0.74802   0.75229   0.76111   0.76152   0.76220
 Alpha virt. eigenvalues --    0.76628   0.76660   0.77357   0.77943   0.78190
 Alpha virt. eigenvalues --    0.78254   0.78443   0.78885   0.79110   0.79135
 Alpha virt. eigenvalues --    0.79639   0.79843   0.79915   0.80602   0.80820
 Alpha virt. eigenvalues --    0.81341   0.81987   0.82059   0.82492   0.82708
 Alpha virt. eigenvalues --    0.82853   0.83095   0.83455   0.83735   0.83829
 Alpha virt. eigenvalues --    0.84086   0.84540   0.84577   0.84978   0.85065
 Alpha virt. eigenvalues --    0.85662   0.86602   0.86700   0.87335   0.87521
 Alpha virt. eigenvalues --    0.87687   0.88235   0.88847   0.88957   0.89065
 Alpha virt. eigenvalues --    0.89291   0.90059   0.90148   0.91157   0.91340
 Alpha virt. eigenvalues --    0.91462   0.91706   0.91744   0.92138   0.93089
 Alpha virt. eigenvalues --    0.93527   0.93606   0.93979   0.94628   0.95157
 Alpha virt. eigenvalues --    0.95666   0.96024   0.96144   0.96487   0.97114
 Alpha virt. eigenvalues --    0.97214   0.97843   0.97998   0.98608   0.98916
 Alpha virt. eigenvalues --    0.99254   0.99693   0.99791   0.99960   1.00276
 Alpha virt. eigenvalues --    1.00384   1.00773   1.01127   1.01292   1.01524
 Alpha virt. eigenvalues --    1.01580   1.01870   1.02239   1.02580   1.02935
 Alpha virt. eigenvalues --    1.03220   1.03357   1.03761   1.03955   1.04265
 Alpha virt. eigenvalues --    1.04464   1.04750   1.04824   1.05176   1.05484
 Alpha virt. eigenvalues --    1.05984   1.06671   1.07337   1.07479   1.08198
 Alpha virt. eigenvalues --    1.08894   1.09355   1.09478   1.09656   1.09967
 Alpha virt. eigenvalues --    1.10095   1.10901   1.10908   1.11110   1.11117
 Alpha virt. eigenvalues --    1.11728   1.11856   1.12064   1.12775   1.13098
 Alpha virt. eigenvalues --    1.13651   1.13878   1.14344   1.14688   1.14781
 Alpha virt. eigenvalues --    1.15170   1.15851   1.15928   1.16295   1.16510
 Alpha virt. eigenvalues --    1.16603   1.16953   1.17374   1.17513   1.18361
 Alpha virt. eigenvalues --    1.18739   1.19210   1.19921   1.20519   1.20724
 Alpha virt. eigenvalues --    1.21269   1.21306   1.21669   1.22066   1.22092
 Alpha virt. eigenvalues --    1.22367   1.22508   1.23171   1.23458   1.23523
 Alpha virt. eigenvalues --    1.23881   1.23943   1.24276   1.24473   1.24789
 Alpha virt. eigenvalues --    1.25047   1.25494   1.25636   1.25680   1.26479
 Alpha virt. eigenvalues --    1.26642   1.27295   1.27601   1.27860   1.28101
 Alpha virt. eigenvalues --    1.28507   1.28802   1.29156   1.29251   1.29661
 Alpha virt. eigenvalues --    1.29938   1.29989   1.30128   1.30695   1.31315
 Alpha virt. eigenvalues --    1.31566   1.32522   1.32930   1.32945   1.33129
 Alpha virt. eigenvalues --    1.33759   1.34404   1.34784   1.35459   1.35644
 Alpha virt. eigenvalues --    1.36188   1.36384   1.36667   1.37144   1.37269
 Alpha virt. eigenvalues --    1.37745   1.37811   1.38051   1.38374   1.38398
 Alpha virt. eigenvalues --    1.39065   1.39185   1.39310   1.39491   1.39576
 Alpha virt. eigenvalues --    1.41146   1.41770   1.41926   1.42201   1.43283
 Alpha virt. eigenvalues --    1.43446   1.43620   1.44115   1.44249   1.44601
 Alpha virt. eigenvalues --    1.44681   1.45028   1.45158   1.45327   1.45373
 Alpha virt. eigenvalues --    1.45662   1.45844   1.46090   1.46639   1.46738
 Alpha virt. eigenvalues --    1.47628   1.48032   1.48043   1.49151   1.49154
 Alpha virt. eigenvalues --    1.49536   1.50056   1.50269   1.50287   1.50955
 Alpha virt. eigenvalues --    1.51062   1.51270   1.51746   1.51873   1.52597
 Alpha virt. eigenvalues --    1.52970   1.53046   1.53878   1.54034   1.54800
 Alpha virt. eigenvalues --    1.55409   1.55441   1.55736   1.56120   1.56466
 Alpha virt. eigenvalues --    1.56564   1.56751   1.56848   1.57237   1.57531
 Alpha virt. eigenvalues --    1.57613   1.57748   1.58141   1.58291   1.58542
 Alpha virt. eigenvalues --    1.58752   1.58761   1.58880   1.59377   1.59818
 Alpha virt. eigenvalues --    1.60585   1.60605   1.61078   1.61795   1.61974
 Alpha virt. eigenvalues --    1.62158   1.62568   1.63182   1.63483   1.63781
 Alpha virt. eigenvalues --    1.63931   1.64427   1.65142   1.65184   1.66172
 Alpha virt. eigenvalues --    1.66326   1.67079   1.67232   1.67243   1.67268
 Alpha virt. eigenvalues --    1.67934   1.68239   1.68358   1.68946   1.69462
 Alpha virt. eigenvalues --    1.70225   1.70752   1.71322   1.71368   1.71699
 Alpha virt. eigenvalues --    1.72452   1.72592   1.73227   1.73984   1.74137
 Alpha virt. eigenvalues --    1.75122   1.75481   1.75838   1.76181   1.76880
 Alpha virt. eigenvalues --    1.77021   1.77599   1.77810   1.78301   1.78681
 Alpha virt. eigenvalues --    1.79368   1.80407   1.80581   1.81106   1.81167
 Alpha virt. eigenvalues --    1.81338   1.82038   1.82101   1.83427   1.83883
 Alpha virt. eigenvalues --    1.84388   1.85313   1.85845   1.87192   1.87412
 Alpha virt. eigenvalues --    1.87630   1.88138   1.88357   1.88504   1.88683
 Alpha virt. eigenvalues --    1.88961   1.89074   1.89605   1.90252   1.91339
 Alpha virt. eigenvalues --    1.91478   1.92096   1.92406   1.92546   1.92910
 Alpha virt. eigenvalues --    1.93019   1.93990   1.94776   1.94916   1.94949
 Alpha virt. eigenvalues --    1.96106   1.96825   1.96849   1.97106   1.97684
 Alpha virt. eigenvalues --    1.98678   1.99122   1.99559   1.99724   2.00122
 Alpha virt. eigenvalues --    2.00335   2.01717   2.01865   2.02157   2.02786
 Alpha virt. eigenvalues --    2.03111   2.03892   2.04694   2.04963   2.05580
 Alpha virt. eigenvalues --    2.05710   2.06489   2.06820   2.07550   2.07905
 Alpha virt. eigenvalues --    2.08033   2.08136   2.08277   2.09003   2.09005
 Alpha virt. eigenvalues --    2.09818   2.09833   2.10978   2.12285   2.12501
 Alpha virt. eigenvalues --    2.12887   2.14138   2.14734   2.15727   2.16083
 Alpha virt. eigenvalues --    2.16313   2.16664   2.17373   2.18203   2.19390
 Alpha virt. eigenvalues --    2.19640   2.21337   2.22496   2.22651   2.23905
 Alpha virt. eigenvalues --    2.24113   2.25247   2.25751   2.26403   2.27336
 Alpha virt. eigenvalues --    2.27943   2.28270   2.28590   2.28863   2.29813
 Alpha virt. eigenvalues --    2.31188   2.31716   2.31756   2.32484   2.32755
 Alpha virt. eigenvalues --    2.33261   2.33378   2.34103   2.34494   2.34710
 Alpha virt. eigenvalues --    2.35784   2.35957   2.36052   2.36331   2.36521
 Alpha virt. eigenvalues --    2.37082   2.38041   2.38393   2.38617   2.38929
 Alpha virt. eigenvalues --    2.39128   2.39335   2.39823   2.40078   2.40664
 Alpha virt. eigenvalues --    2.41567   2.41692   2.43059   2.43095   2.43851
 Alpha virt. eigenvalues --    2.43918   2.45028   2.46023   2.46563   2.47475
 Alpha virt. eigenvalues --    2.48399   2.48527   2.49174   2.49625   2.50120
 Alpha virt. eigenvalues --    2.52311   2.52700   2.53892   2.54001   2.54535
 Alpha virt. eigenvalues --    2.55371   2.56549   2.56961   2.57582   2.57693
 Alpha virt. eigenvalues --    2.59330   2.59624   2.59819   2.60132   2.60935
 Alpha virt. eigenvalues --    2.61391   2.61466   2.61957   2.62717   2.62831
 Alpha virt. eigenvalues --    2.63197   2.63459   2.63859   2.65294   2.65554
 Alpha virt. eigenvalues --    2.65647   2.66047   2.66226   2.66939   2.67170
 Alpha virt. eigenvalues --    2.67294   2.67687   2.67854   2.67955   2.68498
 Alpha virt. eigenvalues --    2.68538   2.69428   2.70589   2.70742   2.71918
 Alpha virt. eigenvalues --    2.71976   2.72951   2.73302   2.73434   2.73627
 Alpha virt. eigenvalues --    2.73892   2.74096   2.74627   2.74734   2.75018
 Alpha virt. eigenvalues --    2.75445   2.75856   2.76126   2.76197   2.76485
 Alpha virt. eigenvalues --    2.76677   2.76875   2.76920   2.77890   2.78265
 Alpha virt. eigenvalues --    2.78292   2.79267   2.79382   2.79735   2.80189
 Alpha virt. eigenvalues --    2.80208   2.80326   2.81260   2.81419   2.81763
 Alpha virt. eigenvalues --    2.81906   2.82138   2.82337   2.82750   2.83672
 Alpha virt. eigenvalues --    2.84682   2.84746   2.84869   2.85497   2.86074
 Alpha virt. eigenvalues --    2.86171   2.86292   2.86960   2.86994   2.87203
 Alpha virt. eigenvalues --    2.87845   2.88180   2.88219   2.88687   2.89399
 Alpha virt. eigenvalues --    2.90300   2.90358   2.90869   2.91268   2.91644
 Alpha virt. eigenvalues --    2.91670   2.91799   2.91915   2.92059   2.92082
 Alpha virt. eigenvalues --    2.92477   2.92714   2.93016   2.93158   2.93320
 Alpha virt. eigenvalues --    2.93847   2.94004   2.94126   2.94693   2.95357
 Alpha virt. eigenvalues --    2.95879   2.96253   2.96739   2.96949   2.97277
 Alpha virt. eigenvalues --    2.97287   2.97934   2.98139   2.98617   2.99241
 Alpha virt. eigenvalues --    2.99439   2.99825   3.00020   3.00193   3.00408
 Alpha virt. eigenvalues --    3.00425   3.00781   3.01147   3.01380   3.01441
 Alpha virt. eigenvalues --    3.01661   3.01942   3.01991   3.02203   3.02206
 Alpha virt. eigenvalues --    3.02628   3.02745   3.03150   3.03632   3.03844
 Alpha virt. eigenvalues --    3.03898   3.04161   3.04520   3.04662   3.05865
 Alpha virt. eigenvalues --    3.06016   3.06159   3.06238   3.06546   3.06694
 Alpha virt. eigenvalues --    3.07180   3.07269   3.07330   3.07578   3.08589
 Alpha virt. eigenvalues --    3.08646   3.08997   3.09239   3.09299   3.09451
 Alpha virt. eigenvalues --    3.09715   3.09720   3.09877   3.10279   3.10660
 Alpha virt. eigenvalues --    3.10927   3.11441   3.11683   3.11716   3.12277
 Alpha virt. eigenvalues --    3.12475   3.13104   3.13359   3.13857   3.14041
 Alpha virt. eigenvalues --    3.14308   3.14701   3.15046   3.15171   3.15263
 Alpha virt. eigenvalues --    3.15863   3.16413   3.16489   3.16691   3.16832
 Alpha virt. eigenvalues --    3.17315   3.17337   3.17612   3.17745   3.18177
 Alpha virt. eigenvalues --    3.18305   3.18847   3.19134   3.19240   3.19676
 Alpha virt. eigenvalues --    3.20610   3.20784   3.21103   3.21313   3.21461
 Alpha virt. eigenvalues --    3.21606   3.21780   3.21997   3.22308   3.22436
 Alpha virt. eigenvalues --    3.22911   3.23283   3.24234   3.24308   3.24492
 Alpha virt. eigenvalues --    3.24543   3.24633   3.25621   3.25833   3.26071
 Alpha virt. eigenvalues --    3.26500   3.27147   3.27283   3.28131   3.28347
 Alpha virt. eigenvalues --    3.28787   3.29407   3.29454   3.29953   3.30164
 Alpha virt. eigenvalues --    3.30371   3.31405   3.31593   3.32029   3.32092
 Alpha virt. eigenvalues --    3.32117   3.32600   3.32638   3.32870   3.33004
 Alpha virt. eigenvalues --    3.33633   3.33707   3.33962   3.34071   3.34232
 Alpha virt. eigenvalues --    3.34668   3.34783   3.35259   3.35718   3.35815
 Alpha virt. eigenvalues --    3.36217   3.36412   3.36518   3.37033   3.37084
 Alpha virt. eigenvalues --    3.37476   3.37769   3.37870   3.38178   3.38943
 Alpha virt. eigenvalues --    3.39091   3.39599   3.39637   3.39781   3.40615
 Alpha virt. eigenvalues --    3.41294   3.41307   3.41355   3.41792   3.42157
 Alpha virt. eigenvalues --    3.42541   3.42684   3.43287   3.44072   3.44629
 Alpha virt. eigenvalues --    3.45759   3.45803   3.46302   3.46746   3.47076
 Alpha virt. eigenvalues --    3.47670   3.47883   3.48330   3.48477   3.48777
 Alpha virt. eigenvalues --    3.49082   3.49420   3.49681   3.50110   3.50165
 Alpha virt. eigenvalues --    3.50977   3.51307   3.51427   3.51792   3.52120
 Alpha virt. eigenvalues --    3.52162   3.52480   3.52562   3.52600   3.52831
 Alpha virt. eigenvalues --    3.53061   3.53280   3.53461   3.54083   3.54442
 Alpha virt. eigenvalues --    3.55133   3.55631   3.55804   3.56640   3.57083
 Alpha virt. eigenvalues --    3.57284   3.57800   3.58089   3.58867   3.59455
 Alpha virt. eigenvalues --    3.59781   3.60333   3.60620   3.61249   3.61287
 Alpha virt. eigenvalues --    3.61936   3.61990   3.63329   3.63551   3.63790
 Alpha virt. eigenvalues --    3.63871   3.64523   3.64530   3.65173   3.65310
 Alpha virt. eigenvalues --    3.66116   3.66126   3.66566   3.66708   3.67053
 Alpha virt. eigenvalues --    3.67258   3.68088   3.68891   3.69134   3.69222
 Alpha virt. eigenvalues --    3.69649   3.70311   3.70319   3.70610   3.70846
 Alpha virt. eigenvalues --    3.70895   3.71837   3.72014   3.72235   3.72433
 Alpha virt. eigenvalues --    3.72857   3.73431   3.73511   3.74050   3.74271
 Alpha virt. eigenvalues --    3.74733   3.75098   3.75600   3.75912   3.76631
 Alpha virt. eigenvalues --    3.77172   3.78175   3.78839   3.78856   3.79225
 Alpha virt. eigenvalues --    3.79909   3.80074   3.80097   3.80503   3.80644
 Alpha virt. eigenvalues --    3.80726   3.82684   3.82956   3.83502   3.83874
 Alpha virt. eigenvalues --    3.83929   3.84209   3.84325   3.84620   3.84892
 Alpha virt. eigenvalues --    3.85481   3.85573   3.86111   3.86116   3.86480
 Alpha virt. eigenvalues --    3.86817   3.87015   3.87707   3.87912   3.88652
 Alpha virt. eigenvalues --    3.88674   3.89145   3.89438   3.89555   3.89823
 Alpha virt. eigenvalues --    3.90243   3.90304   3.91097   3.91567   3.91690
 Alpha virt. eigenvalues --    3.92211   3.92437   3.92496   3.93296   3.93626
 Alpha virt. eigenvalues --    3.94493   3.94627   3.94727   3.95923   3.95927
 Alpha virt. eigenvalues --    3.96191   3.96501   3.96868   3.97219   3.97696
 Alpha virt. eigenvalues --    3.97820   3.98189   3.98652   3.99192   3.99351
 Alpha virt. eigenvalues --    3.99895   4.00073   4.00234   4.00466   4.01021
 Alpha virt. eigenvalues --    4.01331   4.01480   4.01577   4.01965   4.02577
 Alpha virt. eigenvalues --    4.02774   4.02834   4.03469   4.05049   4.05650
 Alpha virt. eigenvalues --    4.05760   4.05823   4.06140   4.07291   4.07308
 Alpha virt. eigenvalues --    4.07332   4.07908   4.08387   4.08843   4.09365
 Alpha virt. eigenvalues --    4.09992   4.10064   4.10240   4.10324   4.11019
 Alpha virt. eigenvalues --    4.11246   4.11347   4.11921   4.12042   4.12693
 Alpha virt. eigenvalues --    4.12777   4.13584   4.14123   4.14433   4.14907
 Alpha virt. eigenvalues --    4.15072   4.15273   4.15374   4.16356   4.16385
 Alpha virt. eigenvalues --    4.16909   4.17076   4.17213   4.17551   4.17927
 Alpha virt. eigenvalues --    4.18327   4.18696   4.18787   4.18980   4.19841
 Alpha virt. eigenvalues --    4.19883   4.20256   4.20384   4.20949   4.21993
 Alpha virt. eigenvalues --    4.22174   4.22556   4.22734   4.23266   4.23921
 Alpha virt. eigenvalues --    4.24193   4.24430   4.25164   4.25279   4.25409
 Alpha virt. eigenvalues --    4.25851   4.26064   4.26585   4.26588   4.27156
 Alpha virt. eigenvalues --    4.27724   4.28440   4.28780   4.29565   4.29715
 Alpha virt. eigenvalues --    4.30225   4.30771   4.31000   4.31059   4.31505
 Alpha virt. eigenvalues --    4.32071   4.32549   4.33119   4.33261   4.33335
 Alpha virt. eigenvalues --    4.33816   4.34729   4.36872   4.37333   4.37705
 Alpha virt. eigenvalues --    4.38161   4.38565   4.38608   4.41698   4.41781
 Alpha virt. eigenvalues --    4.41835   4.42258   4.42684   4.43364   4.43381
 Alpha virt. eigenvalues --    4.45013   4.45081   4.45724   4.47903   4.48570
 Alpha virt. eigenvalues --    4.48714   4.48922   4.48956   4.50078   4.50176
 Alpha virt. eigenvalues --    4.50362   4.50909   4.51008   4.51163   4.53327
 Alpha virt. eigenvalues --    4.53593   4.54131   4.55375   4.55555   4.56624
 Alpha virt. eigenvalues --    4.57203   4.57288   4.57897   4.58189   4.58876
 Alpha virt. eigenvalues --    4.58893   4.59334   4.59429   4.59939   4.59977
 Alpha virt. eigenvalues --    4.60706   4.61529   4.62054   4.62295   4.62487
 Alpha virt. eigenvalues --    4.63911   4.64153   4.64553   4.65560   4.66306
 Alpha virt. eigenvalues --    4.67227   4.67551   4.67667   4.68088   4.68582
 Alpha virt. eigenvalues --    4.69120   4.69324   4.69829   4.69877   4.70769
 Alpha virt. eigenvalues --    4.71550   4.71611   4.72138   4.73307   4.73505
 Alpha virt. eigenvalues --    4.74106   4.75358   4.75612   4.76305   4.76822
 Alpha virt. eigenvalues --    4.77912   4.78105   4.78137   4.78622   4.80717
 Alpha virt. eigenvalues --    4.81300   4.81724   4.83323   4.83595   4.84812
 Alpha virt. eigenvalues --    4.85962   4.86209   4.87457   4.87812   4.89696
 Alpha virt. eigenvalues --    4.90574   4.90823   4.91163   4.92198   4.92353
 Alpha virt. eigenvalues --    4.93338   4.93474   4.93878   4.93944   4.94126
 Alpha virt. eigenvalues --    4.94431   4.94449   4.95602   4.95799   4.96484
 Alpha virt. eigenvalues --    4.96892   4.97414   4.98528   5.00076   5.00242
 Alpha virt. eigenvalues --    5.00706   5.01972   5.02864   5.03944   5.04029
 Alpha virt. eigenvalues --    5.05020   5.05297   5.05704   5.05854   5.06449
 Alpha virt. eigenvalues --    5.08157   5.08430   5.09056   5.09307   5.10340
 Alpha virt. eigenvalues --    5.10408   5.10676   5.11721   5.11926   5.12329
 Alpha virt. eigenvalues --    5.12506   5.12824   5.13310   5.15006   5.15010
 Alpha virt. eigenvalues --    5.16135   5.16892   5.16932   5.17193   5.19770
 Alpha virt. eigenvalues --    5.20366   5.20530   5.21195   5.22936   5.23127
 Alpha virt. eigenvalues --    5.23729   5.24336   5.24838   5.24962   5.25639
 Alpha virt. eigenvalues --    5.26764   5.27640   5.28546   5.28931   5.29188
 Alpha virt. eigenvalues --    5.29244   5.29555   5.30023   5.31054   5.31969
 Alpha virt. eigenvalues --    5.32025   5.32508   5.33308   5.34768   5.36199
 Alpha virt. eigenvalues --    5.36922   5.38606   5.38678   5.38971   5.39447
 Alpha virt. eigenvalues --    5.39531   5.40062   5.40102   5.41438   5.43513
 Alpha virt. eigenvalues --    5.43902   5.44281   5.45124   5.47619   5.47640
 Alpha virt. eigenvalues --    5.48917   5.49264   5.50745   5.51283   5.52583
 Alpha virt. eigenvalues --    5.53061   5.53351   5.56604   5.58177   5.58392
 Alpha virt. eigenvalues --    5.59288   5.59299   5.59595   5.60040   5.62079
 Alpha virt. eigenvalues --    5.62316   5.62319   5.62938   5.63201   5.64349
 Alpha virt. eigenvalues --    5.64873   5.65645   5.65886   5.65906   5.66441
 Alpha virt. eigenvalues --    5.67099   5.68260   5.70953   5.74099   5.75617
 Alpha virt. eigenvalues --    5.76292   5.76909   5.77280   5.78547   5.80241
 Alpha virt. eigenvalues --    5.81491   5.85344   5.90810   5.91049   5.91487
 Alpha virt. eigenvalues --    5.94273   5.96416   5.98136   6.01870   6.02186
 Alpha virt. eigenvalues --    6.03383   6.08294   6.09332   6.09603   6.13883
 Alpha virt. eigenvalues --    6.16155   6.18891   6.18902   6.35183   6.37644
 Alpha virt. eigenvalues --    6.54034   6.58683   6.58921   6.94065   6.94382
 Alpha virt. eigenvalues --    6.97060   6.98629   6.98882   6.99816   7.04738
 Alpha virt. eigenvalues --    7.10521   7.16764   7.22947   7.23555   7.27326
 Alpha virt. eigenvalues --    7.33913   7.34344   8.46031   8.46779   8.55721
 Alpha virt. eigenvalues --    8.57655   8.82491   8.85672   8.90942   8.91324
 Alpha virt. eigenvalues --    8.92145   8.99425  15.85614  22.82249  22.84247
 Alpha virt. eigenvalues --   22.96229  22.99200  23.02248  23.12470  23.13223
 Alpha virt. eigenvalues --   23.16248  23.17313  23.17607  23.22014  23.24242
 Alpha virt. eigenvalues --   23.24495  23.26171  23.28642  23.28851  23.32056
 Alpha virt. eigenvalues --   23.32939  23.34029  23.34457  23.35796  23.38549
 Alpha virt. eigenvalues --   23.46632  23.53591  23.54148  23.60256  23.64945
 Alpha virt. eigenvalues --   23.66568  23.73659  23.78529  23.87464  23.91323
 Alpha virt. eigenvalues --   24.18305  24.18830  24.22228  32.19806  32.19818
 Alpha virt. eigenvalues --   33.13304  33.28734  57.35117  57.54135
          Condensed to atoms (all electrons):
 Mulliken charges:
               1
     1  C   -0.437596
     2  C   -0.023242
     3  C   -0.086001
     4  C    0.017042
     5  C   -0.112495
     6  C   -0.060582
     7  C    0.027298
     8  C   -0.122449
     9  C   -0.133127
    10  C    0.106863
    11  C   -0.185702
    12  N   -0.081679
    13  C   -0.130619
    14  C   -0.151141
    15  N   -0.101935
    16  C    0.112740
    17  C    0.137447
    18  C   -0.209339
    19  C   -0.171146
    20  C   -0.114426
    21  C   -0.145925
    22  C   -0.109392
    23  C   -0.196021
    24  C    0.112792
    25  C   -0.023224
    26  C   -0.437576
    27  C   -0.086061
    28  C    0.017138
    29  C   -0.112525
    30  C   -0.060531
    31  C    0.027287
    32  C   -0.122453
    33  C   -0.133120
    34  C    0.106874
    35  C   -0.185707
    36  N   -0.081674
    37  C   -0.130627
    38  C   -0.151139
    39  N   -0.101944
    40  B    0.342478
    41  F   -0.365150
    42  F   -0.331371
    43  H    0.163891
    44  H    0.132143
    45  H    0.160688
    46  H    0.168137
    47  H    0.143630
    48  H    0.118404
    49  H    0.149797
    50  H    0.170068
    51  H    0.168212
    52  H    0.156229
    53  H    0.165749
    54  H    0.162597
    55  H    0.162945
    56  H    0.162936
    57  H    0.171347
    58  H    0.163905
    59  H    0.160668
    60  H    0.132143
    61  H    0.168140
    62  H    0.143621
    63  H    0.118405
    64  H    0.149800
    65  H    0.170065
    66  H    0.168212
    67  H    0.156227
 Sum of Mulliken charges =  -0.00000
 Mulliken charges with hydrogens summed into heavy atoms:
               1
     1  C    0.019125
     2  C   -0.023242
     3  C    0.082136
     4  C    0.017042
     5  C    0.031135
     6  C    0.057822
     7  C    0.027298
     8  C    0.027348
     9  C    0.036942
    10  C    0.106863
    11  C   -0.185702
    12  N   -0.081679
    13  C    0.037592
    14  C    0.005088
    15  N   -0.101935
    16  C    0.112740
    17  C    0.137447
    18  C   -0.209339
    19  C   -0.005397
    20  C    0.048171
    21  C    0.017020
    22  C    0.053543
    23  C   -0.024674
    24  C    0.112792
    25  C   -0.023224
    26  C    0.019140
    27  C    0.082079
    28  C    0.017138
    29  C    0.031096
    30  C    0.057874
    31  C    0.027287
    32  C    0.027347
    33  C    0.036946
    34  C    0.106874
    35  C   -0.185707
    36  N   -0.081674
    37  C    0.037584
    38  C    0.005088
    39  N   -0.101944
    40  B    0.342478
    41  F   -0.365150
    42  F   -0.331371
 Electronic spatial extent (au):  <R**2>=          33293.1799
 Charge=             -0.0000 electrons
 Dipole moment (field-independent basis, Debye):
    X=            -18.5459    Y=              0.0007    Z=             -1.0101  Tot=             18.5734
 Quadrupole moment (field-independent basis, Debye-Ang):
   XX=           -303.8097   YY=           -244.2966   ZZ=           -248.6500
   XY=              0.0000   XZ=              0.3221   YZ=             -0.0182
 Traceless Quadrupole moment (field-independent basis, Debye-Ang):
   XX=            -38.2242   YY=             21.2888   ZZ=             16.9354
   XY=              0.0000   XZ=              0.3221   YZ=             -0.0182
 Octapole moment (field-independent basis, Debye-Ang**2):
  XXX=          -1387.1081  YYY=              0.0863  ZZZ=              0.3306  XYY=           -657.0613
  XXY=             -0.0005  XXZ=             -2.6897  XZZ=            -59.0236  YZZ=             -0.0197
  YYZ=             32.1716  XYZ=             -0.0290
 Hexadecapole moment (field-independent basis, Debye-Ang**3):
 XXXX=         -31293.4989 YYYY=         -21719.1566 ZZZZ=           -618.2379 XXXY=              0.0732
 XXXZ=              7.4437 YYYX=              0.1545 YYYZ=             -1.3385 ZZZX=             -1.4573
 ZZZY=             -0.0211 XXYY=         -13726.6499 XXZZ=          -4142.3076 YYZZ=          -3944.8045
 XXYZ=             -0.2529 YYXZ=            109.8632 ZZXY=             -0.0615
 N-N= 4.225003987730D+03 E-N=-1.262062806456D+04  KE= 1.782684750779D+03
 No NMR shielding tensors so no spin-rotation constants.
 Leave Link  601 at Fri Nov  7 18:03:31 2025, MaxMem= 30870077440 cpu:              98.1 elap:               1.8
 (Enter /public/software/gauss/g16/l9999.exe)
 1\1\GINC-CU015\SP\RM062X\def2TZVPP\C35H25B1F2N4\BAIDING\07-Nov-2025\0\
 \#p M062X/DEF2TZVPP scrf=(solvent=water) em=GD3\\Energy calculation fo
 r M100036283\\0,1\C,0,-4.57961,3.105305,0.100498\C,0,-3.176146,2.58225
 9,0.07142\C,0,-2.045251,3.380174,0.092791\C,0,-0.900191,2.545713,0.067
 367\C,0,0.49172,2.920343,0.084308\C,0,0.922822,4.201107,-0.024636\C,0,
 2.311511,4.646684,-0.004647\C,0,2.574579,6.02537,-0.149309\C,0,3.87149
 8,6.518575,-0.141019\C,0,4.949153,5.629694,0.014821\C,0,6.288813,6.124
 622,0.025296\N,0,7.383572,6.528504,0.033876\C,0,4.708168,4.249481,0.16
 103\C,0,3.408413,3.770086,0.150867\N,0,-1.312266,1.245616,0.037906\C,0
 ,-2.707884,1.222107,0.033885\C,0,-3.40358,-0.000033,0.022575\C,0,-4.89
 8115,0.000025,0.009866\C,0,-5.59236,0.000302,-1.207705\C,0,-6.988541,0
 .000354,-1.220065\C,0,-7.701185,0.000151,-0.018782\C,0,-7.013134,-0.00
 0106,1.196746\C,0,-5.61714,-0.00018,1.212847\C,0,-2.707921,-1.222168,0
 .034173\C,0,-3.176191,-2.582339,0.071633\C,0,-4.579661,-3.105376,0.100
 599\C,0,-2.045308,-3.380252,0.092922\C,0,-0.900244,-2.545773,0.067488\
 C,0,0.491667,-2.920395,0.084297\C,0,0.9228,-4.201148,-0.024646\C,0,2.3
 11511,-4.646674,-0.004878\C,0,2.574505,-6.025543,-0.147883\C,0,3.87142
 9,-6.518738,-0.139588\C,0,4.949165,-5.629654,0.014503\C,0,6.288829,-6.
 124579,0.024955\N,0,7.383588,-6.528459,0.033516\C,0,4.708262,-4.249237
 ,0.158921\C,0,3.408502,-3.769855,0.148789\N,0,-1.31231,-1.245695,0.038
 093\B,0,-0.415977,-0.000038,-0.18722\F,0,0.65003,0.000006,0.727903\F,0
 ,0.09734,-0.000195,-1.490457\H,0,-5.124771,2.764488,0.985784\H,0,-4.56
 1835,4.198136,0.111203\H,0,-5.15476,2.78141,-0.771912\H,0,-2.03329,4.4
 60156,0.142048\H,0,1.204416,2.112242,0.199885\H,0,0.190162,4.995792,-0
 .145347\H,0,1.742712,6.712581,-0.269734\H,0,4.058545,7.580894,-0.25359
 4\H,0,5.543044,3.567713,0.280995\H,0,3.244474,2.704266,0.264572\H,0,-5
 .038495,0.000474,-2.141529\H,0,-7.517692,0.000559,-2.168239\H,0,-8.786
 957,0.000195,-0.029868\H,0,-7.561525,-0.000255,2.133921\H,0,-5.082389,
 -0.000377,2.157733\H,0,-5.125,-2.76435,0.985685\H,0,-5.154624,-2.7817,
 -0.772022\H,0,-4.561896,-4.198206,0.111541\H,0,-2.033311,-4.460232,0.1
 4219\H,0,1.204374,-2.112308,0.199864\H,0,0.190145,-4.995885,-0.145038\
 H,0,1.74258,-6.712918,-0.266967\H,0,4.058421,-7.581206,-0.250831\H,0,5
 .543205,-3.567296,0.277433\H,0,3.244627,-2.703858,0.260934\\Version=ES
 64L-G16RevA.03\State=1-A\HF=-1792.4818461\RMSD=9.032e-09\Dipole=-7.296
 5338,-0.0002744,0.3974034\Quadrupole=-28.4187839,15.8277066,12.5910773
 ,-0.0000129,-0.2394479,-0.0134969\PG=C01 [X(C35H25B1F2N4)]\\@


 ON A CLEAR DISK YOU CAN SEEK FOREVER.
 Job cpu time:       0 days 12 hours 12 minutes 35.6 seconds.
 Elapsed time:       0 days  0 hours 11 minutes 41.5 seconds.
 File lengths (MBytes):  RWF=   1845 Int=      0 D2E=      0 Chk=    160 Scr=      1
 Normal termination of Gaussian 16 at Fri Nov  7 18:03:32 2025.
