 Entering Gaussian System, Link 0=g16
 Input=M100034661_sp.gjf
 Output=M100034661_sp.log
 Initial command:
 /public/software/gauss/g16/l1.exe "/public/home/baiding/1101_v2_sp/tmp_M100034661_sp_1568608/Gau-4179208.inp" -scrdir="/public/home/baiding/1101_v2_sp/tmp_M100034661_sp_1568608/"
 Entering Link 1 = /public/software/gauss/g16/l1.exe PID=   4179209.
  
 Copyright (c) 1988,1990,1992,1993,1995,1998,2003,2009,2016,
            Gaussian, Inc.  All Rights Reserved.
  
 This is part of the Gaussian(R) 16 program.  It is based on
 the Gaussian(R) 09 system (copyright 2009, Gaussian, Inc.),
 the Gaussian(R) 03 system (copyright 2003, Gaussian, Inc.),
 the Gaussian(R) 98 system (copyright 1998, Gaussian, Inc.),
 the Gaussian(R) 94 system (copyright 1995, Gaussian, Inc.),
 the Gaussian 92(TM) system (copyright 1992, Gaussian, Inc.),
 the Gaussian 90(TM) system (copyright 1990, Gaussian, Inc.),
 the Gaussian 88(TM) system (copyright 1988, Gaussian, Inc.),
 the Gaussian 86(TM) system (copyright 1986, Carnegie Mellon
 University), and the Gaussian 82(TM) system (copyright 1983,
 Carnegie Mellon University). Gaussian is a federally registered
 trademark of Gaussian, Inc.
  
 This software contains proprietary and confidential information,
 including trade secrets, belonging to Gaussian, Inc.
  
 This software is provided under written license and may be
 used, copied, transmitted, or stored only in accord with that
 written license.
  
 The following legend is applicable only to US Government
 contracts under FAR:
  
                    RESTRICTED RIGHTS LEGEND
  
 Use, reproduction and disclosure by the US Government is
 subject to restrictions as set forth in subparagraphs (a)
 and (c) of the Commercial Computer Software - Restricted
 Rights clause in FAR 52.227-19.
  
 Gaussian, Inc.
 340 Quinnipiac St., Bldg. 40, Wallingford CT 06492
  
  
 ---------------------------------------------------------------
 Warning -- This program may not be used in any manner that
 competes with the business of Gaussian, Inc. or will provide
 assistance to any competitor of Gaussian, Inc.  The licensee
 of this program is prohibited from giving any competitor of
 Gaussian, Inc. access to this program.  By using this program,
 the user acknowledges that Gaussian, Inc. is engaged in the
 business of creating and licensing software in the field of
 computational chemistry and represents and warrants to the
 licensee that it is not a competitor of Gaussian, Inc. and that
 it will not use this program in any manner prohibited above.
 ---------------------------------------------------------------
  

 Cite this work as:
 Gaussian 16, Revision A.03,
 M. J. Frisch, G. W. Trucks, H. B. Schlegel, G. E. Scuseria, 
 M. A. Robb, J. R. Cheeseman, G. Scalmani, V. Barone, 
 G. A. Petersson, H. Nakatsuji, X. Li, M. Caricato, A. V. Marenich, 
 J. Bloino, B. G. Janesko, R. Gomperts, B. Mennucci, H. P. Hratchian, 
 J. V. Ortiz, A. F. Izmaylov, J. L. Sonnenberg, D. Williams-Young, 
 F. Ding, F. Lipparini, F. Egidi, J. Goings, B. Peng, A. Petrone, 
 T. Henderson, D. Ranasinghe, V. G. Zakrzewski, J. Gao, N. Rega, 
 G. Zheng, W. Liang, M. Hada, M. Ehara, K. Toyota, R. Fukuda, 
 J. Hasegawa, M. Ishida, T. Nakajima, Y. Honda, O. Kitao, H. Nakai, 
 T. Vreven, K. Throssell, J. A. Montgomery, Jr., J. E. Peralta, 
 F. Ogliaro, M. J. Bearpark, J. J. Heyd, E. N. Brothers, K. N. Kudin, 
 V. N. Staroverov, T. A. Keith, R. Kobayashi, J. Normand, 
 K. Raghavachari, A. P. Rendell, J. C. Burant, S. S. Iyengar, 
 J. Tomasi, M. Cossi, J. M. Millam, M. Klene, C. Adamo, R. Cammi, 
 J. W. Ochterski, R. L. Martin, K. Morokuma, O. Farkas, 
 J. B. Foresman, and D. J. Fox, Gaussian, Inc., Wallingford CT, 2016.
 
 ******************************************
 Gaussian 16:  ES64L-G16RevA.03 25-Dec-2016
                 6-Nov-2025 
 ******************************************
 %nprocshared=64
 Will use up to   64 processors via shared memory.
 %mem=230GB
 %chk=M100034661_sp.chk
 ----------------------------------------------
 #p M062X/DEF2TZVPP scrf=(solvent=water) em=GD3
 ----------------------------------------------
 1/38=1,172=1/1;
 2/12=2,17=6,18=5,40=1/2;
 3/5=44,7=202,11=2,25=1,30=1,70=2201,72=1,74=-55,124=31/1,2,3;
 4//1;
 5/5=2,38=5,53=1/2;
 6/7=2,8=2,9=2,10=2,28=1/1;
 99/5=1,9=1/99;
 Leave Link    1 at Thu Nov  6 21:52:46 2025, MaxMem= 30870077440 cpu:              14.6 elap:               0.2
 (Enter /public/software/gauss/g16/l101.exe)
 ---------------------------------
 Energy calculation for M100034661
 ---------------------------------
 Symbolic Z-matrix:
 Charge =  0 Multiplicity = 1
 C                     4.87756   5.91522   0.64465 
 C                     4.94038   5.13136  -0.67746 
 C                     5.01335   3.63987  -0.4858 
 C                     6.16727   2.86543  -0.42081 
 C                     7.56346   3.39266  -0.57469 
 C                     5.7442    1.51332  -0.19116 
 C                     6.48799   0.3249   -0.08142 
 C                     5.85594  -0.92373   0.05581 
 C                     6.40148  -2.2297    0.29504 
 C                     7.84214  -2.63347   0.40708 
 C                     5.32102  -3.09775   0.4179 
 C                     5.38121  -4.58519   0.64184 
 C                     5.34189  -5.40179  -0.66123 
 C                     4.12375  -2.33838   0.22786 
 C                     2.81891  -2.94432   0.27212 
 C                     1.60956  -2.48877  -0.15733 
 C                     0.3594   -3.22509  -0.06637 
 C                     0.20565  -4.43888   0.64247 
 C                    -0.99841  -5.11991   0.66672 
 C                    -2.12918  -4.62796  -0.02552 
 C                    -1.99671  -3.4055   -0.7166 
 C                    -0.78545  -2.72798  -0.72607 
 N                    -3.33603  -5.34137  -0.01628 
 C                    -3.34189  -6.76258   0.14942 
 C                    -4.18152  -7.35948   1.10364 
 C                    -4.21578  -8.74015   1.24951 
 C                    -3.3978   -9.55643   0.45396 
 O                    -3.49998  -10.90655   0.67832 
 C                    -2.68992  -11.77942  -0.11394 
 C                    -2.55125  -8.97192  -0.49534 
 C                    -2.53809  -7.58414  -0.64835 
 C                    -4.59487  -4.69101  -0.2018 
 C                    -4.94155  -3.55556   0.53928 
 C                    -6.18556  -2.94176   0.37676 
 C                    -7.11367  -3.48092  -0.52182 
 O                    -8.36982  -2.97462  -0.7429 
 C                    -8.7674   -1.81755  -0.00111 
 C                    -6.77542  -4.62146  -1.26493 
 C                    -5.5286   -5.2129   -1.11252 
 N                     4.46289  -1.02557   0.01703 
 B                     3.5057    0.19292  -0.04101 
 F                     2.69923   0.1796    1.11192 
 F                     2.68846   0.13252  -1.18583 
 N                     4.34921   1.49299  -0.10753 
 C                     3.89169   2.77617  -0.27752 
 C                     2.53983   3.26939  -0.27244 
 C                     1.37471   2.67603   0.10772 
 C                     0.06082   3.29547   0.06681 
 C                    -1.04997   2.57284   0.55406 
 C                    -2.3303    3.10621   0.56434 
 C                    -2.56845   4.40761   0.0762 
 C                    -1.46722   5.13772  -0.42648 
 C                    -0.19403   4.59494  -0.4292 
 N                    -3.85693   4.96105   0.08256 
 C                    -4.05115   6.37347   0.1766 
 C                    -3.39341   7.12597   1.16445 
 C                    -3.59504   8.4966    1.25911 
 C                    -4.47649   9.14586   0.3816 
 O                    -4.61454   10.49946   0.56411 
 C                    -5.49658   11.20567  -0.31252 
 C                    -5.14789   8.40427  -0.59703 
 C                    -4.92397   7.02967  -0.69792 
 C                    -5.01196   4.1241   -0.00817 
 C                    -6.06667   4.26776   0.899 
 C                    -7.21443   3.47841   0.80036 
 C                    -7.30761   2.5168   -0.21183 
 O                    -8.38445   1.68757  -0.39891 
 C                    -9.47775   1.78946   0.51821 
 C                    -6.25085   2.36089  -1.1214 
 C                    -5.12123   3.16246  -1.02653 
 C                     7.98108   0.38993  -0.10442 
 C                     8.69127   0.73851   1.05786 
 C                     10.07877   0.79482   1.04198 
 C                     10.77969   0.51085  -0.14182 
 C                     12.24945   0.56699  -0.18576 
 O                     12.96524   0.85138   0.76989 
 C                     10.07342   0.16714  -1.30334 
 C                     8.68268   0.10268  -1.28389 
 H                     4.82807   6.99273   0.45501 
 H                     3.99599   5.6331    1.22949 
 H                     5.76298   5.7193    1.25848 
 H                     4.06981   5.38849  -1.29063 
 H                     5.81244   5.46468  -1.24852 
 H                     7.54136   4.43613  -0.89548 
 H                     8.12229   3.35042   0.36558 
 H                     8.13829   2.82842  -1.31345 
 H                     7.92022  -3.67201   0.7353 
 H                     8.36481  -2.55151  -0.55115 
 H                     8.38963  -2.01512   1.12309 
 H                     6.29631  -4.8308    1.18957 
 H                     4.55533  -4.90041   1.28894 
 H                     4.42215  -5.20583  -1.22203 
 H                     6.18854  -5.14863  -1.30796 
 H                     5.38693  -6.47512  -0.44823 
 H                     2.85408  -3.95224   0.67406 
 H                     1.54591  -1.52499  -0.64867 
 H                     1.03823  -4.85      1.20458 
 H                    -1.07785  -6.04028   1.23367 
 H                    -2.84267  -2.99642  -1.25689 
 H                    -0.70967  -1.79584  -1.27984 
 H                    -4.81098  -6.73562   1.72993 
 H                    -4.86492  -9.20407   1.98531 
 H                    -2.92822  -11.68748  -1.17933 
 H                    -1.62312  -11.58292   0.03982 
 H                    -2.92374  -12.79014   0.22294 
 H                    -1.91535  -9.57943  -1.12745 
 H                    -1.89169  -7.1386   -1.3976 
 H                    -4.23637  -3.1439    1.25407 
 H                    -6.42238  -2.06376   0.96508 
 H                    -8.7529   -2.01087   1.07727 
 H                    -8.12864  -0.9586   -0.22905 
 H                    -9.78963  -1.60294  -0.3154 
 H                    -7.49944  -5.02721  -1.96435 
 H                    -5.27518  -6.09111  -1.69723 
 H                     2.48485   4.30211  -0.60198 
 H                     1.39308   1.6697    0.5072 
 H                    -0.89394   1.57173   0.94742 
 H                    -3.15204   2.52139   0.96174 
 H                    -1.62351   6.13258  -0.82783 
 H                     0.61533   5.18956  -0.84089 
 H                    -2.72217   6.63256   1.85976 
 H                    -3.08779   9.07935   2.02143 
 H                    -6.52542   10.83964  -0.2236 
 H                    -5.45569   12.24948   0.00129 
 H                    -5.17027   11.12675  -1.35543 
 H                    -5.83212   8.88046  -1.28857 
 H                    -5.43966   6.46281  -1.46632 
 H                    -5.99526   5.00621   1.69114 
 H                    -8.01486   3.61507   1.51712 
 H                    -9.16285   1.55814   1.54152 
 H                    -9.92614   2.78865   0.49138 
 H                    -10.21312   1.05483   0.1887 
 H                    -6.33869   1.61811  -1.90793 
 H                    -4.31609   3.04517  -1.74456 
 H                     8.14659   0.9599    1.97007 
 H                     10.63187   1.05867   1.93759 
 H                     12.69678   0.32844  -1.16959 
 H                     10.61847  -0.05035  -2.21787 
 H                     8.13579  -0.16601  -2.18178 
 
 ITRead=  0  0  0  0  0  0  0  0  0  0  0  0  0  0  0  0  0  0  0  0
 ITRead=  0  0  0  0  0  0  0  0  0  0  0  0  0  0  0  0  0  0  0  0
 ITRead=  0  0  0  0  0  0  0  0  0  0  0  0  0  0  0  0  0  0  0  0
 ITRead=  0  0  0  0  0  0  0  0  0  0  0  0  0  0  0  0  0  0  0  0
 ITRead=  0  0  0  0  0  0  0  0  0  0  0  0  0  0  0  0  0  0  0  0
 ITRead=  0  0  0  0  0  0  0  0  0  0  0  0  0  0  0  0  0  0  0  0
 ITRead=  0  0  0  0  0  0  0  0  0  0  0  0  0  0  0  0  0  0  0
 MicOpt= -1 -1 -1 -1 -1 -1 -1 -1 -1 -1 -1 -1 -1 -1 -1 -1 -1 -1 -1 -1
 MicOpt= -1 -1 -1 -1 -1 -1 -1 -1 -1 -1 -1 -1 -1 -1 -1 -1 -1 -1 -1 -1
 MicOpt= -1 -1 -1 -1 -1 -1 -1 -1 -1 -1 -1 -1 -1 -1 -1 -1 -1 -1 -1 -1
 MicOpt= -1 -1 -1 -1 -1 -1 -1 -1 -1 -1 -1 -1 -1 -1 -1 -1 -1 -1 -1 -1
 MicOpt= -1 -1 -1 -1 -1 -1 -1 -1 -1 -1 -1 -1 -1 -1 -1 -1 -1 -1 -1 -1
 MicOpt= -1 -1 -1 -1 -1 -1 -1 -1 -1 -1 -1 -1 -1 -1 -1 -1 -1 -1 -1 -1
 MicOpt= -1 -1 -1 -1 -1 -1 -1 -1 -1 -1 -1 -1 -1 -1 -1 -1 -1 -1 -1
 NAtoms=    139 NQM=      139 NQMF=       0 NMMI=      0 NMMIF=      0
                NMic=       0 NMicF=      0.
                    Isotopes and Nuclear Properties:
 (Nuclear quadrupole moments (NQMom) in fm**2, nuclear magnetic moments (NMagM)
  in nuclear magnetons)

  Atom         1           2           3           4           5           6           7           8           9          10
 IAtWgt=          12          12          12          12          12          12          12          12          12          12
 AtmWgt=  12.0000000  12.0000000  12.0000000  12.0000000  12.0000000  12.0000000  12.0000000  12.0000000  12.0000000  12.0000000
 NucSpn=           0           0           0           0           0           0           0           0           0           0
 AtZEff=  -0.0000000  -0.0000000  -0.0000000  -0.0000000  -0.0000000  -0.0000000  -0.0000000  -0.0000000  -0.0000000  -0.0000000
 NQMom=    0.0000000   0.0000000   0.0000000   0.0000000   0.0000000   0.0000000   0.0000000   0.0000000   0.0000000   0.0000000
 NMagM=    0.0000000   0.0000000   0.0000000   0.0000000   0.0000000   0.0000000   0.0000000   0.0000000   0.0000000   0.0000000
 AtZNuc=   6.0000000   6.0000000   6.0000000   6.0000000   6.0000000   6.0000000   6.0000000   6.0000000   6.0000000   6.0000000

  Atom        11          12          13          14          15          16          17          18          19          20
 IAtWgt=          12          12          12          12          12          12          12          12          12          12
 AtmWgt=  12.0000000  12.0000000  12.0000000  12.0000000  12.0000000  12.0000000  12.0000000  12.0000000  12.0000000  12.0000000
 NucSpn=           0           0           0           0           0           0           0           0           0           0
 AtZEff=  -0.0000000  -0.0000000  -0.0000000  -0.0000000  -0.0000000  -0.0000000  -0.0000000  -0.0000000  -0.0000000  -0.0000000
 NQMom=    0.0000000   0.0000000   0.0000000   0.0000000   0.0000000   0.0000000   0.0000000   0.0000000   0.0000000   0.0000000
 NMagM=    0.0000000   0.0000000   0.0000000   0.0000000   0.0000000   0.0000000   0.0000000   0.0000000   0.0000000   0.0000000
 AtZNuc=   6.0000000   6.0000000   6.0000000   6.0000000   6.0000000   6.0000000   6.0000000   6.0000000   6.0000000   6.0000000

  Atom        21          22          23          24          25          26          27          28          29          30
 IAtWgt=          12          12          14          12          12          12          12          16          12          12
 AtmWgt=  12.0000000  12.0000000  14.0030740  12.0000000  12.0000000  12.0000000  12.0000000  15.9949146  12.0000000  12.0000000
 NucSpn=           0           0           2           0           0           0           0           0           0           0
 AtZEff=  -0.0000000  -0.0000000  -0.0000000  -0.0000000  -0.0000000  -0.0000000  -0.0000000  -0.0000000  -0.0000000  -0.0000000
 NQMom=    0.0000000   0.0000000   2.0440000   0.0000000   0.0000000   0.0000000   0.0000000   0.0000000   0.0000000   0.0000000
 NMagM=    0.0000000   0.0000000   0.4037610   0.0000000   0.0000000   0.0000000   0.0000000   0.0000000   0.0000000   0.0000000
 AtZNuc=   6.0000000   6.0000000   7.0000000   6.0000000   6.0000000   6.0000000   6.0000000   8.0000000   6.0000000   6.0000000

  Atom        31          32          33          34          35          36          37          38          39          40
 IAtWgt=          12          12          12          12          12          16          12          12          12          14
 AtmWgt=  12.0000000  12.0000000  12.0000000  12.0000000  12.0000000  15.9949146  12.0000000  12.0000000  12.0000000  14.0030740
 NucSpn=           0           0           0           0           0           0           0           0           0           2
 AtZEff=  -0.0000000  -0.0000000  -0.0000000  -0.0000000  -0.0000000  -0.0000000  -0.0000000  -0.0000000  -0.0000000  -0.0000000
 NQMom=    0.0000000   0.0000000   0.0000000   0.0000000   0.0000000   0.0000000   0.0000000   0.0000000   0.0000000   2.0440000
 NMagM=    0.0000000   0.0000000   0.0000000   0.0000000   0.0000000   0.0000000   0.0000000   0.0000000   0.0000000   0.4037610
 AtZNuc=   6.0000000   6.0000000   6.0000000   6.0000000   6.0000000   8.0000000   6.0000000   6.0000000   6.0000000   7.0000000

  Atom        41          42          43          44          45          46          47          48          49          50
 IAtWgt=          11          19          19          14          12          12          12          12          12          12
 AtmWgt=  11.0093053  18.9984033  18.9984033  14.0030740  12.0000000  12.0000000  12.0000000  12.0000000  12.0000000  12.0000000
 NucSpn=           3           1           1           2           0           0           0           0           0           0
 AtZEff=  -0.0000000  -0.0000000  -0.0000000  -0.0000000  -0.0000000  -0.0000000  -0.0000000  -0.0000000  -0.0000000  -0.0000000
 NQMom=    4.0590000   0.0000000   0.0000000   2.0440000   0.0000000   0.0000000   0.0000000   0.0000000   0.0000000   0.0000000
 NMagM=    2.6886370   2.6288670   2.6288670   0.4037610   0.0000000   0.0000000   0.0000000   0.0000000   0.0000000   0.0000000
 AtZNuc=   5.0000000   9.0000000   9.0000000   7.0000000   6.0000000   6.0000000   6.0000000   6.0000000   6.0000000   6.0000000

  Atom        51          52          53          54          55          56          57          58          59          60
 IAtWgt=          12          12          12          14          12          12          12          12          16          12
 AtmWgt=  12.0000000  12.0000000  12.0000000  14.0030740  12.0000000  12.0000000  12.0000000  12.0000000  15.9949146  12.0000000
 NucSpn=           0           0           0           2           0           0           0           0           0           0
 AtZEff=  -0.0000000  -0.0000000  -0.0000000  -0.0000000  -0.0000000  -0.0000000  -0.0000000  -0.0000000  -0.0000000  -0.0000000
 NQMom=    0.0000000   0.0000000   0.0000000   2.0440000   0.0000000   0.0000000   0.0000000   0.0000000   0.0000000   0.0000000
 NMagM=    0.0000000   0.0000000   0.0000000   0.4037610   0.0000000   0.0000000   0.0000000   0.0000000   0.0000000   0.0000000
 AtZNuc=   6.0000000   6.0000000   6.0000000   7.0000000   6.0000000   6.0000000   6.0000000   6.0000000   8.0000000   6.0000000

  Atom        61          62          63          64          65          66          67          68          69          70
 IAtWgt=          12          12          12          12          12          12          16          12          12          12
 AtmWgt=  12.0000000  12.0000000  12.0000000  12.0000000  12.0000000  12.0000000  15.9949146  12.0000000  12.0000000  12.0000000
 NucSpn=           0           0           0           0           0           0           0           0           0           0
 AtZEff=  -0.0000000  -0.0000000  -0.0000000  -0.0000000  -0.0000000  -0.0000000  -0.0000000  -0.0000000  -0.0000000  -0.0000000
 NQMom=    0.0000000   0.0000000   0.0000000   0.0000000   0.0000000   0.0000000   0.0000000   0.0000000   0.0000000   0.0000000
 NMagM=    0.0000000   0.0000000   0.0000000   0.0000000   0.0000000   0.0000000   0.0000000   0.0000000   0.0000000   0.0000000
 AtZNuc=   6.0000000   6.0000000   6.0000000   6.0000000   6.0000000   6.0000000   8.0000000   6.0000000   6.0000000   6.0000000

  Atom        71          72          73          74          75          76          77          78          79          80
 IAtWgt=          12          12          12          12          12          16          12          12           1           1
 AtmWgt=  12.0000000  12.0000000  12.0000000  12.0000000  12.0000000  15.9949146  12.0000000  12.0000000   1.0078250   1.0078250
 NucSpn=           0           0           0           0           0           0           0           0           1           1
 AtZEff=  -0.0000000  -0.0000000  -0.0000000  -0.0000000  -0.0000000  -0.0000000  -0.0000000  -0.0000000  -0.0000000  -0.0000000
 NQMom=    0.0000000   0.0000000   0.0000000   0.0000000   0.0000000   0.0000000   0.0000000   0.0000000   0.0000000   0.0000000
 NMagM=    0.0000000   0.0000000   0.0000000   0.0000000   0.0000000   0.0000000   0.0000000   0.0000000   2.7928460   2.7928460
 AtZNuc=   6.0000000   6.0000000   6.0000000   6.0000000   6.0000000   8.0000000   6.0000000   6.0000000   1.0000000   1.0000000

  Atom        81          82          83          84          85          86          87          88          89          90
 IAtWgt=           1           1           1           1           1           1           1           1           1           1
 AtmWgt=   1.0078250   1.0078250   1.0078250   1.0078250   1.0078250   1.0078250   1.0078250   1.0078250   1.0078250   1.0078250
 NucSpn=           1           1           1           1           1           1           1           1           1           1
 AtZEff=  -0.0000000  -0.0000000  -0.0000000  -0.0000000  -0.0000000  -0.0000000  -0.0000000  -0.0000000  -0.0000000  -0.0000000
 NQMom=    0.0000000   0.0000000   0.0000000   0.0000000   0.0000000   0.0000000   0.0000000   0.0000000   0.0000000   0.0000000
 NMagM=    2.7928460   2.7928460   2.7928460   2.7928460   2.7928460   2.7928460   2.7928460   2.7928460   2.7928460   2.7928460
 AtZNuc=   1.0000000   1.0000000   1.0000000   1.0000000   1.0000000   1.0000000   1.0000000   1.0000000   1.0000000   1.0000000

  Atom        91          92          93          94          95          96          97          98          99         100
 IAtWgt=           1           1           1           1           1           1           1           1           1           1
 AtmWgt=   1.0078250   1.0078250   1.0078250   1.0078250   1.0078250   1.0078250   1.0078250   1.0078250   1.0078250   1.0078250
 NucSpn=           1           1           1           1           1           1           1           1           1           1
 AtZEff=  -0.0000000  -0.0000000  -0.0000000  -0.0000000  -0.0000000  -0.0000000  -0.0000000  -0.0000000  -0.0000000  -0.0000000
 NQMom=    0.0000000   0.0000000   0.0000000   0.0000000   0.0000000   0.0000000   0.0000000   0.0000000   0.0000000   0.0000000
 NMagM=    2.7928460   2.7928460   2.7928460   2.7928460   2.7928460   2.7928460   2.7928460   2.7928460   2.7928460   2.7928460
 AtZNuc=   1.0000000   1.0000000   1.0000000   1.0000000   1.0000000   1.0000000   1.0000000   1.0000000   1.0000000   1.0000000

  Atom       101         102         103         104         105         106         107         108         109         110
 IAtWgt=           1           1           1           1           1           1           1           1           1           1
 AtmWgt=   1.0078250   1.0078250   1.0078250   1.0078250   1.0078250   1.0078250   1.0078250   1.0078250   1.0078250   1.0078250
 NucSpn=           1           1           1           1           1           1           1           1           1           1
 AtZEff=  -0.0000000  -0.0000000  -0.0000000  -0.0000000  -0.0000000  -0.0000000  -0.0000000  -0.0000000  -0.0000000  -0.0000000
 NQMom=    0.0000000   0.0000000   0.0000000   0.0000000   0.0000000   0.0000000   0.0000000   0.0000000   0.0000000   0.0000000
 NMagM=    2.7928460   2.7928460   2.7928460   2.7928460   2.7928460   2.7928460   2.7928460   2.7928460   2.7928460   2.7928460
 AtZNuc=   1.0000000   1.0000000   1.0000000   1.0000000   1.0000000   1.0000000   1.0000000   1.0000000   1.0000000   1.0000000

  Atom       111         112         113         114         115         116         117         118         119         120
 IAtWgt=           1           1           1           1           1           1           1           1           1           1
 AtmWgt=   1.0078250   1.0078250   1.0078250   1.0078250   1.0078250   1.0078250   1.0078250   1.0078250   1.0078250   1.0078250
 NucSpn=           1           1           1           1           1           1           1           1           1           1
 AtZEff=  -0.0000000  -0.0000000  -0.0000000  -0.0000000  -0.0000000  -0.0000000  -0.0000000  -0.0000000  -0.0000000  -0.0000000
 NQMom=    0.0000000   0.0000000   0.0000000   0.0000000   0.0000000   0.0000000   0.0000000   0.0000000   0.0000000   0.0000000
 NMagM=    2.7928460   2.7928460   2.7928460   2.7928460   2.7928460   2.7928460   2.7928460   2.7928460   2.7928460   2.7928460
 AtZNuc=   1.0000000   1.0000000   1.0000000   1.0000000   1.0000000   1.0000000   1.0000000   1.0000000   1.0000000   1.0000000

  Atom       121         122         123         124         125         126         127         128         129         130
 IAtWgt=           1           1           1           1           1           1           1           1           1           1
 AtmWgt=   1.0078250   1.0078250   1.0078250   1.0078250   1.0078250   1.0078250   1.0078250   1.0078250   1.0078250   1.0078250
 NucSpn=           1           1           1           1           1           1           1           1           1           1
 AtZEff=  -0.0000000  -0.0000000  -0.0000000  -0.0000000  -0.0000000  -0.0000000  -0.0000000  -0.0000000  -0.0000000  -0.0000000
 NQMom=    0.0000000   0.0000000   0.0000000   0.0000000   0.0000000   0.0000000   0.0000000   0.0000000   0.0000000   0.0000000
 NMagM=    2.7928460   2.7928460   2.7928460   2.7928460   2.7928460   2.7928460   2.7928460   2.7928460   2.7928460   2.7928460
 AtZNuc=   1.0000000   1.0000000   1.0000000   1.0000000   1.0000000   1.0000000   1.0000000   1.0000000   1.0000000   1.0000000

  Atom       131         132         133         134         135         136         137         138         139
 IAtWgt=           1           1           1           1           1           1           1           1           1
 AtmWgt=   1.0078250   1.0078250   1.0078250   1.0078250   1.0078250   1.0078250   1.0078250   1.0078250   1.0078250
 NucSpn=           1           1           1           1           1           1           1           1           1
 AtZEff=  -0.0000000  -0.0000000  -0.0000000  -0.0000000  -0.0000000  -0.0000000  -0.0000000  -0.0000000  -0.0000000
 NQMom=    0.0000000   0.0000000   0.0000000   0.0000000   0.0000000   0.0000000   0.0000000   0.0000000   0.0000000
 NMagM=    2.7928460   2.7928460   2.7928460   2.7928460   2.7928460   2.7928460   2.7928460   2.7928460   2.7928460
 AtZNuc=   1.0000000   1.0000000   1.0000000   1.0000000   1.0000000   1.0000000   1.0000000   1.0000000   1.0000000
 Leave Link  101 at Thu Nov  6 21:52:46 2025, MaxMem= 30870077440 cpu:               4.9 elap:               0.1
 (Enter /public/software/gauss/g16/l202.exe)
 Stoichiometry    C66H61BF2N4O5
 Framework group  C1[X(C66H61BF2N4O5)]
 Deg. of freedom   411
 Full point group                 C1      NOp   1
 Largest Abelian subgroup         C1      NOp   1
 Largest concise Abelian subgroup C1      NOp   1
                         Standard orientation:                         
 ---------------------------------------------------------------------
 Center     Atomic      Atomic             Coordinates (Angstroms)
 Number     Number       Type             X           Y           Z
 ---------------------------------------------------------------------
      1          6           0        4.877556   -5.915220   -0.644648
      2          6           0        4.940383   -5.131359    0.677458
      3          6           0        5.013345   -3.639865    0.485802
      4          6           0        6.167267   -2.865430    0.420807
      5          6           0        7.563460   -3.392664    0.574687
      6          6           0        5.744199   -1.513321    0.191163
      7          6           0        6.487989   -0.324903    0.081416
      8          6           0        5.855939    0.923734   -0.055808
      9          6           0        6.401480    2.229700   -0.295040
     10          6           0        7.842135    2.633468   -0.407080
     11          6           0        5.321016    3.097751   -0.417896
     12          6           0        5.381209    4.585190   -0.641844
     13          6           0        5.341885    5.401786    0.661228
     14          6           0        4.123749    2.338377   -0.227857
     15          6           0        2.818913    2.944323   -0.272120
     16          6           0        1.609555    2.488773    0.157332
     17          6           0        0.359401    3.225086    0.066369
     18          6           0        0.205649    4.438880   -0.642470
     19          6           0       -0.998405    5.119910   -0.666719
     20          6           0       -2.129182    4.627959    0.025521
     21          6           0       -1.996710    3.405502    0.716602
     22          6           0       -0.785451    2.727984    0.726073
     23          7           0       -3.336034    5.341365    0.016275
     24          6           0       -3.341891    6.762577   -0.149415
     25          6           0       -4.181522    7.359481   -1.103645
     26          6           0       -4.215782    8.740154   -1.249507
     27          6           0       -3.397797    9.556429   -0.453960
     28          8           0       -3.499976   10.906545   -0.678321
     29          6           0       -2.689923   11.779416    0.113940
     30          6           0       -2.551246    8.971924    0.495337
     31          6           0       -2.538085    7.584143    0.648354
     32          6           0       -4.594865    4.691005    0.201799
     33          6           0       -4.941548    3.555564   -0.539275
     34          6           0       -6.185562    2.941764   -0.376759
     35          6           0       -7.113673    3.480917    0.521821
     36          8           0       -8.369817    2.974624    0.742903
     37          6           0       -8.767400    1.817554    0.001106
     38          6           0       -6.775416    4.621456    1.264926
     39          6           0       -5.528603    5.212902    1.112523
     40          7           0        4.462892    1.025570   -0.017029
     41          5           0        3.505700   -0.192916    0.041007
     42          9           0        2.699231   -0.179604   -1.111924
     43          9           0        2.688461   -0.132519    1.185834
     44          7           0        4.349212   -1.492987    0.107531
     45          6           0        3.891688   -2.776165    0.277521
     46          6           0        2.539834   -3.269385    0.272443
     47          6           0        1.374711   -2.676030   -0.107715
     48          6           0        0.060815   -3.295470   -0.066809
     49          6           0       -1.049970   -2.572837   -0.554064
     50          6           0       -2.330304   -3.106212   -0.564341
     51          6           0       -2.568445   -4.407606   -0.076196
     52          6           0       -1.467218   -5.137717    0.426478
     53          6           0       -0.194032   -4.594935    0.429202
     54          7           0       -3.856928   -4.961050   -0.082557
     55          6           0       -4.051151   -6.373471   -0.176596
     56          6           0       -3.393409   -7.125970   -1.164451
     57          6           0       -3.595043   -8.496597   -1.259106
     58          6           0       -4.476493   -9.145864   -0.381599
     59          8           0       -4.614544  -10.499456   -0.564112
     60          6           0       -5.496578  -11.205670    0.312518
     61          6           0       -5.147890   -8.404271    0.597031
     62          6           0       -4.923973   -7.029673    0.697921
     63          6           0       -5.011958   -4.124095    0.008168
     64          6           0       -6.066669   -4.267763   -0.898996
     65          6           0       -7.214430   -3.478407   -0.800356
     66          6           0       -7.307612   -2.516796    0.211827
     67          8           0       -8.384450   -1.687571    0.398908
     68          6           0       -9.477749   -1.789460   -0.518214
     69          6           0       -6.250852   -2.360885    1.121396
     70          6           0       -5.121233   -3.162462    1.026530
     71          6           0        7.981078   -0.389926    0.104424
     72          6           0        8.691268   -0.738511   -1.057861
     73          6           0       10.078772   -0.794820   -1.041978
     74          6           0       10.779689   -0.510852    0.141816
     75          6           0       12.249453   -0.566985    0.185757
     76          8           0       12.965241   -0.851383   -0.769886
     77          6           0       10.073421   -0.167139    1.303341
     78          6           0        8.682684   -0.102683    1.283894
     79          1           0        4.828072   -6.992728   -0.455008
     80          1           0        3.995993   -5.633103   -1.229489
     81          1           0        5.762982   -5.719302   -1.258480
     82          1           0        4.069807   -5.388493    1.290626
     83          1           0        5.812444   -5.464677    1.248524
     84          1           0        7.541364   -4.436128    0.895477
     85          1           0        8.122295   -3.350423   -0.365575
     86          1           0        8.138289   -2.828420    1.313448
     87          1           0        7.920224    3.672008   -0.735298
     88          1           0        8.364814    2.551514    0.551146
     89          1           0        8.389628    2.015117   -1.123094
     90          1           0        6.296309    4.830796   -1.189568
     91          1           0        4.555333    4.900405   -1.288936
     92          1           0        4.422153    5.205829    1.222029
     93          1           0        6.188540    5.148627    1.307956
     94          1           0        5.386932    6.475118    0.448227
     95          1           0        2.854084    3.952244   -0.674055
     96          1           0        1.545909    1.524988    0.648673
     97          1           0        1.038233    4.850003   -1.204579
     98          1           0       -1.077851    6.040275   -1.233669
     99          1           0       -2.842672    2.996424    1.256886
    100          1           0       -0.709672    1.795836    1.279836
    101          1           0       -4.810979    6.735624   -1.729931
    102          1           0       -4.864917    9.204072   -1.985309
    103          1           0       -2.928218   11.687478    1.179326
    104          1           0       -1.623121   11.582923   -0.039821
    105          1           0       -2.923743   12.790139   -0.222936
    106          1           0       -1.915351    9.579432    1.127454
    107          1           0       -1.891687    7.138596    1.397596
    108          1           0       -4.236374    3.143899   -1.254068
    109          1           0       -6.422380    2.063755   -0.965078
    110          1           0       -8.752904    2.010871   -1.077268
    111          1           0       -8.128644    0.958598    0.229050
    112          1           0       -9.789627    1.602936    0.315396
    113          1           0       -7.499437    5.027207    1.964350
    114          1           0       -5.275180    6.091111    1.697228
    115          1           0        2.484850   -4.302109    0.601978
    116          1           0        1.393079   -1.669698   -0.507202
    117          1           0       -0.893940   -1.571730   -0.947418
    118          1           0       -3.152040   -2.521393   -0.961744
    119          1           0       -1.623511   -6.132576    0.827833
    120          1           0        0.615334   -5.189564    0.840887
    121          1           0       -2.722174   -6.632564   -1.859755
    122          1           0       -3.087789   -9.079350   -2.021431
    123          1           0       -6.525420  -10.839644    0.223603
    124          1           0       -5.455689  -12.249481   -0.001292
    125          1           0       -5.170268  -11.126752    1.355429
    126          1           0       -5.832122   -8.880460    1.288569
    127          1           0       -5.439656   -6.462805    1.466318
    128          1           0       -5.995260   -5.006214   -1.691139
    129          1           0       -8.014864   -3.615066   -1.517119
    130          1           0       -9.162847   -1.558139   -1.541516
    131          1           0       -9.926139   -2.788652   -0.491377
    132          1           0      -10.213122   -1.054834   -0.188701
    133          1           0       -6.338688   -1.618106    1.907930
    134          1           0       -4.316095   -3.045174    1.744562
    135          1           0        8.146588   -0.959900   -1.970069
    136          1           0       10.631873   -1.058669   -1.937587
    137          1           0       12.696780   -0.328444    1.169590
    138          1           0       10.618471    0.050348    2.217867
    139          1           0        8.135793    0.166014    2.181775
 ---------------------------------------------------------------------
 Rotational constants (GHZ):           0.0189047           0.0147311           0.0084196
 Leave Link  202 at Thu Nov  6 21:52:46 2025, MaxMem= 30870077440 cpu:               0.2 elap:               0.0
 (Enter /public/software/gauss/g16/l301.exe)
 Standard basis: def2TZVPP (5D, 7F)
 Ernie: Thresh=  0.10000D-02 Tol=  0.10000D-05 Strict=F.
 There are  3723 symmetry adapted cartesian basis functions of A   symmetry.
 There are  3272 symmetry adapted basis functions of A   symmetry.
  3272 basis functions,  5015 primitive gaussians,  3723 cartesian basis functions
   274 alpha electrons      274 beta electrons
       nuclear repulsion energy     11560.8270800064 Hartrees.
 IExCor= 4336 DFT=T Ex+Corr=M062X ExCW=0 ScaHFX=  0.540000
 ScaDFX=  1.000000  1.000000  1.000000  1.000000 ScalE2=  1.000000  1.000000
 IRadAn=      5 IRanWt=     -1 IRanGd=            0 ICorTp=0 IEmpDi=131
 NAtoms=  139 NActive=  139 NUniq=  139 SFac= 1.00D+00 NAtFMM=   60 NAOKFM=T Big=T
 Integral buffers will be    131072 words long.
 Raffenetti 2 integral format.
 Two-electron integral symmetry is turned on.
 R6Disp:  Grimme-D3 Dispersion energy=       -0.0139791620 Hartrees.
 Nuclear repulsion after empirical dispersion term =    11560.8131008444 Hartrees.
 ------------------------------------------------------------------------------
 Polarizable Continuum Model (PCM)
 =================================
 Model                : PCM.
 Atomic radii         : UFF (Universal Force Field).
 Polarization charges : Total charges.
 Charge compensation  : None.
 Solution method      : On-the-fly selection.
 Cavity type          : Scaled VdW (van der Waals Surface) (Alpha=1.100).
 Cavity algorithm     : GePol (No added spheres)
                        Default sphere list used, NSphG=  139.
                        Lebedev-Laikov grids with approx.  5.0 points / Ang**2.
                        Smoothing algorithm: York/Karplus (Gamma=1.0000).
                        Polarization charges: spherical gaussians, with
                                              point-specific exponents (IZeta= 3).
                        Self-potential: point-specific (ISelfS= 7).
                        Self-field    : sphere-specific E.n sum rule (ISelfD= 2).
 Solvent              : Water, Eps=  78.355300 Eps(inf)=   1.777849
 ------------------------------------------------------------------------------
 GePol: Number of generator spheres                  =     139
 GePol: Total number of spheres                      =     139
 GePol: Number of exposed spheres                    =     139 (100.00%)
 GePol: Number of points                             =    9474
 GePol: Average weight of points                     =       0.13
 GePol: Minimum weight of points                     =   0.21D-11
 GePol: Maximum weight of points                     =    0.20577
 GePol: Number of points with low weight             =     699
 GePol: Fraction of low-weight points (<1% of avg)   =       7.38%
 GePol: Cavity surface area                          =   1195.103 Ang**2
 GePol: Cavity volume                                =   1414.846 Ang**3
 Leave Link  301 at Thu Nov  6 21:52:47 2025, MaxMem= 30870077440 cpu:               6.4 elap:               0.1
 (Enter /public/software/gauss/g16/l302.exe)
 NPDir=0 NMtPBC=     1 NCelOv=     1 NCel=       1 NClECP=     1 NCelD=      1
         NCelK=      1 NCelE2=     1 NClLst=     1 CellRange=     0.0.
 One-electron integrals computed using PRISM.
 One-electron integral symmetry used in STVInt
   1 Symmetry operations used in ECPInt.
 ECPInt:  NShTT=  749700 NPrTT= 2100075 LenC2=  349103 LenP2D=  636246.
 LDataN:  DoStor=T MaxTD1= 6 Len=  172
 Number of processors reduced to  50 by ecpmxn.
 NBasis=  3272 RedAO= T EigKep=  3.26D-06  NBF=  3272
 NBsUse=  3272 1.00D-06 EigRej= -1.00D+00 NBFU=  3272
 Precomputing XC quadrature grid using
 IXCGrd= 4 IRadAn=           5 IRanWt=          -1 IRanGd=           0 AccXCQ= 0.00D+00.
 Generated NRdTot=       0 NPtTot=           0 NUsed=           0 NTot=          32
 NSgBfM=  3022  3022  3022  3022  3022 MxSgAt=   139 MxSgA2=   139.
 Leave Link  302 at Thu Nov  6 21:53:31 2025, MaxMem= 30870077440 cpu:            2808.6 elap:              44.0
 (Enter /public/software/gauss/g16/l303.exe)
 DipDrv:  MaxL=1.
 Leave Link  303 at Thu Nov  6 21:53:32 2025, MaxMem= 30870077440 cpu:              76.2 elap:               1.3
 (Enter /public/software/gauss/g16/l401.exe)
 ExpMin= 6.06D-02 ExpMax= 3.55D+04 ExpMxC= 1.21D+03 IAcc=3 IRadAn=         5 AccDes= 0.00D+00
 Harris functional with IExCor= 1009 and IRadAn=       5 diagonalized for initial guess.
 HarFok:  IExCor= 1009 AccDes= 0.00D+00 IRadAn=         5 IDoV= 1 UseB2=F ITyADJ=14
 ICtDFT=  3500011 ScaDFX=  1.000000  1.000000  1.000000  1.000000
 FoFCou: FMM=F IPFlag=           0 FMFlag=      100000 FMFlg1=        2001
         NFxFlg=           0 DoJE=T BraDBF=F KetDBF=T FulRan=T
         wScrn=  0.000000 ICntrl=       500 IOpCl=  0 I1Cent=   200000004 NGrid=           0
         NMat0=    1 NMatS0=      1 NMatT0=    0 NMatD0=    1 NMtDS0=    0 NMtDT0=    0
 Petite list used in FoFCou.
 Harris En= -3369.85667141739    
 JPrj=0 DoOrth=F DoCkMO=F.
 Leave Link  401 at Thu Nov  6 21:54:05 2025, MaxMem= 30870077440 cpu:            2095.1 elap:              32.9
 (Enter /public/software/gauss/g16/l502.exe)
 Integral symmetry usage will be decided dynamically.
 Closed shell SCF:
 Using DIIS extrapolation, IDIIS=  1040.
 NGot= 30870077440 LenX= 30842086395 LenY= 30828221943
 Requested convergence on RMS density matrix=1.00D-08 within 128 cycles.
 Requested convergence on MAX density matrix=1.00D-06.
 Requested convergence on             energy=1.00D-06.
 No special actions if energy rises.
 Fock matrices will be formed incrementally for  20 cycles.

 Cycle   1  Pass 1  IDiag  1:
 FoFJK:  IHMeth= 1 ICntrl=       0 DoSepK=F KAlg= 0 I1Cent=           0 FoldK=F
 IRaf= 410000000 NMat=       1 IRICut=       1 DoRegI=T DoRafI=F ISym2E= 0 IDoP0=0 IntGTp=1.
 FoFCou: FMM=T IPFlag=           0 FMFlag=      100000 FMFlg1=        2001
         NFxFlg=           0 DoJE=F BraDBF=F KetDBF=F FulRan=T
         wScrn=  0.000000 ICntrl=         0 IOpCl=  0 I1Cent=           0 NGrid=           0
         NMat0=    1 NMatS0=      1 NMatT0=    0 NMatD0=    1 NMtDS0=    0 NMtDT0=    0
 Symmetry not used in FoFCou.
 FMM levels:  10  Number of levels for PrismC:   9
 Inv3:  Mode=1 IEnd=   269270028.
 Iteration    1 A*A^-1 deviation from unit magnitude is 1.93D-14 for   3531.
 Iteration    1 A*A^-1 deviation from orthogonality  is 7.20D-15 for   6241   1629.
 Iteration    1 A^-1*A deviation from unit magnitude is 1.93D-14 for   3232.
 Iteration    1 A^-1*A deviation from orthogonality  is 2.47D-14 for   8823   8809.
 E= -3369.75070769586    
 DIIS: error= 1.47D-02 at cycle   1 NSaved=   1.
 NSaved= 1 IEnMin= 1 EnMin= -3369.75070769586     IErMin= 1 ErrMin= 1.47D-02
 ErrMax= 1.47D-02  0.00D+00 EMaxC= 1.00D-01 BMatC= 2.20D+00 BMatP= 2.20D+00
 IDIUse=3 WtCom= 8.53D-01 WtEn= 1.47D-01
 Coeff-Com:  0.100D+01
 Coeff-En:   0.100D+01
 Coeff:      0.100D+01
 Gap=     0.120 Goal=   None    Shift=    0.000
 GapD=    0.120 DampG=1.000 DampE=0.500 DampFc=0.5000 IDamp=-1.
 Damping current iteration by 5.00D-01
 RMSDP=1.20D-03 MaxDP=4.92D-01              OVMax= 1.76D-01

 Cycle   2  Pass 1  IDiag  1:
 RMSU=  6.00D-04    CP:  9.94D-01
 E= -3370.65899164822     Delta-E=       -0.908283952358 Rises=F Damp=T
 DIIS: error= 5.36D-03 at cycle   2 NSaved=   2.
 NSaved= 2 IEnMin= 2 EnMin= -3370.65899164822     IErMin= 2 ErrMin= 5.36D-03
 ErrMax= 5.36D-03  0.00D+00 EMaxC= 1.00D-01 BMatC= 2.18D-01 BMatP= 2.20D+00
 IDIUse=3 WtCom= 9.46D-01 WtEn= 5.36D-02
 Coeff-Com: -0.169D+00 0.117D+01
 Coeff-En:   0.000D+00 0.100D+01
 Coeff:     -0.160D+00 0.116D+01
 Gap=     0.122 Goal=   None    Shift=    0.000
 RMSDP=4.83D-04 MaxDP=1.24D-01 DE=-9.08D-01 OVMax= 1.27D-01

 Cycle   3  Pass 1  IDiag  1:
 RMSU=  4.61D-04    CP:  9.82D-01  1.23D+00
 E= -3371.42764823224     Delta-E=       -0.768656584025 Rises=F Damp=F
 DIIS: error= 2.77D-03 at cycle   3 NSaved=   3.
 NSaved= 3 IEnMin= 3 EnMin= -3371.42764823224     IErMin= 3 ErrMin= 2.77D-03
 ErrMax= 2.77D-03  0.00D+00 EMaxC= 1.00D-01 BMatC= 1.02D-01 BMatP= 2.18D-01
 IDIUse=3 WtCom= 9.72D-01 WtEn= 2.77D-02
 Coeff-Com: -0.141D+00 0.523D+00 0.618D+00
 Coeff-En:   0.000D+00 0.000D+00 0.100D+01
 Coeff:     -0.137D+00 0.508D+00 0.629D+00
 Gap=     0.120 Goal=   None    Shift=    0.000
 RMSDP=1.52D-04 MaxDP=6.22D-02 DE=-7.69D-01 OVMax= 7.07D-02

 Cycle   4  Pass 1  IDiag  1:
 RMSU=  1.37D-04    CP:  9.85D-01  1.31D+00  8.95D-01
 E= -3371.50220207068     Delta-E=       -0.074553838434 Rises=F Damp=F
 DIIS: error= 1.31D-03 at cycle   4 NSaved=   4.
 NSaved= 4 IEnMin= 4 EnMin= -3371.50220207068     IErMin= 4 ErrMin= 1.31D-03
 ErrMax= 1.31D-03  0.00D+00 EMaxC= 1.00D-01 BMatC= 1.87D-02 BMatP= 1.02D-01
 IDIUse=3 WtCom= 9.87D-01 WtEn= 1.31D-02
 Coeff-Com: -0.491D-01 0.125D+00 0.340D+00 0.584D+00
 Coeff-En:   0.000D+00 0.000D+00 0.142D+00 0.858D+00
 Coeff:     -0.485D-01 0.123D+00 0.337D+00 0.588D+00
 Gap=     0.118 Goal=   None    Shift=    0.000
 RMSDP=5.75D-05 MaxDP=2.69D-02 DE=-7.46D-02 OVMax= 2.30D-02

 Cycle   5  Pass 1  IDiag  1:
 RMSU=  3.73D-05    CP:  9.83D-01  1.29D+00  9.22D-01  7.09D-01
 E= -3371.51893522952     Delta-E=       -0.016733158849 Rises=F Damp=F
 DIIS: error= 2.46D-04 at cycle   5 NSaved=   5.
 NSaved= 5 IEnMin= 5 EnMin= -3371.51893522952     IErMin= 5 ErrMin= 2.46D-04
 ErrMax= 2.46D-04  0.00D+00 EMaxC= 1.00D-01 BMatC= 6.20D-04 BMatP= 1.87D-02
 IDIUse=3 WtCom= 9.98D-01 WtEn= 2.46D-03
 Coeff-Com: -0.133D-01 0.266D-01 0.116D+00 0.249D+00 0.622D+00
 Coeff-En:   0.000D+00 0.000D+00 0.000D+00 0.000D+00 0.100D+01
 Coeff:     -0.132D-01 0.266D-01 0.115D+00 0.249D+00 0.623D+00
 Gap=     0.119 Goal=   None    Shift=    0.000
 RMSDP=1.84D-05 MaxDP=1.22D-02 DE=-1.67D-02 OVMax= 9.17D-03

 Cycle   6  Pass 1  IDiag  1:
 RMSU=  1.69D-05    CP:  9.84D-01  1.30D+00  9.23D-01  7.20D-01  9.78D-01
 E= -3371.51954263291     Delta-E=       -0.000607403386 Rises=F Damp=F
 DIIS: error= 9.81D-05 at cycle   6 NSaved=   6.
 NSaved= 6 IEnMin= 6 EnMin= -3371.51954263291     IErMin= 6 ErrMin= 9.81D-05
 ErrMax= 9.81D-05  0.00D+00 EMaxC= 1.00D-01 BMatC= 6.77D-05 BMatP= 6.20D-04
 IDIUse=1 WtCom= 1.00D+00 WtEn= 0.00D+00
 Coeff-Com: -0.817D-03-0.210D-03 0.171D-01 0.427D-01 0.267D+00 0.674D+00
 Coeff:     -0.817D-03-0.210D-03 0.171D-01 0.427D-01 0.267D+00 0.674D+00
 Gap=     0.120 Goal=   None    Shift=    0.000
 RMSDP=5.43D-06 MaxDP=9.43D-04 DE=-6.07D-04 OVMax= 4.08D-03

 Cycle   7  Pass 1  IDiag  1:
 RMSU=  4.23D-06    CP:  9.84D-01  1.30D+00  9.25D-01  7.21D-01  1.06D+00
                    CP:  9.86D-01
 E= -3371.51963118863     Delta-E=       -0.000088555720 Rises=F Damp=F
 DIIS: error= 4.08D-05 at cycle   7 NSaved=   7.
 NSaved= 7 IEnMin= 7 EnMin= -3371.51963118863     IErMin= 7 ErrMin= 4.08D-05
 ErrMax= 4.08D-05  0.00D+00 EMaxC= 1.00D-01 BMatC= 9.91D-06 BMatP= 6.77D-05
 IDIUse=1 WtCom= 1.00D+00 WtEn= 0.00D+00
 Coeff-Com:  0.164D-02-0.407D-02-0.935D-02-0.210D-01 0.253D-01 0.284D+00
 Coeff-Com:  0.724D+00
 Coeff:      0.164D-02-0.407D-02-0.935D-02-0.210D-01 0.253D-01 0.284D+00
 Coeff:      0.724D+00
 Gap=     0.120 Goal=   None    Shift=    0.000
 RMSDP=4.36D-06 MaxDP=3.14D-03 DE=-8.86D-05 OVMax= 2.78D-03

 Cycle   8  Pass 1  IDiag  1:
 RMSU=  2.28D-06    CP:  9.84D-01  1.30D+00  9.27D-01  7.26D-01  1.10D+00
                    CP:  1.17D+00  1.17D+00
 E= -3371.51964771779     Delta-E=       -0.000016529164 Rises=F Damp=F
 DIIS: error= 1.42D-05 at cycle   8 NSaved=   8.
 NSaved= 8 IEnMin= 8 EnMin= -3371.51964771779     IErMin= 8 ErrMin= 1.42D-05
 ErrMax= 1.42D-05  0.00D+00 EMaxC= 1.00D-01 BMatC= 2.22D-06 BMatP= 9.91D-06
 IDIUse=1 WtCom= 1.00D+00 WtEn= 0.00D+00
 Coeff-Com:  0.107D-02-0.221D-02-0.846D-02-0.212D-01-0.428D-01 0.808D-02
 Coeff-Com:  0.357D+00 0.708D+00
 Coeff:      0.107D-02-0.221D-02-0.846D-02-0.212D-01-0.428D-01 0.808D-02
 Coeff:      0.357D+00 0.708D+00
 Gap=     0.120 Goal=   None    Shift=    0.000
 RMSDP=1.51D-06 MaxDP=3.57D-04 DE=-1.65D-05 OVMax= 1.72D-03

 Cycle   9  Pass 1  IDiag  1:
 RMSU=  9.48D-07    CP:  9.84D-01  1.30D+00  9.27D-01  7.26D-01  1.12D+00
                    CP:  1.21D+00  1.30D+00  1.05D+00
 E= -3371.51965238111     Delta-E=       -0.000004663316 Rises=F Damp=F
 DIIS: error= 8.26D-06 at cycle   9 NSaved=   9.
 NSaved= 9 IEnMin= 9 EnMin= -3371.51965238111     IErMin= 9 ErrMin= 8.26D-06
 ErrMax= 8.26D-06  0.00D+00 EMaxC= 1.00D-01 BMatC= 2.87D-07 BMatP= 2.22D-06
 IDIUse=1 WtCom= 1.00D+00 WtEn= 0.00D+00
 Coeff-Com:  0.121D-03-0.150D-03-0.138D-02-0.441D-02-0.176D-01-0.344D-01
 Coeff-Com:  0.149D-01 0.264D+00 0.778D+00
 Coeff:      0.121D-03-0.150D-03-0.138D-02-0.441D-02-0.176D-01-0.344D-01
 Coeff:      0.149D-01 0.264D+00 0.778D+00
 Gap=     0.120 Goal=   None    Shift=    0.000
 RMSDP=8.49D-07 MaxDP=6.56D-04 DE=-4.66D-06 OVMax= 6.99D-04

 Cycle  10  Pass 1  IDiag  1:
 RMSU=  4.13D-07    CP:  9.84D-01  1.30D+00  9.27D-01  7.27D-01  1.12D+00
                    CP:  1.24D+00  1.35D+00  1.24D+00  1.05D+00
 E= -3371.51965309344     Delta-E=       -0.000000712329 Rises=F Damp=F
 DIIS: error= 2.54D-06 at cycle  10 NSaved=  10.
 NSaved=10 IEnMin=10 EnMin= -3371.51965309344     IErMin=10 ErrMin= 2.54D-06
 ErrMax= 2.54D-06  0.00D+00 EMaxC= 1.00D-01 BMatC= 7.07D-08 BMatP= 2.87D-07
 IDIUse=1 WtCom= 1.00D+00 WtEn= 0.00D+00
 Coeff-Com: -0.177D-03 0.412D-03 0.116D-02 0.243D-02 0.505D-03-0.180D-01
 Coeff-Com: -0.743D-01-0.302D-01 0.368D+00 0.750D+00
 Coeff:     -0.177D-03 0.412D-03 0.116D-02 0.243D-02 0.505D-03-0.180D-01
 Coeff:     -0.743D-01-0.302D-01 0.368D+00 0.750D+00
 Gap=     0.120 Goal=   None    Shift=    0.000
 RMSDP=3.10D-07 MaxDP=6.28D-05 DE=-7.12D-07 OVMax= 3.76D-04

 Cycle  11  Pass 1  IDiag  1:
 RMSU=  1.51D-07    CP:  9.84D-01  1.30D+00  9.28D-01  7.27D-01  1.12D+00
                    CP:  1.24D+00  1.37D+00  1.29D+00  1.25D+00  1.06D+00
 E= -3371.51965325728     Delta-E=       -0.000000163840 Rises=F Damp=F
 DIIS: error= 9.53D-07 at cycle  11 NSaved=  11.
 NSaved=11 IEnMin=11 EnMin= -3371.51965325728     IErMin=11 ErrMin= 9.53D-07
 ErrMax= 9.53D-07  0.00D+00 EMaxC= 1.00D-01 BMatC= 1.03D-08 BMatP= 7.07D-08
 IDIUse=1 WtCom= 1.00D+00 WtEn= 0.00D+00
 Coeff-Com: -0.886D-04 0.191D-03 0.666D-03 0.166D-02 0.234D-02-0.344D-02
 Coeff-Com: -0.349D-01-0.492D-01 0.500D-01 0.332D+00 0.701D+00
 Coeff:     -0.886D-04 0.191D-03 0.666D-03 0.166D-02 0.234D-02-0.344D-02
 Coeff:     -0.349D-01-0.492D-01 0.500D-01 0.332D+00 0.701D+00
 Gap=     0.120 Goal=   None    Shift=    0.000
 RMSDP=1.16D-07 MaxDP=4.48D-05 DE=-1.64D-07 OVMax= 8.86D-05

 Cycle  12  Pass 1  IDiag  1:
 RMSU=  6.49D-08    CP:  9.84D-01  1.30D+00  9.28D-01  7.27D-01  1.12D+00
                    CP:  1.25D+00  1.38D+00  1.31D+00  1.29D+00  1.20D+00
                    CP:  1.01D+00
 E= -3371.51965327220     Delta-E=       -0.000000014921 Rises=F Damp=F
 DIIS: error= 3.53D-07 at cycle  12 NSaved=  12.
 NSaved=12 IEnMin=12 EnMin= -3371.51965327220     IErMin=12 ErrMin= 3.53D-07
 ErrMax= 3.53D-07  0.00D+00 EMaxC= 1.00D-01 BMatC= 1.76D-09 BMatP= 1.03D-08
 IDIUse=1 WtCom= 1.00D+00 WtEn= 0.00D+00
 Coeff-Com: -0.111D-04 0.192D-04 0.122D-03 0.404D-03 0.107D-02 0.181D-02
 Coeff-Com: -0.320D-02-0.174D-01-0.403D-01 0.412D-01 0.329D+00 0.687D+00
 Coeff:     -0.111D-04 0.192D-04 0.122D-03 0.404D-03 0.107D-02 0.181D-02
 Coeff:     -0.320D-02-0.174D-01-0.403D-01 0.412D-01 0.329D+00 0.687D+00
 Gap=     0.120 Goal=   None    Shift=    0.000
 RMSDP=3.55D-08 MaxDP=1.71D-05 DE=-1.49D-08 OVMax= 2.81D-05

 Cycle  13  Pass 1  IDiag  1:
 RMSU=  2.16D-08    CP:  9.84D-01  1.30D+00  9.28D-01  7.27D-01  1.12D+00
                    CP:  1.25D+00  1.38D+00  1.31D+00  1.30D+00  1.22D+00
                    CP:  1.13D+00  1.14D+00
 E= -3371.51965327680     Delta-E=       -0.000000004595 Rises=F Damp=F
 DIIS: error= 1.37D-07 at cycle  13 NSaved=  13.
 NSaved=13 IEnMin=13 EnMin= -3371.51965327680     IErMin=13 ErrMin= 1.37D-07
 ErrMax= 1.37D-07  0.00D+00 EMaxC= 1.00D-01 BMatC= 2.68D-10 BMatP= 1.76D-09
 IDIUse=1 WtCom= 1.00D+00 WtEn= 0.00D+00
 Coeff-Com:  0.927D-05-0.216D-04-0.562D-04-0.898D-04 0.227D-04 0.122D-02
 Coeff-Com:  0.387D-02 0.204D-03-0.252D-01-0.307D-01 0.145D-01 0.291D+00
 Coeff-Com:  0.746D+00
 Coeff:      0.927D-05-0.216D-04-0.562D-04-0.898D-04 0.227D-04 0.122D-02
 Coeff:      0.387D-02 0.204D-03-0.252D-01-0.307D-01 0.145D-01 0.291D+00
 Coeff:      0.746D+00
 Gap=     0.120 Goal=   None    Shift=    0.000
 RMSDP=1.54D-08 MaxDP=3.11D-06 DE=-4.59D-09 OVMax= 1.00D-05

 Cycle  14  Pass 1  IDiag  1:
 RMSU=  8.44D-09    CP:  9.84D-01  1.30D+00  9.28D-01  7.27D-01  1.12D+00
                    CP:  1.25D+00  1.38D+00  1.31D+00  1.30D+00  1.24D+00
                    CP:  1.17D+00  1.27D+00  1.10D+00
 E= -3371.51965327629     Delta-E=        0.000000000507 Rises=F Damp=F
 DIIS: error= 5.33D-08 at cycle  14 NSaved=  14.
 NSaved=14 IEnMin=13 EnMin= -3371.51965327680     IErMin=14 ErrMin= 5.33D-08
 ErrMax= 5.33D-08  0.00D+00 EMaxC= 1.00D-01 BMatC= 3.33D-11 BMatP= 2.68D-10
 IDIUse=1 WtCom= 1.00D+00 WtEn= 0.00D+00
 Coeff-Com:  0.453D-05-0.992D-05-0.348D-04-0.784D-04-0.115D-03 0.263D-03
 Coeff-Com:  0.189D-02 0.233D-02-0.436D-02-0.158D-01-0.441D-01 0.218D-01
 Coeff-Com:  0.299D+00 0.739D+00
 Coeff:      0.453D-05-0.992D-05-0.348D-04-0.784D-04-0.115D-03 0.263D-03
 Coeff:      0.189D-02 0.233D-02-0.436D-02-0.158D-01-0.441D-01 0.218D-01
 Coeff:      0.299D+00 0.739D+00
 Gap=     0.120 Goal=   None    Shift=    0.000
 RMSDP=6.85D-09 MaxDP=4.22D-06 DE= 5.07D-10 OVMax= 3.65D-06

 Cycle  15  Pass 1  IDiag  1:
 RMSU=  3.06D-09    CP:  9.84D-01  1.30D+00  9.28D-01  7.27D-01  1.12D+00
                    CP:  1.25D+00  1.38D+00  1.31D+00  1.30D+00  1.24D+00
                    CP:  1.18D+00  1.32D+00  1.21D+00  1.09D+00
 E= -3371.51965327615     Delta-E=        0.000000000138 Rises=F Damp=F
 DIIS: error= 2.35D-08 at cycle  15 NSaved=  15.
 NSaved=15 IEnMin=13 EnMin= -3371.51965327680     IErMin=15 ErrMin= 2.35D-08
 ErrMax= 2.35D-08  0.00D+00 EMaxC= 1.00D-01 BMatC= 4.72D-12 BMatP= 3.33D-11
 IDIUse=1 WtCom= 1.00D+00 WtEn= 0.00D+00
 Coeff-Com:  0.451D-06-0.899D-06-0.658D-05-0.186D-04-0.523D-04-0.574D-04
 Coeff-Com:  0.243D-03 0.887D-03 0.158D-02-0.196D-02-0.209D-01-0.298D-01
 Coeff-Com:  0.180D-01 0.297D+00 0.735D+00
 Coeff:      0.451D-06-0.899D-06-0.658D-05-0.186D-04-0.523D-04-0.574D-04
 Coeff:      0.243D-03 0.887D-03 0.158D-02-0.196D-02-0.209D-01-0.298D-01
 Coeff:      0.180D-01 0.297D+00 0.735D+00
 Gap=     0.120 Goal=   None    Shift=    0.000
 RMSDP=2.29D-09 MaxDP=1.07D-06 DE= 1.38D-10 OVMax= 1.27D-06

 Cycle  16  Pass 1  IDiag  1:
 RMSU=  1.29D-09    CP:  9.84D-01  1.30D+00  9.28D-01  7.27D-01  1.12D+00
                    CP:  1.25D+00  1.38D+00  1.31D+00  1.30D+00  1.24D+00
                    CP:  1.18D+00  1.34D+00  1.23D+00  1.20D+00  1.21D+00
 E= -3371.51965327780     Delta-E=       -0.000000001650 Rises=F Damp=F
 DIIS: error= 8.29D-09 at cycle  16 NSaved=  16.
 NSaved=16 IEnMin=16 EnMin= -3371.51965327780     IErMin=16 ErrMin= 8.29D-09
 ErrMax= 8.29D-09  0.00D+00 EMaxC= 1.00D-01 BMatC= 6.58D-13 BMatP= 4.72D-12
 IDIUse=1 WtCom= 1.00D+00 WtEn= 0.00D+00
 Coeff-Com: -0.391D-06 0.884D-06 0.165D-05 0.256D-05-0.799D-05-0.586D-04
 Coeff-Com: -0.153D-03 0.454D-04 0.124D-02 0.141D-02-0.235D-02-0.151D-01
 Coeff-Com: -0.358D-01 0.193D-01 0.306D+00 0.726D+00
 Coeff:     -0.391D-06 0.884D-06 0.165D-05 0.256D-05-0.799D-05-0.586D-04
 Coeff:     -0.153D-03 0.454D-04 0.124D-02 0.141D-02-0.235D-02-0.151D-01
 Coeff:     -0.358D-01 0.193D-01 0.306D+00 0.726D+00
 Gap=     0.120 Goal=   None    Shift=    0.000
 RMSDP=9.35D-10 MaxDP=5.83D-07 DE=-1.65D-09 OVMax= 5.89D-07

 Error on total polarization charges =  0.03082
 SCF Done:  E(RM062X) =  -3371.51965328     A.U. after   16 cycles
            NFock= 16  Conv=0.94D-09     -V/T= 2.0056
 KE= 3.352861602748D+03 PE=-3.097348706128D+04 EE= 1.268829270441D+04
 Leave Link  502 at Thu Nov  6 22:44:29 2025, MaxMem= 30870077440 cpu:          189788.1 elap:            3023.6
 (Enter /public/software/gauss/g16/l601.exe)
 Copying SCF densities to generalized density rwf, IOpCl= 0 IROHF=0.
 Hyperfine terms turned off by default for NAtoms > 100.

 **********************************************************************

            Population analysis using the SCF density.

 **********************************************************************

 Orbital symmetries:
       Occupied  (A) (A) (A) (A) (A) (A) (A) (A) (A) (A) (A) (A)
                 (A) (A) (A) (A) (A) (A) (A) (A) (A) (A) (A) (A)
                 (A) (A) (A) (A) (A) (A) (A) (A) (A) (A) (A) (A)
                 (A) (A) (A) (A) (A) (A) (A) (A) (A) (A) (A) (A)
                 (A) (A) (A) (A) (A) (A) (A) (A) (A) (A) (A) (A)
                 (A) (A) (A) (A) (A) (A) (A) (A) (A) (A) (A) (A)
                 (A) (A) (A) (A) (A) (A) (A) (A) (A) (A) (A) (A)
                 (A) (A) (A) (A) (A) (A) (A) (A) (A) (A) (A) (A)
                 (A) (A) (A) (A) (A) (A) (A) (A) (A) (A) (A) (A)
                 (A) (A) (A) (A) (A) (A) (A) (A) (A) (A) (A) (A)
                 (A) (A) (A) (A) (A) (A) (A) (A) (A) (A) (A) (A)
                 (A) (A) (A) (A) (A) (A) (A) (A) (A) (A) (A) (A)
                 (A) (A) (A) (A) (A) (A) (A) (A) (A) (A) (A) (A)
                 (A) (A) (A) (A) (A) (A) (A) (A) (A) (A) (A) (A)
                 (A) (A) (A) (A) (A) (A) (A) (A) (A) (A) (A) (A)
                 (A) (A) (A) (A) (A) (A) (A) (A) (A) (A) (A) (A)
                 (A) (A) (A) (A) (A) (A) (A) (A) (A) (A) (A) (A)
                 (A) (A) (A) (A) (A) (A) (A) (A) (A) (A) (A) (A)
                 (A) (A) (A) (A) (A) (A) (A) (A) (A) (A) (A) (A)
                 (A) (A) (A) (A) (A) (A) (A) (A) (A) (A) (A) (A)
                 (A) (A) (A) (A) (A) (A) (A) (A) (A) (A) (A) (A)
                 (A) (A) (A) (A) (A) (A) (A) (A) (A) (A) (A) (A)
                 (A) (A) (A) (A) (A) (A) (A) (A) (A) (A)
       Virtual   (A) (A) (A) (A) (A) (A) (A) (A) (A) (A) (A) (A)
                 (A) (A) (A) (A) (A) (A) (A) (A) (A) (A) (A) (A)
                 (A) (A) (A) (A) (A) (A) (A) (A) (A) (A) (A) (A)
                 (A) (A) (A) (A) (A) (A) (A) (A) (A) (A) (A) (A)
                 (A) (A) (A) (A) (A) (A) (A) (A) (A) (A) (A) (A)
                 (A) (A) (A) (A) (A) (A) (A) (A) (A) (A) (A) (A)
                 (A) (A) (A) (A) (A) (A) (A) (A) (A) (A) (A) (A)
                 (A) (A) (A) (A) (A) (A) (A) (A) (A) (A) (A) (A)
                 (A) (A) (A) (A) (A) (A) (A) (A) (A) (A) (A) (A)
                 (A) (A) (A) (A) (A) (A) (A) (A) (A) (A) (A) (A)
                 (A) (A) (A) (A) (A) (A) (A) (A) (A) (A) (A) (A)
                 (A) (A) (A) (A) (A) (A) (A) (A) (A) (A) (A) (A)
                 (A) (A) (A) (A) (A) (A) (A) (A) (A) (A) (A) (A)
                 (A) (A) (A) (A) (A) (A) (A) (A) (A) (A) (A) (A)
                 (A) (A) (A) (A) (A) (A) (A) (A) (A) (A) (A) (A)
                 (A) (A) (A) (A) (A) (A) (A) (A) (A) (A) (A) (A)
                 (A) (A) (A) (A) (A) (A) (A) (A) (A) (A) (A) (A)
                 (A) (A) (A) (A) (A) (A) (A) (A) (A) (A) (A) (A)
                 (A) (A) (A) (A) (A) (A) (A) (A) (A) (A) (A) (A)
                 (A) (A) (A) (A) (A) (A) (A) (A) (A) (A) (A) (A)
                 (A) (A) (A) (A) (A) (A) (A) (A) (A) (A) (A) (A)
                 (A) (A) (A) (A) (A) (A) (A) (A) (A) (A) (A) (A)
                 (A) (A) (A) (A) (A) (A) (A) (A) (A) (A) (A) (A)
                 (A) (A) (A) (A) (A) (A) (A) (A) (A) (A) (A) (A)
                 (A) (A) (A) (A) (A) (A) (A) (A) (A) (A) (A) (A)
                 (A) (A) (A) (A) (A) (A) (A) (A) (A) (A) (A) (A)
                 (A) (A) (A) (A) (A) (A) (A) (A) (A) (A) (A) (A)
                 (A) (A) (A) (A) (A) (A) (A) (A) (A) (A) (A) (A)
                 (A) (A) (A) (A) (A) (A) (A) (A) (A) (A) (A) (A)
                 (A) (A) (A) (A) (A) (A) (A) (A) (A) (A) (A) (A)
                 (A) (A) (A) (A) (A) (A) (A) (A) (A) (A) (A) (A)
                 (A) (A) (A) (A) (A) (A) (A) (A) (A) (A) (A) (A)
                 (A) (A) (A) (A) (A) (A) (A) (A) (A) (A) (A) (A)
                 (A) (A) (A) (A) (A) (A) (A) (A) (A) (A) (A) (A)
                 (A) (A) (A) (A) (A) (A) (A) (A) (A) (A) (A) (A)
                 (A) (A) (A) (A) (A) (A) (A) (A) (A) (A) (A) (A)
                 (A) (A) (A) (A) (A) (A) (A) (A) (A) (A) (A) (A)
                 (A) (A) (A) (A) (A) (A) (A) (A) (A) (A) (A) (A)
                 (A) (A) (A) (A) (A) (A) (A) (A) (A) (A) (A) (A)
                 (A) (A) (A) (A) (A) (A) (A) (A) (A) (A) (A) (A)
                 (A) (A) (A) (A) (A) (A) (A) (A) (A) (A) (A) (A)
                 (A) (A) (A) (A) (A) (A) (A) (A) (A) (A) (A) (A)
                 (A) (A) (A) (A) (A) (A) (A) (A) (A) (A) (A) (A)
                 (A) (A) (A) (A) (A) (A) (A) (A) (A) (A) (A) (A)
                 (A) (A) (A) (A) (A) (A) (A) (A) (A) (A) (A) (A)
                 (A) (A) (A) (A) (A) (A) (A) (A) (A) (A) (A) (A)
                 (A) (A) (A) (A) (A) (A) (A) (A) (A) (A) (A) (A)
                 (A) (A) (A) (A) (A) (A) (A) (A) (A) (A) (A) (A)
                 (A) (A) (A) (A) (A) (A) (A) (A) (A) (A) (A) (A)
                 (A) (A) (A) (A) (A) (A) (A) (A) (A) (A) (A) (A)
                 (A) (A) (A) (A) (A) (A) (A) (A) (A) (A) (A) (A)
                 (A) (A) (A) (A) (A) (A) (A) (A) (A) (A) (A) (A)
                 (A) (A) (A) (A) (A) (A) (A) (A) (A) (A) (A) (A)
                 (A) (A) (A) (A) (A) (A) (A) (A) (A) (A) (A) (A)
                 (A) (A) (A) (A) (A) (A) (A) (A) (A) (A) (A) (A)
                 (A) (A) (A) (A) (A) (A) (A) (A) (A) (A) (A) (A)
                 (A) (A) (A) (A) (A) (A) (A) (A) (A) (A) (A) (A)
                 (A) (A) (A) (A) (A) (A) (A) (A) (A) (A) (A) (A)
                 (A) (A) (A) (A) (A) (A) (A) (A) (A) (A) (A) (A)
                 (A) (A) (A) (A) (A) (A) (A) (A) (A) (A) (A) (A)
                 (A) (A) (A) (A) (A) (A) (A) (A) (A) (A) (A) (A)
                 (A) (A) (A) (A) (A) (A) (A) (A) (A) (A) (A) (A)
                 (A) (A) (A) (A) (A) (A) (A) (A) (A) (A) (A) (A)
                 (A) (A) (A) (A) (A) (A) (A) (A) (A) (A) (A) (A)
                 (A) (A) (A) (A) (A) (A) (A) (A) (A) (A) (A) (A)
                 (A) (A) (A) (A) (A) (A) (A) (A) (A) (A) (A) (A)
                 (A) (A) (A) (A) (A) (A) (A) (A) (A) (A) (A) (A)
                 (A) (A) (A) (A) (A) (A) (A) (A) (A) (A) (A) (A)
                 (A) (A) (A) (A) (A) (A) (A) (A) (A) (A) (A) (A)
                 (A) (A) (A) (A) (A) (A) (A) (A) (A) (A) (A) (A)
                 (A) (A) (A) (A) (A) (A) (A) (A) (A) (A) (A) (A)
                 (A) (A) (A) (A) (A) (A) (A) (A) (A) (A) (A) (A)
                 (A) (A) (A) (A) (A) (A) (A) (A) (A) (A) (A) (A)
                 (A) (A) (A) (A) (A) (A) (A) (A) (A) (A) (A) (A)
                 (A) (A) (A) (A) (A) (A) (A) (A) (A) (A) (A) (A)
                 (A) (A) (A) (A) (A) (A) (A) (A) (A) (A) (A) (A)
                 (A) (A) (A) (A) (A) (A) (A) (A) (A) (A) (A) (A)
                 (A) (A) (A) (A) (A) (A) (A) (A) (A) (A) (A) (A)
                 (A) (A) (A) (A) (A) (A) (A) (A) (A) (A) (A) (A)
                 (A) (A) (A) (A) (A) (A) (A) (A) (A) (A) (A) (A)
                 (A) (A) (A) (A) (A) (A) (A) (A) (A) (A) (A) (A)
                 (A) (A) (A) (A) (A) (A) (A) (A) (A) (A) (A) (A)
                 (A) (A) (A) (A) (A) (A) (A) (A) (A) (A) (A) (A)
                 (A) (A) (A) (A) (A) (A) (A) (A) (A) (A) (A) (A)
                 (A) (A) (A) (A) (A) (A) (A) (A) (A) (A) (A) (A)
                 (A) (A) (A) (A) (A) (A) (A) (A) (A) (A) (A) (A)
                 (A) (A) (A) (A) (A) (A) (A) (A) (A) (A) (A) (A)
                 (A) (A) (A) (A) (A) (A) (A) (A) (A) (A) (A) (A)
                 (A) (A) (A) (A) (A) (A) (A) (A) (A) (A) (A) (A)
                 (A) (A) (A) (A) (A) (A) (A) (A) (A) (A) (A) (A)
                 (A) (A) (A) (A) (A) (A) (A) (A) (A) (A) (A) (A)
                 (A) (A) (A) (A) (A) (A) (A) (A) (A) (A) (A) (A)
                 (A) (A) (A) (A) (A) (A) (A) (A) (A) (A) (A) (A)
                 (A) (A) (A) (A) (A) (A) (A) (A) (A) (A) (A) (A)
                 (A) (A) (A) (A) (A) (A) (A) (A) (A) (A) (A) (A)
                 (A) (A) (A) (A) (A) (A) (A) (A) (A) (A) (A) (A)
                 (A) (A) (A) (A) (A) (A) (A) (A) (A) (A) (A) (A)
                 (A) (A) (A) (A) (A) (A) (A) (A) (A) (A) (A) (A)
                 (A) (A) (A) (A) (A) (A) (A) (A) (A) (A) (A) (A)
                 (A) (A) (A) (A) (A) (A) (A) (A) (A) (A) (A) (A)
                 (A) (A) (A) (A) (A) (A) (A) (A) (A) (A) (A) (A)
                 (A) (A) (A) (A) (A) (A) (A) (A) (A) (A) (A) (A)
                 (A) (A) (A) (A) (A) (A) (A) (A) (A) (A) (A) (A)
                 (A) (A) (A) (A) (A) (A) (A) (A) (A) (A) (A) (A)
                 (A) (A) (A) (A) (A) (A) (A) (A) (A) (A) (A) (A)
                 (A) (A) (A) (A) (A) (A) (A) (A) (A) (A) (A) (A)
                 (A) (A) (A) (A) (A) (A) (A) (A) (A) (A) (A) (A)
                 (A) (A) (A) (A) (A) (A) (A) (A) (A) (A) (A) (A)
                 (A) (A) (A) (A) (A) (A) (A) (A) (A) (A) (A) (A)
                 (A) (A) (A) (A) (A) (A) (A) (A) (A) (A) (A) (A)
                 (A) (A) (A) (A) (A) (A) (A) (A) (A) (A) (A) (A)
                 (A) (A) (A) (A) (A) (A) (A) (A) (A) (A) (A) (A)
                 (A) (A) (A) (A) (A) (A) (A) (A) (A) (A) (A) (A)
                 (A) (A) (A) (A) (A) (A) (A) (A) (A) (A) (A) (A)
                 (A) (A) (A) (A) (A) (A) (A) (A) (A) (A) (A) (A)
                 (A) (A) (A) (A) (A) (A) (A) (A) (A) (A) (A) (A)
                 (A) (A) (A) (A) (A) (A) (A) (A) (A) (A) (A) (A)
                 (A) (A) (A) (A) (A) (A) (A) (A) (A) (A) (A) (A)
                 (A) (A) (A) (A) (A) (A) (A) (A) (A) (A) (A) (A)
                 (A) (A) (A) (A) (A) (A) (A) (A) (A) (A) (A) (A)
                 (A) (A) (A) (A) (A) (A) (A) (A) (A) (A) (A) (A)
                 (A) (A) (A) (A) (A) (A) (A) (A) (A) (A) (A) (A)
                 (A) (A) (A) (A) (A) (A) (A) (A) (A) (A) (A) (A)
                 (A) (A) (A) (A) (A) (A) (A) (A) (A) (A) (A) (A)
                 (A) (A) (A) (A) (A) (A) (A) (A) (A) (A) (A) (A)
                 (A) (A) (A) (A) (A) (A) (A) (A) (A) (A) (A) (A)
                 (A) (A) (A) (A) (A) (A) (A) (A) (A) (A) (A) (A)
                 (A) (A) (A) (A) (A) (A) (A) (A) (A) (A) (A) (A)
                 (A) (A) (A) (A) (A) (A) (A) (A) (A) (A) (A) (A)
                 (A) (A) (A) (A) (A) (A) (A) (A) (A) (A) (A) (A)
                 (A) (A) (A) (A) (A) (A) (A) (A) (A) (A) (A) (A)
                 (A) (A) (A) (A) (A) (A) (A) (A) (A) (A) (A) (A)
                 (A) (A) (A) (A) (A) (A) (A) (A) (A) (A) (A) (A)
                 (A) (A) (A) (A) (A) (A) (A) (A) (A) (A) (A) (A)
                 (A) (A) (A) (A) (A) (A) (A) (A) (A) (A) (A) (A)
                 (A) (A) (A) (A) (A) (A) (A) (A) (A) (A) (A) (A)
                 (A) (A) (A) (A) (A) (A) (A) (A) (A) (A) (A) (A)
                 (A) (A) (A) (A) (A) (A) (A) (A) (A) (A) (A) (A)
                 (A) (A) (A) (A) (A) (A) (A) (A) (A) (A) (A) (A)
                 (A) (A) (A) (A) (A) (A) (A) (A) (A) (A) (A) (A)
                 (A) (A) (A) (A) (A) (A) (A) (A) (A) (A) (A) (A)
                 (A) (A) (A) (A) (A) (A) (A) (A) (A) (A) (A) (A)
                 (A) (A) (A) (A) (A) (A) (A) (A) (A) (A) (A) (A)
                 (A) (A) (A) (A) (A) (A) (A) (A) (A) (A) (A) (A)
                 (A) (A) (A) (A) (A) (A) (A) (A) (A) (A) (A) (A)
                 (A) (A) (A) (A) (A) (A) (A) (A) (A) (A) (A) (A)
                 (A) (A) (A) (A) (A) (A) (A) (A) (A) (A) (A) (A)
                 (A) (A) (A) (A) (A) (A) (A) (A) (A) (A) (A) (A)
                 (A) (A) (A) (A) (A) (A) (A) (A) (A) (A) (A) (A)
                 (A) (A) (A) (A) (A) (A) (A) (A) (A) (A) (A) (A)
                 (A) (A) (A) (A) (A) (A) (A) (A) (A) (A) (A) (A)
                 (A) (A) (A) (A) (A) (A) (A) (A) (A) (A) (A) (A)
                 (A) (A) (A) (A) (A) (A) (A) (A) (A) (A) (A) (A)
                 (A) (A) (A) (A) (A) (A) (A) (A) (A) (A) (A) (A)
                 (A) (A) (A) (A) (A) (A) (A) (A) (A) (A) (A) (A)
                 (A) (A) (A) (A) (A) (A) (A) (A) (A) (A) (A) (A)
                 (A) (A) (A) (A) (A) (A) (A) (A) (A) (A) (A) (A)
                 (A) (A) (A) (A) (A) (A) (A) (A) (A) (A) (A) (A)
                 (A) (A) (A) (A) (A) (A) (A) (A) (A) (A) (A) (A)
                 (A) (A) (A) (A) (A) (A) (A) (A) (A) (A) (A) (A)
                 (A) (A) (A) (A) (A) (A) (A) (A) (A) (A) (A) (A)
                 (A) (A) (A) (A) (A) (A) (A) (A) (A) (A) (A) (A)
                 (A) (A) (A) (A) (A) (A) (A) (A) (A) (A) (A) (A)
                 (A) (A) (A) (A) (A) (A) (A) (A) (A) (A) (A) (A)
                 (A) (A) (A) (A) (A) (A) (A) (A) (A) (A) (A) (A)
                 (A) (A) (A) (A) (A) (A) (A) (A) (A) (A) (A) (A)
                 (A) (A) (A) (A) (A) (A) (A) (A) (A) (A) (A) (A)
                 (A) (A) (A) (A) (A) (A) (A) (A) (A) (A) (A) (A)
                 (A) (A) (A) (A) (A) (A) (A) (A) (A) (A) (A) (A)
                 (A) (A) (A) (A) (A) (A) (A) (A) (A) (A) (A) (A)
                 (A) (A) (A) (A) (A) (A) (A) (A) (A) (A) (A) (A)
                 (A) (A) (A) (A) (A) (A) (A) (A) (A) (A) (A) (A)
                 (A) (A) (A) (A) (A) (A) (A) (A) (A) (A) (A) (A)
                 (A) (A) (A) (A) (A) (A) (A) (A) (A) (A) (A) (A)
                 (A) (A) (A) (A) (A) (A) (A) (A) (A) (A) (A) (A)
                 (A) (A) (A) (A) (A) (A) (A) (A) (A) (A) (A) (A)
                 (A) (A) (A) (A) (A) (A) (A) (A) (A) (A) (A) (A)
                 (A) (A) (A) (A) (A) (A) (A) (A) (A) (A) (A) (A)
                 (A) (A) (A) (A) (A) (A) (A) (A) (A) (A) (A) (A)
                 (A) (A) (A) (A) (A) (A) (A) (A) (A) (A) (A) (A)
                 (A) (A) (A) (A) (A) (A) (A) (A) (A) (A) (A) (A)
                 (A) (A) (A) (A) (A) (A) (A) (A) (A) (A) (A) (A)
                 (A) (A) (A) (A) (A) (A) (A) (A) (A) (A) (A) (A)
                 (A) (A) (A) (A) (A) (A) (A) (A) (A) (A) (A) (A)
                 (A) (A) (A) (A) (A) (A) (A) (A) (A) (A) (A) (A)
                 (A) (A) (A) (A) (A) (A) (A) (A) (A) (A) (A) (A)
                 (A) (A) (A) (A) (A) (A) (A) (A) (A) (A) (A) (A)
                 (A) (A) (A) (A) (A) (A) (A) (A) (A) (A) (A) (A)
                 (A) (A) (A) (A) (A) (A) (A) (A) (A) (A) (A) (A)
                 (A) (A) (A) (A) (A) (A) (A) (A) (A) (A) (A) (A)
                 (A) (A) (A) (A) (A) (A) (A) (A) (A) (A) (A) (A)
                 (A) (A) (A) (A) (A) (A) (A) (A) (A) (A) (A) (A)
                 (A) (A) (A) (A) (A) (A) (A) (A) (A) (A) (A) (A)
                 (A) (A) (A) (A) (A) (A) (A) (A) (A) (A) (A) (A)
                 (A) (A) (A) (A) (A) (A) (A) (A) (A) (A) (A) (A)
                 (A) (A) (A) (A) (A) (A) (A) (A) (A) (A) (A) (A)
                 (A) (A) (A) (A) (A) (A) (A) (A) (A) (A) (A) (A)
                 (A) (A) (A) (A) (A) (A) (A) (A) (A) (A) (A) (A)
                 (A) (A) (A) (A) (A) (A) (A) (A) (A) (A) (A) (A)
                 (A) (A) (A) (A) (A) (A) (A) (A) (A) (A) (A) (A)
                 (A) (A) (A) (A) (A) (A) (A) (A) (A) (A) (A) (A)
                 (A) (A) (A) (A) (A) (A) (A) (A) (A) (A) (A) (A)
                 (A) (A) (A) (A) (A) (A) (A) (A) (A) (A) (A) (A)
                 (A) (A) (A) (A) (A) (A) (A) (A) (A) (A) (A) (A)
                 (A) (A) (A) (A) (A) (A) (A) (A) (A) (A) (A) (A)
                 (A) (A) (A) (A) (A) (A) (A) (A) (A) (A) (A) (A)
                 (A) (A) (A) (A) (A) (A) (A) (A) (A) (A) (A) (A)
                 (A) (A) (A) (A) (A) (A) (A) (A) (A) (A) (A) (A)
                 (A) (A) (A) (A) (A) (A) (A) (A) (A) (A) (A) (A)
                 (A) (A) (A) (A) (A) (A) (A) (A) (A) (A) (A) (A)
                 (A) (A) (A) (A) (A) (A) (A) (A) (A) (A) (A) (A)
                 (A) (A) (A) (A) (A) (A) (A) (A) (A) (A) (A) (A)
                 (A) (A) (A) (A) (A) (A) (A) (A) (A) (A) (A) (A)
                 (A) (A) (A) (A) (A) (A) (A) (A) (A) (A) (A) (A)
                 (A) (A) (A) (A) (A) (A) (A) (A) (A) (A) (A) (A)
                 (A) (A) (A) (A) (A) (A) (A) (A) (A) (A) (A) (A)
                 (A) (A) (A) (A) (A) (A) (A) (A) (A) (A) (A) (A)
                 (A) (A) (A) (A) (A) (A) (A) (A) (A) (A) (A) (A)
                 (A) (A) (A) (A) (A) (A) (A) (A) (A) (A) (A) (A)
                 (A) (A) (A) (A) (A) (A) (A) (A) (A) (A) (A) (A)
                 (A) (A) (A) (A) (A) (A) (A) (A) (A) (A) (A) (A)
                 (A) (A) (A) (A) (A) (A) (A) (A) (A) (A) (A) (A)
                 (A) (A) (A) (A) (A) (A) (A) (A) (A) (A) (A) (A)
                 (A) (A) (A) (A) (A) (A) (A) (A) (A) (A) (A) (A)
                 (A) (A) (A) (A) (A) (A) (A) (A) (A) (A) (A) (A)
                 (A) (A) (A) (A) (A) (A) (A) (A) (A) (A) (A) (A)
                 (A) (A) (A) (A) (A) (A) (A) (A) (A) (A) (A) (A)
                 (A) (A) (A) (A) (A) (A) (A) (A) (A) (A) (A) (A)
                 (A) (A) (A) (A) (A) (A) (A) (A) (A) (A) (A) (A)
                 (A) (A) (A) (A) (A) (A) (A) (A) (A) (A) (A) (A)
                 (A) (A) (A) (A) (A) (A) (A) (A) (A) (A) (A) (A)
                 (A) (A) (A) (A) (A) (A) (A) (A) (A) (A) (A) (A)
                 (A) (A) (A) (A) (A) (A) (A) (A) (A) (A) (A) (A)
                 (A) (A) (A) (A) (A) (A) (A) (A) (A) (A) (A) (A)
                 (A) (A) (A) (A) (A) (A) (A) (A) (A) (A) (A) (A)
                 (A) (A) (A) (A) (A) (A) (A) (A) (A) (A) (A) (A)
                 (A) (A) (A) (A) (A) (A) (A) (A) (A) (A) (A) (A)
                 (A) (A) (A) (A) (A) (A) (A) (A) (A) (A) (A) (A)
                 (A) (A) (A) (A) (A) (A) (A) (A) (A) (A) (A) (A)
                 (A) (A) (A) (A) (A) (A) (A) (A) (A) (A) (A) (A)
                 (A) (A) (A) (A) (A) (A) (A) (A) (A) (A) (A) (A)
                 (A) (A) (A) (A) (A) (A) (A) (A) (A) (A) (A) (A)
                 (A) (A) (A) (A) (A) (A) (A) (A) (A) (A) (A) (A)
                 (A) (A) (A) (A) (A) (A) (A) (A) (A) (A) (A) (A)
                 (A) (A) (A) (A) (A) (A) (A) (A) (A) (A) (A) (A)
                 (A) (A) (A) (A) (A) (A) (A) (A) (A) (A) (A) (A)
                 (A) (A) (A) (A) (A) (A) (A) (A) (A) (A) (A) (A)
                 (A) (A) (A) (A) (A) (A) (A) (A) (A) (A) (A) (A)
                 (A) (A) (A) (A) (A) (A) (A) (A) (A) (A) (A) (A)
                 (A) (A) (A) (A) (A) (A) (A) (A) (A) (A)
 The electronic state is 1-A.
 Alpha  occ. eigenvalues --  -25.20275 -25.20265 -19.66327 -19.66231 -19.66196
 Alpha  occ. eigenvalues --  -19.66134 -19.63921 -14.78746 -14.78693 -14.78131
 Alpha  occ. eigenvalues --  -14.78129 -10.64289 -10.61179 -10.61176 -10.61109
 Alpha  occ. eigenvalues --  -10.61082 -10.60067 -10.60064 -10.60050 -10.60036
 Alpha  occ. eigenvalues --  -10.59764 -10.59058 -10.58950 -10.58935 -10.58851
 Alpha  occ. eigenvalues --  -10.58841 -10.58821 -10.58814 -10.58795 -10.58793
 Alpha  occ. eigenvalues --  -10.58775 -10.58365 -10.57034 -10.56872 -10.56730
 Alpha  occ. eigenvalues --  -10.56474 -10.56455 -10.56407 -10.56399 -10.55835
 Alpha  occ. eigenvalues --  -10.55814 -10.55545 -10.55494 -10.55426 -10.55399
 Alpha  occ. eigenvalues --  -10.55397 -10.55394 -10.55388 -10.55379 -10.55373
 Alpha  occ. eigenvalues --  -10.55353 -10.55338 -10.55332 -10.55320 -10.55312
 Alpha  occ. eigenvalues --  -10.55258 -10.55247 -10.55127 -10.55124 -10.55094
 Alpha  occ. eigenvalues --  -10.55084 -10.54955 -10.54930 -10.54923 -10.54883
 Alpha  occ. eigenvalues --  -10.54868 -10.54812 -10.54780 -10.54770 -10.54717
 Alpha  occ. eigenvalues --  -10.54698 -10.54396 -10.54395 -10.53818 -10.53814
 Alpha  occ. eigenvalues --  -10.52891 -10.52887  -7.13067  -1.32180  -1.29024
 Alpha  occ. eigenvalues --   -1.19100  -1.18998  -1.18958  -1.18898  -1.17538
 Alpha  occ. eigenvalues --   -1.09961  -1.08408  -1.08395  -1.08063  -0.99199
 Alpha  occ. eigenvalues --   -0.97269  -0.97241  -0.96845  -0.96815  -0.95109
 Alpha  occ. eigenvalues --   -0.95056  -0.93877  -0.92534  -0.91623  -0.90913
 Alpha  occ. eigenvalues --   -0.90216  -0.87404  -0.87322  -0.86827  -0.86610
 Alpha  occ. eigenvalues --   -0.86569  -0.85896  -0.85721  -0.85714  -0.85402
 Alpha  occ. eigenvalues --   -0.85329  -0.85035  -0.84992  -0.84858  -0.84569
 Alpha  occ. eigenvalues --   -0.82878  -0.82546  -0.80643  -0.80345  -0.79575
 Alpha  occ. eigenvalues --   -0.79330  -0.78671  -0.78139  -0.77070  -0.76255
 Alpha  occ. eigenvalues --   -0.74119  -0.73249  -0.73079  -0.71903  -0.71547
 Alpha  occ. eigenvalues --   -0.71289  -0.71047  -0.70811  -0.70646  -0.70446
 Alpha  occ. eigenvalues --   -0.70124  -0.69174  -0.68460  -0.68326  -0.68045
 Alpha  occ. eigenvalues --   -0.67154  -0.66419  -0.65732  -0.65636  -0.64938
 Alpha  occ. eigenvalues --   -0.63298  -0.62952  -0.62452  -0.62224  -0.62169
 Alpha  occ. eigenvalues --   -0.62107  -0.61519  -0.60538  -0.60487  -0.60408
 Alpha  occ. eigenvalues --   -0.59432  -0.59259  -0.59149  -0.58915  -0.58243
 Alpha  occ. eigenvalues --   -0.57697  -0.57234  -0.57153  -0.56621  -0.56425
 Alpha  occ. eigenvalues --   -0.56034  -0.55699  -0.55523  -0.55227  -0.54982
 Alpha  occ. eigenvalues --   -0.54957  -0.54706  -0.54600  -0.54080  -0.53799
 Alpha  occ. eigenvalues --   -0.53237  -0.52674  -0.52589  -0.52538  -0.52488
 Alpha  occ. eigenvalues --   -0.52438  -0.52389  -0.52061  -0.51761  -0.51667
 Alpha  occ. eigenvalues --   -0.51559  -0.51185  -0.50948  -0.50689  -0.50594
 Alpha  occ. eigenvalues --   -0.50365  -0.50206  -0.50194  -0.50077  -0.49911
 Alpha  occ. eigenvalues --   -0.49897  -0.49784  -0.49726  -0.49427  -0.49173
 Alpha  occ. eigenvalues --   -0.48980  -0.48908  -0.48707  -0.48653  -0.48415
 Alpha  occ. eigenvalues --   -0.48012  -0.47766  -0.47583  -0.47176  -0.47024
 Alpha  occ. eigenvalues --   -0.46644  -0.46491  -0.46277  -0.46017  -0.45959
 Alpha  occ. eigenvalues --   -0.45859  -0.45826  -0.45780  -0.45670  -0.45494
 Alpha  occ. eigenvalues --   -0.45371  -0.45254  -0.44969  -0.44384  -0.44143
 Alpha  occ. eigenvalues --   -0.43985  -0.43899  -0.43661  -0.43508  -0.43360
 Alpha  occ. eigenvalues --   -0.43211  -0.43051  -0.42813  -0.42372  -0.42264
[...]
 Alpha virt. eigenvalues --    4.73913   4.74058   4.74177   4.74497   4.74825
 Alpha virt. eigenvalues --    4.75136   4.75303   4.75391   4.75858   4.76273
 Alpha virt. eigenvalues --    4.77120   4.77453   4.78054   4.78534   4.78783
 Alpha virt. eigenvalues --    4.78952   4.79901   4.80091   4.80367   4.81021
 Alpha virt. eigenvalues --    4.81262   4.81448   4.81757   4.82147   4.82584
 Alpha virt. eigenvalues --    4.82796   4.83419   4.83918   4.84333   4.84538
 Alpha virt. eigenvalues --    4.84926   4.85757   4.86240   4.86956   4.87023
 Alpha virt. eigenvalues --    4.87107   4.87727   4.88191   4.88895   4.89213
 Alpha virt. eigenvalues --    4.89444   4.89591   4.90043   4.90142   4.90290
 Alpha virt. eigenvalues --    4.90557   4.90916   4.90963   4.91487   4.91819
 Alpha virt. eigenvalues --    4.92086   4.92511   4.92686   4.93019   4.93261
 Alpha virt. eigenvalues --    4.93394   4.93445   4.93518   4.93794   4.93937
 Alpha virt. eigenvalues --    4.94123   4.94271   4.94441   4.94509   4.94619
 Alpha virt. eigenvalues --    4.94763   4.94877   4.95135   4.95354   4.95385
 Alpha virt. eigenvalues --    4.95544   4.95741   4.95830   4.95963   4.96241
 Alpha virt. eigenvalues --    4.96427   4.96845   4.96944   4.97231   4.97330
 Alpha virt. eigenvalues --    4.97368   4.97464   4.97722   4.97841   4.98247
 Alpha virt. eigenvalues --    4.98348   4.98618   4.98789   4.99182   4.99407
 Alpha virt. eigenvalues --    4.99601   4.99847   5.00130   5.00576   5.01131
 Alpha virt. eigenvalues --    5.01493   5.01643   5.01691   5.03192   5.03370
 Alpha virt. eigenvalues --    5.03724   5.03978   5.04227   5.04416   5.05020
 Alpha virt. eigenvalues --    5.05147   5.05761   5.05939   5.06491   5.06680
 Alpha virt. eigenvalues --    5.06949   5.07385   5.07507   5.07788   5.08690
 Alpha virt. eigenvalues --    5.08837   5.09550   5.09768   5.09941   5.10504
 Alpha virt. eigenvalues --    5.10908   5.11416   5.11782   5.12394   5.12859
 Alpha virt. eigenvalues --    5.12995   5.13218   5.13628   5.14776   5.14936
 Alpha virt. eigenvalues --    5.15051   5.15319   5.15426   5.15665   5.15832
 Alpha virt. eigenvalues --    5.16424   5.16754   5.17316   5.17785   5.18407
 Alpha virt. eigenvalues --    5.18955   5.19500   5.19720   5.20184   5.20334
 Alpha virt. eigenvalues --    5.20510   5.21332   5.21350   5.21393   5.21851
 Alpha virt. eigenvalues --    5.22258   5.22429   5.22564   5.22945   5.23088
 Alpha virt. eigenvalues --    5.23247   5.23858   5.24030   5.24289   5.25037
 Alpha virt. eigenvalues --    5.25125   5.25365   5.25873   5.26266   5.26469
 Alpha virt. eigenvalues --    5.26574   5.26839   5.27128   5.27282   5.27647
 Alpha virt. eigenvalues --    5.28211   5.28484   5.28638   5.29034   5.29097
 Alpha virt. eigenvalues --    5.29203   5.29442   5.29634   5.29805   5.29827
 Alpha virt. eigenvalues --    5.30058   5.30340   5.30903   5.31054   5.31167
 Alpha virt. eigenvalues --    5.31258   5.31535   5.31605   5.31804   5.31998
 Alpha virt. eigenvalues --    5.32124   5.33254   5.33268   5.33939   5.34168
 Alpha virt. eigenvalues --    5.34551   5.34834   5.35332   5.35385   5.35945
 Alpha virt. eigenvalues --    5.36083   5.36276   5.36781   5.36881   5.37516
 Alpha virt. eigenvalues --    5.37908   5.37964   5.38121   5.38511   5.38633
 Alpha virt. eigenvalues --    5.39018   5.39258   5.39483   5.40017   5.40528
 Alpha virt. eigenvalues --    5.40658   5.40837   5.41077   5.41176   5.41228
 Alpha virt. eigenvalues --    5.41511   5.41670   5.41811   5.41999   5.42139
 Alpha virt. eigenvalues --    5.42231   5.42756   5.42933   5.43163   5.43384
 Alpha virt. eigenvalues --    5.44185   5.44394   5.44773   5.45670   5.45997
 Alpha virt. eigenvalues --    5.48233   5.48295   5.48527   5.49107   5.49150
 Alpha virt. eigenvalues --    5.49634   5.49767   5.49921   5.50267   5.50829
 Alpha virt. eigenvalues --    5.51156   5.51436   5.52257   5.52825   5.53147
 Alpha virt. eigenvalues --    5.53696   5.53724   5.53735   5.54046   5.54444
 Alpha virt. eigenvalues --    5.54687   5.55357   5.55609   5.55927   5.56343
 Alpha virt. eigenvalues --    5.57082   5.57182   5.57496   5.57803   5.58219
 Alpha virt. eigenvalues --    5.58894   5.59634   5.60226   5.60285   5.60935
 Alpha virt. eigenvalues --    5.61268   5.61895   5.61928   5.61950   5.62262
 Alpha virt. eigenvalues --    5.62681   5.62762   5.63484   5.63733   5.64239
 Alpha virt. eigenvalues --    5.64501   5.64649   5.65130   5.65757   5.65868
 Alpha virt. eigenvalues --    5.66001   5.66745   5.67095   5.67906   5.68069
 Alpha virt. eigenvalues --    5.68740   5.69638   5.70222   5.70800   5.71056
 Alpha virt. eigenvalues --    5.72501   5.72847   5.73185   5.73932   5.74303
 Alpha virt. eigenvalues --    5.74906   5.75583   5.75991   5.76456   5.76717
 Alpha virt. eigenvalues --    5.77699   5.78493   5.79204   5.80567   5.81255
 Alpha virt. eigenvalues --    5.82016   5.82083   5.83346   5.84399   5.84454
 Alpha virt. eigenvalues --    5.84570   5.84659   5.86409   5.87340   5.87475
 Alpha virt. eigenvalues --    5.88252   5.90740   5.90902   5.91139   5.92636
 Alpha virt. eigenvalues --    5.96045   5.96805   6.00639   6.01085   6.01343
 Alpha virt. eigenvalues --    6.01671   6.01817   6.01890   6.01958   6.02254
 Alpha virt. eigenvalues --    6.02474   6.02912   6.04514   6.04691   6.05705
 Alpha virt. eigenvalues --    6.06090   6.06362   6.06758   6.11087   6.14107
 Alpha virt. eigenvalues --    6.15239   6.15904   6.16420   6.19992   6.20276
 Alpha virt. eigenvalues --    6.20605   6.21657   6.23351   6.27885   6.31934
 Alpha virt. eigenvalues --    6.32236   6.33137   6.35988   6.36755   6.37225
 Alpha virt. eigenvalues --    6.39838   6.42272   6.42535   6.43228   6.43810
 Alpha virt. eigenvalues --    6.55394   6.63617   6.64151   6.69901   6.69933
 Alpha virt. eigenvalues --    6.70541   6.71712   6.73325   6.73436   6.74651
 Alpha virt. eigenvalues --    6.75589   6.77316   6.83858   6.84021   6.84062
 Alpha virt. eigenvalues --    6.84587   6.85176   6.91280   6.91345   6.91373
 Alpha virt. eigenvalues --    6.92417   6.94757   6.96305   6.99155   6.99473
 Alpha virt. eigenvalues --    7.00235   7.02206   7.03568   7.05172   7.07995
 Alpha virt. eigenvalues --    7.11632   7.17842   7.22538   7.25077   7.27522
 Alpha virt. eigenvalues --    7.27589   7.27794   7.28294   7.29054   7.33819
 Alpha virt. eigenvalues --    7.34459   7.44808   7.44838   7.45785   7.46521
 Alpha virt. eigenvalues --    8.47042   8.53081   8.57843   8.63767   8.82953
 Alpha virt. eigenvalues --    8.87987   8.91873   8.95121   8.95320   9.02040
 Alpha virt. eigenvalues --   15.86388  22.83559  22.84150  22.86812  22.87523
 Alpha virt. eigenvalues --   22.88740  22.90717  22.95280  22.96634  22.97834
 Alpha virt. eigenvalues --   23.12878  23.13114  23.13800  23.15183  23.15295
 Alpha virt. eigenvalues --   23.15677  23.15744  23.16588  23.17079  23.18119
 Alpha virt. eigenvalues --   23.18627  23.19207  23.19348  23.19784  23.28147
 Alpha virt. eigenvalues --   23.28260  23.28898  23.28962  23.29367  23.30697
 Alpha virt. eigenvalues --   23.31312  23.32737  23.33454  23.34630  23.35910
 Alpha virt. eigenvalues --   23.36797  23.37528  23.38139  23.39080  23.39172
 Alpha virt. eigenvalues --   23.40074  23.40638  23.42124  23.46377  23.49125
 Alpha virt. eigenvalues --   23.50264  23.52385  23.58176  23.58936  23.61317
 Alpha virt. eigenvalues --   23.64411  23.64432  23.65188  23.68562  23.70655
 Alpha virt. eigenvalues --   23.71324  23.73412  23.78983  23.87504  23.90803
 Alpha virt. eigenvalues --   23.99968  24.00238  24.01035  24.01339  24.09581
 Alpha virt. eigenvalues --   24.10220  24.20010  33.16971  33.28206  33.45276
 Alpha virt. eigenvalues --   33.45293  44.00413  44.49097  44.49132  44.50441
 Alpha virt. eigenvalues --   44.51672  57.45009  57.62451
          Condensed to atoms (all electrons):
 Mulliken charges:
               1
     1  C   -0.299845
     2  C   -0.417406
     3  C    0.020165
     4  C    0.086291
     5  C   -0.457745
     6  C    0.077947
     7  C    0.154000
     8  C    0.073211
     9  C    0.091443
    10  C   -0.455237
    11  C    0.015403
    12  C   -0.414951
    13  C   -0.300762
    14  C    0.142137
    15  C   -0.175497
    16  C   -0.096797
    17  C    0.011300
    18  C   -0.164751
    19  C   -0.169397
    20  C    0.051832
    21  C   -0.167134
    22  C   -0.139914
    23  N   -0.101422
    24  C   -0.062700
    25  C   -0.130683
    26  C   -0.166276
    27  C    0.213359
    28  O   -0.309344
    29  C   -0.246629
    30  C   -0.152131
    31  C   -0.172477
    32  C   -0.045445
    33  C   -0.172132
    34  C   -0.161418
    35  C    0.212992
    36  O   -0.311416
    37  C   -0.261291
    38  C   -0.169676
    39  C   -0.133262
    40  N   -0.114014
    41  B    0.354403
    42  F   -0.346037
    43  F   -0.345908
    44  N   -0.114478
    45  C    0.135126
    46  C   -0.167619
    47  C   -0.087848
    48  C    0.011160
    49  C   -0.130587
    50  C   -0.165049
    51  C    0.040511
    52  C   -0.160917
    53  C   -0.175374
    54  N   -0.100061
    55  C   -0.053916
    56  C   -0.150641
    57  C   -0.164782
    58  C    0.210561
    59  O   -0.309834
    60  C   -0.246179
    61  C   -0.155098
    62  C   -0.156690
    63  C   -0.063303
    64  C   -0.157916
    65  C   -0.147398
    66  C    0.224128
    67  O   -0.320066
    68  C   -0.275771
    69  C   -0.169094
    70  C   -0.143652
    71  C   -0.250956
    72  C   -0.162662
    73  C   -0.087185
    74  C   -0.013558
    75  C    0.168298
    76  O   -0.371352
    77  C   -0.063837
    78  C   -0.168035
    79  H    0.126047
    80  H    0.114180
    81  H    0.115851
    82  H    0.126215
    83  H    0.131952
    84  H    0.128424
    85  H    0.171283
    86  H    0.159643
    87  H    0.128233
    88  H    0.170601
    89  H    0.159525
    90  H    0.130702
    91  H    0.127155
    92  H    0.115207
    93  H    0.115598
    94  H    0.126014
    95  H    0.114370
    96  H    0.137168
    97  H    0.148458
    98  H    0.170277
    99  H    0.172576
   100  H    0.138100
   101  H    0.168163
   102  H    0.158009
   103  H    0.145784
   104  H    0.145360
   105  H    0.147905
   106  H    0.154538
   107  H    0.176096
   108  H    0.177615
   109  H    0.152706
   110  H    0.153207
   111  H    0.143567
   112  H    0.155171
   113  H    0.158219
   114  H    0.168379
   115  H    0.114682
   116  H    0.132930
   117  H    0.136664
   118  H    0.171993
   119  H    0.170436
   120  H    0.149977
   121  H    0.176131
   122  H    0.156856
   123  H    0.144898
   124  H    0.147809
   125  H    0.145633
   126  H    0.154890
   127  H    0.168450
   128  H    0.168371
   129  H    0.157462
   130  H    0.159469
   131  H    0.159143
   132  H    0.147284
   133  H    0.156350
   134  H    0.175353
   135  H    0.175997
   136  H    0.168003
   137  H    0.093510
   138  H    0.161896
   139  H    0.174808
 Sum of Mulliken charges =  -0.00000
 Mulliken charges with hydrogens summed into heavy atoms:
               1
     1  C    0.056233
     2  C   -0.159239
     3  C    0.020165
     4  C    0.086291
     5  C    0.001605
     6  C    0.077947
     7  C    0.154000
     8  C    0.073211
     9  C    0.091443
    10  C    0.003122
    11  C    0.015403
    12  C   -0.157095
    13  C    0.056057
    14  C    0.142137
    15  C   -0.061126
    16  C    0.040371
    17  C    0.011300
    18  C   -0.016293
    19  C    0.000880
    20  C    0.051832
    21  C    0.005442
    22  C   -0.001814
    23  N   -0.101422
    24  C   -0.062700
    25  C    0.037479
    26  C   -0.008266
    27  C    0.213359
    28  O   -0.309344
    29  C    0.192419
    30  C    0.002407
    31  C    0.003620
    32  C   -0.045445
    33  C    0.005483
    34  C   -0.008713
    35  C    0.212992
    36  O   -0.311416
    37  C    0.190654
    38  C   -0.011457
    39  C    0.035117
    40  N   -0.114014
    41  B    0.354403
    42  F   -0.346037
    43  F   -0.345908
    44  N   -0.114478
    45  C    0.135126
    46  C   -0.052937
    47  C    0.045082
    48  C    0.011160
    49  C    0.006077
    50  C    0.006944
    51  C    0.040511
    52  C    0.009518
    53  C   -0.025397
    54  N   -0.100061
    55  C   -0.053916
    56  C    0.025490
    57  C   -0.007926
    58  C    0.210561
    59  O   -0.309834
    60  C    0.192160
    61  C   -0.000209
    62  C    0.011760
    63  C   -0.063303
    64  C    0.010455
    65  C    0.010064
    66  C    0.224128
    67  O   -0.320066
    68  C    0.190125
    69  C   -0.012745
    70  C    0.031700
    71  C   -0.250956
    72  C    0.013335
    73  C    0.080818
    74  C   -0.013558
    75  C    0.261807
    76  O   -0.371352
    77  C    0.098059
    78  C    0.006772
 Electronic spatial extent (au):  <R**2>=         116833.0388
 Charge=             -0.0000 electrons
 Dipole moment (field-independent basis, Debye):
    X=             -5.5589    Y=             -0.6084    Z=              2.4182  Tot=              6.0926
 Quadrupole moment (field-independent basis, Debye-Ang):
   XX=           -402.1933   YY=           -352.5076   ZZ=           -454.2151
   XY=             54.5485   XZ=             41.7590   YZ=             -5.1084
 Traceless Quadrupole moment (field-independent basis, Debye-Ang):
   XX=              0.7787   YY=             50.4644   ZZ=            -51.2431
   XY=             54.5485   XZ=             41.7590   YZ=             -5.1084
 Octapole moment (field-independent basis, Debye-Ang**2):
  XXX=          -1303.2841  YYY=            117.7013  ZZZ=              0.8048  XYY=           -141.2353
  XXY=           -247.0421  XXZ=            265.0356  XZZ=             -7.4092  YZZ=             -4.2277
  YYZ=            264.3239  XYZ=             -0.9963
 Hexadecapole moment (field-independent basis, Debye-Ang**3):
 XXXX=         -96132.3722 YYYY=         -55520.7261 ZZZZ=          -1893.5317 XXXY=           5262.0784
 XXXZ=           6557.5790 YYYX=           3611.0969 YYYZ=            -62.3892 ZZZX=             26.0548
 ZZZY=             39.8844 XXYY=         -24206.5593 XXZZ=         -14618.9313 YYZZ=         -11847.9102
 XXYZ=           -489.6703 YYXZ=          -1069.6892 ZZXY=             -0.3575
 N-N= 1.156081310084D+04 E-N=-3.097348706700D+04  KE= 3.352861602748D+03
 Leave Link  601 at Thu Nov  6 22:44:32 2025, MaxMem= 30870077440 cpu:             150.9 elap:               3.0
 (Enter /public/software/gauss/g16/l9999.exe)
 1\1\GINC-CU015\SP\RM062X\def2TZVPP\C66H61B1F2N4O5\BAIDING\06-Nov-2025\
 0\\#p M062X/DEF2TZVPP scrf=(solvent=water) em=GD3\\Energy calculation 
 for M100034661\\0,1\C,0,4.877556,5.91522,0.644648\C,0,4.940383,5.13135
 9,-0.677458\C,0,5.013345,3.639865,-0.485802\C,0,6.167267,2.86543,-0.42
 0807\C,0,7.56346,3.392664,-0.574687\C,0,5.744199,1.513321,-0.191163\C,
 0,6.487989,0.324903,-0.081416\C,0,5.855939,-0.923734,0.055808\C,0,6.40
 148,-2.2297,0.29504\C,0,7.842135,-2.633468,0.40708\C,0,5.321016,-3.097
 751,0.417896\C,0,5.381209,-4.58519,0.641844\C,0,5.341885,-5.401786,-0.
 661228\C,0,4.123749,-2.338377,0.227857\C,0,2.818913,-2.944323,0.27212\
 C,0,1.609555,-2.488773,-0.157332\C,0,0.359401,-3.225086,-0.066369\C,0,
 0.205649,-4.43888,0.64247\C,0,-0.998405,-5.11991,0.666719\C,0,-2.12918
 2,-4.627959,-0.025521\C,0,-1.99671,-3.405502,-0.716602\C,0,-0.785451,-
 2.727984,-0.726073\N,0,-3.336034,-5.341365,-0.016275\C,0,-3.341891,-6.
 762577,0.149415\C,0,-4.181522,-7.359481,1.103645\C,0,-4.215782,-8.7401
 54,1.249507\C,0,-3.397797,-9.556429,0.45396\O,0,-3.499976,-10.906545,0
 .678321\C,0,-2.689923,-11.779416,-0.11394\C,0,-2.551246,-8.971924,-0.4
 95337\C,0,-2.538085,-7.584143,-0.648354\C,0,-4.594865,-4.691005,-0.201
 799\C,0,-4.941548,-3.555564,0.539275\C,0,-6.185562,-2.941764,0.376759\
 C,0,-7.113673,-3.480917,-0.521821\O,0,-8.369817,-2.974624,-0.742903\C,
 0,-8.7674,-1.817554,-0.001106\C,0,-6.775416,-4.621456,-1.264926\C,0,-5
 .528603,-5.212902,-1.112523\N,0,4.462892,-1.02557,0.017029\B,0,3.5057,
 0.192916,-0.041007\F,0,2.699231,0.179604,1.111924\F,0,2.688461,0.13251
 9,-1.185834\N,0,4.349212,1.492987,-0.107531\C,0,3.891688,2.776165,-0.2
 77521\C,0,2.539834,3.269385,-0.272443\C,0,1.374711,2.67603,0.107715\C,
 0,0.060815,3.29547,0.066809\C,0,-1.04997,2.572837,0.554064\C,0,-2.3303
 04,3.106212,0.564341\C,0,-2.568445,4.407606,0.076196\C,0,-1.467218,5.1
 37717,-0.426478\C,0,-0.194032,4.594935,-0.429202\N,0,-3.856928,4.96105
 ,0.082557\C,0,-4.051151,6.373471,0.176596\C,0,-3.393409,7.12597,1.1644
 51\C,0,-3.595043,8.496597,1.259106\C,0,-4.476493,9.145864,0.381599\O,0
 ,-4.614544,10.499456,0.564112\C,0,-5.496578,11.20567,-0.312518\C,0,-5.
 14789,8.404271,-0.597031\C,0,-4.923973,7.029673,-0.697921\C,0,-5.01195
 8,4.124095,-0.008168\C,0,-6.066669,4.267763,0.898996\C,0,-7.21443,3.47
 8407,0.800356\C,0,-7.307612,2.516796,-0.211827\O,0,-8.38445,1.687571,-
 0.398908\C,0,-9.477749,1.78946,0.518214\C,0,-6.250852,2.360885,-1.1213
 96\C,0,-5.121233,3.162462,-1.02653\C,0,7.981078,0.389926,-0.104424\C,0
 ,8.691268,0.738511,1.057861\C,0,10.078772,0.79482,1.041978\C,0,10.7796
 89,0.510852,-0.141816\C,0,12.249453,0.566985,-0.185757\O,0,12.965241,0
 .851383,0.769886\C,0,10.073421,0.167139,-1.303341\C,0,8.682684,0.10268
 3,-1.283894\H,0,4.828072,6.992728,0.455008\H,0,3.995993,5.633103,1.229
 489\H,0,5.762982,5.719302,1.25848\H,0,4.069807,5.388493,-1.290626\H,0,
 5.812444,5.464677,-1.248524\H,0,7.541364,4.436128,-0.895477\H,0,8.1222
 95,3.350423,0.365575\H,0,8.138289,2.82842,-1.313448\H,0,7.920224,-3.67
 2008,0.735298\H,0,8.364814,-2.551514,-0.551146\H,0,8.389628,-2.015117,
 1.123094\H,0,6.296309,-4.830796,1.189568\H,0,4.555333,-4.900405,1.2889
 36\H,0,4.422153,-5.205829,-1.222029\H,0,6.18854,-5.148627,-1.307956\H,
 0,5.386932,-6.475118,-0.448227\H,0,2.854084,-3.952244,0.674055\H,0,1.5
 45909,-1.524988,-0.648673\H,0,1.038233,-4.850003,1.204579\H,0,-1.07785
 1,-6.040275,1.233669\H,0,-2.842672,-2.996424,-1.256886\H,0,-0.709672,-
 1.795836,-1.279836\H,0,-4.810979,-6.735624,1.729931\H,0,-4.864917,-9.2
 04072,1.985309\H,0,-2.928218,-11.687478,-1.179326\H,0,-1.623121,-11.58
 2923,0.039821\H,0,-2.923743,-12.790139,0.222936\H,0,-1.915351,-9.57943
 2,-1.127454\H,0,-1.891687,-7.138596,-1.397596\H,0,-4.236374,-3.143899,
 1.254068\H,0,-6.42238,-2.063755,0.965078\H,0,-8.752904,-2.010871,1.077
 268\H,0,-8.128644,-0.958598,-0.22905\H,0,-9.789627,-1.602936,-0.315396
 \H,0,-7.499437,-5.027207,-1.96435\H,0,-5.27518,-6.091111,-1.697228\H,0
 ,2.48485,4.302109,-0.601978\H,0,1.393079,1.669698,0.507202\H,0,-0.8939
 4,1.57173,0.947418\H,0,-3.15204,2.521393,0.961744\H,0,-1.623511,6.1325
 76,-0.827833\H,0,0.615334,5.189564,-0.840887\H,0,-2.722174,6.632564,1.
 859755\H,0,-3.087789,9.07935,2.021431\H,0,-6.52542,10.839644,-0.223603
 \H,0,-5.455689,12.249481,0.001292\H,0,-5.170268,11.126752,-1.355429\H,
 0,-5.832122,8.88046,-1.288569\H,0,-5.439656,6.462805,-1.466318\H,0,-5.
 99526,5.006214,1.691139\H,0,-8.014864,3.615066,1.517119\H,0,-9.162847,
 1.558139,1.541516\H,0,-9.926139,2.788652,0.491377\H,0,-10.213122,1.054
 834,0.188701\H,0,-6.338688,1.618106,-1.90793\H,0,-4.316095,3.045174,-1
 .744562\H,0,8.146588,0.9599,1.970069\H,0,10.631873,1.058669,1.937587\H
 ,0,12.69678,0.328444,-1.16959\H,0,10.618471,-0.050348,-2.217867\H,0,8.
 135793,-0.166014,-2.181775\\Version=ES64L-G16RevA.03\State=1-A\HF=-337
 1.5196533\RMSD=9.354e-10\Dipole=-2.1870354,0.2393739,-0.9513983\Quadru
 pole=0.5789365,37.5190369,-38.0979733,-40.5554352,-31.0467913,-3.79794
 83\PG=C01 [X(C66H61B1F2N4O5)]\\@


 Make no judgements where you have no compassion.
                               -- Anne McCaffrey
 Job cpu time:       2 days  6 hours  9 minutes 40.2 seconds.
 Elapsed time:       0 days  0 hours 51 minutes 46.0 seconds.
 File lengths (MBytes):  RWF=   6995 Int=      0 D2E=      0 Chk=    618 Scr=      1
 Normal termination of Gaussian 16 at Thu Nov  6 22:44:34 2025.
