 Entering Gaussian System, Link 0=g16
 Input=M100035170_sp.gjf
 Output=M100035170_sp.log
 Initial command:
 /work/home/accqbws0vm/apprepo/gaussian/16-hy/scripts/../app/g16/l1.exe "/work/home/accqbws0vm/1010_second_energy/tmp_M100035170_sp_25874611/Gau-46058.inp" -scrdir="/work/home/accqbws0vm/1010_second_energy/tmp_M100035170_sp_25874611/"
 Entering Link 1 = /work/home/accqbws0vm/apprepo/gaussian/16-hy/scripts/../app/g16/l1.exe PID=     46059.
  
 Copyright (c) 1988,1990,1992,1993,1995,1998,2003,2009,2016,
            Gaussian, Inc.  All Rights Reserved.
  
 This is part of the Gaussian(R) 16 program.  It is based on
 the Gaussian(R) 09 system (copyright 2009, Gaussian, Inc.),
 the Gaussian(R) 03 system (copyright 2003, Gaussian, Inc.),
 the Gaussian(R) 98 system (copyright 1998, Gaussian, Inc.),
 the Gaussian(R) 94 system (copyright 1995, Gaussian, Inc.),
 the Gaussian 92(TM) system (copyright 1992, Gaussian, Inc.),
 the Gaussian 90(TM) system (copyright 1990, Gaussian, Inc.),
 the Gaussian 88(TM) system (copyright 1988, Gaussian, Inc.),
 the Gaussian 86(TM) system (copyright 1986, Carnegie Mellon
 University), and the Gaussian 82(TM) system (copyright 1983,
 Carnegie Mellon University). Gaussian is a federally registered
 trademark of Gaussian, Inc.
  
 This software contains proprietary and confidential information,
 including trade secrets, belonging to Gaussian, Inc.
  
 This software is provided under written license and may be
 used, copied, transmitted, or stored only in accord with that
 written license.
  
 The following legend is applicable only to US Government
 contracts under FAR:
  
                    RESTRICTED RIGHTS LEGEND
  
 Use, reproduction and disclosure by the US Government is
 subject to restrictions as set forth in subparagraphs (a)
 and (c) of the Commercial Computer Software - Restricted
 Rights clause in FAR 52.227-19.
  
 Gaussian, Inc.
 340 Quinnipiac St., Bldg. 40, Wallingford CT 06492
  
  
 ---------------------------------------------------------------
 Warning -- This program may not be used in any manner that
 competes with the business of Gaussian, Inc. or will provide
 assistance to any competitor of Gaussian, Inc.  The licensee
 of this program is prohibited from giving any competitor of
 Gaussian, Inc. access to this program.  By using this program,
 the user acknowledges that Gaussian, Inc. is engaged in the
 business of creating and licensing software in the field of
 computational chemistry and represents and warrants to the
 licensee that it is not a competitor of Gaussian, Inc. and that
 it will not use this program in any manner prohibited above.
 ---------------------------------------------------------------
  

 Cite this work as:
 Gaussian 16, Revision A.03,
 M. J. Frisch, G. W. Trucks, H. B. Schlegel, G. E. Scuseria, 
 M. A. Robb, J. R. Cheeseman, G. Scalmani, V. Barone, 
 G. A. Petersson, H. Nakatsuji, X. Li, M. Caricato, A. V. Marenich, 
 J. Bloino, B. G. Janesko, R. Gomperts, B. Mennucci, H. P. Hratchian, 
 J. V. Ortiz, A. F. Izmaylov, J. L. Sonnenberg, D. Williams-Young, 
 F. Ding, F. Lipparini, F. Egidi, J. Goings, B. Peng, A. Petrone, 
 T. Henderson, D. Ranasinghe, V. G. Zakrzewski, J. Gao, N. Rega, 
 G. Zheng, W. Liang, M. Hada, M. Ehara, K. Toyota, R. Fukuda, 
 J. Hasegawa, M. Ishida, T. Nakajima, Y. Honda, O. Kitao, H. Nakai, 
 T. Vreven, K. Throssell, J. A. Montgomery, Jr., J. E. Peralta, 
 F. Ogliaro, M. J. Bearpark, J. J. Heyd, E. N. Brothers, K. N. Kudin, 
 V. N. Staroverov, T. A. Keith, R. Kobayashi, J. Normand, 
 K. Raghavachari, A. P. Rendell, J. C. Burant, S. S. Iyengar, 
 J. Tomasi, M. Cossi, J. M. Millam, M. Klene, C. Adamo, R. Cammi, 
 J. W. Ochterski, R. L. Martin, K. Morokuma, O. Farkas, 
 J. B. Foresman, and D. J. Fox, Gaussian, Inc., Wallingford CT, 2016.
 
 ******************************************
 Gaussian 16:  ES64L-G16RevA.03 25-Dec-2016
                11-Oct-2025 
 ******************************************
 %nprocshared=64
 Will use up to   64 processors via shared memory.
 %mem=230GB
 %chk=M100035170_sp.chk
 ----------------------------------------------
 #p M062X/DEF2TZVPP scrf=(solvent=water) em=GD3
 ----------------------------------------------
 1/38=1,172=1/1;
 2/12=2,17=6,18=5,40=1/2;
 3/5=44,7=202,11=2,25=1,30=1,70=2201,72=1,74=-55,124=31/1,2,3;
 4//1;
 5/5=2,38=5,53=1/2;
 6/7=2,8=2,9=2,10=2,28=1/1;
 99/5=1,9=1/99;
 Leave Link    1 at Sat Oct 11 00:03:41 2025, MaxMem= 30870077440 cpu:               6.4 elap:               0.1
 (Enter /work/home/accqbws0vm/apprepo/gaussian/16-hy/scripts/../app/g16/l101.exe)
 ---------------------------------
 Energy calculation for M100035170
 ---------------------------------
 Symbolic Z-matrix:
 Charge =  0 Multiplicity = 1
 C                     3.99651  -3.66772   0.51457 
 C                     2.60121  -3.13432   0.38494 
 C                     1.45835  -3.9032    0.52243 
 C                     0.31931  -3.08509   0.32881 
 C                    -1.02086  -3.61452   0.36602 
 C                    -2.17709  -3.06882  -0.09477 
 C                    -3.4966   -3.67744  -0.02514 
 C                    -4.57387  -3.0408   -0.67696 
 C                    -5.85679  -3.56969  -0.66405 
 C                    -6.12784  -4.76725   0.02428 
 N                    -7.42852  -5.31082   0.05319 
 C                    -7.62318  -6.72363   0.0836 
 C                    -6.8879   -7.56409  -0.76706 
 C                    -7.08553  -8.94387  -0.73071 
 C                    -8.02782  -9.50352   0.13596 
 C                    -8.76789  -8.66698   0.97532 
 C                    -8.5649   -7.28763   0.95832 
 C                    -8.57189  -4.45751   0.04812 
 C                    -9.66382  -4.7445   -0.78561 
 C                    -10.78943  -3.92143  -0.7748 
 C                    -10.83755  -2.79591   0.05138 
 C                    -9.74804  -2.50508   0.87655 
 C                    -8.62549  -3.33193   0.88524 
 C                    -5.06266  -5.40752   0.69311 
 C                    -3.78323  -4.87683   0.6643 
 N                     0.74585  -1.80228   0.10227 
 C                     2.14845  -1.79767   0.12543 
 C                     2.87364  -0.60156  -0.039 
 C                     4.36694  -0.64272  -0.08767 
 C                     5.12197  -0.36074   1.0595 
 C                     6.51519  -0.39101   1.01737 
 C                     7.13621  -0.70605  -0.1867 
 O                     8.54956  -0.80217  -0.2095 
 S                     9.35446   0.53802  -0.74078 
 O                     9.23335   0.60308  -2.19653 
 O                     8.93104   1.66976   0.08188 
 C                     11.01315  -0.02038  -0.25496 
 C                     12.09238   0.8679   -0.08639 
 N                     11.99998   2.29611  -0.41243 
 O                     11.1682   2.63068  -1.25553 
 O                     12.77353   3.06722   0.14847 
 C                     13.33002   0.42234   0.35242 
 C                     13.48902  -0.93602   0.59138 
 N                     14.80307  -1.41778   1.0437 
 O                     14.92533  -2.62028   1.27151 
 O                     15.7065  -0.5921    1.17034 
 C                     12.45821  -1.84637   0.41137 
 C                     11.21272  -1.37849  -0.00747 
 C                     6.41723  -0.99355  -1.34269 
 C                     5.02414  -0.96097  -1.284 
 C                     2.21527   0.63201  -0.14537 
 C                     2.70968   1.97172  -0.33119 
 C                     4.1199    2.45112  -0.49768 
 C                     1.60002   2.79719  -0.33268 
 C                     0.43748   2.00115  -0.15583 
 C                    -0.93677   2.41541  -0.06857 
 C                    -1.34906   3.6944   -0.27535 
 C                    -2.70873   4.19627  -0.18631 
 C                    -2.95047   5.56391  -0.43536 
 C                    -4.22494   6.10755  -0.36765 
 C                    -5.32887   5.29905  -0.03521 
 N                    -6.62687   5.84069   0.04528 
 C                    -7.76406   5.05781  -0.31423 
 C                    -8.90892   5.06178   0.49757 
 C                    -10.02668   4.31064   0.13624 
 C                    -10.01501   3.53546  -1.02605 
 C                    -8.87366   3.52632  -1.83199 
 C                    -7.7574    4.28759  -1.48777 
 C                    -6.82647   7.18186   0.49039 
 C                    -7.70507   8.0312   -0.19939 
 C                    -7.91474   9.33515   0.24816 
 C                    -7.2434    9.81469   1.37557 
 C                    -6.3636    8.97161   2.05944 
 C                    -6.16044   7.66106   1.62925 
 C                    -5.10049   3.9294    0.21984 
 C                    -3.82531   3.3949    0.14218 
 N                     0.82508   0.69642  -0.04869 
 B                    -0.12343  -0.528    -0.0464 
 F                    -1.0328   -0.43036   1.01676 
 F                    -0.83927  -0.55175  -1.26068 
 H                     4.5597   -3.58043  -0.41956 
 H                     4.56973  -3.1413    1.2834 
 H                     3.95671  -4.72594   0.78611 
 H                     1.42097  -4.96567   0.72435 
 H                    -1.04926  -4.61835   0.7835 
 H                    -2.14345  -2.1084   -0.59595 
 H                    -4.38914  -2.11802  -1.22038 
 H                    -6.65394  -3.05913  -1.19251 
 H                    -6.1672   -7.13454  -1.45495 
 H                    -6.5096   -9.58125  -1.3952 
 H                    -8.18436  -10.57752   0.15591 
 H                    -9.49974  -9.08864   1.65803 
 H                    -9.133    -6.64411   1.62194 
 H                    -9.627    -5.60983  -1.43912 
 H                    -11.62658  -4.1565   -1.4255 
 H                    -11.71295  -2.15398   0.05289 
 H                    -9.77503  -1.63826   1.53029 
 H                    -7.78983  -3.10988   1.54054 
 H                    -5.25042  -6.31985   1.24822 
 H                    -2.99828  -5.39215   1.20888 
 H                     4.61914  -0.11803   1.98979 
 H                     7.10997  -0.1797    1.89869 
 H                     14.14734   1.11819   0.48328 
 H                     12.61226  -2.90115   0.5983 
 H                     10.40179  -2.08274  -0.12583 
 H                     6.93402  -1.24637  -2.26124 
 H                     4.44576  -1.18574  -2.174 
 H                     4.63993   1.92449  -1.30321 
 H                     4.11713   3.5185   -0.7335 
 H                     4.71244   2.30875   0.41138 
 H                     1.61356   3.8735   -0.43462 
 H                    -1.65645   1.64836   0.19304 
 H                    -0.60518   4.44446  -0.53743 
 H                    -2.11514   6.2062   -0.70108 
 H                    -4.37186   7.16054  -0.57972 
 H                    -8.91862   5.65148   1.40826 
 H                    -10.90513   4.32298   0.77472 
 H                    -10.88483   2.94713  -1.30115 
 H                    -8.85429   2.9356   -2.74309 
 H                    -6.88042   4.28985  -2.12661 
 H                    -8.21912   7.66786  -1.08312 
 H                    -8.59724   9.98132  -0.29601 
 H                    -7.40438   10.83225   1.71773 
 H                    -5.8421    9.32846   2.94271 
 H                    -5.48901   7.00566   2.17408 
 H                    -5.93276   3.28953   0.49061 
 H                    -3.693     2.33907   0.35589 
 
 ITRead=  0  0  0  0  0  0  0  0  0  0  0  0  0  0  0  0  0  0  0  0
 ITRead=  0  0  0  0  0  0  0  0  0  0  0  0  0  0  0  0  0  0  0  0
 ITRead=  0  0  0  0  0  0  0  0  0  0  0  0  0  0  0  0  0  0  0  0
 ITRead=  0  0  0  0  0  0  0  0  0  0  0  0  0  0  0  0  0  0  0  0
 ITRead=  0  0  0  0  0  0  0  0  0  0  0  0  0  0  0  0  0  0  0  0
 ITRead=  0  0  0  0  0  0  0  0  0  0  0  0  0  0  0  0  0  0  0  0
 ITRead=  0  0  0  0  0  0  0
 MicOpt= -1 -1 -1 -1 -1 -1 -1 -1 -1 -1 -1 -1 -1 -1 -1 -1 -1 -1 -1 -1
 MicOpt= -1 -1 -1 -1 -1 -1 -1 -1 -1 -1 -1 -1 -1 -1 -1 -1 -1 -1 -1 -1
 MicOpt= -1 -1 -1 -1 -1 -1 -1 -1 -1 -1 -1 -1 -1 -1 -1 -1 -1 -1 -1 -1
 MicOpt= -1 -1 -1 -1 -1 -1 -1 -1 -1 -1 -1 -1 -1 -1 -1 -1 -1 -1 -1 -1
 MicOpt= -1 -1 -1 -1 -1 -1 -1 -1 -1 -1 -1 -1 -1 -1 -1 -1 -1 -1 -1 -1
 MicOpt= -1 -1 -1 -1 -1 -1 -1 -1 -1 -1 -1 -1 -1 -1 -1 -1 -1 -1 -1 -1
 MicOpt= -1 -1 -1 -1 -1 -1 -1
 NAtoms=    127 NQM=      127 NQMF=       0 NMMI=      0 NMMIF=      0
                NMic=       0 NMicF=      0.
                    Isotopes and Nuclear Properties:
 (Nuclear quadrupole moments (NQMom) in fm**2, nuclear magnetic moments (NMagM)
  in nuclear magnetons)

  Atom         1           2           3           4           5           6           7           8           9          10
 IAtWgt=          12          12          12          12          12          12          12          12          12          12
 AtmWgt=  12.0000000  12.0000000  12.0000000  12.0000000  12.0000000  12.0000000  12.0000000  12.0000000  12.0000000  12.0000000
 NucSpn=           0           0           0           0           0           0           0           0           0           0
 AtZEff=  -0.0000000  -0.0000000  -0.0000000  -0.0000000  -0.0000000  -0.0000000  -0.0000000  -0.0000000  -0.0000000  -0.0000000
 NQMom=    0.0000000   0.0000000   0.0000000   0.0000000   0.0000000   0.0000000   0.0000000   0.0000000   0.0000000   0.0000000
 NMagM=    0.0000000   0.0000000   0.0000000   0.0000000   0.0000000   0.0000000   0.0000000   0.0000000   0.0000000   0.0000000
 AtZNuc=   6.0000000   6.0000000   6.0000000   6.0000000   6.0000000   6.0000000   6.0000000   6.0000000   6.0000000   6.0000000

  Atom        11          12          13          14          15          16          17          18          19          20
 IAtWgt=          14          12          12          12          12          12          12          12          12          12
 AtmWgt=  14.0030740  12.0000000  12.0000000  12.0000000  12.0000000  12.0000000  12.0000000  12.0000000  12.0000000  12.0000000
 NucSpn=           2           0           0           0           0           0           0           0           0           0
 AtZEff=  -0.0000000  -0.0000000  -0.0000000  -0.0000000  -0.0000000  -0.0000000  -0.0000000  -0.0000000  -0.0000000  -0.0000000
 NQMom=    2.0440000   0.0000000   0.0000000   0.0000000   0.0000000   0.0000000   0.0000000   0.0000000   0.0000000   0.0000000
 NMagM=    0.4037610   0.0000000   0.0000000   0.0000000   0.0000000   0.0000000   0.0000000   0.0000000   0.0000000   0.0000000
 AtZNuc=   7.0000000   6.0000000   6.0000000   6.0000000   6.0000000   6.0000000   6.0000000   6.0000000   6.0000000   6.0000000

  Atom        21          22          23          24          25          26          27          28          29          30
 IAtWgt=          12          12          12          12          12          14          12          12          12          12
 AtmWgt=  12.0000000  12.0000000  12.0000000  12.0000000  12.0000000  14.0030740  12.0000000  12.0000000  12.0000000  12.0000000
 NucSpn=           0           0           0           0           0           2           0           0           0           0
 AtZEff=  -0.0000000  -0.0000000  -0.0000000  -0.0000000  -0.0000000  -0.0000000  -0.0000000  -0.0000000  -0.0000000  -0.0000000
 NQMom=    0.0000000   0.0000000   0.0000000   0.0000000   0.0000000   2.0440000   0.0000000   0.0000000   0.0000000   0.0000000
 NMagM=    0.0000000   0.0000000   0.0000000   0.0000000   0.0000000   0.4037610   0.0000000   0.0000000   0.0000000   0.0000000
 AtZNuc=   6.0000000   6.0000000   6.0000000   6.0000000   6.0000000   7.0000000   6.0000000   6.0000000   6.0000000   6.0000000

  Atom        31          32          33          34          35          36          37          38          39          40
 IAtWgt=          12          12          16          32          16          16          12          12          14          16
 AtmWgt=  12.0000000  12.0000000  15.9949146  31.9720718  15.9949146  15.9949146  12.0000000  12.0000000  14.0030740  15.9949146
 NucSpn=           0           0           0           0           0           0           0           0           2           0
 AtZEff=  -0.0000000  -0.0000000  -0.0000000  -0.0000000  -0.0000000  -0.0000000  -0.0000000  -0.0000000  -0.0000000  -0.0000000
 NQMom=    0.0000000   0.0000000   0.0000000   0.0000000   0.0000000   0.0000000   0.0000000   0.0000000   2.0440000   0.0000000
 NMagM=    0.0000000   0.0000000   0.0000000   0.0000000   0.0000000   0.0000000   0.0000000   0.0000000   0.4037610   0.0000000
 AtZNuc=   6.0000000   6.0000000   8.0000000  16.0000000   8.0000000   8.0000000   6.0000000   6.0000000   7.0000000   8.0000000

  Atom        41          42          43          44          45          46          47          48          49          50
 IAtWgt=          16          12          12          14          16          16          12          12          12          12
 AtmWgt=  15.9949146  12.0000000  12.0000000  14.0030740  15.9949146  15.9949146  12.0000000  12.0000000  12.0000000  12.0000000
 NucSpn=           0           0           0           2           0           0           0           0           0           0
 AtZEff=  -0.0000000  -0.0000000  -0.0000000  -0.0000000  -0.0000000  -0.0000000  -0.0000000  -0.0000000  -0.0000000  -0.0000000
 NQMom=    0.0000000   0.0000000   0.0000000   2.0440000   0.0000000   0.0000000   0.0000000   0.0000000   0.0000000   0.0000000
 NMagM=    0.0000000   0.0000000   0.0000000   0.4037610   0.0000000   0.0000000   0.0000000   0.0000000   0.0000000   0.0000000
 AtZNuc=   8.0000000   6.0000000   6.0000000   7.0000000   8.0000000   8.0000000   6.0000000   6.0000000   6.0000000   6.0000000

  Atom        51          52          53          54          55          56          57          58          59          60
 IAtWgt=          12          12          12          12          12          12          12          12          12          12
 AtmWgt=  12.0000000  12.0000000  12.0000000  12.0000000  12.0000000  12.0000000  12.0000000  12.0000000  12.0000000  12.0000000
 NucSpn=           0           0           0           0           0           0           0           0           0           0
 AtZEff=  -0.0000000  -0.0000000  -0.0000000  -0.0000000  -0.0000000  -0.0000000  -0.0000000  -0.0000000  -0.0000000  -0.0000000
 NQMom=    0.0000000   0.0000000   0.0000000   0.0000000   0.0000000   0.0000000   0.0000000   0.0000000   0.0000000   0.0000000
 NMagM=    0.0000000   0.0000000   0.0000000   0.0000000   0.0000000   0.0000000   0.0000000   0.0000000   0.0000000   0.0000000
 AtZNuc=   6.0000000   6.0000000   6.0000000   6.0000000   6.0000000   6.0000000   6.0000000   6.0000000   6.0000000   6.0000000

  Atom        61          62          63          64          65          66          67          68          69          70
 IAtWgt=          12          14          12          12          12          12          12          12          12          12
 AtmWgt=  12.0000000  14.0030740  12.0000000  12.0000000  12.0000000  12.0000000  12.0000000  12.0000000  12.0000000  12.0000000
 NucSpn=           0           2           0           0           0           0           0           0           0           0
 AtZEff=  -0.0000000  -0.0000000  -0.0000000  -0.0000000  -0.0000000  -0.0000000  -0.0000000  -0.0000000  -0.0000000  -0.0000000
 NQMom=    0.0000000   2.0440000   0.0000000   0.0000000   0.0000000   0.0000000   0.0000000   0.0000000   0.0000000   0.0000000
 NMagM=    0.0000000   0.4037610   0.0000000   0.0000000   0.0000000   0.0000000   0.0000000   0.0000000   0.0000000   0.0000000
 AtZNuc=   6.0000000   7.0000000   6.0000000   6.0000000   6.0000000   6.0000000   6.0000000   6.0000000   6.0000000   6.0000000

  Atom        71          72          73          74          75          76          77          78          79          80
 IAtWgt=          12          12          12          12          12          12          14          11          19          19
 AtmWgt=  12.0000000  12.0000000  12.0000000  12.0000000  12.0000000  12.0000000  14.0030740  11.0093053  18.9984032  18.9984032
 NucSpn=           0           0           0           0           0           0           2           3           1           1
 AtZEff=  -0.0000000  -0.0000000  -0.0000000  -0.0000000  -0.0000000  -0.0000000  -0.0000000  -0.0000000  -0.0000000  -0.0000000
 NQMom=    0.0000000   0.0000000   0.0000000   0.0000000   0.0000000   0.0000000   2.0440000   4.0590000   0.0000000   0.0000000
 NMagM=    0.0000000   0.0000000   0.0000000   0.0000000   0.0000000   0.0000000   0.4037610   2.6886370   2.6288670   2.6288670
 AtZNuc=   6.0000000   6.0000000   6.0000000   6.0000000   6.0000000   6.0000000   7.0000000   5.0000000   9.0000000   9.0000000

  Atom        81          82          83          84          85          86          87          88          89          90
 IAtWgt=           1           1           1           1           1           1           1           1           1           1
 AtmWgt=   1.0078250   1.0078250   1.0078250   1.0078250   1.0078250   1.0078250   1.0078250   1.0078250   1.0078250   1.0078250
 NucSpn=           1           1           1           1           1           1           1           1           1           1
 AtZEff=  -0.0000000  -0.0000000  -0.0000000  -0.0000000  -0.0000000  -0.0000000  -0.0000000  -0.0000000  -0.0000000  -0.0000000
 NQMom=    0.0000000   0.0000000   0.0000000   0.0000000   0.0000000   0.0000000   0.0000000   0.0000000   0.0000000   0.0000000
 NMagM=    2.7928460   2.7928460   2.7928460   2.7928460   2.7928460   2.7928460   2.7928460   2.7928460   2.7928460   2.7928460
 AtZNuc=   1.0000000   1.0000000   1.0000000   1.0000000   1.0000000   1.0000000   1.0000000   1.0000000   1.0000000   1.0000000

  Atom        91          92          93          94          95          96          97          98          99         100
 IAtWgt=           1           1           1           1           1           1           1           1           1           1
 AtmWgt=   1.0078250   1.0078250   1.0078250   1.0078250   1.0078250   1.0078250   1.0078250   1.0078250   1.0078250   1.0078250
 NucSpn=           1           1           1           1           1           1           1           1           1           1
 AtZEff=  -0.0000000  -0.0000000  -0.0000000  -0.0000000  -0.0000000  -0.0000000  -0.0000000  -0.0000000  -0.0000000  -0.0000000
 NQMom=    0.0000000   0.0000000   0.0000000   0.0000000   0.0000000   0.0000000   0.0000000   0.0000000   0.0000000   0.0000000
 NMagM=    2.7928460   2.7928460   2.7928460   2.7928460   2.7928460   2.7928460   2.7928460   2.7928460   2.7928460   2.7928460
 AtZNuc=   1.0000000   1.0000000   1.0000000   1.0000000   1.0000000   1.0000000   1.0000000   1.0000000   1.0000000   1.0000000

  Atom       101         102         103         104         105         106         107         108         109         110
 IAtWgt=           1           1           1           1           1           1           1           1           1           1
 AtmWgt=   1.0078250   1.0078250   1.0078250   1.0078250   1.0078250   1.0078250   1.0078250   1.0078250   1.0078250   1.0078250
 NucSpn=           1           1           1           1           1           1           1           1           1           1
 AtZEff=  -0.0000000  -0.0000000  -0.0000000  -0.0000000  -0.0000000  -0.0000000  -0.0000000  -0.0000000  -0.0000000  -0.0000000
 NQMom=    0.0000000   0.0000000   0.0000000   0.0000000   0.0000000   0.0000000   0.0000000   0.0000000   0.0000000   0.0000000
 NMagM=    2.7928460   2.7928460   2.7928460   2.7928460   2.7928460   2.7928460   2.7928460   2.7928460   2.7928460   2.7928460
 AtZNuc=   1.0000000   1.0000000   1.0000000   1.0000000   1.0000000   1.0000000   1.0000000   1.0000000   1.0000000   1.0000000

  Atom       111         112         113         114         115         116         117         118         119         120
 IAtWgt=           1           1           1           1           1           1           1           1           1           1
 AtmWgt=   1.0078250   1.0078250   1.0078250   1.0078250   1.0078250   1.0078250   1.0078250   1.0078250   1.0078250   1.0078250
 NucSpn=           1           1           1           1           1           1           1           1           1           1
 AtZEff=  -0.0000000  -0.0000000  -0.0000000  -0.0000000  -0.0000000  -0.0000000  -0.0000000  -0.0000000  -0.0000000  -0.0000000
 NQMom=    0.0000000   0.0000000   0.0000000   0.0000000   0.0000000   0.0000000   0.0000000   0.0000000   0.0000000   0.0000000
 NMagM=    2.7928460   2.7928460   2.7928460   2.7928460   2.7928460   2.7928460   2.7928460   2.7928460   2.7928460   2.7928460
 AtZNuc=   1.0000000   1.0000000   1.0000000   1.0000000   1.0000000   1.0000000   1.0000000   1.0000000   1.0000000   1.0000000

  Atom       121         122         123         124         125         126         127
 IAtWgt=           1           1           1           1           1           1           1
 AtmWgt=   1.0078250   1.0078250   1.0078250   1.0078250   1.0078250   1.0078250   1.0078250
 NucSpn=           1           1           1           1           1           1           1
 AtZEff=  -0.0000000  -0.0000000  -0.0000000  -0.0000000  -0.0000000  -0.0000000  -0.0000000
 NQMom=    0.0000000   0.0000000   0.0000000   0.0000000   0.0000000   0.0000000   0.0000000
 NMagM=    2.7928460   2.7928460   2.7928460   2.7928460   2.7928460   2.7928460   2.7928460
 AtZNuc=   1.0000000   1.0000000   1.0000000   1.0000000   1.0000000   1.0000000   1.0000000
 Leave Link  101 at Sat Oct 11 00:03:42 2025, MaxMem= 30870077440 cpu:               5.9 elap:               0.1
 (Enter /work/home/accqbws0vm/apprepo/gaussian/16-hy/scripts/../app/g16/l202.exe)
 Stoichiometry    C63H47BF2N6O7S
 Framework group  C1[X(C63H47BF2N6O7S)]
 Deg. of freedom   375
 Full point group                 C1      NOp   1
 Largest Abelian subgroup         C1      NOp   1
 Largest concise Abelian subgroup C1      NOp   1
                         Standard orientation:                         
 ---------------------------------------------------------------------
 Center     Atomic      Atomic             Coordinates (Angstroms)
 Number     Number       Type             X           Y           Z
 ---------------------------------------------------------------------
      1          6           0       -3.996512   -3.667723   -0.514571
      2          6           0       -2.601211   -3.134319   -0.384940
      3          6           0       -1.458347   -3.903201   -0.522430
      4          6           0       -0.319308   -3.085092   -0.328809
      5          6           0        1.020863   -3.614518   -0.366020
      6          6           0        2.177093   -3.068822    0.094768
      7          6           0        3.496600   -3.677437    0.025143
      8          6           0        4.573866   -3.040803    0.676959
      9          6           0        5.856789   -3.569690    0.664049
     10          6           0        6.127845   -4.767254   -0.024281
     11          7           0        7.428524   -5.310816   -0.053188
     12          6           0        7.623183   -6.723627   -0.083597
     13          6           0        6.887903   -7.564091    0.767055
     14          6           0        7.085532   -8.943868    0.730712
     15          6           0        8.027816   -9.503517   -0.135958
     16          6           0        8.767892   -8.666981   -0.975315
     17          6           0        8.564896   -7.287625   -0.958315
     18          6           0        8.571893   -4.457507   -0.048119
     19          6           0        9.663822   -4.744504    0.785608
     20          6           0       10.789426   -3.921428    0.774800
     21          6           0       10.837548   -2.795912   -0.051379
     22          6           0        9.748038   -2.505083   -0.876550
     23          6           0        8.625492   -3.331928   -0.885237
     24          6           0        5.062665   -5.407521   -0.693107
     25          6           0        3.783229   -4.876831   -0.664301
     26          7           0       -0.745851   -1.802283   -0.102270
     27          6           0       -2.148454   -1.797669   -0.125425
     28          6           0       -2.873638   -0.601562    0.038999
     29          6           0       -4.366938   -0.642715    0.087673
     30          6           0       -5.121975   -0.360741   -1.059502
     31          6           0       -6.515188   -0.391012   -1.017373
     32          6           0       -7.136207   -0.706051    0.186701
     33          8           0       -8.549559   -0.802165    0.209499
     34         16           0       -9.354456    0.538015    0.740780
     35          8           0       -9.233348    0.603075    2.196529
     36          8           0       -8.931038    1.669756   -0.081878
     37          6           0      -11.013152   -0.020375    0.254962
     38          6           0      -12.092383    0.867900    0.086388
     39          7           0      -11.999978    2.296110    0.412433
     40          8           0      -11.168200    2.630682    1.255533
     41          8           0      -12.773528    3.067219   -0.148465
     42          6           0      -13.330019    0.422343   -0.352420
     43          6           0      -13.489017   -0.936024   -0.591381
     44          7           0      -14.803066   -1.417777   -1.043698
     45          8           0      -14.925330   -2.620284   -1.271508
     46          8           0      -15.706504   -0.592103   -1.170337
     47          6           0      -12.458208   -1.846366   -0.411371
     48          6           0      -11.212718   -1.378487    0.007469
     49          6           0       -6.417231   -0.993548    1.342688
     50          6           0       -5.024141   -0.960966    1.284001
     51          6           0       -2.215273    0.632006    0.145371
     52          6           0       -2.709683    1.971724    0.331185
     53          6           0       -4.119901    2.451118    0.497676
     54          6           0       -1.600023    2.797189    0.332677
     55          6           0       -0.437484    2.001152    0.155825
     56          6           0        0.936769    2.415413    0.068567
     57          6           0        1.349060    3.694401    0.275352
     58          6           0        2.708725    4.196275    0.186307
     59          6           0        2.950469    5.563914    0.435362
     60          6           0        4.224941    6.107551    0.367649
     61          6           0        5.328874    5.299052    0.035210
     62          7           0        6.626865    5.840685   -0.045280
     63          6           0        7.764058    5.057811    0.314232
     64          6           0        8.908918    5.061777   -0.497574
     65          6           0       10.026684    4.310640   -0.136243
     66          6           0       10.015013    3.535455    1.026045
     67          6           0        8.873664    3.526316    1.831988
     68          6           0        7.757396    4.287591    1.487770
     69          6           0        6.826468    7.181862   -0.490394
     70          6           0        7.705066    8.031197    0.199389
     71          6           0        7.914736    9.335147   -0.248155
     72          6           0        7.243400    9.814687   -1.375567
     73          6           0        6.363603    8.971613   -2.059442
     74          6           0        6.160436    7.661061   -1.629246
     75          6           0        5.100492    3.929401   -0.219836
     76          6           0        3.825311    3.394898   -0.142182
     77          7           0       -0.825079    0.696417    0.048687
     78          5           0        0.123428   -0.527996    0.046400
     79          9           0        1.032803   -0.430362   -1.016763
     80          9           0        0.839274   -0.551745    1.260678
     81          1           0       -4.559697   -3.580428    0.419556
     82          1           0       -4.569730   -3.141304   -1.283396
     83          1           0       -3.956714   -4.725942   -0.786110
     84          1           0       -1.420967   -4.965667   -0.724348
     85          1           0        1.049255   -4.618349   -0.783495
     86          1           0        2.143448   -2.108396    0.595946
     87          1           0        4.389140   -2.118024    1.220381
     88          1           0        6.653939   -3.059131    1.192514
     89          1           0        6.167199   -7.134540    1.454946
     90          1           0        6.509598   -9.581253    1.395199
     91          1           0        8.184357  -10.577520   -0.155912
     92          1           0        9.499739   -9.088638   -1.658031
     93          1           0        9.133004   -6.644110   -1.621935
     94          1           0        9.626995   -5.609833    1.439115
     95          1           0       11.626575   -4.156495    1.425495
     96          1           0       11.712954   -2.153981   -0.052886
     97          1           0        9.775027   -1.638260   -1.530289
     98          1           0        7.789834   -3.109877   -1.540536
     99          1           0        5.250422   -6.319851   -1.248221
    100          1           0        2.998278   -5.392154   -1.208875
    101          1           0       -4.619141   -0.118029   -1.989786
    102          1           0       -7.109968   -0.179701   -1.898689
    103          1           0      -14.147340    1.118193   -0.483282
    104          1           0      -12.612263   -2.901145   -0.598299
    105          1           0      -10.401791   -2.082738    0.125829
    106          1           0       -6.934024   -1.246373    2.261238
    107          1           0       -4.445759   -1.185736    2.173999
    108          1           0       -4.639934    1.924491    1.303206
    109          1           0       -4.117132    3.518501    0.733503
    110          1           0       -4.712436    2.308746   -0.411377
    111          1           0       -1.613555    3.873503    0.434615
    112          1           0        1.656451    1.648362   -0.193043
    113          1           0        0.605177    4.444462    0.537432
    114          1           0        2.115140    6.206198    0.701083
    115          1           0        4.371860    7.160545    0.579715
    116          1           0        8.918619    5.651477   -1.408259
    117          1           0       10.905128    4.322982   -0.774721
    118          1           0       10.884829    2.947133    1.301148
    119          1           0        8.854294    2.935603    2.743089
    120          1           0        6.880415    4.289851    2.126614
    121          1           0        8.219120    7.667862    1.083120
    122          1           0        8.597237    9.981317    0.296010
    123          1           0        7.404383   10.832247   -1.717725
    124          1           0        5.842097    9.328460   -2.942711
    125          1           0        5.489009    7.005656   -2.174082
    126          1           0        5.932763    3.289531   -0.490605
    127          1           0        3.693000    2.339073   -0.355887
 ---------------------------------------------------------------------
 Rotational constants (GHZ):           0.0246837           0.0076203           0.0059191
 Leave Link  202 at Sat Oct 11 00:03:42 2025, MaxMem= 30870077440 cpu:               5.3 elap:               0.1
 (Enter /work/home/accqbws0vm/apprepo/gaussian/16-hy/scripts/../app/g16/l301.exe)
 Standard basis: def2TZVPP (5D, 7F)
 Ernie: Thresh=  0.10000D-02 Tol=  0.10000D-05 Strict=F.
 There are  3597 symmetry adapted cartesian basis functions of A   symmetry.
 There are  3149 symmetry adapted basis functions of A   symmetry.
  3149 basis functions,  4897 primitive gaussians,  3597 cartesian basis functions
   281 alpha electrons      281 beta electrons
       nuclear repulsion energy     11568.4686000748 Hartrees.
 IExCor= 4336 DFT=T Ex+Corr=M062X ExCW=0 ScaHFX=  0.540000
 ScaDFX=  1.000000  1.000000  1.000000  1.000000 ScalE2=  1.000000  1.000000
 IRadAn=      5 IRanWt=     -1 IRanGd=            0 ICorTp=0 IEmpDi=131
 NAtoms=  127 NActive=  127 NUniq=  127 SFac= 1.00D+00 NAtFMM=   60 NAOKFM=T Big=T
 Integral buffers will be    131072 words long.
 Raffenetti 2 integral format.
 Two-electron integral symmetry is turned on.
 R6Disp:  Grimme-D3 Dispersion energy=       -0.0117239055 Hartrees.
 Nuclear repulsion after empirical dispersion term =    11568.4568761693 Hartrees.
 ------------------------------------------------------------------------------
 Polarizable Continuum Model (PCM)
 =================================
 Model                : PCM.
 Atomic radii         : UFF (Universal Force Field).
 Polarization charges : Total charges.
 Charge compensation  : None.
 Solution method      : On-the-fly selection.
 Cavity type          : Scaled VdW (van der Waals Surface) (Alpha=1.100).
 Cavity algorithm     : GePol (No added spheres)
                        Default sphere list used, NSphG=  127.
                        Lebedev-Laikov grids with approx.  5.0 points / Ang**2.
                        Smoothing algorithm: York/Karplus (Gamma=1.0000).
                        Polarization charges: spherical gaussians, with
                                              point-specific exponents (IZeta= 3).
                        Self-potential: point-specific (ISelfS= 7).
                        Self-field    : sphere-specific E.n sum rule (ISelfD= 2).
 Solvent              : Water, Eps=  78.355300 Eps(inf)=   1.777849
 ------------------------------------------------------------------------------
 GePol: Number of generator spheres                  =     127
 GePol: Total number of spheres                      =     127
 GePol: Number of exposed spheres                    =     127 (100.00%)
 GePol: Number of points                             =    9275
 GePol: Average weight of points                     =       0.13
 GePol: Minimum weight of points                     =   0.88D-10
 GePol: Maximum weight of points                     =    0.20577
 GePol: Number of points with low weight             =     613
 GePol: Fraction of low-weight points (<1% of avg)   =       6.61%
 GePol: Cavity surface area                          =   1177.720 Ang**2
 GePol: Cavity volume                                =   1379.850 Ang**3
 Leave Link  301 at Sat Oct 11 00:03:42 2025, MaxMem= 30870077440 cpu:              12.2 elap:               0.2
 (Enter /work/home/accqbws0vm/apprepo/gaussian/16-hy/scripts/../app/g16/l302.exe)
 NPDir=0 NMtPBC=     1 NCelOv=     1 NCel=       1 NClECP=     1 NCelD=      1
         NCelK=      1 NCelE2=     1 NClLst=     1 CellRange=     0.0.
 One-electron integrals computed using PRISM.
 One-electron integral symmetry used in STVInt
   1 Symmetry operations used in ECPInt.
 ECPInt:  NShTT=  679195 NPrTT= 1969050 LenC2=  291882 LenP2D=  545943.
 LDataN:  DoStor=T MaxTD1= 6 Len=  172
 Number of processors reduced to  53 by ecpmxn.
 NBasis=  3149 RedAO= T EigKep=  3.82D-06  NBF=  3149
 NBsUse=  3149 1.00D-06 EigRej= -1.00D+00 NBFU=  3149
 Precomputing XC quadrature grid using
 IXCGrd= 4 IRadAn=           5 IRanWt=          -1 IRanGd=           0 AccXCQ= 0.00D+00.
 Generated NRdTot=       0 NPtTot=           0 NUsed=           0 NTot=          32
 NSgBfM=  2637  2637  2637  2637  2637 MxSgAt=   127 MxSgA2=   127.
 Leave Link  302 at Sat Oct 11 00:04:23 2025, MaxMem= 30870077440 cpu:            2624.4 elap:              41.2
 (Enter /work/home/accqbws0vm/apprepo/gaussian/16-hy/scripts/../app/g16/l303.exe)
 DipDrv:  MaxL=1.
 Leave Link  303 at Sat Oct 11 00:04:25 2025, MaxMem= 30870077440 cpu:              76.6 elap:               1.4
 (Enter /work/home/accqbws0vm/apprepo/gaussian/16-hy/scripts/../app/g16/l401.exe)
 ExpMin= 6.06D-02 ExpMax= 6.07D+04 ExpMxC= 2.07D+03 IAcc=3 IRadAn=         5 AccDes= 0.00D+00
 Harris functional with IExCor= 1009 and IRadAn=       5 diagonalized for initial guess.
 HarFok:  IExCor= 1009 AccDes= 0.00D+00 IRadAn=         5 IDoV= 1 UseB2=F ITyADJ=14
 ICtDFT=  3500011 ScaDFX=  1.000000  1.000000  1.000000  1.000000
 FoFCou: FMM=F IPFlag=           0 FMFlag=      100000 FMFlg1=        2001
         NFxFlg=           0 DoJE=T BraDBF=F KetDBF=T FulRan=T
         wScrn=  0.000000 ICntrl=       500 IOpCl=  0 I1Cent=   200000004 NGrid=           0
         NMat0=    1 NMatS0=      1 NMatT0=    0 NMatD0=    1 NMtDS0=    0 NMtDT0=    0
 Petite list used in FoFCou.
 Harris En= -3904.91709585927    
 JPrj=0 DoOrth=F DoCkMO=F.
 Leave Link  401 at Sat Oct 11 00:04:54 2025, MaxMem= 30870077440 cpu:            1878.1 elap:              29.5
 (Enter /work/home/accqbws0vm/apprepo/gaussian/16-hy/scripts/../app/g16/l502.exe)
 Integral symmetry usage will be decided dynamically.
 Closed shell SCF:
 Using DIIS extrapolation, IDIIS=  1040.
 NGot= 30870077440 LenX= 30843940409 LenY= 30830998403
 Requested convergence on RMS density matrix=1.00D-08 within 128 cycles.
 Requested convergence on MAX density matrix=1.00D-06.
 Requested convergence on             energy=1.00D-06.
 No special actions if energy rises.
 Fock matrices will be formed incrementally for  20 cycles.

 Cycle   1  Pass 1  IDiag  1:
 FoFJK:  IHMeth= 1 ICntrl=       0 DoSepK=F KAlg= 0 I1Cent=           0 FoldK=F
 IRaf= 380000000 NMat=       1 IRICut=       1 DoRegI=T DoRafI=F ISym2E= 0 IDoP0=0 IntGTp=1.
 FoFCou: FMM=T IPFlag=           0 FMFlag=      100000 FMFlg1=        2001
         NFxFlg=           0 DoJE=F BraDBF=F KetDBF=F FulRan=T
         wScrn=  0.000000 ICntrl=         0 IOpCl=  0 I1Cent=           0 NGrid=           0
         NMat0=    1 NMatS0=      1 NMatT0=    0 NMatD0=    1 NMtDS0=    0 NMtDT0=    0
 Symmetry not used in FoFCou.
 FMM levels:  10  Number of levels for PrismC:   9
 Inv3:  Mode=1 IEnd=   258076875.
 Iteration    1 A*A^-1 deviation from unit magnitude is 3.77D-15 for   5693.
 Iteration    1 A*A^-1 deviation from orthogonality  is 3.11D-15 for   5481   1430.
 Iteration    1 A^-1*A deviation from unit magnitude is 3.77D-15 for   5360.
 Iteration    1 A^-1*A deviation from orthogonality  is 9.26D-14 for   7181   7129.
 E= -3904.68225828841    
 DIIS: error= 3.18D-02 at cycle   1 NSaved=   1.
 NSaved= 1 IEnMin= 1 EnMin= -3904.68225828841     IErMin= 1 ErrMin= 3.18D-02
 ErrMax= 3.18D-02  0.00D+00 EMaxC= 1.00D-01 BMatC= 2.75D+00 BMatP= 2.75D+00
 IDIUse=3 WtCom= 6.82D-01 WtEn= 3.18D-01
 Coeff-Com:  0.100D+01
 Coeff-En:   0.100D+01
 Coeff:      0.100D+01
 Gap=     0.127 Goal=   None    Shift=    0.000
 GapD=    0.127 DampG=1.000 DampE=0.500 DampFc=0.5000 IDamp=-1.
 Damping current iteration by 5.00D-01
 RMSDP=1.08D-03 MaxDP=3.26D-01              OVMax= 2.59D-01

 Cycle   2  Pass 1  IDiag  1:
 RMSU=  5.39D-04    CP:  9.91D-01
 E= -3905.61739501890     Delta-E=       -0.935136730495 Rises=F Damp=T
 DIIS: error= 5.62D-03 at cycle   2 NSaved=   2.
 NSaved= 2 IEnMin= 2 EnMin= -3905.61739501890     IErMin= 2 ErrMin= 5.62D-03
 ErrMax= 5.62D-03  0.00D+00 EMaxC= 1.00D-01 BMatC= 2.84D-01 BMatP= 2.75D+00
 IDIUse=3 WtCom= 9.44D-01 WtEn= 5.62D-02
 Coeff-Com: -0.512D-03 0.100D+01
 Coeff-En:   0.259D-01 0.974D+00
 Coeff:      0.971D-03 0.999D+00
 Gap=     0.126 Goal=   None    Shift=    0.000
 RMSDP=4.72D-04 MaxDP=9.25D-02 DE=-9.35D-01 OVMax= 1.90D-01

 Cycle   3  Pass 1  IDiag  1:
 RMSU=  4.55D-04    CP:  9.74D-01  1.22D+00
 E= -3906.60953126222     Delta-E=       -0.992136243314 Rises=F Damp=F
 DIIS: error= 8.74D-03 at cycle   3 NSaved=   3.
 NSaved= 3 IEnMin= 3 EnMin= -3906.60953126222     IErMin= 2 ErrMin= 5.62D-03
 ErrMax= 8.74D-03  0.00D+00 EMaxC= 1.00D-01 BMatC= 1.76D-01 BMatP= 2.84D-01
 IDIUse=3 WtCom= 9.13D-01 WtEn= 8.74D-02
 Coeff-Com: -0.962D-01 0.470D+00 0.626D+00
 Coeff-En:   0.000D+00 0.000D+00 0.100D+01
 Coeff:     -0.878D-01 0.429D+00 0.659D+00
 Gap=     0.122 Goal=   None    Shift=    0.000
 RMSDP=1.79D-04 MaxDP=5.56D-02 DE=-9.92D-01 OVMax= 6.07D-02

 Cycle   4  Pass 1  IDiag  1:
 RMSU=  1.55D-04    CP:  9.78D-01  1.32D+00  8.49D-01
 E= -3906.72923459025     Delta-E=       -0.119703328033 Rises=F Damp=F
 DIIS: error= 2.03D-03 at cycle   4 NSaved=   4.
 NSaved= 4 IEnMin= 4 EnMin= -3906.72923459025     IErMin= 4 ErrMin= 2.03D-03
 ErrMax= 2.03D-03  0.00D+00 EMaxC= 1.00D-01 BMatC= 2.33D-02 BMatP= 1.76D-01
 IDIUse=3 WtCom= 9.80D-01 WtEn= 2.03D-02
 Coeff-Com: -0.334D-01 0.967D-01 0.318D+00 0.619D+00
 Coeff-En:   0.000D+00 0.000D+00 0.828D-01 0.917D+00
 Coeff:     -0.327D-01 0.947D-01 0.313D+00 0.625D+00
 Gap=     0.120 Goal=   None    Shift=    0.000
 RMSDP=5.91D-05 MaxDP=1.03D-02 DE=-1.20D-01 OVMax= 1.79D-02

 Cycle   5  Pass 1  IDiag  1:
 RMSU=  3.90D-05    CP:  9.77D-01  1.30D+00  8.97D-01  7.65D-01
 E= -3906.74747190107     Delta-E=       -0.018237310820 Rises=F Damp=F
 DIIS: error= 7.60D-04 at cycle   5 NSaved=   5.
 NSaved= 5 IEnMin= 5 EnMin= -3906.74747190107     IErMin= 5 ErrMin= 7.60D-04
 ErrMax= 7.60D-04  0.00D+00 EMaxC= 1.00D-01 BMatC= 1.37D-03 BMatP= 2.33D-02
 IDIUse=3 WtCom= 9.92D-01 WtEn= 7.60D-03
 Coeff-Com: -0.106D-01 0.212D-01 0.119D+00 0.307D+00 0.563D+00
 Coeff-En:   0.000D+00 0.000D+00 0.000D+00 0.000D+00 0.100D+01
 Coeff:     -0.105D-01 0.211D-01 0.118D+00 0.305D+00 0.566D+00
 Gap=     0.119 Goal=   None    Shift=    0.000
 RMSDP=1.46D-05 MaxDP=2.55D-03 DE=-1.82D-02 OVMax= 6.98D-03

 Cycle   6  Pass 1  IDiag  1:
 RMSU=  1.30D-05    CP:  9.77D-01  1.30D+00  8.92D-01  7.88D-01  8.88D-01
 E= -3906.74847702851     Delta-E=       -0.001005127435 Rises=F Damp=F
 DIIS: error= 3.63D-04 at cycle   6 NSaved=   6.
 NSaved= 6 IEnMin= 6 EnMin= -3906.74847702851     IErMin= 6 ErrMin= 3.63D-04
 ErrMax= 3.63D-04  0.00D+00 EMaxC= 1.00D-01 BMatC= 1.80D-04 BMatP= 1.37D-03
 IDIUse=3 WtCom= 9.96D-01 WtEn= 3.63D-03
 Coeff-Com: -0.196D-02 0.130D-02 0.278D-01 0.889D-01 0.302D+00 0.582D+00
 Coeff-En:   0.000D+00 0.000D+00 0.000D+00 0.000D+00 0.129D-01 0.987D+00
 Coeff:     -0.195D-02 0.129D-02 0.277D-01 0.885D-01 0.301D+00 0.584D+00
 Gap=     0.119 Goal=   None    Shift=    0.000
 RMSDP=6.11D-06 MaxDP=2.14D-03 DE=-1.01D-03 OVMax= 3.00D-03

 Cycle   7  Pass 1  IDiag  1:
 RMSU=  5.49D-06    CP:  9.77D-01  1.30D+00  8.96D-01  7.86D-01  9.45D-01
                    CP:  9.88D-01
 E= -3906.74861562232     Delta-E=       -0.000138593814 Rises=F Damp=F
 DIIS: error= 8.79D-05 at cycle   7 NSaved=   7.
 NSaved= 7 IEnMin= 7 EnMin= -3906.74861562232     IErMin= 7 ErrMin= 8.79D-05
 ErrMax= 8.79D-05  0.00D+00 EMaxC= 1.00D-01 BMatC= 2.18D-05 BMatP= 1.80D-04
 IDIUse=1 WtCom= 1.00D+00 WtEn= 0.00D+00
 Coeff-Com:  0.658D-03-0.263D-02-0.425D-02-0.318D-02 0.670D-01 0.292D+00
 Coeff-Com:  0.651D+00
 Coeff:      0.658D-03-0.263D-02-0.425D-02-0.318D-02 0.670D-01 0.292D+00
 Coeff:      0.651D+00
 Gap=     0.120 Goal=   None    Shift=    0.000
 RMSDP=2.90D-06 MaxDP=1.13D-03 DE=-1.39D-04 OVMax= 1.69D-03

 Cycle   8  Pass 1  IDiag  1:
 RMSU=  2.27D-06    CP:  9.77D-01  1.30D+00  8.96D-01  7.88D-01  9.76D-01
                    CP:  1.08D+00  1.04D+00
 E= -3906.74863632061     Delta-E=       -0.000020698293 Rises=F Damp=F
 DIIS: error= 3.30D-05 at cycle   8 NSaved=   8.
 NSaved= 8 IEnMin= 8 EnMin= -3906.74863632061     IErMin= 8 ErrMin= 3.30D-05
 ErrMax= 3.30D-05  0.00D+00 EMaxC= 1.00D-01 BMatC= 3.51D-06 BMatP= 2.18D-05
 IDIUse=1 WtCom= 1.00D+00 WtEn= 0.00D+00
 Coeff-Com:  0.737D-03-0.170D-02-0.761D-02-0.193D-01-0.221D-01 0.421D-01
 Coeff-Com:  0.324D+00 0.684D+00
 Coeff:      0.737D-03-0.170D-02-0.761D-02-0.193D-01-0.221D-01 0.421D-01
 Coeff:      0.324D+00 0.684D+00
 Gap=     0.120 Goal=   None    Shift=    0.000
 RMSDP=1.42D-06 MaxDP=6.28D-04 DE=-2.07D-05 OVMax= 1.20D-03

 Cycle   9  Pass 1  IDiag  1:
 RMSU=  8.25D-07    CP:  9.77D-01  1.30D+00  8.96D-01  7.90D-01  9.92D-01
                    CP:  1.12D+00  1.16D+00  1.04D+00
 E= -3906.74864076998     Delta-E=       -0.000004449363 Rises=F Damp=F
 DIIS: error= 1.71D-05 at cycle   9 NSaved=   9.
 NSaved= 9 IEnMin= 9 EnMin= -3906.74864076998     IErMin= 9 ErrMin= 1.71D-05
 ErrMax= 1.71D-05  0.00D+00 EMaxC= 1.00D-01 BMatC= 5.68D-07 BMatP= 3.51D-06
 IDIUse=1 WtCom= 1.00D+00 WtEn= 0.00D+00
 Coeff-Com:  0.261D-03-0.456D-03-0.301D-02-0.904D-02-0.194D-01-0.167D-01
 Coeff-Com:  0.664D-01 0.332D+00 0.649D+00
 Coeff:      0.261D-03-0.456D-03-0.301D-02-0.904D-02-0.194D-01-0.167D-01
 Coeff:      0.664D-01 0.332D+00 0.649D+00
 Gap=     0.120 Goal=   None    Shift=    0.000
 RMSDP=5.63D-07 MaxDP=2.67D-04 DE=-4.45D-06 OVMax= 4.90D-04

 Cycle  10  Pass 1  IDiag  1:
 RMSU=  3.30D-07    CP:  9.77D-01  1.30D+00  8.97D-01  7.90D-01  9.96D-01
                    CP:  1.14D+00  1.21D+00  1.15D+00  1.10D+00
 E= -3906.74864156184     Delta-E=       -0.000000791866 Rises=F Damp=F
 DIIS: error= 8.31D-06 at cycle  10 NSaved=  10.
 NSaved=10 IEnMin=10 EnMin= -3906.74864156184     IErMin=10 ErrMin= 8.31D-06
 ErrMax= 8.31D-06  0.00D+00 EMaxC= 1.00D-01 BMatC= 6.28D-08 BMatP= 5.68D-07
 IDIUse=1 WtCom= 1.00D+00 WtEn= 0.00D+00
 Coeff-Com: -0.494D-04 0.164D-03 0.452D-03 0.463D-03-0.236D-02-0.126D-01
 Coeff-Com: -0.409D-01-0.157D-01 0.230D+00 0.840D+00
 Coeff:     -0.494D-04 0.164D-03 0.452D-03 0.463D-03-0.236D-02-0.126D-01
 Coeff:     -0.409D-01-0.157D-01 0.230D+00 0.840D+00
 Gap=     0.120 Goal=   None    Shift=    0.000
 RMSDP=2.84D-07 MaxDP=1.32D-04 DE=-7.92D-07 OVMax= 3.28D-04

 Cycle  11  Pass 1  IDiag  1:
 RMSU=  1.47D-07    CP:  9.77D-01  1.30D+00  8.97D-01  7.90D-01  9.97D-01
                    CP:  1.14D+00  1.23D+00  1.20D+00  1.24D+00  1.21D+00
 E= -3906.74864171430     Delta-E=       -0.000000152457 Rises=F Damp=F
 DIIS: error= 2.34D-06 at cycle  11 NSaved=  11.
 NSaved=11 IEnMin=11 EnMin= -3906.74864171430     IErMin=11 ErrMin= 2.34D-06
 ErrMax= 2.34D-06  0.00D+00 EMaxC= 1.00D-01 BMatC= 1.16D-08 BMatP= 6.28D-08
 IDIUse=1 WtCom= 1.00D+00 WtEn= 0.00D+00
 Coeff-Com: -0.531D-04 0.125D-03 0.573D-03 0.137D-02 0.156D-02-0.290D-02
 Coeff-Com: -0.266D-01-0.523D-01-0.405D-03 0.352D+00 0.726D+00
 Coeff:     -0.531D-04 0.125D-03 0.573D-03 0.137D-02 0.156D-02-0.290D-02
 Coeff:     -0.266D-01-0.523D-01-0.405D-03 0.352D+00 0.726D+00
 Gap=     0.120 Goal=   None    Shift=    0.000
 RMSDP=1.11D-07 MaxDP=4.58D-05 DE=-1.52D-07 OVMax= 1.01D-04

 Cycle  12  Pass 1  IDiag  1:
 RMSU=  6.11D-08    CP:  9.77D-01  1.30D+00  8.97D-01  7.90D-01  9.98D-01
                    CP:  1.15D+00  1.23D+00  1.22D+00  1.31D+00  1.33D+00
                    CP:  1.13D+00
 E= -3906.74864173599     Delta-E=       -0.000000021695 Rises=F Damp=F
 DIIS: error= 4.57D-07 at cycle  12 NSaved=  12.
 NSaved=12 IEnMin=12 EnMin= -3906.74864173599     IErMin=12 ErrMin= 4.57D-07
 ErrMax= 4.57D-07  0.00D+00 EMaxC= 1.00D-01 BMatC= 1.40D-09 BMatP= 1.16D-08
 IDIUse=1 WtCom= 1.00D+00 WtEn= 0.00D+00
 Coeff-Com: -0.121D-04 0.217D-04 0.146D-03 0.450D-03 0.957D-03 0.730D-03
 Coeff-Com: -0.422D-02-0.169D-01-0.352D-01 0.165D-01 0.267D+00 0.770D+00
 Coeff:     -0.121D-04 0.217D-04 0.146D-03 0.450D-03 0.957D-03 0.730D-03
 Coeff:     -0.422D-02-0.169D-01-0.352D-01 0.165D-01 0.267D+00 0.770D+00
 Gap=     0.120 Goal=   None    Shift=    0.000
 RMSDP=3.84D-08 MaxDP=6.53D-06 DE=-2.17D-08 OVMax= 4.17D-05

 Cycle  13  Pass 1  IDiag  1:
 RMSU=  2.56D-08    CP:  9.77D-01  1.30D+00  8.97D-01  7.90D-01  9.98D-01
                    CP:  1.15D+00  1.23D+00  1.22D+00  1.33D+00  1.39D+00
                    CP:  1.22D+00  1.15D+00
 E= -3906.74864173971     Delta-E=       -0.000000003716 Rises=F Damp=F
 DIIS: error= 3.83D-07 at cycle  13 NSaved=  13.
 NSaved=13 IEnMin=13 EnMin= -3906.74864173971     IErMin=13 ErrMin= 3.83D-07
 ErrMax= 3.83D-07  0.00D+00 EMaxC= 1.00D-01 BMatC= 3.62D-10 BMatP= 1.40D-09
 IDIUse=1 WtCom= 1.00D+00 WtEn= 0.00D+00
 Coeff-Com:  0.260D-05-0.893D-05-0.226D-04-0.498D-05 0.233D-03 0.838D-03
 Coeff-Com:  0.230D-02 0.604D-03-0.167D-01-0.476D-01-0.706D-03 0.357D+00
 Coeff-Com:  0.704D+00
 Coeff:      0.260D-05-0.893D-05-0.226D-04-0.498D-05 0.233D-03 0.838D-03
 Coeff:      0.230D-02 0.604D-03-0.167D-01-0.476D-01-0.706D-03 0.357D+00
 Coeff:      0.704D+00
 Gap=     0.120 Goal=   None    Shift=    0.000
 RMSDP=1.96D-08 MaxDP=7.76D-06 DE=-3.72D-09 OVMax= 1.56D-05

 Cycle  14  Pass 1  IDiag  1:
 RMSU=  1.12D-08    CP:  9.77D-01  1.30D+00  8.97D-01  7.90D-01  9.98D-01
                    CP:  1.15D+00  1.23D+00  1.23D+00  1.33D+00  1.41D+00
                    CP:  1.27D+00  1.33D+00  1.03D+00
 E= -3906.74864173985     Delta-E=       -0.000000000144 Rises=F Damp=F
 DIIS: error= 2.48D-07 at cycle  14 NSaved=  14.
 NSaved=14 IEnMin=14 EnMin= -3906.74864173985     IErMin=14 ErrMin= 2.48D-07
 ErrMax= 2.48D-07  0.00D+00 EMaxC= 1.00D-01 BMatC= 7.52D-11 BMatP= 3.62D-10
 IDIUse=1 WtCom= 1.00D+00 WtEn= 0.00D+00
 Coeff-Com:  0.305D-05-0.734D-05-0.352D-04-0.789D-04-0.483D-04 0.254D-03
 Coeff-Com:  0.175D-02 0.331D-02-0.104D-02-0.236D-01-0.514D-01 0.267D-01
 Coeff-Com:  0.343D+00 0.701D+00
 Coeff:      0.305D-05-0.734D-05-0.352D-04-0.789D-04-0.483D-04 0.254D-03
 Coeff:      0.175D-02 0.331D-02-0.104D-02-0.236D-01-0.514D-01 0.267D-01
 Coeff:      0.343D+00 0.701D+00
 Gap=     0.120 Goal=   None    Shift=    0.000
 RMSDP=8.72D-09 MaxDP=2.08D-06 DE=-1.44D-10 OVMax= 1.01D-05

 Cycle  15  Pass 1  IDiag  1:
 RMSU=  5.35D-09    CP:  9.77D-01  1.30D+00  8.97D-01  7.90D-01  9.98D-01
                    CP:  1.15D+00  1.23D+00  1.23D+00  1.33D+00  1.41D+00
                    CP:  1.28D+00  1.38D+00  1.22D+00  1.11D+00
 E= -3906.74864174058     Delta-E=       -0.000000000728 Rises=F Damp=F
 DIIS: error= 1.34D-07 at cycle  15 NSaved=  15.
 NSaved=15 IEnMin=15 EnMin= -3906.74864174058     IErMin=15 ErrMin= 1.34D-07
 ErrMax= 1.34D-07  0.00D+00 EMaxC= 1.00D-01 BMatC= 1.90D-11 BMatP= 7.52D-11
 IDIUse=1 WtCom= 1.00D+00 WtEn= 0.00D+00
 Coeff-Com:  0.727D-06-0.129D-05-0.115D-04-0.354D-04-0.737D-04-0.749D-04
 Coeff-Com:  0.299D-03 0.142D-02 0.330D-02-0.529D-03-0.260D-01-0.728D-01
 Coeff-Com: -0.578D-03 0.358D+00 0.737D+00
 Coeff:      0.727D-06-0.129D-05-0.115D-04-0.354D-04-0.737D-04-0.749D-04
 Coeff:      0.299D-03 0.142D-02 0.330D-02-0.529D-03-0.260D-01-0.728D-01
 Coeff:     -0.578D-03 0.358D+00 0.737D+00
 Gap=     0.120 Goal=   None    Shift=    0.000
 RMSDP=5.32D-09 MaxDP=1.24D-06 DE=-7.28D-10 OVMax= 7.04D-06

 Cycle  16  Pass 1  IDiag  1:
 RMSU=  2.57D-09    CP:  9.77D-01  1.30D+00  8.97D-01  7.90D-01  9.98D-01
                    CP:  1.15D+00  1.23D+00  1.23D+00  1.33D+00  1.41D+00
                    CP:  1.29D+00  1.41D+00  1.32D+00  1.35D+00  1.26D+00
 E= -3906.74864174014     Delta-E=        0.000000000446 Rises=F Damp=F
 DIIS: error= 5.36D-08 at cycle  16 NSaved=  16.
 NSaved=16 IEnMin=15 EnMin= -3906.74864174058     IErMin=16 ErrMin= 5.36D-08
 ErrMax= 5.36D-08  0.00D+00 EMaxC= 1.00D-01 BMatC= 3.44D-12 BMatP= 1.90D-11
 IDIUse=1 WtCom= 1.00D+00 WtEn= 0.00D+00
 Coeff-Com: -0.323D-06 0.968D-06 0.222D-05 0.113D-05-0.249D-04-0.899D-04
 Coeff-Com: -0.236D-03-0.981D-04 0.167D-02 0.484D-02 0.703D-04-0.376D-01
 Coeff-Com: -0.768D-01 0.299D-02 0.310D+00 0.795D+00
 Coeff:     -0.323D-06 0.968D-06 0.222D-05 0.113D-05-0.249D-04-0.899D-04
 Coeff:     -0.236D-03-0.981D-04 0.167D-02 0.484D-02 0.703D-04-0.376D-01
 Coeff:     -0.768D-01 0.299D-02 0.310D+00 0.795D+00
 Gap=     0.120 Goal=   None    Shift=    0.000
 RMSDP=3.02D-09 MaxDP=7.90D-07 DE= 4.46D-10 OVMax= 4.28D-06

 Error on total polarization charges =  0.03131
 SCF Done:  E(RM062X) =  -3906.74864174     A.U. after   16 cycles
            NFock= 16  Conv=0.30D-08     -V/T= 2.0051
 KE= 3.887024282733D+03 PE=-3.225611120059D+04 EE= 1.289388139995D+04
 Leave Link  502 at Sat Oct 11 00:49:34 2025, MaxMem= 30870077440 cpu:          168206.3 elap:            2680.0
 (Enter /work/home/accqbws0vm/apprepo/gaussian/16-hy/scripts/../app/g16/l601.exe)
 Copying SCF densities to generalized density rwf, IOpCl= 0 IROHF=0.
 Hyperfine terms turned off by default for NAtoms > 100.

 **********************************************************************

            Population analysis using the SCF density.

 **********************************************************************

 Orbital symmetries:
       Occupied  (A) (A) (A) (A) (A) (A) (A) (A) (A) (A) (A) (A)
                 (A) (A) (A) (A) (A) (A) (A) (A) (A) (A) (A) (A)
                 (A) (A) (A) (A) (A) (A) (A) (A) (A) (A) (A) (A)
                 (A) (A) (A) (A) (A) (A) (A) (A) (A) (A) (A) (A)
                 (A) (A) (A) (A) (A) (A) (A) (A) (A) (A) (A) (A)
                 (A) (A) (A) (A) (A) (A) (A) (A) (A) (A) (A) (A)
                 (A) (A) (A) (A) (A) (A) (A) (A) (A) (A) (A) (A)
                 (A) (A) (A) (A) (A) (A) (A) (A) (A) (A) (A) (A)
                 (A) (A) (A) (A) (A) (A) (A) (A) (A) (A) (A) (A)
                 (A) (A) (A) (A) (A) (A) (A) (A) (A) (A) (A) (A)
                 (A) (A) (A) (A) (A) (A) (A) (A) (A) (A) (A) (A)
                 (A) (A) (A) (A) (A) (A) (A) (A) (A) (A) (A) (A)
                 (A) (A) (A) (A) (A) (A) (A) (A) (A) (A) (A) (A)
                 (A) (A) (A) (A) (A) (A) (A) (A) (A) (A) (A) (A)
                 (A) (A) (A) (A) (A) (A) (A) (A) (A) (A) (A) (A)
                 (A) (A) (A) (A) (A) (A) (A) (A) (A) (A) (A) (A)
                 (A) (A) (A) (A) (A) (A) (A) (A) (A) (A) (A) (A)
                 (A) (A) (A) (A) (A) (A) (A) (A) (A) (A) (A) (A)
                 (A) (A) (A) (A) (A) (A) (A) (A) (A) (A) (A) (A)
                 (A) (A) (A) (A) (A) (A) (A) (A) (A) (A) (A) (A)
                 (A) (A) (A) (A) (A) (A) (A) (A) (A) (A) (A) (A)
                 (A) (A) (A) (A) (A) (A) (A) (A) (A) (A) (A) (A)
                 (A) (A) (A) (A) (A) (A) (A) (A) (A) (A) (A) (A)
                 (A) (A) (A) (A) (A)
       Virtual   (A) (A) (A) (A) (A) (A) (A) (A) (A) (A) (A) (A)
                 (A) (A) (A) (A) (A) (A) (A) (A) (A) (A) (A) (A)
                 (A) (A) (A) (A) (A) (A) (A) (A) (A) (A) (A) (A)
                 (A) (A) (A) (A) (A) (A) (A) (A) (A) (A) (A) (A)
                 (A) (A) (A) (A) (A) (A) (A) (A) (A) (A) (A) (A)
                 (A) (A) (A) (A) (A) (A) (A) (A) (A) (A) (A) (A)
                 (A) (A) (A) (A) (A) (A) (A) (A) (A) (A) (A) (A)
                 (A) (A) (A) (A) (A) (A) (A) (A) (A) (A) (A) (A)
                 (A) (A) (A) (A) (A) (A) (A) (A) (A) (A) (A) (A)
                 (A) (A) (A) (A) (A) (A) (A) (A) (A) (A) (A) (A)
                 (A) (A) (A) (A) (A) (A) (A) (A) (A) (A) (A) (A)
                 (A) (A) (A) (A) (A) (A) (A) (A) (A) (A) (A) (A)
                 (A) (A) (A) (A) (A) (A) (A) (A) (A) (A) (A) (A)
                 (A) (A) (A) (A) (A) (A) (A) (A) (A) (A) (A) (A)
                 (A) (A) (A) (A) (A) (A) (A) (A) (A) (A) (A) (A)
                 (A) (A) (A) (A) (A) (A) (A) (A) (A) (A) (A) (A)
                 (A) (A) (A) (A) (A) (A) (A) (A) (A) (A) (A) (A)
                 (A) (A) (A) (A) (A) (A) (A) (A) (A) (A) (A) (A)
                 (A) (A) (A) (A) (A) (A) (A) (A) (A) (A) (A) (A)
                 (A) (A) (A) (A) (A) (A) (A) (A) (A) (A) (A) (A)
                 (A) (A) (A) (A) (A) (A) (A) (A) (A) (A) (A) (A)
                 (A) (A) (A) (A) (A) (A) (A) (A) (A) (A) (A) (A)
                 (A) (A) (A) (A) (A) (A) (A) (A) (A) (A) (A) (A)
                 (A) (A) (A) (A) (A) (A) (A) (A) (A) (A) (A) (A)
                 (A) (A) (A) (A) (A) (A) (A) (A) (A) (A) (A) (A)
                 (A) (A) (A) (A) (A) (A) (A) (A) (A) (A) (A) (A)
                 (A) (A) (A) (A) (A) (A) (A) (A) (A) (A) (A) (A)
                 (A) (A) (A) (A) (A) (A) (A) (A) (A) (A) (A) (A)
                 (A) (A) (A) (A) (A) (A) (A) (A) (A) (A) (A) (A)
                 (A) (A) (A) (A) (A) (A) (A) (A) (A) (A) (A) (A)
                 (A) (A) (A) (A) (A) (A) (A) (A) (A) (A) (A) (A)
                 (A) (A) (A) (A) (A) (A) (A) (A) (A) (A) (A) (A)
                 (A) (A) (A) (A) (A) (A) (A) (A) (A) (A) (A) (A)
                 (A) (A) (A) (A) (A) (A) (A) (A) (A) (A) (A) (A)
                 (A) (A) (A) (A) (A) (A) (A) (A) (A) (A) (A) (A)
                 (A) (A) (A) (A) (A) (A) (A) (A) (A) (A) (A) (A)
                 (A) (A) (A) (A) (A) (A) (A) (A) (A) (A) (A) (A)
                 (A) (A) (A) (A) (A) (A) (A) (A) (A) (A) (A) (A)
                 (A) (A) (A) (A) (A) (A) (A) (A) (A) (A) (A) (A)
                 (A) (A) (A) (A) (A) (A) (A) (A) (A) (A) (A) (A)
                 (A) (A) (A) (A) (A) (A) (A) (A) (A) (A) (A) (A)
                 (A) (A) (A) (A) (A) (A) (A) (A) (A) (A) (A) (A)
                 (A) (A) (A) (A) (A) (A) (A) (A) (A) (A) (A) (A)
                 (A) (A) (A) (A) (A) (A) (A) (A) (A) (A) (A) (A)
                 (A) (A) (A) (A) (A) (A) (A) (A) (A) (A) (A) (A)
                 (A) (A) (A) (A) (A) (A) (A) (A) (A) (A) (A) (A)
                 (A) (A) (A) (A) (A) (A) (A) (A) (A) (A) (A) (A)
                 (A) (A) (A) (A) (A) (A) (A) (A) (A) (A) (A) (A)
                 (A) (A) (A) (A) (A) (A) (A) (A) (A) (A) (A) (A)
                 (A) (A) (A) (A) (A) (A) (A) (A) (A) (A) (A) (A)
                 (A) (A) (A) (A) (A) (A) (A) (A) (A) (A) (A) (A)
                 (A) (A) (A) (A) (A) (A) (A) (A) (A) (A) (A) (A)
                 (A) (A) (A) (A) (A) (A) (A) (A) (A) (A) (A) (A)
                 (A) (A) (A) (A) (A) (A) (A) (A) (A) (A) (A) (A)
                 (A) (A) (A) (A) (A) (A) (A) (A) (A) (A) (A) (A)
                 (A) (A) (A) (A) (A) (A) (A) (A) (A) (A) (A) (A)
                 (A) (A) (A) (A) (A) (A) (A) (A) (A) (A) (A) (A)
                 (A) (A) (A) (A) (A) (A) (A) (A) (A) (A) (A) (A)
                 (A) (A) (A) (A) (A) (A) (A) (A) (A) (A) (A) (A)
                 (A) (A) (A) (A) (A) (A) (A) (A) (A) (A) (A) (A)
                 (A) (A) (A) (A) (A) (A) (A) (A) (A) (A) (A) (A)
                 (A) (A) (A) (A) (A) (A) (A) (A) (A) (A) (A) (A)
                 (A) (A) (A) (A) (A) (A) (A) (A) (A) (A) (A) (A)
                 (A) (A) (A) (A) (A) (A) (A) (A) (A) (A) (A) (A)
                 (A) (A) (A) (A) (A) (A) (A) (A) (A) (A) (A) (A)
                 (A) (A) (A) (A) (A) (A) (A) (A) (A) (A) (A) (A)
                 (A) (A) (A) (A) (A) (A) (A) (A) (A) (A) (A) (A)
                 (A) (A) (A) (A) (A) (A) (A) (A) (A) (A) (A) (A)
                 (A) (A) (A) (A) (A) (A) (A) (A) (A) (A) (A) (A)
                 (A) (A) (A) (A) (A) (A) (A) (A) (A) (A) (A) (A)
                 (A) (A) (A) (A) (A) (A) (A) (A) (A) (A) (A) (A)
                 (A) (A) (A) (A) (A) (A) (A) (A) (A) (A) (A) (A)
                 (A) (A) (A) (A) (A) (A) (A) (A) (A) (A) (A) (A)
                 (A) (A) (A) (A) (A) (A) (A) (A) (A) (A) (A) (A)
                 (A) (A) (A) (A) (A) (A) (A) (A) (A) (A) (A) (A)
                 (A) (A) (A) (A) (A) (A) (A) (A) (A) (A) (A) (A)
                 (A) (A) (A) (A) (A) (A) (A) (A) (A) (A) (A) (A)
                 (A) (A) (A) (A) (A) (A) (A) (A) (A) (A) (A) (A)
                 (A) (A) (A) (A) (A) (A) (A) (A) (A) (A) (A) (A)
                 (A) (A) (A) (A) (A) (A) (A) (A) (A) (A) (A) (A)
                 (A) (A) (A) (A) (A) (A) (A) (A) (A) (A) (A) (A)
                 (A) (A) (A) (A) (A) (A) (A) (A) (A) (A) (A) (A)
                 (A) (A) (A) (A) (A) (A) (A) (A) (A) (A) (A) (A)
                 (A) (A) (A) (A) (A) (A) (A) (A) (A) (A) (A) (A)
                 (A) (A) (A) (A) (A) (A) (A) (A) (A) (A) (A) (A)
                 (A) (A) (A) (A) (A) (A) (A) (A) (A) (A) (A) (A)
                 (A) (A) (A) (A) (A) (A) (A) (A) (A) (A) (A) (A)
                 (A) (A) (A) (A) (A) (A) (A) (A) (A) (A) (A) (A)
                 (A) (A) (A) (A) (A) (A) (A) (A) (A) (A) (A) (A)
                 (A) (A) (A) (A) (A) (A) (A) (A) (A) (A) (A) (A)
                 (A) (A) (A) (A) (A) (A) (A) (A) (A) (A) (A) (A)
                 (A) (A) (A) (A) (A) (A) (A) (A) (A) (A) (A) (A)
                 (A) (A) (A) (A) (A) (A) (A) (A) (A) (A) (A) (A)
                 (A) (A) (A) (A) (A) (A) (A) (A) (A) (A) (A) (A)
                 (A) (A) (A) (A) (A) (A) (A) (A) (A) (A) (A) (A)
                 (A) (A) (A) (A) (A) (A) (A) (A) (A) (A) (A) (A)
                 (A) (A) (A) (A) (A) (A) (A) (A) (A) (A) (A) (A)
                 (A) (A) (A) (A) (A) (A) (A) (A) (A) (A) (A) (A)
                 (A) (A) (A) (A) (A) (A) (A) (A) (A) (A) (A) (A)
                 (A) (A) (A) (A) (A) (A) (A) (A) (A) (A) (A) (A)
                 (A) (A) (A) (A) (A) (A) (A) (A) (A) (A) (A) (A)
                 (A) (A) (A) (A) (A) (A) (A) (A) (A) (A) (A) (A)
                 (A) (A) (A) (A) (A) (A) (A) (A) (A) (A) (A) (A)
                 (A) (A) (A) (A) (A) (A) (A) (A) (A) (A) (A) (A)
                 (A) (A) (A) (A) (A) (A) (A) (A) (A) (A) (A) (A)
                 (A) (A) (A) (A) (A) (A) (A) (A) (A) (A) (A) (A)
                 (A) (A) (A) (A) (A) (A) (A) (A) (A) (A) (A) (A)
                 (A) (A) (A) (A) (A) (A) (A) (A) (A) (A) (A) (A)
                 (A) (A) (A) (A) (A) (A) (A) (A) (A) (A) (A) (A)
                 (A) (A) (A) (A) (A) (A) (A) (A) (A) (A) (A) (A)
                 (A) (A) (A) (A) (A) (A) (A) (A) (A) (A) (A) (A)
                 (A) (A) (A) (A) (A) (A) (A) (A) (A) (A) (A) (A)
                 (A) (A) (A) (A) (A) (A) (A) (A) (A) (A) (A) (A)
                 (A) (A) (A) (A) (A) (A) (A) (A) (A) (A) (A) (A)
                 (A) (A) (A) (A) (A) (A) (A) (A) (A) (A) (A) (A)
                 (A) (A) (A) (A) (A) (A) (A) (A) (A) (A) (A) (A)
                 (A) (A) (A) (A) (A) (A) (A) (A) (A) (A) (A) (A)
                 (A) (A) (A) (A) (A) (A) (A) (A) (A) (A) (A) (A)
                 (A) (A) (A) (A) (A) (A) (A) (A) (A) (A) (A) (A)
                 (A) (A) (A) (A) (A) (A) (A) (A) (A) (A) (A) (A)
                 (A) (A) (A) (A) (A) (A) (A) (A) (A) (A) (A) (A)
                 (A) (A) (A) (A) (A) (A) (A) (A) (A) (A) (A) (A)
                 (A) (A) (A) (A) (A) (A) (A) (A) (A) (A) (A) (A)
                 (A) (A) (A) (A) (A) (A) (A) (A) (A) (A) (A) (A)
                 (A) (A) (A) (A) (A) (A) (A) (A) (A) (A) (A) (A)
                 (A) (A) (A) (A) (A) (A) (A) (A) (A) (A) (A) (A)
                 (A) (A) (A) (A) (A) (A) (A) (A) (A) (A) (A) (A)
                 (A) (A) (A) (A) (A) (A) (A) (A) (A) (A) (A) (A)
                 (A) (A) (A) (A) (A) (A) (A) (A) (A) (A) (A) (A)
                 (A) (A) (A) (A) (A) (A) (A) (A) (A) (A) (A) (A)
                 (A) (A) (A) (A) (A) (A) (A) (A) (A) (A) (A) (A)
                 (A) (A) (A) (A) (A) (A) (A) (A) (A) (A) (A) (A)
                 (A) (A) (A) (A) (A) (A) (A) (A) (A) (A) (A) (A)
                 (A) (A) (A) (A) (A) (A) (A) (A) (A) (A) (A) (A)
                 (A) (A) (A) (A) (A) (A) (A) (A) (A) (A) (A) (A)
                 (A) (A) (A) (A) (A) (A) (A) (A) (A) (A) (A) (A)
                 (A) (A) (A) (A) (A) (A) (A) (A) (A) (A) (A) (A)
                 (A) (A) (A) (A) (A) (A) (A) (A) (A) (A) (A) (A)
                 (A) (A) (A) (A) (A) (A) (A) (A) (A) (A) (A) (A)
                 (A) (A) (A) (A) (A) (A) (A) (A) (A) (A) (A) (A)
                 (A) (A) (A) (A) (A) (A) (A) (A) (A) (A) (A) (A)
                 (A) (A) (A) (A) (A) (A) (A) (A) (A) (A) (A) (A)
                 (A) (A) (A) (A) (A) (A) (A) (A) (A) (A) (A) (A)
                 (A) (A) (A) (A) (A) (A) (A) (A) (A) (A) (A) (A)
                 (A) (A) (A) (A) (A) (A) (A) (A) (A) (A) (A) (A)
                 (A) (A) (A) (A) (A) (A) (A) (A) (A) (A) (A) (A)
                 (A) (A) (A) (A) (A) (A) (A) (A) (A) (A) (A) (A)
                 (A) (A) (A) (A) (A) (A) (A) (A) (A) (A) (A) (A)
                 (A) (A) (A) (A) (A) (A) (A) (A) (A) (A) (A) (A)
                 (A) (A) (A) (A) (A) (A) (A) (A) (A) (A) (A) (A)
                 (A) (A) (A) (A) (A) (A) (A) (A) (A) (A) (A) (A)
                 (A) (A) (A) (A) (A) (A) (A) (A) (A) (A) (A) (A)
                 (A) (A) (A) (A) (A) (A) (A) (A) (A) (A) (A) (A)
                 (A) (A) (A) (A) (A) (A) (A) (A) (A) (A) (A) (A)
                 (A) (A) (A) (A) (A) (A) (A) (A) (A) (A) (A) (A)
                 (A) (A) (A) (A) (A) (A) (A) (A) (A) (A) (A) (A)
                 (A) (A) (A) (A) (A) (A) (A) (A) (A) (A) (A) (A)
                 (A) (A) (A) (A) (A) (A) (A) (A) (A) (A) (A) (A)
                 (A) (A) (A) (A) (A) (A) (A) (A) (A) (A) (A) (A)
                 (A) (A) (A) (A) (A) (A) (A) (A) (A) (A) (A) (A)
                 (A) (A) (A) (A) (A) (A) (A) (A) (A) (A) (A) (A)
                 (A) (A) (A) (A) (A) (A) (A) (A) (A) (A) (A) (A)
                 (A) (A) (A) (A) (A) (A) (A) (A) (A) (A) (A) (A)
                 (A) (A) (A) (A) (A) (A) (A) (A) (A) (A) (A) (A)
                 (A) (A) (A) (A) (A) (A) (A) (A) (A) (A) (A) (A)
                 (A) (A) (A) (A) (A) (A) (A) (A) (A) (A) (A) (A)
                 (A) (A) (A) (A) (A) (A) (A) (A) (A) (A) (A) (A)
                 (A) (A) (A) (A) (A) (A) (A) (A) (A) (A) (A) (A)
                 (A) (A) (A) (A) (A) (A) (A) (A) (A) (A) (A) (A)
                 (A) (A) (A) (A) (A) (A) (A) (A) (A) (A) (A) (A)
                 (A) (A) (A) (A) (A) (A) (A) (A) (A) (A) (A) (A)
                 (A) (A) (A) (A) (A) (A) (A) (A) (A) (A) (A) (A)
                 (A) (A) (A) (A) (A) (A) (A) (A) (A) (A) (A) (A)
                 (A) (A) (A) (A) (A) (A) (A) (A) (A) (A) (A) (A)
                 (A) (A) (A) (A) (A) (A) (A) (A) (A) (A) (A) (A)
                 (A) (A) (A) (A) (A) (A) (A) (A) (A) (A) (A) (A)
                 (A) (A) (A) (A) (A) (A) (A) (A) (A) (A) (A) (A)
                 (A) (A) (A) (A) (A) (A) (A) (A) (A) (A) (A) (A)
                 (A) (A) (A) (A) (A) (A) (A) (A) (A) (A) (A) (A)
                 (A) (A) (A) (A) (A) (A) (A) (A) (A) (A) (A) (A)
                 (A) (A) (A) (A) (A) (A) (A) (A) (A) (A) (A) (A)
                 (A) (A) (A) (A) (A) (A) (A) (A) (A) (A) (A) (A)
                 (A) (A) (A) (A) (A) (A) (A) (A) (A) (A) (A) (A)
                 (A) (A) (A) (A) (A) (A) (A) (A) (A) (A) (A) (A)
                 (A) (A) (A) (A) (A) (A) (A) (A) (A) (A) (A) (A)
                 (A) (A) (A) (A) (A) (A) (A) (A) (A) (A) (A) (A)
                 (A) (A) (A) (A) (A) (A) (A) (A) (A) (A) (A) (A)
                 (A) (A) (A) (A) (A) (A) (A) (A) (A) (A) (A) (A)
                 (A) (A) (A) (A) (A) (A) (A) (A) (A) (A) (A) (A)
                 (A) (A) (A) (A) (A) (A) (A) (A) (A) (A) (A) (A)
                 (A) (A) (A) (A) (A) (A) (A) (A) (A) (A) (A) (A)
                 (A) (A) (A) (A) (A) (A) (A) (A) (A) (A) (A) (A)
                 (A) (A) (A) (A) (A) (A) (A) (A) (A) (A) (A) (A)
                 (A) (A) (A) (A) (A) (A) (A) (A) (A) (A) (A) (A)
                 (A) (A) (A) (A) (A) (A) (A) (A) (A) (A) (A) (A)
                 (A) (A) (A) (A) (A) (A) (A) (A) (A) (A) (A) (A)
                 (A) (A) (A) (A) (A) (A) (A) (A) (A) (A) (A) (A)
                 (A) (A) (A) (A) (A) (A) (A) (A) (A) (A) (A) (A)
                 (A) (A) (A) (A) (A) (A) (A) (A) (A) (A) (A) (A)
                 (A) (A) (A) (A) (A) (A) (A) (A) (A) (A) (A) (A)
                 (A) (A) (A) (A) (A) (A) (A) (A) (A) (A) (A) (A)
                 (A) (A) (A) (A) (A) (A) (A) (A) (A) (A) (A) (A)
                 (A) (A) (A) (A) (A) (A) (A) (A) (A) (A) (A) (A)
                 (A) (A) (A) (A) (A) (A) (A) (A) (A) (A) (A) (A)
                 (A) (A) (A) (A) (A) (A) (A) (A) (A) (A) (A) (A)
                 (A) (A) (A) (A) (A) (A) (A) (A) (A) (A) (A) (A)
                 (A) (A) (A) (A) (A) (A) (A) (A) (A) (A) (A) (A)
                 (A) (A) (A) (A) (A) (A) (A) (A) (A) (A) (A) (A)
                 (A) (A) (A) (A) (A) (A) (A) (A) (A) (A) (A) (A)
                 (A) (A) (A) (A) (A) (A) (A) (A) (A) (A) (A) (A)
                 (A) (A) (A) (A) (A) (A) (A) (A) (A) (A) (A) (A)
                 (A) (A) (A) (A) (A) (A) (A) (A) (A) (A) (A) (A)
                 (A) (A) (A) (A) (A) (A) (A) (A) (A) (A) (A) (A)
                 (A) (A) (A) (A) (A) (A) (A) (A) (A) (A) (A) (A)
                 (A) (A) (A) (A) (A) (A) (A) (A) (A) (A) (A) (A)
                 (A) (A) (A) (A) (A) (A) (A) (A) (A) (A) (A) (A)
                 (A) (A) (A) (A) (A) (A) (A) (A) (A) (A) (A) (A)
                 (A) (A) (A) (A) (A) (A) (A) (A) (A) (A) (A) (A)
                 (A) (A) (A) (A) (A) (A) (A) (A) (A) (A) (A) (A)
                 (A) (A) (A) (A) (A) (A) (A) (A) (A) (A) (A) (A)
                 (A) (A) (A) (A) (A) (A) (A) (A) (A) (A) (A) (A)
                 (A) (A) (A) (A) (A) (A) (A) (A) (A) (A) (A) (A)
                 (A) (A) (A) (A) (A) (A) (A) (A) (A) (A) (A) (A)
                 (A) (A) (A) (A) (A) (A) (A) (A) (A) (A) (A) (A)
                 (A) (A) (A) (A) (A) (A) (A) (A) (A) (A) (A) (A)
                 (A) (A) (A) (A) (A) (A) (A) (A) (A) (A) (A) (A)
                 (A) (A) (A) (A) (A) (A) (A) (A) (A) (A) (A) (A)
                 (A) (A) (A) (A) (A) (A) (A) (A) (A) (A) (A) (A)
                 (A) (A) (A) (A) (A) (A) (A) (A) (A) (A) (A) (A)
                 (A) (A) (A) (A) (A) (A) (A) (A) (A) (A) (A) (A)
                 (A) (A) (A) (A) (A) (A) (A) (A) (A) (A) (A) (A)
                 (A) (A) (A) (A) (A) (A) (A) (A) (A) (A) (A) (A)
                 (A) (A) (A) (A) (A) (A) (A) (A) (A) (A) (A) (A)
                 (A) (A) (A) (A) (A) (A) (A) (A) (A) (A) (A) (A)
                 (A) (A) (A) (A) (A) (A) (A) (A) (A) (A) (A) (A)
                 (A) (A) (A) (A) (A) (A) (A) (A) (A) (A) (A) (A)
                 (A) (A) (A) (A) (A) (A) (A) (A) (A) (A) (A) (A)
                 (A) (A) (A) (A) (A) (A) (A) (A) (A) (A) (A) (A)
                 (A) (A) (A) (A) (A) (A) (A) (A) (A) (A) (A) (A)
 The electronic state is 1-A.
 Alpha  occ. eigenvalues --  -90.16620 -25.20422 -25.20371 -19.71494 -19.70055
 Alpha  occ. eigenvalues --  -19.69955 -19.69525 -19.69523 -19.66398 -19.66382
 Alpha  occ. eigenvalues --  -15.03584 -15.03058 -14.79060 -14.78969 -14.78427
 Alpha  occ. eigenvalues --  -14.78395 -10.66390 -10.65202 -10.65098 -10.63514
 Alpha  occ. eigenvalues --  -10.61836 -10.61171 -10.61059 -10.60526 -10.60251
 Alpha  occ. eigenvalues --  -10.60198 -10.60104 -10.60082 -10.59526 -10.59522
 Alpha  occ. eigenvalues --  -10.59495 -10.59488 -10.59055 -10.59032 -10.58074
 Alpha  occ. eigenvalues --  -10.57166 -10.57028 -10.57004 -10.56921 -10.56912
 Alpha  occ. eigenvalues --  -10.56819 -10.56706 -10.56022 -10.55920 -10.55811
 Alpha  occ. eigenvalues --  -10.55683 -10.55673 -10.55631 -10.55537 -10.55505
 Alpha  occ. eigenvalues --  -10.55436 -10.55206 -10.55143 -10.55134 -10.55134
 Alpha  occ. eigenvalues --  -10.55124 -10.55117 -10.55107 -10.55107 -10.55104
 Alpha  occ. eigenvalues --  -10.55100 -10.55070 -10.55034 -10.55024 -10.55017
 Alpha  occ. eigenvalues --  -10.55004 -10.54998 -10.54986 -10.54979 -10.54975
 Alpha  occ. eigenvalues --  -10.54951 -10.54698 -10.54680 -10.54661 -10.54655
 Alpha  occ. eigenvalues --  -10.54397 -10.54071 -10.54061 -10.54008  -8.49037
 Alpha  occ. eigenvalues --   -7.13172  -6.41315  -6.41129  -6.41020  -1.39360
 Alpha  occ. eigenvalues --   -1.38748  -1.32317  -1.29223  -1.29083  -1.21056
 Alpha  occ. eigenvalues --   -1.20394  -1.19604  -1.15852  -1.10480  -1.08772
 Alpha  occ. eigenvalues --   -1.08679  -1.08511  -1.05225  -0.99421  -0.97591
 Alpha  occ. eigenvalues --   -0.97418  -0.97289  -0.96856  -0.96821  -0.95187
 Alpha  occ. eigenvalues --   -0.95070  -0.94485  -0.93628  -0.91533  -0.91303
 Alpha  occ. eigenvalues --   -0.90333  -0.90153  -0.87680  -0.87156  -0.86609
 Alpha  occ. eigenvalues --   -0.86417  -0.86347  -0.85987  -0.85134  -0.85043
 Alpha  occ. eigenvalues --   -0.85023  -0.84950  -0.84845  -0.84801  -0.84630
 Alpha  occ. eigenvalues --   -0.83889  -0.82538  -0.81632  -0.80518  -0.80244
 Alpha  occ. eigenvalues --   -0.78489  -0.78236  -0.75677  -0.75029  -0.73502
 Alpha  occ. eigenvalues --   -0.72544  -0.72243  -0.72029  -0.71718  -0.71169
 Alpha  occ. eigenvalues --   -0.70413  -0.70116  -0.69905  -0.69822  -0.69631
 Alpha  occ. eigenvalues --   -0.69381  -0.69146  -0.69090  -0.68618  -0.67937
 Alpha  occ. eigenvalues --   -0.66511  -0.66327  -0.65746  -0.65583  -0.65400
 Alpha  occ. eigenvalues --   -0.64999  -0.64935  -0.64608  -0.64108  -0.63310
 Alpha  occ. eigenvalues --   -0.63265  -0.62986  -0.62837  -0.61959  -0.61825
 Alpha  occ. eigenvalues --   -0.61725  -0.61623  -0.61025  -0.60289  -0.59547
 Alpha  occ. eigenvalues --   -0.58830  -0.58400  -0.58293  -0.58152  -0.57969
 Alpha  occ. eigenvalues --   -0.57620  -0.56763  -0.56355  -0.56224  -0.56043
 Alpha  occ. eigenvalues --   -0.55736  -0.55285  -0.54946  -0.54604  -0.54090
 Alpha  occ. eigenvalues --   -0.54066  -0.53542  -0.53227  -0.52943  -0.52729
 Alpha  occ. eigenvalues --   -0.52569  -0.52376  -0.52091  -0.51953  -0.51808
 Alpha  occ. eigenvalues --   -0.51695  -0.51462  -0.51382  -0.51279  -0.50911
 Alpha  occ. eigenvalues --   -0.50847  -0.50628  -0.50327  -0.49781  -0.49749
 Alpha  occ. eigenvalues --   -0.49657  -0.49567  -0.49441  -0.49361  -0.49330
 Alpha  occ. eigenvalues --   -0.49312  -0.49270  -0.49147  -0.48962  -0.48268
 Alpha  occ. eigenvalues --   -0.47896  -0.47768  -0.47482  -0.47126  -0.46773
 Alpha  occ. eigenvalues --   -0.46581  -0.46221  -0.46089  -0.45930  -0.45808
 Alpha  occ. eigenvalues --   -0.45374  -0.45180  -0.45132  -0.44953  -0.44914
 Alpha  occ. eigenvalues --   -0.44628  -0.44418  -0.43975  -0.43741  -0.43653
 Alpha  occ. eigenvalues --   -0.43481  -0.43399  -0.43017  -0.42928  -0.42820
 Alpha  occ. eigenvalues --   -0.42524  -0.42401  -0.42330  -0.42279  -0.42138
 Alpha  occ. eigenvalues --   -0.41861  -0.41745  -0.41515  -0.41343  -0.41081
 Alpha  occ. eigenvalues --   -0.40974  -0.40817  -0.40793  -0.40672  -0.40506
 Alpha  occ. eigenvalues --   -0.40206  -0.40015  -0.39817  -0.39486  -0.37976
 Alpha  occ. eigenvalues --   -0.37825  -0.37234  -0.36498  -0.34588  -0.33410
 Alpha  occ. eigenvalues --   -0.32678  -0.32594  -0.32583  -0.32541  -0.32398
 Alpha  occ. eigenvalues --   -0.32181  -0.32014  -0.31482  -0.31433  -0.31414
 Alpha  occ. eigenvalues --   -0.31205  -0.31130  -0.29514  -0.25994  -0.24212
 Alpha  occ. eigenvalues --   -0.22336
 Alpha virt. eigenvalues --   -0.10321  -0.09631  -0.08088  -0.03748  -0.02031
 Alpha virt. eigenvalues --   -0.01867  -0.01155  -0.00630  -0.00557  -0.00515
 Alpha virt. eigenvalues --    0.00089   0.00111   0.00431   0.01923   0.02002
 Alpha virt. eigenvalues --    0.02123   0.02154   0.02460   0.02871   0.04273
 Alpha virt. eigenvalues --    0.05045   0.05865   0.06157   0.06168   0.06629
 Alpha virt. eigenvalues --    0.07068   0.07348   0.07591   0.07836   0.08518
 Alpha virt. eigenvalues --    0.08691   0.08790   0.08854   0.08948   0.09210
 Alpha virt. eigenvalues --    0.09460   0.09493   0.09627   0.09933   0.10114
 Alpha virt. eigenvalues --    0.10271   0.10368   0.10419   0.10476   0.10489
 Alpha virt. eigenvalues --    0.10776   0.11038   0.11320   0.11370   0.11474
 Alpha virt. eigenvalues --    0.11633   0.11759   0.11862   0.12085   0.12380
 Alpha virt. eigenvalues --    0.12665   0.12684   0.12741   0.12958   0.13210
 Alpha virt. eigenvalues --    0.13382   0.13476   0.13671   0.13723   0.13784
 Alpha virt. eigenvalues --    0.13921   0.14102   0.14166   0.14553   0.14790
 Alpha virt. eigenvalues --    0.15060   0.15247   0.15416   0.15492   0.15774
 Alpha virt. eigenvalues --    0.16006   0.16319   0.16390   0.16700   0.16960
 Alpha virt. eigenvalues --    0.17022   0.17039   0.17194   0.17266   0.17452
 Alpha virt. eigenvalues --    0.17608   0.17727   0.18111   0.18226   0.18338
 Alpha virt. eigenvalues --    0.18389   0.18637   0.18757   0.18903   0.19056
 Alpha virt. eigenvalues --    0.19206   0.19609   0.19705   0.19862   0.20006
 Alpha virt. eigenvalues --    0.20315   0.20562   0.20718   0.20916   0.20988
 Alpha virt. eigenvalues --    0.21106   0.21364   0.21423   0.21604   0.21736
 Alpha virt. eigenvalues --    0.22054   0.22253   0.22280   0.22457   0.22595
 Alpha virt. eigenvalues --    0.22616   0.22642   0.22735   0.22801   0.22867
 Alpha virt. eigenvalues --    0.22964   0.23075   0.23124   0.23401   0.23496
 Alpha virt. eigenvalues --    0.23640   0.23813   0.23881   0.24111   0.24237
 Alpha virt. eigenvalues --    0.24374   0.24606   0.24707   0.24991   0.25057
 Alpha virt. eigenvalues --    0.25233   0.25300   0.25482   0.25565   0.25688
[...]
 Alpha virt. eigenvalues --    4.66825   4.67245   4.67293   4.67538   4.67835
 Alpha virt. eigenvalues --    4.67919   4.68230   4.68756   4.68868   4.69290
 Alpha virt. eigenvalues --    4.69392   4.69654   4.70053   4.70299   4.70568
 Alpha virt. eigenvalues --    4.70593   4.70793   4.70958   4.70996   4.71262
 Alpha virt. eigenvalues --    4.71283   4.71359   4.71387   4.71645   4.71947
 Alpha virt. eigenvalues --    4.72118   4.72306   4.72429   4.72787   4.73361
 Alpha virt. eigenvalues --    4.73564   4.73780   4.73869   4.74171   4.74334
 Alpha virt. eigenvalues --    4.74460   4.74741   4.74952   4.75587   4.75961
 Alpha virt. eigenvalues --    4.76208   4.76488   4.76691   4.76945   4.77162
 Alpha virt. eigenvalues --    4.77870   4.78248   4.78310   4.78536   4.78913
 Alpha virt. eigenvalues --    4.79306   4.79999   4.80392   4.80810   4.81049
 Alpha virt. eigenvalues --    4.81814   4.82133   4.82583   4.83683   4.84030
 Alpha virt. eigenvalues --    4.84160   4.84356   4.85384   4.86442   4.86481
 Alpha virt. eigenvalues --    4.86883   4.87258   4.87514   4.87847   4.88470
 Alpha virt. eigenvalues --    4.88725   4.88967   4.89181   4.89283   4.89493
 Alpha virt. eigenvalues --    4.90029   4.90233   4.90611   4.90778   4.91360
 Alpha virt. eigenvalues --    4.91466   4.91965   4.92186   4.92450   4.92604
 Alpha virt. eigenvalues --    4.93105   4.93794   4.93885   4.94389   4.94636
 Alpha virt. eigenvalues --    4.94651   4.94939   4.95241   4.95304   4.95528
 Alpha virt. eigenvalues --    4.95869   4.96011   4.96093   4.96867   4.97647
 Alpha virt. eigenvalues --    4.98242   4.98524   4.98623   4.99193   4.99232
 Alpha virt. eigenvalues --    5.00353   5.00532   5.01108   5.01249   5.01472
 Alpha virt. eigenvalues --    5.01855   5.02358   5.02431   5.02840   5.03555
 Alpha virt. eigenvalues --    5.03991   5.04254   5.04303   5.04820   5.04993
 Alpha virt. eigenvalues --    5.06109   5.06397   5.06506   5.06907   5.07251
 Alpha virt. eigenvalues --    5.07869   5.07981   5.08118   5.08568   5.08817
 Alpha virt. eigenvalues --    5.08926   5.09417   5.10216   5.10281   5.10807
 Alpha virt. eigenvalues --    5.10852   5.10959   5.11426   5.11638   5.11715
 Alpha virt. eigenvalues --    5.11985   5.12101   5.12553   5.12822   5.13157
 Alpha virt. eigenvalues --    5.13485   5.13547   5.13935   5.13998   5.14097
 Alpha virt. eigenvalues --    5.14267   5.14336   5.14672   5.14782   5.14925
 Alpha virt. eigenvalues --    5.15169   5.15505   5.16261   5.16475   5.16806
 Alpha virt. eigenvalues --    5.17273   5.17349   5.17861   5.18039   5.18479
 Alpha virt. eigenvalues --    5.18848   5.19020   5.19178   5.19581   5.20128
 Alpha virt. eigenvalues --    5.20539   5.20802   5.21631   5.21801   5.22549
 Alpha virt. eigenvalues --    5.22763   5.23268   5.23585   5.23959   5.24242
 Alpha virt. eigenvalues --    5.24450   5.24829   5.25465   5.25805   5.26275
 Alpha virt. eigenvalues --    5.26636   5.27019   5.27116   5.27338   5.27523
 Alpha virt. eigenvalues --    5.27590   5.27932   5.28025   5.28185   5.28431
 Alpha virt. eigenvalues --    5.28703   5.28863   5.29001   5.29048   5.29285
 Alpha virt. eigenvalues --    5.29613   5.29768   5.29789   5.29846   5.30240
 Alpha virt. eigenvalues --    5.30564   5.30729   5.30913   5.31065   5.31576
 Alpha virt. eigenvalues --    5.32013   5.32416   5.32842   5.33122   5.33700
 Alpha virt. eigenvalues --    5.34152   5.34297   5.34336   5.34555   5.34583
 Alpha virt. eigenvalues --    5.35039   5.35996   5.36356   5.36829   5.37223
 Alpha virt. eigenvalues --    5.37729   5.38004   5.38315   5.38788   5.38874
 Alpha virt. eigenvalues --    5.39061   5.39277   5.39534   5.40358   5.40698
 Alpha virt. eigenvalues --    5.40861   5.41281   5.41465   5.41791   5.42115
 Alpha virt. eigenvalues --    5.42348   5.42815   5.43415   5.43647   5.44079
 Alpha virt. eigenvalues --    5.44539   5.45194   5.45618   5.45783   5.47054
 Alpha virt. eigenvalues --    5.47317   5.47752   5.48262   5.49291   5.49455
 Alpha virt. eigenvalues --    5.49654   5.50194   5.50936   5.51227   5.51659
 Alpha virt. eigenvalues --    5.52026   5.52135   5.52695   5.53192   5.53572
 Alpha virt. eigenvalues --    5.54135   5.54206   5.54866   5.55429   5.55840
 Alpha virt. eigenvalues --    5.56031   5.56302   5.57555   5.57617   5.57797
 Alpha virt. eigenvalues --    5.58204   5.58784   5.58965   5.59133   5.59302
 Alpha virt. eigenvalues --    5.59577   5.60024   5.60521   5.61038   5.61432
 Alpha virt. eigenvalues --    5.62129   5.62306   5.63234   5.63279   5.63416
 Alpha virt. eigenvalues --    5.64881   5.65060   5.65371   5.66633   5.66834
 Alpha virt. eigenvalues --    5.67745   5.68197   5.68302   5.68911   5.68950
 Alpha virt. eigenvalues --    5.69076   5.70177   5.71219   5.71966   5.73090
 Alpha virt. eigenvalues --    5.73322   5.73821   5.74223   5.74602   5.74741
 Alpha virt. eigenvalues --    5.74912   5.75353   5.76416   5.77319   5.78266
 Alpha virt. eigenvalues --    5.78535   5.79478   5.81384   5.81704   5.83513
 Alpha virt. eigenvalues --    5.87961   5.89042   5.89516   5.90321   5.90460
 Alpha virt. eigenvalues --    5.91322   5.91574   5.93464   5.94578   5.95759
 Alpha virt. eigenvalues --    5.96063   5.99265   5.99296   5.99768   6.00820
 Alpha virt. eigenvalues --    6.00829   6.00939   6.01676   6.02921   6.03368
 Alpha virt. eigenvalues --    6.04659   6.04892   6.05724   6.07088   6.07183
 Alpha virt. eigenvalues --    6.10228   6.10874   6.12459   6.12539   6.14658
 Alpha virt. eigenvalues --    6.15180   6.15320   6.17585   6.17677   6.19038
 Alpha virt. eigenvalues --    6.20613   6.20999   6.23291   6.23718   6.25181
 Alpha virt. eigenvalues --    6.26096   6.27413   6.28963   6.30544   6.32087
 Alpha virt. eigenvalues --    6.34374   6.36089   6.36479   6.37689   6.38964
 Alpha virt. eigenvalues --    6.39578   6.40399   6.41570   6.41718   6.44480
 Alpha virt. eigenvalues --    6.48887   6.56931   6.61027   6.61299   6.61484
 Alpha virt. eigenvalues --    6.61503   6.64096   6.66162   6.67395   6.68717
 Alpha virt. eigenvalues --    6.68976   6.69014   6.72272   6.73724   6.75643
 Alpha virt. eigenvalues --    6.80104   6.81459   6.82626   6.82901   6.84014
 Alpha virt. eigenvalues --    6.85634   6.86651   6.87328   6.87720   6.94263
 Alpha virt. eigenvalues --    6.95526   6.97375   6.98999   6.99250   6.99846
 Alpha virt. eigenvalues --    7.00611   7.01839   7.05110   7.05313   7.07209
 Alpha virt. eigenvalues --    7.07591   7.11483   7.17672   7.19890   7.20389
 Alpha virt. eigenvalues --    7.22352   7.22878   7.24387   7.27297   7.29963
 Alpha virt. eigenvalues --    7.33651   7.34109   7.34612   7.35761   7.38503
 Alpha virt. eigenvalues --    7.44005   7.48378   7.51295   7.68690   7.84224
 Alpha virt. eigenvalues --    8.46368   8.48451   8.56732   8.61370   8.82133
 Alpha virt. eigenvalues --    8.87804   8.90704   8.92819   8.93802   9.00941
 Alpha virt. eigenvalues --    9.44543   9.70314   9.92279  15.86824  22.34289
 Alpha virt. eigenvalues --   22.73781  22.83519  22.83577  22.86411  22.86502
 Alpha virt. eigenvalues --   22.91143  22.91885  22.92491  22.95947  23.02211
 Alpha virt. eigenvalues --   23.06256  23.08557  23.09873  23.14339  23.15006
 Alpha virt. eigenvalues --   23.15473  23.15589  23.16829  23.16845  23.18354
 Alpha virt. eigenvalues --   23.18473  23.19938  23.20301  23.25215  23.25586
 Alpha virt. eigenvalues --   23.25612  23.26017  23.26050  23.26789  23.27225
 Alpha virt. eigenvalues --   23.27245  23.27335  23.27671  23.27839  23.30485
 Alpha virt. eigenvalues --   23.31053  23.32637  23.34073  23.34581  23.35767
 Alpha virt. eigenvalues --   23.36029  23.36580  23.38674  23.38736  23.38813
 Alpha virt. eigenvalues --   23.39146  23.40448  23.47141  23.54237  23.55030
 Alpha virt. eigenvalues --   23.60446  23.71948  23.76869  23.85810  23.87764
 Alpha virt. eigenvalues --   23.88047  24.06638  24.06644  24.07337  24.07342
 Alpha virt. eigenvalues --   24.09612  24.10107  24.17214  32.56426  32.59696
 Alpha virt. eigenvalues --   33.15542  33.28371  33.44285  33.44382  43.86374
 Alpha virt. eigenvalues --   44.02159  44.14753  44.19005  44.21176  44.25592
 Alpha virt. eigenvalues --   44.44014  57.38055  57.57817
          Condensed to atoms (all electrons):
 Mulliken charges:
               1
     1  C   -0.431415
     2  C   -0.004990
     3  C   -0.088700
     4  C   -0.029717
     5  C   -0.082646
     6  C   -0.093104
     7  C    0.012772
     8  C   -0.124134
     9  C   -0.163498
    10  C    0.031629
    11  N   -0.104278
    12  C    0.004762
    13  C   -0.166282
    14  C   -0.143179
    15  C   -0.167061
    16  C   -0.144515
    17  C   -0.152632
    18  C    0.004556
    19  C   -0.153142
    20  C   -0.144617
    21  C   -0.166467
    22  C   -0.143069
    23  C   -0.165437
    24  C   -0.160229
    25  C   -0.162445
    26  N   -0.106831
    27  C    0.080965
    28  C    0.142061
    29  C   -0.251266
    30  C   -0.170396
    31  C   -0.094840
    32  C    0.138364
    33  O   -0.323889
    34  S    0.910188
    35  O   -0.460195
    36  O   -0.471581
    37  C   -0.065997
    38  C    0.059479
    39  N    0.471461
    40  O   -0.321964
    41  O   -0.329394
    42  C    0.000699
    43  C   -0.013824
    44  N    0.504714
    45  O   -0.343439
    46  O   -0.345661
    47  C   -0.083698
    48  C   -0.053377
    49  C   -0.098020
    50  C   -0.152038
    51  C    0.091161
    52  C   -0.014827
    53  C   -0.429724
    54  C   -0.097886
    55  C    0.024839
    56  C   -0.129820
    57  C   -0.054852
    58  C   -0.016227
    59  C   -0.124571
    60  C   -0.165451
    61  C    0.031083
    62  N   -0.103338
    63  C    0.002672
    64  C   -0.150902
    65  C   -0.144173
    66  C   -0.167018
    67  C   -0.142740
    68  C   -0.165424
    69  C    0.000887
    70  C   -0.152012
    71  C   -0.144116
    72  C   -0.165844
    73  C   -0.142849
    74  C   -0.163082
    75  C   -0.161505
    76  C   -0.151907
    77  N   -0.093170
    78  B    0.350291
    79  F   -0.348044
    80  F   -0.348010
    81  H    0.162398
    82  H    0.156894
    83  H    0.131245
    84  H    0.160506
    85  H    0.102420
    86  H    0.123480
    87  H    0.142155
    88  H    0.173792
    89  H    0.175960
    90  H    0.157783
    91  H    0.157894
    92  H    0.158136
    93  H    0.171637
    94  H    0.171745
    95  H    0.158198
    96  H    0.157710
    97  H    0.157203
    98  H    0.175691
    99  H    0.171938
   100  H    0.150697
   101  H    0.179160
   102  H    0.178262
   103  H    0.216160
   104  H    0.207538
   105  H    0.196592
   106  H    0.181890
   107  H    0.174200
   108  H    0.154261
   109  H    0.132434
   110  H    0.162577
   111  H    0.166686
   112  H    0.130296
   113  H    0.112658
   114  H    0.143507
   115  H    0.175118
   116  H    0.171600
   117  H    0.158279
   118  H    0.157612
   119  H    0.158104
   120  H    0.176326
   121  H    0.171908
   122  H    0.158261
   123  H    0.158011
   124  H    0.158033
   125  H    0.175642
   126  H    0.173946
   127  H    0.146329
 Sum of Mulliken charges =  -0.00000
 Mulliken charges with hydrogens summed into heavy atoms:
               1
     1  C    0.019122
     2  C   -0.004990
     3  C    0.071805
     4  C   -0.029717
     5  C    0.019774
     6  C    0.030376
     7  C    0.012772
     8  C    0.018021
     9  C    0.010294
    10  C    0.031629
    11  N   -0.104278
    12  C    0.004762
    13  C    0.009678
    14  C    0.014605
    15  C   -0.009166
    16  C    0.013622
    17  C    0.019005
    18  C    0.004556
    19  C    0.018603
    20  C    0.013581
    21  C   -0.008757
    22  C    0.014135
    23  C    0.010254
    24  C    0.011709
    25  C   -0.011748
    26  N   -0.106831
    27  C    0.080965
    28  C    0.142061
    29  C   -0.251266
    30  C    0.008764
    31  C    0.083422
    32  C    0.138364
    33  O   -0.323889
    34  S    0.910188
    35  O   -0.460195
    36  O   -0.471581
    37  C   -0.065997
    38  C    0.059479
    39  N    0.471461
    40  O   -0.321964
    41  O   -0.329394
    42  C    0.216859
    43  C   -0.013824
    44  N    0.504714
    45  O   -0.343439
    46  O   -0.345661
    47  C    0.123840
    48  C    0.143215
    49  C    0.083869
    50  C    0.022162
    51  C    0.091161
    52  C   -0.014827
    53  C    0.019548
    54  C    0.068799
    55  C    0.024839
    56  C    0.000475
    57  C    0.057806
    58  C   -0.016227
    59  C    0.018936
    60  C    0.009668
    61  C    0.031083
    62  N   -0.103338
    63  C    0.002672
    64  C    0.020698
    65  C    0.014106
    66  C   -0.009406
    67  C    0.015364
    68  C    0.010902
    69  C    0.000887
    70  C    0.019897
    71  C    0.014145
    72  C   -0.007833
    73  C    0.015184
    74  C    0.012560
    75  C    0.012441
    76  C   -0.005578
    77  N   -0.093170
    78  B    0.350291
    79  F   -0.348044
    80  F   -0.348010
 Electronic spatial extent (au):  <R**2>=         161529.1459
 Charge=              0.0000 electrons
 Dipole moment (field-independent basis, Debye):
    X=              1.8824    Y=             -5.0891    Z=             -1.9460  Tot=              5.7645
 Quadrupole moment (field-independent basis, Debye-Ang):
   XX=           -436.4180   YY=           -407.7022   ZZ=           -470.9874
   XY=             65.6124   XZ=              7.9382   YZ=             -7.5411
 Traceless Quadrupole moment (field-independent basis, Debye-Ang):
   XX=              1.9512   YY=             30.6670   ZZ=            -32.6182
   XY=             65.6124   XZ=              7.9382   YZ=             -7.5411
 Octapole moment (field-independent basis, Debye-Ang**2):
  XXX=           1530.0582  YYY=            -32.4851  ZZZ=            -13.6668  XYY=            368.2804
  XXY=           -508.5598  XXZ=             79.7597  XZZ=            -44.3681  YZZ=              8.7119
  YYZ=            -57.6370  XYZ=             51.5751
 Hexadecapole moment (field-independent basis, Debye-Ang**3):
 XXXX=        -182194.0410 YYYY=         -46795.3000 ZZZZ=          -2328.9776 XXXY=           3608.0793
 XXXZ=          -2645.8482 YYYX=            551.6990 YYYZ=           -501.5921 ZZZX=            190.3029
 ZZZY=            -82.3983 XXYY=         -35705.6991 XXZZ=         -28399.7415 YYZZ=          -9183.5301
 XXYZ=          -1008.8417 YYXZ=           -429.8404 ZZXY=             60.2153
 N-N= 1.156845687617D+04 E-N=-3.225611119828D+04  KE= 3.887024282733D+03
 Leave Link  601 at Sat Oct 11 00:49:38 2025, MaxMem= 30870077440 cpu:             166.3 elap:               3.3
 (Enter /work/home/accqbws0vm/apprepo/gaussian/16-hy/scripts/../app/g16/l9999.exe)
 1\1\GINC-K02R1N22\SP\RM062X\def2TZVPP\C63H47B1F2N6O7S1\ACCQBWS0VM\11-O
 ct-2025\0\\#p M062X/DEF2TZVPP scrf=(solvent=water) em=GD3\\Energy calc
 ulation for M100035170\\0,1\C,0,3.996512,-3.667723,0.514571\C,0,2.6012
 11,-3.134319,0.38494\C,0,1.458347,-3.903201,0.52243\C,0,0.319308,-3.08
 5092,0.328809\C,0,-1.020863,-3.614518,0.36602\C,0,-2.177093,-3.068822,
 -0.094768\C,0,-3.4966,-3.677437,-0.025143\C,0,-4.573866,-3.040803,-0.6
 76959\C,0,-5.856789,-3.56969,-0.664049\C,0,-6.127845,-4.767254,0.02428
 1\N,0,-7.428524,-5.310816,0.053188\C,0,-7.623183,-6.723627,0.083597\C,
 0,-6.887903,-7.564091,-0.767055\C,0,-7.085532,-8.943868,-0.730712\C,0,
 -8.027816,-9.503517,0.135958\C,0,-8.767892,-8.666981,0.975315\C,0,-8.5
 64896,-7.287625,0.958315\C,0,-8.571893,-4.457507,0.048119\C,0,-9.66382
 2,-4.744504,-0.785608\C,0,-10.789426,-3.921428,-0.7748\C,0,-10.837548,
 -2.795912,0.051379\C,0,-9.748038,-2.505083,0.87655\C,0,-8.625492,-3.33
 1928,0.885237\C,0,-5.062665,-5.407521,0.693107\C,0,-3.783229,-4.876831
 ,0.664301\N,0,0.745851,-1.802283,0.10227\C,0,2.148454,-1.797669,0.1254
 25\C,0,2.873638,-0.601562,-0.038999\C,0,4.366938,-0.642715,-0.087673\C
 ,0,5.121975,-0.360741,1.059502\C,0,6.515188,-0.391012,1.017373\C,0,7.1
 36207,-0.706051,-0.186701\O,0,8.549559,-0.802165,-0.209499\S,0,9.35445
 6,0.538015,-0.74078\O,0,9.233348,0.603075,-2.196529\O,0,8.931038,1.669
 756,0.081878\C,0,11.013152,-0.020375,-0.254962\C,0,12.092383,0.8679,-0
 .086388\N,0,11.999978,2.29611,-0.412433\O,0,11.1682,2.630682,-1.255533
 \O,0,12.773528,3.067219,0.148465\C,0,13.330019,0.422343,0.35242\C,0,13
 .489017,-0.936024,0.591381\N,0,14.803066,-1.417777,1.043698\O,0,14.925
 33,-2.620284,1.271508\O,0,15.706504,-0.592103,1.170337\C,0,12.458208,-
 1.846366,0.411371\C,0,11.212718,-1.378487,-0.007469\C,0,6.417231,-0.99
 3548,-1.342688\C,0,5.024141,-0.960966,-1.284001\C,0,2.215273,0.632006,
 -0.145371\C,0,2.709683,1.971724,-0.331185\C,0,4.119901,2.451118,-0.497
 676\C,0,1.600023,2.797189,-0.332677\C,0,0.437484,2.001152,-0.155825\C,
 0,-0.936769,2.415413,-0.068567\C,0,-1.34906,3.694401,-0.275352\C,0,-2.
 708725,4.196275,-0.186307\C,0,-2.950469,5.563914,-0.435362\C,0,-4.2249
 41,6.107551,-0.367649\C,0,-5.328874,5.299052,-0.03521\N,0,-6.626865,5.
 840685,0.04528\C,0,-7.764058,5.057811,-0.314232\C,0,-8.908918,5.061777
 ,0.497574\C,0,-10.026684,4.31064,0.136243\C,0,-10.015013,3.535455,-1.0
 26045\C,0,-8.873664,3.526316,-1.831988\C,0,-7.757396,4.287591,-1.48777
 \C,0,-6.826468,7.181862,0.490394\C,0,-7.705066,8.031197,-0.199389\C,0,
 -7.914736,9.335147,0.248155\C,0,-7.2434,9.814687,1.375567\C,0,-6.36360
 3,8.971613,2.059442\C,0,-6.160436,7.661061,1.629246\C,0,-5.100492,3.92
 9401,0.219836\C,0,-3.825311,3.394898,0.142182\N,0,0.825079,0.696417,-0
 .048687\B,0,-0.123428,-0.527996,-0.0464\F,0,-1.032803,-0.430362,1.0167
 63\F,0,-0.839274,-0.551745,-1.260678\H,0,4.559697,-3.580428,-0.419556\
 H,0,4.56973,-3.141304,1.283396\H,0,3.956714,-4.725942,0.78611\H,0,1.42
 0967,-4.965667,0.724348\H,0,-1.049255,-4.618349,0.783495\H,0,-2.143448
 ,-2.108396,-0.595946\H,0,-4.38914,-2.118024,-1.220381\H,0,-6.653939,-3
 .059131,-1.192514\H,0,-6.167199,-7.13454,-1.454946\H,0,-6.509598,-9.58
 1253,-1.395199\H,0,-8.184357,-10.57752,0.155912\H,0,-9.499739,-9.08863
 8,1.658031\H,0,-9.133004,-6.64411,1.621935\H,0,-9.626995,-5.609833,-1.
 439115\H,0,-11.626575,-4.156495,-1.425495\H,0,-11.712954,-2.153981,0.0
 52886\H,0,-9.775027,-1.63826,1.530289\H,0,-7.789834,-3.109877,1.540536
 \H,0,-5.250422,-6.319851,1.248221\H,0,-2.998278,-5.392154,1.208875\H,0
 ,4.619141,-0.118029,1.989786\H,0,7.109968,-0.179701,1.898689\H,0,14.14
 734,1.118193,0.483282\H,0,12.612263,-2.901145,0.598299\H,0,10.401791,-
 2.082738,-0.125829\H,0,6.934024,-1.246373,-2.261238\H,0,4.445759,-1.18
 5736,-2.173999\H,0,4.639934,1.924491,-1.303206\H,0,4.117132,3.518501,-
 0.733503\H,0,4.712436,2.308746,0.411377\H,0,1.613555,3.873503,-0.43461
 5\H,0,-1.656451,1.648362,0.193043\H,0,-0.605177,4.444462,-0.537432\H,0
 ,-2.11514,6.206198,-0.701083\H,0,-4.37186,7.160545,-0.579715\H,0,-8.91
 8619,5.651477,1.408259\H,0,-10.905128,4.322982,0.774721\H,0,-10.884829
 ,2.947133,-1.301148\H,0,-8.854294,2.935603,-2.743089\H,0,-6.880415,4.2
 89851,-2.126614\H,0,-8.21912,7.667862,-1.08312\H,0,-8.597237,9.981317,
 -0.29601\H,0,-7.404383,10.832247,1.717725\H,0,-5.842097,9.32846,2.9427
 11\H,0,-5.489009,7.005656,2.174082\H,0,-5.932763,3.289531,0.490605\H,0
 ,-3.693,2.339073,0.355887\\Version=ES64L-G16RevA.03\State=1-A\HF=-3906
 .7486417\RMSD=3.020e-09\Dipole=-0.7405788,-2.0022243,0.7656346\Quadrup
 ole=1.4506553,22.800171,-24.2508263,-48.7812114,5.9018422,5.6066462\PG
 =C01 [X(C63H47B1F2N6O7S1)]\\@


 A CHEMICAL PHYSICIST MAKES PRECISE MEASUREMENTS ON IMPURE COMPOUNDS.
 A THEORETICAL PHYSICAL CHEMIST MAKES IMPRECISE
     MEASUREMENTS ON PURE COMPOUNDS.
 AN EXPERIMENTAL PHYSICAL CHEMIST MAKES IMPRECISE
     MEASUREMENTS ON IMPURE COMPOUNDS.
 Job cpu time:       2 days  0 hours  3 minutes 13.8 seconds.
 Elapsed time:       0 days  0 hours 45 minutes 56.4 seconds.
 File lengths (MBytes):  RWF=   6528 Int=      0 D2E=      0 Chk=    573 Scr=      1
 Normal termination of Gaussian 16 at Sat Oct 11 00:49:38 2025.
