 Entering Gaussian System, Link 0=g16
 Input=M100034731_reduced_sp.gjf
 Output=M100034731_reduced_sp.log
 Initial command:
 /work/home/accqbws0vm/apprepo/gaussian/16-hy/scripts/../app/g16/l1.exe "/work/home/accqbws0vm/1009_first_energy/tmp_M100034731_reduced_sp_25803945/Gau-33915.inp" -scrdir="/work/home/accqbws0vm/1009_first_energy/tmp_M100034731_reduced_sp_25803945/"
 Entering Link 1 = /work/home/accqbws0vm/apprepo/gaussian/16-hy/scripts/../app/g16/l1.exe PID=     33916.
  
 Copyright (c) 1988,1990,1992,1993,1995,1998,2003,2009,2016,
            Gaussian, Inc.  All Rights Reserved.
  
 This is part of the Gaussian(R) 16 program.  It is based on
 the Gaussian(R) 09 system (copyright 2009, Gaussian, Inc.),
 the Gaussian(R) 03 system (copyright 2003, Gaussian, Inc.),
 the Gaussian(R) 98 system (copyright 1998, Gaussian, Inc.),
 the Gaussian(R) 94 system (copyright 1995, Gaussian, Inc.),
 the Gaussian 92(TM) system (copyright 1992, Gaussian, Inc.),
 the Gaussian 90(TM) system (copyright 1990, Gaussian, Inc.),
 the Gaussian 88(TM) system (copyright 1988, Gaussian, Inc.),
 the Gaussian 86(TM) system (copyright 1986, Carnegie Mellon
 University), and the Gaussian 82(TM) system (copyright 1983,
 Carnegie Mellon University). Gaussian is a federally registered
 trademark of Gaussian, Inc.
  
 This software contains proprietary and confidential information,
 including trade secrets, belonging to Gaussian, Inc.
  
 This software is provided under written license and may be
 used, copied, transmitted, or stored only in accord with that
 written license.
  
 The following legend is applicable only to US Government
 contracts under FAR:
  
                    RESTRICTED RIGHTS LEGEND
  
 Use, reproduction and disclosure by the US Government is
 subject to restrictions as set forth in subparagraphs (a)
 and (c) of the Commercial Computer Software - Restricted
 Rights clause in FAR 52.227-19.
  
 Gaussian, Inc.
 340 Quinnipiac St., Bldg. 40, Wallingford CT 06492
  
  
 ---------------------------------------------------------------
 Warning -- This program may not be used in any manner that
 competes with the business of Gaussian, Inc. or will provide
 assistance to any competitor of Gaussian, Inc.  The licensee
 of this program is prohibited from giving any competitor of
 Gaussian, Inc. access to this program.  By using this program,
 the user acknowledges that Gaussian, Inc. is engaged in the
 business of creating and licensing software in the field of
 computational chemistry and represents and warrants to the
 licensee that it is not a competitor of Gaussian, Inc. and that
 it will not use this program in any manner prohibited above.
 ---------------------------------------------------------------
  

 Cite this work as:
 Gaussian 16, Revision A.03,
 M. J. Frisch, G. W. Trucks, H. B. Schlegel, G. E. Scuseria, 
 M. A. Robb, J. R. Cheeseman, G. Scalmani, V. Barone, 
 G. A. Petersson, H. Nakatsuji, X. Li, M. Caricato, A. V. Marenich, 
 J. Bloino, B. G. Janesko, R. Gomperts, B. Mennucci, H. P. Hratchian, 
 J. V. Ortiz, A. F. Izmaylov, J. L. Sonnenberg, D. Williams-Young, 
 F. Ding, F. Lipparini, F. Egidi, J. Goings, B. Peng, A. Petrone, 
 T. Henderson, D. Ranasinghe, V. G. Zakrzewski, J. Gao, N. Rega, 
 G. Zheng, W. Liang, M. Hada, M. Ehara, K. Toyota, R. Fukuda, 
 J. Hasegawa, M. Ishida, T. Nakajima, Y. Honda, O. Kitao, H. Nakai, 
 T. Vreven, K. Throssell, J. A. Montgomery, Jr., J. E. Peralta, 
 F. Ogliaro, M. J. Bearpark, J. J. Heyd, E. N. Brothers, K. N. Kudin, 
 V. N. Staroverov, T. A. Keith, R. Kobayashi, J. Normand, 
 K. Raghavachari, A. P. Rendell, J. C. Burant, S. S. Iyengar, 
 J. Tomasi, M. Cossi, J. M. Millam, M. Klene, C. Adamo, R. Cammi, 
 J. W. Ochterski, R. L. Martin, K. Morokuma, O. Farkas, 
 J. B. Foresman, and D. J. Fox, Gaussian, Inc., Wallingford CT, 2016.
 
 ******************************************
 Gaussian 16:  ES64L-G16RevA.03 25-Dec-2016
                 9-Oct-2025 
 ******************************************
 %nprocshared=64
 Will use up to   64 processors via shared memory.
 %mem=230GB
 %chk=M100034731_reduced_sp.chk
 ----------------------------------------------
 #p M062X/DEF2TZVPP scrf=(solvent=water) em=GD3
 ----------------------------------------------
 1/38=1,172=1/1;
 2/12=2,17=6,18=5,40=1/2;
 3/5=44,7=202,11=2,25=1,30=1,70=2201,72=1,74=-55,124=31/1,2,3;
 4//1;
 5/5=2,38=5,53=1/2;
 6/7=2,8=2,9=2,10=2,28=1/1;
 99/5=1,9=1/99;
 Leave Link    1 at Thu Oct  9 06:43:12 2025, MaxMem= 30870077440 cpu:               6.0 elap:               0.1
 (Enter /work/home/accqbws0vm/apprepo/gaussian/16-hy/scripts/../app/g16/l101.exe)
 -----------------------------------------
 Energy calculation for M100034731_reduced
 -----------------------------------------
 Symbolic Z-matrix:
 Charge = -1 Multiplicity = 2
 C                     2.40474   6.63336  -0.19756 
 C                     1.76406   5.85277   0.96342 
 C                     0.75412   4.82848   0.51445 
 C                     1.04688   3.50049   0.10382 
 C                     2.3768    2.94155   0.12274 
 C                     2.76106   1.63868   0.08312 
 C                     4.13327   1.14961   0.11973 
 C                     5.27542   1.98055   0.09092 
 C                     6.5572    1.45334   0.12933 
 C                     6.7649    0.06127   0.20768 
 C                     5.6377   -0.77888   0.23549 
 C                     4.35806  -0.24165   0.18475 
 N                     8.07361  -0.47367   0.24935 
 C                     9.1045    0.20273   0.96265 
 C                     10.38874   0.32437   0.40782 
 C                     11.3997   0.97523   1.11368 
 C                     11.14551   1.52825   2.37135 
 C                     9.86633   1.41457   2.92186 
 C                     8.85353   0.75033   2.23126 
 C                     8.37221  -1.6968   -0.41813 
 C                     7.89271  -1.93599  -1.71613 
 C                     8.1864   -3.13576  -2.36266 
 C                     8.9743   -4.10556  -1.73724 
 C                     9.46011  -3.86524  -0.44956 
 C                     9.1572   -2.67567   0.21189 
 N                    -0.12621   2.88063  -0.26252 
 C                    -1.17896   3.77909  -0.05564 
 C                    -0.62667   5.01578   0.40634 
 C                    -1.31775   6.32507   0.6568 
 C                    -2.51724   3.43301  -0.38289 
 C                    -2.77938   2.2475   -1.12193 
 C                    -3.98727   1.56704  -1.45771 
 C                    -5.39861   1.88934  -1.06215 
 C                    -3.62298   0.42835  -2.20263 
 C                    -4.56727  -0.53723  -2.86736 
 C                    -5.29729   0.05868  -4.08325 
 C                    -2.21353   0.40465  -2.27095 
 C                    -1.33795  -0.52103  -2.9958 
 C                    -1.30867  -1.86981  -2.92995 
 C                    -1.98881  -2.76163  -1.98168 
 C                    -2.34242  -4.06523  -2.37758 
 C                    -2.98067  -4.9434   -1.50896 
 C                    -3.25868  -4.55987  -0.1853 
 C                    -2.87019  -3.27347   0.234 
 C                    -2.2537   -2.39447  -0.6471 
 N                    -3.89837  -5.44979   0.71164 
 C                    -4.8341   -4.95569   1.66514 
 C                    -4.81021  -5.41983   2.9903 
 C                    -5.73546  -4.9435    3.91831 
 C                    -6.6854   -3.98807   3.54855 
 C                    -6.70607  -3.51941   2.23238 
 C                    -5.79643  -4.00288   1.29287 
 C                    -3.6056   -6.84326   0.67476 
 C                    -2.28143  -7.29196   0.54221 
 C                    -2.00342  -8.65764   0.50292 
 C                    -3.03267  -9.59614   0.61357 
 C                    -4.34964  -9.15176   0.75564 
 C                    -4.63935  -7.78808   0.77794 
 N                    -1.71383   1.50434  -1.62695 
 B                    -0.27291   1.57158  -1.07648 
 F                     0.6507    1.53914  -2.13092 
 F                    -0.06114   0.43938  -0.24552 
 C                    -3.62156   4.30865   0.02774 
 C                    -4.5267    4.84228  -0.92095 
 C                    -5.55543   5.68375  -0.54402 
 C                    -5.73874   5.99707   0.82205 
 C                    -4.85722   5.46224   1.78864 
 C                    -3.81327   4.65063   1.38788 
 N                    -6.78927   6.83527   1.21699 
 O                    -7.57677   7.32424   0.3346 
 O                    -6.95279   7.10401   2.45745 
 H                     2.93148   5.9608   -0.88266 
 H                     1.64664   7.17078  -0.777 
 H                     3.1263    7.36695   0.17796 
 H                     2.55292   5.36479   1.54614 
 H                     1.28209   6.55957   1.64671 
 H                     3.14874   3.69773   0.23582 
 H                     2.00199   0.86531   0.04591 
 H                     5.16257   3.05739   0.01349 
 H                     7.41173   2.12003   0.08804 
 H                     5.76795  -1.85356   0.30128 
 H                     3.50314  -0.91202   0.21234 
 H                     10.58978  -0.08971  -0.57462 
 H                     12.38727   1.06117   0.6699 
 H                     11.93344   2.04003   2.91505 
 H                     9.65563   1.83183   3.90225 
 H                     7.86744   0.65144   2.67273 
 H                     7.29395  -1.18083  -2.21445 
 H                     7.8086   -3.30464  -3.36684 
 H                     9.20681  -5.03549  -2.24677 
 H                     10.06818  -4.61242   0.05203 
 H                     9.5258   -2.50227   1.21749 
 H                    -2.1269    6.49796  -0.05657 
 H                    -1.75789   6.38896   1.65826 
 H                    -0.6053    7.1485    0.56047 
 H                    -5.87802   2.61366  -1.7301 
 H                    -6.00622   0.97978  -1.08225 
 H                    -5.44973   2.30539  -0.05298 
 H                    -4.01661  -1.42547  -3.18548 
 H                    -5.31151  -0.88463  -2.139 
 H                    -5.89628   0.93204  -3.80631 
 H                    -4.58278   0.37421  -4.85114 
 H                    -5.96999  -0.68042  -4.53193 
 H                    -0.64254  -0.04637  -3.68506 
 H                    -0.67469  -2.37636  -3.65674 
 H                    -2.13567  -4.38583  -3.39513 
 H                    -3.26464  -5.93126  -1.85497 
 H                    -3.03763  -2.97253   1.26257 
 H                    -1.92036  -1.42823  -0.28386 
 H                    -4.06601  -6.15037   3.28948 
 H                    -5.70221  -5.31259   4.93924 
 H                    -7.39966  -3.61415   4.27545 
 H                    -7.44375  -2.78292   1.92741 
 H                    -5.82977  -3.64554   0.26903 
 H                    -1.47465  -6.56998   0.47193 
 H                    -0.97367  -8.98744   0.40041 
 H                    -2.81145  -10.65864   0.58989 
 H                    -5.16139  -9.86887   0.83641 
 H                    -5.66608  -7.45085   0.87395 
 H                    -4.38795   4.61008  -1.97184 
 H                    -6.2206    6.11188  -1.28263 
 H                    -5.01282   5.69095   2.83502 
 H                    -3.14051   4.24139   2.13481 
 
 ITRead=  0  0  0  0  0  0  0  0  0  0  0  0  0  0  0  0  0  0  0  0
 ITRead=  0  0  0  0  0  0  0  0  0  0  0  0  0  0  0  0  0  0  0  0
 ITRead=  0  0  0  0  0  0  0  0  0  0  0  0  0  0  0  0  0  0  0  0
 ITRead=  0  0  0  0  0  0  0  0  0  0  0  0  0  0  0  0  0  0  0  0
 ITRead=  0  0  0  0  0  0  0  0  0  0  0  0  0  0  0  0  0  0  0  0
 ITRead=  0  0  0  0  0  0  0  0  0  0  0  0  0  0  0  0  0  0  0  0
 ITRead=  0  0  0
 MicOpt= -1 -1 -1 -1 -1 -1 -1 -1 -1 -1 -1 -1 -1 -1 -1 -1 -1 -1 -1 -1
 MicOpt= -1 -1 -1 -1 -1 -1 -1 -1 -1 -1 -1 -1 -1 -1 -1 -1 -1 -1 -1 -1
 MicOpt= -1 -1 -1 -1 -1 -1 -1 -1 -1 -1 -1 -1 -1 -1 -1 -1 -1 -1 -1 -1
 MicOpt= -1 -1 -1 -1 -1 -1 -1 -1 -1 -1 -1 -1 -1 -1 -1 -1 -1 -1 -1 -1
 MicOpt= -1 -1 -1 -1 -1 -1 -1 -1 -1 -1 -1 -1 -1 -1 -1 -1 -1 -1 -1 -1
 MicOpt= -1 -1 -1 -1 -1 -1 -1 -1 -1 -1 -1 -1 -1 -1 -1 -1 -1 -1 -1 -1
 MicOpt= -1 -1 -1
 NAtoms=    123 NQM=      123 NQMF=       0 NMMI=      0 NMMIF=      0
                NMic=       0 NMicF=      0.
                    Isotopes and Nuclear Properties:
 (Nuclear quadrupole moments (NQMom) in fm**2, nuclear magnetic moments (NMagM)
  in nuclear magnetons)

  Atom         1           2           3           4           5           6           7           8           9          10
 IAtWgt=          12          12          12          12          12          12          12          12          12          12
 AtmWgt=  12.0000000  12.0000000  12.0000000  12.0000000  12.0000000  12.0000000  12.0000000  12.0000000  12.0000000  12.0000000
 NucSpn=           0           0           0           0           0           0           0           0           0           0
 AtZEff=  -0.0000000  -0.0000000  -0.0000000  -0.0000000  -0.0000000  -0.0000000  -0.0000000  -0.0000000  -0.0000000  -0.0000000
 NQMom=    0.0000000   0.0000000   0.0000000   0.0000000   0.0000000   0.0000000   0.0000000   0.0000000   0.0000000   0.0000000
 NMagM=    0.0000000   0.0000000   0.0000000   0.0000000   0.0000000   0.0000000   0.0000000   0.0000000   0.0000000   0.0000000
 AtZNuc=   6.0000000   6.0000000   6.0000000   6.0000000   6.0000000   6.0000000   6.0000000   6.0000000   6.0000000   6.0000000

  Atom        11          12          13          14          15          16          17          18          19          20
 IAtWgt=          12          12          14          12          12          12          12          12          12          12
 AtmWgt=  12.0000000  12.0000000  14.0030740  12.0000000  12.0000000  12.0000000  12.0000000  12.0000000  12.0000000  12.0000000
 NucSpn=           0           0           2           0           0           0           0           0           0           0
 AtZEff=  -0.0000000  -0.0000000  -0.0000000  -0.0000000  -0.0000000  -0.0000000  -0.0000000  -0.0000000  -0.0000000  -0.0000000
 NQMom=    0.0000000   0.0000000   2.0440000   0.0000000   0.0000000   0.0000000   0.0000000   0.0000000   0.0000000   0.0000000
 NMagM=    0.0000000   0.0000000   0.4037610   0.0000000   0.0000000   0.0000000   0.0000000   0.0000000   0.0000000   0.0000000
 AtZNuc=   6.0000000   6.0000000   7.0000000   6.0000000   6.0000000   6.0000000   6.0000000   6.0000000   6.0000000   6.0000000

  Atom        21          22          23          24          25          26          27          28          29          30
 IAtWgt=          12          12          12          12          12          14          12          12          12          12
 AtmWgt=  12.0000000  12.0000000  12.0000000  12.0000000  12.0000000  14.0030740  12.0000000  12.0000000  12.0000000  12.0000000
 NucSpn=           0           0           0           0           0           2           0           0           0           0
 AtZEff=  -0.0000000  -0.0000000  -0.0000000  -0.0000000  -0.0000000  -0.0000000  -0.0000000  -0.0000000  -0.0000000  -0.0000000
 NQMom=    0.0000000   0.0000000   0.0000000   0.0000000   0.0000000   2.0440000   0.0000000   0.0000000   0.0000000   0.0000000
 NMagM=    0.0000000   0.0000000   0.0000000   0.0000000   0.0000000   0.4037610   0.0000000   0.0000000   0.0000000   0.0000000
 AtZNuc=   6.0000000   6.0000000   6.0000000   6.0000000   6.0000000   7.0000000   6.0000000   6.0000000   6.0000000   6.0000000

  Atom        31          32          33          34          35          36          37          38          39          40
 IAtWgt=          12          12          12          12          12          12          12          12          12          12
 AtmWgt=  12.0000000  12.0000000  12.0000000  12.0000000  12.0000000  12.0000000  12.0000000  12.0000000  12.0000000  12.0000000
 NucSpn=           0           0           0           0           0           0           0           0           0           0
 AtZEff=  -0.0000000  -0.0000000  -0.0000000  -0.0000000  -0.0000000  -0.0000000  -0.0000000  -0.0000000  -0.0000000  -0.0000000
 NQMom=    0.0000000   0.0000000   0.0000000   0.0000000   0.0000000   0.0000000   0.0000000   0.0000000   0.0000000   0.0000000
 NMagM=    0.0000000   0.0000000   0.0000000   0.0000000   0.0000000   0.0000000   0.0000000   0.0000000   0.0000000   0.0000000
 AtZNuc=   6.0000000   6.0000000   6.0000000   6.0000000   6.0000000   6.0000000   6.0000000   6.0000000   6.0000000   6.0000000

  Atom        41          42          43          44          45          46          47          48          49          50
 IAtWgt=          12          12          12          12          12          14          12          12          12          12
 AtmWgt=  12.0000000  12.0000000  12.0000000  12.0000000  12.0000000  14.0030740  12.0000000  12.0000000  12.0000000  12.0000000
 NucSpn=           0           0           0           0           0           2           0           0           0           0
 AtZEff=  -0.0000000  -0.0000000  -0.0000000  -0.0000000  -0.0000000  -0.0000000  -0.0000000  -0.0000000  -0.0000000  -0.0000000
 NQMom=    0.0000000   0.0000000   0.0000000   0.0000000   0.0000000   2.0440000   0.0000000   0.0000000   0.0000000   0.0000000
 NMagM=    0.0000000   0.0000000   0.0000000   0.0000000   0.0000000   0.4037610   0.0000000   0.0000000   0.0000000   0.0000000
 AtZNuc=   6.0000000   6.0000000   6.0000000   6.0000000   6.0000000   7.0000000   6.0000000   6.0000000   6.0000000   6.0000000

  Atom        51          52          53          54          55          56          57          58          59          60
 IAtWgt=          12          12          12          12          12          12          12          12          14          11
 AtmWgt=  12.0000000  12.0000000  12.0000000  12.0000000  12.0000000  12.0000000  12.0000000  12.0000000  14.0030740  11.0093053
 NucSpn=           0           0           0           0           0           0           0           0           2           3
 AtZEff=  -0.0000000  -0.0000000  -0.0000000  -0.0000000  -0.0000000  -0.0000000  -0.0000000  -0.0000000  -0.0000000  -0.0000000
 NQMom=    0.0000000   0.0000000   0.0000000   0.0000000   0.0000000   0.0000000   0.0000000   0.0000000   2.0440000   4.0590000
 NMagM=    0.0000000   0.0000000   0.0000000   0.0000000   0.0000000   0.0000000   0.0000000   0.0000000   0.4037610   2.6886370
 AtZNuc=   6.0000000   6.0000000   6.0000000   6.0000000   6.0000000   6.0000000   6.0000000   6.0000000   7.0000000   5.0000000

  Atom        61          62          63          64          65          66          67          68          69          70
 IAtWgt=          19          19          12          12          12          12          12          12          14          16
 AtmWgt=  18.9984032  18.9984032  12.0000000  12.0000000  12.0000000  12.0000000  12.0000000  12.0000000  14.0030740  15.9949146
 NucSpn=           1           1           0           0           0           0           0           0           2           0
 AtZEff=  -0.0000000  -0.0000000  -0.0000000  -0.0000000  -0.0000000  -0.0000000  -0.0000000  -0.0000000  -0.0000000  -0.0000000
 NQMom=    0.0000000   0.0000000   0.0000000   0.0000000   0.0000000   0.0000000   0.0000000   0.0000000   2.0440000   0.0000000
 NMagM=    2.6288670   2.6288670   0.0000000   0.0000000   0.0000000   0.0000000   0.0000000   0.0000000   0.4037610   0.0000000
 AtZNuc=   9.0000000   9.0000000   6.0000000   6.0000000   6.0000000   6.0000000   6.0000000   6.0000000   7.0000000   8.0000000

  Atom        71          72          73          74          75          76          77          78          79          80
 IAtWgt=          16           1           1           1           1           1           1           1           1           1
 AtmWgt=  15.9949146   1.0078250   1.0078250   1.0078250   1.0078250   1.0078250   1.0078250   1.0078250   1.0078250   1.0078250
 NucSpn=           0           1           1           1           1           1           1           1           1           1
 AtZEff=  -0.0000000  -0.0000000  -0.0000000  -0.0000000  -0.0000000  -0.0000000  -0.0000000  -0.0000000  -0.0000000  -0.0000000
 NQMom=    0.0000000   0.0000000   0.0000000   0.0000000   0.0000000   0.0000000   0.0000000   0.0000000   0.0000000   0.0000000
 NMagM=    0.0000000   2.7928460   2.7928460   2.7928460   2.7928460   2.7928460   2.7928460   2.7928460   2.7928460   2.7928460
 AtZNuc=   8.0000000   1.0000000   1.0000000   1.0000000   1.0000000   1.0000000   1.0000000   1.0000000   1.0000000   1.0000000

  Atom        81          82          83          84          85          86          87          88          89          90
 IAtWgt=           1           1           1           1           1           1           1           1           1           1
 AtmWgt=   1.0078250   1.0078250   1.0078250   1.0078250   1.0078250   1.0078250   1.0078250   1.0078250   1.0078250   1.0078250
 NucSpn=           1           1           1           1           1           1           1           1           1           1
 AtZEff=  -0.0000000  -0.0000000  -0.0000000  -0.0000000  -0.0000000  -0.0000000  -0.0000000  -0.0000000  -0.0000000  -0.0000000
 NQMom=    0.0000000   0.0000000   0.0000000   0.0000000   0.0000000   0.0000000   0.0000000   0.0000000   0.0000000   0.0000000
 NMagM=    2.7928460   2.7928460   2.7928460   2.7928460   2.7928460   2.7928460   2.7928460   2.7928460   2.7928460   2.7928460
 AtZNuc=   1.0000000   1.0000000   1.0000000   1.0000000   1.0000000   1.0000000   1.0000000   1.0000000   1.0000000   1.0000000

  Atom        91          92          93          94          95          96          97          98          99         100
 IAtWgt=           1           1           1           1           1           1           1           1           1           1
 AtmWgt=   1.0078250   1.0078250   1.0078250   1.0078250   1.0078250   1.0078250   1.0078250   1.0078250   1.0078250   1.0078250
 NucSpn=           1           1           1           1           1           1           1           1           1           1
 AtZEff=  -0.0000000  -0.0000000  -0.0000000  -0.0000000  -0.0000000  -0.0000000  -0.0000000  -0.0000000  -0.0000000  -0.0000000
 NQMom=    0.0000000   0.0000000   0.0000000   0.0000000   0.0000000   0.0000000   0.0000000   0.0000000   0.0000000   0.0000000
 NMagM=    2.7928460   2.7928460   2.7928460   2.7928460   2.7928460   2.7928460   2.7928460   2.7928460   2.7928460   2.7928460
 AtZNuc=   1.0000000   1.0000000   1.0000000   1.0000000   1.0000000   1.0000000   1.0000000   1.0000000   1.0000000   1.0000000

  Atom       101         102         103         104         105         106         107         108         109         110
 IAtWgt=           1           1           1           1           1           1           1           1           1           1
 AtmWgt=   1.0078250   1.0078250   1.0078250   1.0078250   1.0078250   1.0078250   1.0078250   1.0078250   1.0078250   1.0078250
 NucSpn=           1           1           1           1           1           1           1           1           1           1
 AtZEff=  -0.0000000  -0.0000000  -0.0000000  -0.0000000  -0.0000000  -0.0000000  -0.0000000  -0.0000000  -0.0000000  -0.0000000
 NQMom=    0.0000000   0.0000000   0.0000000   0.0000000   0.0000000   0.0000000   0.0000000   0.0000000   0.0000000   0.0000000
 NMagM=    2.7928460   2.7928460   2.7928460   2.7928460   2.7928460   2.7928460   2.7928460   2.7928460   2.7928460   2.7928460
 AtZNuc=   1.0000000   1.0000000   1.0000000   1.0000000   1.0000000   1.0000000   1.0000000   1.0000000   1.0000000   1.0000000

  Atom       111         112         113         114         115         116         117         118         119         120
 IAtWgt=           1           1           1           1           1           1           1           1           1           1
 AtmWgt=   1.0078250   1.0078250   1.0078250   1.0078250   1.0078250   1.0078250   1.0078250   1.0078250   1.0078250   1.0078250
 NucSpn=           1           1           1           1           1           1           1           1           1           1
 AtZEff=  -0.0000000  -0.0000000  -0.0000000  -0.0000000  -0.0000000  -0.0000000  -0.0000000  -0.0000000  -0.0000000  -0.0000000
 NQMom=    0.0000000   0.0000000   0.0000000   0.0000000   0.0000000   0.0000000   0.0000000   0.0000000   0.0000000   0.0000000
 NMagM=    2.7928460   2.7928460   2.7928460   2.7928460   2.7928460   2.7928460   2.7928460   2.7928460   2.7928460   2.7928460
 AtZNuc=   1.0000000   1.0000000   1.0000000   1.0000000   1.0000000   1.0000000   1.0000000   1.0000000   1.0000000   1.0000000

  Atom       121         122         123
 IAtWgt=           1           1           1
 AtmWgt=   1.0078250   1.0078250   1.0078250
 NucSpn=           1           1           1
 AtZEff=  -0.0000000  -0.0000000  -0.0000000
 NQMom=    0.0000000   0.0000000   0.0000000
 NMagM=    2.7928460   2.7928460   2.7928460
 AtZNuc=   1.0000000   1.0000000   1.0000000
 Leave Link  101 at Thu Oct  9 06:43:12 2025, MaxMem= 30870077440 cpu:               7.5 elap:               0.1
 (Enter /work/home/accqbws0vm/apprepo/gaussian/16-hy/scripts/../app/g16/l202.exe)
 Stoichiometry    C61H52BF2N5O2(1-,2)
 Framework group  C1[X(C61H52BF2N5O2)]
 Deg. of freedom   363
 Full point group                 C1      NOp   1
 Largest Abelian subgroup         C1      NOp   1
 Largest concise Abelian subgroup C1      NOp   1
                         Standard orientation:                         
 ---------------------------------------------------------------------
 Center     Atomic      Atomic             Coordinates (Angstroms)
 Number     Number       Type             X           Y           Z
 ---------------------------------------------------------------------
      1          6           0        2.404735   -6.633360    0.197564
      2          6           0        1.764061   -5.852769   -0.963416
      3          6           0        0.754116   -4.828484   -0.514449
      4          6           0        1.046882   -3.500494   -0.103817
      5          6           0        2.376796   -2.941554   -0.122740
      6          6           0        2.761061   -1.638681   -0.083118
      7          6           0        4.133269   -1.149607   -0.119727
      8          6           0        5.275423   -1.980550   -0.090918
      9          6           0        6.557196   -1.453339   -0.129329
     10          6           0        6.764901   -0.061265   -0.207681
     11          6           0        5.637699    0.778876   -0.235488
     12          6           0        4.358057    0.241645   -0.184754
     13          7           0        8.073608    0.473673   -0.249353
     14          6           0        9.104497   -0.202732   -0.962646
     15          6           0       10.388737   -0.324369   -0.407820
     16          6           0       11.399697   -0.975227   -1.113678
     17          6           0       11.145509   -1.528247   -2.371352
     18          6           0        9.866327   -1.414570   -2.921864
     19          6           0        8.853528   -0.750326   -2.231259
     20          6           0        8.372211    1.696802    0.418130
     21          6           0        7.892714    1.935987    1.716131
     22          6           0        8.186401    3.135758    2.362662
     23          6           0        8.974302    4.105562    1.737235
     24          6           0        9.460107    3.865236    0.449557
     25          6           0        9.157196    2.675673   -0.211887
     26          7           0       -0.126208   -2.880632    0.262517
     27          6           0       -1.178956   -3.779086    0.055640
     28          6           0       -0.626665   -5.015783   -0.406343
     29          6           0       -1.317745   -6.325067   -0.656804
     30          6           0       -2.517235   -3.433011    0.382886
     31          6           0       -2.779375   -2.247499    1.121926
     32          6           0       -3.987265   -1.567036    1.457707
     33          6           0       -5.398612   -1.889343    1.062149
     34          6           0       -3.622982   -0.428346    2.202630
     35          6           0       -4.567273    0.537231    2.867359
     36          6           0       -5.297286   -0.058681    4.083253
     37          6           0       -2.213528   -0.404648    2.270951
     38          6           0       -1.337948    0.521033    2.995795
     39          6           0       -1.308666    1.869806    2.929947
     40          6           0       -1.988812    2.761627    1.981678
     41          6           0       -2.342421    4.065230    2.377582
     42          6           0       -2.980666    4.943398    1.508961
     43          6           0       -3.258676    4.559866    0.185295
     44          6           0       -2.870187    3.273474   -0.233997
     45          6           0       -2.253702    2.394471    0.647102
     46          7           0       -3.898374    5.449791   -0.711637
     47          6           0       -4.834097    4.955689   -1.665136
     48          6           0       -4.810210    5.419826   -2.990299
     49          6           0       -5.735460    4.943498   -3.918310
     50          6           0       -6.685396    3.988074   -3.548547
     51          6           0       -6.706074    3.519412   -2.232384
     52          6           0       -5.796433    4.002879   -1.292873
     53          6           0       -3.605604    6.843264   -0.674760
     54          6           0       -2.281425    7.291962   -0.542212
     55          6           0       -2.003421    8.657639   -0.502919
     56          6           0       -3.032672    9.596142   -0.613569
     57          6           0       -4.349641    9.151762   -0.755636
     58          6           0       -4.639353    7.788076   -0.777941
     59          7           0       -1.713830   -1.504336    1.626950
     60          5           0       -0.272910   -1.571582    1.076478
     61          9           0        0.650704   -1.539135    2.130924
     62          9           0       -0.061138   -0.439382    0.245520
     63          6           0       -3.621563   -4.308652   -0.027742
     64          6           0       -4.526697   -4.842284    0.920951
     65          6           0       -5.555431   -5.683748    0.544015
     66          6           0       -5.738739   -5.997074   -0.822053
     67          6           0       -4.857219   -5.462242   -1.788638
     68          6           0       -3.813270   -4.650627   -1.387881
     69          7           0       -6.789267   -6.835270   -1.216987
     70          8           0       -7.576772   -7.324240   -0.334604
     71          8           0       -6.952792   -7.104008   -2.457453
     72          1           0        2.931482   -5.960797    0.882657
     73          1           0        1.646639   -7.170783    0.776998
     74          1           0        3.126295   -7.366952   -0.177959
     75          1           0        2.552916   -5.364794   -1.546135
     76          1           0        1.282089   -6.559566   -1.646709
     77          1           0        3.148741   -3.697731   -0.235821
     78          1           0        2.001987   -0.865309   -0.045909
     79          1           0        5.162572   -3.057389   -0.013492
     80          1           0        7.411732   -2.120026   -0.088038
     81          1           0        5.767947    1.853558   -0.301281
     82          1           0        3.503136    0.912022   -0.212337
     83          1           0       10.589778    0.089713    0.574622
     84          1           0       12.387271   -1.061169   -0.669903
     85          1           0       11.933439   -2.040031   -2.915054
     86          1           0        9.655632   -1.831827   -3.902248
     87          1           0        7.867436   -0.651441   -2.672733
     88          1           0        7.293947    1.180827    2.214454
     89          1           0        7.808596    3.304636    3.366835
     90          1           0        9.206813    5.035489    2.246769
     91          1           0       10.068181    4.612422   -0.052027
     92          1           0        9.525796    2.502269   -1.217489
     93          1           0       -2.126898   -6.497961    0.056567
     94          1           0       -1.757890   -6.388961   -1.658260
     95          1           0       -0.605300   -7.148500   -0.560466
     96          1           0       -5.878015   -2.613660    1.730100
     97          1           0       -6.006217   -0.979778    1.082250
     98          1           0       -5.449734   -2.305392    0.052975
     99          1           0       -4.016612    1.425469    3.185477
    100          1           0       -5.311510    0.884625    2.139000
    101          1           0       -5.896279   -0.932040    3.806314
    102          1           0       -4.582780   -0.374206    4.851144
    103          1           0       -5.969990    0.680421    4.531933
    104          1           0       -0.642535    0.046371    3.685064
    105          1           0       -0.674686    2.376356    3.656739
    106          1           0       -2.135672    4.385829    3.395126
    107          1           0       -3.264640    5.931264    1.854969
    108          1           0       -3.037631    2.972531   -1.262574
    109          1           0       -1.920358    1.428231    0.283861
    110          1           0       -4.066007    6.150371   -3.289477
    111          1           0       -5.702213    5.312587   -4.939242
    112          1           0       -7.399657    3.614146   -4.275454
    113          1           0       -7.443754    2.782923   -1.927408
    114          1           0       -5.829766    3.645538   -0.269027
    115          1           0       -1.474652    6.569977   -0.471928
    116          1           0       -0.973671    8.987438   -0.400412
    117          1           0       -2.811448   10.658640   -0.589892
    118          1           0       -5.161387    9.868874   -0.836405
    119          1           0       -5.666075    7.450854   -0.873950
    120          1           0       -4.387952   -4.610084    1.971839
    121          1           0       -6.220602   -6.111875    1.282630
    122          1           0       -5.012823   -5.690948   -2.835016
    123          1           0       -3.140508   -4.241390   -2.134807
 ---------------------------------------------------------------------
 Rotational constants (GHZ):           0.0258293           0.0167598           0.0112804
 Leave Link  202 at Thu Oct  9 06:43:12 2025, MaxMem= 30870077440 cpu:               3.7 elap:               0.1
 (Enter /work/home/accqbws0vm/apprepo/gaussian/16-hy/scripts/../app/g16/l301.exe)
 Standard basis: def2TZVPP (5D, 7F)
 Ernie: Thresh=  0.10000D-02 Tol=  0.10000D-05 Strict=F.
 There are  3336 symmetry adapted cartesian basis functions of A   symmetry.
 There are  2929 symmetry adapted basis functions of A   symmetry.
  2929 basis functions,  4505 primitive gaussians,  3336 cartesian basis functions
   247 alpha electrons      246 beta electrons
       nuclear repulsion energy      9933.8427129349 Hartrees.
 IExCor= 4336 DFT=T Ex+Corr=M062X ExCW=0 ScaHFX=  0.540000
 ScaDFX=  1.000000  1.000000  1.000000  1.000000 ScalE2=  1.000000  1.000000
 IRadAn=      5 IRanWt=     -1 IRanGd=            0 ICorTp=0 IEmpDi=131
 NAtoms=  123 NActive=  123 NUniq=  123 SFac= 1.00D+00 NAtFMM=   60 NAOKFM=T Big=T
 Integral buffers will be    131072 words long.
 Raffenetti 2 integral format.
 Two-electron integral symmetry is turned on.
 R6Disp:  Grimme-D3 Dispersion energy=       -0.0124569777 Hartrees.
 Nuclear repulsion after empirical dispersion term =     9933.8302559572 Hartrees.
 ------------------------------------------------------------------------------
 Polarizable Continuum Model (PCM)
 =================================
 Model                : PCM.
 Atomic radii         : UFF (Universal Force Field).
 Polarization charges : Total charges.
 Charge compensation  : None.
 Solution method      : On-the-fly selection.
 Cavity type          : Scaled VdW (van der Waals Surface) (Alpha=1.100).
 Cavity algorithm     : GePol (No added spheres)
                        Default sphere list used, NSphG=  123.
                        Lebedev-Laikov grids with approx.  5.0 points / Ang**2.
                        Smoothing algorithm: York/Karplus (Gamma=1.0000).
                        Polarization charges: spherical gaussians, with
                                              point-specific exponents (IZeta= 3).
                        Self-potential: point-specific (ISelfS= 7).
                        Self-field    : sphere-specific E.n sum rule (ISelfD= 2).
 Solvent              : Water, Eps=  78.355300 Eps(inf)=   1.777849
 ------------------------------------------------------------------------------
 GePol: Number of generator spheres                  =     123
 GePol: Total number of spheres                      =     123
 GePol: Number of exposed spheres                    =     123 (100.00%)
 GePol: Number of points                             =    8447
 GePol: Average weight of points                     =       0.13
 GePol: Minimum weight of points                     =   0.49D-11
 GePol: Maximum weight of points                     =    0.20577
 GePol: Number of points with low weight             =     601
 GePol: Fraction of low-weight points (<1% of avg)   =       7.11%
 GePol: Cavity surface area                          =   1072.807 Ang**2
 GePol: Cavity volume                                =   1272.672 Ang**3
 Leave Link  301 at Thu Oct  9 06:43:12 2025, MaxMem= 30870077440 cpu:               7.4 elap:               0.1
 (Enter /work/home/accqbws0vm/apprepo/gaussian/16-hy/scripts/../app/g16/l302.exe)
 NPDir=0 NMtPBC=     1 NCelOv=     1 NCel=       1 NClECP=     1 NCelD=      1
         NCelK=      1 NCelE2=     1 NClLst=     1 CellRange=     0.0.
 One-electron integrals computed using PRISM.
 One-electron integral symmetry used in STVInt
   1 Symmetry operations used in ECPInt.
 ECPInt:  NShTT=  597871 NPrTT= 1688084 LenC2=  305590 LenP2D=  563012.
 LDataN:  DoStor=T MaxTD1= 6 Len=  172
 Number of processors reduced to  55 by ecpmxn.
 NBasis=  2929 RedAO= T EigKep=  4.11D-06  NBF=  2929
 NBsUse=  2929 1.00D-06 EigRej= -1.00D+00 NBFU=  2929
 Precomputing XC quadrature grid using
 IXCGrd= 4 IRadAn=           5 IRanWt=          -1 IRanGd=           0 AccXCQ= 0.00D+00.
 Generated NRdTot=       0 NPtTot=           0 NUsed=           0 NTot=          32
 NSgBfM=  2847  2847  2847  2847  2847 MxSgAt=   123 MxSgA2=   123.
 Leave Link  302 at Thu Oct  9 06:43:47 2025, MaxMem= 30870077440 cpu:            2208.1 elap:              34.7
 (Enter /work/home/accqbws0vm/apprepo/gaussian/16-hy/scripts/../app/g16/l303.exe)
 DipDrv:  MaxL=1.
 Leave Link  303 at Thu Oct  9 06:43:49 2025, MaxMem= 30870077440 cpu:              71.3 elap:               1.4
 (Enter /work/home/accqbws0vm/apprepo/gaussian/16-hy/scripts/../app/g16/l401.exe)
 ExpMin= 6.06D-02 ExpMax= 3.55D+04 ExpMxC= 1.21D+03 IAcc=3 IRadAn=         5 AccDes= 0.00D+00
 Harris functional with IExCor= 1009 and IRadAn=       5 diagonalized for initial guess.
 HarFok:  IExCor= 1009 AccDes= 0.00D+00 IRadAn=         5 IDoV= 1 UseB2=F ITyADJ=14
 ICtDFT=  3500011 ScaDFX=  1.000000  1.000000  1.000000  1.000000
 FoFCou: FMM=F IPFlag=           0 FMFlag=      100000 FMFlg1=        2001
         NFxFlg=           0 DoJE=T BraDBF=F KetDBF=T FulRan=T
         wScrn=  0.000000 ICntrl=       500 IOpCl=  0 I1Cent=   200000004 NGrid=           0
         NMat0=    1 NMatS0=      1 NMatT0=    0 NMatD0=    1 NMtDS0=    0 NMtDT0=    0
 Petite list used in FoFCou.
 Harris En= -3003.38677272454    
 JPrj=0 DoOrth=F DoCkMO=F.
 Initial guess <Sx>= 0.0000 <Sy>= 0.0000 <Sz>= 0.5000 <S**2>= 0.7500 S= 0.5000
 Leave Link  401 at Thu Oct  9 06:44:17 2025, MaxMem= 30870077440 cpu:            1792.0 elap:              28.3
 (Enter /work/home/accqbws0vm/apprepo/gaussian/16-hy/scripts/../app/g16/l502.exe)
 Integral symmetry usage will be decided dynamically.
 UHF open shell SCF:
 Using DIIS extrapolation, IDIIS=  1040.
 NGot= 30870077440 LenX= 30847578121 LenY= 30836445889
 Requested convergence on RMS density matrix=1.00D-08 within 128 cycles.
 Requested convergence on MAX density matrix=1.00D-06.
 Requested convergence on             energy=1.00D-06.
 No special actions if energy rises.
 Fock matrices will be formed incrementally for  20 cycles.

 Cycle   1  Pass 1  IDiag  1:
 FoFJK:  IHMeth= 1 ICntrl=       0 DoSepK=F KAlg= 0 I1Cent=           0 FoldK=F
 IRaf= 460000000 NMat=       1 IRICut=       1 DoRegI=T DoRafI=F ISym2E= 0 IDoP0=0 IntGTp=1.
 FoFCou: FMM=T IPFlag=           0 FMFlag=      100000 FMFlg1=        2001
         NFxFlg=           0 DoJE=F BraDBF=F KetDBF=F FulRan=T
         wScrn=  0.000000 ICntrl=         0 IOpCl=  1 I1Cent=           0 NGrid=           0
         NMat0=    1 NMatS0=      1 NMatT0=    0 NMatD0=    1 NMtDS0=    0 NMtDT0=    0
 Symmetry not used in FoFCou.
 FMM levels:  10  Number of levels for PrismC:   9
 Inv3:  Mode=1 IEnd=   214055427.
 Iteration    1 A*A^-1 deviation from unit magnitude is 3.55D-15 for    508.
 Iteration    1 A*A^-1 deviation from orthogonality  is 2.78D-15 for   8120   3383.
 Iteration    1 A^-1*A deviation from unit magnitude is 3.33D-15 for   1876.
 Iteration    1 A^-1*A deviation from orthogonality  is 2.89D-15 for   7192   4097.
 E= -3002.88224867994    
 DIIS: error= 2.18D-02 at cycle   1 NSaved=   1.
 NSaved= 1 IEnMin= 1 EnMin= -3002.88224867994     IErMin= 1 ErrMin= 2.18D-02
 ErrMax= 2.18D-02  0.00D+00 EMaxC= 1.00D-01 BMatC= 8.84D+00 BMatP= 8.84D+00
 IDIUse=3 WtCom= 7.82D-01 WtEn= 2.18D-01
 Coeff-Com:  0.100D+01
 Coeff-En:   0.100D+01
 Coeff:      0.100D+01
 Gap=     0.047 Goal=   None    Shift=    0.000
 Gap=     0.144 Goal=   None    Shift=    0.000
 GapD=    0.047 DampG=0.250 DampE=0.500 DampFc=0.2500 IDamp=-1.
 Damping current iteration by 2.50D-01
 RMSDP=1.15D-03 MaxDP=3.18D-01              OVMax= 7.44D-01

 Cycle   2  Pass 1  IDiag  1:
 RMSU=  2.86D-04    CP:  9.91D-01
 E= -3003.50599131126     Delta-E=       -0.623742631315 Rises=F Damp=T
 DIIS: error= 1.09D-02 at cycle   2 NSaved=   2.
 NSaved= 2 IEnMin= 2 EnMin= -3003.50599131126     IErMin= 2 ErrMin= 1.09D-02
 ErrMax= 1.09D-02  0.00D+00 EMaxC= 1.00D-01 BMatC= 3.12D+00 BMatP= 8.84D+00
 IDIUse=3 WtCom= 8.91D-01 WtEn= 1.09D-01
 Coeff-Com: -0.114D+01 0.214D+01
 Coeff-En:   0.000D+00 0.100D+01
 Coeff:     -0.102D+01 0.202D+01
 Gap=     0.025 Goal=   None    Shift=    0.000
 Gap=     0.208 Goal=   None    Shift=    0.000
 RMSDP=7.56D-04 MaxDP=2.29D-01 DE=-6.24D-01 OVMax= 6.74D-01

 Cycle   3  Pass 1  IDiag  1:
 RMSU=  5.84D-04    CP:  9.80D-01  2.68D+00
 E= -3004.60039929456     Delta-E=       -1.094407983304 Rises=F Damp=F
 DIIS: error= 1.23D-02 at cycle   3 NSaved=   3.
 NSaved= 3 IEnMin= 3 EnMin= -3004.60039929456     IErMin= 2 ErrMin= 1.09D-02
 ErrMax= 1.23D-02  0.00D+00 EMaxC= 1.00D-01 BMatC= 5.08D-01 BMatP= 3.12D+00
 IDIUse=3 WtCom= 8.77D-01 WtEn= 1.23D-01
 Coeff-Com: -0.576D+00 0.978D+00 0.598D+00
 Coeff-En:   0.000D+00 0.000D+00 0.100D+01
 Coeff:     -0.505D+00 0.857D+00 0.648D+00
 Gap=     0.058 Goal=   None    Shift=    0.000
 Gap=     0.143 Goal=   None    Shift=    0.000
 RMSDP=2.28D-04 MaxDP=8.40D-02 DE=-1.09D+00 OVMax= 2.84D-01

 Cycle   4  Pass 1  IDiag  1:
 RMSU=  1.99D-04    CP:  9.72D-01  2.63D+00  8.14D-01
 E= -3004.69034633031     Delta-E=       -0.089947035747 Rises=F Damp=F
 DIIS: error= 6.23D-03 at cycle   4 NSaved=   4.
 NSaved= 4 IEnMin= 4 EnMin= -3004.69034633031     IErMin= 4 ErrMin= 6.23D-03
 ErrMax= 6.23D-03  0.00D+00 EMaxC= 1.00D-01 BMatC= 1.19D-01 BMatP= 5.08D-01
 IDIUse=3 WtCom= 9.38D-01 WtEn= 6.23D-02
 Coeff-Com: -0.995D-01 0.159D+00 0.344D+00 0.596D+00
 Coeff-En:   0.000D+00 0.000D+00 0.186D+00 0.814D+00
 Coeff:     -0.934D-01 0.149D+00 0.334D+00 0.609D+00
 Gap=     0.078 Goal=   None    Shift=    0.000
 Gap=     0.140 Goal=   None    Shift=    0.000
 RMSDP=9.27D-05 MaxDP=5.45D-02 DE=-8.99D-02 OVMax= 9.73D-02

 Cycle   5  Pass 1  IDiag  1:
 RMSU=  7.11D-05    CP:  9.74D-01  2.62D+00  8.59D-01  7.33D-01
 E= -3004.71605831317     Delta-E=       -0.025711982857 Rises=F Damp=F
 DIIS: error= 5.15D-04 at cycle   5 NSaved=   5.
 NSaved= 5 IEnMin= 5 EnMin= -3004.71605831317     IErMin= 5 ErrMin= 5.15D-04
 ErrMax= 5.15D-04  0.00D+00 EMaxC= 1.00D-01 BMatC= 4.95D-03 BMatP= 1.19D-01
 IDIUse=3 WtCom= 9.95D-01 WtEn= 5.15D-03
 Coeff-Com: -0.149D-01 0.216D-01 0.125D+00 0.282D+00 0.586D+00
 Coeff-En:   0.000D+00 0.000D+00 0.000D+00 0.000D+00 0.100D+01
 Coeff:     -0.148D-01 0.215D-01 0.125D+00 0.281D+00 0.588D+00
 Gap=     0.081 Goal=   None    Shift=    0.000
 Gap=     0.134 Goal=   None    Shift=    0.000
 RMSDP=3.41D-05 MaxDP=1.88D-02 DE=-2.57D-02 OVMax= 3.28D-02

 Cycle   6  Pass 1  IDiag  1:
 RMSU=  2.97D-05    CP:  9.72D-01  2.61D+00  8.46D-01  8.03D-01  9.98D-01
 E= -3004.71742842205     Delta-E=       -0.001370108883 Rises=F Damp=F
 DIIS: error= 2.73D-04 at cycle   6 NSaved=   6.
 NSaved= 6 IEnMin= 6 EnMin= -3004.71742842205     IErMin= 6 ErrMin= 2.73D-04
 ErrMax= 2.73D-04  0.00D+00 EMaxC= 1.00D-01 BMatC= 9.76D-04 BMatP= 4.95D-03
 IDIUse=3 WtCom= 9.97D-01 WtEn= 2.73D-03
 Coeff-Com:  0.404D-02-0.690D-02 0.183D-01 0.511D-01 0.313D+00 0.620D+00
 Coeff-En:   0.000D+00 0.000D+00 0.000D+00 0.000D+00 0.000D+00 0.100D+01
 Coeff:      0.403D-02-0.688D-02 0.183D-01 0.509D-01 0.313D+00 0.621D+00
 Gap=     0.084 Goal=   None    Shift=    0.000
 Gap=     0.135 Goal=   None    Shift=    0.000
 RMSDP=2.02D-05 MaxDP=1.37D-02 DE=-1.37D-03 OVMax= 1.77D-02

 Cycle   7  Pass 1  IDiag  1:
 RMSU=  1.42D-05    CP:  9.73D-01  2.62D+00  8.52D-01  7.95D-01  1.18D+00
                    CP:  9.94D-01
 E= -3004.71784878649     Delta-E=       -0.000420364438 Rises=F Damp=F
 DIIS: error= 1.20D-04 at cycle   7 NSaved=   7.
 NSaved= 7 IEnMin= 7 EnMin= -3004.71784878649     IErMin= 7 ErrMin= 1.20D-04
 ErrMax= 1.20D-04  0.00D+00 EMaxC= 1.00D-01 BMatC= 1.38D-04 BMatP= 9.76D-04
 IDIUse=3 WtCom= 9.99D-01 WtEn= 1.20D-03
 Coeff-Com:  0.407D-02-0.609D-02-0.124D-01-0.344D-01 0.275D-01 0.217D+00
 Coeff-Com:  0.804D+00
 Coeff-En:   0.000D+00 0.000D+00 0.000D+00 0.000D+00 0.000D+00 0.000D+00
 Coeff-En:   0.100D+01
 Coeff:      0.407D-02-0.608D-02-0.124D-01-0.344D-01 0.275D-01 0.217D+00
 Coeff:      0.804D+00
 Gap=     0.086 Goal=   None    Shift=    0.000
 Gap=     0.136 Goal=   None    Shift=    0.000
 RMSDP=1.37D-05 MaxDP=6.01D-03 DE=-4.20D-04 OVMax= 2.21D-02

 Cycle   8  Pass 1  IDiag  1:
 RMSU=  6.89D-06    CP:  9.73D-01  2.62D+00  8.53D-01  8.10D-01  1.26D+00
                    CP:  1.20D+00  1.55D+00
 E= -3004.71803503670     Delta-E=       -0.000186250212 Rises=F Damp=F
 DIIS: error= 1.86D-04 at cycle   8 NSaved=   8.
 NSaved= 8 IEnMin= 8 EnMin= -3004.71803503670     IErMin= 7 ErrMin= 1.20D-04
 ErrMax= 1.86D-04  0.00D+00 EMaxC= 1.00D-01 BMatC= 7.72D-05 BMatP= 1.38D-04
 IDIUse=3 WtCom= 9.99D-01 WtEn= 1.20D-03
 Coeff-Com:  0.101D-02-0.120D-02-0.600D-02-0.263D-01-0.453D-01-0.683D-01
 Coeff-Com:  0.388D+00 0.758D+00
 Coeff-En:   0.000D+00 0.000D+00 0.000D+00 0.000D+00 0.000D+00 0.000D+00
 Coeff-En:   0.000D+00 0.100D+01
 Coeff:      0.101D-02-0.120D-02-0.599D-02-0.263D-01-0.452D-01-0.682D-01
 Coeff:      0.388D+00 0.758D+00
 Gap=     0.087 Goal=   None    Shift=    0.000
 Gap=     0.136 Goal=   None    Shift=    0.000
 RMSDP=1.15D-05 MaxDP=3.86D-03 DE=-1.86D-04 OVMax= 2.13D-02

 Cycle   9  Pass 1  IDiag  1:
 RMSU=  4.37D-06    CP:  9.73D-01  2.63D+00  8.54D-01  8.16D-01  1.31D+00
                    CP:  1.30D+00  2.12D+00  1.70D+00
 E= -3004.71816825085     Delta-E=       -0.000133214149 Rises=F Damp=F
 DIIS: error= 1.72D-04 at cycle   9 NSaved=   9.
 NSaved= 9 IEnMin= 9 EnMin= -3004.71816825085     IErMin= 7 ErrMin= 1.20D-04
 ErrMax= 1.72D-04  0.00D+00 EMaxC= 1.00D-01 BMatC= 5.03D-05 BMatP= 7.72D-05
 IDIUse=3 WtCom= 9.99D-01 WtEn= 1.20D-03
 Coeff-Com: -0.111D-04 0.286D-03 0.493D-02-0.300D-03-0.357D-02-0.930D-01
 Coeff-Com: -0.226D-01 0.102D+00 0.101D+01
 Coeff-En:   0.000D+00 0.000D+00 0.000D+00 0.000D+00 0.000D+00 0.000D+00
 Coeff-En:   0.000D+00 0.000D+00 0.100D+01
 Coeff:     -0.111D-04 0.286D-03 0.492D-02-0.300D-03-0.357D-02-0.929D-01
 Coeff:     -0.225D-01 0.102D+00 0.101D+01
 Gap=     0.087 Goal=   None    Shift=    0.000
 Gap=     0.137 Goal=   None    Shift=    0.000
 RMSDP=1.21D-05 MaxDP=2.69D-03 DE=-1.33D-04 OVMax= 2.49D-02

 Cycle  10  Pass 1  IDiag  1:
 RMSU=  2.38D-06    CP:  9.73D-01  2.63D+00  8.54D-01  8.20D-01  1.33D+00
                    CP:  1.38D+00  2.62D+00  2.70D+00  2.31D+00
 E= -3004.71830444576     Delta-E=       -0.000136194909 Rises=F Damp=F
 DIIS: error= 1.79D-04 at cycle  10 NSaved=  10.
 NSaved=10 IEnMin=10 EnMin= -3004.71830444576     IErMin= 7 ErrMin= 1.20D-04
 ErrMax= 1.79D-04  0.00D+00 EMaxC= 1.00D-01 BMatC= 5.20D-05 BMatP= 5.03D-05
 IDIUse=3 WtCom= 9.99D-01 WtEn= 1.20D-03
 Coeff-Com:  0.328D-03-0.257D-03 0.596D-02 0.286D-02 0.158D-01-0.507D-01
 Coeff-Com: -0.303D-01-0.153D+00 0.571D+00 0.638D+00
 Coeff-En:   0.000D+00 0.000D+00 0.000D+00 0.000D+00 0.000D+00 0.000D+00
 Coeff-En:   0.000D+00 0.000D+00 0.000D+00 0.100D+01
 Coeff:      0.328D-03-0.257D-03 0.595D-02 0.286D-02 0.158D-01-0.506D-01
 Coeff:     -0.303D-01-0.152D+00 0.570D+00 0.639D+00
 Gap=     0.088 Goal=   None    Shift=    0.000
 Gap=     0.137 Goal=   None    Shift=    0.000
 RMSDP=8.13D-06 MaxDP=1.39D-03 DE=-1.36D-04 OVMax= 1.70D-02

 Cycle  11  Pass 1  IDiag  1:
 RMSU=  3.07D-06    CP:  9.73D-01  2.63D+00  8.54D-01  8.21D-01  1.32D+00
                    CP:  1.42D+00  2.92D+00  3.00D+00  3.00D+00  1.85D+00
 E= -3004.71839481493     Delta-E=       -0.000090369171 Rises=F Damp=F
 DIIS: error= 1.77D-04 at cycle  11 NSaved=  11.
 NSaved=11 IEnMin=11 EnMin= -3004.71839481493     IErMin= 7 ErrMin= 1.20D-04
 ErrMax= 1.77D-04  0.00D+00 EMaxC= 1.00D-01 BMatC= 5.04D-05 BMatP= 5.03D-05
 IDIUse=3 WtCom= 9.99D-01 WtEn= 1.20D-03
 Coeff-Com:  0.114D-02-0.148D-02 0.270D-02-0.455D-02 0.162D-01-0.308D-02
 Coeff-Com:  0.115D+00-0.128D+00-0.211D+00-0.461D+00 0.167D+01
 Coeff-En:   0.000D+00 0.000D+00 0.000D+00 0.000D+00 0.000D+00 0.000D+00
 Coeff-En:   0.000D+00 0.000D+00 0.000D+00 0.000D+00 0.100D+01
 Coeff:      0.113D-02-0.147D-02 0.270D-02-0.455D-02 0.162D-01-0.308D-02
 Coeff:      0.115D+00-0.128D+00-0.211D+00-0.460D+00 0.167D+01
 Gap=     0.088 Goal=   None    Shift=    0.000
 Gap=     0.137 Goal=   None    Shift=    0.000
 RMSDP=1.64D-05 MaxDP=2.65D-03 DE=-9.04D-05 OVMax= 3.40D-02

 Cycle  12  Pass 1  IDiag  1:
 RMSU=  1.03D-05    CP:  9.73D-01  2.64D+00  8.52D-01  8.22D-01  1.31D+00
                    CP:  1.46D+00  3.00D+00  3.00D+00  3.00D+00  3.00D+00
                    CP:  3.00D+00
 E= -3004.71857256475     Delta-E=       -0.000177749820 Rises=F Damp=F
 DIIS: error= 1.73D-04 at cycle  12 NSaved=  12.
 NSaved=12 IEnMin=12 EnMin= -3004.71857256475     IErMin= 7 ErrMin= 1.20D-04
 ErrMax= 1.73D-04  0.00D+00 EMaxC= 1.00D-01 BMatC= 4.91D-05 BMatP= 5.03D-05
 IDIUse=3 WtCom= 9.99D-01 WtEn= 1.20D-03
 Coeff-Com:  0.147D-02-0.196D-02-0.101D-02-0.137D-01-0.690D-03 0.105D-01
 Coeff-Com:  0.248D+00 0.130D+00-0.480D+00-0.191D+01 0.891D+00 0.213D+01
 Coeff-En:   0.000D+00 0.000D+00 0.000D+00 0.000D+00 0.000D+00 0.000D+00
 Coeff-En:   0.000D+00 0.000D+00 0.000D+00 0.000D+00 0.000D+00 0.100D+01
 Coeff:      0.147D-02-0.196D-02-0.101D-02-0.137D-01-0.689D-03 0.105D-01
 Coeff:      0.248D+00 0.130D+00-0.479D+00-0.191D+01 0.890D+00 0.213D+01
 Gap=     0.089 Goal=   None    Shift=    0.000
 Gap=     0.137 Goal=   None    Shift=    0.000
 RMSDP=3.97D-05 MaxDP=6.75D-03 DE=-1.78D-04 OVMax= 8.06D-02

 Cycle  13  Pass 1  IDiag  1:
 RMSU=  2.04D-05    CP:  9.74D-01  2.65D+00  8.48D-01  8.17D-01  1.27D+00
                    CP:  1.54D+00  3.00D+00  3.00D+00  3.00D+00  3.00D+00
                    CP:  3.00D+00  3.00D+00
 E= -3004.71897424325     Delta-E=       -0.000401678501 Rises=F Damp=F
 DIIS: error= 1.48D-04 at cycle  13 NSaved=  13.
 NSaved=13 IEnMin=13 EnMin= -3004.71897424325     IErMin= 7 ErrMin= 1.20D-04
 ErrMax= 1.48D-04  0.00D+00 EMaxC= 1.00D-01 BMatC= 3.82D-05 BMatP= 4.91D-05
 IDIUse=3 WtCom= 9.99D-01 WtEn= 1.20D-03
 Coeff-Com: -0.190D-03 0.456D-03 0.309D-02-0.150D-02-0.169D-01-0.676D-01
 Coeff-Com: -0.327D-02 0.360D+00 0.144D+01-0.109D+00-0.440D+01 0.119D+01
 Coeff-Com:  0.260D+01
 Coeff-En:   0.000D+00 0.000D+00 0.000D+00 0.000D+00 0.000D+00 0.000D+00
 Coeff-En:   0.000D+00 0.000D+00 0.000D+00 0.000D+00 0.000D+00 0.000D+00
 Coeff-En:   0.100D+01
 Coeff:     -0.190D-03 0.456D-03 0.308D-02-0.150D-02-0.168D-01-0.675D-01
 Coeff:     -0.327D-02 0.360D+00 0.144D+01-0.109D+00-0.439D+01 0.119D+01
 Coeff:      0.260D+01
 Gap=     0.093 Goal=   None    Shift=    0.000
 Gap=     0.135 Goal=   None    Shift=    0.000
 RMSDP=8.03D-05 MaxDP=1.74D-02 DE=-4.02D-04 OVMax= 1.55D-01

 Cycle  14  Pass 1  IDiag  1:
 RMSU=  4.08D-05    CP:  9.75D-01  2.67D+00  8.42D-01  7.72D-01  1.11D+00
                    CP:  1.51D+00  3.00D+00  3.00D+00  3.00D+00  3.00D+00
                    CP:  3.00D+00  3.00D+00  3.00D+00
 E= -3004.71952178156     Delta-E=       -0.000547538306 Rises=F Damp=F
 DIIS: error= 4.67D-05 at cycle  14 NSaved=  14.
 NSaved=14 IEnMin=14 EnMin= -3004.71952178156     IErMin=14 ErrMin= 4.67D-05
 ErrMax= 4.67D-05  0.00D+00 EMaxC= 1.00D-01 BMatC= 1.77D-05 BMatP= 3.82D-05
 IDIUse=1 WtCom= 1.00D+00 WtEn= 0.00D+00
 Coeff-Com:  0.357D-03-0.493D-03 0.365D-02 0.547D-02 0.105D-01-0.817D-02
 Coeff-Com: -0.526D-01-0.144D-01 0.787D+00 0.819D+00-0.889D+00-0.760D+00
 Coeff-Com:  0.492D+00 0.606D+00
 Coeff:      0.357D-03-0.493D-03 0.365D-02 0.547D-02 0.105D-01-0.817D-02
 Coeff:     -0.526D-01-0.144D-01 0.787D+00 0.819D+00-0.889D+00-0.760D+00
 Coeff:      0.492D+00 0.606D+00
 Gap=     0.086 Goal=   None    Shift=    0.000
 Gap=     0.136 Goal=   None    Shift=    0.000
 RMSDP=5.34D-05 MaxDP=1.07D-02 DE=-5.48D-04 OVMax= 9.57D-02

 Cycle  15  Pass 1  IDiag  1:
 RMSU=  7.69D-06    CP:  9.74D-01  2.65D+00  8.42D-01  8.07D-01  1.16D+00
                    CP:  1.44D+00  3.00D+00  3.00D+00  3.00D+00  3.00D+00
                    CP:  3.00D+00  3.00D+00  2.29D+00  5.52D-02
 E= -3004.71920464209     Delta-E=        0.000317139466 Rises=F Damp=F
 DIIS: error= 1.99D-04 at cycle  15 NSaved=  15.
 NSaved=15 IEnMin=14 EnMin= -3004.71952178156     IErMin=14 ErrMin= 4.67D-05
 ErrMax= 1.99D-04  0.00D+00 EMaxC= 1.00D-01 BMatC= 1.18D-04 BMatP= 1.77D-05
 IDIUse=1 WtCom= 1.00D+00 WtEn= 0.00D+00
 Coeff-Com: -0.224D-03 0.366D-03 0.390D-02 0.788D-02 0.952D-02-0.102D-01
 Coeff-Com: -0.103D+00-0.857D-01 0.767D+00 0.130D+01-0.956D+00-0.158D+01
 Coeff-Com:  0.305D+00 0.909D+00 0.435D+00
 Coeff:     -0.224D-03 0.366D-03 0.390D-02 0.788D-02 0.952D-02-0.102D-01
 Coeff:     -0.103D+00-0.857D-01 0.767D+00 0.130D+01-0.956D+00-0.158D+01
 Coeff:      0.305D+00 0.909D+00 0.435D+00
 Gap=     0.090 Goal=   None    Shift=    0.000
 Gap=     0.135 Goal=   None    Shift=    0.000
 RMSDP=5.17D-05 MaxDP=1.11D-02 DE= 3.17D-04 OVMax= 1.00D-01

 Cycle  16  Pass 1  IDiag  1:
 RMSU=  5.87D-06    CP:  9.75D-01  2.67D+00  8.37D-01  7.74D-01  1.04D+00
                    CP:  1.39D+00  3.00D+00  3.00D+00  3.00D+00  3.00D+00
                    CP:  3.00D+00  3.00D+00  3.00D+00  9.44D-01  7.51D-01
 E= -3004.71953478361     Delta-E=       -0.000330141522 Rises=F Damp=F
 DIIS: error= 1.15D-04 at cycle  16 NSaved=  16.
 NSaved=16 IEnMin=16 EnMin= -3004.71953478361     IErMin=14 ErrMin= 4.67D-05
 ErrMax= 1.15D-04  0.00D+00 EMaxC= 1.00D-01 BMatC= 3.13D-05 BMatP= 1.77D-05
 IDIUse=1 WtCom= 1.00D+00 WtEn= 0.00D+00
 Coeff-Com:  0.675D-03-0.964D-03 0.771D-03-0.426D-03 0.120D-01 0.189D-01
 Coeff-Com:  0.385D-01-0.162D+00-0.246D+00 0.215D+00 0.136D+01-0.697D+00
 Coeff-Com: -0.719D+00 0.297D+00-0.612D+00 0.150D+01
 Coeff:      0.675D-03-0.964D-03 0.771D-03-0.426D-03 0.120D-01 0.189D-01
 Coeff:      0.385D-01-0.162D+00-0.246D+00 0.215D+00 0.136D+01-0.697D+00
 Coeff:     -0.719D+00 0.297D+00-0.612D+00 0.150D+01
 Gap=     0.092 Goal=   None    Shift=    0.000
 Gap=     0.135 Goal=   None    Shift=    0.000
 RMSDP=1.25D-05 MaxDP=3.56D-03 DE=-3.30D-04 OVMax= 2.42D-02

 Cycle  17  Pass 1  IDiag  1:
 RMSU=  1.31D-06    CP:  9.75D-01  2.67D+00  8.35D-01  7.63D-01  9.98D-01
                    CP:  1.33D+00  3.00D+00  3.00D+00  3.00D+00  3.00D+00
                    CP:  3.00D+00  3.00D+00  3.00D+00  1.20D+00  8.83D-01
                    CP:  1.79D+00
 E= -3004.71956894607     Delta-E=       -0.000034162455 Rises=F Damp=F
 DIIS: error= 9.98D-05 at cycle  17 NSaved=  17.
 NSaved=17 IEnMin=17 EnMin= -3004.71956894607     IErMin=14 ErrMin= 4.67D-05
 ErrMax= 9.98D-05  0.00D+00 EMaxC= 1.00D-01 BMatC= 2.80D-05 BMatP= 1.77D-05
 IDIUse=1 WtCom= 1.00D+00 WtEn= 0.00D+00
 Coeff-Com:  0.436D-03-0.611D-03 0.549D-03-0.117D-02 0.477D-02-0.188D-02
 Coeff-Com:  0.210D-01-0.727D-01-0.637D-01-0.298D-01 0.428D+00-0.950D-01
 Coeff-Com: -0.129D+00 0.804D-01-0.779D+00 0.820D+00 0.818D+00
 Coeff:      0.436D-03-0.611D-03 0.549D-03-0.117D-02 0.477D-02-0.188D-02
 Coeff:      0.210D-01-0.727D-01-0.637D-01-0.298D-01 0.428D+00-0.950D-01
 Coeff:     -0.129D+00 0.804D-01-0.779D+00 0.820D+00 0.818D+00
 Gap=     0.096 Goal=   None    Shift=    0.000
 Gap=     0.134 Goal=   None    Shift=    0.000
 RMSDP=2.41D-05 MaxDP=5.70D-03 DE=-3.42D-05 OVMax= 4.23D-02

 Cycle  18  Pass 1  IDiag  1:
 RMSU=  1.70D-06    CP:  9.75D-01  2.67D+00  8.35D-01  7.38D-01  9.51D-01
                    CP:  1.29D+00  3.00D+00  3.00D+00  3.00D+00  3.00D+00
                    CP:  3.00D+00  3.00D+00  3.00D+00  1.75D+00  4.42D-01
                    CP:  2.50D+00  1.79D+00
 E= -3004.71959133134     Delta-E=       -0.000022385278 Rises=F Damp=F
 DIIS: error= 2.34D-05 at cycle  18 NSaved=  18.
 NSaved=18 IEnMin=18 EnMin= -3004.71959133134     IErMin=18 ErrMin= 2.34D-05
 ErrMax= 2.34D-05  0.00D+00 EMaxC= 1.00D-01 BMatC= 2.44D-06 BMatP= 1.77D-05
 IDIUse=1 WtCom= 1.00D+00 WtEn= 0.00D+00
 Coeff-Com:  0.365D-04-0.549D-04 0.170D-03 0.212D-03 0.698D-04-0.263D-02
 Coeff-Com: -0.893D-02-0.779D-02 0.214D-01-0.125D+00-0.510D-01 0.193D+00
 Coeff-Com:  0.415D-01-0.234D-02 0.705D-01-0.245D+00 0.294D+00 0.822D+00
 Coeff:      0.365D-04-0.549D-04 0.170D-03 0.212D-03 0.698D-04-0.263D-02
 Coeff:     -0.893D-02-0.779D-02 0.214D-01-0.125D+00-0.510D-01 0.193D+00
 Coeff:      0.415D-01-0.234D-02 0.705D-01-0.245D+00 0.294D+00 0.822D+00
 Gap=     0.095 Goal=   None    Shift=    0.000
 Gap=     0.134 Goal=   None    Shift=    0.000
 RMSDP=8.29D-06 MaxDP=2.18D-03 DE=-2.24D-05 OVMax= 1.51D-02

 Cycle  19  Pass 1  IDiag  1:
 RMSU=  4.85D-07    CP:  9.75D-01  2.67D+00  8.36D-01  7.46D-01  9.76D-01
                    CP:  1.32D+00  3.00D+00  3.00D+00  3.00D+00  3.00D+00
                    CP:  3.00D+00  3.00D+00  3.00D+00  1.57D+00  5.44D-01
                    CP:  2.14D+00  1.89D+00  5.32D-01
 E= -3004.71959520532     Delta-E=       -0.000003873973 Rises=F Damp=F
 DIIS: error= 4.30D-06 at cycle  19 NSaved=  19.
 NSaved=19 IEnMin=19 EnMin= -3004.71959520532     IErMin=19 ErrMin= 4.30D-06
 ErrMax= 4.30D-06  0.00D+00 EMaxC= 1.00D-01 BMatC= 1.23D-07 BMatP= 2.44D-06
 IDIUse=1 WtCom= 1.00D+00 WtEn= 0.00D+00
 Coeff-Com: -0.201D-04 0.243D-04-0.125D-03 0.105D-05-0.590D-03 0.130D-02
 Coeff-Com: -0.880D-03 0.690D-02-0.654D-02-0.105D+00-0.162D-01 0.138D+00
 Coeff-Com: -0.170D-02-0.233D-01 0.142D+00-0.246D+00 0.428D-01 0.439D+00
 Coeff-Com:  0.630D+00
 Coeff:     -0.201D-04 0.243D-04-0.125D-03 0.105D-05-0.590D-03 0.130D-02
 Coeff:     -0.880D-03 0.690D-02-0.654D-02-0.105D+00-0.162D-01 0.138D+00
 Coeff:     -0.170D-02-0.233D-01 0.142D+00-0.246D+00 0.428D-01 0.439D+00
 Coeff:      0.630D+00
 Gap=     0.095 Goal=   None    Shift=    0.000
 Gap=     0.134 Goal=   None    Shift=    0.000
 RMSDP=6.53D-07 MaxDP=1.55D-04 DE=-3.87D-06 OVMax= 9.13D-04

 Cycle  20  Pass 1  IDiag  1:
 RMSU=  1.16D-07    CP:  9.75D-01  2.67D+00  8.36D-01  7.47D-01  9.76D-01
                    CP:  1.32D+00  3.00D+00  3.00D+00  3.00D+00  3.00D+00
                    CP:  3.00D+00  3.00D+00  3.00D+00  1.55D+00  5.73D-01
                    CP:  2.14D+00  1.97D+00  5.10D-01  1.27D+00
 E= -3004.71959513662     Delta-E=        0.000000068696 Rises=F Damp=F
 DIIS: error= 6.06D-06 at cycle  20 NSaved=  20.
 NSaved=20 IEnMin=19 EnMin= -3004.71959520532     IErMin=19 ErrMin= 4.30D-06
 ErrMax= 6.06D-06  0.00D+00 EMaxC= 1.00D-01 BMatC= 1.16D-07 BMatP= 1.23D-07
 IDIUse=1 WtCom= 1.00D+00 WtEn= 0.00D+00
 Coeff-Com: -0.324D-05 0.351D-05-0.878D-04-0.158D-03-0.415D-03 0.612D-03
 Coeff-Com:  0.312D-02 0.430D-02-0.379D-02-0.230D-01-0.164D-02 0.265D-01
 Coeff-Com: -0.580D-02-0.171D-01-0.247D-02-0.302D-01-0.371D-01-0.533D-02
 Coeff-Com:  0.102D+00 0.991D+00
 Coeff:     -0.324D-05 0.351D-05-0.878D-04-0.158D-03-0.415D-03 0.612D-03
 Coeff:      0.312D-02 0.430D-02-0.379D-02-0.230D-01-0.164D-02 0.265D-01
 Coeff:     -0.580D-02-0.171D-01-0.247D-02-0.302D-01-0.371D-01-0.533D-02
 Coeff:      0.102D+00 0.991D+00
 Gap=     0.095 Goal=   None    Shift=    0.000
 Gap=     0.134 Goal=   None    Shift=    0.000
 RMSDP=2.23D-06 MaxDP=5.35D-04 DE= 6.87D-08 OVMax= 4.12D-03

 Cycle  21  Pass 1  IDiag  1:
 Restarting incremental Fock formation.
 E= -3004.71959541757     Delta-E=       -0.000000280948 Rises=F Damp=F
 DIIS: error= 1.60D-06 at cycle  21 NSaved=  20.
 NSaved=20 IEnMin=20 EnMin= -3004.71959541757     IErMin=20 ErrMin= 1.60D-06
 ErrMax= 1.60D-06  0.00D+00 EMaxC= 1.00D-01 BMatC= 1.57D-08 BMatP= 1.16D-07
 IDIUse=1 WtCom= 1.00D+00 WtEn= 0.00D+00
 Coeff-Com:  0.360D-06-0.407D-04-0.110D-03-0.236D-03 0.228D-03 0.212D-02
 Coeff-Com:  0.192D-02-0.254D-02-0.399D-02-0.200D-02 0.497D-02-0.404D-03
 Coeff-Com: -0.754D-02-0.107D-01 0.846D-02-0.192D-01-0.598D-01-0.674D-01
 Coeff-Com:  0.442D+00 0.714D+00
 Coeff:      0.360D-06-0.407D-04-0.110D-03-0.236D-03 0.228D-03 0.212D-02
 Coeff:      0.192D-02-0.254D-02-0.399D-02-0.200D-02 0.497D-02-0.404D-03
 Coeff:     -0.754D-02-0.107D-01 0.846D-02-0.192D-01-0.598D-01-0.674D-01
 Coeff:      0.442D+00 0.714D+00
 Gap=     0.095 Goal=   None    Shift=    0.000
 Gap=     0.134 Goal=   None    Shift=    0.000
 RMSDP=1.07D-07 MaxDP=3.52D-05 DE=-2.81D-07 OVMax= 1.08D-04

 Cycle  22  Pass 1  IDiag  1:
 RMSU=  1.07D-07    CP:  1.00D+00
 E= -3004.71959542627     Delta-E=       -0.000000008704 Rises=F Damp=F
 DIIS: error= 1.29D-06 at cycle  22 NSaved=  20.
 NSaved=20 IEnMin=20 EnMin= -3004.71959542627     IErMin=20 ErrMin= 1.29D-06
 ErrMax= 1.29D-06  0.00D+00 EMaxC= 1.00D-01 BMatC= 6.49D-09 BMatP= 1.57D-08
 IDIUse=1 WtCom= 1.00D+00 WtEn= 0.00D+00
 Coeff-Com:  0.341D-05-0.475D-05-0.189D-04 0.589D-04 0.226D-03 0.165D-03
 Coeff-Com: -0.659D-03 0.153D-02-0.429D-02 0.161D-03 0.361D-02 0.336D-03
 Coeff-Com:  0.424D-02 0.421D-02 0.503D-02-0.241D-01-0.604D-01-0.102D+00
 Coeff-Com:  0.296D+00 0.876D+00
 Coeff:      0.341D-05-0.475D-05-0.189D-04 0.589D-04 0.226D-03 0.165D-03
 Coeff:     -0.659D-03 0.153D-02-0.429D-02 0.161D-03 0.361D-02 0.336D-03
 Coeff:      0.424D-02 0.421D-02 0.503D-02-0.241D-01-0.604D-01-0.102D+00
 Coeff:      0.296D+00 0.876D+00
 Gap=     0.095 Goal=   None    Shift=    0.000
 Gap=     0.134 Goal=   None    Shift=    0.000
 RMSDP=3.34D-07 MaxDP=8.76D-05 DE=-8.70D-09 OVMax= 5.67D-04

 Cycle  23  Pass 1  IDiag  1:
 RMSU=  2.00D-07    CP:  1.00D+00  3.00D+00
 E= -3004.71959543274     Delta-E=       -0.000000006470 Rises=F Damp=F
 DIIS: error= 2.47D-07 at cycle  23 NSaved=  20.
 NSaved=20 IEnMin=20 EnMin= -3004.71959543274     IErMin=20 ErrMin= 2.47D-07
 ErrMax= 2.47D-07  0.00D+00 EMaxC= 1.00D-01 BMatC= 4.73D-10 BMatP= 6.49D-09
 IDIUse=1 WtCom= 1.00D+00 WtEn= 0.00D+00
 Coeff-Com: -0.388D-06 0.248D-05-0.115D-04-0.153D-03 0.435D-03 0.674D-03
 Coeff-Com:  0.499D-03-0.279D-02-0.419D-03 0.151D-02 0.168D-02 0.430D-02
 Coeff-Com: -0.292D-02 0.433D-02 0.843D-02-0.237D-02-0.109D+00-0.735D-01
 Coeff-Com:  0.216D+00 0.953D+00
 Coeff:     -0.388D-06 0.248D-05-0.115D-04-0.153D-03 0.435D-03 0.674D-03
 Coeff:      0.499D-03-0.279D-02-0.419D-03 0.151D-02 0.168D-02 0.430D-02
 Coeff:     -0.292D-02 0.433D-02 0.843D-02-0.237D-02-0.109D+00-0.735D-01
 Coeff:      0.216D+00 0.953D+00
 Gap=     0.095 Goal=   None    Shift=    0.000
 Gap=     0.134 Goal=   None    Shift=    0.000
 RMSDP=4.02D-08 MaxDP=1.06D-05 DE=-6.47D-09 OVMax= 4.37D-05

 Cycle  24  Pass 1  IDiag  1:
 RMSU=  3.11D-08    CP:  1.00D+00  3.00D+00  8.73D-01
 E= -3004.71959543422     Delta-E=       -0.000000001481 Rises=F Damp=F
 DIIS: error= 2.54D-07 at cycle  24 NSaved=  20.
 NSaved=20 IEnMin=20 EnMin= -3004.71959543422     IErMin=19 ErrMin= 2.47D-07
 ErrMax= 2.54D-07  0.00D+00 EMaxC= 1.00D-01 BMatC= 4.16D-10 BMatP= 4.73D-10
 IDIUse=1 WtCom= 1.00D+00 WtEn= 0.00D+00
 Coeff-Com:  0.258D-04-0.240D-04-0.128D-03 0.171D-03 0.471D-03 0.105D-03
 Coeff-Com:  0.179D-02-0.104D-02-0.162D-02 0.627D-03-0.142D-02-0.289D-02
 Coeff-Com: -0.236D-03 0.178D-01 0.285D-01-0.114D-01-0.198D+00-0.328D+00
 Coeff-Com:  0.545D+00 0.951D+00
 Coeff:      0.258D-04-0.240D-04-0.128D-03 0.171D-03 0.471D-03 0.105D-03
 Coeff:      0.179D-02-0.104D-02-0.162D-02 0.627D-03-0.142D-02-0.289D-02
 Coeff:     -0.236D-03 0.178D-01 0.285D-01-0.114D-01-0.198D+00-0.328D+00
 Coeff:      0.545D+00 0.951D+00
 Gap=     0.095 Goal=   None    Shift=    0.000
 Gap=     0.134 Goal=   None    Shift=    0.000
 RMSDP=5.90D-08 MaxDP=1.98D-05 DE=-1.48D-09 OVMax= 8.86D-05

 Cycle  25  Pass 1  IDiag  1:
 RMSU=  1.72D-08    CP:  1.00D+00  3.00D+00  6.37D-01  1.99D+00
 E= -3004.71959543506     Delta-E=       -0.000000000837 Rises=F Damp=F
 DIIS: error= 2.71D-07 at cycle  25 NSaved=  20.
 NSaved=20 IEnMin=20 EnMin= -3004.71959543506     IErMin=18 ErrMin= 2.47D-07
 ErrMax= 2.71D-07  0.00D+00 EMaxC= 1.00D-01 BMatC= 3.49D-10 BMatP= 4.16D-10
 IDIUse=1 WtCom= 1.00D+00 WtEn= 0.00D+00
 Coeff-Com: -0.192D-04-0.190D-04-0.863D-04 0.257D-03 0.163D-02 0.118D-02
 Coeff-Com: -0.191D-02-0.116D-02 0.190D-03-0.245D-02 0.106D-02-0.486D-02
 Coeff-Com:  0.152D-02 0.120D-01 0.401D-01-0.257D-01-0.170D+00-0.241D+00
 Coeff-Com:  0.216D+00 0.117D+01
 Coeff:     -0.192D-04-0.190D-04-0.863D-04 0.257D-03 0.163D-02 0.118D-02
 Coeff:     -0.191D-02-0.116D-02 0.190D-03-0.245D-02 0.106D-02-0.486D-02
 Coeff:      0.152D-02 0.120D-01 0.401D-01-0.257D-01-0.170D+00-0.241D+00
 Coeff:      0.216D+00 0.117D+01
 Gap=     0.095 Goal=   None    Shift=    0.000
 Gap=     0.134 Goal=   None    Shift=    0.000
 RMSDP=4.65D-08 MaxDP=1.22D-05 DE=-8.37D-10 OVMax= 5.96D-05

 Cycle  26  Pass 1  IDiag  1:
 RMSU=  1.40D-08    CP:  1.00D+00  3.00D+00  4.61D-01  2.74D+00  1.76D+00
 E= -3004.71959543566     Delta-E=       -0.000000000598 Rises=F Damp=F
 DIIS: error= 1.54D-07 at cycle  26 NSaved=  20.
 NSaved=20 IEnMin=20 EnMin= -3004.71959543566     IErMin=20 ErrMin= 1.54D-07
 ErrMax= 1.54D-07  0.00D+00 EMaxC= 1.00D-01 BMatC= 1.42D-10 BMatP= 3.49D-10
 IDIUse=1 WtCom= 1.00D+00 WtEn= 0.00D+00
 Coeff-Com:  0.403D-04-0.272D-03-0.124D-03 0.211D-02 0.124D-02-0.244D-02
 Coeff-Com: -0.856D-03 0.556D-03-0.161D-02 0.374D-02-0.484D-02-0.727D-02
 Coeff-Com: -0.255D-02 0.326D-01 0.660D-01 0.273D-01-0.385D+00-0.301D+00
 Coeff-Com:  0.697D+00 0.875D+00
 Coeff:      0.403D-04-0.272D-03-0.124D-03 0.211D-02 0.124D-02-0.244D-02
 Coeff:     -0.856D-03 0.556D-03-0.161D-02 0.374D-02-0.484D-02-0.727D-02
 Coeff:     -0.255D-02 0.326D-01 0.660D-01 0.273D-01-0.385D+00-0.301D+00
 Coeff:      0.697D+00 0.875D+00
 Gap=     0.095 Goal=   None    Shift=    0.000
 Gap=     0.134 Goal=   None    Shift=    0.000
 RMSDP=2.33D-08 MaxDP=7.33D-06 DE=-5.98D-10 OVMax= 2.47D-05

 Cycle  27  Pass 1  IDiag  1:
 RMSU=  1.43D-08    CP:  1.00D+00  3.00D+00  4.50D-01  3.00D+00  1.93D+00
                    CP:  1.52D+00
 E= -3004.71959543593     Delta-E=       -0.000000000267 Rises=F Damp=F
 DIIS: error= 1.42D-07 at cycle  27 NSaved=  20.
 NSaved=20 IEnMin=20 EnMin= -3004.71959543593     IErMin=20 ErrMin= 1.42D-07
 ErrMax= 1.42D-07  0.00D+00 EMaxC= 1.00D-01 BMatC= 9.25D-11 BMatP= 1.42D-10
 IDIUse=1 WtCom= 1.00D+00 WtEn= 0.00D+00
 Coeff-Com: -0.180D-03-0.121D-03 0.985D-03 0.578D-03-0.139D-02-0.176D-03
 Coeff-Com:  0.704D-03-0.115D-03 0.197D-02-0.162D-02-0.331D-02-0.430D-02
 Coeff-Com: -0.856D-03 0.333D-01 0.666D-01-0.397D-01-0.170D+00-0.180D+00
 Coeff-Com:  0.290D+00 0.101D+01
 Coeff:     -0.180D-03-0.121D-03 0.985D-03 0.578D-03-0.139D-02-0.176D-03
 Coeff:      0.704D-03-0.115D-03 0.197D-02-0.162D-02-0.331D-02-0.430D-02
 Coeff:     -0.856D-03 0.333D-01 0.666D-01-0.397D-01-0.170D+00-0.180D+00
 Coeff:      0.290D+00 0.101D+01
 Gap=     0.095 Goal=   None    Shift=    0.000
 Gap=     0.134 Goal=   None    Shift=    0.000
 RMSDP=1.69D-08 MaxDP=6.49D-06 DE=-2.67D-10 OVMax= 1.11D-05

 Cycle  28  Pass 1  IDiag  1:
 RMSU=  4.10D-09    CP:  1.00D+00  3.00D+00  4.15D-01  3.00D+00  2.15D+00
                    CP:  2.45D+00  1.40D+00
 E= -3004.71959543598     Delta-E=       -0.000000000055 Rises=F Damp=F
 DIIS: error= 2.30D-08 at cycle  28 NSaved=  20.
 NSaved=20 IEnMin=20 EnMin= -3004.71959543598     IErMin=20 ErrMin= 2.30D-08
 ErrMax= 2.30D-08  0.00D+00 EMaxC= 1.00D-01 BMatC= 5.64D-12 BMatP= 9.25D-11
 IDIUse=1 WtCom= 1.00D+00 WtEn= 0.00D+00
 Coeff-Com: -0.837D-04 0.204D-03 0.717D-03-0.660D-03-0.446D-03 0.292D-03
 Coeff-Com: -0.501D-04 0.549D-03 0.812D-04 0.373D-03-0.174D-03-0.686D-02
 Coeff-Com: -0.122D-01-0.106D-02 0.113D+00 0.505D-01-0.305D+00-0.152D+00
 Coeff-Com:  0.423D+00 0.889D+00
 Coeff:     -0.837D-04 0.204D-03 0.717D-03-0.660D-03-0.446D-03 0.292D-03
 Coeff:     -0.501D-04 0.549D-03 0.812D-04 0.373D-03-0.174D-03-0.686D-02
 Coeff:     -0.122D-01-0.106D-02 0.113D+00 0.505D-01-0.305D+00-0.152D+00
 Coeff:      0.423D+00 0.889D+00
 Gap=     0.095 Goal=   None    Shift=    0.000
 Gap=     0.134 Goal=   None    Shift=    0.000
 RMSDP=7.60D-09 MaxDP=1.98D-06 DE=-5.46D-11 OVMax= 1.09D-05

 Cycle  29  Pass 1  IDiag  1:
 RMSU=  1.93D-09    CP:  1.00D+00  3.00D+00  4.35D-01  3.00D+00  2.10D+00
                    CP:  2.49D+00  1.82D+00  8.70D-01
 E= -3004.71959543547     Delta-E=        0.000000000507 Rises=F Damp=F
 DIIS: error= 5.06D-08 at cycle  29 NSaved=  20.
 NSaved=20 IEnMin=19 EnMin= -3004.71959543598     IErMin=19 ErrMin= 2.30D-08
 ErrMax= 5.06D-08  0.00D+00 EMaxC= 1.00D-01 BMatC= 9.67D-12 BMatP= 5.64D-12
 IDIUse=1 WtCom= 1.00D+00 WtEn= 0.00D+00
 Coeff-Com: -0.206D-06 0.130D-03-0.121D-03-0.842D-04 0.173D-04-0.113D-03
 Coeff-Com: -0.214D-03 0.174D-03 0.105D-02 0.141D-02-0.110D-02-0.134D-01
 Coeff-Com: -0.211D-01 0.529D-01 0.673D-01-0.589D-01-0.139D+00-0.163D+00
 Coeff-Com:  0.376D+00 0.897D+00
 Coeff:     -0.206D-06 0.130D-03-0.121D-03-0.842D-04 0.173D-04-0.113D-03
 Coeff:     -0.214D-03 0.174D-03 0.105D-02 0.141D-02-0.110D-02-0.134D-01
 Coeff:     -0.211D-01 0.529D-01 0.673D-01-0.589D-01-0.139D+00-0.163D+00
 Coeff:      0.376D+00 0.897D+00
 Gap=     0.095 Goal=   None    Shift=    0.000
 Gap=     0.134 Goal=   None    Shift=    0.000
 RMSDP=1.15D-08 MaxDP=3.27D-06 DE= 5.07D-10 OVMax= 1.75D-05

 Cycle  30  Pass 1  IDiag  1:
 RMSU=  1.12D-09    CP:  1.00D+00  3.00D+00  3.91D-01  3.00D+00  2.31D+00
                    CP:  2.88D+00  1.72D+00  1.48D+00  9.59D-01
 E= -3004.71959543569     Delta-E=       -0.000000000220 Rises=F Damp=F
 DIIS: error= 2.19D-08 at cycle  30 NSaved=  20.
 NSaved=20 IEnMin=18 EnMin= -3004.71959543598     IErMin=20 ErrMin= 2.19D-08
 ErrMax= 2.19D-08  0.00D+00 EMaxC= 1.00D-01 BMatC= 1.72D-12 BMatP= 5.64D-12
 IDIUse=1 WtCom= 1.00D+00 WtEn= 0.00D+00
 Coeff-Com:  0.230D-04 0.432D-04-0.375D-04-0.588D-04-0.128D-04-0.153D-03
 Coeff-Com:  0.341D-06 0.323D-03 0.986D-03 0.126D-02-0.421D-02-0.113D-01
 Coeff-Com: -0.551D-02 0.209D-01 0.581D-01-0.240D-01-0.195D+00-0.246D-01
 Coeff-Com:  0.392D+00 0.791D+00
 Coeff:      0.230D-04 0.432D-04-0.375D-04-0.588D-04-0.128D-04-0.153D-03
 Coeff:      0.341D-06 0.323D-03 0.986D-03 0.126D-02-0.421D-02-0.113D-01
 Coeff:     -0.551D-02 0.209D-01 0.581D-01-0.240D-01-0.195D+00-0.246D-01
 Coeff:      0.392D+00 0.791D+00
 Gap=     0.095 Goal=   None    Shift=    0.000
 Gap=     0.134 Goal=   None    Shift=    0.000
 RMSDP=8.93D-09 MaxDP=2.19D-06 DE=-2.20D-10 OVMax= 1.60D-05

 Cycle  31  Pass 1  IDiag  1:
 RMSU=  8.11D-10    CP:  1.00D+00  3.00D+00  4.28D-01  3.00D+00  2.14D+00
                    CP:  2.73D+00  1.89D+00  1.20D+00  1.25D+00  4.37D-01
 E= -3004.71959543570     Delta-E=       -0.000000000005 Rises=F Damp=F
 DIIS: error= 1.81D-08 at cycle  31 NSaved=  20.
 NSaved=20 IEnMin=17 EnMin= -3004.71959543598     IErMin=20 ErrMin= 1.81D-08
 ErrMax= 1.81D-08  0.00D+00 EMaxC= 1.00D-01 BMatC= 9.83D-13 BMatP= 1.72D-12
 IDIUse=1 WtCom= 1.00D+00 WtEn= 0.00D+00
 Coeff-Com:  0.183D-04 0.171D-04-0.322D-04-0.143D-04-0.256D-04-0.106D-03
 Coeff-Com: -0.110D-03 0.147D-03 0.132D-02 0.207D-02 0.615D-03-0.192D-01
 Coeff-Com: -0.111D-01 0.462D-01 0.299D-01-0.495D-01-0.117D+00-0.720D-01
 Coeff-Com:  0.369D+00 0.820D+00
 Coeff:      0.183D-04 0.171D-04-0.322D-04-0.143D-04-0.256D-04-0.106D-03
 Coeff:     -0.110D-03 0.147D-03 0.132D-02 0.207D-02 0.615D-03-0.192D-01
 Coeff:     -0.111D-01 0.462D-01 0.299D-01-0.495D-01-0.117D+00-0.720D-01
 Coeff:      0.369D+00 0.820D+00
 Gap=     0.095 Goal=   None    Shift=    0.000
 Gap=     0.134 Goal=   None    Shift=    0.000
 RMSDP=1.63D-09 MaxDP=3.85D-07 DE=-5.46D-12 OVMax= 2.64D-06

 Error on total polarization charges =  0.03154
 SCF Done:  E(UM062X) =  -3004.71959544     A.U. after   31 cycles
            NFock= 31  Conv=0.16D-08     -V/T= 2.0056
 <Sx>= 0.0000 <Sy>= 0.0000 <Sz>= 0.5000 <S**2>= 0.7725 S= 0.5112
 <L.S>=  0.00000000000    
 KE= 2.988041069272D+03 PE=-2.689560945558D+04 EE= 1.096901853492D+04
 Annihilation of the first spin contaminant:
 S**2 before annihilation     0.7725,   after     0.7502
 Leave Link  502 at Thu Oct  9 08:58:54 2025, MaxMem= 30870077440 cpu:          510116.6 elap:            8076.3
 (Enter /work/home/accqbws0vm/apprepo/gaussian/16-hy/scripts/../app/g16/l601.exe)
 Copying SCF densities to generalized density rwf, IOpCl= 1 IROHF=0.
 Hyperfine terms turned off by default for NAtoms > 100.

 **********************************************************************

            Population analysis using the SCF density.

 **********************************************************************

 Orbital symmetries:
 Alpha Orbitals:
       Occupied  (A) (A) (A) (A) (A) (A) (A) (A) (A) (A) (A) (A)
                 (A) (A) (A) (A) (A) (A) (A) (A) (A) (A) (A) (A)
                 (A) (A) (A) (A) (A) (A) (A) (A) (A) (A) (A) (A)
                 (A) (A) (A) (A) (A) (A) (A) (A) (A) (A) (A) (A)
                 (A) (A) (A) (A) (A) (A) (A) (A) (A) (A) (A) (A)
                 (A) (A) (A) (A) (A) (A) (A) (A) (A) (A) (A) (A)
                 (A) (A) (A) (A) (A) (A) (A) (A) (A) (A) (A) (A)
                 (A) (A) (A) (A) (A) (A) (A) (A) (A) (A) (A) (A)
                 (A) (A) (A) (A) (A) (A) (A) (A) (A) (A) (A) (A)
                 (A) (A) (A) (A) (A) (A) (A) (A) (A) (A) (A) (A)
                 (A) (A) (A) (A) (A) (A) (A) (A) (A) (A) (A) (A)
                 (A) (A) (A) (A) (A) (A) (A) (A) (A) (A) (A) (A)
                 (A) (A) (A) (A) (A) (A) (A) (A) (A) (A) (A) (A)
                 (A) (A) (A) (A) (A) (A) (A) (A) (A) (A) (A) (A)
                 (A) (A) (A) (A) (A) (A) (A) (A) (A) (A) (A) (A)
                 (A) (A) (A) (A) (A) (A) (A) (A) (A) (A) (A) (A)
                 (A) (A) (A) (A) (A) (A) (A) (A) (A) (A) (A) (A)
                 (A) (A) (A) (A) (A) (A) (A) (A) (A) (A) (A) (A)
                 (A) (A) (A) (A) (A) (A) (A) (A) (A) (A) (A) (A)
                 (A) (A) (A) (A) (A) (A) (A) (A) (A) (A) (A) (A)
                 (A) (A) (A) (A) (A) (A) (A)
       Virtual   (A) (A) (A) (A) (A) (A) (A) (A) (A) (A) (A) (A)
                 (A) (A) (A) (A) (A) (A) (A) (A) (A) (A) (A) (A)
                 (A) (A) (A) (A) (A) (A) (A) (A) (A) (A) (A) (A)
                 (A) (A) (A) (A) (A) (A) (A) (A) (A) (A) (A) (A)
                 (A) (A) (A) (A) (A) (A) (A) (A) (A) (A) (A) (A)
                 (A) (A) (A) (A) (A) (A) (A) (A) (A) (A) (A) (A)
                 (A) (A) (A) (A) (A) (A) (A) (A) (A) (A) (A) (A)
                 (A) (A) (A) (A) (A) (A) (A) (A) (A) (A) (A) (A)
                 (A) (A) (A) (A) (A) (A) (A) (A) (A) (A) (A) (A)
                 (A) (A) (A) (A) (A) (A) (A) (A) (A) (A) (A) (A)
                 (A) (A) (A) (A) (A) (A) (A) (A) (A) (A) (A) (A)
                 (A) (A) (A) (A) (A) (A) (A) (A) (A) (A) (A) (A)
                 (A) (A) (A) (A) (A) (A) (A) (A) (A) (A) (A) (A)
                 (A) (A) (A) (A) (A) (A) (A) (A) (A) (A) (A) (A)
                 (A) (A) (A) (A) (A) (A) (A) (A) (A) (A) (A) (A)
                 (A) (A) (A) (A) (A) (A) (A) (A) (A) (A) (A) (A)
                 (A) (A) (A) (A) (A) (A) (A) (A) (A) (A) (A) (A)
                 (A) (A) (A) (A) (A) (A) (A) (A) (A) (A) (A) (A)
                 (A) (A) (A) (A) (A) (A) (A) (A) (A) (A) (A) (A)
                 (A) (A) (A) (A) (A) (A) (A) (A) (A) (A) (A) (A)
                 (A) (A) (A) (A) (A) (A) (A) (A) (A) (A) (A) (A)
                 (A) (A) (A) (A) (A) (A) (A) (A) (A) (A) (A) (A)
                 (A) (A) (A) (A) (A) (A) (A) (A) (A) (A) (A) (A)
                 (A) (A) (A) (A) (A) (A) (A) (A) (A) (A) (A) (A)
                 (A) (A) (A) (A) (A) (A) (A) (A) (A) (A) (A) (A)
                 (A) (A) (A) (A) (A) (A) (A) (A) (A) (A) (A) (A)
                 (A) (A) (A) (A) (A) (A) (A) (A) (A) (A) (A) (A)
                 (A) (A) (A) (A) (A) (A) (A) (A) (A) (A) (A) (A)
                 (A) (A) (A) (A) (A) (A) (A) (A) (A) (A) (A) (A)
                 (A) (A) (A) (A) (A) (A) (A) (A) (A) (A) (A) (A)
                 (A) (A) (A) (A) (A) (A) (A) (A) (A) (A) (A) (A)
                 (A) (A) (A) (A) (A) (A) (A) (A) (A) (A) (A) (A)
                 (A) (A) (A) (A) (A) (A) (A) (A) (A) (A) (A) (A)
                 (A) (A) (A) (A) (A) (A) (A) (A) (A) (A) (A) (A)
                 (A) (A) (A) (A) (A) (A) (A) (A) (A) (A) (A) (A)
                 (A) (A) (A) (A) (A) (A) (A) (A) (A) (A) (A) (A)
                 (A) (A) (A) (A) (A) (A) (A) (A) (A) (A) (A) (A)
                 (A) (A) (A) (A) (A) (A) (A) (A) (A) (A) (A) (A)
                 (A) (A) (A) (A) (A) (A) (A) (A) (A) (A) (A) (A)
                 (A) (A) (A) (A) (A) (A) (A) (A) (A) (A) (A) (A)
                 (A) (A) (A) (A) (A) (A) (A) (A) (A) (A) (A) (A)
                 (A) (A) (A) (A) (A) (A) (A) (A) (A) (A) (A) (A)
                 (A) (A) (A) (A) (A) (A) (A) (A) (A) (A) (A) (A)
                 (A) (A) (A) (A) (A) (A) (A) (A) (A) (A) (A) (A)
                 (A) (A) (A) (A) (A) (A) (A) (A) (A) (A) (A) (A)
                 (A) (A) (A) (A) (A) (A) (A) (A) (A) (A) (A) (A)
                 (A) (A) (A) (A) (A) (A) (A) (A) (A) (A) (A) (A)
                 (A) (A) (A) (A) (A) (A) (A) (A) (A) (A) (A) (A)
                 (A) (A) (A) (A) (A) (A) (A) (A) (A) (A) (A) (A)
                 (A) (A) (A) (A) (A) (A) (A) (A) (A) (A) (A) (A)
                 (A) (A) (A) (A) (A) (A) (A) (A) (A) (A) (A) (A)
                 (A) (A) (A) (A) (A) (A) (A) (A) (A) (A) (A) (A)
                 (A) (A) (A) (A) (A) (A) (A) (A) (A) (A) (A) (A)
                 (A) (A) (A) (A) (A) (A) (A) (A) (A) (A) (A) (A)
                 (A) (A) (A) (A) (A) (A) (A) (A) (A) (A) (A) (A)
                 (A) (A) (A) (A) (A) (A) (A) (A) (A) (A) (A) (A)
                 (A) (A) (A) (A) (A) (A) (A) (A) (A) (A) (A) (A)
                 (A) (A) (A) (A) (A) (A) (A) (A) (A) (A) (A) (A)
                 (A) (A) (A) (A) (A) (A) (A) (A) (A) (A) (A) (A)
                 (A) (A) (A) (A) (A) (A) (A) (A) (A) (A) (A) (A)
                 (A) (A) (A) (A) (A) (A) (A) (A) (A) (A) (A) (A)
                 (A) (A) (A) (A) (A) (A) (A) (A) (A) (A) (A) (A)
                 (A) (A) (A) (A) (A) (A) (A) (A) (A) (A) (A) (A)
                 (A) (A) (A) (A) (A) (A) (A) (A) (A) (A) (A) (A)
                 (A) (A) (A) (A) (A) (A) (A) (A) (A) (A) (A) (A)
                 (A) (A) (A) (A) (A) (A) (A) (A) (A) (A) (A) (A)
                 (A) (A) (A) (A) (A) (A) (A) (A) (A) (A) (A) (A)
[...]
  Beta virt. eigenvalues --    4.76842   4.77039   4.77882   4.78249   4.78460
  Beta virt. eigenvalues --    4.78566   4.78615   4.79105   4.79335   4.79961
  Beta virt. eigenvalues --    4.80392   4.80865   4.81565   4.81883   4.82302
  Beta virt. eigenvalues --    4.82687   4.82864   4.83526   4.83628   4.83803
  Beta virt. eigenvalues --    4.84142   4.84284   4.84436   4.84804   4.85944
  Beta virt. eigenvalues --    4.86144   4.86345   4.87304   4.87439   4.87741
  Beta virt. eigenvalues --    4.88329   4.88494   4.88843   4.89439   4.89590
  Beta virt. eigenvalues --    4.89819   4.89982   4.90128   4.90461   4.91314
  Beta virt. eigenvalues --    4.91396   4.91831   4.92033   4.92235   4.92845
  Beta virt. eigenvalues --    4.93274   4.93371   4.93492   4.93741   4.94149
  Beta virt. eigenvalues --    4.94310   4.94675   4.94818   4.94914   4.95238
  Beta virt. eigenvalues --    4.95473   4.95724   4.95858   4.96287   4.96552
  Beta virt. eigenvalues --    4.96958   4.97307   4.97490   4.97705   4.98180
  Beta virt. eigenvalues --    4.98479   4.98637   4.98831   4.99539   4.99960
  Beta virt. eigenvalues --    5.00052   5.00335   5.01089   5.01537   5.01914
  Beta virt. eigenvalues --    5.02283   5.02481   5.03100   5.03483   5.03728
  Beta virt. eigenvalues --    5.04078   5.04529   5.05060   5.05602   5.06006
  Beta virt. eigenvalues --    5.06657   5.07087   5.07874   5.08279   5.08563
  Beta virt. eigenvalues --    5.08685   5.09098   5.09492   5.10793   5.11707
  Beta virt. eigenvalues --    5.11901   5.12056   5.12430   5.12538   5.13197
  Beta virt. eigenvalues --    5.13407   5.14106   5.14203   5.14405   5.14520
  Beta virt. eigenvalues --    5.14853   5.15245   5.16089   5.16207   5.17242
  Beta virt. eigenvalues --    5.18825   5.18848   5.18979   5.19193   5.19237
  Beta virt. eigenvalues --    5.19715   5.20152   5.20220   5.20357   5.21181
  Beta virt. eigenvalues --    5.21389   5.21625   5.22043   5.22154   5.22741
  Beta virt. eigenvalues --    5.22979   5.23414   5.23818   5.24545   5.25398
  Beta virt. eigenvalues --    5.25950   5.26419   5.26660   5.26815   5.26861
  Beta virt. eigenvalues --    5.26994   5.27173   5.27428   5.27866   5.28228
  Beta virt. eigenvalues --    5.28300   5.28645   5.28874   5.29033   5.29094
  Beta virt. eigenvalues --    5.29214   5.29550   5.29613   5.30214   5.30373
  Beta virt. eigenvalues --    5.30560   5.30692   5.31221   5.31303   5.31402
  Beta virt. eigenvalues --    5.31808   5.32171   5.32247   5.32552   5.32823
  Beta virt. eigenvalues --    5.33303   5.33832   5.33991   5.34180   5.34314
  Beta virt. eigenvalues --    5.34430   5.34474   5.34980   5.35650   5.35780
  Beta virt. eigenvalues --    5.36350   5.37291   5.37465   5.37774   5.38024
  Beta virt. eigenvalues --    5.38730   5.38792   5.39132   5.39350   5.39506
  Beta virt. eigenvalues --    5.39676   5.40267   5.40542   5.41088   5.41256
  Beta virt. eigenvalues --    5.41501   5.41709   5.42282   5.42427   5.42622
  Beta virt. eigenvalues --    5.42760   5.43373   5.43518   5.44160   5.44442
  Beta virt. eigenvalues --    5.45328   5.45653   5.45772   5.46747   5.46954
  Beta virt. eigenvalues --    5.48048   5.49031   5.49521   5.49883   5.50709
  Beta virt. eigenvalues --    5.50827   5.51102   5.51586   5.51770   5.52219
  Beta virt. eigenvalues --    5.52793   5.53196   5.54272   5.54765   5.55149
  Beta virt. eigenvalues --    5.55575   5.56508   5.56690   5.57347   5.57492
  Beta virt. eigenvalues --    5.58202   5.58457   5.59221   5.59334   5.59823
  Beta virt. eigenvalues --    5.60251   5.60786   5.61292   5.61770   5.61849
  Beta virt. eigenvalues --    5.62506   5.62785   5.63090   5.63362   5.63515
  Beta virt. eigenvalues --    5.64406   5.65117   5.65858   5.66074   5.66667
  Beta virt. eigenvalues --    5.67241   5.67394   5.67988   5.68210   5.68738
  Beta virt. eigenvalues --    5.68835   5.69105   5.69165   5.69975   5.70275
  Beta virt. eigenvalues --    5.70694   5.71243   5.71687   5.72517   5.72951
  Beta virt. eigenvalues --    5.73671   5.74205   5.74780   5.74908   5.75343
  Beta virt. eigenvalues --    5.76510   5.77696   5.78145   5.79380   5.79932
  Beta virt. eigenvalues --    5.82280   5.84077   5.87262   5.89021   5.90219
  Beta virt. eigenvalues --    5.90947   5.91610   5.92005   5.93439   5.93756
  Beta virt. eigenvalues --    5.96288   5.96894   5.98958   5.99612   5.99673
  Beta virt. eigenvalues --    5.99926   6.00826   6.00893   6.01489   6.01708
  Beta virt. eigenvalues --    6.02289   6.05209   6.07238   6.07344   6.09066
  Beta virt. eigenvalues --    6.12666   6.12868   6.12964   6.14698   6.15358
  Beta virt. eigenvalues --    6.15873   6.16783   6.17133   6.17874   6.21283
  Beta virt. eigenvalues --    6.22129   6.22161   6.30672   6.33377   6.38750
  Beta virt. eigenvalues --    6.41980   6.47026   6.48828   6.55763   6.60712
  Beta virt. eigenvalues --    6.61530   6.61573   6.68174   6.68994   6.77249
  Beta virt. eigenvalues --    6.84164   6.85793   6.85961   6.95253   6.95972
  Beta virt. eigenvalues --    6.97691   7.00083   7.00692   7.01773   7.05372
  Beta virt. eigenvalues --    7.09506   7.11665   7.17897   7.18793   7.23686
  Beta virt. eigenvalues --    7.23881   7.24658   7.28810   7.34296   7.35183
  Beta virt. eigenvalues --    7.62605   7.64470   8.47983   8.49431   8.56682
  Beta virt. eigenvalues --    8.61445   8.83888   8.88514   8.93869   8.94233
  Beta virt. eigenvalues --    8.95959   9.00902  15.85353  22.83828  22.83971
  Beta virt. eigenvalues --   22.85916  22.85994  22.86351  22.89937  22.92909
  Beta virt. eigenvalues --   22.95779  23.00119  23.06239  23.13310  23.15343
  Beta virt. eigenvalues --   23.15854  23.16061  23.16843  23.16906  23.18259
  Beta virt. eigenvalues --   23.19054  23.20818  23.25682  23.25755  23.26122
  Beta virt. eigenvalues --   23.26185  23.26387  23.26955  23.27177  23.27237
  Beta virt. eigenvalues --   23.27272  23.27983  23.28945  23.31586  23.33888
  Beta virt. eigenvalues --   23.34296  23.35025  23.36300  23.36491  23.38410
  Beta virt. eigenvalues --   23.38453  23.39367  23.39539  23.41366  23.42246
  Beta virt. eigenvalues --   23.47047  23.51915  23.53877  23.57421  23.57909
  Beta virt. eigenvalues --   23.58516  23.70007  23.70743  23.72475  23.75636
  Beta virt. eigenvalues --   23.85539  23.89064  24.06672  24.06757  24.07285
  Beta virt. eigenvalues --   24.07385  24.09725  24.10997  24.16084  32.53230
  Beta virt. eigenvalues --   33.11236  33.27079  33.44460  33.44673  44.20426
  Beta virt. eigenvalues --   44.25625  57.44853  57.59035
          Condensed to atoms (all electrons):
          Atomic-Atomic Spin Densities.
 Mulliken charges and spin densities:
               1          2
     1  C   -0.304100  -0.000127
     2  C   -0.418432   0.000225
     3  C   -0.004404  -0.002474
     4  C    0.131311   0.038951
     5  C   -0.141687  -0.021985
     6  C   -0.117664   0.029895
     7  C    0.018522  -0.007839
     8  C   -0.165100   0.008164
     9  C   -0.153436  -0.004866
    10  C    0.011860   0.009339
    11  C   -0.157184  -0.005190
    12  C   -0.127384   0.007779
    13  N   -0.107031   0.001495
    14  C    0.010520  -0.000463
    15  C   -0.156849   0.000478
    16  C   -0.145513  -0.000266
    17  C   -0.169533   0.000515
    18  C   -0.145151  -0.000292
    19  C   -0.165815   0.000622
    20  C    0.007709  -0.000435
    21  C   -0.163807   0.000606
    22  C   -0.144571  -0.000288
    23  C   -0.169079   0.000507
    24  C   -0.145148  -0.000266
    25  C   -0.156884   0.000472
    26  N   -0.132304   0.001732
    27  C    0.030515  -0.010313
    28  C    0.089740   0.027241
    29  C   -0.449850   0.002058
    30  C    0.179448   0.049981
    31  C    0.055098  -0.006823
    32  C    0.065974   0.024357
    33  C   -0.465764  -0.000003
    34  C    0.000010   0.000810
    35  C   -0.325069  -0.000212
    36  C   -0.328648   0.000016
    37  C    0.083283   0.037427
    38  C   -0.233302  -0.010276
    39  C   -0.098325   0.008367
    40  C   -0.052709  -0.000079
    41  C   -0.108987   0.001688
    42  C   -0.159499  -0.000732
    43  C    0.012606   0.001791
    44  C   -0.143525  -0.001089
    45  C   -0.156130   0.000581
    46  N   -0.108022   0.000313
    47  C    0.008415  -0.000099
    48  C   -0.155592   0.000107
    49  C   -0.146552  -0.000061
    50  C   -0.168944   0.000116
    51  C   -0.145508  -0.000061
    52  C   -0.159325   0.000139
    53  C    0.010210  -0.000104
    54  C   -0.164839   0.000114
    55  C   -0.144654  -0.000053
    56  C   -0.170202   0.000104
    57  C   -0.145734  -0.000050
    58  C   -0.159379   0.000099
    59  N   -0.144520   0.001740
    60  B    0.399011   0.000564
    61  F   -0.348303   0.000070
    62  F   -0.366032   0.000100
    63  C   -0.186765   0.139668
    64  C   -0.197249  -0.037105
    65  C   -0.151473   0.111000
    66  C    0.036839  -0.042725
    67  C   -0.163897   0.113384
    68  C   -0.186574  -0.040184
    69  N    0.377289   0.220393
    70  O   -0.556693   0.184215
    71  O   -0.556663   0.184333
    72  H    0.111236  -0.000006
    73  H    0.113972  -0.000008
    74  H    0.125138   0.000046
    75  H    0.130384  -0.000076
    76  H    0.130621  -0.000005
    77  H    0.111971   0.001348
    78  H    0.128888  -0.001700
    79  H    0.147391  -0.000301
    80  H    0.171190   0.000043
    81  H    0.172792   0.000069
    82  H    0.141548  -0.000216
    83  H    0.171941  -0.000018
    84  H    0.157422   0.000003
    85  H    0.157353  -0.000024
    86  H    0.157272   0.000008
    87  H    0.174548  -0.000080
    88  H    0.174170  -0.000080
    89  H    0.157332   0.000008
    90  H    0.157434  -0.000023
    91  H    0.157473   0.000003
    92  H    0.171922  -0.000017
    93  H    0.155600  -0.001819
    94  H    0.160117  -0.001033
    95  H    0.131923   0.000269
    96  H    0.153472  -0.000808
    97  H    0.141280   0.000206
    98  H    0.160357  -0.001141
    99  H    0.110292   0.000014
   100  H    0.132363  -0.000016
   101  H    0.120630  -0.000020
   102  H    0.117845  -0.000117
   103  H    0.122285  -0.000055
   104  H    0.154798   0.001805
   105  H    0.137755  -0.000426
   106  H    0.142281  -0.000039
   107  H    0.173639  -0.000008
   108  H    0.172067   0.000023
   109  H    0.161693  -0.000643
   110  H    0.171915  -0.000004
   111  H    0.157180   0.000001
   112  H    0.157200  -0.000005
   113  H    0.156254   0.000002
   114  H    0.169447  -0.000024
   115  H    0.173869  -0.000012
   116  H    0.157071   0.000001
   117  H    0.157151  -0.000005
   118  H    0.157150   0.000000
   119  H    0.171863  -0.000005
   120  H    0.181521   0.000373
   121  H    0.174302  -0.006467
   122  H    0.175072  -0.006399
   123  H    0.181050   0.000286
 Sum of Mulliken charges =  -1.00000   1.00000
 Mulliken charges and spin densities with hydrogens summed into heavy atoms:
               1          2
     1  C    0.046247  -0.000094
     2  C   -0.157427   0.000144
     3  C   -0.004404  -0.002474
     4  C    0.131311   0.038951
     5  C   -0.029716  -0.020637
     6  C    0.011224   0.028195
     7  C    0.018522  -0.007839
     8  C   -0.017708   0.007863
     9  C    0.017754  -0.004824
    10  C    0.011860   0.009339
    11  C    0.015608  -0.005121
    12  C    0.014164   0.007562
    13  N   -0.107031   0.001495
    14  C    0.010520  -0.000463
    15  C    0.015092   0.000460
    16  C    0.011909  -0.000264
    17  C   -0.012180   0.000492
    18  C    0.012120  -0.000283
    19  C    0.008733   0.000542
    20  C    0.007709  -0.000435
    21  C    0.010364   0.000526
    22  C    0.012760  -0.000280
    23  C   -0.011645   0.000484
    24  C    0.012325  -0.000263
    25  C    0.015039   0.000454
    26  N   -0.132304   0.001732
    27  C    0.030515  -0.010313
    28  C    0.089740   0.027241
    29  C   -0.002210  -0.000525
    30  C    0.179448   0.049981
    31  C    0.055098  -0.006823
    32  C    0.065974   0.024357
    33  C   -0.010654  -0.001746
    34  C    0.000010   0.000810
    35  C   -0.082414  -0.000214
    36  C    0.032112  -0.000176
    37  C    0.083283   0.037427
    38  C   -0.078504  -0.008471
    39  C    0.039430   0.007940
    40  C   -0.052709  -0.000079
    41  C    0.033294   0.001649
    42  C    0.014140  -0.000741
    43  C    0.012606   0.001791
    44  C    0.028542  -0.001066
    45  C    0.005563  -0.000061
    46  N   -0.108022   0.000313
    47  C    0.008415  -0.000099
    48  C    0.016324   0.000103
    49  C    0.010628  -0.000061
    50  C   -0.011744   0.000110
    51  C    0.010746  -0.000059
    52  C    0.010122   0.000115
    53  C    0.010210  -0.000104
    54  C    0.009030   0.000103
    55  C    0.012417  -0.000052
    56  C   -0.013051   0.000099
    57  C    0.011416  -0.000050
    58  C    0.012484   0.000094
    59  N   -0.144520   0.001740
    60  B    0.399011   0.000564
    61  F   -0.348303   0.000070
    62  F   -0.366032   0.000100
    63  C   -0.186765   0.139668
    64  C   -0.015728  -0.036732
    65  C    0.022830   0.104533
    66  C    0.036839  -0.042725
    67  C    0.011176   0.106985
    68  C   -0.005524  -0.039898
    69  N    0.377289   0.220393
    70  O   -0.556693   0.184215
    71  O   -0.556663   0.184333
 Electronic spatial extent (au):  <R**2>=          91113.6299
 Charge=             -1.0000 electrons
 Dipole moment (field-independent basis, Debye):
    X=             25.7886    Y=             27.1187    Z=              2.7679  Tot=             37.5252
 Quadrupole moment (field-independent basis, Debye-Ang):
   XX=           -564.8518   YY=           -565.5241   ZZ=           -418.5503
   XY=           -193.6580   XZ=            -40.6874   YZ=            -24.6920
 Traceless Quadrupole moment (field-independent basis, Debye-Ang):
   XX=            -48.5431   YY=            -49.2153   ZZ=             97.7584
   XY=           -193.6580   XZ=            -40.6874   YZ=            -24.6920
 Octapole moment (field-independent basis, Debye-Ang**2):
  XXX=           1689.1464  YYY=           1513.8372  ZZZ=             12.2955  XYY=           1477.2996
  XXY=           1456.4891  XXZ=            204.1940  XZZ=             72.0184  YZZ=            107.0739
  YYZ=            250.5701  XYZ=            352.3055
 Hexadecapole moment (field-independent basis, Debye-Ang**3):
 XXXX=         -80509.7730 YYYY=         -53249.9136 ZZZZ=          -6925.9897 XXXY=         -11081.1469
 XXXZ=          -2427.3387 YYYX=         -10804.1273 YYYZ=          -1874.3519 ZZZX=            -32.0958
 ZZZY=           -113.8611 XXYY=         -29997.0678 XXZZ=         -13671.2702 YYZZ=          -9451.3400
 XXYZ=          -1740.1170 YYXZ=          -1902.5722 ZZXY=           -665.7305
 N-N= 9.933830255957D+03 E-N=-2.689560944476D+04  KE= 2.988041069272D+03
 Leave Link  601 at Thu Oct  9 08:59:00 2025, MaxMem= 30870077440 cpu:             224.7 elap:               4.2
 (Enter /work/home/accqbws0vm/apprepo/gaussian/16-hy/scripts/../app/g16/l9999.exe)
 1\1\GINC-G03R4N36\SP\UM062X\def2TZVPP\C61H52B1F2N5O2(1-,2)\ACCQBWS0VM\
 09-Oct-2025\0\\#p M062X/DEF2TZVPP scrf=(solvent=water) em=GD3\\Energy 
 calculation for M100034731_reduced\\-1,2\C,0,2.404735,6.63336,-0.19756
 4\C,0,1.764061,5.852769,0.963416\C,0,0.754116,4.828484,0.514449\C,0,1.
 046882,3.500494,0.103817\C,0,2.376796,2.941554,0.12274\C,0,2.761061,1.
 638681,0.083118\C,0,4.133269,1.149607,0.119727\C,0,5.275423,1.98055,0.
 090918\C,0,6.557196,1.453339,0.129329\C,0,6.764901,0.061265,0.207681\C
 ,0,5.637699,-0.778876,0.235488\C,0,4.358057,-0.241645,0.184754\N,0,8.0
 73608,-0.473673,0.249353\C,0,9.104497,0.202732,0.962646\C,0,10.388737,
 0.324369,0.40782\C,0,11.399697,0.975227,1.113678\C,0,11.145509,1.52824
 7,2.371352\C,0,9.866327,1.41457,2.921864\C,0,8.853528,0.750326,2.23125
 9\C,0,8.372211,-1.696802,-0.41813\C,0,7.892714,-1.935987,-1.716131\C,0
 ,8.186401,-3.135758,-2.362662\C,0,8.974302,-4.105562,-1.737235\C,0,9.4
 60107,-3.865236,-0.449557\C,0,9.157196,-2.675673,0.211887\N,0,-0.12620
 8,2.880632,-0.262517\C,0,-1.178956,3.779086,-0.05564\C,0,-0.626665,5.0
 15783,0.406343\C,0,-1.317745,6.325067,0.656804\C,0,-2.517235,3.433011,
 -0.382886\C,0,-2.779375,2.247499,-1.121926\C,0,-3.987265,1.567036,-1.4
 57707\C,0,-5.398612,1.889343,-1.062149\C,0,-3.622982,0.428346,-2.20263
 \C,0,-4.567273,-0.537231,-2.867359\C,0,-5.297286,0.058681,-4.083253\C,
 0,-2.213528,0.404648,-2.270951\C,0,-1.337948,-0.521033,-2.995795\C,0,-
 1.308666,-1.869806,-2.929947\C,0,-1.988812,-2.761627,-1.981678\C,0,-2.
 342421,-4.06523,-2.377582\C,0,-2.980666,-4.943398,-1.508961\C,0,-3.258
 676,-4.559866,-0.185295\C,0,-2.870187,-3.273474,0.233997\C,0,-2.253702
 ,-2.394471,-0.647102\N,0,-3.898374,-5.449791,0.711637\C,0,-4.834097,-4
 .955689,1.665136\C,0,-4.81021,-5.419826,2.990299\C,0,-5.73546,-4.94349
 8,3.91831\C,0,-6.685396,-3.988074,3.548547\C,0,-6.706074,-3.519412,2.2
 32384\C,0,-5.796433,-4.002879,1.292873\C,0,-3.605604,-6.843264,0.67476
 \C,0,-2.281425,-7.291962,0.542212\C,0,-2.003421,-8.657639,0.502919\C,0
 ,-3.032672,-9.596142,0.613569\C,0,-4.349641,-9.151762,0.755636\C,0,-4.
 639353,-7.788076,0.777941\N,0,-1.71383,1.504336,-1.62695\B,0,-0.27291,
 1.571582,-1.076478\F,0,0.650704,1.539135,-2.130924\F,0,-0.061138,0.439
 382,-0.24552\C,0,-3.621563,4.308652,0.027742\C,0,-4.526697,4.842284,-0
 .920951\C,0,-5.555431,5.683748,-0.544015\C,0,-5.738739,5.997074,0.8220
 53\C,0,-4.857219,5.462242,1.788638\C,0,-3.81327,4.650627,1.387881\N,0,
 -6.789267,6.83527,1.216987\O,0,-7.576772,7.32424,0.334604\O,0,-6.95279
 2,7.104008,2.457453\H,0,2.931482,5.960797,-0.882657\H,0,1.646639,7.170
 783,-0.776998\H,0,3.126295,7.366952,0.177959\H,0,2.552916,5.364794,1.5
 46135\H,0,1.282089,6.559566,1.646709\H,0,3.148741,3.697731,0.235821\H,
 0,2.001987,0.865309,0.045909\H,0,5.162572,3.057389,0.013492\H,0,7.4117
 32,2.120026,0.088038\H,0,5.767947,-1.853558,0.301281\H,0,3.503136,-0.9
 12022,0.212337\H,0,10.589778,-0.089713,-0.574622\H,0,12.387271,1.06116
 9,0.669903\H,0,11.933439,2.040031,2.915054\H,0,9.655632,1.831827,3.902
 248\H,0,7.867436,0.651441,2.672733\H,0,7.293947,-1.180827,-2.214454\H,
 0,7.808596,-3.304636,-3.366835\H,0,9.206813,-5.035489,-2.246769\H,0,10
 .068181,-4.612422,0.052027\H,0,9.525796,-2.502269,1.217489\H,0,-2.1268
 98,6.497961,-0.056567\H,0,-1.75789,6.388961,1.65826\H,0,-0.6053,7.1485
 ,0.560466\H,0,-5.878015,2.61366,-1.7301\H,0,-6.006217,0.979778,-1.0822
 5\H,0,-5.449734,2.305392,-0.052975\H,0,-4.016612,-1.425469,-3.185477\H
 ,0,-5.31151,-0.884625,-2.139\H,0,-5.896279,0.93204,-3.806314\H,0,-4.58
 278,0.374206,-4.851144\H,0,-5.96999,-0.680421,-4.531933\H,0,-0.642535,
 -0.046371,-3.685064\H,0,-0.674686,-2.376356,-3.656739\H,0,-2.135672,-4
 .385829,-3.395126\H,0,-3.26464,-5.931264,-1.854969\H,0,-3.037631,-2.97
 2531,1.262574\H,0,-1.920358,-1.428231,-0.283861\H,0,-4.066007,-6.15037
 1,3.289477\H,0,-5.702213,-5.312587,4.939242\H,0,-7.399657,-3.614146,4.
 275454\H,0,-7.443754,-2.782923,1.927408\H,0,-5.829766,-3.645538,0.2690
 27\H,0,-1.474652,-6.569977,0.471928\H,0,-0.973671,-8.987438,0.400412\H
 ,0,-2.811448,-10.65864,0.589892\H,0,-5.161387,-9.868874,0.836405\H,0,-
 5.666075,-7.450854,0.87395\H,0,-4.387952,4.610084,-1.971839\H,0,-6.220
 602,6.111875,-1.28263\H,0,-5.012823,5.690948,2.835016\H,0,-3.140508,4.
 24139,2.134807\\Version=ES64L-G16RevA.03\State=2-A\HF=-3004.7195954\S2
 =0.772537\S2-1=0.\S2A=0.750236\RMSD=1.635e-09\Dipole=10.1460213,-10.66
 93177,-1.0889686\Quadrupole=-36.0905978,-36.5903865,72.6809843,143.979
 9711,30.2500727,-18.3578921\PG=C01 [X(C61H52B1F2N5O2)]\\@


 HE THAT FOLLOWS NATURE IS NEVER LOST.

                             -- BACON
 Job cpu time:       5 days 22 hours 54 minutes 10.6 seconds.
 Elapsed time:       0 days  2 hours 15 minutes 45.5 seconds.
 File lengths (MBytes):  RWF=   9068 Int=      0 D2E=      0 Chk=    594 Scr=      1
 Normal termination of Gaussian 16 at Thu Oct  9 08:59:00 2025.
