 Entering Gaussian System, Link 0=g16
 Input=M100032027_sp.gjf
 Output=M100032027_sp.log
 Initial command:
 /public/software/gauss/g16/l1.exe "/public/home/baiding/1101_v2_sp/tmp_M100032027_sp_1568608/Gau-4117082.inp" -scrdir="/public/home/baiding/1101_v2_sp/tmp_M100032027_sp_1568608/"
 Entering Link 1 = /public/software/gauss/g16/l1.exe PID=   4117083.
  
 Copyright (c) 1988,1990,1992,1993,1995,1998,2003,2009,2016,
            Gaussian, Inc.  All Rights Reserved.
  
 This is part of the Gaussian(R) 16 program.  It is based on
 the Gaussian(R) 09 system (copyright 2009, Gaussian, Inc.),
 the Gaussian(R) 03 system (copyright 2003, Gaussian, Inc.),
 the Gaussian(R) 98 system (copyright 1998, Gaussian, Inc.),
 the Gaussian(R) 94 system (copyright 1995, Gaussian, Inc.),
 the Gaussian 92(TM) system (copyright 1992, Gaussian, Inc.),
 the Gaussian 90(TM) system (copyright 1990, Gaussian, Inc.),
 the Gaussian 88(TM) system (copyright 1988, Gaussian, Inc.),
 the Gaussian 86(TM) system (copyright 1986, Carnegie Mellon
 University), and the Gaussian 82(TM) system (copyright 1983,
 Carnegie Mellon University). Gaussian is a federally registered
 trademark of Gaussian, Inc.
  
 This software contains proprietary and confidential information,
 including trade secrets, belonging to Gaussian, Inc.
  
 This software is provided under written license and may be
 used, copied, transmitted, or stored only in accord with that
 written license.
  
 The following legend is applicable only to US Government
 contracts under FAR:
  
                    RESTRICTED RIGHTS LEGEND
  
 Use, reproduction and disclosure by the US Government is
 subject to restrictions as set forth in subparagraphs (a)
 and (c) of the Commercial Computer Software - Restricted
 Rights clause in FAR 52.227-19.
  
 Gaussian, Inc.
 340 Quinnipiac St., Bldg. 40, Wallingford CT 06492
  
  
 ---------------------------------------------------------------
 Warning -- This program may not be used in any manner that
 competes with the business of Gaussian, Inc. or will provide
 assistance to any competitor of Gaussian, Inc.  The licensee
 of this program is prohibited from giving any competitor of
 Gaussian, Inc. access to this program.  By using this program,
 the user acknowledges that Gaussian, Inc. is engaged in the
 business of creating and licensing software in the field of
 computational chemistry and represents and warrants to the
 licensee that it is not a competitor of Gaussian, Inc. and that
 it will not use this program in any manner prohibited above.
 ---------------------------------------------------------------
  

 Cite this work as:
 Gaussian 16, Revision A.03,
 M. J. Frisch, G. W. Trucks, H. B. Schlegel, G. E. Scuseria, 
 M. A. Robb, J. R. Cheeseman, G. Scalmani, V. Barone, 
 G. A. Petersson, H. Nakatsuji, X. Li, M. Caricato, A. V. Marenich, 
 J. Bloino, B. G. Janesko, R. Gomperts, B. Mennucci, H. P. Hratchian, 
 J. V. Ortiz, A. F. Izmaylov, J. L. Sonnenberg, D. Williams-Young, 
 F. Ding, F. Lipparini, F. Egidi, J. Goings, B. Peng, A. Petrone, 
 T. Henderson, D. Ranasinghe, V. G. Zakrzewski, J. Gao, N. Rega, 
 G. Zheng, W. Liang, M. Hada, M. Ehara, K. Toyota, R. Fukuda, 
 J. Hasegawa, M. Ishida, T. Nakajima, Y. Honda, O. Kitao, H. Nakai, 
 T. Vreven, K. Throssell, J. A. Montgomery, Jr., J. E. Peralta, 
 F. Ogliaro, M. J. Bearpark, J. J. Heyd, E. N. Brothers, K. N. Kudin, 
 V. N. Staroverov, T. A. Keith, R. Kobayashi, J. Normand, 
 K. Raghavachari, A. P. Rendell, J. C. Burant, S. S. Iyengar, 
 J. Tomasi, M. Cossi, J. M. Millam, M. Klene, C. Adamo, R. Cammi, 
 J. W. Ochterski, R. L. Martin, K. Morokuma, O. Farkas, 
 J. B. Foresman, and D. J. Fox, Gaussian, Inc., Wallingford CT, 2016.
 
 ******************************************
 Gaussian 16:  ES64L-G16RevA.03 25-Dec-2016
                 6-Nov-2025 
 ******************************************
 %nprocshared=64
 Will use up to   64 processors via shared memory.
 %mem=230GB
 %chk=M100032027_sp.chk
 ----------------------------------------------
 #p M062X/DEF2TZVPP scrf=(solvent=water) em=GD3
 ----------------------------------------------
 1/38=1,172=1/1;
 2/12=2,17=6,18=5,40=1/2;
 3/5=44,7=202,11=2,25=1,30=1,70=2201,72=1,74=-55,124=31/1,2,3;
 4//1;
 5/5=2,38=5,53=1/2;
 6/7=2,8=2,9=2,10=2,28=1/1;
 99/5=1,9=1/99;
 Leave Link    1 at Thu Nov  6 03:43:34 2025, MaxMem= 30870077440 cpu:              15.1 elap:               0.2
 (Enter /public/software/gauss/g16/l101.exe)
 ---------------------------------
 Energy calculation for M100032027
 ---------------------------------
 Symbolic Z-matrix:
 Charge =  0 Multiplicity = 1
 C                     7.35088   0.0743    0.04918 
 C                     5.84459   0.06612   0.04155 
 C                     5.11992   0.86559  -0.85442 
 C                     3.72841   0.84779  -0.87558 
 C                     3.01065   0.00987  -0.00193 
 C                     1.53574  -0.01663  -0.01614 
 C                     0.79907   1.18228   0.02675 
 C                     1.23483   2.53245   0.15488 
 C                     0.10852   3.32786   0.14958 
 C                    -1.0182    2.46915   0.03168 
 C                    -2.41356   2.81404  -0.03205 
 C                    -2.90707   4.06554   0.13152 
 C                    -4.34267   4.33236   0.03255 
 O                    -5.20071   3.48094  -0.20539 
 N                    -0.58378   1.1766   -0.03905 
 B                    -1.48323  -0.09479   0.04309 
 F                    -2.37846  -0.11376  -1.0258 
 F                    -2.18777  -0.07078   1.25293 
 N                    -0.53821  -1.33246  -0.01967 
 C                    -0.88218  -2.65048  -0.17936 
 C                    -2.19135  -3.24918  -0.14598 
 C                    -3.37621  -2.74293   0.27575 
 C                    -4.58819  -3.56258   0.23669 
 O                    -4.65186  -4.71389  -0.19876 
 C                     0.29786  -3.41379  -0.36744 
 C                     1.37335  -2.55099  -0.30146 
 C                     0.84827  -1.25035  -0.08424 
 C                     3.73474  -0.80024   0.89418 
 C                     5.12472  -0.76064   0.91809 
 H                     7.74392  -0.02841   1.06505 
 H                     7.7464   -0.76525  -0.5362 
 H                     7.74762   0.99475  -0.38736 
 H                     5.65374   1.50905  -1.54812 
 H                     3.19397   1.46058  -1.59354 
 H                     2.26131   2.85452   0.24366 
 H                     0.06696   4.40563   0.21472 
 H                    -3.11498   2.01196  -0.23913 
 H                    -2.26422   4.91456   0.34383 
 H                    -4.63756   5.38573   0.1889 
 H                    -2.19285  -4.28468  -0.48072 
 H                    -3.47251  -1.74501   0.68272 
 H                    -5.4957   -3.07462   0.63675 
 H                     0.31503  -4.48339  -0.52378 
 H                     2.41894  -2.79372  -0.41491 
 H                     3.20197  -1.43199   1.59686 
 H                     5.66189  -1.37758   1.63315 
 
 ITRead=  0  0  0  0  0  0  0  0  0  0  0  0  0  0  0  0  0  0  0  0
 ITRead=  0  0  0  0  0  0  0  0  0  0  0  0  0  0  0  0  0  0  0  0
 ITRead=  0  0  0  0  0  0
 MicOpt= -1 -1 -1 -1 -1 -1 -1 -1 -1 -1 -1 -1 -1 -1 -1 -1 -1 -1 -1 -1
 MicOpt= -1 -1 -1 -1 -1 -1 -1 -1 -1 -1 -1 -1 -1 -1 -1 -1 -1 -1 -1 -1
 MicOpt= -1 -1 -1 -1 -1 -1
 NAtoms=     46 NQM=       46 NQMF=       0 NMMI=      0 NMMIF=      0
                NMic=       0 NMicF=      0.
                    Isotopes and Nuclear Properties:
 (Nuclear quadrupole moments (NQMom) in fm**2, nuclear magnetic moments (NMagM)
  in nuclear magnetons)

  Atom         1           2           3           4           5           6           7           8           9          10
 IAtWgt=          12          12          12          12          12          12          12          12          12          12
 AtmWgt=  12.0000000  12.0000000  12.0000000  12.0000000  12.0000000  12.0000000  12.0000000  12.0000000  12.0000000  12.0000000
 NucSpn=           0           0           0           0           0           0           0           0           0           0
 AtZEff=  -0.0000000  -0.0000000  -0.0000000  -0.0000000  -0.0000000  -0.0000000  -0.0000000  -0.0000000  -0.0000000  -0.0000000
 NQMom=    0.0000000   0.0000000   0.0000000   0.0000000   0.0000000   0.0000000   0.0000000   0.0000000   0.0000000   0.0000000
 NMagM=    0.0000000   0.0000000   0.0000000   0.0000000   0.0000000   0.0000000   0.0000000   0.0000000   0.0000000   0.0000000
 AtZNuc=   6.0000000   6.0000000   6.0000000   6.0000000   6.0000000   6.0000000   6.0000000   6.0000000   6.0000000   6.0000000

  Atom        11          12          13          14          15          16          17          18          19          20
 IAtWgt=          12          12          12          16          14          11          19          19          14          12
 AtmWgt=  12.0000000  12.0000000  12.0000000  15.9949146  14.0030740  11.0093053  18.9984033  18.9984033  14.0030740  12.0000000
 NucSpn=           0           0           0           0           2           3           1           1           2           0
 AtZEff=  -0.0000000  -0.0000000  -0.0000000  -0.0000000  -0.0000000  -0.0000000  -0.0000000  -0.0000000  -0.0000000  -0.0000000
 NQMom=    0.0000000   0.0000000   0.0000000   0.0000000   2.0440000   4.0590000   0.0000000   0.0000000   2.0440000   0.0000000
 NMagM=    0.0000000   0.0000000   0.0000000   0.0000000   0.4037610   2.6886370   2.6288670   2.6288670   0.4037610   0.0000000
 AtZNuc=   6.0000000   6.0000000   6.0000000   8.0000000   7.0000000   5.0000000   9.0000000   9.0000000   7.0000000   6.0000000

  Atom        21          22          23          24          25          26          27          28          29          30
 IAtWgt=          12          12          12          16          12          12          12          12          12           1
 AtmWgt=  12.0000000  12.0000000  12.0000000  15.9949146  12.0000000  12.0000000  12.0000000  12.0000000  12.0000000   1.0078250
 NucSpn=           0           0           0           0           0           0           0           0           0           1
 AtZEff=  -0.0000000  -0.0000000  -0.0000000  -0.0000000  -0.0000000  -0.0000000  -0.0000000  -0.0000000  -0.0000000  -0.0000000
 NQMom=    0.0000000   0.0000000   0.0000000   0.0000000   0.0000000   0.0000000   0.0000000   0.0000000   0.0000000   0.0000000
 NMagM=    0.0000000   0.0000000   0.0000000   0.0000000   0.0000000   0.0000000   0.0000000   0.0000000   0.0000000   2.7928460
 AtZNuc=   6.0000000   6.0000000   6.0000000   8.0000000   6.0000000   6.0000000   6.0000000   6.0000000   6.0000000   1.0000000

  Atom        31          32          33          34          35          36          37          38          39          40
 IAtWgt=           1           1           1           1           1           1           1           1           1           1
 AtmWgt=   1.0078250   1.0078250   1.0078250   1.0078250   1.0078250   1.0078250   1.0078250   1.0078250   1.0078250   1.0078250
 NucSpn=           1           1           1           1           1           1           1           1           1           1
 AtZEff=  -0.0000000  -0.0000000  -0.0000000  -0.0000000  -0.0000000  -0.0000000  -0.0000000  -0.0000000  -0.0000000  -0.0000000
 NQMom=    0.0000000   0.0000000   0.0000000   0.0000000   0.0000000   0.0000000   0.0000000   0.0000000   0.0000000   0.0000000
 NMagM=    2.7928460   2.7928460   2.7928460   2.7928460   2.7928460   2.7928460   2.7928460   2.7928460   2.7928460   2.7928460
 AtZNuc=   1.0000000   1.0000000   1.0000000   1.0000000   1.0000000   1.0000000   1.0000000   1.0000000   1.0000000   1.0000000

  Atom        41          42          43          44          45          46
 IAtWgt=           1           1           1           1           1           1
 AtmWgt=   1.0078250   1.0078250   1.0078250   1.0078250   1.0078250   1.0078250
 NucSpn=           1           1           1           1           1           1
 AtZEff=  -0.0000000  -0.0000000  -0.0000000  -0.0000000  -0.0000000  -0.0000000
 NQMom=    0.0000000   0.0000000   0.0000000   0.0000000   0.0000000   0.0000000
 NMagM=    2.7928460   2.7928460   2.7928460   2.7928460   2.7928460   2.7928460
 AtZNuc=   1.0000000   1.0000000   1.0000000   1.0000000   1.0000000   1.0000000
 Leave Link  101 at Thu Nov  6 03:43:34 2025, MaxMem= 30870077440 cpu:               3.6 elap:               0.1
 (Enter /public/software/gauss/g16/l202.exe)
                          Input orientation:                          
 ---------------------------------------------------------------------
 Center     Atomic      Atomic             Coordinates (Angstroms)
 Number     Number       Type             X           Y           Z
 ---------------------------------------------------------------------
      1          6           0        7.350884    0.074297    0.049179
      2          6           0        5.844590    0.066124    0.041545
      3          6           0        5.119916    0.865586   -0.854420
      4          6           0        3.728405    0.847786   -0.875584
      5          6           0        3.010654    0.009870   -0.001930
      6          6           0        1.535740   -0.016628   -0.016138
      7          6           0        0.799073    1.182278    0.026748
      8          6           0        1.234828    2.532454    0.154878
      9          6           0        0.108518    3.327860    0.149584
     10          6           0       -1.018202    2.469154    0.031675
     11          6           0       -2.413564    2.814042   -0.032051
     12          6           0       -2.907066    4.065543    0.131523
     13          6           0       -4.342668    4.332362    0.032548
     14          8           0       -5.200711    3.480938   -0.205387
     15          7           0       -0.583784    1.176595   -0.039048
     16          5           0       -1.483232   -0.094787    0.043091
     17          9           0       -2.378460   -0.113755   -1.025804
     18          9           0       -2.187767   -0.070780    1.252927
     19          7           0       -0.538206   -1.332457   -0.019674
     20          6           0       -0.882176   -2.650482   -0.179358
     21          6           0       -2.191348   -3.249183   -0.145975
     22          6           0       -3.376208   -2.742925    0.275751
     23          6           0       -4.588191   -3.562581    0.236692
     24          8           0       -4.651864   -4.713887   -0.198763
     25          6           0        0.297859   -3.413794   -0.367438
     26          6           0        1.373353   -2.550985   -0.301455
     27          6           0        0.848268   -1.250353   -0.084241
     28          6           0        3.734742   -0.800238    0.894178
     29          6           0        5.124725   -0.760642    0.918090
     30          1           0        7.743924   -0.028411    1.065047
     31          1           0        7.746401   -0.765251   -0.536197
     32          1           0        7.747617    0.994752   -0.387355
     33          1           0        5.653737    1.509054   -1.548117
     34          1           0        3.193973    1.460581   -1.593535
     35          1           0        2.261313    2.854519    0.243658
     36          1           0        0.066963    4.405625    0.214723
     37          1           0       -3.114983    2.011956   -0.239133
     38          1           0       -2.264221    4.914561    0.343828
     39          1           0       -4.637555    5.385726    0.188904
     40          1           0       -2.192854   -4.284683   -0.480718
     41          1           0       -3.472514   -1.745012    0.682724
     42          1           0       -5.495696   -3.074622    0.636748
     43          1           0        0.315026   -4.483386   -0.523778
     44          1           0        2.418939   -2.793720   -0.414906
     45          1           0        3.201966   -1.431991    1.596858
     46          1           0        5.661891   -1.377581    1.633149
 ---------------------------------------------------------------------
                    Distance matrix (angstroms):
                    1          2          3          4          5
     1  C    0.000000
     2  C    1.506336   0.000000
     3  C    2.533742   1.402514   0.000000
     4  C    3.817830   2.435233   1.391786   0.000000
     5  C    4.341009   2.834828   2.430633   1.407317   0.000000
     6  C    5.816222   4.310031   3.785147   2.508713   1.475220
     7  C    6.644874   5.167520   4.421135   3.083354   2.503289
     8  C    6.592408   5.229296   4.346382   3.180862   3.088944
     9  C    7.940253   6.599478   5.673176   4.506142   4.410715
    10  C    8.705013   7.271352   6.405707   5.097277   4.720264
    11  C   10.141856   8.703653   7.824710   6.503960   6.106261
    12  C   11.007378   9.622626   8.697370   7.442963   7.175354
    13  C   12.444700  11.044505  10.116607   8.837941   8.529740
    14  O   13.008172  11.563763  10.666614   9.333368   8.917187
    15  N    8.011355   6.524081   5.770074   4.404870   3.779234
    16  B    8.835736   7.329589   6.732712   5.375274   4.495330
    17  F    9.790357   8.293982   7.564002   6.183925   5.486907
    18  F    9.615400   8.124343   7.662893   6.354165   5.348341
    19  N    8.013828   6.534513   6.127197   4.867239   3.794280
    20  C    8.675248   7.257970   6.988816   5.829242   4.718377
    21  C   10.106325   8.694983   8.419489   7.236087   6.140277
    22  C   11.093177   9.642029   9.299611   8.043277   6.960387
    23  C   12.482129  11.047556  10.725975   9.479149   8.400107
    24  O   12.924943  11.536109  11.271561  10.080635   9.003711
    25  C    7.879436   6.560741   6.465484   5.494354   4.383415
    26  C    6.538037   5.192193   5.100535   4.174630   3.054251
    27  C    6.637508   5.168382   4.828804   3.650151   2.504167
    28  C    3.815143   2.434959   2.784111   2.418281   1.408399
    29  C    2.531386   1.403595   2.405500   2.784603   2.430930
    30  H    1.094083   2.159621   3.371795   4.545125   4.852190
    31  H    1.097242   2.154497   3.107944   4.342967   4.828411
    32  H    1.093250   2.160513   2.672012   4.051423   4.853593
    33  H    2.736821   2.155342   1.086385   2.143940   3.409419
    34  H    4.679765   3.412297   2.146990   1.084707   2.161336
    35  H    5.802688   4.544873   3.651471   2.726177   2.951924
    36  H    8.476043   7.227879   6.261571   5.220455   5.294801
    37  H   10.647630   9.172731   8.337044   6.970819   6.448879
    38  H   10.768715   9.452594   8.506202   7.344194   7.211092
    39  H   13.113103  11.755647  10.804093   9.576812   9.350473
    40  H   10.505448   9.154386   8.952180   7.845984   6.763795
    41  H   10.993508   9.513136   9.110866   7.810516   6.751284
    42  H   13.239922  11.782217  11.421035  10.136887   9.070832
    43  H    8.402622   7.182876   7.197763   6.340057   5.265746
    44  H    5.724070   4.485771   4.569351   3.897113   2.894960
    45  H    4.677364   3.412742   3.868612   3.404040   2.161408
    46  H    2.733058   2.156587   3.393160   3.870965   3.409921
                    6          7          8          9         10
     6  C    0.000000
     7  C    1.407797   0.000000
     8  C    2.572472   1.424526   0.000000
     9  C    3.640059   2.257316   1.378867   0.000000
    10  C    3.564270   2.226783   2.257284   1.421540   0.000000
    11  C    4.859007   3.603769   3.664014   2.580290   1.438765
    12  C    6.035267   4.696771   4.416582   3.104553   2.475123
    13  C    7.312439   6.029972   5.862004   4.564622   3.810987
    14  O    7.592665   6.429240   6.515027   5.323284   4.309674
    15  N    2.432424   1.384433   2.276689   2.267775   1.365441
    16  B    3.020564   2.615354   3.781897   3.776178   2.605797
    17  F    4.043491   3.589468   4.631661   4.405827   3.104832
    18  F    3.934204   3.463363   4.438096   4.247475   3.051328
    19  N    2.456150   2.848572   4.255779   4.708020   3.832138
    20  C    3.579126   4.190361   5.608587   6.068793   5.125789
    21  C    4.935327   5.348859   6.727297   6.973825   5.840138
    22  C    5.625400   5.736043   7.007559   7.000976   5.725865
    23  C    7.080977   7.181948   8.429929   8.339355   7.012038
    24  O    7.770717   8.032953   9.342787   9.351592   8.053116
    25  C    3.632698   4.640094   6.042234   6.764101   6.041555
    26  C    2.555531   3.791407   5.105760   6.030262   5.570665
    27  C    1.413978   2.435658   3.810018   4.643483   4.163157
    28  C    2.505660   3.647048   4.231190   5.544828   5.832951
    29  C    3.782480   4.825007   5.153472   6.516808   6.996632
    30  H    6.301639   7.125643   7.053706   8.390593   9.169544
    31  H    6.277197   7.237067   7.331646   8.692589   9.359600
    32  H    6.304610   6.963398   6.713789   8.005469   8.898822
    33  H    4.651082   5.114171   4.845028   6.077804   6.923316
    34  H    2.723980   2.904878   2.836214   4.005649   4.626116
    35  H    2.972782   2.231947   1.079481   2.206225   3.308876
    36  H    4.665504   3.310783   2.208225   1.080531   2.227332
    37  H    5.078790   4.009849   4.398525   3.503379   2.163067
    38  H    6.235856   4.838827   4.237155   2.860986   2.762249
    39  H    8.205915   6.874023   6.528951   5.173158   4.650896
    40  H    5.686347   6.252744   7.656784   7.977744   6.874349
    41  H    5.343999   5.219750   6.382351   6.232340   4.920031
    42  H    7.695367   7.623478   8.773338   8.522694   7.151749
    43  H    4.658301   5.712891   7.108349   7.842935   7.100974
    44  H    2.941309   4.315969   5.485882   6.567377   6.301684
    45  H    2.716858   3.882466   4.654650   5.858345   5.956387
    46  H    4.647307   5.725417   6.088723   7.428465   7.873102
                   11         12         13         14         15
    11  C    0.000000
    12  C    1.355196   0.000000
    13  C    2.455791   1.463537   0.000000
    14  O    2.871060   2.390832   1.231980   0.000000
    15  N    2.455479   3.711166   4.908482   5.162720   0.000000
    16  B    3.054906   4.398121   5.270307   5.164030   1.559540
    17  F    3.092050   4.368680   4.974553   4.643275   2.420651
    18  F    3.166126   4.345585   5.051790   4.880493   2.407884
    19  N    4.550887   5.896843   6.823989   6.703895   2.509541
    20  C    5.676960   7.021525   7.796154   7.499649   3.841255
    21  C    6.068365   7.354895   7.882885   7.372539   4.709905
    22  C    5.648124   6.826136   7.145130   6.503597   4.822797
    23  C    6.742592   7.811883   7.901397   7.083910   6.210563
    24  O    7.855412   8.957221   9.054487   8.213187   7.160486
    25  C    6.800753   8.152361   9.038662   8.820310   4.685809
    26  C    6.572430   7.892268   8.953486   8.922536   4.218305
    27  C    5.211677   6.512130   7.624052   7.680491   2.818314
    28  C    7.191842   8.268681   9.608878   9.968943   4.840294
    29  C    8.396841   9.403213  10.786770  11.219083   6.103775
    30  H   10.604609  11.448822  12.890621  13.471938   8.486565
    31  H   10.783802  11.716603  13.132202  13.629647   8.567958
    32  H   10.328875  11.100507  12.549540  13.186108   8.340661
    33  H    8.311606   9.090884  10.507030  11.113518   6.426079
    34  H    5.976166   6.854512   8.227529   8.745257   4.094939
    35  H    4.683175   5.309548   6.770609   7.501723   3.315106
    36  H    2.957541   2.994566   4.414001   5.364693   3.303711
    37  H    1.085455   2.097102   2.639186   2.551335   2.672982
    38  H    2.139105   1.085889   2.180778   3.313591   4.116170
    39  H    3.407127   2.177330   1.104980   2.025050   5.848231
    40  H    7.116313   8.403048   8.895988   8.332339   5.710494
    41  H    4.734686   5.863967   6.173684   5.575478   4.171511
    42  H    6.680059   7.611716   7.520502   6.616009   6.531189
    43  H    7.806373   9.159448   9.986041   9.693048   5.751366
    44  H    7.412601   8.701402   9.833646   9.872907   4.992095
    45  H    7.226086   8.348075   9.622699   9.898987   4.879837
    46  H    9.249625  10.262042  11.629986  12.040828   6.951871
                   16         17         18         19         20
    16  B    0.000000
    17  F    1.394392   0.000000
    18  F    1.400232   2.287100   0.000000
    19  N    1.558474   2.425710   2.435651   0.000000
    20  C    2.634830   3.064363   3.226588   1.371497   0.000000
    21  C    3.238424   3.261904   3.472634   2.534299   1.439961
    22  C    3.263453   3.098723   3.083444   3.182916   2.536901
    23  C    4.658739   4.286165   4.357458   4.630503   3.839215
    24  O    5.606675   5.197459   5.453221   5.328069   4.297507
    25  C    3.789014   4.299580   4.469862   2.269782   1.417922
    26  C    3.783081   4.532204   4.609674   2.284353   2.261022
    27  C    2.605271   3.548263   3.520926   1.390403   2.227969
    28  C    5.333785   6.444286   5.978037   4.401871   5.088400
    29  C    6.698812   7.777851   7.352589   5.768463   6.392085
    30  H    9.283814  10.336421   9.933558   8.454042   9.101286
    31  H    9.272067  10.157607  10.117853   8.320050   8.839331
    32  H    9.304889  10.206559  10.126092   8.614288   9.370396
    33  H    7.486025   8.211121   8.475312   6.982154   7.867236
    34  H    5.193646   5.818321   6.277781   4.920087   5.959507
    35  H    4.770770   5.652405   5.419438   5.043552   6.353385
    36  H    4.763011   5.286189   5.118582   5.774665   7.130555
    37  H    2.679669   2.383268   2.724658   4.227652   5.169848
    38  H    5.078775   5.212764   5.068129   6.491263   7.708025
    39  H    6.325112   6.068222   6.075118   7.872874   8.878014
    40  H    4.281725   4.210488   4.556592   3.415561   2.116437
    41  H    2.662633   2.603271   2.186037   3.045280   2.876267
    42  H    5.033062   4.609552   4.510558   5.295539   4.704306
    43  H    4.776492   5.157574   5.375104   3.303101   2.216180
    44  H    4.766649   5.529055   5.605159   3.322078   3.312606
    45  H    5.114038   6.305336   5.569597   4.075778   4.617346
    46  H    7.431462   8.562391   7.966770   6.416780   6.908710
                   21         22         23         24         25
    21  C    0.000000
    22  C    1.355745   0.000000
    23  C    2.447347   1.463648   0.000000
    24  O    2.863963   2.395235   1.232551   0.000000
    25  C    2.504455   3.789792   4.925505   5.120396   0.000000
    26  C    3.635760   4.788354   6.070662   6.402494   1.380391
    27  C    3.638461   4.494837   5.916459   6.500818   2.250251
    28  C    6.495983   7.397438   8.793978   9.319138   4.498279
    29  C    7.800641   8.752594  10.131925  10.604584   5.656009
    30  H   10.514256  11.473836  12.855255  13.311892   8.304018
    31  H   10.250905  11.326203  12.671408  13.016242   7.907214
    32  H   10.809823  11.753698  13.165519  13.651786   8.656476
    33  H    9.281820  10.146217  11.567373  12.114089   7.369794
    34  H    7.299246   8.020659   9.441608  10.081002   5.800890
    35  H    7.565262   7.944435   9.385890  10.260045   6.596995
    36  H    7.989127   7.934792   9.228394  10.276371   7.844459
    37  H    5.342412   4.789806   5.785518   6.899319   6.411140
    38  H    8.178749   7.738103   8.790577   9.934901   8.742520
    39  H    8.980965   8.226391   8.948571  10.107061  10.104424
    40  H    1.088263   2.085567   2.602642   2.512060   2.641010
    41  H    2.142582   1.082004   2.178815   3.313926   4.254807
    42  H    3.400271   2.175447   1.105312   2.024184   5.889712
    43  H    2.819203   4.158565   5.046557   4.982847   1.081094
    44  H    4.640530   5.836379   7.079237   7.330076   2.210368
    45  H    5.952100   6.836391   8.189995   8.699295   4.027386
    46  H    8.266894   9.240883  10.573008  10.993652   6.076294
                   26         27         28         29         30
    26  C    0.000000
    27  C    1.419345   0.000000
    28  C    3.173454   3.080850   0.000000
    29  C    4.331906   4.419567   1.390752   0.000000
    30  H    6.986765   7.096765   4.086374   2.723594   0.000000
    31  H    6.622665   6.929923   4.259179   2.998026   1.762646
    32  H    7.294578   7.261776   4.579026   3.415429   1.776611
    33  H    6.029906   5.731474   3.870423   3.393162   3.682568
    34  H    4.590946   3.889661   3.404769   3.869095   5.476058
    35  H    5.505006   4.353641   3.993923   4.660834   6.248599
    36  H    7.097008   5.717509   6.404317   7.264021   8.906147
    37  H    6.400740   5.135563   7.490765   8.770362  11.125639
    38  H    8.329629   6.919320   8.303576   9.334572  11.185531
    39  H    9.968092   8.614314  10.433548  11.559051  13.541844
    40  H    3.969342   4.314253   7.011996   8.241510  10.919927
    41  H    5.010053   4.416116   7.271991   8.656610  11.353474
    42  H    6.952572   6.640306   9.509999  10.873224  13.592291
    43  H    2.214420   3.306061   5.222129   6.250681   8.806798
    44  H    1.079371   2.226730   2.723786   3.637521   6.180021
    45  H    2.863488   2.898099   1.084768   2.146727   4.783539
    46  H    4.848827   5.112395   2.143200   1.086495   2.545164
                   31         32         33         34         35
    31  H    0.000000
    32  H    1.766286   0.000000
    33  H    3.252028   2.448716   0.000000
    34  H    5.176571   4.733660   2.460661   0.000000
    35  H    6.617938   5.827216   4.065621   2.487608   0.000000
    36  H    9.288466   8.425497   6.535271   4.660609   2.687367
    37  H   11.214758  10.911130   8.880135   6.476214   5.463292
    38  H   11.543278  10.776661   8.824454   6.743533   4.973356
    39  H   13.846395  13.153145  11.133576   8.939613   7.348768
    40  H   10.544111  11.255848   9.812019   7.953887   8.445859
    41  H   11.327390  11.599255   9.942538   7.739459   7.363779
    42  H   13.493040  13.892226  12.251268  10.052491   9.771408
    43  H    8.309634   9.234285   8.090763   6.690550   7.630324
    44  H    5.701864   6.538202   5.501086   4.482067   5.688687
    45  H    5.064223   5.521696   4.954977   4.306465   4.592401
    46  H    3.070210   3.749754   4.295717   4.955529   5.604042
                   36         37         38         39         40
    36  H    0.000000
    37  H    4.007545   0.000000
    38  H    2.389582   3.080382   0.000000
    39  H    4.805596   3.726092   2.424606   0.000000
    40  H    9.006213   6.368387   9.236399   9.997088   0.000000
    41  H    7.111769   3.884901   6.776779   7.242141   3.072630
    42  H    9.331419   5.684034   8.622951   8.515542   3.690765
    43  H    8.923084   7.350881   9.784000  11.065051   2.516108
    44  H    7.599921   7.331419   9.051257  10.819521   4.847261
    45  H    6.768774   7.425327   8.469239  10.484354   6.446569
    46  H    8.170717   9.593118  10.201796  12.405916   8.638096
                   41         42         43         44         45
    41  H    0.000000
    42  H    2.421413   0.000000
    43  H    4.826986   6.090643   0.000000
    44  H    6.083897   7.989138   2.700606   0.000000
    45  H    6.744057   8.903335   4.705585   2.552378   0.000000
    46  H    9.191065  11.329806   6.548841   4.088608   2.460794
                   46
    46  H    0.000000
 Stoichiometry    C22H17BF2N2O2
 Framework group  C1[X(C22H17BF2N2O2)]
 Deg. of freedom   132
 Full point group                 C1      NOp   1
 Largest Abelian subgroup         C1      NOp   1
 Largest concise Abelian subgroup C1      NOp   1
                         Standard orientation:                         
 ---------------------------------------------------------------------
 Center     Atomic      Atomic             Coordinates (Angstroms)
 Number     Number       Type             X           Y           Z
 ---------------------------------------------------------------------
      1          6           0        7.350884    0.074298    0.049179
      2          6           0        5.844590    0.066124    0.041545
      3          6           0        5.119916    0.865586   -0.854420
      4          6           0        3.728405    0.847786   -0.875584
      5          6           0        3.010654    0.009870   -0.001930
      6          6           0        1.535740   -0.016628   -0.016138
      7          6           0        0.799073    1.182278    0.026748
      8          6           0        1.234828    2.532454    0.154878
      9          6           0        0.108518    3.327860    0.149584
     10          6           0       -1.018202    2.469154    0.031675
     11          6           0       -2.413564    2.814042   -0.032051
     12          6           0       -2.907066    4.065543    0.131523
     13          6           0       -4.342668    4.332362    0.032548
     14          8           0       -5.200711    3.480938   -0.205387
     15          7           0       -0.583784    1.176595   -0.039048
     16          5           0       -1.483232   -0.094787    0.043091
     17          9           0       -2.378460   -0.113755   -1.025804
     18          9           0       -2.187767   -0.070780    1.252927
     19          7           0       -0.538206   -1.332457   -0.019674
     20          6           0       -0.882176   -2.650482   -0.179358
     21          6           0       -2.191348   -3.249183   -0.145975
     22          6           0       -3.376208   -2.742925    0.275751
     23          6           0       -4.588191   -3.562581    0.236692
     24          8           0       -4.651864   -4.713887   -0.198763
     25          6           0        0.297859   -3.413794   -0.367438
     26          6           0        1.373353   -2.550985   -0.301455
     27          6           0        0.848268   -1.250353   -0.084241
     28          6           0        3.734742   -0.800238    0.894178
     29          6           0        5.124725   -0.760642    0.918090
     30          1           0        7.743924   -0.028410    1.065047
     31          1           0        7.746401   -0.765250   -0.536197
     32          1           0        7.747617    0.994753   -0.387355
     33          1           0        5.653737    1.509054   -1.548117
     34          1           0        3.193973    1.460581   -1.593535
     35          1           0        2.261313    2.854519    0.243658
     36          1           0        0.066963    4.405625    0.214723
     37          1           0       -3.114983    2.011956   -0.239133
     38          1           0       -2.264221    4.914561    0.343828
     39          1           0       -4.637555    5.385726    0.188904
     40          1           0       -2.192854   -4.284683   -0.480718
     41          1           0       -3.472514   -1.745012    0.682724
     42          1           0       -5.495696   -3.074623    0.636748
     43          1           0        0.315026   -4.483386   -0.523778
     44          1           0        2.418939   -2.793720   -0.414906
     45          1           0        3.201966   -1.431991    1.596858
     46          1           0        5.661891   -1.377581    1.633149
 ---------------------------------------------------------------------
 Rotational constants (GHZ):           0.2107547           0.1107755           0.0749452
 Leave Link  202 at Thu Nov  6 03:43:34 2025, MaxMem= 30870077440 cpu:               0.3 elap:               0.0
 (Enter /public/software/gauss/g16/l301.exe)
 Standard basis: def2TZVPP (5D, 7F)
 Ernie: Thresh=  0.10000D-02 Tol=  0.10000D-05 Strict=F.
 There are  1299 symmetry adapted cartesian basis functions of A   symmetry.
 There are  1137 symmetry adapted basis functions of A   symmetry.
  1137 basis functions,  1768 primitive gaussians,  1299 cartesian basis functions
   101 alpha electrons      101 beta electrons
       nuclear repulsion energy      2573.5201073008 Hartrees.
 IExCor= 4336 DFT=T Ex+Corr=M062X ExCW=0 ScaHFX=  0.540000
 ScaDFX=  1.000000  1.000000  1.000000  1.000000 ScalE2=  1.000000  1.000000
 IRadAn=      5 IRanWt=     -1 IRanGd=            0 ICorTp=0 IEmpDi=131
 NAtoms=   46 NActive=   46 NUniq=   46 SFac= 1.00D+00 NAtFMM=   60 NAOKFM=F Big=F
 Integral buffers will be    131072 words long.
 Raffenetti 2 integral format.
 Two-electron integral symmetry is turned on.
 R6Disp:  Grimme-D3 Dispersion energy=       -0.0032502627 Hartrees.
 Nuclear repulsion after empirical dispersion term =     2573.5168570381 Hartrees.
 ------------------------------------------------------------------------------
 Polarizable Continuum Model (PCM)
 =================================
 Model                : PCM.
 Atomic radii         : UFF (Universal Force Field).
 Polarization charges : Total charges.
 Charge compensation  : None.
 Solution method      : On-the-fly selection.
 Cavity type          : Scaled VdW (van der Waals Surface) (Alpha=1.100).
 Cavity algorithm     : GePol (No added spheres)
                        Default sphere list used, NSphG=   46.
                        Lebedev-Laikov grids with approx.  5.0 points / Ang**2.
                        Smoothing algorithm: York/Karplus (Gamma=1.0000).
                        Polarization charges: spherical gaussians, with
                                              point-specific exponents (IZeta= 3).
                        Self-potential: point-specific (ISelfS= 7).
                        Self-field    : sphere-specific E.n sum rule (ISelfD= 2).
 Solvent              : Water, Eps=  78.355300 Eps(inf)=   1.777849
 ------------------------------------------------------------------------------
 GePol: Number of generator spheres                  =      46
 GePol: Total number of spheres                      =      46
 GePol: Number of exposed spheres                    =      46 (100.00%)
 GePol: Number of points                             =    3557
 GePol: Average weight of points                     =       0.13
 GePol: Minimum weight of points                     =   0.22D-11
 GePol: Maximum weight of points                     =    0.20577
 GePol: Number of points with low weight             =     216
 GePol: Fraction of low-weight points (<1% of avg)   =       6.07%
 GePol: Cavity surface area                          =    453.809 Ang**2
 GePol: Cavity volume                                =    509.900 Ang**3
 Leave Link  301 at Thu Nov  6 03:43:34 2025, MaxMem= 30870077440 cpu:               3.7 elap:               0.1
 (Enter /public/software/gauss/g16/l302.exe)
 NPDir=0 NMtPBC=     1 NCelOv=     1 NCel=       1 NClECP=     1 NCelD=      1
         NCelK=      1 NCelE2=     1 NClLst=     1 CellRange=     0.0.
 One-electron integrals computed using PRISM.
 One-electron integral symmetry used in STVInt
   1 Symmetry operations used in ECPInt.
 ECPInt:  NShTT=   88831 NPrTT=  257375 LenC2=   68594 LenP2D=  139239.
 LDataN:  DoStor=T MaxTD1= 6 Len=  172
 NBasis=  1137 RedAO= T EigKep=  6.53D-06  NBF=  1137
 NBsUse=  1137 1.00D-06 EigRej= -1.00D+00 NBFU=  1137
 Precomputing XC quadrature grid using
 IXCGrd= 4 IRadAn=           5 IRanWt=          -1 IRanGd=           0 AccXCQ= 0.00D+00.
 Generated NRdTot=       0 NPtTot=           0 NUsed=           0 NTot=          32
 NSgBfM=  1222  1222  1222  1222  1222 MxSgAt=    46 MxSgA2=    46.
 Leave Link  302 at Thu Nov  6 03:43:37 2025, MaxMem= 30870077440 cpu:             191.6 elap:               3.0
 (Enter /public/software/gauss/g16/l303.exe)
 DipDrv:  MaxL=1.
 Leave Link  303 at Thu Nov  6 03:43:37 2025, MaxMem= 30870077440 cpu:              13.2 elap:               0.2
 (Enter /public/software/gauss/g16/l401.exe)
 ExpMin= 6.06D-02 ExpMax= 3.55D+04 ExpMxC= 1.21D+03 IAcc=3 IRadAn=         5 AccDes= 0.00D+00
 Harris functional with IExCor= 1009 and IRadAn=       5 diagonalized for initial guess.
 HarFok:  IExCor= 1009 AccDes= 0.00D+00 IRadAn=         5 IDoV= 1 UseB2=F ITyADJ=14
 ICtDFT=  3500011 ScaDFX=  1.000000  1.000000  1.000000  1.000000
 FoFCou: FMM=F IPFlag=           0 FMFlag=      100000 FMFlg1=           0
         NFxFlg=           0 DoJE=T BraDBF=F KetDBF=T FulRan=T
         wScrn=  0.000000 ICntrl=       500 IOpCl=  0 I1Cent=   200000004 NGrid=           0
         NMat0=    1 NMatS0=      1 NMatT0=    0 NMatD0=    1 NMtDS0=    0 NMtDT0=    0
 Petite list used in FoFCou.
 Harris En= -1332.48633482869    
 JPrj=0 DoOrth=F DoCkMO=F.
 Leave Link  401 at Thu Nov  6 03:43:42 2025, MaxMem= 30870077440 cpu:             284.8 elap:               4.5
 (Enter /public/software/gauss/g16/l502.exe)
 Integral symmetry usage will be decided dynamically.
 Closed shell SCF:
 Using DIIS extrapolation, IDIIS=  1040.
 NGot= 30870077440 LenX= 30866608552 LenY= 30864919852
 Requested convergence on RMS density matrix=1.00D-08 within 128 cycles.
 Requested convergence on MAX density matrix=1.00D-06.
 Requested convergence on             energy=1.00D-06.
 No special actions if energy rises.
 Fock matrices will be formed incrementally for  20 cycles.

 Cycle   1  Pass 1  IDiag  1:
 FoFJK:  IHMeth= 1 ICntrl=       0 DoSepK=F KAlg= 0 I1Cent=           0 FoldK=F
 IRaf= 690000000 NMat=       1 IRICut=       1 DoRegI=T DoRafI=F ISym2E= 0 IDoP0=0 IntGTp=1.
 FoFCou: FMM=F IPFlag=           0 FMFlag=      100000 FMFlg1=           0
         NFxFlg=           0 DoJE=F BraDBF=F KetDBF=F FulRan=T
         wScrn=  0.000000 ICntrl=         0 IOpCl=  0 I1Cent=           0 NGrid=           0
         NMat0=    1 NMatS0=      1 NMatT0=    0 NMatD0=    1 NMtDS0=    0 NMtDT0=    0
 Symmetry not used in FoFCou.
 Inv3:  Mode=1 IEnd=    37956747.
 Iteration    1 A*A^-1 deviation from unit magnitude is 1.09D-14 for    503.
 Iteration    1 A*A^-1 deviation from orthogonality  is 3.49D-15 for   3553   1222.
 Iteration    1 A^-1*A deviation from unit magnitude is 1.07D-14 for    503.
 Iteration    1 A^-1*A deviation from orthogonality  is 3.39D-15 for   2621   1507.
 E= -1332.62736418324    
 DIIS: error= 1.64D-02 at cycle   1 NSaved=   1.
 NSaved= 1 IEnMin= 1 EnMin= -1332.62736418324     IErMin= 1 ErrMin= 1.64D-02
 ErrMax= 1.64D-02  0.00D+00 EMaxC= 1.00D-01 BMatC= 8.09D-01 BMatP= 8.09D-01
 IDIUse=3 WtCom= 8.36D-01 WtEn= 1.64D-01
 Coeff-Com:  0.100D+01
 Coeff-En:   0.100D+01
 Coeff:      0.100D+01
 Gap=     0.136 Goal=   None    Shift=    0.000
 GapD=    0.136 DampG=1.000 DampE=0.500 DampFc=0.5000 IDamp=-1.
 Damping current iteration by 5.00D-01
 RMSDP=2.47D-03 MaxDP=5.91D-01              OVMax= 1.90D-01

 Cycle   2  Pass 1  IDiag  1:
 RMSU=  1.24D-03    CP:  1.01D+00
 E= -1332.91980152901     Delta-E=       -0.292437345774 Rises=F Damp=T
 DIIS: error= 4.50D-03 at cycle   2 NSaved=   2.
 NSaved= 2 IEnMin= 2 EnMin= -1332.91980152901     IErMin= 2 ErrMin= 4.50D-03
 ErrMax= 4.50D-03  0.00D+00 EMaxC= 1.00D-01 BMatC= 8.44D-02 BMatP= 8.09D-01
 IDIUse=3 WtCom= 9.55D-01 WtEn= 4.50D-02
 Coeff-Com: -0.996D-01 0.110D+01
 Coeff-En:   0.000D+00 0.100D+01
 Coeff:     -0.952D-01 0.110D+01
 Gap=     0.152 Goal=   None    Shift=    0.000
 RMSDP=9.05D-04 MaxDP=1.67D-01 DE=-2.92D-01 OVMax= 1.44D-01

 Cycle   3  Pass 1  IDiag  1:
 RMSU=  8.26D-04    CP:  9.80D-01  7.21D-01
 E= -1333.18190042755     Delta-E=       -0.262098898536 Rises=F Damp=F
 DIIS: error= 3.27D-03 at cycle   3 NSaved=   3.
 NSaved= 3 IEnMin= 3 EnMin= -1333.18190042755     IErMin= 3 ErrMin= 3.27D-03
 ErrMax= 3.27D-03  0.00D+00 EMaxC= 1.00D-01 BMatC= 4.85D-02 BMatP= 8.44D-02
 IDIUse=3 WtCom= 9.67D-01 WtEn= 3.27D-02
 Coeff-Com: -0.134D+00 0.513D+00 0.621D+00
 Coeff-En:   0.000D+00 0.000D+00 0.100D+01
 Coeff:     -0.130D+00 0.496D+00 0.634D+00
 Gap=     0.142 Goal=   None    Shift=    0.000
 RMSDP=3.11D-04 MaxDP=5.99D-02 DE=-2.62D-01 OVMax= 5.45D-02

 Cycle   4  Pass 1  IDiag  1:
 RMSU=  2.31D-04    CP:  9.89D-01  8.80D-01  9.31D-01
 E= -1333.21595427153     Delta-E=       -0.034053843980 Rises=F Damp=F
 DIIS: error= 1.07D-03 at cycle   4 NSaved=   4.
 NSaved= 4 IEnMin= 4 EnMin= -1333.21595427153     IErMin= 4 ErrMin= 1.07D-03
 ErrMax= 1.07D-03  0.00D+00 EMaxC= 1.00D-01 BMatC= 6.14D-03 BMatP= 4.85D-02
 IDIUse=3 WtCom= 9.89D-01 WtEn= 1.07D-02
 Coeff-Com: -0.454D-01 0.111D+00 0.313D+00 0.621D+00
 Coeff-En:   0.000D+00 0.000D+00 0.724D-01 0.928D+00
 Coeff:     -0.449D-01 0.110D+00 0.311D+00 0.624D+00
 Gap=     0.144 Goal=   None    Shift=    0.000
 RMSDP=1.03D-04 MaxDP=2.11D-02 DE=-3.41D-02 OVMax= 1.49D-02

 Cycle   5  Pass 1  IDiag  1:
 RMSU=  5.25D-05    CP:  9.85D-01  8.33D-01  9.50D-01  7.27D-01
 E= -1333.22094414193     Delta-E=       -0.004989870398 Rises=F Damp=F
 DIIS: error= 2.33D-04 at cycle   5 NSaved=   5.
 NSaved= 5 IEnMin= 5 EnMin= -1333.22094414193     IErMin= 5 ErrMin= 2.33D-04
 ErrMax= 2.33D-04  0.00D+00 EMaxC= 1.00D-01 BMatC= 2.09D-04 BMatP= 6.14D-03
 IDIUse=3 WtCom= 9.98D-01 WtEn= 2.33D-03
 Coeff-Com: -0.133D-01 0.253D-01 0.109D+00 0.266D+00 0.613D+00
 Coeff-En:   0.000D+00 0.000D+00 0.000D+00 0.000D+00 0.100D+01
 Coeff:     -0.133D-01 0.252D-01 0.109D+00 0.265D+00 0.614D+00
 Gap=     0.144 Goal=   None    Shift=    0.000
 RMSDP=1.81D-05 MaxDP=1.67D-03 DE=-4.99D-03 OVMax= 3.98D-03

 Cycle   6  Pass 1  IDiag  1:
 RMSU=  1.77D-05    CP:  9.85D-01  8.32D-01  9.53D-01  7.31D-01  1.02D+00
 E= -1333.22112656651     Delta-E=       -0.000182424581 Rises=F Damp=F
 DIIS: error= 8.53D-05 at cycle   6 NSaved=   6.
 NSaved= 6 IEnMin= 6 EnMin= -1333.22112656651     IErMin= 6 ErrMin= 8.53D-05
 ErrMax= 8.53D-05  0.00D+00 EMaxC= 1.00D-01 BMatC= 2.12D-05 BMatP= 2.09D-04
 IDIUse=1 WtCom= 1.00D+00 WtEn= 0.00D+00
 Coeff-Com: -0.442D-03-0.118D-02 0.111D-01 0.338D-01 0.244D+00 0.713D+00
 Coeff:     -0.442D-03-0.118D-02 0.111D-01 0.338D-01 0.244D+00 0.713D+00
 Gap=     0.145 Goal=   None    Shift=    0.000
 RMSDP=9.83D-06 MaxDP=1.82D-03 DE=-1.82D-04 OVMax= 3.04D-03

 Cycle   7  Pass 1  IDiag  1:
 RMSU=  7.17D-06    CP:  9.85D-01  8.28D-01  9.54D-01  7.26D-01  1.11D+00
                    CP:  1.09D+00
 E= -1333.22115488655     Delta-E=       -0.000028320040 Rises=F Damp=F
 DIIS: error= 4.10D-05 at cycle   7 NSaved=   7.
 NSaved= 7 IEnMin= 7 EnMin= -1333.22115488655     IErMin= 7 ErrMin= 4.10D-05
 ErrMax= 4.10D-05  0.00D+00 EMaxC= 1.00D-01 BMatC= 4.16D-06 BMatP= 2.12D-05
 IDIUse=1 WtCom= 1.00D+00 WtEn= 0.00D+00
 Coeff-Com:  0.211D-02-0.494D-02-0.130D-01-0.320D-01 0.611D-02 0.313D+00
 Coeff-Com:  0.729D+00
 Coeff:      0.211D-02-0.494D-02-0.130D-01-0.320D-01 0.611D-02 0.313D+00
 Coeff:      0.729D+00
 Gap=     0.145 Goal=   None    Shift=    0.000
 RMSDP=7.45D-06 MaxDP=1.64D-03 DE=-2.83D-05 OVMax= 1.74D-03

 Cycle   8  Pass 1  IDiag  1:
 RMSU=  4.13D-06    CP:  9.85D-01  8.26D-01  9.56D-01  7.27D-01  1.17D+00
                    CP:  1.30D+00  1.24D+00
 E= -1333.22116131547     Delta-E=       -0.000006428917 Rises=F Damp=F
 DIIS: error= 2.59D-05 at cycle   8 NSaved=   8.
 NSaved= 8 IEnMin= 8 EnMin= -1333.22116131547     IErMin= 8 ErrMin= 2.59D-05
 ErrMax= 2.59D-05  0.00D+00 EMaxC= 1.00D-01 BMatC= 7.18D-07 BMatP= 4.16D-06
 IDIUse=1 WtCom= 1.00D+00 WtEn= 0.00D+00
 Coeff-Com:  0.110D-02-0.220D-02-0.766D-02-0.219D-01-0.407D-01 0.216D-01
 Coeff-Com:  0.323D+00 0.727D+00
 Coeff:      0.110D-02-0.220D-02-0.766D-02-0.219D-01-0.407D-01 0.216D-01
 Coeff:      0.323D+00 0.727D+00
 Gap=     0.145 Goal=   None    Shift=    0.000
 RMSDP=2.55D-06 MaxDP=5.77D-04 DE=-6.43D-06 OVMax= 7.50D-04

 Cycle   9  Pass 1  IDiag  1:
 RMSU=  1.12D-06    CP:  9.85D-01  8.25D-01  9.56D-01  7.25D-01  1.19D+00
                    CP:  1.35D+00  1.38D+00  1.01D+00
 E= -1333.22116262524     Delta-E=       -0.000001309772 Rises=F Damp=F
 DIIS: error= 6.60D-06 at cycle   9 NSaved=   9.
 NSaved= 9 IEnMin= 9 EnMin= -1333.22116262524     IErMin= 9 ErrMin= 6.60D-06
 ErrMax= 6.60D-06  0.00D+00 EMaxC= 1.00D-01 BMatC= 1.06D-07 BMatP= 7.18D-07
 IDIUse=1 WtCom= 1.00D+00 WtEn= 0.00D+00
 Coeff-Com:  0.115D-03-0.130D-03-0.764D-03-0.389D-02-0.155D-01-0.295D-01
 Coeff-Com:  0.264D-02 0.280D+00 0.767D+00
 Coeff:      0.115D-03-0.130D-03-0.764D-03-0.389D-02-0.155D-01-0.295D-01
 Coeff:      0.264D-02 0.280D+00 0.767D+00
 Gap=     0.145 Goal=   None    Shift=    0.000
 RMSDP=1.17D-06 MaxDP=2.53D-04 DE=-1.31D-06 OVMax= 3.76D-04

 Cycle  10  Pass 1  IDiag  1:
 RMSU=  4.21D-07    CP:  9.85D-01  8.24D-01  9.57D-01  7.25D-01  1.20D+00
                    CP:  1.38D+00  1.42D+00  1.18D+00  1.11D+00
 E= -1333.22116279842     Delta-E=       -0.000000173180 Rises=F Damp=F
 DIIS: error= 2.41D-06 at cycle  10 NSaved=  10.
 NSaved=10 IEnMin=10 EnMin= -1333.22116279842     IErMin=10 ErrMin= 2.41D-06
 ErrMax= 2.41D-06  0.00D+00 EMaxC= 1.00D-01 BMatC= 2.08D-08 BMatP= 1.06D-07
 IDIUse=1 WtCom= 1.00D+00 WtEn= 0.00D+00
 Coeff-Com: -0.120D-03 0.289D-03 0.902D-03 0.157D-02-0.116D-02-0.173D-01
 Coeff-Com: -0.573D-01 0.177D-01 0.364D+00 0.691D+00
 Coeff:     -0.120D-03 0.289D-03 0.902D-03 0.157D-02-0.116D-02-0.173D-01
 Coeff:     -0.573D-01 0.177D-01 0.364D+00 0.691D+00
 Gap=     0.145 Goal=   None    Shift=    0.000
 RMSDP=4.09D-07 MaxDP=1.04D-04 DE=-1.73D-07 OVMax= 1.11D-04

 Cycle  11  Pass 1  IDiag  1:
 RMSU=  1.60D-07    CP:  9.85D-01  8.24D-01  9.57D-01  7.25D-01  1.20D+00
                    CP:  1.39D+00  1.44D+00  1.21D+00  1.23D+00  1.13D+00
 E= -1333.22116282827     Delta-E=       -0.000000029851 Rises=F Damp=F
 DIIS: error= 7.16D-07 at cycle  11 NSaved=  11.
 NSaved=11 IEnMin=11 EnMin= -1333.22116282827     IErMin=11 ErrMin= 7.16D-07
 ErrMax= 7.16D-07  0.00D+00 EMaxC= 1.00D-01 BMatC= 1.88D-09 BMatP= 2.08D-08
 IDIUse=1 WtCom= 1.00D+00 WtEn= 0.00D+00
 Coeff-Com: -0.625D-04 0.132D-03 0.483D-03 0.117D-02 0.168D-02-0.262D-02
 Coeff-Com: -0.254D-01-0.289D-01 0.450D-01 0.270D+00 0.739D+00
 Coeff:     -0.625D-04 0.132D-03 0.483D-03 0.117D-02 0.168D-02-0.262D-02
 Coeff:     -0.254D-01-0.289D-01 0.450D-01 0.270D+00 0.739D+00
 Gap=     0.145 Goal=   None    Shift=    0.000
 RMSDP=1.42D-07 MaxDP=3.97D-05 DE=-2.99D-08 OVMax= 4.08D-05

 Cycle  12  Pass 1  IDiag  1:
 RMSU=  6.22D-08    CP:  9.85D-01  8.24D-01  9.57D-01  7.25D-01  1.20D+00
                    CP:  1.39D+00  1.44D+00  1.22D+00  1.27D+00  1.21D+00
                    CP:  1.02D+00
 E= -1333.22116283110     Delta-E=       -0.000000002831 Rises=F Damp=F
 DIIS: error= 2.75D-07 at cycle  12 NSaved=  12.
 NSaved=12 IEnMin=12 EnMin= -1333.22116283110     IErMin=12 ErrMin= 2.75D-07
 ErrMax= 2.75D-07  0.00D+00 EMaxC= 1.00D-01 BMatC= 2.90D-10 BMatP= 1.88D-09
 IDIUse=1 WtCom= 1.00D+00 WtEn= 0.00D+00
 Coeff-Com: -0.797D-05 0.134D-04 0.799D-04 0.232D-03 0.714D-03 0.103D-02
 Coeff-Com: -0.357D-02-0.103D-01-0.187D-01 0.220D-01 0.304D+00 0.705D+00
 Coeff:     -0.797D-05 0.134D-04 0.799D-04 0.232D-03 0.714D-03 0.103D-02
 Coeff:     -0.357D-02-0.103D-01-0.187D-01 0.220D-01 0.304D+00 0.705D+00
 Gap=     0.145 Goal=   None    Shift=    0.000
 RMSDP=3.09D-08 MaxDP=3.06D-06 DE=-2.83D-09 OVMax= 1.42D-05

 Cycle  13  Pass 1  IDiag  1:
 RMSU=  2.27D-08    CP:  9.85D-01  8.24D-01  9.57D-01  7.25D-01  1.20D+00
                    CP:  1.39D+00  1.44D+00  1.22D+00  1.27D+00  1.24D+00
                    CP:  1.10D+00  1.13D+00
 E= -1333.22116283152     Delta-E=       -0.000000000415 Rises=F Damp=F
 DIIS: error= 1.08D-07 at cycle  13 NSaved=  13.
 NSaved=13 IEnMin=13 EnMin= -1333.22116283152     IErMin=13 ErrMin= 1.08D-07
 ErrMax= 1.08D-07  0.00D+00 EMaxC= 1.00D-01 BMatC= 5.56D-11 BMatP= 2.90D-10
 IDIUse=1 WtCom= 1.00D+00 WtEn= 0.00D+00
 Coeff-Com:  0.653D-05-0.151D-04-0.373D-04-0.752D-04 0.913D-04 0.956D-03
 Coeff-Com:  0.221D-02-0.531D-03-0.180D-01-0.406D-01 0.255D-01 0.312D+00
 Coeff-Com:  0.719D+00
 Coeff:      0.653D-05-0.151D-04-0.373D-04-0.752D-04 0.913D-04 0.956D-03
 Coeff:      0.221D-02-0.531D-03-0.180D-01-0.406D-01 0.255D-01 0.312D+00
 Coeff:      0.719D+00
 Gap=     0.145 Goal=   None    Shift=    0.000
 RMSDP=2.39D-08 MaxDP=6.85D-06 DE=-4.15D-10 OVMax= 9.24D-06

 Cycle  14  Pass 1  IDiag  1:
 RMSU=  9.57D-09    CP:  9.85D-01  8.24D-01  9.57D-01  7.25D-01  1.20D+00
                    CP:  1.39D+00  1.44D+00  1.23D+00  1.28D+00  1.25D+00
                    CP:  1.14D+00  1.29D+00  1.34D+00
 E= -1333.22116283163     Delta-E=       -0.000000000111 Rises=F Damp=F
 DIIS: error= 6.10D-08 at cycle  14 NSaved=  14.
 NSaved=14 IEnMin=14 EnMin= -1333.22116283163     IErMin=14 ErrMin= 6.10D-08
 ErrMax= 6.10D-08  0.00D+00 EMaxC= 1.00D-01 BMatC= 8.66D-12 BMatP= 5.56D-11
 IDIUse=1 WtCom= 1.00D+00 WtEn= 0.00D+00
 Coeff-Com:  0.361D-05-0.754D-05-0.261D-04-0.690D-04-0.989D-04 0.130D-03
 Coeff-Com:  0.133D-02 0.181D-02-0.199D-02-0.187D-01-0.480D-01-0.363D-01
 Coeff-Com:  0.256D+00 0.846D+00
 Coeff:      0.361D-05-0.754D-05-0.261D-04-0.690D-04-0.989D-04 0.130D-03
 Coeff:      0.133D-02 0.181D-02-0.199D-02-0.187D-01-0.480D-01-0.363D-01
 Coeff:      0.256D+00 0.846D+00
 Gap=     0.145 Goal=   None    Shift=    0.000
 RMSDP=1.15D-08 MaxDP=2.29D-06 DE=-1.11D-10 OVMax= 6.29D-06

 Cycle  15  Pass 1  IDiag  1:
 RMSU=  4.39D-09    CP:  9.85D-01  8.24D-01  9.57D-01  7.25D-01  1.20D+00
                    CP:  1.39D+00  1.44D+00  1.23D+00  1.28D+00  1.25D+00
                    CP:  1.16D+00  1.38D+00  1.61D+00  1.39D+00
 E= -1333.22116283162     Delta-E=        0.000000000005 Rises=F Damp=F
 DIIS: error= 3.03D-08 at cycle  15 NSaved=  15.
 NSaved=15 IEnMin=14 EnMin= -1333.22116283163     IErMin=15 ErrMin= 3.03D-08
 ErrMax= 3.03D-08  0.00D+00 EMaxC= 1.00D-01 BMatC= 1.80D-12 BMatP= 8.66D-12
 IDIUse=1 WtCom= 1.00D+00 WtEn= 0.00D+00
 Coeff-Com: -0.324D-06 0.967D-06 0.608D-07-0.602D-05-0.525D-04-0.172D-03
 Coeff-Com: -0.423D-04 0.739D-03 0.381D-02 0.387D-02-0.194D-01-0.825D-01
 Coeff-Com: -0.704D-01 0.281D+00 0.883D+00
 Coeff:     -0.324D-06 0.967D-06 0.608D-07-0.602D-05-0.525D-04-0.172D-03
 Coeff:     -0.423D-04 0.739D-03 0.381D-02 0.387D-02-0.194D-01-0.825D-01
 Coeff:     -0.704D-01 0.281D+00 0.883D+00
 Gap=     0.145 Goal=   None    Shift=    0.000
 RMSDP=6.48D-09 MaxDP=1.09D-06 DE= 5.46D-12 OVMax= 3.80D-06

 Cycle  16  Pass 1  IDiag  1:
 RMSU=  1.93D-09    CP:  9.85D-01  8.24D-01  9.57D-01  7.25D-01  1.20D+00
                    CP:  1.39D+00  1.44D+00  1.23D+00  1.28D+00  1.25D+00
                    CP:  1.17D+00  1.43D+00  1.76D+00  1.73D+00  1.51D+00
 E= -1333.22116283175     Delta-E=       -0.000000000132 Rises=F Damp=F
 DIIS: error= 1.20D-08 at cycle  16 NSaved=  16.
 NSaved=16 IEnMin=16 EnMin= -1333.22116283175     IErMin=16 ErrMin= 1.20D-08
 ErrMax= 1.20D-08  0.00D+00 EMaxC= 1.00D-01 BMatC= 3.75D-13 BMatP= 1.80D-12
 IDIUse=1 WtCom= 1.00D+00 WtEn= 0.00D+00
 Coeff-Com: -0.809D-06 0.177D-05 0.457D-05 0.116D-04 0.112D-05-0.854D-04
 Coeff-Com: -0.236D-03-0.207D-03 0.137D-02 0.504D-02 0.188D-02-0.221D-01
 Coeff-Com: -0.794D-01-0.107D+00 0.279D+00 0.922D+00
 Coeff:     -0.809D-06 0.177D-05 0.457D-05 0.116D-04 0.112D-05-0.854D-04
 Coeff:     -0.236D-03-0.207D-03 0.137D-02 0.504D-02 0.188D-02-0.221D-01
 Coeff:     -0.794D-01-0.107D+00 0.279D+00 0.922D+00
 Gap=     0.145 Goal=   None    Shift=    0.000
 RMSDP=3.70D-09 MaxDP=6.06D-07 DE=-1.32D-10 OVMax= 2.16D-06

 Error on total polarization charges =  0.01897
 SCF Done:  E(RM062X) =  -1333.22116283     A.U. after   16 cycles
            NFock= 16  Conv=0.37D-08     -V/T= 2.0053
 KE= 1.326242943158D+03 PE=-8.259451203710D+03 EE= 3.026470240682D+03
 Leave Link  502 at Thu Nov  6 03:52:08 2025, MaxMem= 30870077440 cpu:           31946.6 elap:             506.7
 (Enter /public/software/gauss/g16/l601.exe)
 Copying SCF densities to generalized density rwf, IOpCl= 0 IROHF=0.

 **********************************************************************

            Population analysis using the SCF density.

 **********************************************************************

 Orbital symmetries:
       Occupied  (A) (A) (A) (A) (A) (A) (A) (A) (A) (A) (A) (A)
                 (A) (A) (A) (A) (A) (A) (A) (A) (A) (A) (A) (A)
                 (A) (A) (A) (A) (A) (A) (A) (A) (A) (A) (A) (A)
                 (A) (A) (A) (A) (A) (A) (A) (A) (A) (A) (A) (A)
                 (A) (A) (A) (A) (A) (A) (A) (A) (A) (A) (A) (A)
                 (A) (A) (A) (A) (A) (A) (A) (A) (A) (A) (A) (A)
                 (A) (A) (A) (A) (A) (A) (A) (A) (A) (A) (A) (A)
                 (A) (A) (A) (A) (A) (A) (A) (A) (A) (A) (A) (A)
                 (A) (A) (A) (A) (A)
       Virtual   (A) (A) (A) (A) (A) (A) (A) (A) (A) (A) (A) (A)
                 (A) (A) (A) (A) (A) (A) (A) (A) (A) (A) (A) (A)
                 (A) (A) (A) (A) (A) (A) (A) (A) (A) (A) (A) (A)
                 (A) (A) (A) (A) (A) (A) (A) (A) (A) (A) (A) (A)
                 (A) (A) (A) (A) (A) (A) (A) (A) (A) (A) (A) (A)
                 (A) (A) (A) (A) (A) (A) (A) (A) (A) (A) (A) (A)
                 (A) (A) (A) (A) (A) (A) (A) (A) (A) (A) (A) (A)
                 (A) (A) (A) (A) (A) (A) (A) (A) (A) (A) (A) (A)
                 (A) (A) (A) (A) (A) (A) (A) (A) (A) (A) (A) (A)
                 (A) (A) (A) (A) (A) (A) (A) (A) (A) (A) (A) (A)
                 (A) (A) (A) (A) (A) (A) (A) (A) (A) (A) (A) (A)
                 (A) (A) (A) (A) (A) (A) (A) (A) (A) (A) (A) (A)
                 (A) (A) (A) (A) (A) (A) (A) (A) (A) (A) (A) (A)
                 (A) (A) (A) (A) (A) (A) (A) (A) (A) (A) (A) (A)
                 (A) (A) (A) (A) (A) (A) (A) (A) (A) (A) (A) (A)
                 (A) (A) (A) (A) (A) (A) (A) (A) (A) (A) (A) (A)
                 (A) (A) (A) (A) (A) (A) (A) (A) (A) (A) (A) (A)
                 (A) (A) (A) (A) (A) (A) (A) (A) (A) (A) (A) (A)
                 (A) (A) (A) (A) (A) (A) (A) (A) (A) (A) (A) (A)
                 (A) (A) (A) (A) (A) (A) (A) (A) (A) (A) (A) (A)
                 (A) (A) (A) (A) (A) (A) (A) (A) (A) (A) (A) (A)
                 (A) (A) (A) (A) (A) (A) (A) (A) (A) (A) (A) (A)
                 (A) (A) (A) (A) (A) (A) (A) (A) (A) (A) (A) (A)
                 (A) (A) (A) (A) (A) (A) (A) (A) (A) (A) (A) (A)
                 (A) (A) (A) (A) (A) (A) (A) (A) (A) (A) (A) (A)
                 (A) (A) (A) (A) (A) (A) (A) (A) (A) (A) (A) (A)
                 (A) (A) (A) (A) (A) (A) (A) (A) (A) (A) (A) (A)
                 (A) (A) (A) (A) (A) (A) (A) (A) (A) (A) (A) (A)
                 (A) (A) (A) (A) (A) (A) (A) (A) (A) (A) (A) (A)
                 (A) (A) (A) (A) (A) (A) (A) (A) (A) (A) (A) (A)
                 (A) (A) (A) (A) (A) (A) (A) (A) (A) (A) (A) (A)
                 (A) (A) (A) (A) (A) (A) (A) (A) (A) (A) (A) (A)
                 (A) (A) (A) (A) (A) (A) (A) (A) (A) (A) (A) (A)
                 (A) (A) (A) (A) (A) (A) (A) (A) (A) (A) (A) (A)
                 (A) (A) (A) (A) (A) (A) (A) (A) (A) (A) (A) (A)
                 (A) (A) (A) (A) (A) (A) (A) (A) (A) (A) (A) (A)
                 (A) (A) (A) (A) (A) (A) (A) (A) (A) (A) (A) (A)
                 (A) (A) (A) (A) (A) (A) (A) (A) (A) (A) (A) (A)
                 (A) (A) (A) (A) (A) (A) (A) (A) (A) (A) (A) (A)
                 (A) (A) (A) (A) (A) (A) (A) (A) (A) (A) (A) (A)
                 (A) (A) (A) (A) (A) (A) (A) (A) (A) (A) (A) (A)
                 (A) (A) (A) (A) (A) (A) (A) (A) (A) (A) (A) (A)
                 (A) (A) (A) (A) (A) (A) (A) (A) (A) (A) (A) (A)
                 (A) (A) (A) (A) (A) (A) (A) (A) (A) (A) (A) (A)
                 (A) (A) (A) (A) (A) (A) (A) (A) (A) (A) (A) (A)
                 (A) (A) (A) (A) (A) (A) (A) (A) (A) (A) (A) (A)
                 (A) (A) (A) (A) (A) (A) (A) (A) (A) (A) (A) (A)
                 (A) (A) (A) (A) (A) (A) (A) (A) (A) (A) (A) (A)
                 (A) (A) (A) (A) (A) (A) (A) (A) (A) (A) (A) (A)
                 (A) (A) (A) (A) (A) (A) (A) (A) (A) (A) (A) (A)
                 (A) (A) (A) (A) (A) (A) (A) (A) (A) (A) (A) (A)
                 (A) (A) (A) (A) (A) (A) (A) (A) (A) (A) (A) (A)
                 (A) (A) (A) (A) (A) (A) (A) (A) (A) (A) (A) (A)
                 (A) (A) (A) (A) (A) (A) (A) (A) (A) (A) (A) (A)
                 (A) (A) (A) (A) (A) (A) (A) (A) (A) (A) (A) (A)
                 (A) (A) (A) (A) (A) (A) (A) (A) (A) (A) (A) (A)
                 (A) (A) (A) (A) (A) (A) (A) (A) (A) (A) (A) (A)
                 (A) (A) (A) (A) (A) (A) (A) (A) (A) (A) (A) (A)
                 (A) (A) (A) (A) (A) (A) (A) (A) (A) (A) (A) (A)
                 (A) (A) (A) (A) (A) (A) (A) (A) (A) (A) (A) (A)
                 (A) (A) (A) (A) (A) (A) (A) (A) (A) (A) (A) (A)
                 (A) (A) (A) (A) (A) (A) (A) (A) (A) (A) (A) (A)
                 (A) (A) (A) (A) (A) (A) (A) (A) (A) (A) (A) (A)
                 (A) (A) (A) (A) (A) (A) (A) (A) (A) (A) (A) (A)
                 (A) (A) (A) (A) (A) (A) (A) (A) (A) (A) (A) (A)
                 (A) (A) (A) (A) (A) (A) (A) (A) (A) (A) (A) (A)
                 (A) (A) (A) (A) (A) (A) (A) (A) (A) (A) (A) (A)
                 (A) (A) (A) (A) (A) (A) (A) (A) (A) (A) (A) (A)
                 (A) (A) (A) (A) (A) (A) (A) (A) (A) (A) (A) (A)
                 (A) (A) (A) (A) (A) (A) (A) (A) (A) (A) (A) (A)
                 (A) (A) (A) (A) (A) (A) (A) (A) (A) (A) (A) (A)
                 (A) (A) (A) (A) (A) (A) (A) (A) (A) (A) (A) (A)
                 (A) (A) (A) (A) (A) (A) (A) (A) (A) (A) (A) (A)
                 (A) (A) (A) (A) (A) (A) (A) (A) (A) (A) (A) (A)
                 (A) (A) (A) (A) (A) (A) (A) (A) (A) (A) (A) (A)
                 (A) (A) (A) (A) (A) (A) (A) (A) (A) (A) (A) (A)
                 (A) (A) (A) (A) (A) (A) (A) (A) (A) (A) (A) (A)
                 (A) (A) (A) (A) (A) (A) (A) (A) (A) (A) (A) (A)
                 (A) (A) (A) (A) (A) (A) (A) (A) (A) (A) (A) (A)
                 (A) (A) (A) (A) (A) (A) (A) (A) (A) (A) (A) (A)
                 (A) (A) (A) (A) (A) (A) (A) (A) (A) (A) (A) (A)
                 (A) (A) (A) (A) (A) (A) (A) (A) (A) (A) (A) (A)
                 (A) (A) (A) (A) (A) (A) (A) (A) (A) (A) (A) (A)
                 (A) (A) (A) (A) (A) (A) (A) (A) (A) (A) (A) (A)
                 (A) (A) (A) (A) (A) (A) (A) (A) (A) (A) (A) (A)
                 (A) (A) (A) (A) (A) (A) (A) (A) (A) (A) (A) (A)
                 (A) (A) (A) (A)
 The electronic state is 1-A.
 Alpha  occ. eigenvalues --  -25.21423 -25.21416 -19.63695 -19.63440 -14.80271
 Alpha  occ. eigenvalues --  -14.80189 -10.64100 -10.63827 -10.62083 -10.61702
 Alpha  occ. eigenvalues --  -10.61391 -10.60517 -10.60488 -10.58538 -10.58322
 Alpha  occ. eigenvalues --  -10.57768 -10.57085 -10.56921 -10.56794 -10.56751
 Alpha  occ. eigenvalues --  -10.56396 -10.56381 -10.56131 -10.56103 -10.55841
 Alpha  occ. eigenvalues --  -10.55434 -10.55423 -10.53808  -7.14537  -1.33480
 Alpha  occ. eigenvalues --   -1.30240  -1.17107  -1.16846  -1.12218  -1.10242
 Alpha  occ. eigenvalues --   -0.99009  -0.95064  -0.92570  -0.91924  -0.90464
 Alpha  occ. eigenvalues --   -0.89563  -0.87225  -0.85888  -0.84199  -0.81379
 Alpha  occ. eigenvalues --   -0.77848  -0.76294  -0.72719  -0.71180  -0.70720
 Alpha  occ. eigenvalues --   -0.69794  -0.68674  -0.67186  -0.66561  -0.64147
 Alpha  occ. eigenvalues --   -0.63256  -0.62186  -0.61642  -0.60648  -0.59443
 Alpha  occ. eigenvalues --   -0.58242  -0.57513  -0.55693  -0.55221  -0.54865
 Alpha  occ. eigenvalues --   -0.54771  -0.54069  -0.53667  -0.52849  -0.52553
 Alpha  occ. eigenvalues --   -0.52252  -0.51088  -0.50189  -0.50019  -0.49631
 Alpha  occ. eigenvalues --   -0.49303  -0.49169  -0.48924  -0.48198  -0.47977
 Alpha  occ. eigenvalues --   -0.47845  -0.47575  -0.46737  -0.46312  -0.45724
 Alpha  occ. eigenvalues --   -0.45289  -0.44830  -0.43833  -0.42983  -0.41807
 Alpha  occ. eigenvalues --   -0.41155  -0.40209  -0.37532  -0.35036  -0.34745
 Alpha  occ. eigenvalues --   -0.34354  -0.33992  -0.33474  -0.32427  -0.30104
 Alpha  occ. eigenvalues --   -0.26565
 Alpha virt. eigenvalues --   -0.12059  -0.06013  -0.03613   0.00401   0.00508
 Alpha virt. eigenvalues --    0.05001   0.05588   0.07113   0.07364   0.07891
 Alpha virt. eigenvalues --    0.08950   0.09233   0.09830   0.09996   0.10484
 Alpha virt. eigenvalues --    0.10577   0.10872   0.11144   0.11660   0.12013
 Alpha virt. eigenvalues --    0.12404   0.12633   0.12895   0.13365   0.13778
 Alpha virt. eigenvalues --    0.14410   0.15200   0.15660   0.15861   0.16490
 Alpha virt. eigenvalues --    0.17072   0.17270   0.17512   0.18107   0.18372
 Alpha virt. eigenvalues --    0.19092   0.19259   0.19888   0.20602   0.20808
 Alpha virt. eigenvalues --    0.21197   0.21543   0.21746   0.22219   0.22374
 Alpha virt. eigenvalues --    0.23066   0.23160   0.23552   0.23862   0.24727
 Alpha virt. eigenvalues --    0.24918   0.25088   0.25303   0.26106   0.26384
 Alpha virt. eigenvalues --    0.27341   0.27645   0.27827   0.28068   0.28687
 Alpha virt. eigenvalues --    0.28890   0.29231   0.29603   0.29772   0.30605
 Alpha virt. eigenvalues --    0.30756   0.30888   0.31212   0.31502   0.31770
 Alpha virt. eigenvalues --    0.32379   0.32573   0.33060   0.33439   0.33522
 Alpha virt. eigenvalues --    0.33816   0.34119   0.34630   0.34889   0.35643
 Alpha virt. eigenvalues --    0.35846   0.36475   0.36810   0.37115   0.37249
 Alpha virt. eigenvalues --    0.37398   0.37443   0.38246   0.38421   0.38783
 Alpha virt. eigenvalues --    0.39162   0.39470   0.40166   0.40407   0.40989
 Alpha virt. eigenvalues --    0.41397   0.41609   0.42096   0.42357   0.42880
 Alpha virt. eigenvalues --    0.43345   0.43597   0.43850   0.44184   0.44479
 Alpha virt. eigenvalues --    0.44576   0.45257   0.45585   0.45701   0.46121
 Alpha virt. eigenvalues --    0.46363   0.46616   0.47125   0.47362   0.47960
 Alpha virt. eigenvalues --    0.48508   0.48711   0.49069   0.49193   0.49744
 Alpha virt. eigenvalues --    0.50256   0.50568   0.50704   0.51183   0.51850
 Alpha virt. eigenvalues --    0.52048   0.52429   0.52719   0.52858   0.53115
 Alpha virt. eigenvalues --    0.53513   0.53640   0.54322   0.54713   0.55217
 Alpha virt. eigenvalues --    0.55518   0.55933   0.56551   0.57063   0.57528
 Alpha virt. eigenvalues --    0.57966   0.58466   0.58556   0.59378   0.60088
 Alpha virt. eigenvalues --    0.60495   0.61072   0.61286   0.61797   0.61975
 Alpha virt. eigenvalues --    0.62226   0.63070   0.63606   0.64241   0.64618
 Alpha virt. eigenvalues --    0.65138   0.65527   0.66062   0.66415   0.66960
 Alpha virt. eigenvalues --    0.67633   0.67769   0.68379   0.68655   0.68886
 Alpha virt. eigenvalues --    0.69533   0.70040   0.70457   0.70867   0.71270
 Alpha virt. eigenvalues --    0.71680   0.71823   0.72223   0.72785   0.72923
 Alpha virt. eigenvalues --    0.73034   0.73235   0.74025   0.74305   0.74804
 Alpha virt. eigenvalues --    0.75224   0.75561   0.75877   0.76058   0.76728
 Alpha virt. eigenvalues --    0.77074   0.77789   0.78243   0.78587   0.79169
 Alpha virt. eigenvalues --    0.79626   0.80292   0.80796   0.80980   0.81210
 Alpha virt. eigenvalues --    0.82154   0.82873   0.83092   0.83342   0.83888
 Alpha virt. eigenvalues --    0.84621   0.85007   0.85564   0.86411   0.86886
 Alpha virt. eigenvalues --    0.87541   0.87878   0.88404   0.89285   0.90061
 Alpha virt. eigenvalues --    0.90180   0.90428   0.90752   0.91418   0.91515
 Alpha virt. eigenvalues --    0.92066   0.92587   0.92776   0.93274   0.93910
 Alpha virt. eigenvalues --    0.94416   0.94606   0.95075   0.95888   0.95948
 Alpha virt. eigenvalues --    0.96748   0.97027   0.97726   0.97858   0.98251
 Alpha virt. eigenvalues --    0.98399   0.99812   1.00225   1.00823   1.00938
 Alpha virt. eigenvalues --    1.01179   1.01817   1.02266   1.02872   1.03210
 Alpha virt. eigenvalues --    1.03941   1.04018   1.04497   1.04782   1.05591
 Alpha virt. eigenvalues --    1.06402   1.06466   1.07196   1.07684   1.08117
 Alpha virt. eigenvalues --    1.08430   1.09477   1.09678   1.09923   1.10720
 Alpha virt. eigenvalues --    1.11740   1.12048   1.12577   1.13373   1.13545
 Alpha virt. eigenvalues --    1.14443   1.14752   1.15115   1.15574   1.16187
 Alpha virt. eigenvalues --    1.17066   1.17615   1.17670   1.17877   1.18598
 Alpha virt. eigenvalues --    1.19337   1.19853   1.20600   1.20866   1.21739
 Alpha virt. eigenvalues --    1.22165   1.22617   1.23192   1.23470   1.23931
 Alpha virt. eigenvalues --    1.24376   1.24855   1.25272   1.25479   1.26402
 Alpha virt. eigenvalues --    1.26909   1.27889   1.28275   1.28711   1.29415
 Alpha virt. eigenvalues --    1.29687   1.30148   1.30796   1.31494   1.32046
 Alpha virt. eigenvalues --    1.32530   1.33631   1.34272   1.34517   1.34552
 Alpha virt. eigenvalues --    1.35426   1.36373   1.36985   1.37091   1.37779
 Alpha virt. eigenvalues --    1.38899   1.39402   1.39617   1.40691   1.40870
 Alpha virt. eigenvalues --    1.41052   1.41210   1.42507   1.42926   1.43245
 Alpha virt. eigenvalues --    1.43565   1.44618   1.45141   1.45254   1.45419
 Alpha virt. eigenvalues --    1.45765   1.46869   1.47367   1.47795   1.48178
 Alpha virt. eigenvalues --    1.48357   1.49322   1.49729   1.49942   1.50671
 Alpha virt. eigenvalues --    1.50737   1.51089   1.51193   1.51607   1.51863
 Alpha virt. eigenvalues --    1.53028   1.53423   1.53662   1.54286   1.54690
 Alpha virt. eigenvalues --    1.55321   1.56236   1.56305   1.57086   1.57772
 Alpha virt. eigenvalues --    1.57881   1.57987   1.59519   1.59876   1.60605
 Alpha virt. eigenvalues --    1.60736   1.61101   1.61856   1.62308   1.62620
 Alpha virt. eigenvalues --    1.62855   1.63332   1.63877   1.64384   1.65109
 Alpha virt. eigenvalues --    1.65266   1.65614   1.66390   1.66955   1.67616
 Alpha virt. eigenvalues --    1.68286   1.68827   1.70178   1.70920   1.71815
 Alpha virt. eigenvalues --    1.72066   1.73024   1.73243   1.73703   1.74110
 Alpha virt. eigenvalues --    1.76180   1.77904   1.78191   1.78513   1.79280
 Alpha virt. eigenvalues --    1.79864   1.80700   1.81412   1.82537   1.82953
 Alpha virt. eigenvalues --    1.83338   1.83433   1.85017   1.85133   1.85546
 Alpha virt. eigenvalues --    1.86414   1.87161   1.87897   1.88760   1.89096
 Alpha virt. eigenvalues --    1.89773   1.90481   1.91927   1.92181   1.93373
 Alpha virt. eigenvalues --    1.93726   1.94010   1.96067   1.96693   1.97009
 Alpha virt. eigenvalues --    1.97095   1.97516   1.98871   1.99991   2.00443
 Alpha virt. eigenvalues --    2.00867   2.01380   2.02000   2.02543   2.03026
 Alpha virt. eigenvalues --    2.03793   2.03864   2.04415   2.05967   2.07464
 Alpha virt. eigenvalues --    2.07865   2.08674   2.08794   2.09409   2.10211
 Alpha virt. eigenvalues --    2.11257   2.11597   2.12107   2.12545   2.13702
 Alpha virt. eigenvalues --    2.14316   2.15101   2.16221   2.16943   2.17024
 Alpha virt. eigenvalues --    2.18333   2.19217   2.20429   2.21489   2.22373
 Alpha virt. eigenvalues --    2.22801   2.24033   2.24791   2.25166   2.26222
 Alpha virt. eigenvalues --    2.26654   2.27901   2.29206   2.30228   2.30660
 Alpha virt. eigenvalues --    2.31340   2.32206   2.32737   2.33173   2.34243
 Alpha virt. eigenvalues --    2.35318   2.35728   2.37076   2.37449   2.38500
 Alpha virt. eigenvalues --    2.39279   2.40109   2.40887   2.41692   2.42760
 Alpha virt. eigenvalues --    2.43727   2.45642   2.46116   2.46937   2.47692
 Alpha virt. eigenvalues --    2.47986   2.49276   2.49573   2.50813   2.50997
 Alpha virt. eigenvalues --    2.52888   2.54191   2.54834   2.55948   2.56899
 Alpha virt. eigenvalues --    2.57164   2.57973   2.59342   2.59973   2.61883
 Alpha virt. eigenvalues --    2.62674   2.63084   2.64425   2.64736   2.65304
 Alpha virt. eigenvalues --    2.65497   2.66222   2.66899   2.67182   2.67973
 Alpha virt. eigenvalues --    2.68492   2.68895   2.69368   2.69958   2.70502
 Alpha virt. eigenvalues --    2.71093   2.71722   2.73142   2.73230   2.73350
 Alpha virt. eigenvalues --    2.73703   2.74480   2.74688   2.75456   2.75821
 Alpha virt. eigenvalues --    2.76099   2.76752   2.77929   2.78170   2.78248
 Alpha virt. eigenvalues --    2.78609   2.78996   2.79155   2.79393   2.80381
 Alpha virt. eigenvalues --    2.80687   2.81392   2.81509   2.82064   2.83395
 Alpha virt. eigenvalues --    2.83558   2.84233   2.84634   2.85392   2.85936
 Alpha virt. eigenvalues --    2.86391   2.86634   2.86854   2.87397   2.88697
 Alpha virt. eigenvalues --    2.88843   2.89422   2.90056   2.90493   2.90716
 Alpha virt. eigenvalues --    2.91220   2.91826   2.92322   2.92449   2.93049
 Alpha virt. eigenvalues --    2.93478   2.94172   2.94993   2.95177   2.95850
 Alpha virt. eigenvalues --    2.96306   2.96669   2.97443   2.97915   2.98370
 Alpha virt. eigenvalues --    2.98704   2.99137   2.99327   3.00272   3.00601
 Alpha virt. eigenvalues --    3.01308   3.01596   3.01638   3.01830   3.02526
 Alpha virt. eigenvalues --    3.03348   3.03918   3.04318   3.04645   3.04950
 Alpha virt. eigenvalues --    3.05262   3.05405   3.05453   3.06077   3.06551
 Alpha virt. eigenvalues --    3.06787   3.07383   3.07914   3.08119   3.08420
 Alpha virt. eigenvalues --    3.08957   3.09289   3.09429   3.10236   3.10299
 Alpha virt. eigenvalues --    3.10910   3.11473   3.11788   3.11876   3.12435
 Alpha virt. eigenvalues --    3.12797   3.13572   3.14053   3.14581   3.15115
 Alpha virt. eigenvalues --    3.15381   3.15711   3.15873   3.16003   3.16637
 Alpha virt. eigenvalues --    3.17567   3.17773   3.18269   3.18589   3.19085
 Alpha virt. eigenvalues --    3.19478   3.19608   3.20462   3.21553   3.22003
 Alpha virt. eigenvalues --    3.22559   3.22784   3.23677   3.23973   3.24086
 Alpha virt. eigenvalues --    3.24884   3.25624   3.25833   3.26357   3.26526
 Alpha virt. eigenvalues --    3.27003   3.27912   3.28353   3.28814   3.29414
 Alpha virt. eigenvalues --    3.29685   3.30926   3.31012   3.31469   3.32210
 Alpha virt. eigenvalues --    3.32791   3.33162   3.33872   3.34057   3.34388
 Alpha virt. eigenvalues --    3.34772   3.35075   3.35245   3.36487   3.36670
 Alpha virt. eigenvalues --    3.37384   3.37498   3.38817   3.39737   3.39861
 Alpha virt. eigenvalues --    3.40829   3.41421   3.42093   3.42270   3.42705
 Alpha virt. eigenvalues --    3.42997   3.43583   3.43988   3.44666   3.44826
 Alpha virt. eigenvalues --    3.45420   3.45818   3.46411   3.46738   3.47307
 Alpha virt. eigenvalues --    3.47603   3.48285   3.48814   3.49180   3.49751
 Alpha virt. eigenvalues --    3.49858   3.50557   3.51020   3.51500   3.51792
 Alpha virt. eigenvalues --    3.52884   3.53126   3.53816   3.54092   3.54664
 Alpha virt. eigenvalues --    3.55249   3.56219   3.56592   3.56952   3.57472
 Alpha virt. eigenvalues --    3.58578   3.58966   3.59477   3.60109   3.60327
 Alpha virt. eigenvalues --    3.60698   3.61504   3.61993   3.62565   3.63351
 Alpha virt. eigenvalues --    3.64179   3.64584   3.65223   3.65605   3.66144
 Alpha virt. eigenvalues --    3.67187   3.67337   3.68039   3.69018   3.69775
 Alpha virt. eigenvalues --    3.70383   3.70717   3.71274   3.72076   3.72162
 Alpha virt. eigenvalues --    3.72644   3.73955   3.74337   3.74731   3.75853
 Alpha virt. eigenvalues --    3.76314   3.76703   3.77039   3.78286   3.78743
 Alpha virt. eigenvalues --    3.79135   3.79773   3.80411   3.80652   3.81300
 Alpha virt. eigenvalues --    3.81732   3.82339   3.82827   3.83467   3.83743
 Alpha virt. eigenvalues --    3.84315   3.84702   3.85334   3.85391   3.86367
 Alpha virt. eigenvalues --    3.87266   3.87816   3.87849   3.89095   3.89657
 Alpha virt. eigenvalues --    3.90041   3.90865   3.91195   3.91545   3.91602
 Alpha virt. eigenvalues --    3.92098   3.92411   3.93019   3.93607   3.94191
 Alpha virt. eigenvalues --    3.94747   3.95115   3.95899   3.96602   3.96789
 Alpha virt. eigenvalues --    3.97616   3.98075   3.99074   3.99441   3.99959
 Alpha virt. eigenvalues --    4.01304   4.01836   4.02342   4.02473   4.03409
 Alpha virt. eigenvalues --    4.04164   4.05882   4.06238   4.06948   4.07478
 Alpha virt. eigenvalues --    4.08881   4.09086   4.09483   4.10016   4.10271
 Alpha virt. eigenvalues --    4.11007   4.11814   4.12179   4.12953   4.13098
 Alpha virt. eigenvalues --    4.13169   4.14424   4.14967   4.15214   4.15665
 Alpha virt. eigenvalues --    4.16240   4.16951   4.17478   4.17988   4.18908
 Alpha virt. eigenvalues --    4.19373   4.20003   4.20671   4.20853   4.21498
 Alpha virt. eigenvalues --    4.21783   4.22053   4.22690   4.23250   4.24564
 Alpha virt. eigenvalues --    4.25427   4.26235   4.26555   4.26792   4.27756
 Alpha virt. eigenvalues --    4.28765   4.29378   4.29779   4.30702   4.31700
 Alpha virt. eigenvalues --    4.32497   4.32579   4.34542   4.34726   4.36542
 Alpha virt. eigenvalues --    4.37203   4.38186   4.38426   4.39030   4.39986
 Alpha virt. eigenvalues --    4.40136   4.40404   4.41279   4.41946   4.42920
 Alpha virt. eigenvalues --    4.43516   4.44778   4.45178   4.46569   4.47702
 Alpha virt. eigenvalues --    4.49288   4.49923   4.50495   4.51158   4.52454
 Alpha virt. eigenvalues --    4.53038   4.54319   4.54592   4.54962   4.56182
 Alpha virt. eigenvalues --    4.57802   4.58437   4.58639   4.59307   4.59654
 Alpha virt. eigenvalues --    4.60731   4.61654   4.62307   4.63281   4.64564
 Alpha virt. eigenvalues --    4.65005   4.67595   4.67762   4.69443   4.69752
 Alpha virt. eigenvalues --    4.70949   4.71116   4.73224   4.73889   4.74195
 Alpha virt. eigenvalues --    4.74885   4.75849   4.76423   4.76865   4.77507
 Alpha virt. eigenvalues --    4.78861   4.79925   4.80769   4.82468   4.84792
 Alpha virt. eigenvalues --    4.86054   4.86919   4.87575   4.88318   4.89774
 Alpha virt. eigenvalues --    4.91135   4.91723   4.92253   4.92701   4.93263
 Alpha virt. eigenvalues --    4.94687   4.95018   4.95957   4.96392   4.97134
 Alpha virt. eigenvalues --    4.97430   4.99879   5.01239   5.02172   5.02505
 Alpha virt. eigenvalues --    5.03680   5.04260   5.05323   5.06114   5.07414
 Alpha virt. eigenvalues --    5.09900   5.11144   5.12069   5.13631   5.14442
 Alpha virt. eigenvalues --    5.15376   5.15824   5.16228   5.16843   5.17228
 Alpha virt. eigenvalues --    5.17735   5.18339   5.18511   5.19206   5.20506
 Alpha virt. eigenvalues --    5.20699   5.22476   5.22710   5.22987   5.23604
 Alpha virt. eigenvalues --    5.24068   5.25875   5.26869   5.27271   5.28840
 Alpha virt. eigenvalues --    5.29038   5.29734   5.30721   5.32809   5.33586
 Alpha virt. eigenvalues --    5.34657   5.36135   5.37317   5.39284   5.40457
 Alpha virt. eigenvalues --    5.41405   5.42091   5.43049   5.45563   5.46264
 Alpha virt. eigenvalues --    5.47664   5.52703   5.52943   5.55054   5.56039
 Alpha virt. eigenvalues --    5.56619   5.57483   5.57828   5.59276   5.62365
 Alpha virt. eigenvalues --    5.62491   5.62639   5.63407   5.65011   5.65648
 Alpha virt. eigenvalues --    5.70440   5.70620   5.72734   5.76011   5.77746
 Alpha virt. eigenvalues --    5.79571   5.80064   5.81804   5.83664   5.84453
 Alpha virt. eigenvalues --    5.87458   5.89725   5.94664   5.96443   5.97901
 Alpha virt. eigenvalues --    6.01225   6.02669   6.04835   6.05176   6.12350
 Alpha virt. eigenvalues --    6.12686   6.29911   6.31153   6.35931   6.36197
 Alpha virt. eigenvalues --    6.40276   6.41372   6.50781   6.54162   6.54397
 Alpha virt. eigenvalues --    6.77236   6.77457   6.80692   6.80956   6.93145
 Alpha virt. eigenvalues --    6.93895   6.96182   6.98067   6.98254   6.99351
 Alpha virt. eigenvalues --    7.02841   7.02896   7.04547   7.08265   7.08666
 Alpha virt. eigenvalues --    7.10541   7.16741   7.21194   7.23678   7.26503
 Alpha virt. eigenvalues --    7.32995   7.34348   8.45031   8.45998   8.55249
 Alpha virt. eigenvalues --    8.59900   8.82375   8.86946   8.89510   8.90752
 Alpha virt. eigenvalues --    8.92953   8.99201  15.84837  22.78611  22.93743
 Alpha virt. eigenvalues --   22.96584  23.03377  23.07184  23.12129  23.17660
 Alpha virt. eigenvalues --   23.26086  23.29981  23.30344  23.30556  23.35044
 Alpha virt. eigenvalues --   23.38834  23.43947  23.46396  23.52611  23.56237
 Alpha virt. eigenvalues --   23.58338  23.67459  23.79967  23.89518  24.16650
 Alpha virt. eigenvalues --   33.12644  33.21540  43.99535  43.99654  57.32850
 Alpha virt. eigenvalues --   57.55570
          Condensed to atoms (all electrons):
               1          2          3          4          5          6
     1  C    4.918533   0.328738  -0.072537   0.010962  -0.002961  -0.000201
[...]
    38  H   -0.000001   0.000000  -0.000000  -0.000000  -0.000000  -0.000000
    39  H    0.000000  -0.000000   0.000000   0.000000  -0.000000   0.000000
    40  H    0.005341   0.029990   0.391067  -0.082362  -0.000571   0.029030
    41  H    0.000831   0.012418  -0.076417   0.442309  -0.015249   0.004241
    42  H    0.000118  -0.001240   0.038237  -0.165563   0.504328  -0.049792
    43  H    0.004401  -0.016297  -0.004767   0.000789  -0.000110  -0.000079
    44  H    0.002928   0.000035  -0.000338  -0.000010   0.000001   0.000000
    45  H    0.000144   0.000206   0.000004  -0.000000  -0.000000  -0.000000
    46  H   -0.000000   0.000001  -0.000000  -0.000000   0.000000  -0.000000
              25         26         27         28         29         30
     1  C   -0.000000   0.000009   0.000005   0.008006  -0.074232   0.427142
     2  C   -0.000023   0.000216   0.001995  -0.048357   0.476997  -0.038009
     3  C   -0.000027  -0.000011  -0.004537  -0.045926  -0.055662   0.014450
     4  C   -0.000480   0.000850   0.031171  -0.002709  -0.046323  -0.000586
     5  C    0.006552  -0.055740  -0.288524   0.418386  -0.062614  -0.000054
     6  C    0.039806  -0.121787   0.032858  -0.128147   0.008520   0.000004
     7  C   -0.007187   0.042649  -0.073061   0.021256  -0.002351  -0.000003
     8  C    0.000001   0.000204   0.038571   0.000820  -0.000034   0.000000
     9  C   -0.000031   0.000136  -0.003695  -0.000396  -0.000023   0.000000
    10  C   -0.000067   0.000386  -0.003124   0.000364   0.000000  -0.000000
    11  C    0.000031  -0.000035  -0.000461   0.000006  -0.000000  -0.000000
    12  C    0.000002  -0.000002  -0.000014  -0.000000  -0.000000   0.000000
    13  C   -0.000000   0.000000   0.000001   0.000000   0.000000  -0.000000
    14  O   -0.000000   0.000000   0.000000   0.000000   0.000000   0.000000
    15  N   -0.000062  -0.001908  -0.024796  -0.000370  -0.000009  -0.000000
    16  B    0.001798  -0.003973  -0.041222  -0.000031  -0.000015  -0.000000
    17  F   -0.000409  -0.000467  -0.006154  -0.000000   0.000000  -0.000000
    18  F    0.000920  -0.000386  -0.008456  -0.000003  -0.000000  -0.000000
    19  N   -0.088211  -0.107939   0.385821   0.000868  -0.000036  -0.000000
    20  C    0.477157  -0.029718  -0.114934   0.000513   0.000047   0.000000
    21  C   -0.083542   0.019441   0.000303   0.000073   0.000002  -0.000000
    22  C    0.029425  -0.005358   0.000696  -0.000000  -0.000000  -0.000000
    23  C   -0.003571   0.000347  -0.000030  -0.000000  -0.000000   0.000000
    24  O   -0.001179   0.000030  -0.000013  -0.000000  -0.000000   0.000000
    25  C    5.005348   0.483267  -0.105261  -0.000032  -0.000088  -0.000000
    26  C    0.483267   5.064684   0.505467  -0.000019  -0.001731  -0.000001
    27  C   -0.105261   0.505467   5.588277   0.023581   0.004398   0.000001
    28  C   -0.000032  -0.000019   0.023581   5.084634   0.487942   0.000791
    29  C   -0.000088  -0.001731   0.004398   0.487942   4.981809  -0.022776
    30  H   -0.000000  -0.000001   0.000001   0.000791  -0.022776   0.535821
    31  H    0.000000   0.000004  -0.000011  -0.001211  -0.005374  -0.024546
    32  H   -0.000000  -0.000000   0.000005  -0.000799   0.015959  -0.025370
    33  H    0.000000   0.000006   0.000010   0.000424   0.003567   0.000103
    34  H   -0.000016   0.000311   0.001918   0.001746   0.000258   0.000007
    35  H    0.000003  -0.000049   0.000124   0.000016  -0.000189  -0.000001
    36  H    0.000000  -0.000000   0.000056   0.000002  -0.000000  -0.000000
    37  H    0.000007   0.000006   0.000311   0.000000  -0.000000  -0.000000
    38  H    0.000000  -0.000000   0.000005   0.000000  -0.000000   0.000000
    39  H   -0.000000   0.000000   0.000000   0.000000   0.000000  -0.000000
    40  H   -0.015186   0.002975   0.000004  -0.000001  -0.000000   0.000000
    41  H    0.000855  -0.000164   0.000434   0.000000  -0.000000  -0.000000
    42  H   -0.000196   0.000012   0.000003  -0.000000  -0.000000  -0.000000
    43  H    0.395917  -0.001548   0.001427   0.000020  -0.000001  -0.000000
    44  H    0.007204   0.380532  -0.013530   0.001593  -0.001058   0.000001
    45  H    0.000029  -0.004384   0.009316   0.409642  -0.005525  -0.000006
    46  H   -0.000010  -0.000094   0.000118  -0.014517   0.404668   0.000240
              31         32         33         34         35         36
     1  C    0.396998   0.427740  -0.004094  -0.000204  -0.000001   0.000000
     2  C   -0.028597  -0.037446  -0.023740   0.000331   0.000603   0.000000
     3  C    0.000561  -0.024166   0.405367  -0.003979  -0.000535  -0.000001
     4  C   -0.001827   0.001605  -0.013551   0.407650   0.001824   0.000022
     5  C    0.000215   0.000067   0.003250  -0.038211  -0.002510   0.000091
     6  C   -0.000012   0.000021   0.000038   0.000894   0.005291   0.000084
     7  C    0.000006  -0.000003   0.000134   0.007553  -0.012000  -0.000393
     8  C   -0.000001   0.000001  -0.000075  -0.003251   0.375554   0.007139
     9  C   -0.000000  -0.000000  -0.000010  -0.000137   0.009742   0.385400
    10  C    0.000000   0.000000   0.000002   0.000246  -0.002197  -0.014053
    11  C    0.000000   0.000000   0.000000   0.000001  -0.000345   0.003464
    12  C   -0.000000   0.000000  -0.000000  -0.000000   0.000069  -0.004024
    13  C    0.000000  -0.000000   0.000000   0.000000  -0.000002   0.000139
    14  O    0.000000  -0.000000   0.000000   0.000000  -0.000000  -0.000007
    15  N   -0.000000  -0.000000  -0.000000   0.000004   0.003040   0.003290
    16  B    0.000000  -0.000000   0.000000   0.000004   0.000445   0.000168
    17  F   -0.000000   0.000000   0.000000  -0.000000   0.000006   0.000006
    18  F   -0.000000  -0.000000   0.000000   0.000000   0.000003   0.000006
    19  N   -0.000000   0.000000  -0.000000  -0.000025   0.000033   0.000002
    20  C   -0.000000   0.000000  -0.000000  -0.000002   0.000002   0.000000
    21  C   -0.000000   0.000000  -0.000000  -0.000000  -0.000000  -0.000000
    22  C    0.000000  -0.000000   0.000000   0.000000   0.000000   0.000000
    23  C   -0.000000   0.000000  -0.000000   0.000000  -0.000000   0.000000
    24  O    0.000000   0.000000  -0.000000  -0.000000  -0.000000   0.000000
    25  C    0.000000  -0.000000   0.000000  -0.000016   0.000003   0.000000
    26  C    0.000004  -0.000000   0.000006   0.000311  -0.000049  -0.000000
    27  C   -0.000011   0.000005   0.000010   0.001918   0.000124   0.000056
    28  C   -0.001211  -0.000799   0.000424   0.001746   0.000016   0.000002
    29  C   -0.005374   0.015959   0.003567   0.000258  -0.000189  -0.000000
    30  H   -0.024546  -0.025370   0.000103   0.000007  -0.000001  -0.000000
    31  H    0.536844  -0.021683   0.000500   0.000008   0.000001   0.000000
    32  H   -0.021683   0.540921   0.000139  -0.000015  -0.000000  -0.000000
    33  H    0.000500   0.000139   0.477463  -0.001382   0.000004   0.000000
    34  H    0.000008  -0.000015  -0.001382   0.437975  -0.002283  -0.000002
    35  H    0.000001  -0.000000   0.000004  -0.002283   0.407432   0.000790
    36  H    0.000000  -0.000000   0.000000  -0.000002   0.000790   0.432913
    37  H    0.000000   0.000000  -0.000000   0.000000  -0.000002   0.000153
    38  H   -0.000000   0.000000  -0.000000  -0.000000   0.000019  -0.000344
    39  H    0.000000  -0.000000   0.000000   0.000000  -0.000000   0.000048
    40  H    0.000000  -0.000000   0.000000   0.000000  -0.000000  -0.000000
    41  H    0.000000  -0.000000  -0.000000  -0.000000   0.000000   0.000000
    42  H    0.000000   0.000000  -0.000000   0.000000  -0.000000   0.000000
    43  H   -0.000000   0.000000   0.000000  -0.000000   0.000000  -0.000000
    44  H   -0.000004   0.000000  -0.000002   0.000053  -0.000004   0.000000
    45  H    0.000014   0.000001   0.000043  -0.000218   0.000048  -0.000000
    46  H    0.000416   0.000037  -0.000225   0.000043  -0.000002   0.000000
              37         38         39         40         41         42
     1  C    0.000000   0.000000  -0.000000   0.000000   0.000000  -0.000000
     2  C    0.000000   0.000000  -0.000000  -0.000000   0.000000   0.000000
     3  C   -0.000000  -0.000000   0.000000  -0.000000  -0.000000  -0.000000
     4  C    0.000000  -0.000000  -0.000000   0.000000   0.000000   0.000000
     5  C   -0.000004  -0.000000  -0.000000  -0.000001  -0.000005  -0.000000
     6  C   -0.000297   0.000020  -0.000000   0.000083  -0.000213  -0.000001
     7  C    0.002444   0.000153  -0.000004   0.000027   0.000125   0.000001
     8  C   -0.002337   0.000508  -0.000020  -0.000000   0.000018  -0.000000
     9  C    0.009360  -0.004306   0.000294   0.000000  -0.000005   0.000000
    10  C    0.003115   0.015410  -0.002118   0.000002  -0.000207   0.000002
    11  C    0.392740  -0.065532   0.032772  -0.000000   0.000136  -0.000001
    12  C   -0.052266   0.429454  -0.158752  -0.000000   0.000007  -0.000000
    13  C   -0.000615  -0.016667   0.501968   0.000000   0.000001   0.000000
    14  O    0.026170   0.004249  -0.048750   0.000000  -0.000005   0.000000
    15  N   -0.004996   0.000219   0.000001   0.000000  -0.000268  -0.000000
    16  B   -0.001637  -0.000088   0.000004   0.001006  -0.005206   0.000659
    17  F    0.008283  -0.000008   0.000000   0.000187  -0.008455   0.000014
    18  F   -0.007295  -0.000016   0.000000  -0.000088   0.008609  -0.000034
    19  N   -0.000403  -0.000001   0.000000   0.005341   0.000831   0.000118
    20  C    0.000040   0.000000  -0.000000   0.029990   0.012418  -0.001240
    21  C   -0.000181  -0.000000   0.000000   0.391067  -0.076417   0.038237
    22  C    0.000235  -0.000000   0.000000  -0.082362   0.442309  -0.165563
    23  C   -0.000002  -0.000000  -0.000000  -0.000571  -0.015249   0.504328
    24  O   -0.000000  -0.000000   0.000000   0.029030   0.004241  -0.049792
    25  C    0.000007   0.000000  -0.000000  -0.015186   0.000855  -0.000196
    26  C    0.000006  -0.000000   0.000000   0.002975  -0.000164   0.000012
    27  C    0.000311   0.000005   0.000000   0.000004   0.000434   0.000003
    28  C    0.000000   0.000000   0.000000  -0.000001   0.000000  -0.000000
    29  C   -0.000000  -0.000000   0.000000  -0.000000  -0.000000  -0.000000
    30  H   -0.000000   0.000000  -0.000000   0.000000  -0.000000  -0.000000
    31  H    0.000000  -0.000000   0.000000   0.000000   0.000000   0.000000
    32  H    0.000000   0.000000  -0.000000  -0.000000  -0.000000   0.000000
    33  H   -0.000000  -0.000000   0.000000   0.000000  -0.000000  -0.000000
    34  H    0.000000  -0.000000   0.000000   0.000000  -0.000000   0.000000
    35  H   -0.000002   0.000019  -0.000000  -0.000000   0.000000  -0.000000
    36  H    0.000153  -0.000344   0.000048  -0.000000   0.000000   0.000000
    37  H    0.482411   0.002590   0.002293  -0.000001  -0.000009  -0.000002
    38  H    0.002590   0.500134  -0.002659  -0.000000  -0.000000  -0.000000
    39  H    0.002293  -0.002659   0.561592   0.000000  -0.000000   0.000000
    40  H   -0.000001  -0.000000   0.000000   0.507654   0.002141   0.002475
    41  H   -0.000009  -0.000000  -0.000000   0.002141   0.491022  -0.006331
    42  H   -0.000002  -0.000000   0.000000   0.002475  -0.006331   0.566677
    43  H    0.000000   0.000000  -0.000000   0.000590   0.000012  -0.000005
    44  H    0.000000   0.000000  -0.000000   0.000033   0.000000   0.000000
    45  H   -0.000000  -0.000000   0.000000  -0.000000  -0.000000  -0.000000
    46  H   -0.000000   0.000000   0.000000   0.000000  -0.000000  -0.000000
              43         44         45         46
     1  C    0.000000   0.000005  -0.000128  -0.002333
     2  C    0.000000   0.000698   0.001196  -0.024075
     3  C   -0.000000  -0.000270   0.000131   0.004194
     4  C    0.000000   0.000333   0.002186   0.000200
     5  C    0.000122  -0.002554  -0.038464   0.003337
     6  C    0.000135   0.002028  -0.002343   0.000043
     7  C    0.000045  -0.000001   0.002109   0.000029
     8  C   -0.000001  -0.000036   0.000296   0.000004
     9  C    0.000000   0.000003  -0.000016   0.000000
    10  C    0.000000   0.000000   0.000002   0.000000
    11  C    0.000000  -0.000000   0.000000  -0.000000
    12  C    0.000000   0.000000   0.000000   0.000000
    13  C   -0.000000   0.000000   0.000000   0.000000
    14  O   -0.000000  -0.000000  -0.000000   0.000000
    15  N    0.000002   0.000037  -0.000023  -0.000000
    16  B    0.000338   0.000355   0.000016  -0.000000
    17  F   -0.000002   0.000004   0.000000   0.000000
    18  F    0.000011   0.000003  -0.000001   0.000000
    19  N    0.004401   0.002928   0.000144  -0.000000
    20  C   -0.016297   0.000035   0.000206   0.000001
    21  C   -0.004767  -0.000338   0.000004  -0.000000
    22  C    0.000789  -0.000010  -0.000000  -0.000000
    23  C   -0.000110   0.000001  -0.000000   0.000000
    24  O   -0.000079   0.000000  -0.000000  -0.000000
    25  C    0.395917   0.007204   0.000029  -0.000010
    26  C   -0.001548   0.380532  -0.004384  -0.000094
    27  C    0.001427  -0.013530   0.009316   0.000118
    28  C    0.000020   0.001593   0.409642  -0.014517
    29  C   -0.000001  -0.001058  -0.005525   0.404668
    30  H   -0.000000   0.000001  -0.000006   0.000240
    31  H   -0.000000  -0.000004   0.000014   0.000416
    32  H    0.000000   0.000000   0.000001   0.000037
    33  H    0.000000  -0.000002   0.000043  -0.000225
    34  H   -0.000000   0.000053  -0.000218   0.000043
    35  H    0.000000  -0.000004   0.000048  -0.000002
    36  H   -0.000000   0.000000  -0.000000   0.000000
    37  H    0.000000   0.000000  -0.000000  -0.000000
    38  H    0.000000   0.000000  -0.000000   0.000000
    39  H   -0.000000  -0.000000   0.000000   0.000000
    40  H    0.000590   0.000033  -0.000000   0.000000
    41  H    0.000012   0.000000  -0.000000  -0.000000
    42  H   -0.000005   0.000000  -0.000000  -0.000000
    43  H    0.437131   0.000494   0.000001   0.000000
    44  H    0.000494   0.411694  -0.001279   0.000005
    45  H    0.000001  -0.001279   0.438704  -0.001597
    46  H    0.000000   0.000005  -0.001597   0.476710
 Mulliken charges:
               1
     1  C   -0.361421
     2  C   -0.018121
     3  C   -0.102414
     4  C   -0.222046
     5  C   -0.034167
     6  C    0.166879
     7  C    0.083351
     8  C   -0.191102
     9  C   -0.126136
    10  C    0.064650
    11  C   -0.092612
    12  C   -0.113305
    13  C    0.146579
    14  O   -0.382740
    15  N   -0.086412
    16  B    0.344510
    17  F   -0.332647
    18  F   -0.334012
    19  N   -0.097027
    20  C    0.019727
    21  C   -0.043078
    22  C   -0.136561
    23  C    0.150805
    24  O   -0.387573
    25  C   -0.142745
    26  C   -0.166215
    27  C    0.060944
    28  C   -0.218165
    29  C   -0.106127
    30  H    0.132794
    31  H    0.147700
    32  H    0.122988
    33  H    0.152028
    34  H    0.190726
    35  H    0.215071
    36  H    0.185050
    37  H    0.139891
    38  H    0.136861
    39  H    0.113328
    40  H    0.125603
    41  H    0.149373
    42  H    0.110640
    43  H    0.181374
    44  H    0.211047
    45  H    0.189898
    46  H    0.152808
 Sum of Mulliken charges =  -0.00000
 Mulliken charges with hydrogens summed into heavy atoms:
               1
     1  C    0.042062
     2  C   -0.018121
     3  C    0.049614
     4  C   -0.031320
     5  C   -0.034167
     6  C    0.166879
     7  C    0.083351
     8  C    0.023970
     9  C    0.058914
    10  C    0.064650
    11  C    0.047279
    12  C    0.023556
    13  C    0.259908
    14  O   -0.382740
    15  N   -0.086412
    16  B    0.344510
    17  F   -0.332647
    18  F   -0.334012
    19  N   -0.097027
    20  C    0.019727
    21  C    0.082525
    22  C    0.012812
    23  C    0.261444
    24  O   -0.387573
    25  C    0.038629
    26  C    0.044833
    27  C    0.060944
    28  C   -0.028268
    29  C    0.046681
 Electronic spatial extent (au):  <R**2>=          13511.3521
 Charge=              0.0000 electrons
 Dipole moment (field-independent basis, Debye):
    X=             14.9779    Y=              5.3538    Z=              1.1593  Tot=             15.9482
 Quadrupole moment (field-independent basis, Debye-Ang):
   XX=           -170.7426   YY=           -153.0903   ZZ=           -170.7795
   XY=            -17.5832   XZ=             -7.8397   YZ=             -2.9838
 Traceless Quadrupole moment (field-independent basis, Debye-Ang):
   XX=             -5.8718   YY=             11.7805   ZZ=             -5.9087
   XY=            -17.5832   XZ=             -7.8397   YZ=             -2.9838
 Octapole moment (field-independent basis, Debye-Ang**2):
  XXX=            406.8328  YYY=            251.7246  ZZZ=              0.3518  XYY=             95.2256
  XXY=             44.1890  XXZ=             42.2309  XZZ=             -1.1881  YZZ=             -2.9550
  YYZ=             19.5122  XYZ=            -11.0328
 Hexadecapole moment (field-independent basis, Debye-Ang**3):
 XXXX=         -11281.2747 YYYY=          -5804.3449 ZZZZ=           -439.6195 XXXY=            -19.1486
 XXXZ=           -199.8542 YYYX=          -1080.2451 YYYZ=             42.9099 ZZZX=             12.7285
 ZZZY=            -21.9701 XXYY=          -3535.2107 XXZZ=          -2000.4594 YYZZ=          -1109.7500
 XXYZ=           -130.6603 YYXZ=           -129.9654 ZZXY=              5.1380
 N-N= 2.573516857038D+03 E-N=-8.259451201695D+03  KE= 1.326242943158D+03
 No NMR shielding tensors so no spin-rotation constants.
 Leave Link  601 at Thu Nov  6 03:52:10 2025, MaxMem= 30870077440 cpu:              66.1 elap:               1.2
 (Enter /public/software/gauss/g16/l9999.exe)
 1\1\GINC-CU015\SP\RM062X\def2TZVPP\C22H17B1F2N2O2\BAIDING\06-Nov-2025\
 0\\#p M062X/DEF2TZVPP scrf=(solvent=water) em=GD3\\Energy calculation 
 for M100032027\\0,1\C,0,7.350884,0.074297,0.049179\C,0,5.84459,0.06612
 4,0.041545\C,0,5.119916,0.865586,-0.85442\C,0,3.728405,0.847786,-0.875
 584\C,0,3.010654,0.00987,-0.00193\C,0,1.53574,-0.016628,-0.016138\C,0,
 0.799073,1.182278,0.026748\C,0,1.234828,2.532454,0.154878\C,0,0.108518
 ,3.32786,0.149584\C,0,-1.018202,2.469154,0.031675\C,0,-2.413564,2.8140
 42,-0.032051\C,0,-2.907066,4.065543,0.131523\C,0,-4.342668,4.332362,0.
 032548\O,0,-5.200711,3.480938,-0.205387\N,0,-0.583784,1.176595,-0.0390
 48\B,0,-1.483232,-0.094787,0.043091\F,0,-2.37846,-0.113755,-1.025804\F
 ,0,-2.187767,-0.07078,1.252927\N,0,-0.538206,-1.332457,-0.019674\C,0,-
 0.882176,-2.650482,-0.179358\C,0,-2.191348,-3.249183,-0.145975\C,0,-3.
 376208,-2.742925,0.275751\C,0,-4.588191,-3.562581,0.236692\O,0,-4.6518
 64,-4.713887,-0.198763\C,0,0.297859,-3.413794,-0.367438\C,0,1.373353,-
 2.550985,-0.301455\C,0,0.848268,-1.250353,-0.084241\C,0,3.734742,-0.80
 0238,0.894178\C,0,5.124725,-0.760642,0.91809\H,0,7.743924,-0.028411,1.
 065047\H,0,7.746401,-0.765251,-0.536197\H,0,7.747617,0.994752,-0.38735
 5\H,0,5.653737,1.509054,-1.548117\H,0,3.193973,1.460581,-1.593535\H,0,
 2.261313,2.854519,0.243658\H,0,0.066963,4.405625,0.214723\H,0,-3.11498
 3,2.011956,-0.239133\H,0,-2.264221,4.914561,0.343828\H,0,-4.637555,5.3
 85726,0.188904\H,0,-2.192854,-4.284683,-0.480718\H,0,-3.472514,-1.7450
 12,0.682724\H,0,-5.495696,-3.074622,0.636748\H,0,0.315026,-4.483386,-0
 .523778\H,0,2.418939,-2.79372,-0.414906\H,0,3.201966,-1.431991,1.59685
 8\H,0,5.661891,-1.377581,1.633149\\Version=ES64L-G16RevA.03\State=1-A\
 HF=-1333.2211628\RMSD=3.695e-09\Dipole=5.8927724,2.1063274,0.4560853\Q
 uadrupole=-4.3655352,8.758513,-4.3929778,-13.0726672,-5.8286222,-2.218
 3707\PG=C01 [X(C22H17B1F2N2O2)]\\@


 Everything starts as somebody's daydream.
                           -- Larry Niven
 Job cpu time:       0 days  9 hours  2 minutes 18.2 seconds.
 Elapsed time:       0 days  0 hours  8 minutes 36.3 seconds.
 File lengths (MBytes):  RWF=    882 Int=      0 D2E=      0 Chk=     77 Scr=      1
 Normal termination of Gaussian 16 at Thu Nov  6 03:52:10 2025.
