 Entering Gaussian System, Link 0=g16
 Input=M100033923_sp.gjf
 Output=M100033923_sp.log
 Initial command:
 /public/software/gauss/g16/l1.exe "/public/home/baiding/1101_v2_sp/tmp_M100033923_sp_1568608/Gau-4171788.inp" -scrdir="/public/home/baiding/1101_v2_sp/tmp_M100033923_sp_1568608/"
 Entering Link 1 = /public/software/gauss/g16/l1.exe PID=   4171789.
  
 Copyright (c) 1988,1990,1992,1993,1995,1998,2003,2009,2016,
            Gaussian, Inc.  All Rights Reserved.
  
 This is part of the Gaussian(R) 16 program.  It is based on
 the Gaussian(R) 09 system (copyright 2009, Gaussian, Inc.),
 the Gaussian(R) 03 system (copyright 2003, Gaussian, Inc.),
 the Gaussian(R) 98 system (copyright 1998, Gaussian, Inc.),
 the Gaussian(R) 94 system (copyright 1995, Gaussian, Inc.),
 the Gaussian 92(TM) system (copyright 1992, Gaussian, Inc.),
 the Gaussian 90(TM) system (copyright 1990, Gaussian, Inc.),
 the Gaussian 88(TM) system (copyright 1988, Gaussian, Inc.),
 the Gaussian 86(TM) system (copyright 1986, Carnegie Mellon
 University), and the Gaussian 82(TM) system (copyright 1983,
 Carnegie Mellon University). Gaussian is a federally registered
 trademark of Gaussian, Inc.
  
 This software contains proprietary and confidential information,
 including trade secrets, belonging to Gaussian, Inc.
  
 This software is provided under written license and may be
 used, copied, transmitted, or stored only in accord with that
 written license.
  
 The following legend is applicable only to US Government
 contracts under FAR:
  
                    RESTRICTED RIGHTS LEGEND
  
 Use, reproduction and disclosure by the US Government is
 subject to restrictions as set forth in subparagraphs (a)
 and (c) of the Commercial Computer Software - Restricted
 Rights clause in FAR 52.227-19.
  
 Gaussian, Inc.
 340 Quinnipiac St., Bldg. 40, Wallingford CT 06492
  
  
 ---------------------------------------------------------------
 Warning -- This program may not be used in any manner that
 competes with the business of Gaussian, Inc. or will provide
 assistance to any competitor of Gaussian, Inc.  The licensee
 of this program is prohibited from giving any competitor of
 Gaussian, Inc. access to this program.  By using this program,
 the user acknowledges that Gaussian, Inc. is engaged in the
 business of creating and licensing software in the field of
 computational chemistry and represents and warrants to the
 licensee that it is not a competitor of Gaussian, Inc. and that
 it will not use this program in any manner prohibited above.
 ---------------------------------------------------------------
  

 Cite this work as:
 Gaussian 16, Revision A.03,
 M. J. Frisch, G. W. Trucks, H. B. Schlegel, G. E. Scuseria, 
 M. A. Robb, J. R. Cheeseman, G. Scalmani, V. Barone, 
 G. A. Petersson, H. Nakatsuji, X. Li, M. Caricato, A. V. Marenich, 
 J. Bloino, B. G. Janesko, R. Gomperts, B. Mennucci, H. P. Hratchian, 
 J. V. Ortiz, A. F. Izmaylov, J. L. Sonnenberg, D. Williams-Young, 
 F. Ding, F. Lipparini, F. Egidi, J. Goings, B. Peng, A. Petrone, 
 T. Henderson, D. Ranasinghe, V. G. Zakrzewski, J. Gao, N. Rega, 
 G. Zheng, W. Liang, M. Hada, M. Ehara, K. Toyota, R. Fukuda, 
 J. Hasegawa, M. Ishida, T. Nakajima, Y. Honda, O. Kitao, H. Nakai, 
 T. Vreven, K. Throssell, J. A. Montgomery, Jr., J. E. Peralta, 
 F. Ogliaro, M. J. Bearpark, J. J. Heyd, E. N. Brothers, K. N. Kudin, 
 V. N. Staroverov, T. A. Keith, R. Kobayashi, J. Normand, 
 K. Raghavachari, A. P. Rendell, J. C. Burant, S. S. Iyengar, 
 J. Tomasi, M. Cossi, J. M. Millam, M. Klene, C. Adamo, R. Cammi, 
 J. W. Ochterski, R. L. Martin, K. Morokuma, O. Farkas, 
 J. B. Foresman, and D. J. Fox, Gaussian, Inc., Wallingford CT, 2016.
 
 ******************************************
 Gaussian 16:  ES64L-G16RevA.03 25-Dec-2016
                 6-Nov-2025 
 ******************************************
 %nprocshared=64
 Will use up to   64 processors via shared memory.
 %mem=230GB
 %chk=M100033923_sp.chk
 ----------------------------------------------
 #p M062X/DEF2TZVPP scrf=(solvent=water) em=GD3
 ----------------------------------------------
 1/38=1,172=1/1;
 2/12=2,17=6,18=5,40=1/2;
 3/5=44,7=202,11=2,25=1,30=1,70=2201,72=1,74=-55,124=31/1,2,3;
 4//1;
 5/5=2,38=5,53=1/2;
 6/7=2,8=2,9=2,10=2,28=1/1;
 99/5=1,9=1/99;
 Leave Link    1 at Thu Nov  6 19:08:37 2025, MaxMem= 30870077440 cpu:              14.4 elap:               0.2
 (Enter /public/software/gauss/g16/l101.exe)
 ---------------------------------
 Energy calculation for M100033923
 ---------------------------------
 Symbolic Z-matrix:
 Charge =  0 Multiplicity = 1
 C                     9.77469   1.62902   0.58771 
 O                     9.02459   0.68789  -0.1857 
 C                     7.65697   0.72587  -0.09368 
 C                     6.93999   1.62178   0.70748 
 C                     5.54514   1.56371   0.72317 
 C                     4.83484   0.62898  -0.04519 
 C                     3.35933   0.63473  -0.04153 
 C                     2.47182  -0.49147  -0.0662 
 C                     2.85685  -1.91093   0.00605 
 C                     2.40936  -2.86351  -0.922 
 C                     2.81748  -4.19522  -0.84867 
 C                     3.68473  -4.59898   0.17395 
 O                     4.14091  -5.87621   0.34327 
 C                     3.69643  -6.87964  -0.57674 
 C                     4.1434   -3.65779   1.10982 
 C                     3.74286  -2.33389   1.01842 
 N                     1.18616  -0.05014  -0.10928 
 C                     1.20705   1.34744  -0.094 
 C                     2.55641   1.76835  -0.0513 
 C                     0.02823   2.10143  -0.04942 
 C                     0.09628   3.58331  -0.08902 
 C                     0.7905    4.23494  -1.12351 
 C                     0.85737   5.6222   -1.16694 
 C                     0.23198   6.37834  -0.16181 
 C                     0.30288   7.80699  -0.19759 
 N                     0.3607    8.97115  -0.22649 
 C                    -0.46222   5.7393    0.87883 
 C                    -0.53093   4.35172   0.90739 
 C                    -1.22158   1.46014   0.03576 
 C                    -2.52122   1.99892  -0.02713 
 C                    -3.42467   0.93841   0.04306 
 C                    -4.89069   1.07344   0.07 
 C                    -5.69763   0.2597    0.88894 
 C                    -7.07485   0.43102   0.93152 
 C                    -7.67967   1.43196   0.15095 
 C                    -9.09648   1.61203   0.19154 
 N                    -10.25349   1.75926   0.22464 
 C                    -6.88859   2.25736  -0.66684 
 C                    -5.51276   2.07375  -0.70214 
 C                    -2.64666  -0.25682   0.13005 
 C                    -3.15152  -1.64179   0.13892 
 C                    -2.81305  -2.56129   1.15061 
 C                    -3.33843  -3.84558   1.14699 
 C                    -4.21268  -4.25083   0.12643 
 O                    -4.66984  -5.53668   0.20903 
 C                    -5.56792  -5.99976  -0.80563 
 C                    -4.56203  -3.34987  -0.88762 
 C                    -4.0381   -2.0582   -0.86665 
 N                    -1.32596   0.07141   0.13351 
 B                    -0.11481  -0.91419   0.01279 
 F                    -0.00977  -1.7162    1.14959 
 F                    -0.30047  -1.69829  -1.12879 
 C                     5.57815  -0.25909  -0.84794 
 C                     6.96537  -0.21391  -0.87305 
 H                     10.82348   1.42718   0.36654 
 H                     9.53502   2.6595    0.30379 
 H                     9.59713   1.49491   1.66037 
 H                     7.44907   2.35525   1.32084 
 H                     5.0002    2.25591   1.35826 
 H                     1.73624  -2.5636   -1.71472 
 H                     2.45857  -4.90045  -1.58806 
 H                     4.00975  -6.64731  -1.60005 
 H                     4.1699   -7.80749  -0.25412 
 H                     2.60788  -6.99434  -0.54306 
 H                     4.81119  -3.98491   1.90016 
 H                     4.10317  -1.61855   1.74999 
 H                     2.89424   2.79405  -0.04734 
 H                     1.26144   3.65132  -1.90632 
 H                     1.38505   6.12139  -1.9718 
 H                    -0.93671   6.32867   1.6554 
 H                    -1.05454   3.85853   1.71843 
 H                    -2.76623   3.04871  -0.09131 
 H                    -5.24048  -0.50001   1.51194 
 H                    -7.68551  -0.19687   1.57119 
 H                    -7.35591   3.02793  -1.27025 
 H                    -4.90948   2.70446  -1.3466 
 H                    -2.13885  -2.26342   1.94325 
 H                    -3.08531  -4.55147   1.93146 
 H                    -5.09935  -5.96974  -1.79503 
 H                    -5.80077  -7.03294  -0.54576 
 H                    -6.49076  -5.41029  -0.81831 
 H                    -5.23086  -3.64012  -1.68828 
 H                    -4.31256  -1.36785  -1.65768 
 H                     5.06289  -0.98079  -1.47266 
 H                     7.53277  -0.89561  -1.49881 
 
 ITRead=  0  0  0  0  0  0  0  0  0  0  0  0  0  0  0  0  0  0  0  0
 ITRead=  0  0  0  0  0  0  0  0  0  0  0  0  0  0  0  0  0  0  0  0
 ITRead=  0  0  0  0  0  0  0  0  0  0  0  0  0  0  0  0  0  0  0  0
 ITRead=  0  0  0  0  0  0  0  0  0  0  0  0  0  0  0  0  0  0  0  0
 ITRead=  0  0  0  0  0
 MicOpt= -1 -1 -1 -1 -1 -1 -1 -1 -1 -1 -1 -1 -1 -1 -1 -1 -1 -1 -1 -1
 MicOpt= -1 -1 -1 -1 -1 -1 -1 -1 -1 -1 -1 -1 -1 -1 -1 -1 -1 -1 -1 -1
 MicOpt= -1 -1 -1 -1 -1 -1 -1 -1 -1 -1 -1 -1 -1 -1 -1 -1 -1 -1 -1 -1
 MicOpt= -1 -1 -1 -1 -1 -1 -1 -1 -1 -1 -1 -1 -1 -1 -1 -1 -1 -1 -1 -1
 MicOpt= -1 -1 -1 -1 -1
 NAtoms=     85 NQM=       85 NQMF=       0 NMMI=      0 NMMIF=      0
                NMic=       0 NMicF=      0.
                    Isotopes and Nuclear Properties:
 (Nuclear quadrupole moments (NQMom) in fm**2, nuclear magnetic moments (NMagM)
  in nuclear magnetons)

  Atom         1           2           3           4           5           6           7           8           9          10
 IAtWgt=          12          16          12          12          12          12          12          12          12          12
 AtmWgt=  12.0000000  15.9949146  12.0000000  12.0000000  12.0000000  12.0000000  12.0000000  12.0000000  12.0000000  12.0000000
 NucSpn=           0           0           0           0           0           0           0           0           0           0
 AtZEff=  -0.0000000  -0.0000000  -0.0000000  -0.0000000  -0.0000000  -0.0000000  -0.0000000  -0.0000000  -0.0000000  -0.0000000
 NQMom=    0.0000000   0.0000000   0.0000000   0.0000000   0.0000000   0.0000000   0.0000000   0.0000000   0.0000000   0.0000000
 NMagM=    0.0000000   0.0000000   0.0000000   0.0000000   0.0000000   0.0000000   0.0000000   0.0000000   0.0000000   0.0000000
 AtZNuc=   6.0000000   8.0000000   6.0000000   6.0000000   6.0000000   6.0000000   6.0000000   6.0000000   6.0000000   6.0000000

  Atom        11          12          13          14          15          16          17          18          19          20
 IAtWgt=          12          12          16          12          12          12          14          12          12          12
 AtmWgt=  12.0000000  12.0000000  15.9949146  12.0000000  12.0000000  12.0000000  14.0030740  12.0000000  12.0000000  12.0000000
 NucSpn=           0           0           0           0           0           0           2           0           0           0
 AtZEff=  -0.0000000  -0.0000000  -0.0000000  -0.0000000  -0.0000000  -0.0000000  -0.0000000  -0.0000000  -0.0000000  -0.0000000
 NQMom=    0.0000000   0.0000000   0.0000000   0.0000000   0.0000000   0.0000000   2.0440000   0.0000000   0.0000000   0.0000000
 NMagM=    0.0000000   0.0000000   0.0000000   0.0000000   0.0000000   0.0000000   0.4037610   0.0000000   0.0000000   0.0000000
 AtZNuc=   6.0000000   6.0000000   8.0000000   6.0000000   6.0000000   6.0000000   7.0000000   6.0000000   6.0000000   6.0000000

  Atom        21          22          23          24          25          26          27          28          29          30
 IAtWgt=          12          12          12          12          12          14          12          12          12          12
 AtmWgt=  12.0000000  12.0000000  12.0000000  12.0000000  12.0000000  14.0030740  12.0000000  12.0000000  12.0000000  12.0000000
 NucSpn=           0           0           0           0           0           2           0           0           0           0
 AtZEff=  -0.0000000  -0.0000000  -0.0000000  -0.0000000  -0.0000000  -0.0000000  -0.0000000  -0.0000000  -0.0000000  -0.0000000
 NQMom=    0.0000000   0.0000000   0.0000000   0.0000000   0.0000000   2.0440000   0.0000000   0.0000000   0.0000000   0.0000000
 NMagM=    0.0000000   0.0000000   0.0000000   0.0000000   0.0000000   0.4037610   0.0000000   0.0000000   0.0000000   0.0000000
 AtZNuc=   6.0000000   6.0000000   6.0000000   6.0000000   6.0000000   7.0000000   6.0000000   6.0000000   6.0000000   6.0000000

  Atom        31          32          33          34          35          36          37          38          39          40
 IAtWgt=          12          12          12          12          12          12          14          12          12          12
 AtmWgt=  12.0000000  12.0000000  12.0000000  12.0000000  12.0000000  12.0000000  14.0030740  12.0000000  12.0000000  12.0000000
 NucSpn=           0           0           0           0           0           0           2           0           0           0
 AtZEff=  -0.0000000  -0.0000000  -0.0000000  -0.0000000  -0.0000000  -0.0000000  -0.0000000  -0.0000000  -0.0000000  -0.0000000
 NQMom=    0.0000000   0.0000000   0.0000000   0.0000000   0.0000000   0.0000000   2.0440000   0.0000000   0.0000000   0.0000000
 NMagM=    0.0000000   0.0000000   0.0000000   0.0000000   0.0000000   0.0000000   0.4037610   0.0000000   0.0000000   0.0000000
 AtZNuc=   6.0000000   6.0000000   6.0000000   6.0000000   6.0000000   6.0000000   7.0000000   6.0000000   6.0000000   6.0000000

  Atom        41          42          43          44          45          46          47          48          49          50
 IAtWgt=          12          12          12          12          16          12          12          12          14          11
 AtmWgt=  12.0000000  12.0000000  12.0000000  12.0000000  15.9949146  12.0000000  12.0000000  12.0000000  14.0030740  11.0093053
 NucSpn=           0           0           0           0           0           0           0           0           2           3
 AtZEff=  -0.0000000  -0.0000000  -0.0000000  -0.0000000  -0.0000000  -0.0000000  -0.0000000  -0.0000000  -0.0000000  -0.0000000
 NQMom=    0.0000000   0.0000000   0.0000000   0.0000000   0.0000000   0.0000000   0.0000000   0.0000000   2.0440000   4.0590000
 NMagM=    0.0000000   0.0000000   0.0000000   0.0000000   0.0000000   0.0000000   0.0000000   0.0000000   0.4037610   2.6886370
 AtZNuc=   6.0000000   6.0000000   6.0000000   6.0000000   8.0000000   6.0000000   6.0000000   6.0000000   7.0000000   5.0000000

  Atom        51          52          53          54          55          56          57          58          59          60
 IAtWgt=          19          19          12          12           1           1           1           1           1           1
 AtmWgt=  18.9984033  18.9984033  12.0000000  12.0000000   1.0078250   1.0078250   1.0078250   1.0078250   1.0078250   1.0078250
 NucSpn=           1           1           0           0           1           1           1           1           1           1
 AtZEff=  -0.0000000  -0.0000000  -0.0000000  -0.0000000  -0.0000000  -0.0000000  -0.0000000  -0.0000000  -0.0000000  -0.0000000
 NQMom=    0.0000000   0.0000000   0.0000000   0.0000000   0.0000000   0.0000000   0.0000000   0.0000000   0.0000000   0.0000000
 NMagM=    2.6288670   2.6288670   0.0000000   0.0000000   2.7928460   2.7928460   2.7928460   2.7928460   2.7928460   2.7928460
 AtZNuc=   9.0000000   9.0000000   6.0000000   6.0000000   1.0000000   1.0000000   1.0000000   1.0000000   1.0000000   1.0000000

  Atom        61          62          63          64          65          66          67          68          69          70
 IAtWgt=           1           1           1           1           1           1           1           1           1           1
 AtmWgt=   1.0078250   1.0078250   1.0078250   1.0078250   1.0078250   1.0078250   1.0078250   1.0078250   1.0078250   1.0078250
 NucSpn=           1           1           1           1           1           1           1           1           1           1
 AtZEff=  -0.0000000  -0.0000000  -0.0000000  -0.0000000  -0.0000000  -0.0000000  -0.0000000  -0.0000000  -0.0000000  -0.0000000
 NQMom=    0.0000000   0.0000000   0.0000000   0.0000000   0.0000000   0.0000000   0.0000000   0.0000000   0.0000000   0.0000000
 NMagM=    2.7928460   2.7928460   2.7928460   2.7928460   2.7928460   2.7928460   2.7928460   2.7928460   2.7928460   2.7928460
 AtZNuc=   1.0000000   1.0000000   1.0000000   1.0000000   1.0000000   1.0000000   1.0000000   1.0000000   1.0000000   1.0000000

  Atom        71          72          73          74          75          76          77          78          79          80
 IAtWgt=           1           1           1           1           1           1           1           1           1           1
 AtmWgt=   1.0078250   1.0078250   1.0078250   1.0078250   1.0078250   1.0078250   1.0078250   1.0078250   1.0078250   1.0078250
 NucSpn=           1           1           1           1           1           1           1           1           1           1
 AtZEff=  -0.0000000  -0.0000000  -0.0000000  -0.0000000  -0.0000000  -0.0000000  -0.0000000  -0.0000000  -0.0000000  -0.0000000
 NQMom=    0.0000000   0.0000000   0.0000000   0.0000000   0.0000000   0.0000000   0.0000000   0.0000000   0.0000000   0.0000000
 NMagM=    2.7928460   2.7928460   2.7928460   2.7928460   2.7928460   2.7928460   2.7928460   2.7928460   2.7928460   2.7928460
 AtZNuc=   1.0000000   1.0000000   1.0000000   1.0000000   1.0000000   1.0000000   1.0000000   1.0000000   1.0000000   1.0000000

  Atom        81          82          83          84          85
 IAtWgt=           1           1           1           1           1
 AtmWgt=   1.0078250   1.0078250   1.0078250   1.0078250   1.0078250
 NucSpn=           1           1           1           1           1
 AtZEff=  -0.0000000  -0.0000000  -0.0000000  -0.0000000  -0.0000000
 NQMom=    0.0000000   0.0000000   0.0000000   0.0000000   0.0000000
 NMagM=    2.7928460   2.7928460   2.7928460   2.7928460   2.7928460
 AtZNuc=   1.0000000   1.0000000   1.0000000   1.0000000   1.0000000
 Leave Link  101 at Thu Nov  6 19:08:37 2025, MaxMem= 30870077440 cpu:               4.2 elap:               0.1
 (Enter /public/software/gauss/g16/l202.exe)
 Stoichiometry    C44H31BF2N4O3
 Framework group  C1[X(C44H31BF2N4O3)]
 Deg. of freedom   249
 Full point group                 C1      NOp   1
 Largest Abelian subgroup         C1      NOp   1
 Largest concise Abelian subgroup C1      NOp   1
                         Standard orientation:                         
 ---------------------------------------------------------------------
 Center     Atomic      Atomic             Coordinates (Angstroms)
 Number     Number       Type             X           Y           Z
 ---------------------------------------------------------------------
      1          6           0        9.774687    1.629018    0.587710
      2          8           0        9.024589    0.687893   -0.185698
      3          6           0        7.656971    0.725867   -0.093678
      4          6           0        6.939993    1.621779    0.707480
      5          6           0        5.545139    1.563707    0.723166
      6          6           0        4.834838    0.628982   -0.045191
      7          6           0        3.359330    0.634731   -0.041530
      8          6           0        2.471817   -0.491470   -0.066203
      9          6           0        2.856845   -1.910926    0.006051
     10          6           0        2.409357   -2.863505   -0.921996
     11          6           0        2.817478   -4.195222   -0.848669
     12          6           0        3.684734   -4.598977    0.173954
     13          8           0        4.140913   -5.876213    0.343273
     14          6           0        3.696431   -6.879635   -0.576739
     15          6           0        4.143400   -3.657788    1.109819
     16          6           0        3.742863   -2.333887    1.018420
     17          7           0        1.186160   -0.050143   -0.109282
     18          6           0        1.207055    1.347439   -0.094003
     19          6           0        2.556405    1.768347   -0.051300
     20          6           0        0.028225    2.101435   -0.049418
     21          6           0        0.096276    3.583313   -0.089021
     22          6           0        0.790496    4.234941   -1.123511
     23          6           0        0.857368    5.622196   -1.166944
     24          6           0        0.231982    6.378338   -0.161812
     25          6           0        0.302882    7.806994   -0.197590
     26          7           0        0.360702    8.971150   -0.226489
     27          6           0       -0.462215    5.739303    0.878827
     28          6           0       -0.530930    4.351721    0.907394
     29          6           0       -1.221579    1.460142    0.035756
     30          6           0       -2.521220    1.998923   -0.027128
     31          6           0       -3.424674    0.938413    0.043061
     32          6           0       -4.890694    1.073435    0.069999
     33          6           0       -5.697630    0.259703    0.888938
     34          6           0       -7.074852    0.431017    0.931522
     35          6           0       -7.679671    1.431955    0.150946
     36          6           0       -9.096484    1.612025    0.191544
     37          7           0      -10.253493    1.759262    0.224639
     38          6           0       -6.888592    2.257357   -0.666841
     39          6           0       -5.512755    2.073749   -0.702136
     40          6           0       -2.646656   -0.256823    0.130054
     41          6           0       -3.151518   -1.641785    0.138921
     42          6           0       -2.813047   -2.561291    1.150611
     43          6           0       -3.338430   -3.845577    1.146995
     44          6           0       -4.212679   -4.250833    0.126427
     45          8           0       -4.669837   -5.536681    0.209025
     46          6           0       -5.567919   -5.999759   -0.805634
     47          6           0       -4.562032   -3.349874   -0.887617
     48          6           0       -4.038100   -2.058202   -0.866653
     49          7           0       -1.325962    0.071408    0.133508
     50          5           0       -0.114813   -0.914194    0.012789
     51          9           0       -0.009772   -1.716200    1.149585
     52          9           0       -0.300472   -1.698294   -1.128785
     53          6           0        5.578146   -0.259091   -0.847938
     54          6           0        6.965365   -0.213914   -0.873046
     55          1           0       10.823480    1.427180    0.366537
     56          1           0        9.535021    2.659502    0.303789
     57          1           0        9.597126    1.494913    1.660366
     58          1           0        7.449068    2.355249    1.320835
     59          1           0        5.000198    2.255914    1.358262
     60          1           0        1.736239   -2.563603   -1.714718
     61          1           0        2.458573   -4.900454   -1.588058
     62          1           0        4.009751   -6.647309   -1.600054
     63          1           0        4.169901   -7.807489   -0.254122
     64          1           0        2.607882   -6.994336   -0.543058
     65          1           0        4.811189   -3.984907    1.900163
     66          1           0        4.103167   -1.618554    1.749992
     67          1           0        2.894244    2.794054   -0.047338
     68          1           0        1.261440    3.651323   -1.906318
     69          1           0        1.385054    6.121388   -1.971803
     70          1           0       -0.936712    6.328666    1.655398
     71          1           0       -1.054542    3.858527    1.718429
     72          1           0       -2.766234    3.048710   -0.091310
     73          1           0       -5.240476   -0.500012    1.511936
     74          1           0       -7.685511   -0.196867    1.571192
     75          1           0       -7.355910    3.027930   -1.270247
     76          1           0       -4.909475    2.704463   -1.346598
     77          1           0       -2.138853   -2.263416    1.943250
     78          1           0       -3.085314   -4.551473    1.931460
     79          1           0       -5.099348   -5.969739   -1.795027
     80          1           0       -5.800767   -7.032937   -0.545759
     81          1           0       -6.490757   -5.410293   -0.818308
     82          1           0       -5.230857   -3.640120   -1.688282
     83          1           0       -4.312556   -1.367852   -1.657680
     84          1           0        5.062889   -0.980787   -1.472664
     85          1           0        7.532766   -0.895614   -1.498806
 ---------------------------------------------------------------------
 Rotational constants (GHZ):           0.0572878           0.0323236           0.0212665
 Leave Link  202 at Thu Nov  6 19:08:37 2025, MaxMem= 30870077440 cpu:               0.2 elap:               0.0
 (Enter /public/software/gauss/g16/l301.exe)
 Standard basis: def2TZVPP (5D, 7F)
 Ernie: Thresh=  0.10000D-02 Tol=  0.10000D-05 Strict=F.
 There are  2409 symmetry adapted cartesian basis functions of A   symmetry.
 There are  2108 symmetry adapted basis functions of A   symmetry.
  2108 basis functions,  3281 primitive gaussians,  2409 cartesian basis functions
   185 alpha electrons      185 beta electrons
       nuclear repulsion energy      6576.8139526055 Hartrees.
 IExCor= 4336 DFT=T Ex+Corr=M062X ExCW=0 ScaHFX=  0.540000
 ScaDFX=  1.000000  1.000000  1.000000  1.000000 ScalE2=  1.000000  1.000000
 IRadAn=      5 IRanWt=     -1 IRanGd=            0 ICorTp=0 IEmpDi=131
 NAtoms=   85 NActive=   85 NUniq=   85 SFac= 1.00D+00 NAtFMM=   60 NAOKFM=T Big=T
 Integral buffers will be    131072 words long.
 Raffenetti 2 integral format.
 Two-electron integral symmetry is turned on.
 R6Disp:  Grimme-D3 Dispersion energy=       -0.0080858563 Hartrees.
 Nuclear repulsion after empirical dispersion term =     6576.8058667492 Hartrees.
 ------------------------------------------------------------------------------
 Polarizable Continuum Model (PCM)
 =================================
 Model                : PCM.
 Atomic radii         : UFF (Universal Force Field).
 Polarization charges : Total charges.
 Charge compensation  : None.
 Solution method      : On-the-fly selection.
 Cavity type          : Scaled VdW (van der Waals Surface) (Alpha=1.100).
 Cavity algorithm     : GePol (No added spheres)
                        Default sphere list used, NSphG=   85.
                        Lebedev-Laikov grids with approx.  5.0 points / Ang**2.
                        Smoothing algorithm: York/Karplus (Gamma=1.0000).
                        Polarization charges: spherical gaussians, with
                                              point-specific exponents (IZeta= 3).
                        Self-potential: point-specific (ISelfS= 7).
                        Self-field    : sphere-specific E.n sum rule (ISelfD= 2).
 Solvent              : Water, Eps=  78.355300 Eps(inf)=   1.777849
 ------------------------------------------------------------------------------
 GePol: Number of generator spheres                  =      85
 GePol: Total number of spheres                      =      85
 GePol: Number of exposed spheres                    =      85 (100.00%)
 GePol: Number of points                             =    6276
 GePol: Average weight of points                     =       0.13
 GePol: Minimum weight of points                     =   0.11D-10
 GePol: Maximum weight of points                     =    0.20577
 GePol: Number of points with low weight             =     386
 GePol: Fraction of low-weight points (<1% of avg)   =       6.15%
 GePol: Cavity surface area                          =    802.316 Ang**2
 GePol: Cavity volume                                =    932.762 Ang**3
 Leave Link  301 at Thu Nov  6 19:08:37 2025, MaxMem= 30870077440 cpu:               3.7 elap:               0.1
 (Enter /public/software/gauss/g16/l302.exe)
 NPDir=0 NMtPBC=     1 NCelOv=     1 NCel=       1 NClECP=     1 NCelD=      1
         NCelK=      1 NCelE2=     1 NClLst=     1 CellRange=     0.0.
 One-electron integrals computed using PRISM.
 One-electron integral symmetry used in STVInt
   1 Symmetry operations used in ECPInt.
 ECPInt:  NShTT=  304590 NPrTT=  883737 LenC2=  189279 LenP2D=  361905.
 LDataN:  DoStor=T MaxTD1= 6 Len=  172
 NBasis=  2108 RedAO= T EigKep=  5.25D-06  NBF=  2108
 NBsUse=  2108 1.00D-06 EigRej= -1.00D+00 NBFU=  2108
 Precomputing XC quadrature grid using
 IXCGrd= 4 IRadAn=           5 IRanWt=          -1 IRanGd=           0 AccXCQ= 0.00D+00.
 Generated NRdTot=       0 NPtTot=           0 NUsed=           0 NTot=          32
 NSgBfM=  2112  2109  2110  2112  2112 MxSgAt=    85 MxSgA2=    85.
 Leave Link  302 at Thu Nov  6 19:08:50 2025, MaxMem= 30870077440 cpu:             811.0 elap:              12.7
 (Enter /public/software/gauss/g16/l303.exe)
 DipDrv:  MaxL=1.
 Leave Link  303 at Thu Nov  6 19:08:51 2025, MaxMem= 30870077440 cpu:              35.8 elap:               0.6
 (Enter /public/software/gauss/g16/l401.exe)
 ExpMin= 6.06D-02 ExpMax= 3.55D+04 ExpMxC= 1.21D+03 IAcc=3 IRadAn=         5 AccDes= 0.00D+00
 Harris functional with IExCor= 1009 and IRadAn=       5 diagonalized for initial guess.
 HarFok:  IExCor= 1009 AccDes= 0.00D+00 IRadAn=         5 IDoV= 1 UseB2=F ITyADJ=14
 ICtDFT=  3500011 ScaDFX=  1.000000  1.000000  1.000000  1.000000
 FoFCou: FMM=F IPFlag=           0 FMFlag=      100000 FMFlg1=        2001
         NFxFlg=           0 DoJE=T BraDBF=F KetDBF=T FulRan=T
         wScrn=  0.000000 ICntrl=       500 IOpCl=  0 I1Cent=   200000004 NGrid=           0
         NMat0=    1 NMatS0=      1 NMatT0=    0 NMatD0=    1 NMtDS0=    0 NMtDT0=    0
 Petite list used in FoFCou.
 Harris En= -2363.41123618598    
 JPrj=0 DoOrth=F DoCkMO=F.
 Leave Link  401 at Thu Nov  6 19:09:04 2025, MaxMem= 30870077440 cpu:             856.6 elap:              13.5
 (Enter /public/software/gauss/g16/l502.exe)
 Integral symmetry usage will be decided dynamically.
 Closed shell SCF:
 Using DIIS extrapolation, IDIIS=  1040.
 NGot= 30870077440 LenX= 30858296553 LenY= 30852490863
 Requested convergence on RMS density matrix=1.00D-08 within 128 cycles.
 Requested convergence on MAX density matrix=1.00D-06.
 Requested convergence on             energy=1.00D-06.
 No special actions if energy rises.
 Fock matrices will be formed incrementally for  20 cycles.

 Cycle   1  Pass 1  IDiag  1:
 FoFJK:  IHMeth= 1 ICntrl=       0 DoSepK=F KAlg= 0 I1Cent=           0 FoldK=F
 IRaf= 580000000 NMat=       1 IRICut=       1 DoRegI=T DoRafI=F ISym2E= 0 IDoP0=0 IntGTp=1.
 FoFCou: FMM=T IPFlag=           0 FMFlag=      100000 FMFlg1=        2001
         NFxFlg=           0 DoJE=F BraDBF=F KetDBF=F FulRan=T
         wScrn=  0.000000 ICntrl=         0 IOpCl=  0 I1Cent=           0 NGrid=           0
         NMat0=    1 NMatS0=      1 NMatT0=    0 NMatD0=    1 NMtDS0=    0 NMtDT0=    0
 Symmetry not used in FoFCou.
 FMM levels:  10  Number of levels for PrismC:   9
 Inv3:  Mode=1 IEnd=   118164528.
 Iteration    1 A*A^-1 deviation from unit magnitude is 1.49D-14 for   1568.
 Iteration    1 A*A^-1 deviation from orthogonality  is 5.21D-15 for   5198    651.
 Iteration    1 A^-1*A deviation from unit magnitude is 1.47D-14 for   1267.
 Iteration    1 A^-1*A deviation from orthogonality  is 1.14D-14 for   4495   1061.
 E= -2363.70653950977    
 DIIS: error= 1.22D-02 at cycle   1 NSaved=   1.
 NSaved= 1 IEnMin= 1 EnMin= -2363.70653950977     IErMin= 1 ErrMin= 1.22D-02
 ErrMax= 1.22D-02  0.00D+00 EMaxC= 1.00D-01 BMatC= 1.35D+00 BMatP= 1.35D+00
 IDIUse=3 WtCom= 8.78D-01 WtEn= 1.22D-01
 Coeff-Com:  0.100D+01
 Coeff-En:   0.100D+01
 Coeff:      0.100D+01
 Gap=     0.141 Goal=   None    Shift=    0.000
 GapD=    0.141 DampG=1.000 DampE=0.500 DampFc=0.5000 IDamp=-1.
 Damping current iteration by 5.00D-01
 RMSDP=1.59D-03 MaxDP=3.82D-01              OVMax= 1.42D-01

 Cycle   2  Pass 1  IDiag  1:
 RMSU=  7.93D-04    CP:  9.93D-01
 E= -2364.23835274308     Delta-E=       -0.531813233309 Rises=F Damp=T
 DIIS: error= 4.12D-03 at cycle   2 NSaved=   2.
 NSaved= 2 IEnMin= 2 EnMin= -2364.23835274308     IErMin= 2 ErrMin= 4.12D-03
 ErrMax= 4.12D-03  0.00D+00 EMaxC= 1.00D-01 BMatC= 1.46D-01 BMatP= 1.35D+00
 IDIUse=3 WtCom= 9.59D-01 WtEn= 4.12D-02
 Coeff-Com: -0.201D+00 0.120D+01
 Coeff-En:   0.000D+00 0.100D+01
 Coeff:     -0.193D+00 0.119D+01
 Gap=     0.164 Goal=   None    Shift=    0.000
 RMSDP=6.12D-04 MaxDP=6.40D-02 DE=-5.32D-01 OVMax= 8.55D-02

 Cycle   3  Pass 1  IDiag  1:
 RMSU=  5.96D-04    CP:  9.78D-01  1.16D+00
 E= -2364.67816593772     Delta-E=       -0.439813194636 Rises=F Damp=F
 DIIS: error= 4.64D-03 at cycle   3 NSaved=   3.
 NSaved= 3 IEnMin= 3 EnMin= -2364.67816593772     IErMin= 2 ErrMin= 4.12D-03
 ErrMax= 4.64D-03  0.00D+00 EMaxC= 1.00D-01 BMatC= 6.66D-02 BMatP= 1.46D-01
 IDIUse=3 WtCom= 9.54D-01 WtEn= 4.64D-02
 Coeff-Com: -0.162D+00 0.546D+00 0.617D+00
 Coeff-En:   0.000D+00 0.000D+00 0.100D+01
 Coeff:     -0.155D+00 0.520D+00 0.634D+00
 Gap=     0.146 Goal=   None    Shift=    0.000
 RMSDP=1.73D-04 MaxDP=1.94D-02 DE=-4.40D-01 OVMax= 5.08D-02

 Cycle   4  Pass 1  IDiag  1:
 RMSU=  1.65D-04    CP:  9.78D-01  1.20D+00  9.28D-01
 E= -2364.72236408667     Delta-E=       -0.044198148949 Rises=F Damp=F
 DIIS: error= 2.57D-03 at cycle   4 NSaved=   4.
 NSaved= 4 IEnMin= 4 EnMin= -2364.72236408667     IErMin= 4 ErrMin= 2.57D-03
 ErrMax= 2.57D-03  0.00D+00 EMaxC= 1.00D-01 BMatC= 1.49D-02 BMatP= 6.66D-02
 IDIUse=3 WtCom= 9.74D-01 WtEn= 2.57D-02
 Coeff-Com: -0.621D-01 0.159D+00 0.365D+00 0.538D+00
 Coeff-En:   0.000D+00 0.000D+00 0.178D+00 0.822D+00
 Coeff:     -0.605D-01 0.155D+00 0.360D+00 0.545D+00
 Gap=     0.146 Goal=   None    Shift=    0.000
 RMSDP=7.29D-05 MaxDP=1.10D-02 DE=-4.42D-02 OVMax= 2.07D-02

 Cycle   5  Pass 1  IDiag  1:
 RMSU=  4.89D-05    CP:  9.78D-01  1.20D+00  9.32D-01  6.73D-01
 E= -2364.73454133622     Delta-E=       -0.012177249549 Rises=F Damp=F
 DIIS: error= 6.21D-04 at cycle   5 NSaved=   5.
 NSaved= 5 IEnMin= 5 EnMin= -2364.73454133622     IErMin= 5 ErrMin= 6.21D-04
 ErrMax= 6.21D-04  0.00D+00 EMaxC= 1.00D-01 BMatC= 7.67D-04 BMatP= 1.49D-02
 IDIUse=3 WtCom= 9.94D-01 WtEn= 6.21D-03
 Coeff-Com: -0.184D-01 0.380D-01 0.135D+00 0.272D+00 0.573D+00
 Coeff-En:   0.000D+00 0.000D+00 0.000D+00 0.000D+00 0.100D+01
 Coeff:     -0.182D-01 0.378D-01 0.134D+00 0.271D+00 0.575D+00
 Gap=     0.147 Goal=   None    Shift=    0.000
 RMSDP=2.21D-05 MaxDP=2.74D-03 DE=-1.22D-02 OVMax= 4.42D-03

 Cycle   6  Pass 1  IDiag  1:
 RMSU=  1.94D-05    CP:  9.78D-01  1.21D+00  9.29D-01  6.63D-01  8.25D-01
 E= -2364.73517605776     Delta-E=       -0.000634721548 Rises=F Damp=F
 DIIS: error= 1.13D-04 at cycle   6 NSaved=   6.
 NSaved= 6 IEnMin= 6 EnMin= -2364.73517605776     IErMin= 6 ErrMin= 1.13D-04
 ErrMax= 1.13D-04  0.00D+00 EMaxC= 1.00D-01 BMatC= 4.76D-05 BMatP= 7.67D-04
 IDIUse=3 WtCom= 9.99D-01 WtEn= 1.13D-03
 Coeff-Com: -0.345D-02 0.548D-02 0.326D-01 0.772D-01 0.259D+00 0.629D+00
 Coeff-En:   0.000D+00 0.000D+00 0.000D+00 0.000D+00 0.000D+00 0.100D+01
 Coeff:     -0.344D-02 0.548D-02 0.326D-01 0.771D-01 0.259D+00 0.629D+00
 Gap=     0.148 Goal=   None    Shift=    0.000
 RMSDP=5.79D-06 MaxDP=1.09D-03 DE=-6.35D-04 OVMax= 1.73D-03

 Cycle   7  Pass 1  IDiag  1:
 RMSU=  5.07D-06    CP:  9.78D-01  1.21D+00  9.28D-01  6.65D-01  8.79D-01
                    CP:  9.66D-01
 E= -2364.73521760793     Delta-E=       -0.000041550162 Rises=F Damp=F
 DIIS: error= 3.05D-05 at cycle   7 NSaved=   7.
 NSaved= 7 IEnMin= 7 EnMin= -2364.73521760793     IErMin= 7 ErrMin= 3.05D-05
 ErrMax= 3.05D-05  0.00D+00 EMaxC= 1.00D-01 BMatC= 5.90D-06 BMatP= 4.76D-05
 IDIUse=1 WtCom= 1.00D+00 WtEn= 0.00D+00
 Coeff-Com:  0.883D-03-0.256D-02-0.335D-02-0.237D-02 0.421D-01 0.285D+00
 Coeff-Com:  0.680D+00
 Coeff:      0.883D-03-0.256D-02-0.335D-02-0.237D-02 0.421D-01 0.285D+00
 Coeff:      0.680D+00
 Gap=     0.148 Goal=   None    Shift=    0.000
 RMSDP=2.95D-06 MaxDP=6.71D-04 DE=-4.16D-05 OVMax= 6.04D-04

 Cycle   8  Pass 1  IDiag  1:
 RMSU=  2.08D-06    CP:  9.78D-01  1.21D+00  9.28D-01  6.62D-01  9.07D-01
                    CP:  1.02D+00  1.14D+00
 E= -2364.73522342780     Delta-E=       -0.000005819877 Rises=F Damp=F
 DIIS: error= 9.07D-06 at cycle   8 NSaved=   8.
 NSaved= 8 IEnMin= 8 EnMin= -2364.73522342780     IErMin= 8 ErrMin= 9.07D-06
 ErrMax= 9.07D-06  0.00D+00 EMaxC= 1.00D-01 BMatC= 8.18D-07 BMatP= 5.90D-06
 IDIUse=1 WtCom= 1.00D+00 WtEn= 0.00D+00
 Coeff-Com:  0.104D-02-0.227D-02-0.703D-02-0.142D-01-0.228D-01 0.316D-01
 Coeff-Com:  0.306D+00 0.708D+00
 Coeff:      0.104D-02-0.227D-02-0.703D-02-0.142D-01-0.228D-01 0.316D-01
 Coeff:      0.306D+00 0.708D+00
 Gap=     0.148 Goal=   None    Shift=    0.000
 RMSDP=1.46D-06 MaxDP=2.90D-04 DE=-5.82D-06 OVMax= 4.03D-04

 Cycle   9  Pass 1  IDiag  1:
 RMSU=  9.10D-07    CP:  9.78D-01  1.21D+00  9.28D-01  6.60D-01  9.22D-01
                    CP:  1.05D+00  1.23D+00  1.09D+00
 E= -2364.73522443884     Delta-E=       -0.000001011042 Rises=F Damp=F
 DIIS: error= 3.75D-06 at cycle   9 NSaved=   9.
 NSaved= 9 IEnMin= 9 EnMin= -2364.73522443884     IErMin= 9 ErrMin= 3.75D-06
 ErrMax= 3.75D-06  0.00D+00 EMaxC= 1.00D-01 BMatC= 8.20D-08 BMatP= 8.18D-07
 IDIUse=1 WtCom= 1.00D+00 WtEn= 0.00D+00
 Coeff-Com:  0.312D-03-0.626D-03-0.229D-02-0.520D-02-0.120D-01-0.108D-01
 Coeff-Com:  0.523D-01 0.276D+00 0.703D+00
 Coeff:      0.312D-03-0.626D-03-0.229D-02-0.520D-02-0.120D-01-0.108D-01
 Coeff:      0.523D-01 0.276D+00 0.703D+00
 Gap=     0.148 Goal=   None    Shift=    0.000
 RMSDP=3.71D-07 MaxDP=9.05D-05 DE=-1.01D-06 OVMax= 1.98D-04

 Cycle  10  Pass 1  IDiag  1:
 RMSU=  2.68D-07    CP:  9.78D-01  1.21D+00  9.28D-01  6.60D-01  9.23D-01
                    CP:  1.05D+00  1.24D+00  1.18D+00  1.02D+00
 E= -2364.73522454555     Delta-E=       -0.000000106706 Rises=F Damp=F
 DIIS: error= 1.50D-06 at cycle  10 NSaved=  10.
 NSaved=10 IEnMin=10 EnMin= -2364.73522454555     IErMin=10 ErrMin= 1.50D-06
 ErrMax= 1.50D-06  0.00D+00 EMaxC= 1.00D-01 BMatC= 2.13D-08 BMatP= 8.20D-08
 IDIUse=1 WtCom= 1.00D+00 WtEn= 0.00D+00
 Coeff-Com: -0.212D-04 0.685D-04 0.692D-04-0.160D-03-0.216D-02-0.108D-01
 Coeff-Com: -0.291D-01 0.121D-01 0.357D+00 0.673D+00
 Coeff:     -0.212D-04 0.685D-04 0.692D-04-0.160D-03-0.216D-02-0.108D-01
 Coeff:     -0.291D-01 0.121D-01 0.357D+00 0.673D+00
 Gap=     0.148 Goal=   None    Shift=    0.000
 RMSDP=2.36D-07 MaxDP=6.16D-05 DE=-1.07D-07 OVMax= 6.38D-05

 Cycle  11  Pass 1  IDiag  1:
 RMSU=  1.42D-07    CP:  9.78D-01  1.21D+00  9.28D-01  6.59D-01  9.24D-01
                    CP:  1.05D+00  1.25D+00  1.23D+00  1.14D+00  1.05D+00
 E= -2364.73522457395     Delta-E=       -0.000000028404 Rises=F Damp=F
 DIIS: error= 6.69D-07 at cycle  11 NSaved=  11.
 NSaved=11 IEnMin=11 EnMin= -2364.73522457395     IErMin=11 ErrMin= 6.69D-07
 ErrMax= 6.69D-07  0.00D+00 EMaxC= 1.00D-01 BMatC= 2.72D-09 BMatP= 2.13D-08
 IDIUse=1 WtCom= 1.00D+00 WtEn= 0.00D+00
 Coeff-Com: -0.592D-04 0.132D-03 0.403D-03 0.780D-03 0.900D-03-0.346D-02
 Coeff-Com: -0.227D-01-0.381D-01 0.566D-01 0.311D+00 0.694D+00
 Coeff:     -0.592D-04 0.132D-03 0.403D-03 0.780D-03 0.900D-03-0.346D-02
 Coeff:     -0.227D-01-0.381D-01 0.566D-01 0.311D+00 0.694D+00
 Gap=     0.148 Goal=   None    Shift=    0.000
 RMSDP=8.40D-08 MaxDP=1.33D-05 DE=-2.84D-08 OVMax= 3.90D-05

 Cycle  12  Pass 1  IDiag  1:
 RMSU=  6.00D-08    CP:  9.78D-01  1.21D+00  9.28D-01  6.59D-01  9.24D-01
                    CP:  1.05D+00  1.25D+00  1.24D+00  1.18D+00  1.15D+00
                    CP:  9.23D-01
 E= -2364.73522457806     Delta-E=       -0.000000004111 Rises=F Damp=F
 DIIS: error= 3.10D-07 at cycle  12 NSaved=  12.
 NSaved=12 IEnMin=12 EnMin= -2364.73522457806     IErMin=12 ErrMin= 3.10D-07
 ErrMax= 3.10D-07  0.00D+00 EMaxC= 1.00D-01 BMatC= 4.41D-10 BMatP= 2.72D-09
 IDIUse=1 WtCom= 1.00D+00 WtEn= 0.00D+00
 Coeff-Com: -0.215D-04 0.451D-04 0.166D-03 0.374D-03 0.713D-03 0.105D-03
 Coeff-Com: -0.568D-02-0.181D-01-0.289D-01 0.372D-01 0.322D+00 0.692D+00
 Coeff:     -0.215D-04 0.451D-04 0.166D-03 0.374D-03 0.713D-03 0.105D-03
 Coeff:     -0.568D-02-0.181D-01-0.289D-01 0.372D-01 0.322D+00 0.692D+00
 Gap=     0.148 Goal=   None    Shift=    0.000
 RMSDP=2.96D-08 MaxDP=7.33D-06 DE=-4.11D-09 OVMax= 1.19D-05

 Cycle  13  Pass 1  IDiag  1:
 RMSU=  2.04D-08    CP:  9.78D-01  1.21D+00  9.28D-01  6.59D-01  9.24D-01
                    CP:  1.05D+00  1.25D+00  1.24D+00  1.19D+00  1.19D+00
                    CP:  1.03D+00  9.66D-01
 E= -2364.73522457869     Delta-E=       -0.000000000629 Rises=F Damp=F
 DIIS: error= 8.65D-08 at cycle  13 NSaved=  13.
 NSaved=13 IEnMin=13 EnMin= -2364.73522457869     IErMin=13 ErrMin= 8.65D-08
 ErrMax= 8.65D-08  0.00D+00 EMaxC= 1.00D-01 BMatC= 5.30D-11 BMatP= 4.41D-10
 IDIUse=1 WtCom= 1.00D+00 WtEn= 0.00D+00
 Coeff-Com:  0.965D-06-0.294D-05 0.284D-05 0.266D-04 0.128D-03 0.532D-03
 Coeff-Com:  0.117D-02-0.860D-03-0.200D-01-0.340D-01 0.203D-01 0.268D+00
 Coeff-Com:  0.765D+00
 Coeff:      0.965D-06-0.294D-05 0.284D-05 0.266D-04 0.128D-03 0.532D-03
 Coeff:      0.117D-02-0.860D-03-0.200D-01-0.340D-01 0.203D-01 0.268D+00
 Coeff:      0.765D+00
 Gap=     0.148 Goal=   None    Shift=    0.000
 RMSDP=1.34D-08 MaxDP=2.57D-06 DE=-6.29D-10 OVMax= 6.77D-06

 Cycle  14  Pass 1  IDiag  1:
 RMSU=  7.46D-09    CP:  9.78D-01  1.21D+00  9.28D-01  6.59D-01  9.24D-01
                    CP:  1.05D+00  1.25D+00  1.24D+00  1.19D+00  1.20D+00
                    CP:  1.05D+00  1.12D+00  1.20D+00
 E= -2364.73522457880     Delta-E=       -0.000000000109 Rises=F Damp=F
 DIIS: error= 3.29D-08 at cycle  14 NSaved=  14.
 NSaved=14 IEnMin=14 EnMin= -2364.73522457880     IErMin=14 ErrMin= 3.29D-08
 ErrMax= 3.29D-08  0.00D+00 EMaxC= 1.00D-01 BMatC= 8.41D-12 BMatP= 5.30D-11
 IDIUse=1 WtCom= 1.00D+00 WtEn= 0.00D+00
 Coeff-Com:  0.317D-05-0.702D-05-0.207D-04-0.386D-04-0.433D-04 0.183D-03
 Coeff-Com:  0.117D-02 0.214D-02-0.348D-02-0.177D-01-0.396D-01-0.960D-02
 Coeff-Com:  0.270D+00 0.797D+00
 Coeff:      0.317D-05-0.702D-05-0.207D-04-0.386D-04-0.433D-04 0.183D-03
 Coeff:      0.117D-02 0.214D-02-0.348D-02-0.177D-01-0.396D-01-0.960D-02
 Coeff:      0.270D+00 0.797D+00
 Gap=     0.148 Goal=   None    Shift=    0.000
 RMSDP=6.57D-09 MaxDP=1.25D-06 DE=-1.09D-10 OVMax= 4.41D-06

 Cycle  15  Pass 1  IDiag  1:
 RMSU=  3.01D-09    CP:  9.78D-01  1.21D+00  9.28D-01  6.59D-01  9.24D-01
                    CP:  1.05D+00  1.25D+00  1.24D+00  1.19D+00  1.21D+00
                    CP:  1.06D+00  1.15D+00  1.41D+00  1.29D+00
 E= -2364.73522457882     Delta-E=       -0.000000000015 Rises=F Damp=F
 DIIS: error= 2.01D-08 at cycle  15 NSaved=  15.
 NSaved=15 IEnMin=15 EnMin= -2364.73522457882     IErMin=15 ErrMin= 2.01D-08
 ErrMax= 2.01D-08  0.00D+00 EMaxC= 1.00D-01 BMatC= 1.73D-12 BMatP= 8.41D-12
 IDIUse=1 WtCom= 1.00D+00 WtEn= 0.00D+00
 Coeff-Com:  0.709D-06-0.145D-05-0.704D-05-0.167D-04-0.372D-04-0.483D-04
 Coeff-Com:  0.137D-03 0.922D-03 0.272D-02 0.139D-02-0.171D-01-0.540D-01
 Coeff-Com: -0.519D-01 0.284D+00 0.834D+00
 Coeff:      0.709D-06-0.145D-05-0.704D-05-0.167D-04-0.372D-04-0.483D-04
 Coeff:      0.137D-03 0.922D-03 0.272D-02 0.139D-02-0.171D-01-0.540D-01
 Coeff:     -0.519D-01 0.284D+00 0.834D+00
 Gap=     0.148 Goal=   None    Shift=    0.000
 RMSDP=3.51D-09 MaxDP=5.66D-07 DE=-1.46D-11 OVMax= 2.88D-06

 Error on total polarization charges =  0.02538
 SCF Done:  E(RM062X) =  -2364.73522458     A.U. after   15 cycles
            NFock= 15  Conv=0.35D-08     -V/T= 2.0055
 KE= 2.351889204128D+03 PE=-1.866137051543D+04 EE= 7.367940219973D+03
 Leave Link  502 at Thu Nov  6 19:31:26 2025, MaxMem= 30870077440 cpu:           84349.4 elap:            1342.0
 (Enter /public/software/gauss/g16/l601.exe)
 Copying SCF densities to generalized density rwf, IOpCl= 0 IROHF=0.

 **********************************************************************

            Population analysis using the SCF density.

 **********************************************************************

 Orbital symmetries:
       Occupied  (A) (A) (A) (A) (A) (A) (A) (A) (A) (A) (A) (A)
                 (A) (A) (A) (A) (A) (A) (A) (A) (A) (A) (A) (A)
                 (A) (A) (A) (A) (A) (A) (A) (A) (A) (A) (A) (A)
                 (A) (A) (A) (A) (A) (A) (A) (A) (A) (A) (A) (A)
                 (A) (A) (A) (A) (A) (A) (A) (A) (A) (A) (A) (A)
                 (A) (A) (A) (A) (A) (A) (A) (A) (A) (A) (A) (A)
                 (A) (A) (A) (A) (A) (A) (A) (A) (A) (A) (A) (A)
                 (A) (A) (A) (A) (A) (A) (A) (A) (A) (A) (A) (A)
                 (A) (A) (A) (A) (A) (A) (A) (A) (A) (A) (A) (A)
                 (A) (A) (A) (A) (A) (A) (A) (A) (A) (A) (A) (A)
                 (A) (A) (A) (A) (A) (A) (A) (A) (A) (A) (A) (A)
                 (A) (A) (A) (A) (A) (A) (A) (A) (A) (A) (A) (A)
                 (A) (A) (A) (A) (A) (A) (A) (A) (A) (A) (A) (A)
                 (A) (A) (A) (A) (A) (A) (A) (A) (A) (A) (A) (A)
                 (A) (A) (A) (A) (A) (A) (A) (A) (A) (A) (A) (A)
                 (A) (A) (A) (A) (A)
       Virtual   (A) (A) (A) (A) (A) (A) (A) (A) (A) (A) (A) (A)
                 (A) (A) (A) (A) (A) (A) (A) (A) (A) (A) (A) (A)
                 (A) (A) (A) (A) (A) (A) (A) (A) (A) (A) (A) (A)
                 (A) (A) (A) (A) (A) (A) (A) (A) (A) (A) (A) (A)
                 (A) (A) (A) (A) (A) (A) (A) (A) (A) (A) (A) (A)
                 (A) (A) (A) (A) (A) (A) (A) (A) (A) (A) (A) (A)
                 (A) (A) (A) (A) (A) (A) (A) (A) (A) (A) (A) (A)
                 (A) (A) (A) (A) (A) (A) (A) (A) (A) (A) (A) (A)
                 (A) (A) (A) (A) (A) (A) (A) (A) (A) (A) (A) (A)
                 (A) (A) (A) (A) (A) (A) (A) (A) (A) (A) (A) (A)
                 (A) (A) (A) (A) (A) (A) (A) (A) (A) (A) (A) (A)
                 (A) (A) (A) (A) (A) (A) (A) (A) (A) (A) (A) (A)
                 (A) (A) (A) (A) (A) (A) (A) (A) (A) (A) (A) (A)
                 (A) (A) (A) (A) (A) (A) (A) (A) (A) (A) (A) (A)
                 (A) (A) (A) (A) (A) (A) (A) (A) (A) (A) (A) (A)
                 (A) (A) (A) (A) (A) (A) (A) (A) (A) (A) (A) (A)
                 (A) (A) (A) (A) (A) (A) (A) (A) (A) (A) (A) (A)
                 (A) (A) (A) (A) (A) (A) (A) (A) (A) (A) (A) (A)
                 (A) (A) (A) (A) (A) (A) (A) (A) (A) (A) (A) (A)
                 (A) (A) (A) (A) (A) (A) (A) (A) (A) (A) (A) (A)
                 (A) (A) (A) (A) (A) (A) (A) (A) (A) (A) (A) (A)
                 (A) (A) (A) (A) (A) (A) (A) (A) (A) (A) (A) (A)
                 (A) (A) (A) (A) (A) (A) (A) (A) (A) (A) (A) (A)
                 (A) (A) (A) (A) (A) (A) (A) (A) (A) (A) (A) (A)
                 (A) (A) (A) (A) (A) (A) (A) (A) (A) (A) (A) (A)
                 (A) (A) (A) (A) (A) (A) (A) (A) (A) (A) (A) (A)
                 (A) (A) (A) (A) (A) (A) (A) (A) (A) (A) (A) (A)
                 (A) (A) (A) (A) (A) (A) (A) (A) (A) (A) (A) (A)
                 (A) (A) (A) (A) (A) (A) (A) (A) (A) (A) (A) (A)
                 (A) (A) (A) (A) (A) (A) (A) (A) (A) (A) (A) (A)
                 (A) (A) (A) (A) (A) (A) (A) (A) (A) (A) (A) (A)
                 (A) (A) (A) (A) (A) (A) (A) (A) (A) (A) (A) (A)
                 (A) (A) (A) (A) (A) (A) (A) (A) (A) (A) (A) (A)
                 (A) (A) (A) (A) (A) (A) (A) (A) (A) (A) (A) (A)
                 (A) (A) (A) (A) (A) (A) (A) (A) (A) (A) (A) (A)
                 (A) (A) (A) (A) (A) (A) (A) (A) (A) (A) (A) (A)
                 (A) (A) (A) (A) (A) (A) (A) (A) (A) (A) (A) (A)
                 (A) (A) (A) (A) (A) (A) (A) (A) (A) (A) (A) (A)
                 (A) (A) (A) (A) (A) (A) (A) (A) (A) (A) (A) (A)
                 (A) (A) (A) (A) (A) (A) (A) (A) (A) (A) (A) (A)
                 (A) (A) (A) (A) (A) (A) (A) (A) (A) (A) (A) (A)
                 (A) (A) (A) (A) (A) (A) (A) (A) (A) (A) (A) (A)
                 (A) (A) (A) (A) (A) (A) (A) (A) (A) (A) (A) (A)
                 (A) (A) (A) (A) (A) (A) (A) (A) (A) (A) (A) (A)
                 (A) (A) (A) (A) (A) (A) (A) (A) (A) (A) (A) (A)
                 (A) (A) (A) (A) (A) (A) (A) (A) (A) (A) (A) (A)
                 (A) (A) (A) (A) (A) (A) (A) (A) (A) (A) (A) (A)
                 (A) (A) (A) (A) (A) (A) (A) (A) (A) (A) (A) (A)
                 (A) (A) (A) (A) (A) (A) (A) (A) (A) (A) (A) (A)
                 (A) (A) (A) (A) (A) (A) (A) (A) (A) (A) (A) (A)
                 (A) (A) (A) (A) (A) (A) (A) (A) (A) (A) (A) (A)
                 (A) (A) (A) (A) (A) (A) (A) (A) (A) (A) (A) (A)
                 (A) (A) (A) (A) (A) (A) (A) (A) (A) (A) (A) (A)
                 (A) (A) (A) (A) (A) (A) (A) (A) (A) (A) (A) (A)
                 (A) (A) (A) (A) (A) (A) (A) (A) (A) (A) (A) (A)
                 (A) (A) (A) (A) (A) (A) (A) (A) (A) (A) (A) (A)
                 (A) (A) (A) (A) (A) (A) (A) (A) (A) (A) (A) (A)
                 (A) (A) (A) (A) (A) (A) (A) (A) (A) (A) (A) (A)
                 (A) (A) (A) (A) (A) (A) (A) (A) (A) (A) (A) (A)
                 (A) (A) (A) (A) (A) (A) (A) (A) (A) (A) (A) (A)
                 (A) (A) (A) (A) (A) (A) (A) (A) (A) (A) (A) (A)
                 (A) (A) (A) (A) (A) (A) (A) (A) (A) (A) (A) (A)
                 (A) (A) (A) (A) (A) (A) (A) (A) (A) (A) (A) (A)
                 (A) (A) (A) (A) (A) (A) (A) (A) (A) (A) (A) (A)
                 (A) (A) (A) (A) (A) (A) (A) (A) (A) (A) (A) (A)
                 (A) (A) (A) (A) (A) (A) (A) (A) (A) (A) (A) (A)
                 (A) (A) (A) (A) (A) (A) (A) (A) (A) (A) (A) (A)
                 (A) (A) (A) (A) (A) (A) (A) (A) (A) (A) (A) (A)
                 (A) (A) (A) (A) (A) (A) (A) (A) (A) (A) (A) (A)
                 (A) (A) (A) (A) (A) (A) (A) (A) (A) (A) (A) (A)
                 (A) (A) (A) (A) (A) (A) (A) (A) (A) (A) (A) (A)
                 (A) (A) (A) (A) (A) (A) (A) (A) (A) (A) (A) (A)
                 (A) (A) (A) (A) (A) (A) (A) (A) (A) (A) (A) (A)
                 (A) (A) (A) (A) (A) (A) (A) (A) (A) (A) (A) (A)
                 (A) (A) (A) (A) (A) (A) (A) (A) (A) (A) (A) (A)
                 (A) (A) (A) (A) (A) (A) (A) (A) (A) (A) (A) (A)
                 (A) (A) (A) (A) (A) (A) (A) (A) (A) (A) (A) (A)
                 (A) (A) (A) (A) (A) (A) (A) (A) (A) (A) (A) (A)
                 (A) (A) (A) (A) (A) (A) (A) (A) (A) (A) (A) (A)
                 (A) (A) (A) (A) (A) (A) (A) (A) (A) (A) (A) (A)
                 (A) (A) (A) (A) (A) (A) (A) (A) (A) (A) (A) (A)
                 (A) (A) (A) (A) (A) (A) (A) (A) (A) (A) (A) (A)
                 (A) (A) (A) (A) (A) (A) (A) (A) (A) (A) (A) (A)
                 (A) (A) (A) (A) (A) (A) (A) (A) (A) (A) (A) (A)
                 (A) (A) (A) (A) (A) (A) (A) (A) (A) (A) (A) (A)
                 (A) (A) (A) (A) (A) (A) (A) (A) (A) (A) (A) (A)
                 (A) (A) (A) (A) (A) (A) (A) (A) (A) (A) (A) (A)
                 (A) (A) (A) (A) (A) (A) (A) (A) (A) (A) (A) (A)
                 (A) (A) (A) (A) (A) (A) (A) (A) (A) (A) (A) (A)
                 (A) (A) (A) (A) (A) (A) (A) (A) (A) (A) (A) (A)
                 (A) (A) (A) (A) (A) (A) (A) (A) (A) (A) (A) (A)
                 (A) (A) (A) (A) (A) (A) (A) (A) (A) (A) (A) (A)
                 (A) (A) (A) (A) (A) (A) (A) (A) (A) (A) (A) (A)
                 (A) (A) (A) (A) (A) (A) (A) (A) (A) (A) (A) (A)
                 (A) (A) (A) (A) (A) (A) (A) (A) (A) (A) (A) (A)
                 (A) (A) (A) (A) (A) (A) (A) (A) (A) (A) (A) (A)
                 (A) (A) (A) (A) (A) (A) (A) (A) (A) (A) (A) (A)
                 (A) (A) (A) (A) (A) (A) (A) (A) (A) (A) (A) (A)
                 (A) (A) (A) (A) (A) (A) (A) (A) (A) (A) (A) (A)
                 (A) (A) (A) (A) (A) (A) (A) (A) (A) (A) (A) (A)
                 (A) (A) (A) (A) (A) (A) (A) (A) (A) (A) (A) (A)
                 (A) (A) (A) (A) (A) (A) (A) (A) (A) (A) (A) (A)
                 (A) (A) (A) (A) (A) (A) (A) (A) (A) (A) (A) (A)
                 (A) (A) (A) (A) (A) (A) (A) (A) (A) (A) (A) (A)
                 (A) (A) (A) (A) (A) (A) (A) (A) (A) (A) (A) (A)
                 (A) (A) (A) (A) (A) (A) (A) (A) (A) (A) (A) (A)
                 (A) (A) (A) (A) (A) (A) (A) (A) (A) (A) (A) (A)
                 (A) (A) (A) (A) (A) (A) (A) (A) (A) (A) (A) (A)
                 (A) (A) (A) (A) (A) (A) (A) (A) (A) (A) (A) (A)
                 (A) (A) (A) (A) (A) (A) (A) (A) (A) (A) (A) (A)
                 (A) (A) (A) (A) (A) (A) (A) (A) (A) (A) (A) (A)
                 (A) (A) (A) (A) (A) (A) (A) (A) (A) (A) (A) (A)
                 (A) (A) (A) (A) (A) (A) (A) (A) (A) (A) (A) (A)
                 (A) (A) (A) (A) (A) (A) (A) (A) (A) (A) (A) (A)
                 (A) (A) (A) (A) (A) (A) (A) (A) (A) (A) (A) (A)
                 (A) (A) (A) (A) (A) (A) (A) (A) (A) (A) (A) (A)
                 (A) (A) (A) (A) (A) (A) (A) (A) (A) (A) (A) (A)
                 (A) (A) (A) (A) (A) (A) (A) (A) (A) (A) (A) (A)
                 (A) (A) (A) (A) (A) (A) (A) (A) (A) (A) (A) (A)
                 (A) (A) (A) (A) (A) (A) (A) (A) (A) (A) (A) (A)
                 (A) (A) (A) (A) (A) (A) (A) (A) (A) (A) (A) (A)
                 (A) (A) (A) (A) (A) (A) (A) (A) (A) (A) (A) (A)
                 (A) (A) (A) (A) (A) (A) (A) (A) (A) (A) (A) (A)
                 (A) (A) (A) (A) (A) (A) (A) (A) (A) (A) (A) (A)
                 (A) (A) (A) (A) (A) (A) (A) (A) (A) (A) (A) (A)
                 (A) (A) (A) (A) (A) (A) (A) (A) (A) (A) (A) (A)
                 (A) (A) (A) (A) (A) (A) (A) (A) (A) (A) (A) (A)
                 (A) (A) (A) (A) (A) (A) (A) (A) (A) (A) (A) (A)
                 (A) (A) (A) (A) (A) (A) (A) (A) (A) (A) (A) (A)
                 (A) (A) (A) (A) (A) (A) (A) (A) (A) (A) (A) (A)
                 (A) (A) (A) (A) (A) (A) (A) (A) (A) (A) (A) (A)
                 (A) (A) (A) (A) (A) (A) (A) (A) (A) (A) (A) (A)
                 (A) (A) (A) (A) (A) (A) (A) (A) (A) (A) (A) (A)
                 (A) (A) (A) (A) (A) (A) (A) (A) (A) (A) (A) (A)
                 (A) (A) (A) (A) (A) (A) (A) (A) (A) (A) (A) (A)
                 (A) (A) (A) (A) (A) (A) (A) (A) (A) (A) (A) (A)
                 (A) (A) (A) (A) (A) (A) (A) (A) (A) (A) (A) (A)
                 (A) (A) (A) (A) (A) (A) (A) (A) (A) (A) (A) (A)
                 (A) (A) (A) (A) (A) (A) (A) (A) (A) (A) (A) (A)
                 (A) (A) (A) (A) (A) (A) (A) (A) (A) (A) (A) (A)
                 (A) (A) (A) (A) (A) (A) (A) (A) (A) (A) (A) (A)
                 (A) (A) (A) (A) (A) (A) (A) (A) (A) (A) (A) (A)
                 (A) (A) (A) (A) (A) (A) (A) (A) (A) (A) (A) (A)
                 (A) (A) (A) (A) (A) (A) (A) (A) (A) (A) (A) (A)
                 (A) (A) (A) (A) (A) (A) (A) (A) (A) (A) (A) (A)
                 (A) (A) (A) (A) (A) (A) (A) (A) (A) (A) (A) (A)
                 (A) (A) (A) (A) (A) (A) (A) (A) (A) (A) (A) (A)
                 (A) (A) (A) (A) (A) (A) (A) (A) (A) (A) (A) (A)
                 (A) (A) (A) (A) (A) (A) (A) (A) (A) (A) (A) (A)
                 (A) (A) (A) (A) (A) (A) (A) (A) (A) (A) (A) (A)
                 (A) (A) (A) (A) (A) (A) (A) (A) (A) (A) (A) (A)
                 (A) (A) (A) (A) (A) (A) (A) (A) (A) (A) (A) (A)
                 (A) (A) (A) (A) (A) (A) (A) (A) (A) (A) (A) (A)
                 (A) (A) (A) (A) (A) (A) (A) (A) (A) (A) (A) (A)
                 (A) (A) (A) (A) (A) (A) (A) (A) (A) (A) (A) (A)
                 (A) (A) (A) (A) (A) (A) (A) (A) (A) (A) (A) (A)
                 (A) (A) (A) (A) (A) (A) (A) (A) (A) (A) (A) (A)
                 (A) (A) (A) (A) (A) (A) (A) (A) (A) (A) (A) (A)
                 (A) (A) (A) (A) (A) (A) (A) (A) (A) (A) (A) (A)
                 (A) (A) (A) (A) (A) (A) (A) (A) (A) (A) (A) (A)
                 (A) (A) (A)
 The electronic state is 1-A.
 Alpha  occ. eigenvalues --  -25.20870 -25.20864 -19.66696 -19.66669 -19.66347
 Alpha  occ. eigenvalues --  -14.79862 -14.79800 -14.77398 -14.76883 -10.61851
 Alpha  occ. eigenvalues --  -10.61825 -10.61792 -10.61653 -10.61597 -10.61313
 Alpha  occ. eigenvalues --  -10.60541 -10.60157 -10.59845 -10.59784 -10.59755
 Alpha  occ. eigenvalues --  -10.59520 -10.59443 -10.59128 -10.59127 -10.58986
 Alpha  occ. eigenvalues --  -10.58389 -10.58116 -10.58114 -10.57596 -10.57593
 Alpha  occ. eigenvalues --  -10.57396 -10.57364 -10.56724 -10.56645 -10.56584
 Alpha  occ. eigenvalues --  -10.56578 -10.56578 -10.56480 -10.56432 -10.56413
 Alpha  occ. eigenvalues --  -10.56133 -10.56110 -10.56016 -10.55901 -10.55820
 Alpha  occ. eigenvalues --  -10.55493 -10.55429 -10.55279 -10.55207 -10.55058
 Alpha  occ. eigenvalues --  -10.55012 -10.54978 -10.54768  -7.14167  -1.32860
 Alpha  occ. eigenvalues --   -1.29746  -1.19534  -1.19508  -1.19120  -1.11705
 Alpha  occ. eigenvalues --   -1.09889  -1.03431  -1.02909  -1.00229  -0.98966
 Alpha  occ. eigenvalues --   -0.97643  -0.97315  -0.97004  -0.94755  -0.92484
 Alpha  occ. eigenvalues --   -0.91031  -0.88974  -0.88875  -0.87729  -0.86900
 Alpha  occ. eigenvalues --   -0.86810  -0.86371  -0.85910  -0.85812  -0.85561
 Alpha  occ. eigenvalues --   -0.85011  -0.82620  -0.80771  -0.79527  -0.78649
 Alpha  occ. eigenvalues --   -0.77036  -0.75399  -0.73448  -0.72731  -0.71903
 Alpha  occ. eigenvalues --   -0.71054  -0.70889  -0.70779  -0.70359  -0.69512
 Alpha  occ. eigenvalues --   -0.69002  -0.67160  -0.66860  -0.66304  -0.65065
 Alpha  occ. eigenvalues --   -0.64701  -0.64356  -0.63002  -0.62305  -0.61494
 Alpha  occ. eigenvalues --   -0.61231  -0.60595  -0.59817  -0.59074  -0.57579
 Alpha  occ. eigenvalues --   -0.56998  -0.56705  -0.56575  -0.56214  -0.55692
 Alpha  occ. eigenvalues --   -0.55555  -0.55290  -0.55277  -0.55177  -0.55043
 Alpha  occ. eigenvalues --   -0.54770  -0.53758  -0.53110  -0.53051  -0.52814
 Alpha  occ. eigenvalues --   -0.52518  -0.52040  -0.51853  -0.51629  -0.51565
 Alpha  occ. eigenvalues --   -0.50927  -0.50734  -0.50490  -0.50199  -0.49905
 Alpha  occ. eigenvalues --   -0.49484  -0.49473  -0.49077  -0.48737  -0.48609
 Alpha  occ. eigenvalues --   -0.48496  -0.48069  -0.47871  -0.47703  -0.47388
 Alpha  occ. eigenvalues --   -0.46860  -0.46668  -0.46180  -0.45988  -0.45659
 Alpha  occ. eigenvalues --   -0.45072  -0.44920  -0.44676  -0.44195  -0.44038
 Alpha  occ. eigenvalues --   -0.43712  -0.43653  -0.43552  -0.43281  -0.43204
 Alpha  occ. eigenvalues --   -0.43106  -0.42760  -0.42204  -0.41419  -0.40892
 Alpha  occ. eigenvalues --   -0.40467  -0.40328  -0.40086  -0.39974  -0.39862
 Alpha  occ. eigenvalues --   -0.39467  -0.37358  -0.35518  -0.34221  -0.33888
 Alpha  occ. eigenvalues --   -0.33418  -0.32808  -0.32594  -0.32208  -0.31680
 Alpha  occ. eigenvalues --   -0.31086  -0.30001  -0.28764  -0.27849  -0.24969
 Alpha virt. eigenvalues --   -0.10181  -0.03959  -0.03550  -0.00872  -0.00469
 Alpha virt. eigenvalues --   -0.00274   0.00259   0.00800   0.01448   0.01637
 Alpha virt. eigenvalues --    0.02447   0.05354   0.05837   0.06107   0.06190
 Alpha virt. eigenvalues --    0.06883   0.06956   0.07238   0.07795   0.07954
 Alpha virt. eigenvalues --    0.08117   0.08565   0.08840   0.09015   0.09185
 Alpha virt. eigenvalues --    0.09264   0.09546   0.09678   0.09962   0.10118
 Alpha virt. eigenvalues --    0.10450   0.10661   0.11162   0.11373   0.11431
 Alpha virt. eigenvalues --    0.11793   0.12071   0.12197   0.12331   0.12640
 Alpha virt. eigenvalues --    0.13063   0.13468   0.13730   0.14116   0.14182
 Alpha virt. eigenvalues --    0.14308   0.14518   0.14535   0.14795   0.15164
 Alpha virt. eigenvalues --    0.15329   0.15482   0.15635   0.15877   0.16043
 Alpha virt. eigenvalues --    0.16249   0.16404   0.16613   0.17058   0.17284
 Alpha virt. eigenvalues --    0.17468   0.17553   0.17689   0.17955   0.18075
 Alpha virt. eigenvalues --    0.18494   0.18835   0.19142   0.19322   0.19421
 Alpha virt. eigenvalues --    0.20262   0.20464   0.20838   0.20940   0.21205
 Alpha virt. eigenvalues --    0.21447   0.21663   0.21773   0.22059   0.22414
 Alpha virt. eigenvalues --    0.22697   0.23060   0.23124   0.23412   0.23501
 Alpha virt. eigenvalues --    0.23704   0.23849   0.24014   0.24045   0.24347
 Alpha virt. eigenvalues --    0.24399   0.24495   0.24746   0.25021   0.25183
 Alpha virt. eigenvalues --    0.25413   0.25459   0.25576   0.25811   0.26096
 Alpha virt. eigenvalues --    0.26363   0.26609   0.26895   0.26984   0.27008
 Alpha virt. eigenvalues --    0.27150   0.27315   0.27529   0.27608   0.27911
 Alpha virt. eigenvalues --    0.28327   0.28523   0.28682   0.29058   0.29158
 Alpha virt. eigenvalues --    0.29437   0.29545   0.29692   0.29886   0.30015
 Alpha virt. eigenvalues --    0.30411   0.30538   0.30857   0.30938   0.31111
 Alpha virt. eigenvalues --    0.31476   0.31610   0.31997   0.32233   0.32569
 Alpha virt. eigenvalues --    0.32661   0.32788   0.33009   0.33185   0.33412
 Alpha virt. eigenvalues --    0.33530   0.33892   0.34117   0.34365   0.34654
 Alpha virt. eigenvalues --    0.34779   0.34950   0.35160   0.35604   0.35661
 Alpha virt. eigenvalues --    0.35898   0.36015   0.36097   0.36463   0.36659
 Alpha virt. eigenvalues --    0.36771   0.36952   0.36994   0.37311   0.37475
 Alpha virt. eigenvalues --    0.37750   0.37785   0.37870   0.38243   0.38360
 Alpha virt. eigenvalues --    0.38480   0.38728   0.38842   0.39159   0.39313
 Alpha virt. eigenvalues --    0.39350   0.39587   0.39726   0.39836   0.39938
 Alpha virt. eigenvalues --    0.40114   0.40280   0.40591   0.40667   0.40813
 Alpha virt. eigenvalues --    0.40972   0.41227   0.41273   0.41607   0.41820
 Alpha virt. eigenvalues --    0.41965   0.42166   0.42418   0.42667   0.42783
 Alpha virt. eigenvalues --    0.43028   0.43141   0.43416   0.43574   0.43652
 Alpha virt. eigenvalues --    0.43772   0.43868   0.43993   0.44347   0.44580
 Alpha virt. eigenvalues --    0.44908   0.45105   0.45232   0.45363   0.45513
 Alpha virt. eigenvalues --    0.45716   0.45736   0.46034   0.46446   0.46637
 Alpha virt. eigenvalues --    0.46842   0.47026   0.47130   0.47201   0.47527
 Alpha virt. eigenvalues --    0.47587   0.47666   0.47902   0.48194   0.48545
 Alpha virt. eigenvalues --    0.48763   0.48849   0.49170   0.49228   0.49361
 Alpha virt. eigenvalues --    0.49592   0.49657   0.49819   0.49860   0.50116
 Alpha virt. eigenvalues --    0.50303   0.50379   0.50585   0.50915   0.51035
 Alpha virt. eigenvalues --    0.51340   0.51346   0.51626   0.51913   0.52127
 Alpha virt. eigenvalues --    0.52233   0.52419   0.52755   0.52784   0.53226
 Alpha virt. eigenvalues --    0.53246   0.53454   0.53739   0.53999   0.54181
 Alpha virt. eigenvalues --    0.54247   0.54928   0.55257   0.55603   0.55706
 Alpha virt. eigenvalues --    0.56022   0.56363   0.56634   0.56747   0.57138
 Alpha virt. eigenvalues --    0.57365   0.57565   0.58049   0.58184   0.58532
 Alpha virt. eigenvalues --    0.58715   0.58818   0.59084   0.59249   0.59510
 Alpha virt. eigenvalues --    0.59667   0.59868   0.60444   0.60689   0.61028
 Alpha virt. eigenvalues --    0.61104   0.61555   0.61789   0.62093   0.62472
 Alpha virt. eigenvalues --    0.62600   0.62953   0.63276   0.63496   0.63760
 Alpha virt. eigenvalues --    0.64006   0.64025   0.64344   0.64563   0.64622
 Alpha virt. eigenvalues --    0.64738   0.64840   0.65133   0.65214   0.65640
 Alpha virt. eigenvalues --    0.65835   0.66001   0.66203   0.66279   0.66488
 Alpha virt. eigenvalues --    0.66656   0.67073   0.67196   0.67417   0.67558
 Alpha virt. eigenvalues --    0.67768   0.67797   0.68012   0.68355   0.68634
 Alpha virt. eigenvalues --    0.68666   0.68745   0.69140   0.69227   0.69517
 Alpha virt. eigenvalues --    0.69636   0.70036   0.70182   0.70232   0.70702
 Alpha virt. eigenvalues --    0.70941   0.71113   0.71199   0.71568   0.71679
 Alpha virt. eigenvalues --    0.71941   0.72052   0.72391   0.72431   0.72697
 Alpha virt. eigenvalues --    0.72860   0.73160   0.73609   0.73777   0.74030
 Alpha virt. eigenvalues --    0.74283   0.74374   0.74605   0.75042   0.75315
 Alpha virt. eigenvalues --    0.75386   0.75823   0.75930   0.76246   0.76386
 Alpha virt. eigenvalues --    0.76741   0.76882   0.76956   0.77291   0.77771
 Alpha virt. eigenvalues --    0.78123   0.78270   0.78772   0.78868   0.79070
 Alpha virt. eigenvalues --    0.79577   0.79918   0.80148   0.80562   0.80940
 Alpha virt. eigenvalues --    0.81067   0.81359   0.81662   0.81849   0.81924
 Alpha virt. eigenvalues --    0.81981   0.82471   0.82632   0.82794   0.83046
 Alpha virt. eigenvalues --    0.83433   0.83580   0.83810   0.84270   0.84314
 Alpha virt. eigenvalues --    0.84794   0.84938   0.85086   0.85476   0.85612
 Alpha virt. eigenvalues --    0.85916   0.86022   0.86351   0.86646   0.87085
 Alpha virt. eigenvalues --    0.87274   0.87610   0.87697   0.88053   0.88143
 Alpha virt. eigenvalues --    0.88802   0.88991   0.89165   0.89313   0.89481
 Alpha virt. eigenvalues --    0.89853   0.90275   0.90382   0.90862   0.91116
 Alpha virt. eigenvalues --    0.91222   0.91344   0.91431   0.91699   0.92132
 Alpha virt. eigenvalues --    0.92261   0.92696   0.93054   0.93127   0.93420
 Alpha virt. eigenvalues --    0.93761   0.94111   0.94250   0.94431   0.94634
 Alpha virt. eigenvalues --    0.94751   0.95018   0.95568   0.95756   0.96239
 Alpha virt. eigenvalues --    0.96594   0.97006   0.97084   0.97481   0.97719
 Alpha virt. eigenvalues --    0.97823   0.97894   0.98266   0.98441   0.98611
 Alpha virt. eigenvalues --    0.98913   0.99161   0.99547   0.99726   0.99989
 Alpha virt. eigenvalues --    1.00510   1.00729   1.00769   1.00985   1.01311
 Alpha virt. eigenvalues --    1.01683   1.01782   1.01941   1.02163   1.02364
 Alpha virt. eigenvalues --    1.02733   1.02872   1.03431   1.03689   1.03821
 Alpha virt. eigenvalues --    1.04187   1.04339   1.04523   1.04854   1.05071
 Alpha virt. eigenvalues --    1.05312   1.05760   1.05947   1.06160   1.06409
 Alpha virt. eigenvalues --    1.06569   1.06840   1.07156   1.07400   1.07758
 Alpha virt. eigenvalues --    1.08248   1.08589   1.08608   1.08944   1.09256
 Alpha virt. eigenvalues --    1.09611   1.09705   1.09863   1.10220   1.10416
 Alpha virt. eigenvalues --    1.10570   1.10951   1.11111   1.11585   1.11840
 Alpha virt. eigenvalues --    1.12342   1.12532   1.12781   1.13126   1.13458
 Alpha virt. eigenvalues --    1.13662   1.13829   1.14051   1.14212   1.14404
 Alpha virt. eigenvalues --    1.14920   1.15189   1.15272   1.15600   1.15757
 Alpha virt. eigenvalues --    1.15954   1.16404   1.16690   1.16838   1.17522
 Alpha virt. eigenvalues --    1.17617   1.17926   1.18178   1.18766   1.18909
 Alpha virt. eigenvalues --    1.19098   1.19690   1.19732   1.20112   1.20731
 Alpha virt. eigenvalues --    1.21105   1.21308   1.21520   1.21733   1.22202
 Alpha virt. eigenvalues --    1.22441   1.22462   1.22893   1.23355   1.23681
 Alpha virt. eigenvalues --    1.23764   1.24099   1.24127   1.24351   1.24518
 Alpha virt. eigenvalues --    1.24594   1.24949   1.25185   1.25906   1.26245
 Alpha virt. eigenvalues --    1.26400   1.26642   1.26659   1.27028   1.27515
 Alpha virt. eigenvalues --    1.27596   1.27877   1.28425   1.28606   1.28961
 Alpha virt. eigenvalues --    1.29065   1.29411   1.29513   1.30018   1.30154
 Alpha virt. eigenvalues --    1.30406   1.30645   1.30940   1.30982   1.31162
 Alpha virt. eigenvalues --    1.31348   1.31851   1.32051   1.32411   1.32716
 Alpha virt. eigenvalues --    1.33098   1.33223   1.33543   1.33939   1.34180
 Alpha virt. eigenvalues --    1.34974   1.35206   1.35446   1.35840   1.36043
 Alpha virt. eigenvalues --    1.36137   1.36527   1.36679   1.36997   1.37478
 Alpha virt. eigenvalues --    1.37757   1.38157   1.38597   1.38845   1.39009
 Alpha virt. eigenvalues --    1.39382   1.39692   1.39960   1.40077   1.40386
 Alpha virt. eigenvalues --    1.40441   1.41015   1.41075   1.41154   1.41598
 Alpha virt. eigenvalues --    1.41734   1.42066   1.42186   1.42387   1.42586
 Alpha virt. eigenvalues --    1.42902   1.43091   1.43326   1.43511   1.43802
 Alpha virt. eigenvalues --    1.44053   1.44313   1.44537   1.44852   1.45012
 Alpha virt. eigenvalues --    1.45256   1.45310   1.45492   1.45532   1.45889
 Alpha virt. eigenvalues --    1.45958   1.46223   1.46600   1.47110   1.47274
 Alpha virt. eigenvalues --    1.47357   1.47811   1.48143   1.48404   1.48692
 Alpha virt. eigenvalues --    1.49087   1.49243   1.49353   1.49671   1.49888
 Alpha virt. eigenvalues --    1.50324   1.50607   1.50910   1.51105   1.51201
 Alpha virt. eigenvalues --    1.51764   1.51887   1.52503   1.52973   1.53100
 Alpha virt. eigenvalues --    1.53547   1.54098   1.54316   1.54503   1.54695
 Alpha virt. eigenvalues --    1.54824   1.55109   1.55334   1.55615   1.55838
 Alpha virt. eigenvalues --    1.56337   1.56714   1.57109   1.57284   1.57709
 Alpha virt. eigenvalues --    1.57720   1.57936   1.58180   1.58241   1.58510
 Alpha virt. eigenvalues --    1.58692   1.58842   1.59001   1.59221   1.59542
 Alpha virt. eigenvalues --    1.59748   1.59787   1.60103   1.60404   1.60756
 Alpha virt. eigenvalues --    1.60872   1.61379   1.61795   1.61979   1.62147
 Alpha virt. eigenvalues --    1.62456   1.62909   1.63367   1.63630   1.63785
 Alpha virt. eigenvalues --    1.64388   1.64527   1.65122   1.65383   1.65512
 Alpha virt. eigenvalues --    1.65832   1.66150   1.67008   1.67181   1.67548
 Alpha virt. eigenvalues --    1.67763   1.67873   1.67976   1.68388   1.68659
 Alpha virt. eigenvalues --    1.68724   1.69416   1.69633   1.70062   1.70313
 Alpha virt. eigenvalues --    1.70647   1.70899   1.71310   1.71572   1.71822
 Alpha virt. eigenvalues --    1.71979   1.72098   1.72743   1.72868   1.73139
 Alpha virt. eigenvalues --    1.73288   1.73538   1.73660   1.73947   1.74169
 Alpha virt. eigenvalues --    1.75057   1.75376   1.75881   1.76497   1.76622
 Alpha virt. eigenvalues --    1.76791   1.77746   1.78139   1.78655   1.79266
 Alpha virt. eigenvalues --    1.80058   1.80292   1.80828   1.81088   1.81774
 Alpha virt. eigenvalues --    1.82136   1.82549   1.83256   1.83675   1.83864
 Alpha virt. eigenvalues --    1.84334   1.84549   1.85004   1.85588   1.86197
 Alpha virt. eigenvalues --    1.86509   1.87216   1.87668   1.87692   1.88051
 Alpha virt. eigenvalues --    1.88695   1.88707   1.89299   1.89591   1.90176
 Alpha virt. eigenvalues --    1.90275   1.90378   1.90713   1.90926   1.91044
 Alpha virt. eigenvalues --    1.91363   1.91448   1.91550   1.91902   1.92216
 Alpha virt. eigenvalues --    1.92423   1.92634   1.93274   1.93484   1.93992
 Alpha virt. eigenvalues --    1.94119   1.94270   1.94622   1.95230   1.95294
 Alpha virt. eigenvalues --    1.95735   1.96195   1.96443   1.96708   1.97688
 Alpha virt. eigenvalues --    1.97893   1.98253   1.98811   1.99174   1.99568
 Alpha virt. eigenvalues --    1.99867   2.00785   2.00921   2.01069   2.01764
 Alpha virt. eigenvalues --    2.01984   2.02838   2.03141   2.03526   2.03914
 Alpha virt. eigenvalues --    2.04255   2.04876   2.05141   2.05302   2.05879
 Alpha virt. eigenvalues --    2.06686   2.07049   2.07202   2.07595   2.08305
 Alpha virt. eigenvalues --    2.08516   2.08908   2.09131   2.09698   2.09884
 Alpha virt. eigenvalues --    2.10354   2.10960   2.11227   2.11509   2.12156
 Alpha virt. eigenvalues --    2.12374   2.12976   2.13228   2.13807   2.14083
 Alpha virt. eigenvalues --    2.14428   2.14745   2.15011   2.15575   2.15943
 Alpha virt. eigenvalues --    2.16205   2.16452   2.17295   2.17654   2.18223
 Alpha virt. eigenvalues --    2.18528   2.18857   2.19554   2.19685   2.20012
 Alpha virt. eigenvalues --    2.20220   2.20802   2.20841   2.21978   2.22173
 Alpha virt. eigenvalues --    2.22622   2.22940   2.23502   2.23936   2.24241
 Alpha virt. eigenvalues --    2.24986   2.25465   2.25916   2.26169   2.26493
 Alpha virt. eigenvalues --    2.26691   2.27276   2.27544   2.28038   2.28168
 Alpha virt. eigenvalues --    2.28412   2.28841   2.29208   2.29532   2.30395
 Alpha virt. eigenvalues --    2.30708   2.31343   2.31938   2.32542   2.33670
 Alpha virt. eigenvalues --    2.34111   2.34281   2.35055   2.35385   2.35793
 Alpha virt. eigenvalues --    2.35911   2.36277   2.36731   2.36935   2.37314
 Alpha virt. eigenvalues --    2.37611   2.38208   2.38572   2.38999   2.39627
 Alpha virt. eigenvalues --    2.39977   2.40062   2.40532   2.41175   2.41284
 Alpha virt. eigenvalues --    2.42002   2.42162   2.42409   2.43060   2.43572
 Alpha virt. eigenvalues --    2.44028   2.44142   2.44512   2.45059   2.45676
 Alpha virt. eigenvalues --    2.45977   2.46729   2.47424   2.47654   2.48112
 Alpha virt. eigenvalues --    2.48493   2.48604   2.49239   2.50052   2.50222
 Alpha virt. eigenvalues --    2.51042   2.52039   2.52505   2.53404   2.53836
 Alpha virt. eigenvalues --    2.54535   2.54883   2.55019   2.55601   2.55836
 Alpha virt. eigenvalues --    2.56329   2.56637   2.57111   2.57666   2.58087
 Alpha virt. eigenvalues --    2.58107   2.58171   2.58527   2.58578   2.59794
 Alpha virt. eigenvalues --    2.60110   2.60621   2.60973   2.61096   2.62036
 Alpha virt. eigenvalues --    2.62441   2.63448   2.63896   2.64595   2.65014
 Alpha virt. eigenvalues --    2.65085   2.65807   2.65862   2.66621   2.67012
 Alpha virt. eigenvalues --    2.67596   2.67731   2.67907   2.68102   2.68435
 Alpha virt. eigenvalues --    2.68798   2.69104   2.69276   2.70037   2.70351
 Alpha virt. eigenvalues --    2.70716   2.70896   2.71069   2.71517   2.72093
 Alpha virt. eigenvalues --    2.72244   2.72459   2.72680   2.72778   2.73127
 Alpha virt. eigenvalues --    2.73565   2.74022   2.74272   2.74608   2.74909
 Alpha virt. eigenvalues --    2.75177   2.75464   2.75895   2.76345   2.76835
 Alpha virt. eigenvalues --    2.77099   2.77292   2.77691   2.77908   2.78018
 Alpha virt. eigenvalues --    2.78223   2.78530   2.78751   2.79245   2.79269
 Alpha virt. eigenvalues --    2.79545   2.79723   2.79996   2.80237   2.80541
 Alpha virt. eigenvalues --    2.80734   2.81046   2.81337   2.81609   2.81666
 Alpha virt. eigenvalues --    2.81940   2.82244   2.82410   2.82596   2.83329
 Alpha virt. eigenvalues --    2.83553   2.83740   2.83819   2.84014   2.84309
 Alpha virt. eigenvalues --    2.84671   2.85062   2.85399   2.85658   2.85732
 Alpha virt. eigenvalues --    2.86311   2.86409   2.86553   2.87259   2.87573
 Alpha virt. eigenvalues --    2.87811   2.88021   2.88574   2.88833   2.88987
 Alpha virt. eigenvalues --    2.89232   2.89259   2.89603   2.89670   2.89883
 Alpha virt. eigenvalues --    2.90027   2.90242   2.90599   2.90914   2.91251
 Alpha virt. eigenvalues --    2.91435   2.91490   2.91563   2.91880   2.92213
 Alpha virt. eigenvalues --    2.92275   2.92565   2.92775   2.93059   2.93718
 Alpha virt. eigenvalues --    2.93859   2.94029   2.94373   2.94607   2.95032
 Alpha virt. eigenvalues --    2.95337   2.95721   2.95971   2.96109   2.96214
 Alpha virt. eigenvalues --    2.96343   2.96681   2.96744   2.97042   2.97198
 Alpha virt. eigenvalues --    2.97590   2.97878   2.98152   2.98342   2.98583
 Alpha virt. eigenvalues --    2.98764   2.99103   2.99290   2.99579   2.99885
 Alpha virt. eigenvalues --    3.00168   3.00257   3.00459   3.00550   3.00923
 Alpha virt. eigenvalues --    3.01108   3.01265   3.01525   3.02119   3.02463
 Alpha virt. eigenvalues --    3.02700   3.02929   3.02985   3.03090   3.03386
 Alpha virt. eigenvalues --    3.03603   3.03747   3.03884   3.04098   3.04301
 Alpha virt. eigenvalues --    3.04509   3.04782   3.04947   3.05156   3.05348
 Alpha virt. eigenvalues --    3.05582   3.05960   3.06249   3.06415   3.06631
 Alpha virt. eigenvalues --    3.06985   3.07000   3.07304   3.07498   3.07575
 Alpha virt. eigenvalues --    3.07943   3.08252   3.08512   3.08620   3.08897
 Alpha virt. eigenvalues --    3.09482   3.09724   3.09875   3.09930   3.10356
 Alpha virt. eigenvalues --    3.10599   3.10869   3.11093   3.11236   3.11462
 Alpha virt. eigenvalues --    3.11505   3.11725   3.11972   3.12124   3.12205
 Alpha virt. eigenvalues --    3.12463   3.12757   3.12792   3.12913   3.12989
 Alpha virt. eigenvalues --    3.13417   3.13588   3.13910   3.14009   3.14226
 Alpha virt. eigenvalues --    3.14337   3.14509   3.14794   3.14886   3.15235
 Alpha virt. eigenvalues --    3.15276   3.15532   3.16060   3.16173   3.16558
 Alpha virt. eigenvalues --    3.16724   3.16976   3.17341   3.17642   3.17870
 Alpha virt. eigenvalues --    3.17992   3.18417   3.18565   3.18971   3.19126
 Alpha virt. eigenvalues --    3.19559   3.19780   3.20161   3.20271   3.20620
 Alpha virt. eigenvalues --    3.21008   3.21355   3.21425   3.21810   3.22012
 Alpha virt. eigenvalues --    3.22196   3.22618   3.22849   3.23223   3.23409
 Alpha virt. eigenvalues --    3.23590   3.23885   3.24146   3.24575   3.24614
 Alpha virt. eigenvalues --    3.25167   3.25304   3.25389   3.25602   3.25870
 Alpha virt. eigenvalues --    3.26028   3.26550   3.26661   3.27119   3.27390
 Alpha virt. eigenvalues --    3.27537   3.27656   3.27990   3.28195   3.28443
 Alpha virt. eigenvalues --    3.28612   3.28910   3.29120   3.29222   3.29617
 Alpha virt. eigenvalues --    3.29674   3.29755   3.30086   3.30243   3.30391
 Alpha virt. eigenvalues --    3.30555   3.30663   3.30813   3.31261   3.31516
 Alpha virt. eigenvalues --    3.31717   3.32212   3.32322   3.32565   3.32861
 Alpha virt. eigenvalues --    3.33191   3.33303   3.33526   3.33683   3.34068
 Alpha virt. eigenvalues --    3.34145   3.34352   3.34732   3.34965   3.35140
 Alpha virt. eigenvalues --    3.35273   3.35349   3.35627   3.35944   3.36044
 Alpha virt. eigenvalues --    3.36332   3.36645   3.37091   3.37139   3.37307
 Alpha virt. eigenvalues --    3.37701   3.37912   3.38342   3.38418   3.38642
 Alpha virt. eigenvalues --    3.38802   3.39228   3.39728   3.39892   3.39938
 Alpha virt. eigenvalues --    3.40277   3.40536   3.40885   3.40937   3.41174
 Alpha virt. eigenvalues --    3.41630   3.41972   3.42273   3.42925   3.43096
 Alpha virt. eigenvalues --    3.43378   3.43583   3.43772   3.44048   3.44474
 Alpha virt. eigenvalues --    3.44580   3.44928   3.45168   3.45396   3.45690
 Alpha virt. eigenvalues --    3.45976   3.46195   3.46379   3.46510   3.46639
 Alpha virt. eigenvalues --    3.46781   3.47202   3.47351   3.47722   3.47793
 Alpha virt. eigenvalues --    3.47928   3.48226   3.48866   3.49025   3.49523
 Alpha virt. eigenvalues --    3.49576   3.50016   3.50165   3.50390   3.51054
 Alpha virt. eigenvalues --    3.51403   3.51607   3.51821   3.52070   3.52530
 Alpha virt. eigenvalues --    3.52655   3.53161   3.53551   3.53858   3.53908
 Alpha virt. eigenvalues --    3.54063   3.54515   3.54730   3.55125   3.55306
 Alpha virt. eigenvalues --    3.55694   3.56061   3.56390   3.56448   3.56854
 Alpha virt. eigenvalues --    3.57423   3.57674   3.57950   3.58235   3.58558
 Alpha virt. eigenvalues --    3.59061   3.59164   3.59463   3.60346   3.60486
 Alpha virt. eigenvalues --    3.60652   3.61130   3.61412   3.61501   3.61770
 Alpha virt. eigenvalues --    3.62387   3.62793   3.63239   3.63372   3.63643
 Alpha virt. eigenvalues --    3.63748   3.63962   3.64467   3.64759   3.64994
 Alpha virt. eigenvalues --    3.65377   3.65505   3.65979   3.66221   3.66326
 Alpha virt. eigenvalues --    3.66517   3.66804   3.67278   3.67699   3.67849
 Alpha virt. eigenvalues --    3.68132   3.68681   3.69030   3.69133   3.69530
 Alpha virt. eigenvalues --    3.69823   3.70161   3.70422   3.70832   3.71142
 Alpha virt. eigenvalues --    3.71266   3.71857   3.71965   3.72387   3.72766
 Alpha virt. eigenvalues --    3.72893   3.73135   3.73304   3.73663   3.73726
 Alpha virt. eigenvalues --    3.74562   3.75110   3.75452   3.75479   3.75891
 Alpha virt. eigenvalues --    3.76265   3.76355   3.76564   3.76770   3.76951
 Alpha virt. eigenvalues --    3.77202   3.77451   3.77760   3.77905   3.78172
 Alpha virt. eigenvalues --    3.78383   3.78691   3.79171   3.79481   3.79911
 Alpha virt. eigenvalues --    3.80370   3.80784   3.80918   3.81095   3.81396
 Alpha virt. eigenvalues --    3.81488   3.81619   3.82074   3.82186   3.83073
 Alpha virt. eigenvalues --    3.83419   3.83662   3.84016   3.84126   3.84662
 Alpha virt. eigenvalues --    3.84903   3.85372   3.85642   3.86385   3.86861
 Alpha virt. eigenvalues --    3.86914   3.87269   3.87514   3.87652   3.88011
 Alpha virt. eigenvalues --    3.88409   3.88531   3.88753   3.89065   3.89330
 Alpha virt. eigenvalues --    3.89418   3.89669   3.90051   3.90241   3.90480
 Alpha virt. eigenvalues --    3.91161   3.91297   3.91446   3.92476   3.92567
 Alpha virt. eigenvalues --    3.92833   3.93127   3.93738   3.94023   3.94363
 Alpha virt. eigenvalues --    3.94671   3.95005   3.95031   3.95394   3.95481
 Alpha virt. eigenvalues --    3.95572   3.95756   3.95860   3.96182   3.96212
 Alpha virt. eigenvalues --    3.96665   3.97022   3.97326   3.97459   3.97664
 Alpha virt. eigenvalues --    3.97877   3.98343   3.98866   3.99054   3.99256
 Alpha virt. eigenvalues --    3.99654   4.00533   4.01103   4.01142   4.01242
 Alpha virt. eigenvalues --    4.01525   4.01616   4.02327   4.02824   4.02999
 Alpha virt. eigenvalues --    4.03692   4.04206   4.04361   4.04628   4.04809
 Alpha virt. eigenvalues --    4.05165   4.05358   4.05710   4.05852   4.06205
 Alpha virt. eigenvalues --    4.06469   4.06833   4.06905   4.07145   4.07389
 Alpha virt. eigenvalues --    4.07657   4.07910   4.08086   4.08476   4.08666
 Alpha virt. eigenvalues --    4.08856   4.09055   4.10010   4.10023   4.10433
 Alpha virt. eigenvalues --    4.10572   4.10836   4.10843   4.11284   4.11674
 Alpha virt. eigenvalues --    4.11932   4.12197   4.12883   4.13186   4.13342
 Alpha virt. eigenvalues --    4.13853   4.14289   4.14847   4.15116   4.15419
 Alpha virt. eigenvalues --    4.15634   4.16063   4.16251   4.16504   4.16806
 Alpha virt. eigenvalues --    4.17075   4.17352   4.17506   4.17762   4.18105
 Alpha virt. eigenvalues --    4.18321   4.18577   4.18774   4.18850   4.19348
 Alpha virt. eigenvalues --    4.19541   4.19714   4.19831   4.20156   4.20352
 Alpha virt. eigenvalues --    4.20536   4.21119   4.21218   4.21689   4.22054
 Alpha virt. eigenvalues --    4.22406   4.22555   4.22826   4.23261   4.23333
 Alpha virt. eigenvalues --    4.23822   4.23891   4.24207   4.24675   4.25023
 Alpha virt. eigenvalues --    4.25447   4.25642   4.25850   4.26301   4.26606
 Alpha virt. eigenvalues --    4.26849   4.27462   4.27757   4.27801   4.28415
 Alpha virt. eigenvalues --    4.29009   4.29586   4.29835   4.30033   4.30713
 Alpha virt. eigenvalues --    4.31021   4.31662   4.31834   4.32149   4.32475
 Alpha virt. eigenvalues --    4.32923   4.33467   4.33905   4.34433   4.34837
 Alpha virt. eigenvalues --    4.35461   4.35545   4.35729   4.36190   4.36650
 Alpha virt. eigenvalues --    4.38888   4.39742   4.39830   4.40165   4.40661
 Alpha virt. eigenvalues --    4.41030   4.41419   4.42185   4.42275   4.42643
 Alpha virt. eigenvalues --    4.43102   4.44126   4.44170   4.44561   4.45205
 Alpha virt. eigenvalues --    4.46001   4.46626   4.46876   4.47151   4.47540
 Alpha virt. eigenvalues --    4.47795   4.48165   4.48298   4.48557   4.48805
 Alpha virt. eigenvalues --    4.49028   4.49556   4.49598   4.50060   4.50633
 Alpha virt. eigenvalues --    4.51122   4.51322   4.51865   4.52173   4.52506
 Alpha virt. eigenvalues --    4.53076   4.53310   4.53774   4.54088   4.54257
 Alpha virt. eigenvalues --    4.54555   4.55190   4.55390   4.55720   4.56349
 Alpha virt. eigenvalues --    4.57572   4.57728   4.58497   4.58628   4.59032
 Alpha virt. eigenvalues --    4.59486   4.59852   4.60136   4.60336   4.60627
 Alpha virt. eigenvalues --    4.60838   4.61623   4.62112   4.62602   4.62990
 Alpha virt. eigenvalues --    4.64221   4.65384   4.65605   4.65968   4.66075
 Alpha virt. eigenvalues --    4.66434   4.67542   4.67689   4.68199   4.68638
 Alpha virt. eigenvalues --    4.68901   4.69301   4.69520   4.69847   4.70120
 Alpha virt. eigenvalues --    4.70356   4.70670   4.71157   4.71235   4.71403
 Alpha virt. eigenvalues --    4.71578   4.71610   4.71867   4.72375   4.72455
 Alpha virt. eigenvalues --    4.72996   4.73382   4.74563   4.74896   4.76175
 Alpha virt. eigenvalues --    4.77654   4.77956   4.78557   4.79136   4.79429
 Alpha virt. eigenvalues --    4.80813   4.81241   4.82079   4.82775   4.83532
 Alpha virt. eigenvalues --    4.84086   4.84151   4.84726   4.86112   4.86988
 Alpha virt. eigenvalues --    4.87802   4.88257   4.89529   4.89978   4.90693
 Alpha virt. eigenvalues --    4.90907   4.91414   4.92050   4.92956   4.93367
 Alpha virt. eigenvalues --    4.93543   4.93671   4.93814   4.93871   4.94033
 Alpha virt. eigenvalues --    4.94240   4.94582   4.94737   4.94971   4.95758
 Alpha virt. eigenvalues --    4.96055   4.96096   4.96318   4.96522   4.96537
 Alpha virt. eigenvalues --    4.96901   4.96976   4.97220   4.97657   4.98030
 Alpha virt. eigenvalues --    4.98321   4.98853   4.99042   4.99563   4.99968
 Alpha virt. eigenvalues --    5.01299   5.02784   5.04154   5.05647   5.06247
 Alpha virt. eigenvalues --    5.06514   5.06711   5.06928   5.07226   5.07978
 Alpha virt. eigenvalues --    5.08632   5.08724   5.09759   5.10253   5.10622
 Alpha virt. eigenvalues --    5.10814   5.11270   5.11642   5.12091   5.12281
 Alpha virt. eigenvalues --    5.12716   5.13055   5.13365   5.13710   5.14391
 Alpha virt. eigenvalues --    5.15574   5.15845   5.15883   5.16467   5.16904
 Alpha virt. eigenvalues --    5.16952   5.17964   5.19511   5.20053   5.20515
 Alpha virt. eigenvalues --    5.21216   5.21314   5.21353   5.21377   5.22153
 Alpha virt. eigenvalues --    5.24360   5.25247   5.25765   5.27029   5.27458
 Alpha virt. eigenvalues --    5.27637   5.28151   5.28606   5.29034   5.29173
 Alpha virt. eigenvalues --    5.29842   5.30201   5.30522   5.30878   5.31396
 Alpha virt. eigenvalues --    5.32256   5.32571   5.33096   5.33445   5.34158
 Alpha virt. eigenvalues --    5.34759   5.34930   5.35403   5.35470   5.35761
 Alpha virt. eigenvalues --    5.38629   5.38918   5.39587   5.39756   5.40915
 Alpha virt. eigenvalues --    5.41074   5.41152   5.41442   5.41609   5.42974
 Alpha virt. eigenvalues --    5.44646   5.45294   5.46664   5.46910   5.48163
 Alpha virt. eigenvalues --    5.48558   5.49063   5.49115   5.49290   5.49318
 Alpha virt. eigenvalues --    5.49602   5.49627   5.50393   5.51174   5.52633
 Alpha virt. eigenvalues --    5.53167   5.53355   5.53499   5.53653   5.55054
 Alpha virt. eigenvalues --    5.55952   5.57204   5.57904   5.59931   5.60309
 Alpha virt. eigenvalues --    5.60599   5.60703   5.61628   5.62111   5.62694
 Alpha virt. eigenvalues --    5.62837   5.62858   5.63553   5.64345   5.64687
 Alpha virt. eigenvalues --    5.65663   5.65686   5.66575   5.66743   5.68919
 Alpha virt. eigenvalues --    5.69551   5.70338   5.71573   5.71949   5.73520
 Alpha virt. eigenvalues --    5.74543   5.76070   5.77096   5.78317   5.78762
 Alpha virt. eigenvalues --    5.79081   5.79968   5.82818   5.84281   5.84301
 Alpha virt. eigenvalues --    5.84531   5.85791   5.86201   5.94023   5.94235
 Alpha virt. eigenvalues --    5.95881   5.98934   6.00672   6.01724   6.01777
 Alpha virt. eigenvalues --    6.01934   6.02012   6.02036   6.02237   6.03491
 Alpha virt. eigenvalues --    6.07645   6.08413   6.13326   6.16755   6.17057
 Alpha virt. eigenvalues --    6.19733   6.19863   6.20661   6.26463   6.27787
 Alpha virt. eigenvalues --    6.29458   6.37396   6.41634   6.41727   6.41790
 Alpha virt. eigenvalues --    6.46552   6.51715   6.69523   6.69556   6.69793
 Alpha virt. eigenvalues --    6.72108   6.72359   6.72710   6.82798   6.82914
 Alpha virt. eigenvalues --    6.83245   6.91182   6.91245   6.91262   6.93806
 Alpha virt. eigenvalues --    6.94396   6.97023   6.98453   6.99147   6.99890
 Alpha virt. eigenvalues --    7.05355   7.11174   7.16557   7.21888   7.24273
 Alpha virt. eigenvalues --    7.26898   7.27292   7.27351   7.27470   7.33615
 Alpha virt. eigenvalues --    7.34636   7.44268   7.44334   7.44497   8.44789
 Alpha virt. eigenvalues --    8.47810   8.55699   8.58846   8.84310   8.87692
 Alpha virt. eigenvalues --    8.92485   8.93040   8.94137   8.99436  15.84307
 Alpha virt. eigenvalues --   22.79169  22.85158  22.87309  22.88403  22.90752
 Alpha virt. eigenvalues --   22.97349  22.98242  23.10324  23.12905  23.14745
 Alpha virt. eigenvalues --   23.15357  23.16709  23.18480  23.20324  23.21985
 Alpha virt. eigenvalues --   23.24174  23.24899  23.27529  23.27935  23.28298
 Alpha virt. eigenvalues --   23.29133  23.29574  23.30593  23.33539  23.34651
 Alpha virt. eigenvalues --   23.36842  23.37533  23.37824  23.42055  23.50092
 Alpha virt. eigenvalues --   23.52605  23.57772  23.60892  23.62930  23.64411
 Alpha virt. eigenvalues --   23.64496  23.65054  23.74164  23.84282  24.07404
 Alpha virt. eigenvalues --   24.10370  24.18227  24.23151  24.27740  32.19682
 Alpha virt. eigenvalues --   32.20173  33.10669  33.29097  44.49383  44.49500
 Alpha virt. eigenvalues --   44.49567  57.41741  57.60607
          Condensed to atoms (all electrons):
 Mulliken charges:
               1
     1  C   -0.247805
     2  O   -0.307362
     3  C    0.211381
     4  C   -0.194913
     5  C   -0.136959
     6  C   -0.127928
     7  C    0.038570
     8  C    0.152073
     9  C   -0.184959
    10  C   -0.152879
    11  C   -0.169135
    12  C    0.225661
    13  O   -0.302110
    14  C   -0.249145
    15  C   -0.168149
    16  C   -0.160845
    17  N   -0.084770
    18  C   -0.037345
    19  C   -0.048603
    20  C    0.224400
    21  C   -0.096952
    22  C   -0.186855
    23  C   -0.103373
    24  C    0.106908
    25  C   -0.194438
    26  N   -0.071402
    27  C   -0.103646
    28  C   -0.186572
    29  C   -0.045805
    30  C   -0.045969
    31  C    0.051262
    32  C   -0.070947
    33  C   -0.161065
    34  C   -0.106073
    35  C    0.095800
    36  C   -0.200402
    37  N   -0.082036
    38  C   -0.137641
    39  C   -0.120831
    40  C    0.132285
    41  C   -0.209205
    42  C   -0.123914
    43  C   -0.170688
    44  C    0.224823
    45  O   -0.302301
    46  C   -0.249278
    47  C   -0.163646
    48  C   -0.180393
    49  N   -0.086483
    50  B    0.397942
    51  F   -0.339300
    52  F   -0.339440
    53  C   -0.160653
    54  C   -0.166649
    55  H    0.148302
    56  H    0.146350
    57  H    0.146101
    58  H    0.155587
    59  H    0.153266
    60  H    0.161463
    61  H    0.157856
    62  H    0.148066
    63  H    0.149517
    64  H    0.149231
    65  H    0.160131
    66  H    0.168115
    67  H    0.222961
    68  H    0.195632
    69  H    0.174899
    70  H    0.175038
    71  H    0.195548
    72  H    0.224632
    73  H    0.174752
    74  H    0.169113
    75  H    0.168870
    76  H    0.159807
    77  H    0.156076
    78  H    0.159955
    79  H    0.148586
    80  H    0.149460
    81  H    0.148276
    82  H    0.158102
    83  H    0.169862
    84  H    0.165083
    85  H    0.157124
 Sum of Mulliken charges =  -0.00000
 Mulliken charges with hydrogens summed into heavy atoms:
               1
     1  C    0.192948
     2  O   -0.307362
     3  C    0.211381
     4  C   -0.039327
     5  C    0.016307
     6  C   -0.127928
     7  C    0.038570
     8  C    0.152073
     9  C   -0.184959
    10  C    0.008584
    11  C   -0.011279
    12  C    0.225661
    13  O   -0.302110
    14  C    0.197668
    15  C   -0.008017
    16  C    0.007270
    17  N   -0.084770
    18  C   -0.037345
    19  C    0.174358
    20  C    0.224400
    21  C   -0.096952
    22  C    0.008777
    23  C    0.071526
    24  C    0.106908
    25  C   -0.194438
    26  N   -0.071402
    27  C    0.071391
    28  C    0.008976
    29  C   -0.045805
    30  C    0.178662
    31  C    0.051262
    32  C   -0.070947
    33  C    0.013687
    34  C    0.063040
    35  C    0.095800
    36  C   -0.200402
    37  N   -0.082036
    38  C    0.031229
    39  C    0.038976
    40  C    0.132285
    41  C   -0.209205
    42  C    0.032162
    43  C   -0.010733
    44  C    0.224823
    45  O   -0.302301
    46  C    0.197045
    47  C   -0.005543
    48  C   -0.010531
    49  N   -0.086483
    50  B    0.397942
    51  F   -0.339300
    52  F   -0.339440
    53  C    0.004429
    54  C   -0.009524
 Electronic spatial extent (au):  <R**2>=          46400.4616
 Charge=              0.0000 electrons
 Dipole moment (field-independent basis, Debye):
    X=              6.6198    Y=             -2.6635    Z=             -1.6983  Tot=              7.3349
 Quadrupole moment (field-independent basis, Debye-Ang):
   XX=           -355.4023   YY=           -328.2011   ZZ=           -298.0625
   XY=             35.4268   XZ=             16.5316   YZ=             18.5302
 Traceless Quadrupole moment (field-independent basis, Debye-Ang):
   XX=            -28.1804   YY=             -0.9791   ZZ=             29.1595
   XY=             35.4268   XZ=             16.5316   YZ=             18.5302
 Octapole moment (field-independent basis, Debye-Ang**2):
  XXX=           1461.5781  YYY=          -1097.9541  ZZZ=             -0.7196  XYY=             -1.2109
  XXY=           -196.7818  XXZ=             13.5611  XZZ=             10.2926  YZZ=            -21.9968
  YYZ=            -88.7574  XYZ=             28.6558
 Hexadecapole moment (field-independent basis, Debye-Ang**3):
 XXXX=         -50959.5254 YYYY=         -28588.9664 ZZZZ=          -1242.5624 XXXY=           4798.9118
 XXXZ=           1642.3336 YYYX=           -166.7558 YYYZ=            888.5391 ZZZX=             29.2612
 ZZZY=              1.7163 XXYY=          -9477.4150 XXZZ=          -6718.4677 YYZZ=          -3686.5459
 XXYZ=            381.6704 YYXZ=             91.6159 ZZXY=             56.1442
 N-N= 6.576805866749D+03 E-N=-1.866137051041D+04  KE= 2.351889204128D+03
 No NMR shielding tensors so no spin-rotation constants.
 Leave Link  601 at Thu Nov  6 19:31:28 2025, MaxMem= 30870077440 cpu:             110.9 elap:               2.1
 (Enter /public/software/gauss/g16/l9999.exe)
 1\1\GINC-CU015\SP\RM062X\def2TZVPP\C44H31B1F2N4O3\BAIDING\06-Nov-2025\
 0\\#p M062X/DEF2TZVPP scrf=(solvent=water) em=GD3\\Energy calculation 
 for M100033923\\0,1\C,0,9.774687,1.629018,0.58771\O,0,9.024589,0.68789
 3,-0.185698\C,0,7.656971,0.725867,-0.093678\C,0,6.939993,1.621779,0.70
 748\C,0,5.545139,1.563707,0.723166\C,0,4.834838,0.628982,-0.045191\C,0
 ,3.35933,0.634731,-0.04153\C,0,2.471817,-0.49147,-0.066203\C,0,2.85684
 5,-1.910926,0.006051\C,0,2.409357,-2.863505,-0.921996\C,0,2.817478,-4.
 195222,-0.848669\C,0,3.684734,-4.598977,0.173954\O,0,4.140913,-5.87621
 3,0.343273\C,0,3.696431,-6.879635,-0.576739\C,0,4.1434,-3.657788,1.109
 819\C,0,3.742863,-2.333887,1.01842\N,0,1.18616,-0.050143,-0.109282\C,0
 ,1.207055,1.347439,-0.094003\C,0,2.556405,1.768347,-0.0513\C,0,0.02822
 5,2.101435,-0.049418\C,0,0.096276,3.583313,-0.089021\C,0,0.790496,4.23
 4941,-1.123511\C,0,0.857368,5.622196,-1.166944\C,0,0.231982,6.378338,-
 0.161812\C,0,0.302882,7.806994,-0.19759\N,0,0.360702,8.97115,-0.226489
 \C,0,-0.462215,5.739303,0.878827\C,0,-0.53093,4.351721,0.907394\C,0,-1
 .221579,1.460142,0.035756\C,0,-2.52122,1.998923,-0.027128\C,0,-3.42467
 4,0.938413,0.043061\C,0,-4.890694,1.073435,0.069999\C,0,-5.69763,0.259
 703,0.888938\C,0,-7.074852,0.431017,0.931522\C,0,-7.679671,1.431955,0.
 150946\C,0,-9.096484,1.612025,0.191544\N,0,-10.253493,1.759262,0.22463
 9\C,0,-6.888592,2.257357,-0.666841\C,0,-5.512755,2.073749,-0.702136\C,
 0,-2.646656,-0.256823,0.130054\C,0,-3.151518,-1.641785,0.138921\C,0,-2
 .813047,-2.561291,1.150611\C,0,-3.33843,-3.845577,1.146995\C,0,-4.2126
 79,-4.250833,0.126427\O,0,-4.669837,-5.536681,0.209025\C,0,-5.567919,-
 5.999759,-0.805634\C,0,-4.562032,-3.349874,-0.887617\C,0,-4.0381,-2.05
 8202,-0.866653\N,0,-1.325962,0.071408,0.133508\B,0,-0.114813,-0.914194
 ,0.012789\F,0,-0.009772,-1.7162,1.149585\F,0,-0.300472,-1.698294,-1.12
 8785\C,0,5.578146,-0.259091,-0.847938\C,0,6.965365,-0.213914,-0.873046
 \H,0,10.82348,1.42718,0.366537\H,0,9.535021,2.659502,0.303789\H,0,9.59
 7126,1.494913,1.660366\H,0,7.449068,2.355249,1.320835\H,0,5.000198,2.2
 55914,1.358262\H,0,1.736239,-2.563603,-1.714718\H,0,2.458573,-4.900454
 ,-1.588058\H,0,4.009751,-6.647309,-1.600054\H,0,4.169901,-7.807489,-0.
 254122\H,0,2.607882,-6.994336,-0.543058\H,0,4.811189,-3.984907,1.90016
 3\H,0,4.103167,-1.618554,1.749992\H,0,2.894244,2.794054,-0.047338\H,0,
 1.26144,3.651323,-1.906318\H,0,1.385054,6.121388,-1.971803\H,0,-0.9367
 12,6.328666,1.655398\H,0,-1.054542,3.858527,1.718429\H,0,-2.766234,3.0
 4871,-0.09131\H,0,-5.240476,-0.500012,1.511936\H,0,-7.685511,-0.196867
 ,1.571192\H,0,-7.35591,3.02793,-1.270247\H,0,-4.909475,2.704463,-1.346
 598\H,0,-2.138853,-2.263416,1.94325\H,0,-3.085314,-4.551473,1.93146\H,
 0,-5.099348,-5.969739,-1.795027\H,0,-5.800767,-7.032937,-0.545759\H,0,
 -6.490757,-5.410293,-0.818308\H,0,-5.230857,-3.64012,-1.688282\H,0,-4.
 312556,-1.367852,-1.65768\H,0,5.062889,-0.980787,-1.472664\H,0,7.53276
 6,-0.895614,-1.498806\\Version=ES64L-G16RevA.03\State=1-A\HF=-2364.735
 2246\RMSD=3.514e-09\Dipole=2.6044472,-1.0479151,-0.668156\Quadrupole=-
 20.9514207,-0.727952,21.6793727,26.3389705,12.2908556,13.7767483\PG=C0
 1 [X(C44H31B1F2N4O3)]\\@


 ... IT IS NO ONE DREAME THAT
     CAN PLEASE THESE ALL ...

                -- BEN JONSON
 Job cpu time:       0 days 23 hours 57 minutes  2.0 seconds.
 Elapsed time:       0 days  0 hours 22 minutes 52.0 seconds.
 File lengths (MBytes):  RWF=   2944 Int=      0 D2E=      0 Chk=    258 Scr=      1
 Normal termination of Gaussian 16 at Thu Nov  6 19:31:29 2025.
